FOO
135168
    1MOL0     O    1   9.640   4.460   7.011  0.5185 -0.0795 -0.2005
    1MOL0     C    2   9.653   4.566   7.075  1.2787 -0.1619 -0.2973
    1MOL0     O    3   9.570   4.618   7.163  0.2295  0.2157 -0.4081
    1MOL0     C    4   9.461   4.534   7.187 -0.2311  0.1627 -0.0053
    1MOL0     C    5   9.352   4.553   7.102 -0.4201 -0.0306  0.2868
    1MOL0     C    6   9.234   4.476   7.119 -0.2633  0.6047  0.6277
    1MOL0     C    7   9.229   4.378   7.223 -0.0700  0.4021 -0.1665
    1MOL0     O    8   9.124   4.290   7.242  0.8699 -0.2965 -0.0004
    1MOL0     C    9   9.024   4.296   7.151 -0.3223 -0.4753 -0.3201
    1MOL0     C   10   8.934   4.177   7.178  0.1743 -0.1174  0.3144
    1MOL0     C   11   8.822   4.155   7.080  0.4202  0.4410  0.4343
    1MOL0     C   12   8.737   4.037   7.128  0.1390 -0.1735  0.9607
    1MOL0     C   13   8.615   4.006   7.041  0.2297 -0.0694 -1.0682
    1MOL0     C   14   8.542   4.130   6.993  0.1001  0.5487  0.1710
    1MOL0     C   15   8.414   4.097   6.909  0.8216 -0.2464  0.2483
    1MOL0     C   16   8.296   4.070   6.995  0.3829 -0.0261  0.4363
    1MOL0     N   17   8.165   4.070   6.921 -0.2244 -0.4322  0.1675
    1MOL0     C   18   8.095   4.184   6.882  0.2284 -0.5441  0.4691
    1MOL0     C   19   7.965   4.152   6.873 -0.1715  0.1952 -0.2652
    1MOL0     C   20   7.854   4.244   6.835 -0.7373  0.7281  0.0491
    1MOL0     C   21   7.760   4.186   6.720 -0.3935  0.0307 -0.2549
    1MOL0     C   22   7.704   4.297   6.635  0.4605 -0.0595 -0.1994
    1MOL0     C   23   7.608   4.391   6.719 -0.4836 -0.1458  0.5352
    1MOL0     O   24   7.524   4.301   6.790 -0.5564  0.4351 -0.4053
    1MOL0     C   25   7.392   4.315   6.763  0.0106 -0.4227 -0.3049
    1MOL0     C   26   7.324   4.437   6.775  0.5751 -0.4492 -0.1544
    1MOL0     C   27   7.186   4.451   6.753 -0.4330 -0.0945 -0.1010
    1MOL0     C   28   7.099   4.339   6.740 -0.1108 -0.4875 -0.5621
    1MOL0     C   29   6.949   4.351   6.728  0.3168 -0.1639 -0.9166
    1MOL0     O   30   6.897   4.475   6.710 -0.0695 -0.1301  0.4329
    1MOL0     C   31   6.769   4.489   6.674 -0.1025 -0.3613 -0.6634
    1MOL0     C   32   6.667   4.470   6.769  0.3166  0.7764  0.9227
    1MOL0     C   33   6.533   4.485   6.724  0.1702  0.3935  0.0525
    1MOL0     C   34   6.496   4.539   6.601 -0.2924  0.1853  0.0242
    1MOL0     O   35   6.363   4.570   6.594 -0.4579  0.1538  0.3287
    1MOL0     C   36   6.328   4.672   6.496  0.2963 -0.4866 -0.3217
    1MOL0     C   37   6.181   4.728   6.508  0.5181 -0.3817  0.6084
    1MOL0     C   38   6.081   4.636   6.439 -0.3875 -0.0019 -0.4576
    1MOL0     C   39   5.940   4.685   6.436 -0.0581 -1.3109 -0.0134
    1MOL0     C   40   5.852   4.582   6.381  0.1654  0.6977  0.6075
    1MOL0     C   41   5.709   4.646   6.342 -0.9378  0.3336 -0.1491
    1MOL0     C   42   5.607   4.554   6.271 -0.5895 -0.4792 -1.1350
    1MOL0     C   43   5.477   4.628   6.264 -0.9758  0.5873 -0.3027
    1MOL0    Cl   44   5.424   4.688   6.429 -0.1107 -0.1804  0.0726
    1MOL0     C   45   6.597   4.574   6.519  0.3590  0.6344 -0.1343
    1MOL0     C   46   6.734   4.546   6.548  0.0813 -0.1583  0.0961
    1MOL0     O   47   6.883   4.250   6.708 -0.3344  0.1513 -0.2463
    1MOL0     C   48   7.162   4.214   6.723  0.2437 -0.3530  0.2457
    1MOL0     C   49   7.307   4.206   6.736  0.4647 -0.6678  0.3590
    1MOL0     N   50   7.956   4.017   6.911  0.3772 -0.6504 -0.1919
    1MOL0     N   51   8.075   3.965   6.940  0.1124 -0.1695  0.0741
    1MOL0     C   52   9.339   4.354   7.305  1.0699 -0.3382 -0.3008
    1MOL0     C   53   9.451   4.438   7.289 -0.0900  0.4753 -0.4541
    1MOL0     C   54   9.777   4.648   7.061  0.3305  0.3798  0.1913
    1MOL0     C   55   9.894   4.594   6.999  0.3043  0.1800 -0.1445
    1MOL0     C   56  10.006   4.671   6.978 -0.2820 -0.1074  0.4135
    1MOL0     C   57  10.017   4.800   7.028  0.7731  1.2026  0.5483
    1MOL0     O   58  10.123   4.883   7.014  0.0991 -0.2018  0.0242
    1MOL0     C   59  10.244   4.825   6.952  0.1238 -0.7315 -0.2393
    1MOL0     C   60  10.318   4.752   7.064  0.6350 -0.1230  1.2525
    1MOL0     C   61  10.457   4.701   7.007 -0.7238  0.2384  1.2516
    1MOL0     C   62  10.535   4.622   7.112 -0.7312  0.0522 -0.4727
    1MOL0     C   63  10.678   4.634   7.096 -0.9463 -0.4040  0.0708
    1MOL0     C   64  10.794   4.638   7.069 -0.1525 -0.2703  0.5914
    1MOL0     C   65   9.897   4.856   7.081  0.0825 -0.2141  0.4962
    1MOL0     C   66   9.780   4.777   7.104 -0.1852 -0.1547  0.3479
    1MOL0     H   67   9.372   4.623   7.021  0.8499 -2.4065 -1.6142
    1MOL0     H   68   9.146   4.487   7.056  0.3614 -1.9911 -0.8437
    1MOL0     H   69   9.054   4.276   7.048 -0.2443 -1.7386 -0.0648
    1MOL0     H   70   8.963   4.387   7.154 -0.6332 -0.6621  2.4848
    1MOL0     H   71   8.908   4.176   7.284 -2.8027 -2.4487 -0.3349
    1MOL0     H   72   8.993   4.085   7.168 -3.4100 -2.8370  2.0720
    1MOL0     H   73   8.862   4.135   6.980  2.0973 -4.5887  1.8249
    1MOL0     H   74   8.765   4.248   7.082  2.0033  1.4947  3.0843
    1MOL0     H   75   8.794   3.945   7.111  0.0355  0.0040 -0.4256
    1MOL0     H   76   8.708   4.056   7.232 -1.1050  2.7508  0.1583
    1MOL0     H   77   8.550   3.944   7.102  0.8601 -0.4259 -0.7492
    1MOL0     H   78   8.641   3.951   6.950 -2.1018 -0.4679 -1.5640
    1MOL0     H   79   8.612   4.190   6.933 -0.8115  1.3362 -0.1388
    1MOL0     H   80   8.513   4.195   7.077 -1.2065 -3.3799  3.0428
    1MOL0     H   81   8.386   4.189   6.857  0.5480  1.0529  2.6031
    1MOL0     H   82   8.430   4.018   6.835  1.4583 -0.6083  0.7622
    1MOL0     H   83   8.290   4.161   7.054 -2.0021  0.1731  0.0107
    1MOL0     H   84   8.307   3.984   7.062 -2.5126 -2.0937 -1.4596
    1MOL0     H   85   8.131   4.286   6.872 -0.0275 -0.6674 -2.1888
    1MOL0     H   86   7.899   4.331   6.788  1.5113 -0.6540 -0.5228
    1MOL0     H   87   7.796   4.262   6.926 -1.3112 -2.4030  0.4522
    1MOL0     H   88   7.676   4.129   6.762 -0.0768  0.6024  1.2353
    1MOL0     H   89   7.821   4.131   6.648  0.2692  1.0380 -0.4751
    1MOL0     H   90   7.792   4.357   6.607  0.7334  2.0728  4.3404
    1MOL0     H   91   7.650   4.250   6.553  0.6317 -3.4154  1.4387
    1MOL0     H   92   7.549   4.459   6.657 -1.0849 -0.7883  0.3978
    1MOL0     H   93   7.659   4.449   6.798 -1.5558 -1.6497  2.4132
    1MOL0     H   94   7.375   4.530   6.798 -0.8391  0.0841  0.9512
    1MOL0     H   95   7.153   4.554   6.748  3.8048  1.5023  0.3728
    1MOL0     H   96   6.691   4.431   6.867  0.4143 -1.8070 -0.0602
    1MOL0     H   97   6.455   4.472   6.799  0.8162 -2.9994  0.3093
    1MOL0     H   98   6.343   4.637   6.393 -0.0003  1.5495 -1.0907
    1MOL0     H   99   6.389   4.761   6.515  2.6062 -2.3736  1.7901
    1MOL0     H  100   6.173   4.820   6.449 -0.8070 -1.1528 -0.4469
    1MOL0     H  101   6.172   4.748   6.615  0.7229  0.9632  0.3930
    1MOL0     H  102   6.076   4.539   6.491  1.9679 -0.4227 -0.8979
    1MOL0     H  103   6.120   4.636   6.337 -0.3192  1.2574 -0.4411
    1MOL0     H  104   5.909   4.719   6.535  0.0689 -1.2216 -0.0053
    1MOL0     H  105   5.932   4.766   6.362 -1.4502 -0.4296  1.0456
    1MOL0     H  106   5.840   4.503   6.456  1.4222  1.2855  1.4620
    1MOL0     H  107   5.909   4.545   6.295  0.9974  2.0978  0.5323
    1MOL0     H  108   5.737   4.722   6.268  2.2087 -1.3959 -0.9389
    1MOL0     H  109   5.665   4.691   6.431 -0.2663  0.4587  0.1275
    1MOL0     H  110   5.649   4.531   6.173  2.8006 -1.3682  0.3751
    1MOL0     H  111   5.595   4.456   6.319  0.9331 -0.6224 -0.9763
    1MOL0     H  112   5.398   4.566   6.219 -0.0404  0.8465 -2.4250
    1MOL0     H  113   5.497   4.712   6.197  0.8953  0.9816  0.6811
    1MOL0     H  114   6.565   4.619   6.426 -1.5291  0.3746  0.3610
    1MOL0     H  115   6.804   4.551   6.466  2.0604 -0.1638  1.6917
    1MOL0     H  116   7.108   4.121   6.709 -0.4126 -0.0250  0.5183
    1MOL0     H  117   7.360   4.113   6.717  1.5224  0.3587 -2.2434
    1MOL0     H  118   9.332   4.271   7.374  0.7110  0.5081  0.7024
    1MOL0     H  119   9.518   4.431   7.374  0.4176  2.2510 -0.6847
    1MOL0     H  120   9.886   4.490   6.967 -0.1077 -0.0112  0.5448
    1MOL0     H  121  10.089   4.631   6.921  2.0741 -2.3613  4.9194
    1MOL0     H  122  10.305   4.911   6.922 -1.2489  1.1677  2.0092
    1MOL0     H  123  10.222   4.764   6.863  0.2141 -2.2720  0.7578
    1MOL0     H  124  10.346   4.821   7.144  1.0677  1.9757 -0.6284
    1MOL0     H  125  10.272   4.660   7.102 -1.1071 -0.3861 -1.2615
    1MOL0     H  126  10.516   4.785   6.968 -0.1694 -1.5144 -1.9990
    1MOL0     H  127  10.439   4.637   6.921  1.3033  0.7698  0.3871
    1MOL0     H  128  10.519   4.664   7.211  1.2121 -1.2915  0.4868
    1MOL0     H  129  10.507   4.516   7.117 -0.7291  0.0898  0.4445
    1MOL0     H  130  10.894   4.641   7.031  0.1122 -0.6986  1.2278
    1MOL0     H  131   9.896   4.960   7.113  3.2197 -0.1187  0.5843
    1MOL0     H  132   9.693   4.812   7.158  0.8837 -0.0420  2.0711
    2MOL0     O  133   5.959   7.245   8.489 -0.0852 -0.1964 -0.1975
    2MOL0     C  134   5.882   7.325   8.429  0.2044 -0.5249  0.1816
    2MOL0     O  135   5.907   7.385   8.311  0.1437 -0.5394 -0.8737
    2MOL0     C  136   6.024   7.359   8.253  0.1358 -0.3688 -0.4434
    2MOL0     C  137   6.112   7.475   8.247 -0.1671 -0.0674  0.0349
    2MOL0     C  138   6.239   7.448   8.190 -0.2295  0.0334  0.3988
    2MOL0     C  139   6.281   7.322   8.147 -0.0780  0.2359 -0.9189
    2MOL0     O  140   6.408   7.293   8.103  0.6414 -0.1653 -0.1417
    2MOL0     C  141   6.510   7.389   8.135 -0.5903 -0.3354  0.3852
    2MOL0     C  142   6.652   7.344   8.106 -0.1618  0.7435 -1.3560
    2MOL0     C  143   6.757   7.451   8.126  0.6836  0.2349 -1.0776
    2MOL0     C  144   6.889   7.393   8.079 -0.5978 -0.3188  0.1437
    2MOL0     C  145   6.998   7.500   8.082 -0.1092 -0.2299  0.2369
    2MOL0     C  146   6.960   7.609   7.980 -0.1349 -0.3710  0.8481
    2MOL0     C  147   6.965   7.566   7.828  0.3439  0.2480  0.2063
    2MOL0     C  148   6.982   7.690   7.739  0.6579 -0.1493 -0.3684
    2MOL0     N  149   6.980   7.680   7.598 -0.2719 -0.2633  0.2132
    2MOL0     C  150   6.904   7.594   7.531  0.1722 -0.1515 -0.8298
    2MOL0     C  151   6.934   7.612   7.402  0.5649 -0.4115 -0.2854
    2MOL0     C  152   6.873   7.538   7.291  0.3982  0.7535  0.0635
    2MOL0     C  153   6.731   7.579   7.258 -0.4870  0.1017 -0.1437
    2MOL0     C  154   6.676   7.521   7.133  0.1102  0.4254  0.4454
    2MOL0     C  155   6.523   7.530   7.131 -0.6109  0.3863 -0.4472
    2MOL0     O  156   6.459   7.439   7.032  0.0113  0.0207 -0.4646
    2MOL0     C  157   6.320   7.438   7.024  0.4220  0.5470 -0.7171
    2MOL0     C  158   6.234   7.535   7.077  0.1174  0.0326 -0.9873
    2MOL0     C  159   6.096   7.509   7.095 -0.5682 -0.1848 -0.7823
    2MOL0     C  160   6.042   7.389   7.043  0.4429  0.2490 -0.2391
    2MOL0     C  161   5.898   7.373   7.042 -0.3290  0.9412  0.1473
    2MOL0     O  162   5.824   7.453   7.124 -0.3025 -0.1772 -0.6112
    2MOL0     C  163   5.687   7.424   7.142 -0.2739 -0.5302 -0.3922
    2MOL0     C  164   5.594   7.525   7.149  0.3621  0.6196 -0.4285
    2MOL0     C  165   5.463   7.487   7.183  0.4339 -0.2035  0.8759
    2MOL0     C  166   5.427   7.359   7.200  0.1214  0.5511 -0.0930
    2MOL0     O  167   5.291   7.348   7.231 -0.3093  0.0405 -0.3947
    2MOL0     C  168   5.219   7.229   7.213  1.1855  0.1308  0.2559
    2MOL0     C  169   5.059   7.243   7.199  1.2238 -1.4062  0.5594
    2MOL0     C  170   5.041   7.344   7.092 -0.3724  0.3353 -0.7794
    2MOL0     C  171   4.894   7.360   7.058  0.2517 -0.8383 -0.4750
    2MOL0     C  172   4.831   7.444   7.178 -0.0859 -0.0210  0.3103
    2MOL0     C  173   4.691   7.477   7.149  0.1627 -0.7120 -0.1945
    2MOL0     C  174   4.628   7.570   7.254  0.7350  0.4434 -0.6064
    2MOL0     C  175   4.482   7.589   7.220  1.1557  0.0660 -0.0045
    2MOL0    Cl  176   4.413   7.710   7.329  0.4415 -0.2666  0.2210
    2MOL0     C  177   5.514   7.257   7.186 -0.3951 -0.7676 -0.1019
    2MOL0     C  178   5.647   7.287   7.158  0.2848 -0.1470 -0.8070
    2MOL0     O  179   5.851   7.298   6.952 -0.2763 -0.8015 -0.4462
    2MOL0     C  180   6.126   7.299   6.965  0.3606  0.4554  0.2818
    2MOL0     C  181   6.266   7.329   6.955  0.3980  0.0005  0.1295
    2MOL0     N  182   7.038   7.701   7.399  0.4835 -0.2448  0.2448
    2MOL0     N  183   7.065   7.739   7.510 -0.6316 -0.3549 -0.1465
    2MOL0     C  184   6.189   7.214   8.157 -0.6224 -0.1354  0.1647
    2MOL0     C  185   6.061   7.234   8.209 -0.2049  1.0258 -0.1573
    2MOL0     C  186   5.746   7.355   8.489 -0.3595 -0.2601 -0.2791
    2MOL0     C  187   5.737   7.368   8.626 -0.1790  0.0238  0.1948
    2MOL0     C  188   5.622   7.422   8.688 -0.5590 -0.4484 -0.0938
    2MOL0     C  189   5.511   7.453   8.606 -0.4763  0.3345 -0.8280
    2MOL0     O  190   5.411   7.495   8.682  0.3857 -0.0754  0.1776
    2MOL0     C  191   5.287   7.532   8.627 -0.7273 -0.3990 -1.3055
    2MOL0     C  192   5.201   7.591   8.744 -0.4450 -0.0976 -0.4649
    2MOL0     C  193   5.271   7.704   8.830 -0.0402 -0.5489 -0.2818
    2MOL0     C  194   5.178   7.761   8.929 -0.4289  0.5661 -1.4382
    2MOL0     C  195   5.251   7.827   9.041 -0.9100 -0.4355 -1.0253
    2MOL0     C  196   5.316   7.889   9.127 -0.5875 -0.0803 -0.1844
    2MOL0     C  197   5.518   7.428   8.467  0.2190 -0.0776 -0.5384
    2MOL0     C  198   5.639   7.386   8.408  0.8681 -0.7139  0.4893
    2MOL0     H  199   6.087   7.576   8.276 -2.3709 -0.5775  0.0987
    2MOL0     H  200   6.307   7.530   8.169  0.3817 -0.3057  1.0002
    2MOL0     H  201   6.500   7.427   8.237 -0.8380 -3.5835  1.6889
    2MOL0     H  202   6.492   7.459   8.052 -2.7461 -2.5898 -1.1636
    2MOL0     H  203   6.652   7.301   8.005  1.9103 -1.8797 -0.3625
    2MOL0     H  204   6.682   7.262   8.172 -0.3106  2.0444  0.3815
    2MOL0     H  205   6.758   7.473   8.233  0.5140 -1.2318 -0.7622
    2MOL0     H  206   6.722   7.542   8.076 -0.1179  0.1602 -0.6841
    2MOL0     H  207   6.927   7.312   8.140  2.6863 -0.0638 -1.3448
    2MOL0     H  208   6.874   7.356   7.977 -0.9170  2.5976 -0.9854
    2MOL0     H  209   7.098   7.472   8.049  1.3304  0.2204  3.7591
    2MOL0     H  210   7.020   7.548   8.178  2.9965  0.7098 -0.8341
    2MOL0     H  211   7.035   7.689   7.988 -1.9693  1.4623  0.6229
    2MOL0     H  212   6.870   7.664   8.010  0.5495  1.0888  0.3569
    2MOL0     H  213   7.044   7.490   7.818 -0.4173 -0.9046  2.3636
    2MOL0     H  214   6.867   7.523   7.803  1.0908 -0.4027 -1.8358
    2MOL0     H  215   7.077   7.739   7.762  2.1024 -3.0042  0.2287
    2MOL0     H  216   6.898   7.755   7.766 -0.1231 -1.3919  0.3329
    2MOL0     H  217   6.827   7.530   7.573 -0.9735  0.7032 -1.5461
    2MOL0     H  218   6.873   7.432   7.316  0.3682  0.2267 -2.0115
    2MOL0     H  219   6.930   7.555   7.199  0.4131  2.8756  0.4051
    2MOL0     H  220   6.736   7.688   7.243  0.6238  0.1194  0.2670
    2MOL0     H  221   6.663   7.560   7.342 -1.4402 -0.9057 -1.1056
    2MOL0     H  222   6.728   7.571   7.050 -2.4237  0.3787 -1.2735
    2MOL0     H  223   6.694   7.413   7.134  1.1289  0.4170 -3.0845
    2MOL0     H  224   6.497   7.635   7.113  0.3802  0.7645  0.1701
    2MOL0     H  225   6.497   7.495   7.232  1.7001  2.7168  1.1102
    2MOL0     H  226   6.287   7.625   7.107  0.2413 -0.0290 -1.0214
    2MOL0     H  227   6.040   7.596   7.130  0.9226  0.5632 -0.1787
    2MOL0     H  228   5.627   7.628   7.142 -1.9847  1.5597  0.8173
    2MOL0     H  229   5.387   7.565   7.179  0.6729 -0.0216 -0.4475
    2MOL0     H  230   5.252   7.183   7.307  2.0708  2.5929  1.2276
    2MOL0     H  231   5.251   7.169   7.127  1.6168 -0.3529  0.7404
    2MOL0     H  232   5.023   7.281   7.294  1.2943  2.5972 -0.7987
    2MOL0     H  233   5.018   7.144   7.182 -2.6524  0.0481  0.4783
    2MOL0     H  234   5.100   7.306   7.009 -1.2986  1.4268 -1.9760
    2MOL0     H  235   5.084   7.435   7.134  2.9913 -2.2232  1.9443
    2MOL0     H  236   4.892   7.413   6.962 -1.9943 -2.9547 -1.7164
    2MOL0     H  237   4.845   7.267   7.028  0.4252 -1.0986  0.0422
    2MOL0     H  238   4.879   7.541   7.197 -0.4041  0.1571  0.2026
    2MOL0     H  239   4.852   7.389   7.270 -1.1468  0.8253  1.0843
    2MOL0     H  240   4.631   7.386   7.141  1.8496 -1.7966 -1.3102
    2MOL0     H  241   4.679   7.536   7.058  0.4627  0.0300  0.2362
    2MOL0     H  242   4.644   7.534   7.356 -1.0274  1.7203  0.1690
    2MOL0     H  243   4.685   7.664   7.252  0.5498  0.8167  3.3522
    2MOL0     H  244   4.426   7.498   7.240  0.8832  0.5286  1.4350
    2MOL0     H  245   4.472   7.615   7.114 -2.7359 -2.8780 -0.6145
    2MOL0     H  246   5.493   7.151   7.190 -0.6766 -0.7414 -0.7126
    2MOL0     H  247   5.719   7.207   7.149  1.4814  0.4454  2.3528
    2MOL0     H  248   6.087   7.219   6.902 -0.5565  1.7201 -0.8291
    2MOL0     H  249   6.326   7.257   6.901  0.6173  1.7105 -2.0316
    2MOL0     H  250   6.222   7.116   8.124  0.4451  0.5791 -0.9793
    2MOL0     H  251   5.990   7.153   8.222  1.2888 -0.0246  2.2202
    2MOL0     H  252   5.822   7.338   8.686  0.0644  1.6267  0.6793
    2MOL0     H  253   5.622   7.433   8.796  1.2334 -0.0126 -0.1129
    2MOL0     H  254   5.239   7.446   8.580 -1.8737 -0.1028 -0.7078
    2MOL0     H  255   5.291   7.616   8.557  2.8477 -0.3985 -1.2461
    2MOL0     H  256   5.103   7.623   8.709 -0.7093 -0.7786 -0.3453
    2MOL0     H  257   5.186   7.504   8.808  1.2939 -0.1006  0.0139
    2MOL0     H  258   5.315   7.784   8.769 -1.6611  0.2784 -0.4126
    2MOL0     H  259   5.358   7.660   8.879  0.5878 -1.9768 -2.4972
    2MOL0     H  260   5.116   7.837   8.879  1.3678  2.7637 -0.4988
    2MOL0     H  261   5.114   7.680   8.964  2.6430 -2.5470 -2.4654
    2MOL0     H  262   5.372   7.940   9.201  0.4062 -1.2234 -0.1153
    2MOL0     H  263   5.433   7.444   8.401 -1.4553 -1.3184  1.2090
    2MOL0     H  264   5.656   7.393   8.302  0.3311  1.0537  0.4951
    3MOL0     O  265   0.806   1.910   7.280 -0.5639 -0.6842 -0.2542
    3MOL0     C  266   0.855   1.830   7.359  0.0024 -0.3533  0.5210
    3MOL0     O  267   0.787   1.742   7.436 -0.6520  0.5918  0.0577
    3MOL0     C  268   0.649   1.752   7.447 -0.4335  0.4501  0.4536
    3MOL0     C  269   0.575   1.865   7.463 -0.4743 -0.1668  0.2806
    3MOL0     C  270   0.432   1.852   7.476 -0.6959 -0.9240  0.5663
    3MOL0     C  271   0.367   1.728   7.483  0.8395  0.0662  0.3577
    3MOL0     O  272   0.234   1.696   7.495  0.1126 -0.5829 -0.0759
    3MOL0     C  273   0.144   1.802   7.486 -0.6858 -0.0600  0.3781
    3MOL0     C  274   0.003   1.772   7.536  0.6604 -0.0453  0.1320
    3MOL0     C  275  -0.083   1.900   7.534 -0.2347 -0.0506 -0.4548
    3MOL0     C  276  -0.229   1.862   7.556 -0.6782  1.1431  0.4405
    3MOL0     C  277  -0.333   1.966   7.527 -0.3709  0.0990  1.1296
    3MOL0     C  278  -0.475   1.921   7.555  0.6298 -0.1480  0.1869
    3MOL0     C  279  -0.508   1.902   7.706  0.8587  0.0900  0.3253
    3MOL0     C  280  -0.653   1.873   7.742 -0.2710 -0.6775  0.4892
    3MOL0     N  281  -0.761   1.966   7.714  0.1512  0.2692  0.1234
    3MOL0     C  282  -0.830   1.996   7.599 -0.5465  1.0685 -0.3795
    3MOL0     C  283  -0.927   2.092   7.618  0.1644  0.1762 -0.8089
    3MOL0     C  284  -1.026   2.158   7.530  0.3837  0.2564  0.4384
    3MOL0     C  285  -1.109   2.053   7.450 -0.2445  0.4273  0.3206
    3MOL0     C  286  -1.198   1.968   7.529  0.3650 -0.1639 -0.0241
    3MOL0     C  287  -1.267   1.857   7.456  0.0480  0.1289 -0.5839
    3MOL0     O  288  -1.367   1.796   7.536  0.4014  0.9304 -0.7914
    3MOL0     C  289  -1.479   1.737   7.477  0.4815 -0.1722 -0.2681
    3MOL0     C  290  -1.474   1.673   7.352 -0.3362  0.6056  0.8665
    3MOL0     C  291  -1.590   1.625   7.294 -0.2574  0.1375 -1.0692
    3MOL0     C  292  -1.709   1.643   7.366  0.4362 -0.6513  0.1027
    3MOL0     C  293  -1.829   1.586   7.302  0.1809  0.1862  0.0047
    3MOL0     O  294  -1.945   1.566   7.376  1.1892  0.2142 -0.7738
    3MOL0     C  295  -2.063   1.543   7.311 -0.1782  0.3958 -0.7892
    3MOL0     C  296  -2.140   1.637   7.257 -0.3895 -0.1804  0.0079
    3MOL0     C  297  -2.268   1.606   7.200 -0.3738  0.3381 -0.4431
    3MOL0     C  298  -2.314   1.472   7.193 -0.1038  0.3267  0.8619
    3MOL0     O  299  -2.441   1.427   7.155 -0.5914 -0.0732 -0.2798
    3MOL0     C  300  -2.519   1.521   7.085  0.7566  0.2367 -0.7786
    3MOL0     C  301  -2.669   1.468   7.055 -0.3232 -0.4184 -0.0590
    3MOL0     C  302  -2.722   1.376   7.168 -0.1010 -0.5375 -0.1322
    3MOL0     C  303  -2.876   1.342   7.169  0.3275  0.6217  0.1787
    3MOL0     C  304  -2.930   1.261   7.054  0.0693 -0.0965 -0.5135
    3MOL0     C  305  -3.083   1.246   7.071  0.1990  0.0974 -0.1171
    3MOL0     C  306  -3.141   1.155   6.960 -0.6235  0.0253 -0.1798
    3MOL0     C  307  -3.294   1.113   6.993 -0.7514  0.2631 -0.1565
    3MOL0    Cl  308  -3.398   1.264   6.988  0.1110 -0.1696  0.3563
    3MOL0     C  309  -2.221   1.372   7.234  0.0459  0.1473 -0.3860
    3MOL0     C  310  -2.100   1.413   7.286 -0.1440 -0.3166 -0.5441
    3MOL0     O  311  -1.828   1.574   7.176  0.2531  1.2271  0.5288
    3MOL0     C  312  -1.712   1.706   7.491 -0.7695  0.2755 -0.0717
    3MOL0     C  313  -1.592   1.743   7.550 -0.0149 -0.2987  0.7048
    3MOL0     N  314  -0.917   2.115   7.754 -0.1032 -0.0412  0.4045
    3MOL0     N  315  -0.821   2.047   7.807 -0.0265 -0.8348  0.0342
    3MOL0     C  316   0.449   1.616   7.474 -0.1368  0.3233 -0.3669
    3MOL0     C  317   0.591   1.626   7.467  0.0348 -0.4925  0.8469
    3MOL0     C  318   1.002   1.824   7.362  0.4663 -0.0244 -0.2623
    3MOL0     C  319   1.072   1.731   7.435 -0.9116 -1.2827 -0.5926
    3MOL0     C  320   1.213   1.728   7.433  0.0168  0.0030 -0.3912
    3MOL0     C  321   1.286   1.826   7.362 -0.3513  0.0614  0.7875
    3MOL0     O  322   1.425   1.833   7.364 -0.2240  0.0656  0.7905
    3MOL0     C  323   1.501   1.762   7.462 -0.0053 -0.1097 -0.9163
    3MOL0     C  324   1.648   1.788   7.443  0.2097 -0.0768  0.2839
    3MOL0     C  325   1.682   1.935   7.452 -0.8138 -0.2373 -0.5481
    3MOL0     C  326   1.836   1.955   7.432 -0.1272 -0.8800  0.6678
    3MOL0     C  327   1.861   2.098   7.449  0.1761 -0.5531  0.1201
    3MOL0     C  328   1.877   2.220   7.453 -0.1266  0.4145 -1.3621
    3MOL0     C  329   1.216   1.915   7.285  0.5668  0.5816  0.0761
    3MOL0     C  330   1.078   1.916   7.279  1.2834  0.1224 -0.2212
    3MOL0     H  331   0.618   1.964   7.448 -0.1362 -0.4502 -0.6687
    3MOL0     H  332   0.376   1.945   7.483  1.6323  0.4477  3.8486
    3MOL0     H  333   0.142   1.834   7.381  0.2476  0.1740  0.4310
    3MOL0     H  334   0.181   1.883   7.548  1.9681 -0.7091 -0.2426
    3MOL0     H  335  -0.004   1.728   7.636  2.2371 -3.4801 -1.1188
    3MOL0     H  336  -0.042   1.697   7.469  0.8147 -0.5476  0.5830
    3MOL0     H  337  -0.072   1.955   7.440  0.7225 -0.1787 -0.4316
    3MOL0     H  338  -0.041   1.961   7.615 -0.4828  1.4959 -1.4533
    3MOL0     H  339  -0.259   1.772   7.501 -2.2456  1.3090  0.9701
    3MOL0     H  340  -0.231   1.842   7.663 -1.5055 -0.7709  0.1089
    3MOL0     H  341  -0.313   2.004   7.426  1.8360  2.2048  2.2640
    3MOL0     H  342  -0.313   2.048   7.596  1.0726 -1.3317  2.4756
    3MOL0     H  343  -0.476   1.822   7.507  0.6921 -0.8871  1.6403
    3MOL0     H  344  -0.546   1.992   7.512  3.1927  2.5420  0.0933
    3MOL0     H  345  -0.450   1.822   7.753 -0.4738 -1.2429 -0.2283
    3MOL0     H  346  -0.472   1.999   7.741  2.4471  0.5360 -2.3064
    3MOL0     H  347  -0.643   1.871   7.851  2.1503 -0.8800  0.3197
    3MOL0     H  348  -0.681   1.776   7.700 -4.3020  1.3869 -2.3133
    3MOL0     H  349  -0.798   1.956   7.504 -1.0347 -1.8262  0.5629
    3MOL0     H  350  -0.966   2.218   7.460 -1.2924  1.7332  0.2093
    3MOL0     H  351  -1.094   2.216   7.592 -0.0320  2.1022 -1.6459
    3MOL0     H  352  -1.054   1.987   7.382 -3.8526 -3.6805  0.9324
    3MOL0     H  353  -1.176   2.110   7.385 -0.4803  0.4122  0.5492
    3MOL0     H  354  -1.148   1.920   7.614 -1.5601 -1.6753  0.3252
    3MOL0     H  355  -1.281   2.029   7.566 -0.6740 -2.0761  0.9642
    3MOL0     H  356  -1.197   1.776   7.433  0.0300  0.7378 -3.1487
    3MOL0     H  357  -1.315   1.894   7.365 -0.5121 -1.0820 -0.7896
    3MOL0     H  358  -1.387   1.658   7.288 -1.4880 -2.1137 -0.2139
    3MOL0     H  359  -1.582   1.579   7.196  1.9968  1.5638 -1.6209
    3MOL0     H  360  -2.125   1.743   7.277 -2.9841  0.6907 -2.0074
    3MOL0     H  361  -2.331   1.692   7.182 -0.3174  0.7707  1.2440
    3MOL0     H  362  -2.473   1.547   6.989 -0.3290 -0.6446 -1.5532
    3MOL0     H  363  -2.536   1.615   7.138 -2.1871 -1.0912  0.8650
    3MOL0     H  364  -2.671   1.422   6.956 -1.7600 -0.0445 -0.2331
    3MOL0     H  365  -2.738   1.553   7.052  2.2260  1.7437 -0.4018
    3MOL0     H  366  -2.709   1.426   7.264  1.5519 -2.1200  0.5191
    3MOL0     H  367  -2.666   1.283   7.162  0.1755 -0.4464  0.9823
    3MOL0     H  368  -2.901   1.300   7.267  1.8599 -0.7886  0.0076
    3MOL0     H  369  -2.935   1.433   7.156  0.3476  0.3084 -2.7779
    3MOL0     H  370  -2.880   1.164   7.052 -0.9325 -0.6604  0.7002
    3MOL0     H  371  -2.907   1.322   6.966  2.1196 -1.0689 -0.7215
    3MOL0     H  372  -3.136   1.341   7.076 -1.1566 -0.4407 -2.6142
    3MOL0     H  373  -3.096   1.192   7.166 -1.6699 -3.4818 -2.1719
    3MOL0     H  374  -3.143   1.215   6.869 -1.0417  0.5022  0.1345
    3MOL0     H  375  -3.087   1.060   6.950 -1.9566 -0.6644 -1.2942
    3MOL0     H  376  -3.297   1.066   7.092  2.5493  1.8139  0.8358
    3MOL0     H  377  -3.329   1.044   6.916 -1.6869 -1.2574  1.5582
    3MOL0     H  378  -2.250   1.268   7.236  3.3194 -0.9109 -1.6617
    3MOL0     H  379  -2.040   1.331   7.325 -2.0262 -2.8726 -2.5999
    3MOL0     H  380  -1.806   1.722   7.543  0.0520  1.9476  0.9886
    3MOL0     H  381  -1.579   1.781   7.650 -0.7005  1.0878  0.2859
    3MOL0     H  382   0.415   1.515   7.496 -1.3220  0.9203  0.6626
    3MOL0     H  383   0.660   1.543   7.471  3.0866  1.9191  1.9638
    3MOL0     H  384   1.021   1.660   7.500  0.0779 -0.5920  0.9917
    3MOL0     H  385   1.268   1.666   7.504 -0.2280 -1.2553 -1.2650
    3MOL0     H  386   1.491   1.655   7.441  1.5620 -0.5602  0.3690
    3MOL0     H  387   1.472   1.785   7.565 -1.0931 -0.4338 -1.1386
    3MOL0     H  388   1.703   1.729   7.517 -2.2987 -0.6677  1.8100
    3MOL0     H  389   1.669   1.750   7.343  1.1362 -3.7743  1.7163
    3MOL0     H  390   1.665   1.969   7.554  2.3880 -1.8581  0.6863
    3MOL0     H  391   1.631   1.999   7.380 -0.4313 -0.0760 -0.6793
    3MOL0     H  392   1.887   1.899   7.511 -0.1434  0.4232  1.6325
    3MOL0     H  393   1.879   1.922   7.336  1.8754 -0.7794  1.4849
    3MOL0     H  394   1.890   2.326   7.467  0.4254  0.1985 -0.0839
    3MOL0     H  395   1.284   1.985   7.237 -0.3126 -1.1421 -4.1163
    3MOL0     H  396   1.035   2.005   7.233  1.0144  1.8533  3.0570
    4MOL0     O  397   4.972   4.186   4.522  0.6960  0.6122  0.3361
    4MOL0     C  398   4.980   4.309   4.528  0.5806  0.1833  0.5008
    4MOL0     O  399   4.896   4.400   4.467  0.3237 -0.6186  0.1868
    4MOL0     C  400   4.775   4.374   4.409 -0.8963  0.7757 -0.4144
    4MOL0     C  401   4.697   4.474   4.358  0.3359  0.1707 -0.0162
    4MOL0     C  402   4.564   4.460   4.328  0.3652 -0.1514 -0.3251
    4MOL0     C  403   4.506   4.336   4.318 -0.3543  1.1446  0.4837
    4MOL0     O  404   4.372   4.316   4.289  0.4997  0.2374 -0.2345
    4MOL0     C  405   4.355   4.260   4.155  0.9776  0.7290 -0.0149
    4MOL0     C  406   4.197   4.231   4.136  0.0433  0.2797  0.0585
    4MOL0     C  407   4.163   4.088   4.131 -0.8479 -0.2486 -0.0804
    4MOL0     C  408   4.119   4.047   4.269 -0.3067  0.5534 -0.0227
    4MOL0     C  409   4.134   3.893   4.292 -0.3438  0.4157 -0.1769
    4MOL0     C  410   4.282   3.867   4.321 -0.3582  0.4322 -0.6614
    4MOL0     C  411   4.291   3.721   4.359  0.0560 -0.1234 -0.0975
    4MOL0     C  412   4.430   3.679   4.403  0.2738 -0.5373 -0.3916
    4MOL0     N  413   4.447   3.530   4.396  0.2027 -0.5138  0.5671
    4MOL0     C  414   4.353   3.432   4.403  0.1505  0.1616 -0.2930
    4MOL0     C  415   4.411   3.313   4.377 -0.0764  0.4910 -0.6248
    4MOL0     C  416   4.348   3.177   4.392 -0.7739 -0.0966  0.3008
    4MOL0     C  417   4.285   3.126   4.259  0.1273 -0.0285 -0.3872
    4MOL0     C  418   4.374   3.042   4.169 -0.1079  0.0564 -0.3046
    4MOL0     C  419   4.458   3.130   4.078 -0.1460 -0.9276 -0.3780
    4MOL0     O  420   4.550   3.063   3.990 -0.4590 -0.0921 -0.2818
    4MOL0     C  421   4.675   3.026   4.029  0.0946  0.2525 -0.0701
    4MOL0     C  422   4.750   2.953   3.940 -0.8563 -0.2761 -0.2808
    4MOL0     C  423   4.888   2.909   3.963  0.2873 -0.3165 -0.1351
    4MOL0     C  424   4.950   2.939   4.088  0.2642  1.0401 -0.9082
    4MOL0     C  425   5.090   2.915   4.131 -0.0852 -0.2330  0.0156
    4MOL0     O  426   5.116   2.915   4.265  0.5621  0.9122  0.2025
    4MOL0     C  427   5.239   2.893   4.330 -0.3990  0.6034  0.3970
    4MOL0     C  428   5.233   2.909   4.466 -0.0796  0.3376 -0.4438
    4MOL0     C  429   5.343   2.869   4.537 -0.3545 -0.6547 -0.7162
    4MOL0     C  430   5.456   2.808   4.483 -0.5080  0.1234  0.2707
    4MOL0     O  431   5.555   2.773   4.568 -0.0089 -0.2146 -0.5426
    4MOL0     C  432   5.655   2.674   4.533  0.1056 -0.4835  0.6021
    4MOL0     C  433   5.718   2.640   4.679 -0.0746  0.4144 -0.2513
    4MOL0     C  434   5.836   2.549   4.662  0.9207 -0.8552  0.8793
    4MOL0     C  435   5.893   2.497   4.800 -0.6432 -0.0977 -0.4437
    4MOL0     C  436   5.995   2.382   4.781 -0.4213  0.6471 -0.3695
    4MOL0     C  437   6.100   2.398   4.674  0.1252  0.3182 -0.3997
    4MOL0     C  438   6.197   2.283   4.665 -0.6534 -0.1397  0.0447
    4MOL0     C  439   6.314   2.292   4.762 -0.6584  0.1640 -0.0394
    4MOL0    Cl  440   6.423   2.146   4.748  0.1706  0.1909  0.0106
    4MOL0     C  441   5.452   2.782   4.347 -0.1295 -0.3773 -0.0450
    4MOL0     C  442   5.349   2.826   4.275 -0.0269  0.0131 -0.1311
    4MOL0     O  443   5.174   2.896   4.041 -0.5509 -0.4767 -0.3834
    4MOL0     C  444   4.870   2.998   4.181  0.5089  0.5532  0.8831
    4MOL0     C  445   4.747   3.053   4.146 -1.1538 -0.1421 -0.6194
    4MOL0     N  446   4.544   3.334   4.361 -0.2140  0.3331  0.7865
    4MOL0     N  447   4.563   3.461   4.381 -0.2547  0.1086 -0.0770
    4MOL0     C  448   4.580   4.226   4.364 -0.8048  0.6190  0.6400
    4MOL0     C  449   4.711   4.246   4.415  0.4497 -0.2705 -0.2016
    4MOL0     C  450   5.105   4.364   4.579 -0.0426 -0.3193  0.4244
    4MOL0     C  451   5.212   4.279   4.612  0.0711 -0.6457  0.2280
    4MOL0     C  452   5.337   4.323   4.649 -0.1153 -0.9150 -0.0314
    4MOL0     C  453   5.352   4.460   4.673 -0.0575  0.8080  0.0639
    4MOL0     O  454   5.471   4.516   4.706 -0.5884 -0.4422 -0.0830
    4MOL0     C  455   5.554   4.529   4.592  0.4125  0.1866 -0.0687
    4MOL0     C  456   5.631   4.658   4.626 -0.6854  0.0454 -0.2797
    4MOL0     C  457   5.741   4.620   4.730  1.3491 -0.0041 -0.5074
    4MOL0     C  458   5.858   4.545   4.663 -0.1589 -0.4739 -0.2265
    4MOL0     C  459   5.961   4.517   4.762 -0.5198 -0.9747  0.1373
    4MOL0     C  460   6.048   4.509   4.845 -0.4368  0.4619 -0.1781
    4MOL0     C  461   5.249   4.545   4.646 -0.2177  0.8873 -0.6340
    4MOL0     C  462   5.131   4.496   4.596 -0.1814 -0.1116  0.6665
    4MOL0     H  463   4.740   4.573   4.371 -2.6697  1.3457  2.3830
    4MOL0     H  464   4.508   4.549   4.301  1.1261  0.3787 -0.2285
    4MOL0     H  465   4.405   4.162   4.152  0.0596  0.2886 -1.7994
    4MOL0     H  466   4.391   4.330   4.079  0.6629 -0.5697 -1.4218
    4MOL0     H  467   4.165   4.274   4.040 -0.3886  0.2457  0.1868
    4MOL0     H  468   4.136   4.287   4.206 -1.6301  1.0392 -1.8916
    4MOL0     H  469   4.243   4.029   4.086  0.9322  0.8432  1.4940
    4MOL0     H  470   4.076   4.059   4.071 -1.6058  0.3786  0.6777
    4MOL0     H  471   4.179   4.104   4.341  2.0885  0.6996 -1.9957
    4MOL0     H  472   4.016   4.081   4.284 -0.3944  0.1555  0.3020
    4MOL0     H  473   4.081   3.832   4.219  0.6945  0.2719 -0.8240
    4MOL0     H  474   4.082   3.871   4.386 -0.0028 -0.9354 -0.2855
    4MOL0     H  475   4.316   3.933   4.400  0.7021  0.6842 -1.3112
    4MOL0     H  476   4.350   3.881   4.236 -0.6705  1.0412 -0.8200
    4MOL0     H  477   4.220   3.704   4.441 -0.5360  1.3043 -0.2940
    4MOL0     H  478   4.263   3.662   4.271 -0.3619 -0.2506  0.1191
    4MOL0     H  479   4.441   3.710   4.507 -2.8326  0.9902 -0.4034
    4MOL0     H  480   4.502   3.729   4.337 -0.1657  1.0837  0.2990
    4MOL0     H  481   4.251   3.447   4.437  1.0822  1.2888  2.2880
    4MOL0     H  482   4.275   3.185   4.474 -0.3950  1.0937  0.5512
    4MOL0     H  483   4.424   3.111   4.433 -0.3112  1.2367  1.7062
    4MOL0     H  484   4.245   3.214   4.207 -0.7971 -0.5586 -0.5960
    4MOL0     H  485   4.206   3.060   4.295  1.9433 -1.7978  0.6109
    4MOL0     H  486   4.441   2.973   4.221  0.3515 -0.4083 -1.4740
    4MOL0     H  487   4.303   2.988   4.106 -1.9917  2.5286 -0.4334
    4MOL0     H  488   4.515   3.200   4.139 -2.3280 -0.6298  1.4592
    4MOL0     H  489   4.387   3.191   4.021 -1.9593 -0.7088  1.9771
    4MOL0     H  490   4.700   2.913   3.852 -0.0386  0.0949 -0.9255
    4MOL0     H  491   4.955   2.863   3.891  0.3792  1.1829 -1.0468
    4MOL0     H  492   5.154   2.958   4.521  0.4771  1.5448 -0.6879
    4MOL0     H  493   5.353   2.890   4.643 -0.0982 -1.2019 -0.6290
    4MOL0     H  494   5.730   2.711   4.462 -0.1631 -1.1921 -0.0653
    4MOL0     H  495   5.611   2.583   4.492 -0.3168  1.0480 -2.6940
    4MOL0     H  496   5.637   2.585   4.727  0.0135  1.2894  0.9345
    4MOL0     H  497   5.740   2.734   4.731 -2.3835  0.7674  0.1970
    4MOL0     H  498   5.911   2.616   4.620  0.0970 -0.2000  0.4341
    4MOL0     H  499   5.824   2.470   4.588  1.6781  0.3971 -0.6303
    4MOL0     H  500   5.947   2.577   4.852 -1.0217 -0.7496  1.0088
    4MOL0     H  501   5.811   2.464   4.865  0.0066  0.7755  0.8683
    4MOL0     H  502   5.939   2.290   4.761  0.9039 -0.7277  1.9055
    4MOL0     H  503   6.044   2.354   4.874 -2.1304 -2.2470 -0.1934
    4MOL0     H  504   6.160   2.489   4.682 -0.1930  0.4562  0.6763
    4MOL0     H  505   6.039   2.412   4.584  0.0491  1.0853 -0.2365
    4MOL0     H  506   6.134   2.193   4.669  0.2669 -0.7709  3.5561
    4MOL0     H  507   6.246   2.276   4.567 -0.2057  0.4161  0.2269
    4MOL0     H  508   6.278   2.301   4.865 -1.4462  2.4543 -0.4525
    4MOL0     H  509   6.379   2.379   4.745  0.1262 -0.6713 -1.6017
    4MOL0     H  510   5.540   2.748   4.293  2.3649  1.5769  2.4834
    4MOL0     H  511   5.359   2.802   4.169 -1.4823 -0.4475 -0.1766
    4MOL0     H  512   4.906   3.018   4.282  1.8716 -1.1367  0.7661
    4MOL0     H  513   4.688   3.092   4.228 -0.8838 -0.2766 -0.3629
    4MOL0     H  514   4.527   4.132   4.379  0.8330 -0.0172  2.8191
    4MOL0     H  515   4.758   4.154   4.448  0.5584 -1.5257 -3.4585
    4MOL0     H  516   5.200   4.171   4.605 -1.2136 -0.5168  0.1641
    4MOL0     H  517   5.420   4.254   4.660  0.8328  0.0602 -0.8945
    4MOL0     H  518   5.491   4.541   4.503 -0.1980  2.1844  0.5807
    4MOL0     H  519   5.619   4.442   4.581  1.6193  1.0520  0.0677
    4MOL0     H  520   5.677   4.697   4.535 -1.4717 -0.7963 -1.0593
    4MOL0     H  521   5.558   4.733   4.658  0.3269  0.9068  0.0735
    4MOL0     H  522   5.703   4.569   4.819  1.3785  0.9638  0.0634
    4MOL0     H  523   5.797   4.707   4.763  0.1694  0.9464 -0.9476
    4MOL0     H  524   5.832   4.456   4.604 -2.1500 -0.0686 -0.0389
    4MOL0     H  525   5.897   4.612   4.587 -1.2489 -0.2953 -0.6579
    4MOL0     H  526   6.120   4.492   4.922  0.8679  0.9337 -1.2439
    4MOL0     H  527   5.249   4.651   4.671  1.1689  0.3628  2.0478
    4MOL0     H  528   5.056   4.571   4.569  0.5301  0.0433 -1.0441
    5MOL0     O  529   9.321   2.589  10.123  0.1634  0.6900  0.5073
    5MOL0     C  530   9.317   2.602  10.250 -0.0874  0.0958 -0.0312
    5MOL0     O  531   9.235   2.532  10.337  0.3082 -0.1215  0.5629
    5MOL0     C  532   9.141   2.439  10.311 -0.7955  0.2111 -0.0189
    5MOL0     C  533   9.090   2.382  10.421 -0.5081 -0.4929  0.2325
    5MOL0     C  534   8.995   2.276  10.408  0.0642 -0.5547 -0.5260
    5MOL0     C  535   8.955   2.233  10.288  0.8755  0.2345 -0.0138
    5MOL0     O  536   8.867   2.121  10.293 -0.2649  0.2986  0.6272
    5MOL0     C  537   8.827   2.056  10.173 -0.5745 -0.3748 -0.1353
    5MOL0     C  538   8.713   1.962  10.195  0.0362 -0.2815  0.8012
    5MOL0     C  539   8.574   2.028  10.213 -0.6465  0.4104 -0.3189
    5MOL0     C  540   8.466   1.924  10.237  0.3304 -0.2514  0.6755
    5MOL0     C  541   8.332   1.991  10.264 -0.8870 -0.8315  0.0898
    5MOL0     C  542   8.290   2.115  10.184 -0.5930  0.0333  0.2801
    5MOL0     C  543   8.139   2.130  10.195  0.1410  0.8541 -0.0233
    5MOL0     C  544   8.097   2.253  10.125  0.9672  0.1460  0.5348
    5MOL0     N  545   7.949   2.258  10.114  1.0383  0.6716  0.8235
    5MOL0     C  546   7.868   2.258  10.224 -0.1997  0.2437 -0.6421
    5MOL0     C  547   7.746   2.289  10.174  0.4572  0.2156 -0.1088
    5MOL0     C  548   7.621   2.322  10.255 -0.3651  0.5500 -0.9265
    5MOL0     C  549   7.646   2.350  10.406 -0.4815  0.4685  0.2705
    5MOL0     C  550   7.521   2.380  10.478  0.4512 -0.6916  0.2840
    5MOL0     C  551   7.411   2.272  10.479 -1.1914 -0.2197  1.0328
    5MOL0     O  552   7.334   2.293  10.593  0.1720 -0.3573 -0.1679
    5MOL0     C  553   7.224   2.211  10.618  0.2806  0.0024 -0.1349
    5MOL0     C  554   7.215   2.085  10.556 -0.6729  0.1329  0.4729
    5MOL0     C  555   7.101   2.003  10.567  0.0653 -0.3762  0.3799
    5MOL0     C  556   6.996   2.044  10.649 -0.0934  0.1791  0.0804
    5MOL0     C  557   6.867   1.972  10.655 -0.2403  0.4523 -0.2007
    5MOL0     O  558   6.850   1.885  10.552  0.2434 -0.2610  0.1567
    5MOL0     C  559   6.749   1.794  10.562 -0.2613  0.3059 -0.1839
    5MOL0     C  560   6.789   1.670  10.598 -0.1676  0.7641 -0.7711
    5MOL0     C  561   6.699   1.569  10.589 -0.0517 -0.3134  0.6129
    5MOL0     C  562   6.568   1.588  10.542 -0.0353  0.2822  0.0697
    5MOL0     O  563   6.484   1.486  10.532 -0.0235  0.3643 -0.1730
    5MOL0     C  564   6.365   1.492  10.451  0.3631  0.5069  0.7749
    5MOL0     C  565   6.243   1.546  10.516  0.1881  0.2407 -0.1219
    5MOL0     C  566   6.119   1.495  10.451 -0.6695  0.2849 -0.0356
    5MOL0     C  567   5.992   1.569  10.476 -0.3153  0.3834  0.3510
    5MOL0     C  568   5.879   1.524  10.379  1.0235 -1.0203 -0.2415
    5MOL0     C  569   5.739   1.585  10.430  0.4105  0.4274 -0.5220
    5MOL0     C  570   5.617   1.542  10.338 -0.7182 -0.1556  0.2633
    5MOL0     C  571   5.479   1.590  10.384  0.3895  0.4781 -0.3880
    5MOL0    Cl  572   5.410   1.464  10.507 -0.0213  0.3099  0.4942
    5MOL0     C  573   6.526   1.723  10.515 -0.3035 -0.0839 -0.9645
    5MOL0     C  574   6.617   1.830  10.529  0.4934 -0.3281  0.1272
    5MOL0     O  575   6.799   1.982  10.755  0.5831 -0.4528  0.1811
    5MOL0     C  576   7.003   2.170  10.710  0.4217 -0.8500 -0.9595
    5MOL0     C  577   7.113   2.249  10.699 -0.0220  0.2302 -0.2018
    5MOL0     N  578   7.759   2.301  10.037 -0.3659  0.3171  0.2085
    5MOL0     N  579   7.884   2.282   9.993 -0.2869 -0.1370 -0.7098
    5MOL0     C  580   9.015   2.281  10.177 -0.8678 -0.2196 -0.1599
    5MOL0     C  581   9.105   2.389  10.186 -0.5050 -0.6963 -0.4096
    5MOL0     C  582   9.413   2.703  10.310 -0.0013  0.1561  1.5368
    5MOL0     C  583   9.549   2.715  10.269 -0.3932 -0.3325  0.0011
    5MOL0     C  584   9.640   2.804  10.330 -0.1630 -0.4767 -0.4288
    5MOL0     C  585   9.600   2.902  10.425  0.5372 -0.6668 -0.4546
    5MOL0     O  586   9.672   2.995  10.493 -0.5608 -0.1857  0.4125
    5MOL0     C  587   9.818   2.978  10.482  0.1249  0.2039  0.3344
    5MOL0     C  588   9.876   3.107  10.532  0.4093  1.2001  0.3061
    5MOL0     C  589  10.023   3.121  10.506 -0.4767 -0.7601  0.0992
    5MOL0     C  590  10.081   3.254  10.564 -0.3938 -0.1047 -0.5349
    5MOL0     C  591  10.207   3.296  10.507  0.4735  0.2184 -0.1372
    5MOL0     C  592  10.307   3.351  10.461 -0.5733 -0.6406 -0.8217
    5MOL0     C  593   9.458   2.896  10.462 -1.0277 -0.3004  0.6345
    5MOL0     C  594   9.373   2.796  10.410 -0.5392 -0.2569  0.4858
    5MOL0     H  595   9.128   2.409  10.519  0.8739 -1.7615  0.0857
    5MOL0     H  596   8.962   2.222  10.496 -2.2921  0.8907 -0.4516
    5MOL0     H  597   8.913   1.999  10.138 -0.1837  1.1118 -1.7635
    5MOL0     H  598   8.804   2.133  10.098  1.3931  0.3979  0.0140
    5MOL0     H  599   8.741   1.905  10.284 -1.1102  1.0169  2.0678
    5MOL0     H  600   8.714   1.893  10.110  0.5425  0.2445  0.3762
    5MOL0     H  601   8.559   2.102  10.133  2.0481  2.3095  0.7762
    5MOL0     H  602   8.579   2.096  10.299  0.4676  1.1718 -0.9577
    5MOL0     H  603   8.460   1.862  10.146  1.7057 -2.7350  2.1620
    5MOL0     H  604   8.494   1.854  10.316 -0.7928  0.9185  2.1612
    5MOL0     H  605   8.321   2.010  10.371 -2.6670 -1.6657  0.0909
    5MOL0     H  606   8.260   1.910  10.246  2.4069 -4.0261  0.3076
    5MOL0     H  607   8.313   2.088  10.080 -3.0931 -0.2112 -0.2835
    5MOL0     H  608   8.343   2.206  10.213  0.4696 -0.4796 -0.0254
    5MOL0     H  609   8.083   2.053  10.142 -2.5569  1.5437  1.6642
    5MOL0     H  610   8.105   2.131  10.298 -0.7426  0.7035 -0.3069
    5MOL0     H  611   8.133   2.252  10.022  0.3718 -4.7113  0.1461
    5MOL0     H  612   8.130   2.342  10.180 -0.5432  2.4740 -2.0577
    5MOL0     H  613   7.888   2.240  10.330 -1.0697  1.7438 -0.2012
    5MOL0     H  614   7.552   2.237  10.251 -1.3510  1.3066 -0.3679
    5MOL0     H  615   7.577   2.404  10.198  0.8812  1.4608 -0.6374
    5MOL0     H  616   7.709   2.438  10.416  0.8896 -0.3393 -0.9364
    5MOL0     H  617   7.707   2.276  10.460 -1.0085  0.1478  0.4381
    5MOL0     H  618   7.541   2.398  10.585 -0.4580  3.9924 -0.1360
    5MOL0     H  619   7.484   2.477  10.445  0.7555 -0.2361  1.2329
    5MOL0     H  620   7.458   2.174  10.488  2.2052  0.9213 -1.8169
    5MOL0     H  621   7.352   2.272  10.388 -0.6668  0.9032  0.6731
    5MOL0     H  622   7.297   2.048  10.496  1.5228  1.4203  2.4994
    5MOL0     H  623   7.101   1.899  10.537  4.3845 -1.3918  3.0822
    5MOL0     H  624   6.894   1.666  10.627 -0.8410  2.1945  2.1730
    5MOL0     H  625   6.717   1.466  10.617 -1.5798 -0.8559 -0.2748
    5MOL0     H  626   6.333   1.390  10.428 -0.7701  0.5137  2.1627
    5MOL0     H  627   6.379   1.550  10.359  1.1830  0.1853  0.6894
    5MOL0     H  628   6.244   1.655  10.511 -0.8668  0.5489  3.4633
    5MOL0     H  629   6.240   1.522  10.623  3.1302 -0.4999 -0.1294
    5MOL0     H  630   6.104   1.390  10.475  2.2285 -0.2791 -0.3639
    5MOL0     H  631   6.147   1.497  10.345  2.5459  0.0722  0.7030
    5MOL0     H  632   5.972   1.545  10.581  1.7791  0.0377  0.7116
    5MOL0     H  633   6.020   1.675  10.467  3.1759 -0.3662  0.9065
    5MOL0     H  634   5.869   1.415  10.381 -1.2831 -1.0621 -3.9849
    5MOL0     H  635   5.896   1.566  10.279  0.2037  1.5090  0.6013
    5MOL0     H  636   5.751   1.692  10.448  0.0084  0.1319  1.8082
    5MOL0     H  637   5.722   1.540  10.528  1.3484 -0.1799 -0.6226
    5MOL0     H  638   5.631   1.585  10.238  0.5717 -2.5696 -0.6765
    5MOL0     H  639   5.615   1.433  10.334  2.0551 -0.3996  2.4706
    5MOL0     H  640   5.413   1.607  10.298 -2.0649 -3.1103  0.5753
    5MOL0     H  641   5.489   1.684  10.440 -0.0532 -0.7483  1.8575
    5MOL0     H  642   6.424   1.749  10.487 -1.1372  0.7582  2.4101
    5MOL0     H  643   6.585   1.929  10.498  0.6092 -0.8329 -1.6957
    5MOL0     H  644   6.910   2.203  10.753  0.0335 -0.8310 -1.7941
    5MOL0     H  645   7.111   2.351  10.737  2.4845  0.8843 -1.5564
    5MOL0     H  646   8.987   2.240  10.081 -4.0018 -2.5465  1.5949
    5MOL0     H  647   9.140   2.427  10.091 -1.2425 -1.0445 -0.8227
    5MOL0     H  648   9.592   2.639  10.204 -1.6414 -2.1500  1.2125
    5MOL0     H  649   9.738   2.802  10.283 -0.2756  0.4355 -0.7252
    5MOL0     H  650   9.849   2.944  10.383  1.0748  2.5512 -0.2429
    5MOL0     H  651   9.850   2.895  10.546  2.4486 -0.0075 -1.0237
    5MOL0     H  652   9.824   3.193  10.489  1.9758  3.1229  2.0419
    5MOL0     H  653   9.854   3.121  10.639  0.2434  1.0818  0.2889
    5MOL0     H  654  10.046   3.107  10.400 -0.0462 -2.1554  0.3596
    5MOL0     H  655  10.077   3.038  10.554  1.9523  0.9804  0.5610
    5MOL0     H  656  10.013   3.337  10.542  0.6117  0.9340  0.1326
    5MOL0     H  657  10.090   3.248  10.673  0.2989  1.3128 -0.4969
    5MOL0     H  658  10.396   3.385  10.411 -1.0444  2.8046  0.3951
    5MOL0     H  659   9.422   2.960  10.541 -0.4887  0.2560  0.4393
    5MOL0     H  660   9.271   2.782  10.444 -0.4870  0.7326  1.1001
    6MOL0     O  661   2.745   3.890   4.044 -0.0616  0.3991  1.0301
    6MOL0     C  662   2.785   4.004   4.034  0.5912 -0.9504  0.7342
    6MOL0     O  663   2.708   4.113   4.052 -0.1688 -0.0013  0.7651
    6MOL0     C  664   2.578   4.111   4.072  1.3278 -0.1247  0.2029
    6MOL0     C  665   2.500   4.014   4.144 -1.2323  0.3213 -0.1741
    6MOL0     C  666   2.369   4.029   4.190  1.1483 -0.1539  0.4093
    6MOL0     C  667   2.299   4.155   4.148  0.3281 -0.3974 -0.1756
    6MOL0     O  668   2.171   4.179   4.181  0.8058 -0.7441  0.2082
    6MOL0     C  669   2.102   4.306   4.135  0.4874  0.0498  0.4544
    6MOL0     C  670   1.964   4.307   4.200  0.4313 -1.4268 -0.1429
    6MOL0     C  671   1.861   4.271   4.095  0.4420 -0.1729  0.1760
    6MOL0     C  672   1.721   4.271   4.153  0.3969 -0.1660 -0.0865
    6MOL0     C  673   1.605   4.255   4.055 -0.2696  0.1658 -0.3888
    6MOL0     C  674   1.464   4.268   4.116 -0.1034  0.7240 -0.0134
    6MOL0     C  675   1.355   4.237   4.003  0.7203  0.0405 -0.0540
    6MOL0     C  676   1.219   4.232   4.069 -0.5817  0.4003 -1.0967
    6MOL0     N  677   1.197   4.355   4.146 -0.0039  0.0218  0.2638
    6MOL0     C  678   1.195   4.370   4.285  1.4465  0.0266 -0.7437
    6MOL0     C  679   1.151   4.501   4.302 -0.2112  0.6921  0.6066
    6MOL0     C  680   1.122   4.567   4.427 -0.5835 -0.7195  0.6084
    6MOL0     C  681   0.992   4.518   4.494  0.0658 -0.0617 -0.1045
    6MOL0     C  682   0.957   4.596   4.609  0.1867  0.2879  0.7365
    6MOL0     C  683   0.829   4.536   4.674 -0.5130  0.4658 -0.3741
    6MOL0     O  684   0.809   4.602   4.800  0.4132  1.0759  0.2568
    6MOL0     C  685   0.693   4.581   4.863  0.4848  0.2674  0.1376
    6MOL0     C  686   0.584   4.495   4.811  0.2133  0.0382 -0.6462
    6MOL0     C  687   0.468   4.493   4.885 -0.1020  0.1470 -0.5584
    6MOL0     C  688   0.448   4.570   4.997 -0.4747 -0.3808 -0.3066
    6MOL0     C  689   0.315   4.568   5.074 -0.3609  0.2618 -0.9914
    6MOL0     O  690   0.318   4.610   5.198 -0.3395  0.0819 -0.3596
    6MOL0     C  691   0.228   4.589   5.300 -0.3482  0.2952  0.5574
    6MOL0     C  692   0.239   4.696   5.392  0.2121  0.2709 -0.0911
    6MOL0     C  693   0.146   4.724   5.489 -0.0959 -0.2392  0.4604
    6MOL0     C  694   0.043   4.632   5.503  0.0881  0.1156 -0.7201
    6MOL0     O  695  -0.048   4.642   5.600 -0.8150  0.0528  0.2466
    6MOL0     C  696  -0.187   4.639   5.557 -0.7586 -0.2243  0.2109
    6MOL0     C  697  -0.278   4.701   5.660 -0.4716 -0.2716 -0.9697
    6MOL0     C  698  -0.282   4.621   5.789  0.2945 -0.8560 -0.2285
    6MOL0     C  699  -0.348   4.714   5.891  0.9267 -0.0878  0.2413
    6MOL0     C  700  -0.477   4.783   5.862 -0.4370  0.0110 -0.3547
    6MOL0     C  701  -0.601   4.700   5.829  0.3590  1.3582 -0.1493
    6MOL0     C  702  -0.662   4.626   5.946 -0.0667 -0.4384  0.6260
    6MOL0     C  703  -0.776   4.540   5.899  0.6032 -0.5676 -0.4810
    6MOL0    Cl  704  -0.854   4.452   6.045  0.3084 -0.4253  0.2411
    6MOL0     C  705   0.042   4.519   5.419 -0.6164  0.1655 -0.5326
    6MOL0     C  706   0.130   4.495   5.312 -0.3075  0.3209 -0.2392
    6MOL0     O  707   0.213   4.534   5.018  0.6262  0.7081  0.6263
    6MOL0     C  708   0.560   4.637   5.056 -0.0144 -0.0541  0.5401
    6MOL0     C  709   0.681   4.635   4.990 -0.9929 -0.2199 -0.6282
    6MOL0     N  710   1.132   4.561   4.181  0.7122  0.0284  0.0797
    6MOL0     N  711   1.159   4.472   4.090  0.0145 -0.0863 -0.1196
    6MOL0     C  712   2.375   4.252   4.081 -0.5972 -0.4047 -0.3190
    6MOL0     C  713   2.513   4.225   4.047  0.5060 -1.0041  0.0940
    6MOL0     C  714   2.934   4.030   4.026  0.1870  0.0827  0.2237
    6MOL0     C  715   2.986   4.160   4.011  0.0856 -0.4835 -0.0849
    6MOL0     C  716   3.123   4.174   3.996  0.2709  0.0540 -0.9145
    6MOL0     C  717   3.215   4.070   3.991  0.8922 -0.2172  0.3067
    6MOL0     O  718   3.353   4.100   3.992  0.5450 -0.2927  0.7969
    6MOL0     C  719   3.451   3.992   4.023  0.1745  0.0015  1.0519
    6MOL0     C  720   3.592   4.057   4.037 -0.3069 -0.0642  0.2151
    6MOL0     C  721   3.639   4.099   3.897  0.2987  0.4246  0.1551
    6MOL0     C  722   3.788   4.129   3.895  0.8347 -0.4317 -0.2457
    6MOL0     C  723   3.827   4.220   4.005 -0.4712 -0.3454  0.4399
    6MOL0     C  724   3.865   4.301   4.084 -0.2172  0.4375 -0.4227
    6MOL0     C  725   3.159   3.939   3.998 -0.1091 -1.2826 -0.6846
    6MOL0     C  726   3.018   3.920   4.025  0.3464  0.3257 -0.5636
    6MOL0     H  727   2.556   3.930   4.182 -1.0335 -0.3598 -1.8865
    6MOL0     H  728   2.315   3.955   4.248 -1.6826 -0.2679 -2.1614
    6MOL0     H  729   2.101   4.306   4.026 -3.8194  0.0835  0.3098
    6MOL0     H  730   2.159   4.393   4.167  2.9040 -0.7097 -1.4716
    6MOL0     H  731   1.947   4.409   4.236  4.3367  0.2069 -2.2855
    6MOL0     H  732   1.954   4.235   4.282  0.4871 -1.8678 -0.5204
    6MOL0     H  733   1.879   4.171   4.053  0.0438 -0.6146  1.0343
    6MOL0     H  734   1.865   4.337   4.007  0.2422 -3.7383 -2.7784
    6MOL0     H  735   1.712   4.190   4.226  1.1787  0.6762  0.9801
    6MOL0     H  736   1.710   4.363   4.210  4.2134  1.0112 -0.9245
    6MOL0     H  737   1.614   4.158   4.006  2.5359 -0.2303  0.7417
    6MOL0     H  738   1.612   4.332   3.977 -0.9691 -0.9206 -1.5547
    6MOL0     H  739   1.443   4.361   4.170 -1.8283 -0.1353  0.8936
    6MOL0     H  740   1.465   4.195   4.198  1.6292 -1.1163 -1.5821
    6MOL0     H  741   1.355   4.317   3.928  1.6632 -1.0465 -1.2417
    6MOL0     H  742   1.379   4.148   3.944 -0.5806  0.0839 -0.6864
    6MOL0     H  743   1.222   4.149   4.140  2.0493  1.3252  0.0254
    6MOL0     H  744   1.145   4.213   3.991  0.0183 -2.2565 -1.0918
    6MOL0     H  745   1.192   4.300   4.368  0.5813 -1.3629 -1.8981
    6MOL0     H  746   1.123   4.675   4.410  0.4799 -0.9143 -0.8261
    6MOL0     H  747   1.207   4.547   4.493  0.5219 -0.3186 -0.6437
    6MOL0     H  748   0.988   4.409   4.497 -1.8055 -0.0395 -0.5730
    6MOL0     H  749   0.912   4.550   4.426  0.4797  1.9147  0.2940
    6MOL0     H  750   1.035   4.603   4.686 -0.1711  1.8694  0.9994
    6MOL0     H  751   0.938   4.702   4.586 -0.7430 -0.3032 -1.4189
    6MOL0     H  752   0.843   4.428   4.679  1.3356  0.6720 -0.4843
    6MOL0     H  753   0.742   4.549   4.609 -0.8082 -1.6380 -0.4671
    6MOL0     H  754   0.582   4.428   4.726 -0.7078  0.3310 -0.8647
    6MOL0     H  755   0.388   4.425   4.857 -0.3535 -0.4122  1.3374
    6MOL0     H  756   0.319   4.768   5.379 -1.3661  1.8124 -1.9991
    6MOL0     H  757   0.155   4.803   5.562  1.7971  0.1765 -0.1662
    6MOL0     H  758  -0.219   4.541   5.523  0.0438  0.1093 -1.6173
    6MOL0     H  759  -0.200   4.708   5.474  0.4072  1.9880  1.7551
    6MOL0     H  760  -0.375   4.701   5.611 -0.1333 -0.7380 -1.6475
    6MOL0     H  761  -0.258   4.808   5.668 -1.4358 -0.2243  2.3807
    6MOL0     H  762  -0.180   4.598   5.820  0.2700 -0.5744  0.0677
    6MOL0     H  763  -0.337   4.527   5.783  0.9363 -1.1987 -1.0283
    6MOL0     H  764  -0.365   4.643   5.973 -1.9666 -2.2469 -2.0005
    6MOL0     H  765  -0.277   4.796   5.905  1.5427 -0.3885 -0.9670
    6MOL0     H  766  -0.470   4.860   5.785 -0.6367  0.5848  0.1882
    6MOL0     H  767  -0.495   4.833   5.958 -0.1723 -1.8384  0.7072
    6MOL0     H  768  -0.574   4.626   5.752 -1.2766  0.4715  0.0847
    6MOL0     H  769  -0.686   4.759   5.792 -0.7628 -0.3415 -0.3927
    6MOL0     H  770  -0.593   4.556   5.994  2.0579  1.2442  0.1822
    6MOL0     H  771  -0.697   4.711   6.007  1.6074  0.5590  0.2528
    6MOL0     H  772  -0.732   4.463   5.835  1.2644  0.8675 -1.8347
    6MOL0     H  773  -0.855   4.602   5.855 -0.7958 -1.5039  0.6157
    6MOL0     H  774  -0.031   4.440   5.429  0.0407 -0.3075  0.7853
    6MOL0     H  775   0.120   4.407   5.250 -1.2939 -1.2293  1.9630
    6MOL0     H  776   0.558   4.707   5.139  1.8920  2.8070 -1.6195
    6MOL0     H  777   0.760   4.695   5.033 -0.0112  0.0581 -2.6822
    6MOL0     H  778   2.332   4.350   4.062 -3.1265 -1.5951 -1.2356
    6MOL0     H  779   2.552   4.301   3.979 -4.5176  0.4832 -1.6089
    6MOL0     H  780   2.927   4.250   4.022 -1.3408 -1.3601 -0.3024
    6MOL0     H  781   3.166   4.272   4.011  2.3807 -1.2337  2.8187
    6MOL0     H  782   3.437   3.923   3.939 -0.4373  1.3111  0.0267
    6MOL0     H  783   3.429   3.931   4.110  1.0013 -1.7736  0.0706
    6MOL0     H  784   3.585   4.134   4.115 -0.5801  0.2595 -0.1235
    6MOL0     H  785   3.659   3.984   4.082 -1.3122 -3.0958 -2.8326
    6MOL0     H  786   3.581   4.178   3.848  1.2458  0.9497 -0.1485
    6MOL0     H  787   3.622   4.008   3.840 -1.8979 -0.3248  1.8466
    6MOL0     H  788   3.834   4.033   3.918 -0.8047 -1.5353 -1.3990
    6MOL0     H  789   3.833   4.160   3.800  2.3237  0.6083  0.7458
    6MOL0     H  790   3.878   4.377   4.159  2.0403 -1.2940  1.0669
    6MOL0     H  791   3.225   3.854   3.982  3.9255  1.4928 -0.1106
    6MOL0     H  792   2.975   3.822   4.043  0.0335  0.2294 -1.7353
    7MOL0     O  793   8.394   3.778   9.694  0.5543  0.2765  0.7192
    7MOL0     C  794   8.423   3.893   9.713 -0.7085  1.1638  0.6156
    7MOL0     O  795   8.361   3.973   9.800  0.0668  0.0332 -0.1525
    7MOL0     C  796   8.245   3.934   9.865  0.0424  0.3000 -0.7855
    7MOL0     C  797   8.183   4.049   9.916  0.4518  0.0958  0.1603
    7MOL0     C  798   8.062   4.043   9.982 -0.5904  0.2045 -0.9258
    7MOL0     C  799   8.008   3.916  10.019 -0.3240 -0.5533  0.1987
    7MOL0     O  800   7.890   3.900  10.088  0.3954  0.1890 -0.1081
    7MOL0     C  801   7.786   3.890   9.997 -0.2497 -0.8410  0.1946
    7MOL0     C  802   7.726   3.764  10.030  0.2452 -0.8302  0.7205
    7MOL0     C  803   7.583   3.745   9.953 -0.0190 -0.5802 -0.4596
    7MOL0     C  804   7.506   3.625  10.009  0.3537  0.5156 -0.7594
    7MOL0     C  805   7.564   3.486   9.971 -0.3125  1.2835 -0.8497
    7MOL0     C  806   7.492   3.369  10.046 -0.3291  0.2972  0.2440
    7MOL0     C  807   7.340   3.365  10.044 -0.4064  0.9524  0.6956
    7MOL0     C  808   7.276   3.250  10.125 -0.6470 -0.5061  0.0978
    7MOL0     N  809   7.133   3.249  10.104  0.2825  0.6751  0.5543
    7MOL0     C  810   7.057   3.162  10.025 -0.1809 -0.3685  0.3869
    7MOL0     C  811   6.931   3.188  10.061 -0.4708 -0.7631 -0.9363
    7MOL0     C  812   6.802   3.135   9.993 -0.1700  0.6084  0.0136
    7MOL0     C  813   6.697   3.074  10.093  0.4517 -0.2393  0.7254
    7MOL0     C  814   6.608   2.974  10.016  0.7460  0.1485  0.1324
    7MOL0     C  815   6.494   3.050   9.937 -0.0441  1.0801  0.3580
    7MOL0     O  816   6.407   2.952   9.868  0.0283 -0.0935  0.8893
    7MOL0     C  817   6.285   3.008   9.826  0.0489 -0.5504  0.3079
    7MOL0     C  818   6.169   2.928   9.821 -0.8291 -0.3924 -0.1336
    7MOL0     C  819   6.042   2.985   9.807 -0.1275 -0.4511 -0.2680
    7MOL0     C  820   6.021   3.121   9.792 -0.7876 -0.7068 -0.4840
    7MOL0     C  821   5.886   3.182   9.775 -0.5471 -0.4650  0.0633
    7MOL0     O  822   5.781   3.096   9.766  0.8489 -0.2691 -0.5873
    7MOL0     C  823   5.650   3.118   9.715 -0.5846 -0.7322  0.3331
    7MOL0     C  824   5.565   3.007   9.714 -0.1862  0.6068  0.5402
    7MOL0     C  825   5.435   3.008   9.658 -0.0941  0.9276 -0.5241
    7MOL0     C  826   5.382   3.131   9.620  0.1293 -0.2853  0.0912
    7MOL0     O  827   5.247   3.123   9.590  0.3349  0.2804 -0.0745
    7MOL0     C  828   5.166   3.237   9.612  0.0314 -1.3370  0.7784
    7MOL0     C  829   5.026   3.196   9.564  0.2708  0.1626  0.0445
    7MOL0     C  830   4.911   3.300   9.578 -0.4251 -0.5073 -0.2583
    7MOL0     C  831   4.802   3.278   9.474 -0.3439 -0.6869  0.2124
    7MOL0     C  832   4.684   3.369   9.511  0.4295  0.2324  0.3423
    7MOL0     C  833   4.580   3.374   9.397  0.5938  0.1138  0.1395
    7MOL0     C  834   4.520   3.242   9.363 -0.0725  0.5853 -0.1798
    7MOL0     C  835   4.372   3.251   9.331  0.0859  0.1458 -0.4425
    7MOL0    Cl  836   4.305   3.095   9.295  0.2407 -0.0284  0.0754
    7MOL0     C  837   5.472   3.246   9.615  0.1919  0.9933 -0.7027
    7MOL0     C  838   5.599   3.240   9.672 -0.8838  0.4058 -0.3554
    7MOL0     O  839   5.883   3.304   9.766  0.3639 -0.4349  0.7168
    7MOL0     C  840   6.138   3.195   9.776  0.9284 -0.1251  0.4361
    7MOL0     C  841   6.269   3.140   9.790 -0.4234  0.1489  0.1847
    7MOL0     N  842   6.930   3.272  10.166  0.3191  0.9062 -0.0714
    7MOL0     N  843   7.052   3.310  10.189 -0.2993  0.8432  0.7193
    7MOL0     C  844   8.089   3.805   9.988  0.6311 -0.0501 -1.0771
    7MOL0     C  845   8.197   3.808   9.902 -0.3087 -0.8882  0.6227
    7MOL0     C  846   8.551   3.942   9.637  0.8665 -0.0989 -0.1286
    7MOL0     C  847   8.614   3.871   9.538  0.6584 -0.6594 -0.2657
    7MOL0     C  848   8.736   3.915   9.482  0.5156  0.0348  0.2838
    7MOL0     C  849   8.790   4.038   9.522 -0.2641  0.1296  0.1950
    7MOL0     O  850   8.904   4.075   9.459 -0.3396  0.2818  0.4135
    7MOL0     C  851   8.969   4.194   9.518 -1.4913 -0.2028  0.4231
    7MOL0     C  852   9.104   4.229   9.457  0.6111 -0.3243 -0.3601
    7MOL0     C  853   9.115   4.380   9.446 -0.4284  0.1123  0.8493
    7MOL0     C  854   9.248   4.421   9.368  0.7684  0.3484 -0.0425
    7MOL0     C  855   9.258   4.367   9.234 -0.0097 -0.5405  0.1354
    7MOL0     C  856   9.249   4.310   9.126 -0.3505  0.2442 -0.9256
    7MOL0     C  857   8.725   4.112   9.618  0.3430 -0.7485 -0.1523
    7MOL0     C  858   8.607   4.066   9.678 -0.2108 -0.3654  0.2689
    7MOL0     H  859   8.218   4.148   9.887  0.3211 -0.5405 -2.4377
    7MOL0     H  860   8.016   4.136  10.014 -0.5924 -0.2911  0.6109
    7MOL0     H  861   7.817   3.890   9.892 -0.8523  0.7683 -0.0099
    7MOL0     H  862   7.707   3.962  10.020 -0.5616 -0.6426 -1.4073
    7MOL0     H  863   7.708   3.758  10.138 -0.8831  0.3231  0.6214
    7MOL0     H  864   7.776   3.672  10.000 -1.7719 -2.3536  1.7814
    7MOL0     H  865   7.591   3.732   9.845 -0.9081  0.5424 -0.6699
    7MOL0     H  866   7.518   3.833   9.961 -0.1057 -0.6848  0.0002
    7MOL0     H  867   7.510   3.647  10.115  0.3837  0.5387 -0.7658
    7MOL0     H  868   7.401   3.635   9.978 -0.4640  2.2325  2.1698
    7MOL0     H  869   7.670   3.477   9.996 -0.2972  0.7822 -1.0892
    7MOL0     H  870   7.562   3.467   9.863  1.7645 -4.2904 -0.2259
    7MOL0     H  871   7.528   3.387  10.148  0.5702  0.1168 -0.0336
    7MOL0     H  872   7.542   3.279  10.010  0.0049  0.5371  0.0927
    7MOL0     H  873   7.305   3.462  10.082 -3.3585  0.7505 -1.2105
    7MOL0     H  874   7.308   3.346   9.941 -2.5651  0.1563  1.4458
    7MOL0     H  875   7.309   3.268  10.228  1.5292  1.4855 -0.8605
    7MOL0     H  876   7.311   3.158  10.077 -0.9084 -0.6248  0.1294
    7MOL0     H  877   7.088   3.102   9.939 -0.2008  1.2624 -0.7952
    7MOL0     H  878   6.832   3.054   9.925  2.8966  0.3282  1.5403
    7MOL0     H  879   6.749   3.215   9.941 -0.8766  2.2086  2.9757
    7MOL0     H  880   6.637   3.156  10.134  0.3048 -0.2003  0.4331
    7MOL0     H  881   6.752   3.023  10.173 -0.8163 -0.3401  1.5714
    7MOL0     H  882   6.670   2.917   9.947 -2.4196  0.3232 -3.1572
    7MOL0     H  883   6.561   2.904  10.086 -0.2172  1.7313  1.1322
    7MOL0     H  884   6.549   3.114   9.868  3.6204 -1.3353  0.7262
    7MOL0     H  885   6.432   3.106  10.007  0.7680  1.8994  0.4418
    7MOL0     H  886   6.174   2.821   9.835 -1.1329 -0.7725 -2.6089
    7MOL0     H  887   5.959   2.917   9.824 -3.6542  2.6630 -3.3799
    7MOL0     H  888   5.595   2.912   9.757 -1.6701  0.8711  2.2832
    7MOL0     H  889   5.367   2.926   9.637 -1.3461  1.6925  0.4253
    7MOL0     H  890   5.200   3.324   9.556 -2.1584 -0.4841  0.6374
    7MOL0     H  891   5.163   3.268   9.717  0.6423  1.2432  0.1067
    7MOL0     H  892   5.005   3.102   9.616  2.5207 -0.2379  0.3193
    7MOL0     H  893   5.040   3.180   9.457  1.2837 -3.0317  0.5452
    7MOL0     H  894   4.955   3.399   9.586 -1.6893 -0.0390  1.4929
    7MOL0     H  895   4.863   3.301   9.677  1.7335 -0.3359  0.8443
    7MOL0     H  896   4.840   3.301   9.374  1.5211  0.9828  1.2375
    7MOL0     H  897   4.771   3.173   9.467 -2.5116 -0.0148 -1.7579
    7MOL0     H  898   4.717   3.473   9.524 -2.5714  1.0896  2.1798
    7MOL0     H  899   4.648   3.338   9.610 -0.0993  1.4531  0.5591
    7MOL0     H  900   4.626   3.406   9.303  4.0772 -0.1172  1.6471
    7MOL0     H  901   4.500   3.447   9.414  1.0449  1.0129 -1.3901
    7MOL0     H  902   4.574   3.193   9.281  0.0646  0.1462  0.1738
    7MOL0     H  903   4.534   3.179   9.450  2.5308 -0.8816 -1.5262
    7MOL0     H  904   4.370   3.308   9.237 -1.0298 -0.6240 -0.9096
    7MOL0     H  905   4.318   3.310   9.405  2.8878  1.3272  0.8073
    7MOL0     H  906   5.437   3.340   9.575  0.0561  1.2252 -0.0502
    7MOL0     H  907   5.661   3.330   9.673 -0.5854  0.2272  1.4992
    7MOL0     H  908   6.133   3.299   9.745 -0.2287 -0.0278  0.8951
    7MOL0     H  909   6.349   3.214   9.789 -1.6824  1.6076 -2.2569
    7MOL0     H  910   8.058   3.706  10.019  2.3771 -0.4725 -0.5481
    7MOL0     H  911   8.252   3.718   9.878 -0.0112 -1.0592  1.8817
    7MOL0     H  912   8.578   3.774   9.505 -0.0492 -0.6907  0.5780
    7MOL0     H  913   8.791   3.857   9.409  2.6890  0.5872  1.4085
    7MOL0     H  914   8.980   4.178   9.625 -1.0156 -0.2048  0.3731
    7MOL0     H  915   8.903   4.280   9.502 -1.1073 -0.0964 -0.7099
    7MOL0     H  916   9.174   4.192   9.532 -1.1941 -2.4622  0.3983
    7MOL0     H  917   9.110   4.182   9.358  0.0393 -0.4839 -0.3248
    7MOL0     H  918   9.111   4.414   9.550  2.0301  0.7225  0.8069
    7MOL0     H  919   9.033   4.421   9.385  0.5021  0.5770 -0.1247
    7MOL0     H  920   9.232   4.529   9.359 -1.7163 -0.0057 -0.6338
    7MOL0     H  921   9.336   4.401   9.430  0.6704  0.5622  0.1691
    7MOL0     H  922   9.239   4.252   9.037 -1.8867 -2.8312  1.1013
    7MOL0     H  923   8.770   4.202   9.657  0.7002 -1.2387  0.5912
    7MOL0     H  924   8.565   4.121   9.762 -1.6492 -2.9895  1.3950
    8MOL0     O  925   2.733  10.279   1.973  0.3424  0.0065  0.2237
    8MOL0     C  926   2.750  10.195   1.889  0.9415 -0.1465  0.3795
    8MOL0     O  927   2.674  10.193   1.776 -0.0436 -0.2428  0.3976
    8MOL0     C  928   2.564  10.270   1.749  0.0356 -0.9757 -0.1852
    8MOL0     C  929   2.570  10.377   1.659  0.0143  0.4058 -0.6420
    8MOL0     C  930   2.458  10.455   1.634 -0.4404 -0.1291  0.7805
    8MOL0     C  931   2.335  10.441   1.702 -0.1819  0.2527  0.3570
    8MOL0     O  932   2.221  10.522   1.675  0.1463  0.4566 -0.0118
    8MOL0     C  933   2.129  10.538   1.788 -0.7778 -0.4158 -0.4393
    8MOL0     C  934   2.005  10.626   1.762 -0.0152  0.0723 -0.2665
    8MOL0     C  935   1.921  10.623   1.881  0.4951  0.0913 -0.6695
    8MOL0     C  936   1.807  10.730   1.868  0.0273 -0.1954  0.1208
    8MOL0     C  937   1.717  10.730   1.991  0.1506  0.6243 -0.6421
    8MOL0     C  938   1.619  10.853   1.992  0.4611 -0.0858 -0.1026
    8MOL0     C  939   1.502  10.811   2.100 -0.4375  0.9569 -0.8416
    8MOL0     C  940   1.418  10.939   2.120  0.4384  0.8408 -0.7524
    8MOL0     N  941   1.338  10.976   2.007  0.3862 -0.7869  0.6521
    8MOL0     C  942   1.207  10.936   1.986 -0.3348 -0.0509  0.7387
    8MOL0     C  943   1.166  11.005   1.874  0.2689 -0.5838  0.1659
    8MOL0     C  944   1.037  10.993   1.799 -0.4675  0.4225  0.2340
    8MOL0     C  945   0.909  11.059   1.855  0.1201  0.0953  0.6144
    8MOL0     C  946   0.910  11.208   1.889  0.3969 -0.5323 -0.1191
    8MOL0     C  947   0.791  11.230   1.987 -0.1846  0.1607  0.0220
    8MOL0     O  948   0.748  11.363   2.020  0.0894  0.2549 -0.0164
    8MOL0     C  949   0.672  11.374   2.140  0.2390 -0.4266 -0.1635
    8MOL0     C  950   0.640  11.267   2.227 -0.1203 -0.3974  0.3929
    8MOL0     C  951   0.572  11.300   2.344  0.2174  0.2187  0.2312
    8MOL0     C  952   0.535  11.427   2.382 -0.4064  0.0712 -0.4624
    8MOL0     C  953   0.468  11.457   2.507  1.3057  0.1933  0.5080
    8MOL0     O  954   0.453  11.596   2.533  0.4303 -0.2396  0.0026
    8MOL0     C  955   0.385  11.634   2.649  0.0611  1.3516 -0.0746
    8MOL0     C  956   0.340  11.763   2.655 -0.5813 -0.1212  0.1768
    8MOL0     C  957   0.246  11.812   2.748  0.5883 -1.0094 -0.2384
    8MOL0     C  958   0.215  11.745   2.862 -0.5393 -0.2430  0.2767
    8MOL0     O  959   0.130  11.804   2.951 -0.5965  0.5149 -0.0709
    8MOL0     C  960   0.108  11.762   3.083  0.5424  0.5625  0.2478
    8MOL0     C  961   0.080  11.884   3.157  0.3295 -0.2504  0.5006
    8MOL0     C  962   0.052  11.855   3.299  0.4554 -0.4106 -0.5113
    8MOL0     C  963  -0.005  11.979   3.373 -0.0173  0.1070  0.0405
    8MOL0     C  964  -0.149  12.027   3.340  0.5200 -0.9075 -0.3715
    8MOL0     C  965  -0.196  12.110   3.461  0.2753  0.7589 -0.5639
    8MOL0     C  966  -0.127  12.240   3.484  0.3068 -0.7991 -0.8002
    8MOL0     C  967  -0.198  12.341   3.399  0.4734 -0.1837 -0.1183
    8MOL0    Cl  968  -0.099  12.487   3.396  0.5870 -0.0115  0.1066
    8MOL0     C  969   0.261  11.607   2.869 -0.9201 -0.0911 -0.4892
    8MOL0     C  970   0.341  11.557   2.767 -0.5548  0.4967 -1.0165
    8MOL0     O  971   0.450  11.369   2.588 -0.5045 -0.0379  0.3406
    8MOL0     C  972   0.576  11.532   2.301  0.6571  0.8123 -0.4909
    8MOL0     C  973   0.632  11.507   2.178  0.1726 -0.1933  0.5502
    8MOL0     N  974   1.270  11.091   1.837  0.6113 -1.4211 -1.1199
    8MOL0     N  975   1.362  11.076   1.918 -0.0660 -0.9727 -0.8877
    8MOL0     C  976   2.338  10.329   1.787  0.2277 -0.2574 -0.6631
    8MOL0     C  977   2.443  10.246   1.808  0.5643 -0.1917 -0.2784
    8MOL0     C  978   2.870  10.111   1.895 -0.2861  0.0110 -0.6097
    8MOL0     C  979   2.879  10.007   1.802 -0.2675  0.3351  0.2249
    8MOL0     C  980   3.000   9.928   1.796  0.1027  0.2761  0.0329
    8MOL0     C  981   3.095   9.943   1.895 -0.9480  1.0471  0.5576
    8MOL0     O  982   3.214   9.867   1.896 -0.0863 -0.7619  0.1140
    8MOL0     C  983   3.256   9.821   1.765  0.0921  0.6857 -1.1028
    8MOL0     C  984   3.394   9.756   1.767  0.4209 -0.1014  0.0905
    8MOL0     C  985   3.422   9.650   1.875 -0.2905 -1.0351  0.3771
    8MOL0     C  986   3.570   9.614   1.891  0.4190 -0.4622  0.2190
    8MOL0     C  987   3.639   9.734   1.945 -0.1108 -0.5417  0.1354
    8MOL0     C  988   3.712   9.827   1.982  0.6260 -0.7049  0.3245
    8MOL0     C  989   3.089  10.050   1.985 -0.3238 -0.2324 -0.0560
    8MOL0     C  990   2.978  10.138   1.994 -0.1619  0.2355  0.8639
    8MOL0     H  991   2.660  10.403   1.605  1.5706 -1.1846  1.0283
    8MOL0     H  992   2.476  10.535   1.562 -1.1308  0.3289  1.1120
    8MOL0     H  993   2.187  10.573   1.873 -0.4656 -2.6321  0.3166
    8MOL0     H  994   2.092  10.438   1.814  0.2864 -0.4626  0.9421
    8MOL0     H  995   1.951  10.592   1.674  0.2672 -0.0865 -0.3813
    8MOL0     H  996   2.040  10.729   1.748  0.5872  0.3621  2.5922
    8MOL0     H  997   1.975  10.655   1.971  2.3763 -1.9184 -1.0241
    8MOL0     H  998   1.884  10.525   1.911 -0.2250  0.3020 -0.8437
    8MOL0     H  999   1.845  10.832   1.856 -1.7866  0.4913 -0.2003
    8MOL0     H 1000   1.748  10.693   1.783  0.4400 -2.6773  0.8304
    8MOL0     H 1001   1.779  10.716   2.079 -1.2884 -0.9629  0.1672
    8MOL0     H 1002   1.669  10.635   1.968  0.3045  0.6104 -0.9144
    8MOL0     H 1003   1.580  10.871   1.892  1.7229 -0.7096 -0.7290
    8MOL0     H 1004   1.673  10.941   2.027  0.7694 -0.1743 -0.3588
    8MOL0     H 1005   1.443  10.732   2.053  0.7105  0.4423 -1.4569
    8MOL0     H 1006   1.551  10.768   2.188 -0.5950  3.1509  0.4066
    8MOL0     H 1007   1.478  11.023   2.155 -2.4509  2.2430  1.1419
    8MOL0     H 1008   1.359  10.918   2.209  1.2832 -2.6304 -0.8575
    8MOL0     H 1009   1.167  10.851   2.040  0.5389 -1.0509 -0.1343
    8MOL0     H 1010   1.019  10.885   1.789 -0.9922  0.5670 -0.4660
    8MOL0     H 1011   1.060  11.024   1.697  3.1224  0.4483  0.9349
    8MOL0     H 1012   0.884  10.993   1.939 -3.4898  0.6681  0.1174
    8MOL0     H 1013   0.831  11.048   1.779  0.2724 -0.9412  0.5889
    8MOL0     H 1014   1.006  11.231   1.937  0.5516 -2.3145  0.4827
    8MOL0     H 1015   0.900  11.270   1.799 -1.0526 -0.0423  0.3601
    8MOL0     H 1016   0.814  11.175   2.079 -1.2988  0.3501  0.4311
    8MOL0     H 1017   0.703  11.186   1.939  0.1934 -2.8709  1.8043
    8MOL0     H 1018   0.662  11.164   2.204 -3.7676 -1.7275  2.0957
    8MOL0     H 1019   0.538  11.218   2.406 -2.7899  0.3855 -1.0428
    8MOL0     H 1020   0.379  11.834   2.583 -1.9176  0.8311  0.3590
    8MOL0     H 1021   0.205  11.912   2.752 -0.2028 -1.3403  3.3289
    8MOL0     H 1022   0.197  11.708   3.117  0.3388 -0.2784 -0.4961
    8MOL0     H 1023   0.032  11.684   3.093 -0.6453  1.6243 -0.1496
    8MOL0     H 1024  -0.003  11.938   3.109 -2.9459 -1.5409  4.1692
    8MOL0     H 1025   0.174  11.940   3.157  1.2024 -1.6363  1.9331
    8MOL0     H 1026   0.141  11.806   3.342  0.4807  1.6094  1.9412
    8MOL0     H 1027  -0.028  11.781   3.302 -0.0738  0.1566 -0.5003
    8MOL0     H 1028   0.004  11.949   3.477 -2.4734  1.9166  0.8731
    8MOL0     H 1029   0.072  12.052   3.347  2.5694 -2.2290  0.7844
    8MOL0     H 1030  -0.216  11.941   3.332  1.9234 -2.1856  0.9977
    8MOL0     H 1031  -0.154  12.077   3.243  1.5031 -2.0712 -1.0448
    8MOL0     H 1032  -0.196  12.046   3.550 -0.6933  0.8973 -0.4547
    8MOL0     H 1033  -0.303  12.126   3.448 -0.0006  0.9680  1.5739
    8MOL0     H 1034  -0.144  12.262   3.590 -1.5519 -3.8265 -0.3614
    8MOL0     H 1035  -0.022  12.243   3.455 -0.1387 -0.7773 -2.5453
    8MOL0     H 1036  -0.298  12.372   3.432 -1.0201 -0.3627 -4.0331
    8MOL0     H 1037  -0.206  12.307   3.296  1.9226  1.1668 -0.7306
    8MOL0     H 1038   0.230  11.534   2.943 -1.2668 -1.0917 -1.5930
    8MOL0     H 1039   0.374  11.455   2.785 -4.6539 -0.6616  1.2029
    8MOL0     H 1040   0.549  11.635   2.318 -0.4550  0.6022 -0.8970
    8MOL0     H 1041   0.656  11.591   2.114 -0.6975 -1.1023 -1.0283
    8MOL0     H 1042   2.248  10.296   1.839  0.8006 -0.1067  0.4586
    8MOL0     H 1043   2.440  10.158   1.871 -1.8890  0.3444  0.4561
    8MOL0     H 1044   2.796   9.992   1.733 -0.1429  1.2386 -0.1397
    8MOL0     H 1045   2.999   9.855   1.715 -1.1428  2.5741 -2.1765
    8MOL0     H 1046   3.255   9.912   1.704  4.1719  0.2262 -2.1475
    8MOL0     H 1047   3.184   9.747   1.728 -0.1112 -0.6352  1.6751
    8MOL0     H 1048   3.412   9.726   1.663 -0.6495 -1.9883  0.4054
    8MOL0     H 1049   3.461   9.843   1.773 -1.6243  1.6045 -0.2839
    8MOL0     H 1050   3.373   9.554   1.856 -0.7117 -0.9379  0.9469
    8MOL0     H 1051   3.372   9.676   1.969 -3.3449 -1.8135 -0.8876
    8MOL0     H 1052   3.588   9.529   1.957  2.0649 -0.3282 -0.0108
    8MOL0     H 1053   3.600   9.593   1.787  0.8370 -0.9359  0.4293
    8MOL0     H 1054   3.779   9.906   2.010 -2.1111  2.4324 -1.2462
    8MOL0     H 1055   3.172  10.064   2.054 -0.7024 -2.2965  0.8810
    8MOL0     H 1056   2.964  10.219   2.065 -3.1075  2.0141 -1.5404
    9MOL0     O 1057   1.213   7.362   9.258 -0.1531  0.3085  0.1569
    9MOL0     C 1058   1.207   7.299   9.151  0.5590 -0.1065 -0.9094
    9MOL0     O 1059   1.131   7.334   9.040 -0.4091 -0.0720 -0.3849
    9MOL0     C 1060   1.055   7.453   9.046  0.4680 -0.9057  0.4343
    9MOL0     C 1061   0.959   7.485   9.150 -0.0215 -0.7063  0.8885
    9MOL0     C 1062   0.882   7.596   9.151  1.0647 -1.1839 -0.2689
    9MOL0     C 1063   0.894   7.690   9.048 -0.6205  1.2345 -0.0204
    9MOL0     O 1064   0.817   7.799   9.030  0.2308  0.6886  0.1634
    9MOL0     C 1065   0.690   7.810   9.097 -0.0728  0.1718 -0.5677
    9MOL0     C 1066   0.616   7.910   9.008  0.2764  0.6990  0.8628
    9MOL0     C 1067   0.463   7.922   9.043  0.6017  0.3824 -0.0673
    9MOL0     C 1068   0.420   7.928   9.188  0.1386 -0.8286 -0.1355
    9MOL0     C 1069   0.275   7.966   9.205  0.6094  0.3313 -1.2295
    9MOL0     C 1070   0.236   7.947   9.349  0.2121  0.5317  0.1186
    9MOL0     C 1071   0.086   7.951   9.392  0.5011 -0.2590  0.7786
    9MOL0     C 1072   0.010   8.088   9.347  0.6218 -0.1045 -0.2685
    9MOL0     N 1073  -0.135   8.089   9.385 -0.0060 -0.0147  0.0733
    9MOL0     C 1074  -0.229   7.991   9.365  0.4157  0.0169  0.3621
    9MOL0     C 1075  -0.344   8.027   9.431 -0.1751 -0.0230  0.2719
    9MOL0     C 1076  -0.467   7.933   9.432  0.5624  0.5266  0.0787
    9MOL0     C 1077  -0.603   8.002   9.459  0.8551 -0.2234  0.0146
    9MOL0     C 1078  -0.702   7.913   9.531  0.0003  0.3387 -0.5828
    9MOL0     C 1079  -0.823   7.871   9.447 -0.2979 -0.4407 -1.1148
    9MOL0     O 1080  -0.897   7.990   9.417  0.3919  0.9048  0.6872
    9MOL0     C 1081  -1.023   7.964   9.377 -0.5939 -0.0681 -0.1219
    9MOL0     C 1082  -1.103   7.859   9.414 -0.3729 -0.4733  0.3871
    9MOL0     C 1083  -1.236   7.843   9.376  0.1079 -0.5000 -0.2348
    9MOL0     C 1084  -1.296   7.945   9.295 -0.1859  0.2376 -0.9865
    9MOL0     C 1085  -1.439   7.941   9.246 -0.4239 -0.1999  0.2085
    9MOL0     O 1086  -1.467   8.001   9.120 -0.2027  0.4496 -0.4215
    9MOL0     C 1087  -1.589   7.976   9.069  0.2322  0.1460  0.1592
    9MOL0     C 1088  -1.598   7.929   8.925 -0.2868 -0.4809 -0.1630
    9MOL0     C 1089  -1.728   7.909   8.873 -0.4924  0.3779  0.1626
    9MOL0     C 1090  -1.852   7.922   8.947 -0.7700  0.3577  0.3328
    9MOL0     O 1091  -1.979   7.883   8.901 -0.0914 -0.4889 -0.1254
    9MOL0     C 1092  -1.990   7.881   8.757  0.4422  0.5258 -0.7499
    9MOL0     C 1093  -2.141   7.882   8.722 -0.1842  0.8167  0.1383
    9MOL0     C 1094  -2.147   7.889   8.570  0.4112  0.5638 -0.4049
    9MOL0     C 1095  -2.299   7.904   8.534  0.1343  1.0528 -0.2937
    9MOL0     C 1096  -2.317   7.894   8.382 -0.2880  0.3351 -0.1444
    9MOL0     C 1097  -2.442   7.815   8.343  0.5843 -0.4458  0.4873
    9MOL0     C 1098  -2.560   7.908   8.388 -0.7254  0.2898  0.5809
    9MOL0     C 1099  -2.698   7.857   8.343  0.4536 -0.5480  0.2618
    9MOL0    Cl 1100  -2.699   7.818   8.173  0.4455 -0.4541  0.0233
    9MOL0     C 1101  -1.842   7.960   9.082  0.2837 -0.4917  0.1328
    9MOL0     C 1102  -1.714   7.993   9.142  0.0572  0.4848  0.7590
    9MOL0     O 1103  -1.515   7.875   9.322 -0.2461  0.0947  0.9212
    9MOL0     C 1104  -1.220   8.052   9.257 -0.1482  0.4125  0.1893
    9MOL0     C 1105  -1.084   8.062   9.294 -0.1281 -0.2941  0.4337
    9MOL0     N 1106  -0.317   8.144   9.498  0.1867  0.0212 -0.3173
    9MOL0     N 1107  -0.193   8.185   9.463  0.3200 -0.1211 -0.0972
    9MOL0     C 1108   0.983   7.656   8.940  0.5429 -0.4154  0.4454
    9MOL0     C 1109   1.060   7.540   8.941 -0.2205 -0.4191 -0.2646
    9MOL0     C 1110   1.271   7.166   9.145  0.5039  0.0808  0.2450
    9MOL0     C 1111   1.210   7.060   9.065 -0.6033  0.2243  0.7227
    9MOL0     C 1112   1.263   6.935   9.066 -0.2777  0.7800 -0.4202
    9MOL0     C 1113   1.364   6.900   9.153  0.4188  0.5443  0.3985
    9MOL0     O 1114   1.421   6.777   9.154 -0.6376 -0.0286  0.7939
    9MOL0     C 1115   1.470   6.747   9.019 -0.5798  0.1421 -0.4994
    9MOL0     C 1116   1.563   6.628   9.029  0.2877 -0.7632 -0.0074
    9MOL0     C 1117   1.691   6.675   9.094 -0.6440  0.0891  0.1548
    9MOL0     C 1118   1.805   6.566   9.079 -0.3228  0.0908 -0.3453
    9MOL0     C 1119   1.797   6.476   9.199 -0.0466  0.2073  1.0024
    9MOL0     C 1120   1.772   6.389   9.278 -0.1072 -0.0340 -0.0951
    9MOL0     C 1121   1.415   6.997   9.235 -0.2711  0.5936  0.0294
    9MOL0     C 1122   1.380   7.132   9.228 -0.0880  0.0531  0.2025
    9MOL0     H 1123   0.964   7.410   9.229  2.1253 -0.7512  0.7615
    9MOL0     H 1124   0.818   7.617   9.237  2.5162  2.7591  0.0432
    9MOL0     H 1125   0.698   7.849   9.199 -4.3606 -1.9597  0.8022
    9MOL0     H 1126   0.641   7.713   9.100  2.0713 -0.9392  0.2751
    9MOL0     H 1127   0.616   7.867   8.907 -0.2045  0.8342  0.8054
    9MOL0     H 1128   0.666   8.007   9.000 -0.1701  0.7876 -3.3634
    9MOL0     H 1129   0.416   7.828   9.010 -1.7590  0.2782  3.0813
    9MOL0     H 1130   0.412   8.009   9.001 -1.3381 -0.4305  0.4777
    9MOL0     H 1131   0.442   7.839   9.247 -0.4339  0.4836  2.1489
    9MOL0     H 1132   0.476   8.006   9.240 -1.5878  0.1438  0.3370
    9MOL0     H 1133   0.202   7.900   9.157 -1.9168  1.7020  0.4838
    9MOL0     H 1134   0.254   8.069   9.177  0.1045  0.8370  0.8530
    9MOL0     H 1135   0.283   8.030   9.402  1.8919  0.0163 -0.5081
    9MOL0     H 1136   0.274   7.849   9.378  0.6948  1.0379  1.2631
    9MOL0     H 1137   0.033   7.866   9.348 -0.6187  0.8266 -0.0751
    9MOL0     H 1138   0.074   7.947   9.500  4.2009  0.1254  1.3329
    9MOL0     H 1139   0.020   8.105   9.239  2.3568  0.3885 -0.0605
    9MOL0     H 1140   0.062   8.171   9.396  0.3763 -1.2430  2.0195
    9MOL0     H 1141  -0.213   7.903   9.304  0.0151  1.0449 -1.3015
    9MOL0     H 1142  -0.444   7.872   9.520 -0.4700 -0.3462 -0.2331
    9MOL0     H 1143  -0.466   7.866   9.346 -3.4384 -1.7003  1.4868
    9MOL0     H 1144  -0.660   8.023   9.368 -2.0661 -3.5668  0.8323
    9MOL0     H 1145  -0.596   8.100   9.508  3.0579 -0.9510  1.3118
    9MOL0     H 1146  -0.663   7.818   9.569 -0.9144  0.4006  0.5400
    9MOL0     H 1147  -0.733   7.983   9.609 -0.5404 -0.0835 -0.4133
    9MOL0     H 1148  -0.876   7.808   9.518 -1.2141  1.5289  0.0371
    9MOL0     H 1149  -0.785   7.811   9.364 -0.8265 -0.8116 -1.0958
    9MOL0     H 1150  -1.057   7.785   9.479  2.4508 -0.1748 -1.0841
    9MOL0     H 1151  -1.293   7.755   9.405  0.4857 -1.2055 -1.5760
    9MOL0     H 1152  -1.508   7.930   8.865  1.1062  0.0654  1.8340
    9MOL0     H 1153  -1.730   7.873   8.770 -0.2538 -1.7603  0.8601
    9MOL0     H 1154  -1.941   7.792   8.717  1.7793  0.0113  1.8011
    9MOL0     H 1155  -1.941   7.969   8.713  0.4276  1.1339  0.4129
    9MOL0     H 1156  -2.178   7.977   8.764  1.4743  1.6354 -0.1669
    9MOL0     H 1157  -2.186   7.789   8.758  0.4189  0.9705  1.3261
    9MOL0     H 1158  -2.110   7.794   8.531 -0.4856  0.1050 -0.1672
    9MOL0     H 1159  -2.092   7.979   8.542  1.1637 -0.8168 -3.8966
    9MOL0     H 1160  -2.344   7.818   8.586 -2.3486  2.8696  0.7891
    9MOL0     H 1161  -2.338   7.994   8.583 -2.4450 -0.3414  0.4212
    9MOL0     H 1162  -2.231   7.848   8.333 -1.4598 -0.6661 -1.3142
    9MOL0     H 1163  -2.320   8.000   8.353 -1.7556  0.3578  0.0211
    9MOL0     H 1164  -2.452   7.713   8.380 -2.4629 -0.7183 -0.8181
    9MOL0     H 1165  -2.433   7.809   8.234  0.9864  3.4570  0.1423
    9MOL0     H 1166  -2.555   7.917   8.496 -2.1090  0.3460  0.6605
    9MOL0     H 1167  -2.544   8.002   8.333  1.2491 -0.3263  0.0415
    9MOL0     H 1168  -2.777   7.931   8.364 -0.5470 -2.0160  1.9849
    9MOL0     H 1169  -2.712   7.777   8.416  2.0914  0.0309  1.2495
    9MOL0     H 1170  -1.930   7.940   9.142  0.6911 -0.0159  0.9086
    9MOL0     H 1171  -1.714   8.018   9.247 -1.1072  0.8313  0.6929
    9MOL0     H 1172  -1.265   8.131   9.197 -0.4066  1.3151  1.5348
    9MOL0     H 1173  -1.024   8.150   9.273 -0.2282 -0.3163  0.0508
    9MOL0     H 1174   0.991   7.733   8.864  0.9358  0.2397  1.1321
    9MOL0     H 1175   1.124   7.517   8.856 -0.6870 -1.5188 -0.3463
    9MOL0     H 1176   1.133   7.085   8.993  1.2260  2.9265 -0.4519
    9MOL0     H 1177   1.219   6.854   9.008 -0.4611  0.7893 -0.2953
    9MOL0     H 1178   1.501   6.828   8.953 -1.5292 -2.0119 -3.7990
    9MOL0     H 1179   1.384   6.707   8.965  1.2719  1.2565 -4.6764
    9MOL0     H 1180   1.519   6.546   9.086  0.4499  0.0751  1.3532
    9MOL0     H 1181   1.578   6.591   8.927 -0.7310  0.1354 -0.5046
    9MOL0     H 1182   1.681   6.703   9.199  1.1124 -0.4660  0.4951
    9MOL0     H 1183   1.723   6.769   9.048 -2.4448  0.5488 -0.2507
    9MOL0     H 1184   1.788   6.510   8.987 -0.0272  0.0919 -0.3985
    9MOL0     H 1185   1.903   6.614   9.082 -0.2782 -0.0195  1.4667
    9MOL0     H 1186   1.738   6.317   9.349 -2.0278  0.2536 -0.6673
    9MOL0     H 1187   1.496   6.967   9.300 -1.4021  0.1113  1.2820
    9MOL0     H 1188   1.430   7.210   9.284 -2.2885  1.8758 -0.2410
   10MOL0     O 1189  10.663   3.942   8.294  0.0336 -0.6071 -0.0483
   10MOL0     C 1190  10.753   3.859   8.307 -0.0336 -0.5656  0.0971
   10MOL0     O 1191  10.747   3.748   8.382 -0.2867  0.5497  0.6473
   10MOL0     C 1192  10.626   3.694   8.420  1.4617 -0.3521 -1.1152
   10MOL0     C 1193  10.525   3.644   8.329 -0.7117 -0.3577  0.2388
   10MOL0     C 1194  10.413   3.581   8.374  0.4488  0.4342 -0.2085
   10MOL0     C 1195  10.388   3.576   8.514 -0.5116  0.2494 -0.3133
   10MOL0     O 1196  10.281   3.546   8.579  0.3867 -0.1765  0.1532
   10MOL0     C 1197  10.185   3.455   8.525  0.3102 -0.1354  0.2007
   10MOL0     C 1198  10.086   3.515   8.421 -0.2121  0.0884  0.5987
   10MOL0     C 1199   9.954   3.434   8.398 -1.1198 -0.1694 -0.2808
   10MOL0     C 1200   9.973   3.290   8.353 -0.4150  0.6031  0.5188
   10MOL0     C 1201   9.852   3.201   8.366 -0.8231  0.0415 -0.1892
   10MOL0     C 1202   9.884   3.077   8.280  0.2201  0.5476  0.0068
   10MOL0     C 1203   9.773   2.975   8.295  0.7947  0.2611  0.7151
   10MOL0     C 1204   9.645   3.015   8.221  0.1011 -0.1680  0.7743
   10MOL0     N 1205   9.543   2.914   8.210 -0.4296 -0.0921 -0.4686
   10MOL0     C 1206   9.546   2.785   8.162  0.6319  0.0870  0.0196
   10MOL0     C 1207   9.423   2.743   8.176  0.2181  0.8021 -0.4956
   10MOL0     C 1208   9.374   2.613   8.135  1.2023  0.2213 -0.3909
   10MOL0     C 1209   9.453   2.527   8.033 -0.4416 -0.1419 -1.0100
   10MOL0     C 1210   9.400   2.385   8.021 -0.0368  0.1427 -0.3355
   10MOL0     C 1211   9.271   2.378   7.942  0.9956 -0.0021  0.1967
   10MOL0     O 1212   9.243   2.244   7.914  0.7086 -0.1458 -0.3435
   10MOL0     C 1213   9.115   2.215   7.885 -1.0127  0.6275 -0.4620
   10MOL0     C 1214   9.064   2.084   7.920 -0.9332  0.1931  0.3060
   10MOL0     C 1215   8.943   2.040   7.880 -1.2763  0.3457  0.4279
   10MOL0     C 1216   8.861   2.127   7.810 -0.8367  0.8385  1.4440
   10MOL0     C 1217   8.731   2.082   7.759  0.5451  0.2175  0.5826
   10MOL0     O 1218   8.690   1.960   7.794  0.3456  0.3528 -0.4035
   10MOL0     C 1219   8.559   1.929   7.771 -0.0221 -0.1600 -0.0978
   10MOL0     C 1220   8.495   1.941   7.646 -0.3106  1.0962 -0.4526
   10MOL0     C 1221   8.364   1.914   7.626 -0.7463  0.5591 -0.3191
   10MOL0     C 1222   8.288   1.874   7.736 -0.9582  0.6917 -0.1305
   10MOL0     O 1223   8.157   1.837   7.735  0.4406 -0.3327 -0.1649
   10MOL0     C 1224   8.059   1.929   7.681  0.6081 -0.2015 -0.5234
   10MOL0     C 1225   7.925   1.859   7.674  0.2076  1.3134 -0.2606
   10MOL0     C 1226   7.823   1.952   7.618 -0.3440  0.4882  0.3464
   10MOL0     C 1227   7.687   1.897   7.593 -0.2439 -0.2475  0.2774
   10MOL0     C 1228   7.589   1.991   7.509  0.4892 -0.4385 -1.0788
   10MOL0     C 1229   7.549   2.122   7.577  0.0525 -1.0722 -0.0462
   10MOL0     C 1230   7.452   2.201   7.488 -0.9306 -0.3335  0.3781
   10MOL0     C 1231   7.531   2.257   7.359 -0.5631 -0.4171 -0.0500
   10MOL0    Cl 1232   7.427   2.374   7.269 -0.0875  0.1608 -0.1945
   10MOL0     C 1233   8.353   1.863   7.856  0.2517  0.5609  0.0952
   10MOL0     C 1234   8.486   1.884   7.873  0.0727 -0.0096 -0.6447
   10MOL0     O 1235   8.670   2.162   7.682  0.3659  0.1648  0.4566
   10MOL0     C 1236   8.908   2.256   7.764  0.4498  0.9477 -0.7922
   10MOL0     C 1237   9.032   2.301   7.807  0.1704 -0.2167  0.1551
   10MOL0     N 1238   9.344   2.851   8.209 -0.0522 -0.2752  0.0920
   10MOL0     N 1239   9.417   2.955   8.230  0.2795 -0.1180  0.1310
   10MOL0     C 1240  10.489   3.617   8.604  0.5167  0.3492 -0.8659
   10MOL0     C 1241  10.607   3.678   8.562  0.0786 -0.1303 -0.3758
   10MOL0     C 1242  10.883   3.903   8.246 -0.0892  0.0125 -0.3661
   10MOL0     C 1243  10.912   4.035   8.213  0.3286 -1.0546  0.4887
   10MOL0     C 1244  11.034   4.075   8.158  0.0685  0.0022 -0.0401
   10MOL0     C 1245  11.125   3.971   8.134 -0.7010  0.0677  0.4019
   10MOL0     O 1246  11.256   3.998   8.094  0.5378 -0.6403 -0.1281
   10MOL0     C 1247  11.280   4.127   8.023 -0.9725  0.1574  0.1476
   10MOL0     C 1248  11.428   4.122   7.987 -0.9557  1.0709 -1.4958
   10MOL0     C 1249  11.471   4.224   7.893 -0.0847 -0.0076  0.1255
   10MOL0     C 1250  11.445   4.183   7.741  0.5372  0.1756  0.4962
   10MOL0     C 1251  11.494   4.292   7.652 -0.0272  0.3708 -0.6344
   10MOL0     C 1252  11.520   4.358   7.565  0.7523  0.3435  0.2579
   10MOL0     C 1253  11.102   3.831   8.157  0.4106  0.4444 -0.1591
   10MOL0     C 1254  10.977   3.797   8.223 -1.0669 -0.5251  0.8165
   10MOL0     H 1255  10.537   3.662   8.223  2.3924  0.7174  0.6700
   10MOL0     H 1256  10.343   3.548   8.298  0.7226 -1.2015  0.2084
   10MOL0     H 1257  10.124   3.424   8.610 -0.0711  1.4973  0.5417
   10MOL0     H 1258  10.237   3.369   8.481  0.6696  0.6053 -0.8584
   10MOL0     H 1259  10.120   3.534   8.319 -2.3385  1.7718  0.1216
   10MOL0     H 1260  10.065   3.613   8.463  0.2279  0.1100  0.7681
   10MOL0     H 1261   9.908   3.490   8.316 -0.1444  1.0560 -0.0357
   10MOL0     H 1262   9.887   3.432   8.485 -2.4247 -1.5530 -1.2676
   10MOL0     H 1263  10.005   3.295   8.249 -3.1052 -0.6397 -0.4396
   10MOL0     H 1264  10.056   3.242   8.406  0.1879 -1.6571 -2.2727
   10MOL0     H 1265   9.763   3.236   8.313 -0.3742  0.3401 -0.7619
   10MOL0     H 1266   9.829   3.180   8.471  1.9686 -1.1882  0.2569
   10MOL0     H 1267   9.973   3.028   8.320 -1.7930 -3.3637  0.2971
   10MOL0     H 1268   9.902   3.102   8.175 -2.3186 -0.1516 -0.6763
   10MOL0     H 1269   9.804   2.884   8.243  1.3729  2.7035 -3.6672
   10MOL0     H 1270   9.760   2.943   8.399 -1.5075 -1.9353 -0.1585
   10MOL0     H 1271   9.670   3.050   8.121  1.5985  0.4987  1.3431
   10MOL0     H 1272   9.605   3.104   8.272  0.6688  0.8843 -0.5773
   10MOL0     H 1273   9.619   2.722   8.112 -1.5936 -2.1662 -0.6065
   10MOL0     H 1274   9.270   2.616   8.102  1.7188  0.5536 -2.0847
   10MOL0     H 1275   9.366   2.550   8.224  0.5645  1.4560  0.4486
   10MOL0     H 1276   9.549   2.521   8.086  0.1823  0.3116 -2.0739
   10MOL0     H 1277   9.455   2.581   7.938  1.3181  3.2822  0.7629
   10MOL0     H 1278   9.476   2.319   7.978  0.0353  1.2854 -2.0586
   10MOL0     H 1279   9.382   2.337   8.117 -1.1959  1.2080  0.0199
   10MOL0     H 1280   9.275   2.440   7.852 -2.1180  1.1934  0.7728
   10MOL0     H 1281   9.194   2.409   8.014  0.5197  2.0961 -1.1359
   10MOL0     H 1282   9.128   2.011   7.968  1.9065  2.1352 -0.2960
   10MOL0     H 1283   8.921   1.938   7.910 -0.8522 -1.3794 -4.2417
   10MOL0     H 1284   8.547   1.969   7.555  1.1189  0.1140  0.0235
   10MOL0     H 1285   8.312   1.933   7.533  0.0789 -1.4603 -1.2577
   10MOL0     H 1286   8.079   1.959   7.577 -0.3437  2.2028 -0.0719
   10MOL0     H 1287   8.062   2.020   7.741  1.2803 -0.7507  0.2997
   10MOL0     H 1288   7.901   1.809   7.768  3.9614  0.5842  0.4846
   10MOL0     H 1289   7.932   1.769   7.611 -1.6553 -0.5582  2.0110
   10MOL0     H 1290   7.843   1.985   7.516  1.2253 -0.1726  0.4138
   10MOL0     H 1291   7.812   2.043   7.678 -2.8044  0.0095  0.7331
   10MOL0     H 1292   7.686   1.803   7.537 -0.5904  0.0636 -0.2525
   10MOL0     H 1293   7.640   1.876   7.690 -1.2988 -1.5465 -0.4874
   10MOL0     H 1294   7.499   1.934   7.482  0.2088 -1.4182  1.5774
   10MOL0     H 1295   7.634   2.009   7.411  1.2783 -1.1694 -0.8624
   10MOL0     H 1296   7.631   2.188   7.606  0.5767 -0.4394 -2.7094
   10MOL0     H 1297   7.493   2.098   7.668  0.1164 -1.7864 -0.1893
   10MOL0     H 1298   7.369   2.145   7.444 -1.5636 -2.2605  3.6855
   10MOL0     H 1299   7.410   2.285   7.544  1.2510  2.0503 -1.3427
   10MOL0     H 1300   7.564   2.187   7.282  0.1051  1.9025 -2.0078
   10MOL0     H 1301   7.622   2.312   7.384  0.9434 -2.3547 -1.0214
   10MOL0     H 1302   8.293   1.816   7.933 -0.6649 -0.7555 -1.3636
   10MOL0     H 1303   8.528   1.875   7.973  1.9297  3.4975 -0.9685
   10MOL0     H 1304   8.845   2.322   7.705 -1.6851  1.3413  1.7263
   10MOL0     H 1305   9.058   2.401   7.773 -1.1447  0.0167 -0.2037
   10MOL0     H 1306  10.478   3.600   8.711  0.3898 -1.8448 -1.1876
   10MOL0     H 1307  10.679   3.725   8.627  0.0449  0.2534 -0.6086
   10MOL0     H 1308  10.832   4.109   8.216  2.3621  1.2623  0.1684
   10MOL0     H 1309  11.053   4.177   8.129 -0.2205  0.0498 -0.0715
   10MOL0     H 1310  11.246   4.220   8.070 -0.2926 -0.4125  1.8632
   10MOL0     H 1311  11.228   4.115   7.928 -0.2818 -0.8909 -0.1121
   10MOL0     H 1312  11.488   4.136   8.078 -0.0769  0.6161 -1.9936
   10MOL0     H 1313  11.453   4.024   7.945  0.9971 -1.0031  3.6026
   10MOL0     H 1314  11.576   4.251   7.906 -0.6599  1.6144  1.8286
   10MOL0     H 1315  11.417   4.315   7.921  1.7222  0.6759  1.6164
   10MOL0     H 1316  11.500   4.089   7.726 -1.1764 -0.7419 -0.4959
   10MOL0     H 1317  11.336   4.173   7.731  0.4942  0.4548  0.6960
   10MOL0     H 1318  11.528   4.415   7.475 -0.8195  0.4593  0.1667
   10MOL0     H 1319  11.172   3.755   8.124  2.4742  2.0418  0.3199
   10MOL0     H 1320  10.958   3.691   8.232 -0.3347 -0.6970  0.4253
   11MOL0     O 1321   0.883   0.409   9.859  0.2575 -0.7059 -0.0156
   11MOL0     C 1322   0.943   0.367   9.953  0.9017 -0.0584 -0.1003
   11MOL0     O 1323   1.077   0.395   9.974 -0.5599 -0.2022  0.3278
   11MOL0     C 1324   1.132   0.506   9.916  0.6199 -0.0824 -0.4428
   11MOL0     C 1325   1.072   0.631   9.894 -0.9876 -0.3065  0.2210
   11MOL0     C 1326   1.145   0.741   9.835  0.6843 -0.2632 -0.2205
   11MOL0     C 1327   1.282   0.732   9.814 -0.3396  0.3079  0.5075
   11MOL0     O 1328   1.366   0.841   9.791 -0.2860  0.3352  0.1173
   11MOL0     C 1329   1.326   0.966   9.836 -0.9318  1.1242  0.0195
   11MOL0     C 1330   1.450   1.052   9.819  0.4065  0.0529  0.6121
   11MOL0     C 1331   1.549   1.035   9.934  0.7190  0.2497  0.2966
   11MOL0     C 1332   1.616   0.897   9.965  0.7173  0.6264 -0.8001
   11MOL0     C 1333   1.722   0.857   9.860 -0.2777 -1.2034 -0.5691
   11MOL0     C 1334   1.808   0.729   9.876  0.4284 -0.3143  0.8611
   11MOL0     C 1335   1.940   0.748   9.790 -0.8317 -0.0690  0.0195
   11MOL0     C 1336   1.922   0.772   9.642 -0.6221 -0.3704  0.6819
   11MOL0     N 1337   1.835   0.673   9.587 -0.8750  0.2328 -1.0025
   11MOL0     C 1338   1.834   0.532   9.600 -0.7975 -0.0404 -0.3602
   11MOL0     C 1339   1.723   0.490   9.538 -0.6613 -0.9991  0.3088
   11MOL0     C 1340   1.679   0.351   9.528  0.0340  0.0898  0.3812
   11MOL0     C 1341   1.568   0.327   9.631  0.5348 -0.5862  0.8483
   11MOL0     C 1342   1.576   0.190   9.701 -0.5637 -0.1075 -0.2506
   11MOL0     C 1343   1.472   0.179   9.811 -0.3538 -0.6498 -0.1990
   11MOL0     O 1344   1.456   0.044   9.857  0.3133 -0.2362  0.3709
   11MOL0     C 1345   1.337   0.010   9.910  0.4782  0.3385 -0.0475
   11MOL0     C 1346   1.335  -0.121   9.961  0.1177 -0.3952  0.3622
   11MOL0     C 1347   1.219  -0.187  10.007 -0.8283 -0.1379  0.5436
   11MOL0     C 1348   1.095  -0.115   9.987 -0.9118 -0.7333 -0.6611
   11MOL0     C 1349   0.980  -0.190  10.023  0.6203 -0.4736  0.3644
   11MOL0     O 1350   0.862  -0.128   9.997 -0.2323 -0.3790 -0.0493
   11MOL0     C 1351   0.739  -0.185  10.023 -0.2655  0.2504 -0.8835
   11MOL0     C 1352   0.720  -0.280  10.124  0.1663  0.0783 -0.0198
   11MOL0     C 1353   0.591  -0.333  10.142 -0.2085  0.1415  0.3486
   11MOL0     C 1354   0.479  -0.290  10.073  0.5130  0.3127 -0.0007
   11MOL0     O 1355   0.358  -0.356  10.095 -0.2886  0.4544 -0.3119
   11MOL0     C 1356   0.259  -0.327  10.003 -0.9462 -0.1735 -0.1462
   11MOL0     C 1357   0.129  -0.399  10.024  0.3889 -0.2842  0.2630
   11MOL0     C 1358   0.042  -0.342  10.140 -0.0952 -1.0650 -0.0732
   11MOL0     C 1359   0.084  -0.405  10.280 -0.5328 -0.0832  0.9542
   11MOL0     C 1360   0.013  -0.330  10.398 -0.0656 -0.8074  0.3065
   11MOL0     C 1361  -0.132  -0.358  10.386  0.6072  0.0533 -0.0733
   11MOL0     C 1362  -0.209  -0.301  10.518  0.0981 -0.5100 -0.7179
   11MOL0     C 1363  -0.353  -0.355  10.541  0.2669 -0.8544 -0.1041
   11MOL0    Cl 1364  -0.341  -0.521  10.535  0.2765  0.7133 -0.3874
   11MOL0     C 1365   0.500  -0.184   9.975  0.0684  0.8790 -0.3923
   11MOL0     C 1366   0.624  -0.135   9.955 -0.7190  0.1827  0.1548
   11MOL0     O 1367   0.994  -0.308  10.042 -0.1394  0.2037 -0.2736
   11MOL0     C 1368   1.092   0.021   9.957 -0.6443 -0.2362 -0.1252
   11MOL0     C 1369   1.212   0.083   9.918 -0.8530 -0.0033 -0.3063
   11MOL0     N 1370   1.660   0.593   9.476 -1.0759  0.1347  0.0688
   11MOL0     N 1371   1.728   0.694   9.508 -0.1782  0.7199 -0.7296
   11MOL0     C 1372   1.347   0.616   9.835 -0.4366  0.3638 -0.6847
   11MOL0     C 1373   1.271   0.497   9.872 -0.1001  0.5161 -0.2291
   11MOL0     C 1374   0.867   0.285  10.044  0.4194  0.5974  0.4654
   11MOL0     C 1375   0.734   0.252  10.023 -0.4613 -0.0271 -0.2377
   11MOL0     C 1376   0.660   0.184  10.121 -0.6314 -0.4106 -0.8341
   11MOL0     C 1377   0.712   0.155  10.252  0.0611  0.2748 -0.5004
   11MOL0     O 1378   0.630   0.082  10.327  0.3883 -0.3839  0.1243
   11MOL0     C 1379   0.673   0.048  10.464  0.5221  0.1122 -0.6375
   11MOL0     C 1380   0.775  -0.069  10.472 -0.1449 -0.3791  0.9460
   11MOL0     C 1381   0.877  -0.053  10.583 -0.7042  0.1061  0.2948
   11MOL0     C 1382   1.006  -0.135  10.572  0.1707 -0.4282 -0.4754
   11MOL0     C 1383   0.979  -0.273  10.598  0.0101 -0.9740 -0.4356
   11MOL0     C 1384   0.950  -0.382  10.625 -0.1202 -0.4775  0.3969
   11MOL0     C 1385   0.847   0.195  10.278  0.3429 -0.4004 -0.2030
   11MOL0     C 1386   0.921   0.261  10.165 -0.6523  0.9757  0.2352
   11MOL0     H 1387   0.965   0.640   9.904 -0.9077 -1.3202  2.8866
   11MOL0     H 1388   1.083   0.826   9.810  2.1333  1.1934  0.9284
   11MOL0     H 1389   1.285   0.960   9.937 -2.4446 -1.8683 -0.6568
   11MOL0     H 1390   1.242   1.013   9.784 -0.6527  3.2850  1.3868
   11MOL0     H 1391   1.414   1.155   9.809 -0.5504 -0.4966 -3.2223
   11MOL0     H 1392   1.495   1.021   9.724 -2.2784 -1.7588 -0.2010
   11MOL0     H 1393   1.505   1.071  10.028  1.4474  0.8361  0.4247
   11MOL0     H 1394   1.625   1.111   9.912  0.6604 -0.0742 -1.0918
   11MOL0     H 1395   1.672   0.908  10.058  1.4957 -4.2321 -0.4176
   11MOL0     H 1396   1.546   0.816   9.987  0.9573  0.8210  0.7503
   11MOL0     H 1397   1.793   0.939   9.871 -0.4019 -1.3664  1.8740
   11MOL0     H 1398   1.678   0.850   9.760 -0.3807  1.4833 -0.7985
   11MOL0     H 1399   1.741   0.651   9.838 -0.6217  0.6597  0.6490
   11MOL0     H 1400   1.835   0.704   9.979 -2.6147  1.6607  2.2971
   11MOL0     H 1401   2.007   0.820   9.839 -2.6297  0.9399  1.0956
   11MOL0     H 1402   1.994   0.654   9.807 -0.2715  0.1694 -0.4199
   11MOL0     H 1403   2.018   0.771   9.589  0.2645  1.2120  2.1492
   11MOL0     H 1404   1.878   0.870   9.623  0.9065  0.1255 -0.5717
   11MOL0     H 1405   1.903   0.469   9.655 -1.3752  1.4752  2.2680
   11MOL0     H 1406   1.764   0.286   9.551 -0.1933  0.3441  2.0963
   11MOL0     H 1407   1.643   0.332   9.427 -0.5070  4.3003 -0.4291
   11MOL0     H 1408   1.474   0.336   9.577  0.5005  0.4281  1.0606
   11MOL0     H 1409   1.560   0.407   9.705 -1.6608 -1.5454  1.7412
   11MOL0     H 1410   1.560   0.112   9.626  1.2460 -0.4448 -0.3439
   11MOL0     H 1411   1.674   0.173   9.748 -1.1099  0.5387  1.1653
   11MOL0     H 1412   1.379   0.202   9.759 -1.1578  0.4097  1.6176
   11MOL0     H 1413   1.488   0.253   9.890  0.3427 -1.4142  0.3789
   11MOL0     H 1414   1.418  -0.191   9.953 -1.1751 -2.3432  2.5771
   11MOL0     H 1415   1.232  -0.294  10.017 -2.3701 -0.7850 -2.8026
   11MOL0     H 1416   0.803  -0.317  10.184 -0.8564 -0.7851  0.8990
   11MOL0     H 1417   0.572  -0.415  10.210 -3.7253 -0.6158 -1.2807
   11MOL0     H 1418   0.294  -0.355   9.903 -1.9501  1.8814 -1.1454
   11MOL0     H 1419   0.251  -0.218   9.996  2.7460  0.1776 -0.9668
   11MOL0     H 1420   0.150  -0.505  10.043 -0.0383 -0.4187 -0.0006
   11MOL0     H 1421   0.076  -0.388   9.929  1.3009 -4.7954 -1.0356
   11MOL0     H 1422  -0.060  -0.377  10.120 -0.8441  0.2947  1.1800
   11MOL0     H 1423   0.045  -0.233  10.145 -0.1145 -0.9947 -1.2256
   11MOL0     H 1424   0.051  -0.508  10.293  0.4998 -0.3827  1.3104
   11MOL0     H 1425   0.191  -0.393  10.297 -0.5699 -1.8445  2.8527
   11MOL0     H 1426   0.028  -0.221  10.405  0.8709 -1.0061  2.3805
   11MOL0     H 1427   0.061  -0.352  10.494 -0.9236  0.0183  0.9502
   11MOL0     H 1428  -0.132  -0.467  10.399  1.2340  0.2286  1.7662
   11MOL0     H 1429  -0.174  -0.324  10.291  0.4219 -1.6590 -0.6363
   11MOL0     H 1430  -0.143  -0.340  10.596  1.1014 -0.7754 -1.6821
   11MOL0     H 1431  -0.217  -0.192  10.523  0.7446 -0.4969  0.4117
   11MOL0     H 1432  -0.429  -0.317  10.471 -2.2041  0.9283  3.2220
   11MOL0     H 1433  -0.386  -0.319  10.639  0.9061 -0.7168  0.0638
   11MOL0     H 1434   0.422  -0.136   9.917 -0.1232  0.6812 -0.3019
   11MOL0     H 1435   0.641  -0.062   9.877 -2.5426 -0.1551 -0.6137
   11MOL0     H 1436   1.001   0.079   9.953 -0.3583  0.2230  0.0319
   11MOL0     H 1437   1.202   0.185   9.882  1.5577  0.3961  0.0071
   11MOL0     H 1438   1.453   0.608   9.813  0.3256  2.0753  1.8290
   11MOL0     H 1439   1.325   0.404   9.892 -1.3932  0.1657  1.9266
   11MOL0     H 1440   0.677   0.278   9.934  0.0632 -0.6158 -0.7574
   11MOL0     H 1441   0.557   0.153  10.114 -1.4351  1.4236  1.6041
   11MOL0     H 1442   0.590   0.025  10.532  1.8298  0.0839  1.0291
   11MOL0     H 1443   0.706   0.143  10.505 -1.8651  1.0660 -0.7492
   11MOL0     H 1444   0.708  -0.155  10.486 -0.5821 -0.3140 -0.5690
   11MOL0     H 1445   0.819  -0.075  10.373 -3.1403  1.3264 -0.6395
   11MOL0     H 1446   0.827  -0.081  10.677 -2.7798  1.4130 -0.3520
   11MOL0     H 1447   0.906   0.052  10.587 -0.6704  0.0747  1.6274
   11MOL0     H 1448   1.046  -0.131  10.470 -3.9128 -1.3271 -2.3275
   11MOL0     H 1449   1.093  -0.110  10.633 -1.4696  1.6886  1.1539
   11MOL0     H 1450   0.924  -0.486  10.634 -0.5379 -0.4494 -0.4240
   11MOL0     H 1451   0.899   0.164  10.367 -1.9484 -1.8298  0.7240
   11MOL0     H 1452   1.026   0.276  10.187 -0.6913 -1.9529  3.2426
   12MOL0     O 1453   8.395   2.334   8.583  0.0900 -0.3931  0.0117
   12MOL0     C 1454   8.463   2.393   8.502 -0.6367  0.2685  0.5255
   12MOL0     O 1455   8.439   2.394   8.365 -0.0225  1.0176  0.3109
   12MOL0     C 1456   8.328   2.317   8.321  0.1646  0.0829 -0.9423
   12MOL0     C 1457   8.208   2.362   8.282  0.1075  0.0809  0.5409
   12MOL0     C 1458   8.109   2.276   8.233 -0.2892 -0.2747  0.6035
   12MOL0     C 1459   8.131   2.136   8.228  0.3821  0.2695  0.3312
   12MOL0     O 1460   8.049   2.037   8.198 -0.2569 -0.3839 -0.3144
   12MOL0     C 1461   7.918   2.071   8.154 -0.2188 -0.4297 -0.3161
   12MOL0     C 1462   7.916   2.113   8.008  0.4131 -0.3583  0.4048
   12MOL0     C 1463   7.781   2.186   7.959  0.5987  1.0587 -0.2413
   12MOL0     C 1464   7.656   2.100   7.979  0.8292  0.0152  0.0323
   12MOL0     C 1465   7.519   2.176   7.981 -0.0524 -0.3729 -0.0596
   12MOL0     C 1466   7.418   2.068   8.002  0.1428  0.0129  0.6202
   12MOL0     C 1467   7.375   2.059   8.147  0.1895 -0.1291 -0.1108
   12MOL0     C 1468   7.269   1.951   8.158 -0.2720 -0.5236 -1.1980
   12MOL0     N 1469   7.234   1.938   8.302 -0.2542 -0.0608  0.7794
   12MOL0     C 1470   7.297   1.862   8.392 -0.7135  0.5176 -0.4850
   12MOL0     C 1471   7.223   1.861   8.502 -0.0698 -0.2332  0.0330
   12MOL0     C 1472   7.250   1.786   8.632  0.6501  0.8147 -0.1333
   12MOL0     C 1473   7.374   1.826   8.707 -0.7087 -0.7637  0.0211
   12MOL0     C 1474   7.350   1.773   8.848  0.4761 -0.0405 -0.6226
   12MOL0     C 1475   7.473   1.790   8.937  0.0412  0.3573 -0.8099
   12MOL0     O 1476   7.517   1.925   8.940  0.3793 -0.1552 -0.3515
   12MOL0     C 1477   7.615   1.964   9.021  0.1609  0.3033  0.8364
   12MOL0     C 1478   7.644   2.101   9.013  0.0121 -0.4936  0.5120
   12MOL0     C 1479   7.730   2.163   9.108  0.6258  0.2473 -0.7907
   12MOL0     C 1480   7.804   2.080   9.196 -0.3645  1.0070  0.3882
   12MOL0     C 1481   7.910   2.143   9.275 -0.5556 -0.2312 -0.2914
   12MOL0     O 1482   7.877   2.259   9.328 -0.1504 -0.3410 -0.4580
   12MOL0     C 1483   7.956   2.315   9.432 -0.1329  1.0061 -0.6581
   12MOL0     C 1484   8.078   2.382   9.396  0.0506 -0.1185  0.3104
   12MOL0     C 1485   8.150   2.458   9.490 -0.3278 -0.3987 -0.3568
   12MOL0     C 1486   8.108   2.464   9.628 -0.2149  0.1576 -0.1163
   12MOL0     O 1487   8.180   2.535   9.717 -0.3223 -0.2952 -0.0457
   12MOL0     C 1488   8.244   2.469   9.825 -0.1847 -1.7055 -0.3731
   12MOL0     C 1489   8.377   2.398   9.790  0.7993  0.2038  0.4616
   12MOL0     C 1490   8.450   2.316   9.902 -0.8155 -0.2826 -0.7559
   12MOL0     C 1491   8.594   2.267   9.869  0.1154 -0.1815  0.5441
   12MOL0     C 1492   8.686   2.380   9.821 -0.4201 -0.7313 -0.8403
   12MOL0     C 1493   8.833   2.320   9.821 -0.6586 -0.4117  0.3640
   12MOL0     C 1494   8.939   2.426   9.832 -0.1579 -0.2177 -0.4637
   12MOL0     C 1495   8.946   2.516   9.705 -0.2221 -0.7405  0.6686
   12MOL0    Cl 1496   9.055   2.653   9.720 -0.3446  0.0078  0.3216
   12MOL0     C 1497   7.993   2.399   9.661  0.8590 -0.1080 -0.0846
   12MOL0     C 1498   7.913   2.330   9.567  0.1772 -0.1888  0.7779
   12MOL0     O 1499   8.014   2.088   9.303  0.5439 -0.1935  0.7577
   12MOL0     C 1500   7.778   1.938   9.192 -0.5231 -0.4518 -0.0786
   12MOL0     C 1501   7.677   1.890   9.119  0.0219  0.1546 -0.2487
   12MOL0     N 1502   7.106   1.933   8.476  0.4457 -0.4001  0.3237
   12MOL0     N 1503   7.121   1.988   8.355  0.6041 -0.2102  0.0846
   12MOL0     C 1504   8.256   2.092   8.280  0.1062  0.5209 -0.3620
   12MOL0     C 1505   8.351   2.179   8.318 -0.0663  0.3237  0.3511
   12MOL0     C 1506   8.586   2.462   8.559 -1.0490  0.0080  0.1876
   12MOL0     C 1507   8.617   2.468   8.699  0.1701  0.4621 -0.0851
   12MOL0     C 1508   8.721   2.548   8.744 -0.1389  0.4490  0.5072
   12MOL0     C 1509   8.796   2.624   8.649 -0.5100  0.2337  0.3057
   12MOL0     O 1510   8.890   2.699   8.713 -0.3763 -0.8144  0.0333
   12MOL0     C 1511   8.999   2.748   8.625 -0.0908  0.0217 -0.6515
   12MOL0     C 1512   9.116   2.814   8.701 -0.6277  0.4157  0.6991
   12MOL0     C 1513   9.073   2.939   8.780 -0.0714 -0.3998  0.1318
   12MOL0     C 1514   9.190   3.008   8.852 -1.0711 -0.4087  0.7174
   12MOL0     C 1515   9.297   3.047   8.759 -0.2138  0.0807  0.2190
   12MOL0     C 1516   9.380   3.099   8.695  0.6036 -0.5384  0.1033
   12MOL0     C 1517   8.763   2.610   8.516 -0.0772 -0.3564  0.3103
   12MOL0     C 1518   8.652   2.538   8.473  0.3577 -1.1791 -0.3435
   12MOL0     H 1519   8.205   2.469   8.301  2.0366  0.2246  0.2837
   12MOL0     H 1520   8.016   2.324   8.204 -0.5289 -1.2422 -0.2544
   12MOL0     H 1521   7.865   2.154   8.201 -2.4363 -0.1918 -2.9732
   12MOL0     H 1522   7.856   1.982   8.157  0.6065 -1.0942 -1.6903
   12MOL0     H 1523   7.933   2.016   7.961 -1.0534 -0.9010  0.9301
   12MOL0     H 1524   8.008   2.166   7.983  1.5084 -2.6771 -0.8641
   12MOL0     H 1525   7.812   2.221   7.860 -0.8428  1.0487 -0.7197
   12MOL0     H 1526   7.773   2.280   8.014  0.9370  0.1925  1.3381
   12MOL0     H 1527   7.665   2.030   7.896  0.5718 -0.4778  0.4134
   12MOL0     H 1528   7.667   2.028   8.060  2.6221 -1.8396 -1.7538
   12MOL0     H 1529   7.498   2.222   7.884 -1.4103 -1.5503 -0.3630
   12MOL0     H 1530   7.506   2.247   8.064 -4.1061 -3.8904  2.7650
   12MOL0     H 1531   7.454   1.969   7.970 -0.9836 -0.7206  1.5524
   12MOL0     H 1532   7.330   2.087   7.940  1.8953  0.1411 -2.0033
   12MOL0     H 1533   7.465   2.032   8.203 -0.7474  0.9132  2.0064
   12MOL0     H 1534   7.334   2.148   8.194 -4.7777 -2.1468  0.0354
   12MOL0     H 1535   7.308   1.854   8.125  0.1270 -0.7636 -0.0594
   12MOL0     H 1536   7.184   1.976   8.095  0.1888  1.2468 -1.1610
   12MOL0     H 1537   7.394   1.817   8.376 -1.4735 -0.3059 -3.2682
   12MOL0     H 1538   7.257   1.681   8.602  0.3622  0.8901 -0.4750
   12MOL0     H 1539   7.160   1.801   8.692  0.1224  2.4649 -1.2623
   12MOL0     H 1540   7.400   1.932   8.706 -0.2650 -0.8706 -0.0290
   12MOL0     H 1541   7.455   1.770   8.660 -0.6992  0.0032 -0.8886
   12MOL0     H 1542   7.265   1.825   8.891  0.7577 -0.5826  0.6295
   12MOL0     H 1543   7.325   1.667   8.844  3.6853 -0.9653  0.1870
   12MOL0     H 1544   7.550   1.720   8.903 -2.5659 -2.4238 -1.4466
   12MOL0     H 1545   7.438   1.756   9.035  3.4539 -3.1118 -0.5726
   12MOL0     H 1546   7.583   2.170   8.955  3.9892  3.5776  0.6274
   12MOL0     H 1547   7.750   2.270   9.107 -0.0910  0.3883 -0.9755
   12MOL0     H 1548   8.108   2.389   9.292 -1.2232  1.2231 -0.0004
   12MOL0     H 1549   8.231   2.520   9.454 -0.8846 -0.6470 -2.1187
   12MOL0     H 1550   8.176   2.398   9.872  0.8202 -1.6777  1.2109
   12MOL0     H 1551   8.265   2.541   9.905 -0.0489 -1.7053 -0.4089
   12MOL0     H 1552   8.448   2.470   9.749  2.0658 -0.6882  0.9940
   12MOL0     H 1553   8.360   2.328   9.708 -0.8388 -1.2698  1.9676
   12MOL0     H 1554   8.387   2.229   9.924 -0.6612 -0.5212 -1.2407
   12MOL0     H 1555   8.451   2.384   9.987  0.3446  2.7970 -3.0388
   12MOL0     H 1556   8.632   2.215   9.958 -2.0391 -2.9465 -0.0279
   12MOL0     H 1557   8.590   2.185   9.798 -0.7147 -1.5349  2.0791
   12MOL0     H 1558   8.676   2.462   9.893 -0.5132 -1.2503 -0.2483
   12MOL0     H 1559   8.665   2.416   9.720  1.1030  0.2100 -0.8502
   12MOL0     H 1560   8.854   2.259   9.733  2.5586  1.8688 -0.6225
   12MOL0     H 1561   8.837   2.260   9.913 -1.8355  3.5311  3.2398
   12MOL0     H 1562   8.914   2.490   9.918  3.7434 -0.7568  1.2881
   12MOL0     H 1563   9.031   2.375   9.864  0.5525  1.1098 -0.3080
   12MOL0     H 1564   8.846   2.557   9.689  0.3810  1.2497  1.6769
   12MOL0     H 1565   8.976   2.466   9.612 -1.7628  1.7356 -1.2899
   12MOL0     H 1566   7.959   2.403   9.764 -3.0835 -0.8800 -1.1835
   12MOL0     H 1567   7.824   2.283   9.607  0.3792  0.2875  1.8389
   12MOL0     H 1568   7.848   1.875   9.246  0.3977 -0.4271 -1.2123
   12MOL0     H 1569   7.660   1.784   9.134 -4.2361  0.3247 -2.1703
   12MOL0     H 1570   8.274   1.986   8.292  0.0465  0.7043  1.6102
   12MOL0     H 1571   8.449   2.146   8.351  0.1180 -0.4033 -0.8578
   12MOL0     H 1572   8.557   2.419   8.776  1.1480  1.0784  1.1140
   12MOL0     H 1573   8.741   2.556   8.850 -1.0523 -0.0903  0.7324
   12MOL0     H 1574   8.970   2.820   8.548  2.7120  4.7195  2.2029
   12MOL0     H 1575   9.022   2.652   8.578  0.1411 -1.3381  2.0040
   12MOL0     H 1576   9.168   2.741   8.763  1.4572  0.4150 -0.9356
   12MOL0     H 1577   9.178   2.843   8.616 -2.9902  0.8250 -0.9934
   12MOL0     H 1578   9.005   2.908   8.860 -0.3051 -0.9642 -0.2752
   12MOL0     H 1579   9.019   3.011   8.718  1.6485  1.0375  0.2355
   12MOL0     H 1580   9.162   3.104   8.896 -0.4162  1.1056 -1.8783
   12MOL0     H 1581   9.228   2.943   8.931 -1.0946 -0.9087  0.3224
   12MOL0     H 1582   9.454   3.143   8.631  0.2812  0.0408  0.1179
   12MOL0     H 1583   8.818   2.660   8.436  0.2654 -1.1985 -0.0003
   12MOL0     H 1584   8.619   2.543   8.369 -1.6569 -2.1700  0.1856
   13MOL0     O 1585   2.301  10.000   7.112 -0.3117  0.4212  0.0440
   13MOL0     C 1586   2.382  10.020   7.023  0.3986  0.7771  0.8426
   13MOL0     O 1587   2.349  10.014   6.889  0.4525 -0.1195 -0.0009
   13MOL0     C 1588   2.218  10.014   6.839  0.3657  0.2043 -0.4251
   13MOL0     C 1589   2.196   9.980   6.703  0.0562 -0.3555  0.1340
   13MOL0     C 1590   2.073   9.988   6.645 -0.3467 -0.4461 -0.5855
   13MOL0     C 1591   1.961  10.040   6.718 -0.7878  0.1675  0.1978
   13MOL0     O 1592   1.836  10.036   6.673 -0.4344 -0.0583  0.1739
   13MOL0     C 1593   1.812  10.095   6.547 -0.0127 -0.2482 -0.5860
   13MOL0     C 1594   1.689  10.190   6.572 -0.4001  0.0265 -0.0925
   13MOL0     C 1595   1.713  10.312   6.669  0.0985 -0.3210 -0.1863
   13MOL0     C 1596   1.579  10.399   6.691  0.2615  0.0669 -0.2157
   13MOL0     C 1597   1.621  10.512   6.782  0.7991 -0.0717 -0.4364
   13MOL0     C 1598   1.508  10.623   6.780 -0.2116 -0.2924 -0.5078
   13MOL0     C 1599   1.374  10.562   6.810  0.6220  0.2218  0.6599
   13MOL0     C 1600   1.270  10.679   6.826 -0.7963  0.6156 -0.2948
   13MOL0     N 1601   1.136  10.630   6.784  0.3280 -0.1281 -0.1561
   13MOL0     C 1602   1.040  10.585   6.865  0.3899 -0.6327 -0.2885
   13MOL0     C 1603   0.932  10.559   6.791  0.3450  0.4889  0.0940
   13MOL0     C 1604   0.796  10.522   6.832 -0.1040  0.8026  0.4791
   13MOL0     C 1605   0.799  10.420   6.946 -0.2941 -0.5302 -0.1097
   13MOL0     C 1606   0.664  10.353   6.980  0.0711  0.6953  0.2248
   13MOL0     C 1607   0.551  10.445   7.034  0.2928  0.4896  0.6209
   13MOL0     O 1608   0.458  10.366   7.114 -0.9373  0.5404 -0.3157
   13MOL0     C 1609   0.369  10.286   7.045 -0.3265 -1.0803  0.3042
   13MOL0     C 1610   0.278  10.229   7.133 -0.6922  0.2887 -0.3859
   13MOL0     C 1611   0.175  10.145   7.081 -1.0501  0.7996 -0.8254
   13MOL0     C 1612   0.150  10.130   6.945 -0.4034 -0.2015  0.3593
   13MOL0     C 1613   0.035  10.037   6.901  0.4087 -1.2287 -0.5165
   13MOL0     O 1614  -0.035   9.967   6.994  0.1343  0.1375  0.2450
   13MOL0     C 1615  -0.156   9.909   6.963  0.1963 -0.1587 -0.2137
   13MOL0     C 1616  -0.238   9.928   6.852  0.0249 -0.6344  0.5337
   13MOL0     C 1617  -0.355   9.857   6.828  0.4167 -0.1961 -0.0430
   13MOL0     C 1618  -0.410   9.768   6.926 -0.2867  0.0351  0.0058
   13MOL0     O 1619  -0.530   9.697   6.923  0.6848  0.7241 -0.8505
   13MOL0     C 1620  -0.609   9.692   6.809 -0.2215  0.6758 -0.6541
   13MOL0     C 1621  -0.741   9.604   6.829  0.0690  0.5082  0.2235
   13MOL0     C 1622  -0.827   9.623   6.707  0.7512 -0.4100  0.1578
   13MOL0     C 1623  -0.967   9.584   6.744 -0.6088 -0.1338 -0.2250
   13MOL0     C 1624  -1.077   9.619   6.644  0.5833 -0.0394  0.6112
   13MOL0     C 1625  -1.226   9.609   6.678  0.5723  0.6041 -0.8658
   13MOL0     C 1626  -1.259   9.538   6.812  0.5229 -0.5746 -0.0895
   13MOL0     C 1627  -1.412   9.559   6.846  0.1513 -0.0086 -0.5874
   13MOL0    Cl 1628  -1.514   9.503   6.709  0.0266  0.1611  0.1476
   13MOL0     C 1629  -0.336   9.757   7.042 -0.2236 -0.7051  0.3255
   13MOL0     C 1630  -0.213   9.826   7.056  0.0232 -0.4675  0.2188
   13MOL0     O 1631   0.012  10.035   6.778  0.4423  0.2497  0.0051
   13MOL0     C 1632   0.233  10.206   6.863 -0.3371 -0.1746  0.2484
   13MOL0     C 1633   0.344  10.282   6.914  0.6029  0.3735 -0.3707
   13MOL0     N 1634   0.967  10.590   6.660 -0.2277 -0.5895 -0.2544
   13MOL0     N 1635   1.086  10.638   6.658 -0.6001  0.1804 -0.5025
   13MOL0     C 1636   1.988  10.095   6.842 -0.2611 -0.2899  0.2027
   13MOL0     C 1637   2.114  10.090   6.898  0.1368  0.0488 -0.3935
   13MOL0     C 1638   2.527  10.020   7.059 -0.8775 -0.4658 -0.2213
   13MOL0     C 1639   2.562  10.001   7.187 -0.2004 -0.4395  0.3779
   13MOL0     C 1640   2.697   9.980   7.226  0.0351  0.4054 -0.6904
   13MOL0     C 1641   2.798   9.992   7.128 -0.2948  0.6650 -0.1324
   13MOL0     O 1642   2.931   9.976   7.163  0.2975  0.4002  0.4927
   13MOL0     C 1643   2.971   9.857   7.238  1.5270  0.1867  0.0129
   13MOL0     C 1644   3.107   9.806   7.188 -0.2960  0.9196 -0.2674
   13MOL0     C 1645   3.182   9.714   7.288 -0.4079  0.1214  0.2781
   13MOL0     C 1646   3.310   9.667   7.222 -0.4012 -0.2225 -0.4569
   13MOL0     C 1647   3.401   9.642   7.341  0.3027  0.2564 -0.1590
   13MOL0     C 1648   3.465   9.627   7.442 -0.7070  0.1050  0.1154
   13MOL0     C 1649   2.765  10.011   6.995 -0.0596  0.1684 -0.3714
   13MOL0     C 1650   2.630  10.020   6.967  0.3876  0.3114  0.2446
   13MOL0     H 1651   2.282   9.932   6.658  0.2788 -0.3143  0.5146
   13MOL0     H 1652   2.059   9.942   6.548  3.2635 -3.1210 -0.0396
   13MOL0     H 1653   1.800  10.015   6.473  3.1068  1.3803 -3.0822
   13MOL0     H 1654   1.897  10.153   6.511 -0.9750  2.4084  1.1012
   13MOL0     H 1655   1.610  10.132   6.620 -0.6224  3.4563  4.4351
   13MOL0     H 1656   1.663  10.223   6.471  1.5483 -0.7346 -0.8827
   13MOL0     H 1657   1.792  10.377   6.630 -2.3932  2.5307 -0.9022
   13MOL0     H 1658   1.730  10.271   6.769 -1.5539  1.9180  1.1219
   13MOL0     H 1659   1.557  10.450   6.597  1.6522  1.1761  0.0213
   13MOL0     H 1660   1.495  10.343   6.732 -2.3082  2.1488 -2.2862
   13MOL0     H 1661   1.713  10.555   6.742  1.2502  0.6862  1.3372
   13MOL0     H 1662   1.638  10.472   6.882 -0.3969  0.0894 -0.1513
   13MOL0     H 1663   1.505  10.664   6.679 -0.1936  1.1252  0.0424
   13MOL0     H 1664   1.532  10.705   6.848  0.2228  0.3410 -1.4052
   13MOL0     H 1665   1.340  10.493   6.733 -0.6099  1.4440  0.0659
   13MOL0     H 1666   1.376  10.505   6.903  1.3184 -1.0745 -0.1213
   13MOL0     H 1667   1.292  10.762   6.759 -1.4810 -0.5134 -1.9808
   13MOL0     H 1668   1.262  10.717   6.929 -2.1753 -0.0576 -0.1194
   13MOL0     H 1669   1.033  10.592   6.973 -2.8784 -1.8108 -0.2947
   13MOL0     H 1670   0.737  10.483   6.748  0.1295  1.0429  0.1998
   13MOL0     H 1671   0.744  10.616   6.854  1.4726  2.2312 -1.4671
   13MOL0     H 1672   0.836  10.465   7.039 -2.0940 -1.9178  1.3723
   13MOL0     H 1673   0.861  10.336   6.913 -2.9791 -1.7793 -2.4388
   13MOL0     H 1674   0.622  10.296   6.896 -3.7617  2.6663  0.5868
   13MOL0     H 1675   0.691  10.282   7.059 -1.1360  1.9097  1.7888
   13MOL0     H 1676   0.494  10.486   6.950  1.3988  0.9350  0.0727
   13MOL0     H 1677   0.584  10.530   7.094  1.3489  0.8749 -0.4763
   13MOL0     H 1678   0.294  10.248   7.239  0.9499  0.9405 -0.7253
   13MOL0     H 1679   0.102  10.099   7.146 -1.7584  1.6661 -0.9762
   13MOL0     H 1680  -0.208   9.990   6.768  0.9878 -1.9135 -0.1038
   13MOL0     H 1681  -0.407   9.863   6.733  0.8918 -0.8374 -0.3538
   13MOL0     H 1682  -0.552   9.651   6.726  2.5107  1.6103  0.6384
   13MOL0     H 1683  -0.659   9.785   6.780 -4.4917 -1.2826 -0.2859
   13MOL0     H 1684  -0.791   9.646   6.917  0.0920 -0.9950  0.9878
   13MOL0     H 1685  -0.724   9.496   6.843 -0.5593  0.2692 -0.7837
   13MOL0     H 1686  -0.776   9.566   6.628  0.3057  1.0372 -1.2116
   13MOL0     H 1687  -0.831   9.728   6.676 -0.6043  0.3575  2.6930
   13MOL0     H 1688  -0.968   9.476   6.756  2.0061 -0.1067  0.9061
   13MOL0     H 1689  -0.997   9.642   6.832  0.0490  1.0335 -0.7442
   13MOL0     H 1690  -1.057   9.562   6.552 -3.9046 -0.8512 -0.0713
   13MOL0     H 1691  -1.072   9.724   6.613  0.6952  0.6405  2.8095
   13MOL0     H 1692  -1.278   9.568   6.591  2.4218  0.0171 -1.7473
   13MOL0     H 1693  -1.269   9.709   6.694  0.2199  0.2107  0.8782
   13MOL0     H 1694  -1.246   9.430   6.795  0.5794 -0.6133  0.1983
   13MOL0     H 1695  -1.205   9.580   6.897  1.4952 -2.2207  0.1536
   13MOL0     H 1696  -1.430   9.665   6.868 -0.5463 -0.3267  0.4767
   13MOL0     H 1697  -1.427   9.506   6.940  3.6270  1.6853  1.0832
   13MOL0     H 1698  -0.373   9.694   7.122  0.2931  0.1751  1.2799
   13MOL0     H 1699  -0.155   9.815   7.147  1.3073  0.4957 -0.4581
   13MOL0     H 1700   0.214  10.209   6.756 -1.9710 -2.0957  0.4242
   13MOL0     H 1701   0.398  10.346   6.845  0.0051 -0.0662 -1.2609
   13MOL0     H 1702   1.901  10.132   6.895 -0.5678 -0.1072 -0.4254
   13MOL0     H 1703   2.144  10.132   6.994  2.5469 -2.9055  0.2917
   13MOL0     H 1704   2.483   9.993   7.261 -0.2676 -2.5900  0.1459
   13MOL0     H 1705   2.719   9.964   7.331  0.6000 -1.6190 -1.0601
   13MOL0     H 1706   2.889   9.783   7.239  0.2729  1.3135 -3.8084
   13MOL0     H 1707   2.984   9.892   7.341 -1.5940  1.7646 -0.0013
   13MOL0     H 1708   3.076   9.752   7.098  0.0601  0.0076  0.1431
   13MOL0     H 1709   3.168   9.893   7.162 -1.2025  0.9316 -2.7045
   13MOL0     H 1710   3.117   9.631   7.316  0.9145 -1.3724 -0.8820
   13MOL0     H 1711   3.209   9.782   7.369  0.9569  0.3546 -0.3450
   13MOL0     H 1712   3.305   9.577   7.159 -0.7048 -0.3048 -0.3139
   13MOL0     H 1713   3.355   9.750   7.166  1.4160 -0.5234  0.4720
   13MOL0     H 1714   3.527   9.628   7.530 -1.0742 -1.2059  0.4181
   13MOL0     H 1715   2.834  10.001   6.912  0.6346  0.8008  0.1100
   13MOL0     H 1716   2.594  10.027   6.865 -0.2317 -0.5352  0.3968
   14MOL0     O 1717   5.968   2.099   1.692 -0.2247 -0.2807  0.5271
   14MOL0     C 1718   5.996   2.211   1.652 -0.3647 -0.5543  0.2027
   14MOL0     O 1719   5.913   2.305   1.609  0.2534 -0.4934  0.3488
   14MOL0     C 1720   5.783   2.290   1.566 -0.2664  0.8958  0.5251
   14MOL0     C 1721   5.727   2.401   1.507  0.1636 -0.3829  0.7936
   14MOL0     C 1722   5.592   2.400   1.457  0.1260 -0.2399  0.1657
   14MOL0     C 1723   5.512   2.283   1.464  0.2195  0.3266 -0.6357
   14MOL0     O 1724   5.387   2.292   1.413 -0.4699 -0.2086 -0.1772
   14MOL0     C 1725   5.331   2.167   1.372 -0.1012 -0.1297 -0.5121
   14MOL0     C 1726   5.234   2.181   1.245  0.5874  0.6457  0.1133
   14MOL0     C 1727   5.149   2.054   1.232 -0.3254 -0.4963 -0.7555
   14MOL0     C 1728   5.049   2.077   1.121  0.4617 -0.0402 -0.2343
   14MOL0     C 1729   4.946   1.954   1.131 -0.2917 -0.7290  0.9125
   14MOL0     C 1730   4.830   1.960   1.029 -0.1512  0.0875 -0.4110
   14MOL0     C 1731   4.726   1.855   1.070 -0.1055 -0.3406  0.1274
   14MOL0     C 1732   4.613   1.860   0.967 -0.2744  0.3944 -0.8509
   14MOL0     N 1733   4.511   1.763   1.016 -0.2985 -0.1257  0.1890
   14MOL0     C 1734   4.426   1.789   1.118 -0.1022  0.4237 -0.0474
   14MOL0     C 1735   4.324   1.697   1.104 -0.5057 -0.6879  0.3723
   14MOL0     C 1736   4.202   1.728   1.187 -1.1002 -0.2947 -0.0921
   14MOL0     C 1737   4.080   1.692   1.113  0.2410 -0.8585  1.5006
   14MOL0     C 1738   3.956   1.735   1.193  0.2668 -0.6130  0.4368
   14MOL0     C 1739   3.824   1.704   1.121  0.4753 -0.1989  0.0708
   14MOL0     O 1740   3.727   1.765   1.210 -0.0401  0.9716  0.1746
   14MOL0     C 1741   3.598   1.725   1.200  0.4713 -0.5118  0.1364
   14MOL0     C 1742   3.506   1.733   1.309 -0.3895 -0.9107 -0.1227
   14MOL0     C 1743   3.369   1.708   1.296  0.1777 -0.0510 -0.1068
   14MOL0     C 1744   3.316   1.677   1.173  0.9088 -0.5654 -0.2940
   14MOL0     C 1745   3.175   1.646   1.155 -0.1108 -0.6610 -0.2796
   14MOL0     O 1746   3.145   1.585   1.042 -0.1737  0.1397  0.0455
   14MOL0     C 1747   3.013   1.552   1.024  0.4446 -0.4373 -0.7753
   14MOL0     C 1748   2.927   1.650   0.990  0.0233  1.0346  0.2966
   14MOL0     C 1749   2.789   1.631   0.969 -0.1682 -0.5964  0.0723
   14MOL0     C 1750   2.738   1.506   1.003 -0.3005 -0.9002  0.0018
   14MOL0     O 1751   2.602   1.488   0.982 -0.2096 -0.1096  0.0802
   14MOL0     C 1752   2.538   1.465   1.103 -0.4288 -0.1051  0.0765
   14MOL0     C 1753   2.402   1.410   1.069 -0.5522  0.5327 -0.3890
   14MOL0     C 1754   2.335   1.355   1.190  0.6221 -0.5737 -0.2988
   14MOL0     C 1755   2.200   1.294   1.149  0.3316  0.2676 -0.6203
   14MOL0     C 1756   2.115   1.250   1.260  0.1100 -0.0524 -0.5420
   14MOL0     C 1757   2.177   1.129   1.341 -0.1135  0.4673 -0.2838
   14MOL0     C 1758   2.065   1.087   1.442 -0.4483  0.3975  0.2545
   14MOL0     C 1759   2.135   1.005   1.552 -0.3013  0.1441 -0.3384
   14MOL0    Cl 1760   2.205   1.117   1.664 -0.1503  0.0947 -0.6491
   14MOL0     C 1761   2.825   1.404   1.043 -0.6425 -0.0158  0.2324
   14MOL0     C 1762   2.961   1.426   1.047 -0.7299 -0.0623  0.3308
   14MOL0     O 1763   3.094   1.682   1.239 -0.2723  0.0979 -0.1002
   14MOL0     C 1764   3.405   1.677   1.059 -1.1447  0.2045 -0.3767
   14MOL0     C 1765   3.546   1.704   1.076 -0.3617  0.2445 -0.4084
   14MOL0     N 1766   4.349   1.633   0.990 -0.1274 -0.5188 -0.5121
   14MOL0     N 1767   4.458   1.663   0.941 -0.5658  0.6802  0.0849
   14MOL0     C 1768   5.567   2.163   1.525  0.5764  0.1784  0.7954
   14MOL0     C 1769   5.703   2.169   1.564 -0.6289 -0.0236  0.1947
   14MOL0     C 1770   6.140   2.243   1.678  0.5527  0.0617  0.8716
   14MOL0     C 1771   6.187   2.370   1.651  0.1403  0.2582 -0.1158
   14MOL0     C 1772   6.314   2.412   1.670  0.4743 -0.1297  0.4295
   14MOL0     C 1773   6.411   2.325   1.722  0.2625  0.1458 -1.0374
   14MOL0     O 1774   6.536   2.367   1.757 -0.8608 -0.6107 -0.0360
   14MOL0     C 1775   6.576   2.501   1.758 -0.5176 -0.6896  0.7276
   14MOL0     C 1776   6.556   2.571   1.895  0.0268  1.0981 -1.1545
   14MOL0     C 1777   6.657   2.692   1.909 -0.0838  0.3998 -0.7300
   14MOL0     C 1778   6.601   2.830   1.871  0.4483 -0.2801 -0.2743
   14MOL0     C 1779   6.718   2.926   1.855 -0.0826 -0.1368  1.0111
   14MOL0     C 1780   6.808   3.001   1.841  0.3213 -0.5786  0.2618
   14MOL0     C 1781   6.374   2.192   1.744  0.0692 -0.4774  0.5381
   14MOL0     C 1782   6.238   2.155   1.735 -0.2351 -0.4589  0.7892
   14MOL0     H 1783   5.781   2.493   1.485  0.0203 -0.6931 -1.0296
   14MOL0     H 1784   5.563   2.490   1.404 -0.2489 -0.0212  0.7333
   14MOL0     H 1785   5.263   2.136   1.452 -1.1104  1.0273 -0.8788
   14MOL0     H 1786   5.410   2.096   1.348  0.9306  0.9950 -0.5534
   14MOL0     H 1787   5.293   2.209   1.158  1.6214 -1.4373  0.0815
   14MOL0     H 1788   5.161   2.262   1.258  0.5333  0.9849 -1.9818
   14MOL0     H 1789   5.108   2.038   1.332  2.7916  3.0556  1.3716
   14MOL0     H 1790   5.217   1.972   1.208 -0.0202 -0.0410 -1.4706
   14MOL0     H 1791   4.998   2.174   1.122 -1.3509 -0.9439 -0.5462
   14MOL0     H 1792   5.098   2.070   1.023 -3.3434  0.5710 -2.3938
   14MOL0     H 1793   4.906   1.958   1.233  0.0939  1.4031  1.0311
   14MOL0     H 1794   4.998   1.859   1.118  1.7840  0.2670  1.5641
   14MOL0     H 1795   4.862   1.949   0.925 -1.1902  1.3682 -0.9057
   14MOL0     H 1796   4.767   2.049   1.042  0.1456 -0.1110  3.8161
   14MOL0     H 1797   4.776   1.760   1.050 -1.8888 -1.1717 -0.5625
   14MOL0     H 1798   4.691   1.865   1.173 -0.7625  3.9270 -0.3195
   14MOL0     H 1799   4.657   1.809   0.881  1.5528  0.4006  0.0352
   14MOL0     H 1800   4.573   1.961   0.956  2.0931  1.6514  1.2086
   14MOL0     H 1801   4.434   1.873   1.186  2.7142 -1.6075  2.3847
   14MOL0     H 1802   4.191   1.833   1.217 -1.6627 -1.2378  3.4265
   14MOL0     H 1803   4.224   1.679   1.282 -0.9705  2.0980  1.1956
   14MOL0     H 1804   4.068   1.584   1.105  0.1621 -0.8226  1.1144
   14MOL0     H 1805   4.074   1.738   1.014  0.0758 -5.1166 -0.6669
   14MOL0     H 1806   3.960   1.682   1.288  2.0039  0.7795  1.2007
   14MOL0     H 1807   3.961   1.842   1.218  0.0730 -0.4126 -0.3178
   14MOL0     H 1808   3.811   1.597   1.105 -2.0785  0.0834 -0.0326
   14MOL0     H 1809   3.826   1.755   1.024  0.3021 -0.0055  0.1690
   14MOL0     H 1810   3.543   1.765   1.405 -0.1102 -2.3832  0.2750
   14MOL0     H 1811   3.303   1.709   1.382 -0.9493  0.9508 -0.9595
   14MOL0     H 1812   2.972   1.747   0.971  1.9483  0.3635  1.1865
   14MOL0     H 1813   2.717   1.708   0.942  0.2634 -0.3783 -0.4788
   14MOL0     H 1814   2.534   1.556   1.164 -0.1773 -0.0578  0.0235
   14MOL0     H 1815   2.589   1.383   1.155 -0.6241 -0.8596 -0.9040
   14MOL0     H 1816   2.416   1.335   0.991  0.7346  0.6997 -0.3383
   14MOL0     H 1817   2.339   1.495   1.040  0.1410  1.6645  1.2709
   14MOL0     H 1818   2.329   1.428   1.272 -2.6243 -3.6791  2.5687
   14MOL0     H 1819   2.396   1.271   1.221 -0.5500 -1.6152 -0.7148
   14MOL0     H 1820   2.141   1.366   1.092 -0.5554  0.9542  1.0966
   14MOL0     H 1821   2.216   1.200   1.095  0.8165 -0.1704  0.2678
   14MOL0     H 1822   2.018   1.218   1.222  0.8853 -2.5056 -0.6569
   14MOL0     H 1823   2.107   1.335   1.329 -1.5797  0.4423 -1.3093
   14MOL0     H 1824   2.272   1.140   1.393 -0.9076  0.3189  1.2628
   14MOL0     H 1825   2.201   1.059   1.261 -2.2345  0.2972 -0.8452
   14MOL0     H 1826   2.018   1.176   1.487  0.1163  0.8645 -0.0751
   14MOL0     H 1827   1.998   1.018   1.391  0.3593 -0.4402  0.3133
   14MOL0     H 1828   2.225   0.964   1.506 -1.1503  1.3545 -3.3041
   14MOL0     H 1829   2.072   0.931   1.601  1.0705 -0.1476  1.0999
   14MOL0     H 1830   2.785   1.305   1.062 -0.1838 -0.0087  1.2676
   14MOL0     H 1831   3.037   1.352   1.067 -0.4237 -0.3083 -1.6292
   14MOL0     H 1832   3.363   1.663   0.960 -0.2166 -0.5521 -0.6757
   14MOL0     H 1833   3.597   1.709   0.980 -0.5212 -0.2402 -0.5185
   14MOL0     H 1834   5.505   2.074   1.538 -2.3002  2.0627  0.9716
   14MOL0     H 1835   5.743   2.073   1.594  2.1231  1.1836  0.7016
   14MOL0     H 1836   6.119   2.435   1.596  0.3688 -0.9799 -1.9429
   14MOL0     H 1837   6.328   2.517   1.646 -3.7549  0.1104 -1.9290
   14MOL0     H 1838   6.523   2.560   1.682  0.6798 -2.7775 -1.8691
   14MOL0     H 1839   6.682   2.498   1.732 -1.5354 -1.4622 -4.3365
   14MOL0     H 1840   6.450   2.598   1.898  0.1481  1.5716 -1.1010
   14MOL0     H 1841   6.575   2.497   1.973  0.9827  2.6067  0.0817
   14MOL0     H 1842   6.736   2.661   1.840 -0.2509 -3.5831  0.5741
   14MOL0     H 1843   6.682   2.688   2.015 -0.7974 -3.8390 -0.5167
   14MOL0     H 1844   6.557   2.820   1.771  1.2626 -1.0720 -0.5654
   14MOL0     H 1845   6.531   2.871   1.944 -0.5083  1.7843 -2.2488
   14MOL0     H 1846   6.891   3.064   1.818 -1.0073  0.1081 -3.3786
   14MOL0     H 1847   6.446   2.116   1.774  0.9795 -0.2152 -0.9258
   14MOL0     H 1848   6.218   2.051   1.755  0.4869 -0.5400  1.0980
   15MOL0     O 1849  11.124   7.912   3.420 -0.2697  0.2655 -0.3538
   15MOL0     C 1850  11.053   8.002   3.473  0.3975 -0.1415  0.3803
   15MOL0     O 1851  10.914   8.003   3.458 -0.2933 -0.1695  0.2287
   15MOL0     C 1852  10.856   7.910   3.370 -0.3279 -0.5413  0.5763
   15MOL0     C 1853  10.909   7.865   3.244  0.3056 -0.5248 -0.1133
   15MOL0     C 1854  10.859   7.772   3.156 -0.0598  0.2419 -0.1488
   15MOL0     C 1855  10.731   7.721   3.177 -0.9242 -0.3595  1.2854
   15MOL0     O 1856  10.682   7.640   3.076  0.4195  0.1232 -0.3320
   15MOL0     C 1857  10.578   7.550   3.127 -0.3227  0.0980  0.4971
   15MOL0     C 1858  10.533   7.460   3.015 -0.8335 -0.7396 -0.5383
   15MOL0     C 1859  10.473   7.528   2.902  0.1647  0.0495  0.1324
   15MOL0     C 1860  10.342   7.601   2.931 -0.1695  1.3140  0.2000
   15MOL0     C 1861  10.284   7.678   2.817 -0.2947 -0.2420  0.5705
   15MOL0     C 1862  10.149   7.737   2.868 -0.4251 -0.4601  0.1023
   15MOL0     C 1863  10.076   7.789   2.740  0.8020 -0.0037  0.0986
   15MOL0     C 1864   9.938   7.835   2.782 -0.1500  0.1746  0.7799
   15MOL0     N 1865   9.857   7.856   2.665  0.1592  0.5083  0.2054
   15MOL0     C 1866   9.730   7.809   2.657 -0.3766  0.4851  0.1604
   15MOL0     C 1867   9.699   7.813   2.524 -0.7553 -0.3072 -0.5935
   15MOL0     C 1868   9.580   7.769   2.456  0.0490  0.6757 -0.3682
   15MOL0     C 1869   9.598   7.609   2.440 -0.2276 -0.0750  0.1299
   15MOL0     C 1870   9.508   7.560   2.323  0.4382  0.0276 -0.6636
   15MOL0     C 1871   9.365   7.538   2.358 -0.0240  0.5458  0.0675
   15MOL0     O 1872   9.315   7.673   2.378  0.6049  0.1748 -0.2084
   15MOL0     C 1873   9.191   7.694   2.426  0.0197  0.4106 -0.1495
   15MOL0     C 1874   9.155   7.828   2.435 -0.1118  0.3707  0.1258
   15MOL0     C 1875   9.033   7.864   2.499 -0.5263  0.6140  0.6388
   15MOL0     C 1876   8.953   7.759   2.543  0.3072 -0.1727 -0.5550
   15MOL0     C 1877   8.838   7.797   2.624 -0.1042  0.0375 -0.0937
   15MOL0     O 1878   8.766   7.903   2.574  0.0745 -0.2006  0.0888
   15MOL0     C 1879   8.661   7.955   2.639  0.0439  0.3417 -0.2756
   15MOL0     C 1880   8.656   7.999   2.772  0.2585 -1.5297 -0.5004
   15MOL0     C 1881   8.532   8.025   2.834  0.1438 -0.3513 -0.4226
   15MOL0     C 1882   8.415   8.019   2.761  0.1054  0.0272  0.3303
   15MOL0     O 1883   8.292   8.023   2.822 -0.6705  0.4334  0.2118
   15MOL0     C 1884   8.291   8.131   2.915  0.6162 -0.1062 -0.1163
   15MOL0     C 1885   8.136   8.153   2.942 -0.1691  0.0746 -0.4112
   15MOL0     C 1886   8.037   8.031   2.931 -0.0041  0.0162  0.0348
   15MOL0     C 1887   8.068   7.919   3.030  0.4099  0.5644 -0.0187
   15MOL0     C 1888   7.987   7.792   2.997 -0.0274  0.2569 -0.0898
   15MOL0     C 1889   7.832   7.807   2.990 -0.9040  0.2934  0.2493
   15MOL0     C 1890   7.771   7.847   3.126 -0.5372 -0.2011  0.3501
   15MOL0     C 1891   7.623   7.876   3.108  0.2863 -0.5712 -0.0814
   15MOL0    Cl 1892   7.528   7.913   3.255  0.3079  0.1055 -0.4470
   15MOL0     C 1893   8.416   7.977   2.632  0.9330  1.0680 -0.2664
   15MOL0     C 1894   8.539   7.956   2.565 -0.4990  0.0851 -0.4209
   15MOL0     O 1895   8.818   7.725   2.726 -0.3943 -0.0974 -0.2396
   15MOL0     C 1896   8.975   7.623   2.520 -0.5684 -0.2646 -0.6793
   15MOL0     C 1897   9.101   7.595   2.461  0.2417  0.8122 -0.1108
   15MOL0     N 1898   9.813   7.859   2.457  0.8511 -0.6528 -0.3807
   15MOL0     N 1899   9.896   7.898   2.546  0.5228  0.5034  0.8004
   15MOL0     C 1900  10.672   7.758   3.300 -0.1355  0.0540 -0.1643
   15MOL0     C 1901  10.732   7.847   3.395 -0.0456  0.6159  0.4873
   15MOL0     C 1902  11.112   8.102   3.559 -0.8440 -0.0996  0.0366
   15MOL0     C 1903  11.025   8.188   3.631 -0.0100 -0.6374 -0.7724
   15MOL0     C 1904  11.086   8.279   3.720  0.6766 -0.1168  0.1433
   15MOL0     C 1905  11.218   8.294   3.730 -0.2730  0.6398 -0.1048
   15MOL0     O 1906  11.255   8.396   3.812  0.8778  0.1461  0.9578
   15MOL0     C 1907  11.391   8.437   3.821  0.1606 -0.0354 -0.2341
   15MOL0     C 1908  11.405   8.584   3.872 -0.7186 -0.0496 -0.2261
   15MOL0     C 1909  11.355   8.599   4.022 -0.2988 -0.6839  0.5879
   15MOL0     C 1910  11.460   8.540   4.125 -0.8088  0.0260 -0.0511
   15MOL0     C 1911  11.572   8.630   4.157 -0.0887  0.1759  0.6838
   15MOL0     C 1912  11.668   8.688   4.207  0.6824 -0.5031 -0.6334
   15MOL0     C 1913  11.305   8.211   3.657  0.1861  0.6455  0.3476
   15MOL0     C 1914  11.253   8.117   3.575  1.0672 -1.0256  1.0392
   15MOL0     H 1915  10.988   7.923   3.197 -0.9760  1.5743  0.1856
   15MOL0     H 1916  10.909   7.740   3.065  0.4088  0.2534  0.1013
   15MOL0     H 1917  10.489   7.600   3.164 -1.3446 -1.9171  0.8870
   15MOL0     H 1918  10.612   7.501   3.219 -0.9813 -1.9398 -0.2920
   15MOL0     H 1919  10.448   7.399   3.048 -0.4963 -1.6616 -1.3039
   15MOL0     H 1920  10.617   7.396   2.986 -1.1493 -1.8770  0.9542
   15MOL0     H 1921  10.462   7.449   2.828 -0.2813  0.4227 -0.2044
   15MOL0     H 1922  10.548   7.600   2.868 -2.6542  3.0764 -0.2504
   15MOL0     H 1923  10.263   7.530   2.958  1.0800 -0.0145  0.4908
   15MOL0     H 1924  10.354   7.666   3.018 -1.6150  0.6219  0.9514
   15MOL0     H 1925  10.263   7.614   2.731  0.2159 -0.1055  0.3405
   15MOL0     H 1926  10.348   7.760   2.783  0.1240 -1.6389 -2.3154
   15MOL0     H 1927  10.163   7.820   2.937  0.2572 -1.2498  0.9338
   15MOL0     H 1928  10.091   7.662   2.922 -1.4804 -0.5977 -1.1528
   15MOL0     H 1929  10.136   7.865   2.689  0.3085  0.8310  0.7459
   15MOL0     H 1930  10.057   7.703   2.674 -2.2900  1.2158 -0.7525
   15MOL0     H 1931   9.939   7.925   2.843 -0.3969  1.0923 -0.5182
   15MOL0     H 1932   9.899   7.757   2.847  0.7084 -1.1524 -0.2317
   15MOL0     H 1933   9.662   7.775   2.734 -0.9227  0.0724 -0.4888
   15MOL0     H 1934   9.567   7.824   2.363 -1.5046  2.2283  0.6952
   15MOL0     H 1935   9.497   7.794   2.523  0.6400 -1.8321  1.4591
   15MOL0     H 1936   9.563   7.560   2.532  0.0142  0.8936  0.7469
   15MOL0     H 1937   9.705   7.596   2.424 -0.0856  2.7886 -2.2479
   15MOL0     H 1938   9.528   7.618   2.232  2.5900 -0.6179 -0.6500
   15MOL0     H 1939   9.552   7.467   2.286  0.3665 -1.3754  2.4641
   15MOL0     H 1940   9.345   7.472   2.443 -0.1280  0.0637 -0.3271
   15MOL0     H 1941   9.315   7.495   2.271 -3.5436  3.2246  0.5496
   15MOL0     H 1942   9.219   7.904   2.392 -1.9867  1.5912 -0.6400
   15MOL0     H 1943   9.019   7.971   2.512  1.6562  1.0955 -0.4130
   15MOL0     H 1944   8.755   8.006   2.815  1.7096  1.5456 -3.7930
   15MOL0     H 1945   8.535   8.050   2.939 -1.5388 -1.7596  0.0033
   15MOL0     H 1946   8.317   8.224   2.863 -2.8764  0.1500 -1.7229
   15MOL0     H 1947   8.337   8.116   3.013 -2.2116 -5.0431  0.8058
   15MOL0     H 1948   8.105   8.229   2.869  2.4230  0.4643 -1.2014
   15MOL0     H 1949   8.139   8.197   3.042  4.6898  1.3171 -0.8309
   15MOL0     H 1950   8.043   7.984   2.833 -2.5358 -1.1995  0.3789
   15MOL0     H 1951   7.935   8.069   2.944  0.3077  1.5999 -1.5738
   15MOL0     H 1952   8.171   7.885   3.042  0.6832  2.0046  2.4720
   15MOL0     H 1953   8.022   7.946   3.126 -3.9715 -2.0515 -1.0610
   15MOL0     H 1954   8.009   7.713   3.069  0.2769  0.7074  0.3158
   15MOL0     H 1955   8.021   7.750   2.901 -0.1645  1.4076 -0.6616
   15MOL0     H 1956   7.783   7.716   2.957 -0.2472  0.5229 -1.4424
   15MOL0     H 1957   7.810   7.882   2.913 -0.5275  1.8930  1.6271
   15MOL0     H 1958   7.773   7.759   3.191 -0.5455 -1.5054 -1.3406
   15MOL0     H 1959   7.815   7.934   3.176 -1.6107 -0.0745  1.1107
   15MOL0     H 1960   7.572   7.794   3.056 -1.4746 -1.4942  2.8255
   15MOL0     H 1961   7.606   7.964   3.046  1.2938 -0.0487  0.3623
   15MOL0     H 1962   8.316   7.962   2.594  0.1931 -2.1328  2.4265
   15MOL0     H 1963   8.531   7.913   2.466 -2.9109  2.1809 -1.2467
   15MOL0     H 1964   8.900   7.552   2.554 -3.5231  3.2065  0.7386
   15MOL0     H 1965   9.130   7.491   2.447  3.3027  1.7395 -1.6580
   15MOL0     H 1966  10.585   7.701   3.330  0.3127 -2.0686 -2.5042
   15MOL0     H 1967  10.671   7.856   3.484 -1.0870 -1.7484  0.0804
   15MOL0     H 1968  10.918   8.175   3.644 -0.1270  1.3549  0.8364
   15MOL0     H 1969  11.014   8.331   3.783  0.3754 -0.0015 -0.2989
   15MOL0     H 1970  11.437   8.444   3.723 -3.3436 -1.0558 -2.1287
   15MOL0     H 1971  11.445   8.372   3.891 -0.1129  0.5311  0.5229
   15MOL0     H 1972  11.508   8.621   3.861 -0.4093  0.2250  2.7371
   15MOL0     H 1973  11.351   8.658   3.812  0.5558  0.6144 -0.5988
   15MOL0     H 1974  11.263   8.543   4.038 -0.2093 -1.6518 -1.8510
   15MOL0     H 1975  11.340   8.706   4.035 -1.3034 -0.2059 -3.2361
   15MOL0     H 1976  11.421   8.502   4.220  4.0216 -1.0569  1.8486
   15MOL0     H 1977  11.510   8.450   4.087  0.8602  0.7509  0.3044
   15MOL0     H 1978  11.752   8.745   4.241 -0.9257  1.7714 -0.2258
   15MOL0     H 1979  11.413   8.225   3.666  0.2926 -1.1612  2.9131
   15MOL0     H 1980  11.317   8.054   3.514 -0.1634 -1.2699 -0.0445
   16MOL0     O 1981  11.081  10.775  10.826  0.2929  0.0268 -0.7421
   16MOL0     C 1982  11.060  10.661  10.845  0.4240 -0.2130 -0.3907
   16MOL0     O 1983  11.154  10.560  10.831  0.5821  0.4973 -0.3760
   16MOL0     C 1984  11.275  10.588  10.782 -1.0146  0.6172  0.4298
   16MOL0     C 1985  11.385  10.554  10.857  0.0558 -0.5683  0.1986
   16MOL0     C 1986  11.511  10.562  10.804 -0.1029  0.0179  0.1405
   16MOL0     C 1987  11.528  10.595  10.668  0.8607  0.6400  0.2038
   16MOL0     O 1988  11.646  10.548  10.609  0.7179 -0.5001  0.1092
   16MOL0     C 1989  11.711  10.624  10.499  0.0425  0.2663 -0.1926
   16MOL0     C 1990  11.812  10.729  10.544  0.9426 -0.6161  0.3405
   16MOL0     C 1991  11.746  10.854  10.607 -0.3645 -1.2128  0.0673
   16MOL0     C 1992  11.651  10.930  10.512 -0.1628  0.4616  0.1325
   16MOL0     C 1993  11.572  11.042  10.585  0.0157  0.2395  0.6438
   16MOL0     C 1994  11.479  11.012  10.706  0.3334  0.7261 -0.4155
   16MOL0     C 1995  11.368  11.104  10.719  0.1478 -0.2838 -0.2780
   16MOL0     C 1996  11.278  11.065  10.843 -0.3062 -0.6777 -0.2106
   16MOL0     N 1997  11.153  11.150  10.852 -0.8891  0.8920  0.1848
   16MOL0     C 1998  11.037  11.101  10.909  0.4934 -0.6009 -0.1038
   16MOL0     C 1999  10.955  11.209  10.904  0.3076 -0.5440  0.5496
   16MOL0     C 2000  10.808  11.202  10.954 -0.7740 -0.0928 -0.5665
   16MOL0     C 2001  10.707  11.258  10.846  0.7972  0.4071 -0.2868
   16MOL0     C 2002  10.731  11.196  10.700  0.4342 -0.7914  0.8231
   16MOL0     C 2003  10.621  11.262  10.612  0.6942 -0.1932 -0.5064
   16MOL0     O 2004  10.492  11.216  10.664  0.2487 -0.8648 -0.1186
   16MOL0     C 2005  10.380  11.218  10.592 -0.1810 -0.4562 -0.3538
   16MOL0     C 2006  10.365  11.246  10.455 -0.2215 -0.0093  0.9701
   16MOL0     C 2007  10.238  11.246  10.394  0.1957  0.1244 -0.1292
   16MOL0     C 2008  10.120  11.208  10.465 -0.0238  0.3021  0.6880
   16MOL0     C 2009   9.988  11.214  10.393  0.0549 -0.3072  0.0362
   16MOL0     O 2010   9.879  11.152  10.444 -0.6790 -0.5146 -0.0582
   16MOL0     C 2011   9.769  11.130  10.365  0.4302 -0.2993 -0.1842
   16MOL0     C 2012   9.763  11.026  10.268 -0.2477 -0.4980 -0.7190
   16MOL0     C 2013   9.648  11.004  10.192 -0.1882 -0.0504 -0.0058
   16MOL0     C 2014   9.539  11.089  10.202  0.1323  0.3559  0.2026
   16MOL0     O 2015   9.434  11.079  10.115 -0.3913  0.0616 -0.2710
   16MOL0     C 2016   9.383  10.947  10.091  0.1999  0.5799  0.3377
   16MOL0     C 2017   9.286  10.954   9.970 -0.3747 -1.1290 -0.3714
   16MOL0     C 2018   9.168  11.050  10.002  0.2973 -0.1201 -0.2574
   16MOL0     C 2019   9.085  11.092   9.884  0.2280  0.5479 -0.2340
   16MOL0     C 2020   9.000  10.977   9.821  0.4006  0.6364 -0.3025
   16MOL0     C 2021   8.857  11.016   9.843 -0.6849  0.4047 -0.4252
   16MOL0     C 2022   8.757  10.909   9.792  0.6701  0.0131  0.5975
   16MOL0     C 2023   8.631  10.987   9.748  0.2280 -0.8820  0.8439
   16MOL0    Cl 2024   8.485  10.878   9.759  0.4560  0.4290 -0.0831
   16MOL0     C 2025   9.537  11.189  10.296 -0.8272  0.1386 -0.4158
   16MOL0     C 2026   9.649  11.209  10.379 -0.1731  0.0203 -0.1693
   16MOL0     O 2027   9.991  11.268  10.282 -0.7130 -0.3827  0.4113
   16MOL0     C 2028  10.141  11.159  10.597  0.3936  0.0770  0.1785
   16MOL0     C 2029  10.262  11.177  10.657 -0.4119 -0.4543  0.3579
   16MOL0     N 2030  11.027  11.320  10.866  1.0736  0.4014  0.7533
   16MOL0     N 2031  11.149  11.281  10.840 -0.0916  0.6275  0.5081
   16MOL0     C 2032  11.414  10.630  10.588 -0.8789 -0.2012 -0.8563
   16MOL0     C 2033  11.287  10.624  10.650  0.7060  0.8296  0.5721
   16MOL0     C 2034  10.923  10.634  10.882  0.3394  0.7393  0.5896
   16MOL0     C 2035  10.882  10.508  10.926  0.3920 -0.2983 -0.5879
   16MOL0     C 2036  10.758  10.492  10.989  0.1831 -0.1000  0.0793
   16MOL0     C 2037  10.668  10.601  10.992 -0.4099  0.0604  0.2647
   16MOL0     O 2038  10.541  10.602  11.044  0.0380 -0.6107  0.1011
   16MOL0     C 2039  10.488  10.481  11.095  0.3257 -0.0576 -1.0241
   16MOL0     C 2040  10.364  10.517  11.186 -0.1574 -0.8895 -0.2628
   16MOL0     C 2041  10.242  10.556  11.087  0.3587 -0.5747 -0.4860
   16MOL0     C 2042  10.115  10.580  11.172  0.9082 -0.1417 -0.1877
   16MOL0     C 2043  10.111  10.717  11.228  0.0349  0.7298 -0.2902
   16MOL0     C 2044  10.101  10.833  11.261  0.2208 -0.9330 -0.4222
   16MOL0     C 2045  10.703  10.721  10.924  0.3276  0.3694  0.2567
   16MOL0     C 2046  10.831  10.732  10.881 -0.5629 -0.9298  0.3638
   16MOL0     H 2047  11.369  10.539  10.964  1.3896  2.2774  0.9023
   16MOL0     H 2048  11.592  10.532  10.870  0.5817 -1.7181 -1.3977
   16MOL0     H 2049  11.643  10.661  10.422 -0.4907  1.8417  0.9813
   16MOL0     H 2050  11.773  10.543  10.460 -0.6065 -0.7250  0.7558
   16MOL0     H 2051  11.888  10.761  10.472  0.9693  1.3453  1.1705
   16MOL0     H 2052  11.869  10.678  10.621  2.4671 -4.1373 -2.8112
   16MOL0     H 2053  11.825  10.920  10.642 -0.1708 -0.1886 -2.1293
   16MOL0     H 2054  11.687  10.814  10.690  0.6084 -1.3518  0.7003
   16MOL0     H 2055  11.714  10.976  10.435 -0.8097 -1.5504 -1.7144
   16MOL0     H 2056  11.583  10.861  10.461  0.3406 -2.0088  2.5243
   16MOL0     H 2057  11.514  11.090  10.506  1.2657  1.0364  0.1574
   16MOL0     H 2058  11.645  11.120  10.612  1.3118 -0.6552 -0.1355
   16MOL0     H 2059  11.541  11.013  10.796 -0.1334 -0.0396 -0.0791
   16MOL0     H 2060  11.448  10.908  10.691 -0.8688  1.1417 -0.8782
   16MOL0     H 2061  11.412  11.203  10.735 -2.2496  0.8934 -0.5389
   16MOL0     H 2062  11.306  11.097  10.629  1.3811 -0.1257 -1.1658
   16MOL0     H 2063  11.330  11.071  10.939  1.9972  3.7193 -1.4728
   16MOL0     H 2064  11.241  10.966  10.816  2.4390 -1.2557 -2.3475
   16MOL0     H 2065  10.998  11.002  10.930  1.5611 -1.1994 -0.8225
   16MOL0     H 2066  10.800  11.250  11.052  0.0420 -0.4638 -0.3038
   16MOL0     H 2067  10.775  11.101  10.981  1.1533 -0.6752 -0.2297
   16MOL0     H 2068  10.704  11.367  10.838  0.1611  0.5711  1.5813
   16MOL0     H 2069  10.604  11.241  10.877  1.2130 -0.7958  0.4966
   16MOL0     H 2070  10.828  11.226  10.661 -1.0628  1.9118 -1.2647
   16MOL0     H 2071  10.720  11.090  10.724  1.2106 -1.1986 -0.5613
   16MOL0     H 2072  10.627  11.223  10.510 -1.5175  2.1141 -1.6269
   16MOL0     H 2073  10.628  11.369  10.595 -0.5885 -0.0300 -0.1710
   16MOL0     H 2074  10.441  11.293  10.394 -2.2576  0.3458 -1.4861
   16MOL0     H 2075  10.235  11.286  10.294  2.3330  1.4907  0.2924
   16MOL0     H 2076   9.854  10.969  10.251 -0.1735 -0.5055 -0.3180
   16MOL0     H 2077   9.644  10.918  10.127 -2.9910 -0.7203  0.9220
   16MOL0     H 2078   9.326  10.903  10.173  0.5848  0.0763  0.3419
   16MOL0     H 2079   9.459  10.875  10.062  1.4360  1.6669  0.8067
   16MOL0     H 2080   9.258  10.855   9.934 -0.3905 -0.2112 -3.1144
   16MOL0     H 2081   9.338  10.996   9.883 -2.6909 -0.7777 -1.6836
   16MOL0     H 2082   9.205  11.143  10.045  0.7608 -1.2133  1.8521
   16MOL0     H 2083   9.113  11.006  10.086  1.5932  0.4148  0.9069
   16MOL0     H 2084   9.023  11.175   9.918 -0.8723 -0.6283  0.7735
   16MOL0     H 2085   9.147  11.130   9.802  3.1390 -1.8357  0.6482
   16MOL0     H 2086   9.025  10.878   9.862  1.0113 -0.1740 -2.4783
   16MOL0     H 2087   9.028  10.975   9.715 -0.1919  1.9113 -0.5032
   16MOL0     H 2088   8.837  11.117   9.807 -0.8219  0.9795  1.1608
   16MOL0     H 2089   8.847  11.014   9.952  3.8211 -1.3813  0.1762
   16MOL0     H 2090   8.781  10.865   9.695 -0.6563  0.4425  0.0628
   16MOL0     H 2091   8.724  10.843   9.873  0.3077  0.8006  1.0992
   16MOL0     H 2092   8.635  11.025   9.646  0.0072 -0.8476  0.8487
   16MOL0     H 2093   8.611  11.073   9.813 -1.0039  1.2898 -2.1936
   16MOL0     H 2094   9.448  11.250  10.299 -0.8737  0.0444  0.9802
   16MOL0     H 2095   9.647  11.287  10.454  0.6563  1.5809 -1.6982
   16MOL0     H 2096  10.071  11.107  10.661  0.1590  0.4705  0.2463
   16MOL0     H 2097  10.267  11.136  10.758 -0.7341 -1.1479  0.0968
   16MOL0     H 2098  11.435  10.647  10.483 -0.1074 -0.1953 -0.7088
   16MOL0     H 2099  11.197  10.635  10.590  1.4685  1.3756 -0.4972
   16MOL0     H 2100  10.957  10.430  10.926 -0.0894 -0.7637 -0.7143
   16MOL0     H 2101  10.736  10.394  11.031  2.4228 -0.3784  0.7369
   16MOL0     H 2102  10.565  10.432  11.155  0.3105  1.3605  0.1880
   16MOL0     H 2103  10.455  10.418  11.011  1.6774 -1.4662 -0.5395
   16MOL0     H 2104  10.336  10.431  11.248  0.6467 -0.3143  0.9413
   16MOL0     H 2105  10.386  10.603  11.249 -0.6227 -0.4820 -0.6546
   16MOL0     H 2106  10.236  10.466  11.025  0.0798 -2.0119  1.5231
   16MOL0     H 2107  10.264  10.647  11.031 -0.9473 -0.4741 -0.8555
   16MOL0     H 2108  10.027  10.566  11.107 -0.5931 -1.5406  2.0282
   16MOL0     H 2109  10.113  10.503  11.249  1.1755 -0.1877 -0.2232
   16MOL0     H 2110  10.105  10.936  11.290  0.8363 -1.7466  2.8057
   16MOL0     H 2111  10.622  10.793  10.917 -1.5502 -1.7566 -0.7992
   16MOL0     H 2112  10.837  10.832  10.840  0.4957 -1.7215 -1.5865
   17MOL0     O 2113   9.239  10.112   6.902  0.3591  0.0211  0.1526
   17MOL0     C 2114   9.195  10.214   6.853 -0.1358  0.4115 -0.4641
   17MOL0     O 2115   9.065  10.223   6.821 -0.0780 -0.1542 -0.9373
   17MOL0     C 2116   8.961  10.135   6.864 -0.0775 -0.2104  0.3086
   17MOL0     C 2117   8.874  10.083   6.765 -0.1190 -0.0925  0.2157
   17MOL0     C 2118   8.774   9.996   6.811 -0.6923  0.0774  0.4882
   17MOL0     C 2119   8.751   9.975   6.946 -0.0208 -0.3465 -0.1669
   17MOL0     O 2120   8.652   9.893   6.996 -0.2206  0.8923  0.8460
   17MOL0     C 2121   8.538   9.881   6.917  0.3922 -0.0250  0.2108
   17MOL0     C 2122   8.438   9.816   6.999  0.4197  0.0176  0.5240
   17MOL0     C 2123   8.314   9.766   6.927  0.2515  0.6017  0.0350
   17MOL0     C 2124   8.214   9.697   7.019  0.1186  0.8185 -0.8758
   17MOL0     C 2125   8.167   9.801   7.123 -0.1573 -0.4760  0.7193
   17MOL0     C 2126   8.029   9.766   7.179 -0.2999  0.3181  1.0410
   17MOL0     C 2127   7.984   9.861   7.290  0.5816  0.1752 -0.3117
   17MOL0     C 2128   7.858   9.809   7.366 -0.0892 -0.1881  0.1618
   17MOL0     N 2129   7.834   9.671   7.384  0.7370  0.8938 -0.0735
   17MOL0     C 2130   7.725   9.609   7.327 -0.2562  0.4383  0.9583
   17MOL0     C 2131   7.706   9.491   7.386  0.7830  0.7549 -0.8585
   17MOL0     C 2132   7.597   9.385   7.346 -0.1474 -0.3892 -0.5894
   17MOL0     C 2133   7.465   9.405   7.428 -1.1649 -0.4102  0.7362
   17MOL0     C 2134   7.376   9.274   7.431  0.5697  0.6785 -0.0219
   17MOL0     C 2135   7.228   9.318   7.448  0.2293 -0.4765  1.2511
   17MOL0     O 2136   7.221   9.387   7.573 -0.0609 -0.3977  0.5720
   17MOL0     C 2137   7.094   9.444   7.604  0.6439 -0.0617  0.2779
   17MOL0     C 2138   7.090   9.576   7.629  0.9788 -0.6261 -0.0841
   17MOL0     C 2139   6.971   9.640   7.667 -0.5093 -0.1990 -0.4316
   17MOL0     C 2140   6.853   9.565   7.676 -0.3727 -0.5043  0.5715
   17MOL0     C 2141   6.732   9.633   7.720  0.5659  0.1016  0.4551
   17MOL0     O 2142   6.752   9.760   7.777 -0.1888 -0.4647  0.5942
   17MOL0     C 2143   6.638   9.814   7.824 -0.2280  0.3100 -1.1955
   17MOL0     C 2144   6.594   9.931   7.773  0.2539 -1.0238  0.0273
   17MOL0     C 2145   6.485  10.001   7.830 -1.1569 -0.2662  0.2140
   17MOL0     C 2146   6.417   9.942   7.934  0.7038  0.5939 -0.1062
   17MOL0     O 2147   6.317  10.015   7.993  0.5476 -0.7583  0.3706
   17MOL0     C 2148   6.209   9.945   8.058 -0.3650 -0.2774  0.1360
   17MOL0     C 2149   6.080  10.024   8.036  0.7399 -0.2469  0.1098
   17MOL0     C 2150   5.955   9.962   8.092  0.3159  0.5890 -0.3647
   17MOL0     C 2151   5.844  10.054   8.060  0.0941 -0.2034  0.1833
   17MOL0     C 2152   5.715  10.003   8.117 -0.8886  0.6189  0.3537
   17MOL0     C 2153   5.597  10.093   8.075  0.2821 -0.6871  0.3922
   17MOL0     C 2154   5.474  10.090   8.166 -0.0525  0.2249  0.1947
   17MOL0     C 2155   5.409   9.944   8.169 -0.8112 -0.5801 -0.0581
   17MOL0    Cl 2156   5.363   9.912   7.997  0.2642  0.2398 -0.5477
   17MOL0     C 2157   6.457   9.818   7.990  0.1409 -0.5357  0.1568
   17MOL0     C 2158   6.563   9.762   7.927 -0.4779  0.2535 -0.0149
   17MOL0     O 2159   6.617   9.579   7.711 -0.7641 -0.0845 -0.4108
   17MOL0     C 2160   6.857   9.427   7.655 -0.4939  0.0677  0.7261
   17MOL0     C 2161   6.979   9.364   7.614 -0.8878 -0.7361  0.4785
   17MOL0     N 2162   7.815   9.477   7.474 -0.6896  0.2739  0.7770
   17MOL0     N 2163   7.883   9.586   7.469  0.3807  0.5136  0.5204
   17MOL0     C 2164   8.843  10.024   7.042  0.6992  0.9833  0.5089
   17MOL0     C 2165   8.941  10.106   7.001 -0.2122  0.0028  0.2495
   17MOL0     C 2166   9.292  10.326   6.828  0.5165 -0.1913 -0.1013
   17MOL0     C 2167   9.429  10.322   6.883  0.3247 -0.7064  0.0990
   17MOL0     C 2168   9.517  10.430   6.850 -0.5236 -0.5625  0.1845
   17MOL0     C 2169   9.471  10.538   6.761 -0.3008 -0.5681  0.1164
   17MOL0     O 2170   9.549  10.647   6.709  0.3177  0.2064 -0.2315
   17MOL0     C 2171   9.548  10.752   6.807 -0.6714 -0.1424  0.4254
   17MOL0     C 2172   9.684  10.748   6.876 -0.1046 -0.7575 -0.3068
   17MOL0     C 2173   9.796  10.813   6.790 -0.0106  0.1856  0.4914
   17MOL0     C 2174   9.829  10.958   6.817 -0.1016  0.0651  0.5849
   17MOL0     C 2175   9.890  10.973   6.950  0.7403 -1.5542 -0.2760
   17MOL0     C 2176   9.924  10.998   7.065  0.0473 -0.2085 -0.2821
   17MOL0     C 2177   9.335  10.544   6.730 -0.2717 -0.4629  0.7704
   17MOL0     C 2178   9.250  10.437   6.757  0.2308  1.4632 -0.4617
   17MOL0     H 2179   8.896  10.097   6.659 -0.5660  4.0056  0.5085
   17MOL0     H 2180   8.711   9.943   6.740  0.9827  1.8988 -2.5909
   17MOL0     H 2181   8.558   9.817   6.830  2.6113  3.1693 -1.8449
   17MOL0     H 2182   8.496   9.974   6.879 -3.4233 -1.6608 -0.0482
   17MOL0     H 2183   8.410   9.881   7.082 -1.1025 -1.6187  1.3843
   17MOL0     H 2184   8.496   9.736   7.047  0.1028 -1.3241 -1.1978
   17MOL0     H 2185   8.362   9.706   6.848  1.6191  2.5504 -0.7082
   17MOL0     H 2186   8.255   9.844   6.879  0.1186  0.7241  0.4026
   17MOL0     H 2187   8.128   9.654   6.968  0.2529 -0.8872  0.2573
   17MOL0     H 2188   8.263   9.615   7.072 -0.8754  1.4634  1.1214
   17MOL0     H 2189   8.156   9.900   7.078 -0.3598 -0.8340 -0.0441
   17MOL0     H 2190   8.243   9.814   7.201 -0.0736 -0.9124  0.7097
   17MOL0     H 2191   8.039   9.662   7.212 -0.6586 -0.6428 -1.6249
   17MOL0     H 2192   7.952   9.767   7.102 -2.4317 -1.8462  3.0022
   17MOL0     H 2193   8.067   9.873   7.360  2.6270 -1.0620 -2.4138
   17MOL0     H 2194   7.966   9.960   7.248 -0.1746  0.5790  0.9042
   17MOL0     H 2195   7.773   9.855   7.314  1.6350 -1.0078 -3.7298
   17MOL0     H 2196   7.847   9.857   7.464 -0.5836 -1.4477  0.7361
   17MOL0     H 2197   7.671   9.655   7.245  0.2866  2.6835  1.7861
   17MOL0     H 2198   7.650   9.291   7.364  0.6106 -0.3775 -2.4830
   17MOL0     H 2199   7.572   9.401   7.241 -0.2802  2.6042 -0.2083
   17MOL0     H 2200   7.406   9.474   7.366 -3.1456 -3.0304 -0.5195
   17MOL0     H 2201   7.486   9.446   7.527 -0.0137  4.0963 -1.1293
   17MOL0     H 2202   7.384   9.220   7.337 -0.8115  2.6090 -1.3271
   17MOL0     H 2203   7.403   9.207   7.513 -0.7511 -1.1364 -1.0260
   17MOL0     H 2204   7.163   9.231   7.433  1.6585 -1.3005 -0.7262
   17MOL0     H 2205   7.203   9.386   7.366  0.9850  0.7211  1.9953
   17MOL0     H 2206   7.181   9.628   7.601  0.1057 -0.4789 -3.1059
   17MOL0     H 2207   6.971   9.747   7.686  0.9434 -0.5479  1.8711
   17MOL0     H 2208   6.646   9.987   7.695  1.5031 -1.2403  0.6858
   17MOL0     H 2209   6.460  10.103   7.801  5.5499  1.4392 -1.2552
   17MOL0     H 2210   6.230   9.926   8.164 -0.9088  1.2514  0.5489
   17MOL0     H 2211   6.197   9.847   8.011  1.5191 -1.2410  1.5275
   17MOL0     H 2212   6.063  10.029   7.928 -2.5513 -1.8140  0.4375
   17MOL0     H 2213   6.098  10.128   8.063 -2.0021  0.6626 -1.2217
   17MOL0     H 2214   5.966   9.950   8.200 -1.3120 -3.5851 -0.4780
   17MOL0     H 2215   5.947   9.857   8.063  2.2243  0.5413 -0.8358
   17MOL0     H 2216   5.878  10.152   8.092 -0.9049  0.8543 -1.7964
   17MOL0     H 2217   5.829  10.046   7.952 -0.4302 -3.2841  0.3721
   17MOL0     H 2218   5.723  10.014   8.226  1.4355  1.6369  0.1417
   17MOL0     H 2219   5.696   9.899   8.087 -0.3264  0.8125 -0.6888
   17MOL0     H 2220   5.568  10.058   7.976  1.7048 -1.1623  0.1238
   17MOL0     H 2221   5.630  10.197   8.068 -0.7145 -0.3717  0.2486
   17MOL0     H 2222   5.493  10.120   8.269  0.1498 -0.8799  0.4971
   17MOL0     H 2223   5.404  10.159   8.118  0.9691  0.6993 -0.6626
   17MOL0     H 2224   5.321   9.939   8.233 -2.3795 -1.1471 -2.1481
   17MOL0     H 2225   5.480   9.866   8.197 -1.6529 -1.1056  0.6499
   17MOL0     H 2226   6.402   9.773   8.072 -0.5976 -1.8446 -1.0140
   17MOL0     H 2227   6.599   9.674   7.979 -1.8110 -0.0553  0.4399
   17MOL0     H 2228   6.764   9.374   7.673 -0.3966 -0.2528  0.2827
   17MOL0     H 2229   6.979   9.258   7.594 -2.4614 -0.4167 -1.5530
   17MOL0     H 2230   8.833  10.002   7.148  0.2880  0.8819  0.4497
   17MOL0     H 2231   9.009  10.155   7.070 -1.0095  1.2208  0.2110
   17MOL0     H 2232   9.457  10.239   6.947 -0.0215  1.7037  3.7331
   17MOL0     H 2233   9.618  10.440   6.889 -0.7656  1.6443  0.3487
   17MOL0     H 2234   9.468  10.732   6.879 -1.7549 -2.8311 -1.3429
   17MOL0     H 2235   9.524  10.853   6.774 -1.6822 -0.0307  1.4285
   17MOL0     H 2236   9.684  10.796   6.975  0.2996  0.7163 -0.9950
   17MOL0     H 2237   9.722  10.648   6.896  0.5827 -0.4792 -0.1840
   17MOL0     H 2238   9.788  10.806   6.681  0.5821  4.1335  0.0366
   17MOL0     H 2239   9.894  10.767   6.801  0.4795  0.4658 -2.1061
   17MOL0     H 2240   9.887  10.989   6.729 -0.9178 -1.5422 -0.5849
   17MOL0     H 2241   9.736  11.015   6.809 -1.6622 -2.1829  1.4927
   17MOL0     H 2242   9.960  10.994   7.166 -0.3361 -2.3011 -0.1815
   17MOL0     H 2243   9.301  10.631   6.675 -0.0741 -1.9865 -1.9299
   17MOL0     H 2244   9.152  10.431   6.712  0.1323 -2.2509 -0.0196
   18MOL0     O 2245   6.363   0.561   0.391  0.2331 -0.1102  0.0322
   18MOL0     C 2246   6.330   0.617   0.495  0.3315  0.2355 -0.1767
   18MOL0     O 2247   6.208   0.671   0.516 -0.7547 -0.7176 -0.2035
   18MOL0     C 2248   6.122   0.664   0.407 -0.4339  0.6051  0.0784
   18MOL0     C 2249   6.091   0.779   0.332  0.1858  1.3461  0.0453
   18MOL0     C 2250   6.008   0.770   0.220  0.4534  0.6100  1.4537
   18MOL0     C 2251   5.945   0.652   0.186 -0.0713  0.1855 -0.1328
   18MOL0     O 2252   5.851   0.645   0.089  0.1160  0.0761 -0.2817
   18MOL0     C 2253   5.735   0.730   0.104 -0.9351  0.1728  0.3676
   18MOL0     C 2254   5.635   0.708  -0.006  0.3520 -1.3352 -0.6410
   18MOL0     C 2255   5.507   0.801  -0.012 -0.6096 -0.2259  0.5658
   18MOL0     C 2256   5.454   0.795  -0.152  0.0917  0.4285  0.4699
   18MOL0     C 2257   5.329   0.877  -0.171 -0.0890  0.1672  0.9214
   18MOL0     C 2258   5.291   0.868  -0.325 -0.1545 -1.2020  0.8103
   18MOL0     C 2259   5.194   0.976  -0.365 -0.1146 -0.8042  0.7286
   18MOL0     C 2260   5.167   0.967  -0.516 -0.8402  0.2835  0.2157
   18MOL0     N 2261   5.066   1.056  -0.560  0.5515  0.2100  0.1108
   18MOL0     C 2262   5.058   1.192  -0.521 -0.1610 -0.6696 -0.2635
   18MOL0     C 2263   4.976   1.254  -0.606  1.4475  0.8188 -1.0573
   18MOL0     C 2264   4.918   1.393  -0.610  0.0183 -0.5523 -0.2154
   18MOL0     C 2265   5.027   1.500  -0.649 -0.7340  0.6341 -0.6854
   18MOL0     C 2266   5.054   1.495  -0.797  0.3094  0.8927 -0.2011
   18MOL0     C 2267   5.110   1.628  -0.854  0.3223 -0.6665 -0.0976
   18MOL0     O 2268   4.999   1.719  -0.874  0.7114 -0.2862 -0.2510
   18MOL0     C 2269   4.909   1.689  -0.967  0.9779  0.3796  0.6904
   18MOL0     C 2270   4.935   1.662  -1.100 -0.8194  0.4557  0.0056
   18MOL0     C 2271   4.841   1.622  -1.185  0.1299 -0.3678  0.7207
   18MOL0     C 2272   4.703   1.632  -1.145  0.2516  0.4978  0.1102
   18MOL0     C 2273   4.591   1.590  -1.231 -0.1653 -1.1674 -0.1213
   18MOL0     O 2274   4.625   1.536  -1.359 -0.1534  0.2165  0.9477
   18MOL0     C 2275   4.527   1.482  -1.442 -0.3533  0.1269  0.3767
   18MOL0     C 2276   4.523   1.346  -1.489  0.2625 -0.5609  0.2016
   18MOL0     C 2277   4.412   1.303  -1.565 -1.0025 -0.2420  0.3870
   18MOL0     C 2278   4.316   1.386  -1.613 -0.2710  0.0162 -0.5781
   18MOL0     O 2279   4.225   1.339  -1.705  0.8381  0.0542 -0.2348
   18MOL0     C 2280   4.091   1.323  -1.663  0.3643  0.0391  1.3570
   18MOL0     C 2281   4.001   1.316  -1.788 -0.1983  0.1704  1.0861
   18MOL0     C 2282   3.853   1.325  -1.759  0.3348 -0.5967 -0.4830
   18MOL0     C 2283   3.766   1.306  -1.883  0.8145  0.5878 -0.9502
   18MOL0     C 2284   3.612   1.330  -1.860  0.0651  0.2442  1.0507
   18MOL0     C 2285   3.536   1.367  -1.995 -0.6301  0.6204 -0.2430
   18MOL0     C 2286   3.397   1.411  -1.974  1.1106 -0.3929  0.1083
   18MOL0     C 2287   3.322   1.469  -2.096  0.4795  0.1870 -0.9449
   18MOL0    Cl 2288   3.422   1.597  -2.175 -0.0088  0.3024 -0.2873
   18MOL0     C 2289   4.324   1.519  -1.571  0.2596 -0.3186  0.2248
   18MOL0     C 2290   4.427   1.568  -1.495 -0.2085  0.3110 -0.1987
   18MOL0     O 2291   4.477   1.593  -1.183  0.0394  0.3452  0.3463
   18MOL0     C 2292   4.667   1.667  -1.015 -0.3292  0.2113  0.4559
   18MOL0     C 2293   4.776   1.683  -0.919 -0.0147  0.2192  1.4110
   18MOL0     N 2294   4.930   1.149  -0.694 -0.4414  0.2040 -0.5654
   18MOL0     N 2295   4.981   1.036  -0.663 -0.0078  0.5645  0.2939
   18MOL0     C 2296   5.973   0.536   0.266  0.0536 -0.6806  0.4930
   18MOL0     C 2297   6.062   0.546   0.373  0.4093 -0.1032  0.6352
   18MOL0     C 2298   6.431   0.623   0.599  0.5609 -0.6548  0.0538
   18MOL0     C 2299   6.557   0.558   0.589 -0.1190  0.6290  0.5634
   18MOL0     C 2300   6.655   0.567   0.684  0.0682  0.2899  0.7178
   18MOL0     C 2301   6.633   0.641   0.804 -0.4969  0.4467  0.3999
   18MOL0     O 2302   6.722   0.655   0.906  0.2976  0.7665  0.3173
   18MOL0     C 2303   6.850   0.590   0.905 -1.0131  0.5605 -0.2729
   18MOL0     C 2304   6.870   0.521   1.043 -0.4279 -0.8483  0.0795
   18MOL0     C 2305   6.953   0.609   1.138  0.0729  0.6993  0.0168
   18MOL0     C 2306   6.959   0.556   1.287  0.5493 -0.5033 -0.5847
   18MOL0     C 2307   7.040   0.634   1.378 -0.3728 -0.8501  0.1671
   18MOL0     C 2308   7.093   0.707   1.460 -0.4347 -0.0300  0.1199
   18MOL0     C 2309   6.507   0.704   0.820 -0.0859  0.0130  0.9490
   18MOL0     C 2310   6.405   0.702   0.719 -0.1087 -0.2022 -0.1933
   18MOL0     H 2311   6.148   0.868   0.356 -0.3800  1.7628 -0.1497
   18MOL0     H 2312   5.996   0.862   0.165 -0.1641 -1.4036 -2.1318
   18MOL0     H 2313   5.768   0.834   0.097  2.5977 -0.6593  2.3691
   18MOL0     H 2314   5.678   0.729   0.198 -0.1072  1.2189  0.9048
   18MOL0     H 2315   5.597   0.606  -0.018 -1.6702 -0.8030  0.6554
   18MOL0     H 2316   5.684   0.726  -0.102 -1.6039  0.1551 -1.4420
   18MOL0     H 2317   5.534   0.906   0.003  1.7475 -0.2705 -2.3156
   18MOL0     H 2318   5.430   0.757   0.052 -1.9215  0.1378 -0.7159
   18MOL0     H 2319   5.534   0.840  -0.211 -0.1655  0.6939  0.3172
   18MOL0     H 2320   5.434   0.694  -0.187 -0.0434  1.6289 -3.4368
   18MOL0     H 2321   5.353   0.981  -0.147 -1.3655  1.1281 -1.5582
   18MOL0     H 2322   5.245   0.852  -0.106 -0.2565  1.7695  1.3755
   18MOL0     H 2323   5.245   0.771  -0.345 -0.7217 -0.7637 -0.1090
   18MOL0     H 2324   5.381   0.862  -0.387  0.3247 -1.6937  1.5331
   18MOL0     H 2325   5.097   0.964  -0.315  0.3636  0.8374  2.1318
   18MOL0     H 2326   5.233   1.077  -0.349 -2.0787 -0.2370  2.4401
   18MOL0     H 2327   5.142   0.863  -0.537  4.1772 -1.0040 -0.6138
   18MOL0     H 2328   5.256   0.985  -0.576 -1.4054 -0.7060 -0.9602
   18MOL0     H 2329   5.107   1.243  -0.439  0.6839 -1.1206 -0.4733
   18MOL0     H 2330   4.878   1.414  -0.511 -0.5084 -2.2127 -0.0435
   18MOL0     H 2331   4.833   1.395  -0.679 -0.3584 -2.0474  0.1794
   18MOL0     H 2332   5.115   1.468  -0.593  0.2385  0.1989 -2.3879
   18MOL0     H 2333   4.985   1.599  -0.629 -3.3169 -0.6662  0.9774
   18MOL0     H 2334   5.122   1.411  -0.808 -2.0830 -0.8139 -3.6950
   18MOL0     H 2335   4.961   1.468  -0.848 -0.7228  1.6050  1.2153
   18MOL0     H 2336   5.167   1.607  -0.945  2.4432  1.5060  0.6407
   18MOL0     H 2337   5.193   1.662  -0.792  1.4454  4.5785 -3.7594
   18MOL0     H 2338   5.038   1.652  -1.134 -0.7325 -0.1103  0.4061
   18MOL0     H 2339   4.870   1.599  -1.287 -2.3339 -0.7352  0.0452
   18MOL0     H 2340   4.600   1.272  -1.466  1.1421  0.2362 -0.1148
   18MOL0     H 2341   4.428   1.201  -1.598 -1.7671 -0.0001 -0.7980
   18MOL0     H 2342   4.052   1.416  -1.620 -0.2721  1.3853 -1.8262
   18MOL0     H 2343   4.078   1.235  -1.600  0.5897 -0.2485  1.0068
   18MOL0     H 2344   4.027   1.221  -1.836 -0.4251  0.2417  0.8164
   18MOL0     H 2345   4.025   1.398  -1.857 -0.3812  1.2467  2.2541
   18MOL0     H 2346   3.835   1.425  -1.719 -0.1199 -0.8531 -0.0336
   18MOL0     H 2347   3.831   1.264  -1.671  0.0391 -0.4015 -0.4186
   18MOL0     H 2348   3.797   1.375  -1.962  2.0932 -1.0517 -1.9477
   18MOL0     H 2349   3.780   1.209  -1.931 -1.1395 -0.0092 -0.4116
   18MOL0     H 2350   3.607   1.405  -1.781  1.7248  0.8991  0.5871
   18MOL0     H 2351   3.563   1.238  -1.824 -4.5391  1.3524 -1.6320
   18MOL0     H 2352   3.532   1.270  -2.044  0.3561  0.0885  0.6793
   18MOL0     H 2353   3.598   1.443  -2.044  0.9372  0.4896  1.4039
   18MOL0     H 2354   3.326   1.337  -1.936 -0.1955  0.8613  0.1666
   18MOL0     H 2355   3.416   1.489  -1.900  2.1710  1.1724 -1.6984
   18MOL0     H 2356   3.228   1.512  -2.060  0.7234  0.8268 -1.0574
   18MOL0     H 2357   3.302   1.391  -2.170 -0.0064 -1.0361  0.4442
   18MOL0     H 2358   4.239   1.575  -1.609 -1.8227 -2.4845  1.4557
   18MOL0     H 2359   4.423   1.674  -1.470  2.2755  0.2287  0.8364
   18MOL0     H 2360   4.563   1.668  -0.983 -0.1867  2.7766  1.1025
   18MOL0     H 2361   4.746   1.714  -0.820 -1.8488 -0.1005  0.9992
   18MOL0     H 2362   5.925   0.443   0.236  1.4061 -1.2132 -0.0620
   18MOL0     H 2363   6.091   0.462   0.436 -1.4596 -2.7641 -1.7802
   18MOL0     H 2364   6.583   0.507   0.497  2.1790  0.0351  1.4676
   18MOL0     H 2365   6.753   0.524   0.666 -1.6099 -3.2488 -0.9679
   18MOL0     H 2366   6.934   0.659   0.891 -0.8446  0.5535  0.6376
   18MOL0     H 2367   6.863   0.512   0.830  1.1367 -0.2454  0.8364
   18MOL0     H 2368   6.775   0.484   1.083  0.4095 -3.0703  0.1674
   18MOL0     H 2369   6.939   0.440   1.017  0.6344 -0.5856  1.8786
   18MOL0     H 2370   6.889   0.698   1.132 -1.4314 -0.3871 -0.7605
   18MOL0     H 2371   7.057   0.618   1.106  1.2587 -0.9604  2.9510
   18MOL0     H 2372   6.861   0.555   1.337  1.6783  0.1370  1.7940
   18MOL0     H 2373   7.010   0.460   1.280 -0.8816 -1.3184 -0.3018
   18MOL0     H 2374   7.135   0.781   1.526  1.4374  1.6230 -2.7122
   18MOL0     H 2375   6.497   0.765   0.910  0.9638  2.4227 -0.4870
   18MOL0     H 2376   6.309   0.753   0.724 -0.7209 -1.3723  0.4967
   19MOL0     O 2377   3.424   8.146   8.335  0.4830 -0.6061  0.4403
   19MOL0     C 2378   3.491   8.106   8.247  0.0340  0.4430 -0.1083
   19MOL0     O 2379   3.450   8.019   8.150  0.3731 -1.1010  0.5029
   19MOL0     C 2380   3.328   8.054   8.103 -0.0688 -0.1350 -0.7876
   19MOL0     C 2381   3.298   8.181   8.050  0.0225 -0.1449  0.2953
   19MOL0     C 2382   3.165   8.197   8.002  0.4089  0.4467  0.3707
   19MOL0     C 2383   3.073   8.096   8.006  0.0211 -0.8836 -0.2292
   19MOL0     O 2384   2.948   8.134   7.989 -0.2180  0.3309  0.7913
   19MOL0     C 2385   2.892   8.198   8.097  0.5922 -0.3089  0.9601
   19MOL0     C 2386   2.740   8.167   8.102  0.0231 -0.0159 -0.1799
   19MOL0     C 2387   2.716   8.017   8.113  1.3535 -0.8196 -0.3900
   19MOL0     C 2388   2.576   7.996   8.180 -1.7738  1.4702 -0.9850
   19MOL0     C 2389   2.524   7.855   8.173  0.2600  0.0566 -0.4354
   19MOL0     C 2390   2.376   7.857   8.234  0.4631  0.0512  0.4704
   19MOL0     C 2391   2.302   7.726   8.216  0.5469  0.7036 -0.0611
   19MOL0     C 2392   2.155   7.747   8.196  0.0980  0.7487 -0.3417
   19MOL0     N 2393   2.080   7.618   8.177 -0.2349 -0.0266 -0.3416
   19MOL0     C 2394   2.041   7.527   8.279  0.7352  0.3138  0.4844
   19MOL0     C 2395   1.994   7.413   8.211  0.5757  0.8024  1.2313
   19MOL0     C 2396   1.930   7.281   8.271  0.3694 -0.3653  0.4704
   19MOL0     C 2397   2.023   7.208   8.375  0.7614 -0.3449  0.3033
   19MOL0     C 2398   2.156   7.181   8.306 -0.0775 -0.1992  0.4275
   19MOL0     C 2399   2.181   7.110   8.178  0.3880 -0.1248 -0.3190
   19MOL0     O 2400   2.315   7.057   8.169  0.9431  0.4282  0.1460
   19MOL0     C 2401   2.420   7.143   8.171 -0.6854  1.0997  0.3586
   19MOL0     C 2402   2.417   7.287   8.151  0.1460  0.0220 -0.5444
   19MOL0     C 2403   2.533   7.362   8.145 -0.6988 -0.2879  0.1329
   19MOL0     C 2404   2.660   7.305   8.187 -0.1536 -0.2639 -1.1914
   19MOL0     C 2405   2.785   7.385   8.204  0.4329  0.4539  0.1001
   19MOL0     O 2406   2.895   7.316   8.224 -0.4831 -0.1092  0.3372
   19MOL0     C 2407   3.024   7.367   8.217 -0.5117 -0.7745 -0.1769
   19MOL0     C 2408   3.130   7.287   8.168 -0.1764  0.0006 -0.6055
   19MOL0     C 2409   3.265   7.330   8.164  0.1814 -0.1545  0.5232
   19MOL0     C 2410   3.291   7.459   8.206 -0.2896  0.2872 -0.0286
   19MOL0     O 2411   3.423   7.494   8.230  0.5493  0.5924 -0.5547
   19MOL0     C 2412   3.470   7.635   8.247 -0.4446  0.3413 -0.7402
   19MOL0     C 2413   3.611   7.627   8.289  0.7897 -1.0850  0.8087
   19MOL0     C 2414   3.693   7.753   8.282  0.2386 -0.4002  0.3914
   19MOL0     C 2415   3.839   7.726   8.323  0.0815 -0.5749  0.6387
   19MOL0     C 2416   3.925   7.848   8.357  0.1105  0.7171  0.1469
   19MOL0     C 2417   4.042   7.870   8.257 -0.2223 -0.6204  0.0508
   19MOL0     C 2418   4.143   7.754   8.269 -1.0237 -0.6186  0.3578
   19MOL0     C 2419   4.275   7.776   8.191  0.3165  0.1975  0.6847
   19MOL0    Cl 2420   4.248   7.777   8.015  0.3817  0.4257 -0.3590
   19MOL0     C 2421   3.191   7.543   8.253  0.1378 -0.1375 -0.6711
   19MOL0     C 2422   3.059   7.503   8.255 -0.0679  0.2513 -0.5629
   19MOL0     O 2423   2.781   7.504   8.182 -0.2242  0.3442  0.4319
   19MOL0     C 2424   2.654   7.168   8.222  0.3913 -0.3483 -0.9544
   19MOL0     C 2425   2.546   7.090   8.202 -0.6689  0.8266  0.2043
   19MOL0     N 2426   2.010   7.435   8.078 -0.4138  0.3135  0.3572
   19MOL0     N 2427   2.060   7.554   8.057 -0.6166 -0.5371  0.1403
   19MOL0     C 2428   3.105   7.971   8.058  0.3288  0.4384 -0.4645
   19MOL0     C 2429   3.231   7.950   8.109 -0.4296 -0.5950 -0.4967
   19MOL0     C 2430   3.637   8.143   8.240  0.9255 -0.3551 -0.6270
   19MOL0     C 2431   3.714   8.127   8.130 -0.9169 -0.4330 -0.2441
   19MOL0     C 2432   3.857   8.135   8.131  0.1453  0.7865 -0.1102
   19MOL0     C 2433   3.924   8.192   8.241  0.1516  0.1550 -0.0111
   19MOL0     O 2434   4.059   8.243   8.246  0.6210  0.1457  0.0953
   19MOL0     C 2435   4.132   8.244   8.122  0.3772 -0.5290  0.3254
   19MOL0     C 2436   4.284   8.218   8.157 -0.9485  0.5644  0.1508
   19MOL0     C 2437   4.373   8.239   8.035  0.0391 -0.2736  0.1322
   19MOL0     C 2438   4.519   8.263   8.080 -0.1388 -0.0042 -0.2083
   19MOL0     C 2439   4.584   8.131   8.106 -0.9213 -0.0485 -0.0616
   19MOL0     C 2440   4.632   8.020   8.129  0.1836  0.1732 -0.4375
   19MOL0     C 2441   3.844   8.220   8.356 -0.3003  0.5424  0.5271
   19MOL0     C 2442   3.704   8.200   8.350 -0.5809  0.4182 -0.3511
   19MOL0     H 2443   3.371   8.261   8.050  0.3122 -0.4058  0.7737
   19MOL0     H 2444   3.144   8.300   7.974  0.1843  0.2103 -0.3417
   19MOL0     H 2445   2.901   8.307   8.087  0.0681 -0.4439 -1.8180
   19MOL0     H 2446   2.937   8.168   8.192  1.8933 -1.2721  0.0796
   19MOL0     H 2447   2.678   8.191   8.015 -2.7317 -1.4471  1.2706
   19MOL0     H 2448   2.693   8.211   8.191 -0.5831 -0.3319 -0.3374
   19MOL0     H 2449   2.782   7.955   8.174  1.6459  0.8283  1.0590
   19MOL0     H 2450   2.708   7.980   8.011 -1.1812 -3.9364  0.7609
   19MOL0     H 2451   2.584   8.025   8.285  0.9722 -1.1380 -0.3618
   19MOL0     H 2452   2.496   8.054   8.131 -3.0018  1.6565  1.1063
   19MOL0     H 2453   2.604   7.809   8.231  0.0699 -1.2352 -1.1386
   19MOL0     H 2454   2.524   7.811   8.073  0.8251 -2.8874  0.7531
   19MOL0     H 2455   2.315   7.939   8.195 -2.5504 -1.4343  1.7269
   19MOL0     H 2456   2.393   7.873   8.341 -0.9942  1.8894  0.4617
   19MOL0     H 2457   2.344   7.674   8.129  0.0407  0.2269 -0.0210
   19MOL0     H 2458   2.313   7.668   8.308  0.6011 -0.8901 -1.0258
   19MOL0     H 2459   2.130   7.808   8.108 -0.8401 -0.2381 -0.7725
   19MOL0     H 2460   2.120   7.793   8.289  2.1348 -2.2936  2.1232
   19MOL0     H 2461   2.026   7.542   8.385 -3.5091  0.8486 -0.0112
   19MOL0     H 2462   1.909   7.212   8.189 -0.3365  2.0647 -1.5052
   19MOL0     H 2463   1.833   7.301   8.315  0.9894  1.6654  1.0295
   19MOL0     H 2464   1.974   7.115   8.406  1.0847 -1.0807 -1.2360
   19MOL0     H 2465   2.031   7.270   8.464 -2.0086  3.2420 -1.6326
   19MOL0     H 2466   2.206   7.278   8.311  0.9826 -0.7117  0.1708
   19MOL0     H 2467   2.207   7.126   8.386 -1.0378 -2.1758 -0.2463
   19MOL0     H 2468   2.154   7.166   8.087  0.8271 -1.7861 -1.5136
   19MOL0     H 2469   2.116   7.022   8.178  0.6677 -0.3344  0.3570
   19MOL0     H 2470   2.326   7.332   8.110 -0.9649 -0.2537  1.4799
   19MOL0     H 2471   2.516   7.462   8.107 -2.8629 -0.7034 -0.1118
   19MOL0     H 2472   3.099   7.184   8.151 -1.0752 -0.0418  1.1012
   19MOL0     H 2473   3.341   7.259   8.131  0.8190  1.3079 -1.2820
   19MOL0     H 2474   3.417   7.695   8.321  1.1142  1.1431 -0.2378
   19MOL0     H 2475   3.468   7.685   8.150 -1.6510  1.0171 -0.3882
   19MOL0     H 2476   3.663   7.555   8.224 -0.1768 -0.9782 -0.1093
   19MOL0     H 2477   3.605   7.589   8.391 -1.3551  1.7942  1.8681
   19MOL0     H 2478   3.646   7.833   8.340  1.6783  1.3954 -0.7990
   19MOL0     H 2479   3.700   7.785   8.177 -0.8783 -0.7232  0.2038
   19MOL0     H 2480   3.846   7.649   8.400 -0.7561  1.5979  3.0389
   19MOL0     H 2481   3.891   7.686   8.236  3.7772 -2.3091  3.3843
   19MOL0     H 2482   3.968   7.844   8.457  0.3605 -4.3999  0.0845
   19MOL0     H 2483   3.869   7.938   8.332  2.3547  1.6156 -2.2365
   19MOL0     H 2484   4.099   7.961   8.277  1.1604 -0.9899 -1.8706
   19MOL0     H 2485   4.005   7.878   8.155  1.2836  2.7789 -0.3653
   19MOL0     H 2486   4.178   7.745   8.372 -0.0066  0.5018  0.1360
   19MOL0     H 2487   4.092   7.662   8.240 -1.1274 -0.7430  0.9273
   19MOL0     H 2488   4.349   7.701   8.220 -0.9689 -0.6794  1.8597
   19MOL0     H 2489   4.319   7.869   8.226  0.7501  0.5416 -0.7182
   19MOL0     H 2490   3.201   7.648   8.279 -1.3809 -0.3784  1.0760
   19MOL0     H 2491   2.980   7.569   8.290 -1.8212 -1.0284 -1.9670
   19MOL0     H 2492   2.747   7.132   8.264  2.4906  2.8488 -2.4940
   19MOL0     H 2493   2.555   6.985   8.226  2.2870  0.4778 -1.8332
   19MOL0     H 2494   3.031   7.893   8.070 -0.3064  1.4905  3.8615
   19MOL0     H 2495   3.256   7.862   8.169  1.1350  1.2434  1.7310
   19MOL0     H 2496   3.670   8.093   8.036  0.9474 -0.7477 -1.0464
   19MOL0     H 2497   3.904   8.111   8.036 -2.3788 -2.7784 -0.6465
   19MOL0     H 2498   4.115   8.338   8.069  4.2195 -0.6846 -1.4899
   19MOL0     H 2499   4.100   8.168   8.050 -1.2302 -0.6249  1.0835
   19MOL0     H 2500   4.322   8.286   8.233  1.6350  1.0578 -1.4519
   19MOL0     H 2501   4.301   8.115   8.190  2.6514  0.4860 -1.4509
   19MOL0     H 2502   4.344   8.334   7.990  0.0900 -0.2078  0.2372
   19MOL0     H 2503   4.367   8.157   7.962  0.2126  1.0559 -1.4286
   19MOL0     H 2504   4.584   8.314   8.008 -0.4333  0.0061 -0.4685
   19MOL0     H 2505   4.530   8.319   8.174  2.8281 -2.2399  0.9198
   19MOL0     H 2506   4.677   7.925   8.151 -0.4915 -0.2288 -0.7596
   19MOL0     H 2507   3.876   8.265   8.449 -3.2466 -0.3387  2.0979
   19MOL0     H 2508   3.642   8.219   8.436 -1.1951 -2.7592  0.0389
   20MOL0     O 2509   6.358   1.701  10.164  0.1865  0.1778  0.3358
   20MOL0     C 2510   6.332   1.797  10.089  0.4770 -0.1454  0.8338
   20MOL0     O 2511   6.423   1.873  10.008 -0.5634 -0.1470 -0.2604
   20MOL0     C 2512   6.561   1.862  10.019 -0.1682 -0.0762  0.0023
   20MOL0     C 2513   6.621   1.860  10.145 -0.4557 -0.1010  0.5726
   20MOL0     C 2514   6.760   1.858  10.160  0.2819 -1.2230 -0.2535
   20MOL0     C 2515   6.844   1.880  10.048  0.4323  0.8131 -0.2121
   20MOL0     O 2516   6.982   1.880  10.064  0.7730  0.2310  0.5970
   20MOL0     C 2517   7.014   1.992  10.147 -0.3189  0.6281  0.8014
   20MOL0     C 2518   7.164   2.011  10.145 -0.8680  0.2120 -0.3045
   20MOL0     C 2519   7.198   2.058   9.996  0.2522 -0.1563  0.6780
   20MOL0     C 2520   7.336   2.128   9.974 -0.4453 -0.1879  0.0971
   20MOL0     C 2521   7.330   2.183   9.832 -0.3501 -0.3184  0.4717
   20MOL0     C 2522   7.445   2.270   9.790 -0.2060  0.7900  0.1337
   20MOL0     C 2523   7.472   2.405   9.870  0.8352 -0.3240  0.4691
   20MOL0     C 2524   7.593   2.479   9.809  0.0273 -0.2379 -0.2903
   20MOL0     N 2525   7.572   2.526   9.672 -0.4821  0.0871 -0.2203
   20MOL0     C 2526   7.671   2.583   9.595  0.5083  0.0389  0.0714
   20MOL0     C 2527   7.609   2.645   9.494  0.0074  0.8498  0.1865
   20MOL0     C 2528   7.686   2.720   9.387  0.1722  0.3941  0.1202
   20MOL0     C 2529   7.746   2.633   9.282 -0.0256  0.6441  0.5049
   20MOL0     C 2530   7.802   2.702   9.153  0.5019 -0.1540  1.0715
   20MOL0     C 2531   7.855   2.598   9.044  0.1223  0.0934  0.5331
   20MOL0     O 2532   7.745   2.514   9.008  0.6379  0.2983  0.3368
   20MOL0     C 2533   7.655   2.559   8.916  0.3056  0.1336  0.5192
   20MOL0     C 2534   7.699   2.598   8.791  0.1420 -0.0452 -1.0653
   20MOL0     C 2535   7.604   2.642   8.697  0.1705  0.2432  0.1979
   20MOL0     C 2536   7.465   2.655   8.729  0.7110  0.1135  0.6500
   20MOL0     C 2537   7.369   2.725   8.641 -0.6750  0.0352  0.0480
   20MOL0     O 2538   7.253   2.749   8.694  0.5961  1.2297  0.3940
   20MOL0     C 2539   7.147   2.792   8.619 -0.2488  0.4011  1.1415
   20MOL0     C 2540   7.051   2.872   8.682  0.3191 -0.3654 -0.1986
   20MOL0     C 2541   6.931   2.913   8.616 -0.0458 -0.9624  0.3303
   20MOL0     C 2542   6.901   2.864   8.488 -0.7261  0.8190  0.1022
   20MOL0     O 2543   6.801   2.924   8.425  0.0320 -0.1009 -0.5748
   20MOL0     C 2544   6.715   2.835   8.344  0.6590 -0.3164  0.3944
   20MOL0     C 2545   6.584   2.897   8.309  0.4351  0.0059  0.8960
   20MOL0     C 2546   6.495   2.896   8.427  0.2155 -0.2025 -0.1249
   20MOL0     C 2547   6.359   2.955   8.382  0.4635  0.6209 -0.0390
   20MOL0     C 2548   6.273   2.934   8.512 -0.0027  0.0095 -0.4804
   20MOL0     C 2549   6.130   2.984   8.505  0.0815  0.1972  0.6260
   20MOL0     C 2550   6.047   2.897   8.403 -0.2286  0.4173 -0.2738
   20MOL0     C 2551   5.939   2.989   8.358  0.0464  0.8587  0.2663
   20MOL0    Cl 2552   5.799   2.967   8.482  0.4282  0.0426  0.1439
   20MOL0     C 2553   6.988   2.767   8.433 -0.7553 -0.5549  0.1335
   20MOL0     C 2554   7.105   2.734   8.495  0.1256 -0.2562 -0.2528
   20MOL0     O 2555   7.398   2.762   8.527  0.4675 -0.5808  0.2664
   20MOL0     C 2556   7.428   2.599   8.854 -0.0334 -1.0179 -0.4785
   20MOL0     C 2557   7.517   2.561   8.955 -0.6188 -0.5691  0.2089
   20MOL0     N 2558   7.471   2.603   9.504 -0.5143  0.0254  0.6050
   20MOL0     N 2559   7.454   2.534   9.612 -0.5919  0.0634  0.4850
   20MOL0     C 2560   6.780   1.888   9.926 -1.0100 -0.2254  0.0717
   20MOL0     C 2561   6.641   1.876   9.910 -0.0933 -0.6345 -0.0885
   20MOL0     C 2562   6.191   1.848  10.080  1.0615 -0.9739  0.2314
   20MOL0     C 2563   6.088   1.775  10.127 -0.4477  0.4006  0.0479
   20MOL0     C 2564   5.964   1.814  10.127  0.0533 -0.0490  0.2235
   20MOL0     C 2565   5.927   1.932  10.065  0.6801 -0.1011 -0.3148
   20MOL0     O 2566   5.794   1.969  10.053  0.2732 -0.6665  0.6505
   20MOL0     C 2567   5.712   1.874   9.982  0.8515  0.4826  0.5956
   20MOL0     C 2568   5.567   1.923   9.998 -1.1974  0.4551 -0.1004
   20MOL0     C 2569   5.497   1.852  10.123  0.5229  0.2588 -0.3308
   20MOL0     C 2570   5.376   1.922  10.181  0.6725 -0.9282  0.1853
   20MOL0     C 2571   5.254   1.927  10.101  0.7959  0.1131  0.8282
   20MOL0     C 2572   5.151   1.941  10.035  0.0751 -0.4183  0.0650
   20MOL0     C 2573   6.031   2.011  10.010 -0.0254  0.7176  0.3580
   20MOL0     C 2574   6.161   1.971  10.017 -0.8981  0.3885  0.0061
   20MOL0     H 2575   6.548   1.855  10.225 -0.0166 -4.0386  0.8883
   20MOL0     H 2576   6.816   1.833  10.249 -0.3793  1.7171  1.1029
   20MOL0     H 2577   6.982   1.975  10.250 -4.1920  1.6888 -0.0753
   20MOL0     H 2578   6.968   2.084  10.109  0.1345  0.4852 -0.1337
   20MOL0     H 2579   7.220   1.922  10.174  0.0202  0.6945 -0.4937
   20MOL0     H 2580   7.183   2.090  10.218 -2.2384  0.7631 -0.5230
   20MOL0     H 2581   7.121   2.129   9.967 -0.0337 -0.2809  1.1294
   20MOL0     H 2582   7.185   1.980   9.921 -1.4197  1.7349 -1.0990
   20MOL0     H 2583   7.358   2.207  10.046  1.0158 -0.2936 -0.2176
   20MOL0     H 2584   7.416   2.054   9.982 -0.8342 -0.6705 -0.3950
   20MOL0     H 2585   7.243   2.250   9.830  1.7898  2.8976  3.9303
   20MOL0     H 2586   7.312   2.102   9.760  0.5682 -0.8948  0.8675
   20MOL0     H 2587   7.435   2.283   9.682 -2.9070 -0.1706  0.1891
   20MOL0     H 2588   7.535   2.209   9.798  0.0849  1.3275  1.1034
   20MOL0     H 2589   7.388   2.474   9.859  2.1805  1.1854 -0.6260
   20MOL0     H 2590   7.478   2.385   9.977  1.4288  0.0997  0.5187
   20MOL0     H 2591   7.680   2.413   9.818  2.8571  3.1553 -0.4308
   20MOL0     H 2592   7.623   2.561   9.875  2.9746 -1.1028 -0.4027
   20MOL0     H 2593   7.779   2.586   9.613  0.0316  1.2904  3.7182
   20MOL0     H 2594   7.761   2.786   9.431 -2.2951  1.5173  2.8809
   20MOL0     H 2595   7.619   2.790   9.337  0.7752  0.7163 -0.2644
   20MOL0     H 2596   7.673   2.554   9.264 -0.7877  1.3774  0.2942
   20MOL0     H 2597   7.836   2.583   9.319  0.3856 -0.1902 -1.5202
   20MOL0     H 2598   7.720   2.760   9.110 -0.4737 -1.2892  1.3424
   20MOL0     H 2599   7.882   2.770   9.184  1.0979  0.1399 -0.9750
   20MOL0     H 2600   7.935   2.535   9.083 -1.4778 -1.1411  1.9914
   20MOL0     H 2601   7.899   2.654   8.961  0.0866 -0.9977 -0.2368
   20MOL0     H 2602   7.804   2.589   8.765  1.2800  1.1517  2.5913
   20MOL0     H 2603   7.644   2.685   8.606 -0.7263  0.7435  0.0294
   20MOL0     H 2604   7.069   2.904   8.784 -2.7985  1.0544  0.0371
   20MOL0     H 2605   6.868   2.990   8.659  2.6907  1.0399  1.0432
   20MOL0     H 2606   6.692   2.736   8.382  0.5379 -0.6212 -0.4492
   20MOL0     H 2607   6.771   2.814   8.252 -1.4906 -1.4425 -0.7232
   20MOL0     H 2608   6.534   2.838   8.232 -0.2320 -1.1079  2.1258
   20MOL0     H 2609   6.602   2.997   8.270 -1.0451  0.0220  0.2179
   20MOL0     H 2610   6.538   2.960   8.504  1.7615 -0.1056 -1.0258
   20MOL0     H 2611   6.482   2.792   8.459  1.7914  0.4381  2.9832
   20MOL0     H 2612   6.356   3.059   8.350  1.7856  0.6395 -0.1793
   20MOL0     H 2613   6.316   2.887   8.307  1.2147 -1.4935  1.3347
   20MOL0     H 2614   6.324   2.979   8.597  0.1029 -1.1413  0.0845
   20MOL0     H 2615   6.265   2.826   8.528 -2.4296 -0.3167 -2.9769
   20MOL0     H 2616   6.142   3.084   8.463  0.6988 -0.3494 -0.5460
   20MOL0     H 2617   6.083   2.979   8.604  0.8193 -2.4470  0.9233
   20MOL0     H 2618   6.112   2.868   8.320  0.1035  0.9199 -0.1924
   20MOL0     H 2619   6.007   2.810   8.456 -0.8725  0.1613 -1.1571
   20MOL0     H 2620   5.883   2.954   8.270 -0.1769  1.7975  0.0155
   20MOL0     H 2621   5.983   3.082   8.319  0.4853 -0.6965 -3.4236
   20MOL0     H 2622   6.957   2.724   8.339  0.2339  0.6490 -0.7785
   20MOL0     H 2623   7.155   2.646   8.457  0.1488 -0.9689  1.3767
   20MOL0     H 2624   7.322   2.594   8.876 -0.3268 -0.9153 -1.7923
   20MOL0     H 2625   7.483   2.535   9.055  0.9325 -1.8581  0.4381
   20MOL0     H 2626   6.839   1.887   9.835 -2.1848 -0.4684 -0.7193
   20MOL0     H 2627   6.583   1.871   9.817  1.5866 -0.7738 -1.1710
   20MOL0     H 2628   6.109   1.682  10.178  1.6444  1.0791  0.5454
   20MOL0     H 2629   5.890   1.748  10.171  0.5476  1.2054  3.1365
   20MOL0     H 2630   5.726   1.780  10.036  1.0728 -0.0893 -0.4374
   20MOL0     H 2631   5.736   1.860   9.876 -0.2089 -0.1123  0.4212
   20MOL0     H 2632   5.559   2.032  10.008  0.7096  0.8690 -2.2876
   20MOL0     H 2633   5.509   1.895   9.909 -3.4676  1.0924  1.1206
   20MOL0     H 2634   5.567   1.844  10.206 -0.0651  0.1058  0.1577
   20MOL0     H 2635   5.472   1.750  10.094 -0.0149  0.8777 -2.1995
   20MOL0     H 2636   5.354   1.868  10.273  0.6247  1.3609  1.5615
   20MOL0     H 2637   5.405   2.023  10.209 -0.8757 -0.0923 -1.0787
   20MOL0     H 2638   5.066   1.950   9.971  1.2710  0.2083 -1.5244
   20MOL0     H 2639   6.006   2.113   9.980  0.8998  0.7419 -0.3711
   20MOL0     H 2640   6.242   2.033   9.981  0.5539 -1.4191 -0.0089
   21MOL0     O 2641   2.556   9.696   7.985 -0.2421 -0.5119 -0.2785
   21MOL0     C 2642   2.509   9.801   7.949  0.5694 -0.1258 -0.0435
   21MOL0     O 2643   2.570   9.925   7.964  0.2277  0.1160  0.4559
   21MOL0     C 2644   2.688   9.953   8.015 -0.5385 -0.6032 -0.9142
   21MOL0     C 2645   2.805   9.873   8.012  0.0501 -0.1885 -0.6648
   21MOL0     C 2646   2.926   9.918   8.063  0.1862 -0.4762 -0.3095
   21MOL0     C 2647   2.940  10.038   8.125 -0.6545  0.1166  0.5736
   21MOL0     O 2648   3.057  10.079   8.173  0.5242  0.5865 -0.4983
   21MOL0     C 2649   3.137   9.983   8.258  0.2667 -0.4886 -0.5741
   21MOL0     C 2650   3.266  10.056   8.288 -0.2709 -0.4229 -0.2158
   21MOL0     C 2651   3.237  10.188   8.360  0.8976  0.1217 -0.1407
   21MOL0     C 2652   3.368  10.260   8.379  0.0484  0.4006  0.1156
   21MOL0     C 2653   3.356  10.387   8.469  0.6021  0.1244 -0.1247
   21MOL0     C 2654   3.318  10.369   8.615 -0.4822 -0.3780 -0.4109
   21MOL0     C 2655   3.429  10.306   8.701  0.4169  0.0250 -0.5052
   21MOL0     C 2656   3.380  10.288   8.850 -0.2055  0.0181 -0.8456
   21MOL0     N 2657   3.269  10.192   8.867  0.5767  0.0183  0.7669
   21MOL0     C 2658   3.268  10.066   8.808 -0.3360  0.6336  0.4485
   21MOL0     C 2659   3.142  10.017   8.833 -0.2649 -0.6089 -0.4597
   21MOL0     C 2660   3.091   9.887   8.801  0.1023  1.3684 -0.1809
   21MOL0     C 2661   3.032   9.876   8.656 -0.5566 -0.2142 -0.6052
   21MOL0     C 2662   2.984   9.728   8.638 -0.4890  0.3656  0.9544
   21MOL0     C 2663   2.827   9.719   8.657  0.2596  0.3893 -0.1594
   21MOL0     O 2664   2.785   9.586   8.610  0.9391 -0.1109 -0.0962
   21MOL0     C 2665   2.652   9.546   8.622  0.2900  0.2709 -0.8969
   21MOL0     C 2666   2.613   9.429   8.556  0.0653 -0.6786 -0.0907
   21MOL0     C 2667   2.487   9.379   8.552 -0.0676 -0.7778  0.2642
   21MOL0     C 2668   2.389   9.447   8.634 -0.3865 -0.5321 -0.0471
   21MOL0     C 2669   2.257   9.393   8.656  0.2249  0.3493 -0.0543
   21MOL0     O 2670   2.213   9.289   8.581  0.4697  0.2869  0.2901
   21MOL0     C 2671   2.096   9.236   8.617 -0.4087 -0.8906  0.3551
   21MOL0     C 2672   2.089   9.148   8.722  1.0401 -0.1128 -0.1165
   21MOL0     C 2673   1.971   9.081   8.754  0.3900 -0.0572  0.4361
   21MOL0     C 2674   1.858   9.110   8.684  0.5415  0.6949  0.0211
   21MOL0     O 2675   1.743   9.045   8.723 -0.0992 -0.1818  0.0691
   21MOL0     C 2676   1.674   8.989   8.603 -0.2114  1.0560  0.0526
   21MOL0     C 2677   1.611   8.850   8.639 -0.9646  0.8763  0.1473
   21MOL0     C 2678   1.490   8.857   8.730  0.2267  0.0992 -0.3151
   21MOL0     C 2679   1.462   8.721   8.794 -0.6690 -0.2198 -0.0465
   21MOL0     C 2680   1.364   8.740   8.903  0.5552 -0.3449  0.7373
   21MOL0     C 2681   1.296   8.612   8.928 -0.3715 -0.8525  0.3101
   21MOL0     C 2682   1.388   8.538   9.026 -0.2855 -0.1742  0.8180
   21MOL0     C 2683   1.346   8.399   9.064 -0.4115  0.6745  1.0656
   21MOL0    Cl 2684   1.365   8.289   8.916 -0.2001  0.5600 -0.5611
   21MOL0     C 2685   1.865   9.196   8.581 -0.0795 -0.8677 -0.1193
   21MOL0     C 2686   1.981   9.265   8.545  0.7931  0.9166 -0.6868
   21MOL0     O 2687   2.186   9.466   8.730  0.2739  0.5498 -0.4668
   21MOL0     C 2688   2.422   9.571   8.690  1.5788  0.6675 -0.2195
   21MOL0     C 2689   2.550   9.622   8.688  0.0549  0.0892  0.8068
   21MOL0     N 2690   3.075  10.115   8.905 -0.0059  0.2216 -0.1722
   21MOL0     N 2691   3.148  10.216   8.917 -0.2161  0.3367 -0.0022
   21MOL0     C 2692   2.827  10.124   8.123 -0.1453  0.1100 -0.8740
   21MOL0     C 2693   2.704  10.090   8.071  0.1884 -0.0271 -0.6065
   21MOL0     C 2694   2.365   9.805   7.907  0.2089 -0.1052 -1.0051
   21MOL0     C 2695   2.316   9.926   7.862  0.0310  0.1017  0.2051
   21MOL0     C 2696   2.178   9.941   7.826 -0.1064  0.5474  1.0454
   21MOL0     C 2697   2.090   9.834   7.831  0.2731 -0.2067  0.3804
   21MOL0     O 2698   1.950   9.861   7.808  0.6099 -0.0717  0.1280
   21MOL0     C 2699   1.897   9.765   7.717 -0.2477 -0.0619 -0.3435
   21MOL0     C 2700   1.842   9.836   7.597 -0.3250  0.2715 -0.0255
   21MOL0     C 2701   1.702   9.881   7.633 -0.2098 -0.7594  0.2262
   21MOL0     C 2702   1.627   9.941   7.509  0.6368  0.4214  0.2037
   21MOL0     C 2703   1.635   9.847   7.391  0.7418 -0.2250  0.1503
   21MOL0     C 2704   1.615   9.772   7.302  0.0243 -0.3700 -0.2277
   21MOL0     C 2705   2.140   9.708   7.882 -0.6142 -0.7965  0.4484
   21MOL0     C 2706   2.275   9.698   7.913  0.1590  0.0472 -0.0304
   21MOL0     H 2707   2.807   9.776   7.963  3.5813  0.4094 -2.0104
   21MOL0     H 2708   3.013   9.856   8.046  0.4248 -0.2423  0.0570
   21MOL0     H 2709   3.149   9.884   8.213  1.4721 -0.3804 -0.5029
   21MOL0     H 2710   3.071   9.952   8.340 -1.6092 -0.3504 -1.9676
   21MOL0     H 2711   3.326  10.075   8.199  0.8281  0.9338  0.7641
   21MOL0     H 2712   3.332  10.002   8.357  2.3629  2.2150 -0.4488
   21MOL0     H 2713   3.195  10.164   8.458  1.1495 -0.0593 -0.0752
   21MOL0     H 2714   3.168  10.251   8.303  0.6360  1.5271  1.6426
   21MOL0     H 2715   3.440  10.185   8.411  1.1539 -0.7257 -4.3703
   21MOL0     H 2716   3.397  10.290   8.278  0.6908  0.1410  0.2194
   21MOL0     H 2717   3.281  10.450   8.419 -1.3999  0.9161  3.5264
   21MOL0     H 2718   3.456  10.430   8.469  0.5550  0.2334  0.1808
   21MOL0     H 2719   3.233  10.300   8.622  0.7297 -1.7601  1.6930
   21MOL0     H 2720   3.289  10.464   8.660  2.3927 -0.0220  0.9129
   21MOL0     H 2721   3.468  10.212   8.659 -1.7288  0.8331 -5.0094
   21MOL0     H 2722   3.510  10.379   8.697  0.2266  0.3832  1.5276
   21MOL0     H 2723   3.346  10.389   8.874 -1.5639 -0.3075 -1.3207
   21MOL0     H 2724   3.471  10.274   8.911 -0.3131 -1.3756 -0.9650
   21MOL0     H 2725   3.349  10.009   8.765  0.5168  2.7428 -0.9145
   21MOL0     H 2726   3.021   9.862   8.881  2.2771 -0.1433  1.3783
   21MOL0     H 2727   3.178   9.823   8.819 -0.1820  1.2772  0.9571
   21MOL0     H 2728   3.113   9.896   8.584 -0.2231 -0.6725 -0.3564
   21MOL0     H 2729   2.951   9.948   8.642 -0.3278  0.3100  0.6327
   21MOL0     H 2730   3.005   9.708   8.532 -0.5996  0.1307  0.9764
   21MOL0     H 2731   3.034   9.656   8.704  1.8355 -0.1411 -1.1757
   21MOL0     H 2732   2.781   9.802   8.602 -1.0709 -0.5585 -0.5237
   21MOL0     H 2733   2.815   9.742   8.763 -0.2244 -3.1329  0.6589
   21MOL0     H 2734   2.686   9.380   8.493 -1.4497 -1.2568 -1.4597
   21MOL0     H 2735   2.465   9.285   8.503 -3.4530  0.1746 -0.3130
   21MOL0     H 2736   2.177   9.130   8.783  1.3834  4.1893  0.9698
   21MOL0     H 2737   1.970   9.017   8.842 -1.9822  1.1707  1.3864
   21MOL0     H 2738   1.740   8.955   8.522 -0.9609 -2.2780  0.7031
   21MOL0     H 2739   1.585   9.049   8.583 -0.1359  1.7524  1.6621
   21MOL0     H 2740   1.689   8.789   8.686  0.7888  0.8674 -2.5694
   21MOL0     H 2741   1.582   8.797   8.548  1.4051 -0.9310  0.3418
   21MOL0     H 2742   1.408   8.887   8.665  2.1001 -0.3875 -3.0509
   21MOL0     H 2743   1.509   8.935   8.805 -0.5539  0.0661 -0.0731
   21MOL0     H 2744   1.421   8.660   8.713 -1.3209  2.0459 -1.5239
   21MOL0     H 2745   1.551   8.668   8.828 -0.2602  0.4752 -0.0193
   21MOL0     H 2746   1.294   8.811   8.859  3.6426  3.0550  0.7639
   21MOL0     H 2747   1.408   8.789   8.990  0.8425  1.4231 -0.3541
   21MOL0     H 2748   1.266   8.569   8.832 -2.5546  2.7342 -0.8226
   21MOL0     H 2749   1.201   8.635   8.977  0.2264  2.9857 -0.0172
   21MOL0     H 2750   1.489   8.540   8.983 -0.9610  3.8654 -1.0442
   21MOL0     H 2751   1.385   8.593   9.120 -4.2401 -1.2437  1.4838
   21MOL0     H 2752   1.249   8.386   9.112 -0.6823 -4.1090 -0.2098
   21MOL0     H 2753   1.426   8.364   9.130  1.8753  1.4671 -1.1189
   21MOL0     H 2754   1.769   9.231   8.543 -0.0546 -0.7331 -0.0607
   21MOL0     H 2755   1.996   9.343   8.471 -0.2278  1.2309 -0.5709
   21MOL0     H 2756   2.347   9.633   8.739  1.5705  1.2878 -0.9851
   21MOL0     H 2757   2.574   9.715   8.738 -0.1611  1.0553 -0.8140
   21MOL0     H 2758   2.830  10.215   8.182 -2.5050 -0.9586  1.0626
   21MOL0     H 2759   2.621  10.160   8.074  2.1500  2.4002  0.3575
   21MOL0     H 2760   2.367  10.022   7.871 -2.2564  1.2482  2.1357
   21MOL0     H 2761   2.142  10.042   7.810 -0.5561  0.2384  0.0424
   21MOL0     H 2762   1.819   9.703   7.761  1.4329 -0.4045  2.4004
   21MOL0     H 2763   1.974   9.698   7.679 -1.5741 -0.7485 -1.9516
   21MOL0     H 2764   1.907   9.923   7.583  1.5219 -0.5891  2.5241
   21MOL0     H 2765   1.840   9.762   7.516 -1.1375 -0.8235  0.9654
   21MOL0     H 2766   1.710   9.960   7.708  0.5055 -0.4505 -0.1680
   21MOL0     H 2767   1.645   9.802   7.683  0.2570 -1.8603 -0.9414
   21MOL0     H 2768   1.522   9.954   7.536  0.8036 -3.1844  3.3360
   21MOL0     H 2769   1.664  10.040   7.480 -0.8057  0.8438 -0.3108
   21MOL0     H 2770   1.597   9.699   7.225  1.1219 -1.0163  0.0974
   21MOL0     H 2771   2.077   9.620   7.892 -1.7204 -0.2381 -1.1672
   21MOL0     H 2772   2.313   9.609   7.961 -1.6841 -0.8810 -0.2028
   22MOL0     O 2773   3.602   3.587   2.734 -0.1501 -0.2699 -0.1715
   22MOL0     C 2774   3.519   3.531   2.673 -0.1921 -0.7974  0.3586
   22MOL0     O 2775   3.544   3.452   2.559 -0.2328  0.4945  0.0027
   22MOL0     C 2776   3.679   3.460   2.519 -1.1425  0.1394  0.2324
   22MOL0     C 2777   3.736   3.567   2.448 -0.0919 -0.4362 -0.0630
   22MOL0     C 2778   3.873   3.560   2.419 -0.1058 -1.0142 -0.3732
   22MOL0     C 2779   3.951   3.454   2.466 -0.6007  0.4087  0.4465
   22MOL0     O 2780   4.095   3.449   2.440  0.5569 -0.5694 -0.6404
   22MOL0     C 2781   4.192   3.367   2.512  0.2516  0.0433 -0.2315
   22MOL0     C 2782   4.334   3.408   2.500 -0.1421 -0.0758  0.0435
   22MOL0     C 2783   4.361   3.551   2.546  0.0143  0.3284 -0.1136
   22MOL0     C 2784   4.515   3.579   2.533 -0.1519  0.5462  0.6668
   22MOL0     C 2785   4.531   3.726   2.591  0.4636  0.2449 -0.2072
   22MOL0     C 2786   4.454   3.842   2.531 -0.4710 -0.3003  0.0770
   22MOL0     C 2787   4.511   3.977   2.581 -0.0637 -0.0705 -0.5258
   22MOL0     C 2788   4.482   4.005   2.733 -0.4252  0.2084 -0.2104
   22MOL0     N 2789   4.508   4.147   2.771 -0.6201  0.1868 -0.5999
   22MOL0     C 2790   4.628   4.201   2.810 -0.3562  0.2446 -0.0245
   22MOL0     C 2791   4.590   4.319   2.859  0.0376  0.3523  0.4245
   22MOL0     C 2792   4.692   4.409   2.915 -0.4676  0.0379  0.1386
   22MOL0     C 2793   4.697   4.531   2.811  0.2706 -0.2978 -0.0428
   22MOL0     C 2794   4.801   4.632   2.852  0.1453 -0.4680 -0.3854
   22MOL0     C 2795   4.797   4.760   2.772 -0.6829 -0.5337  0.0402
   22MOL0     O 2796   4.837   4.738   2.640  0.1038 -0.2763 -0.2062
   22MOL0     C 2797   4.971   4.740   2.604 -0.3737  0.1803  0.4887
   22MOL0     C 2798   4.991   4.745   2.465 -0.7827 -0.6261 -0.0062
   22MOL0     C 2799   5.119   4.753   2.415 -0.3388 -1.0056 -0.4218
   22MOL0     C 2800   5.237   4.762   2.492  1.1492 -0.2341 -0.5465
   22MOL0     C 2801   5.369   4.774   2.434 -0.2856 -0.2341  0.2765
   22MOL0     O 2802   5.470   4.760   2.532 -0.9305 -0.3180 -0.6619
   22MOL0     C 2803   5.599   4.746   2.493  0.1058 -0.0630 -0.1408
   22MOL0     C 2804   5.702   4.748   2.590  0.3431  0.6604 -0.9608
   22MOL0     C 2805   5.837   4.745   2.559 -0.0161  0.1519  0.4472
   22MOL0     C 2806   5.883   4.737   2.425  0.3486 -0.4355  0.1805
   22MOL0     O 2807   6.016   4.723   2.412  0.0505 -0.2843 -0.2600
   22MOL0     C 2808   6.080   4.661   2.301  0.1385 -0.0218  0.3132
   22MOL0     C 2809   6.149   4.775   2.219 -0.9267 -0.1985  0.1177
   22MOL0     C 2810   6.290   4.822   2.274  0.5759 -0.5649 -0.2460
   22MOL0     C 2811   6.393   4.715   2.221  0.4629  0.3103  0.5863
   22MOL0     C 2812   6.522   4.739   2.296 -0.2087  0.4399  0.1749
   22MOL0     C 2813   6.619   4.632   2.248 -0.1627  0.0624 -1.0592
   22MOL0     C 2814   6.766   4.652   2.300  0.2662  0.2299 -0.7748
   22MOL0     C 2815   6.836   4.521   2.294  0.3834 -0.3340  0.1247
   22MOL0    Cl 2816   7.015   4.547   2.309  0.3773  0.2390 -0.5719
   22MOL0     C 2817   5.782   4.730   2.329  0.9857  0.7206 -0.4989
   22MOL0     C 2818   5.649   4.732   2.358  0.0170  0.3911 -0.0494
   22MOL0     O 2819   5.383   4.789   2.312  0.7122  0.5058  0.2278
   22MOL0     C 2820   5.216   4.754   2.639 -0.0708 -0.0265  0.6160
   22MOL0     C 2821   5.085   4.740   2.693  0.2481  0.8871 -0.3877
   22MOL0     N 2822   4.453   4.335   2.848  0.4027 -0.0179 -0.0361
   22MOL0     N 2823   4.410   4.233   2.780  0.6343 -1.3973  0.5011
   22MOL0     C 2824   3.891   3.340   2.532 -0.5895 -0.6646  1.2503
   22MOL0     C 2825   3.753   3.350   2.558 -0.0352 -0.2357 -0.2008
   22MOL0     C 2826   3.378   3.534   2.719 -1.4678 -0.1730  0.9006
   22MOL0     C 2827   3.346   3.608   2.831  0.9432  0.3216  0.3468
   22MOL0     C 2828   3.219   3.593   2.890  0.7063 -0.2269 -0.0422
   22MOL0     C 2829   3.114   3.521   2.828  0.2759 -0.1949 -0.4805
   22MOL0     O 2830   2.991   3.530   2.890  0.1943 -1.0749  0.8353
   22MOL0     C 2831   2.882   3.455   2.837  0.6926  0.0518 -0.2803
   22MOL0     C 2832   2.765   3.464   2.942 -0.0007  0.1188  0.0544
   22MOL0     C 2833   2.681   3.342   2.916  0.2002 -0.7701  0.0647
   22MOL0     C 2834   2.556   3.348   3.009 -0.0321 -0.0821  0.0703
   22MOL0     C 2835   2.462   3.457   2.990 -0.2305  0.0982  0.7650
   22MOL0     C 2836   2.374   3.542   2.978  0.0784 -0.7270  0.4397
   22MOL0     C 2837   3.147   3.458   2.706 -0.6281 -0.7687  0.9203
   22MOL0     C 2838   3.277   3.458   2.655  0.8938 -0.2161  0.3640
   22MOL0     H 2839   3.670   3.651   2.427 -0.1773  0.1092  2.1316
   22MOL0     H 2840   3.935   3.633   2.369  1.3773 -1.0354  1.3432
   22MOL0     H 2841   4.168   3.262   2.494  0.0502  0.1963 -0.9136
   22MOL0     H 2842   4.166   3.367   2.618 -0.0043  0.9534 -0.2807
   22MOL0     H 2843   4.364   3.386   2.397 -0.6379 -1.0530  0.0999
   22MOL0     H 2844   4.397   3.334   2.549 -0.3167  0.3814  0.9874
   22MOL0     H 2845   4.335   3.568   2.650  4.3826 -2.3304  1.7104
   22MOL0     H 2846   4.306   3.619   2.480 -1.8678 -0.3382  0.7065
   22MOL0     H 2847   4.565   3.513   2.604 -1.2537  0.5865  1.5094
   22MOL0     H 2848   4.557   3.569   2.432 -1.3926  2.3994 -0.0975
   22MOL0     H 2849   4.636   3.755   2.584  0.0365  3.0200  2.6216
   22MOL0     H 2850   4.506   3.725   2.697 -1.8085  0.4627 -0.7009
   22MOL0     H 2851   4.345   3.832   2.536 -0.4592 -0.6792 -0.3984
   22MOL0     H 2852   4.492   3.841   2.429 -0.1340  1.0747  0.1646
   22MOL0     H 2853   4.616   3.986   2.553  0.2611  1.1929  0.9735
   22MOL0     H 2854   4.458   4.061   2.534  2.8420  2.0824 -0.2432
   22MOL0     H 2855   4.553   3.952   2.798  0.6856  1.8922  0.0249
   22MOL0     H 2856   4.382   3.975   2.766  0.3847 -0.8194  1.4161
   22MOL0     H 2857   4.728   4.158   2.804  0.6319  2.3305  0.7215
   22MOL0     H 2858   4.783   4.350   2.935 -0.2646  0.2258 -0.2260
   22MOL0     H 2859   4.664   4.452   3.012  0.3520 -3.0373  1.8725
   22MOL0     H 2860   4.599   4.578   2.805  0.9054  0.9150 -2.0673
   22MOL0     H 2861   4.720   4.491   2.712 -1.4381 -0.4153 -0.4186
   22MOL0     H 2862   4.789   4.654   2.958  1.4568 -1.1757 -0.0654
   22MOL0     H 2863   4.896   4.581   2.832  0.0303 -0.4613 -0.9815
   22MOL0     H 2864   4.862   4.835   2.819 -3.3887  1.7112  0.4653
   22MOL0     H 2865   4.695   4.798   2.781  0.1459  1.7490  0.7081
   22MOL0     H 2866   4.910   4.752   2.393 -0.5891 -0.3527 -0.1969
   22MOL0     H 2867   5.123   4.760   2.306  0.4651 -1.4489 -0.4256
   22MOL0     H 2868   5.676   4.769   2.693 -0.4802 -2.7730 -0.3502
   22MOL0     H 2869   5.902   4.733   2.645  0.8134 -0.5162 -0.2519
   22MOL0     H 2870   6.012   4.609   2.232 -1.2624 -0.3892  1.9221
   22MOL0     H 2871   6.165   4.602   2.336  0.0349 -0.8395 -0.7574
   22MOL0     H 2872   6.085   4.863   2.224  0.7717  1.3371 -2.4890
   22MOL0     H 2873   6.155   4.751   2.112 -0.1326 -0.4511  0.2094
   22MOL0     H 2874   6.288   4.829   2.383 -1.3701  0.7215 -0.3133
   22MOL0     H 2875   6.305   4.919   2.227  1.0320 -0.6990 -0.3828
   22MOL0     H 2876   6.352   4.618   2.251 -0.4121  0.0694 -1.2421
   22MOL0     H 2877   6.417   4.724   2.115 -0.8899  2.7018  0.4083
   22MOL0     H 2878   6.504   4.729   2.403 -1.6821  0.5636 -0.0372
   22MOL0     H 2879   6.568   4.837   2.282  0.3582  0.1462 -0.0276
   22MOL0     H 2880   6.627   4.635   2.139  0.0002  0.0970 -1.0474
   22MOL0     H 2881   6.599   4.526   2.263  1.9749 -0.5991 -2.3729
   22MOL0     H 2882   6.826   4.723   2.242 -0.8007  2.0721  0.2555
   22MOL0     H 2883   6.760   4.685   2.404  1.1597 -1.6996 -0.0664
   22MOL0     H 2884   6.828   4.479   2.193  2.3343  1.6872 -0.9685
   22MOL0     H 2885   6.789   4.451   2.363 -1.9475  3.7750  3.1909
   22MOL0     H 2886   5.809   4.717   2.224 -2.0482 -1.1901 -1.1534
   22MOL0     H 2887   5.588   4.713   2.270  1.8143 -2.8226 -0.7283
   22MOL0     H 2888   5.309   4.770   2.694  0.8430  4.1208 -1.6949
   22MOL0     H 2889   5.080   4.752   2.800 -0.3220 -1.4639 -0.0919
   22MOL0     H 2890   3.940   3.246   2.553  0.4189 -0.1511  1.2425
   22MOL0     H 2891   3.712   3.263   2.607  2.7378 -1.9007 -0.6180
   22MOL0     H 2892   3.411   3.671   2.890 -2.1324  0.1407  4.3600
   22MOL0     H 2893   3.198   3.645   2.983  0.5666 -0.2922 -0.0382
   22MOL0     H 2894   2.923   3.354   2.842 -0.1573 -0.4359 -2.2187
   22MOL0     H 2895   2.844   3.476   2.737  0.0679 -2.1476 -0.5575
   22MOL0     H 2896   2.815   3.460   3.039 -2.0083 -0.0628  1.1368
   22MOL0     H 2897   2.709   3.557   2.932 -0.9367 -0.6196 -2.0353
   22MOL0     H 2898   2.750   3.269   2.959  0.4063 -1.4161 -1.3129
   22MOL0     H 2899   2.649   3.329   2.812  1.5458 -0.2041 -0.4324
   22MOL0     H 2900   2.502   3.253   2.997 -0.0910 -0.1273  0.6697
   22MOL0     H 2901   2.583   3.347   3.115 -1.1625 -0.2646  0.3791
   22MOL0     H 2902   2.288   3.607   2.983 -0.3901 -1.3010 -0.0765
   22MOL0     H 2903   3.070   3.409   2.647 -0.6605 -0.1466  0.4264
   22MOL0     H 2904   3.298   3.399   2.567  2.3645 -2.2547  1.9963
   23MOL0     O 2905   4.946   8.946   5.749 -0.1222  0.4962 -0.4756
   23MOL0     C 2906   5.045   9.018   5.771 -0.5015  0.2603  0.6553
   23MOL0     O 2907   5.031   9.134   5.844 -0.0447 -0.6801  0.3924
   23MOL0     C 2908   4.911   9.207   5.862 -0.3434  0.4638  0.2071
   23MOL0     C 2909   4.893   9.291   5.974  0.7268  0.4899 -0.1306
   23MOL0     C 2910   4.774   9.366   5.985  0.8688  0.6166 -0.1831
   23MOL0     C 2911   4.676   9.360   5.887  0.3099  0.4305 -0.2726
   23MOL0     O 2912   4.566   9.439   5.875 -0.1024 -0.4181  0.4402
   23MOL0     C 2913   4.577   9.559   5.789  0.4355  0.0691 -0.1574
   23MOL0     C 2914   4.509   9.689   5.849  0.1542  0.4979 -0.3081
   23MOL0     C 2915   4.496   9.786   5.727 -0.2455  0.7223 -0.0159
   23MOL0     C 2916   4.629   9.852   5.697  0.4155 -0.4301 -0.4333
   23MOL0     C 2917   4.631   9.920   5.556  0.2741  0.9861  0.1865
   23MOL0     C 2918   4.646   9.827   5.439  0.5059 -0.6274  0.1271
   23MOL0     C 2919   4.628   9.911   5.307 -0.0741 -0.5037  0.1988
   23MOL0     C 2920   4.746  10.013   5.282 -0.0182  0.5971  0.2890
   23MOL0     N 2921   4.872   9.939   5.243 -0.2547  0.2810  0.2475
   23MOL0     C 2922   4.892   9.823   5.165  0.6084  0.0420  0.0134
   23MOL0     C 2923   5.018   9.828   5.130 -0.1047  0.2852 -0.1416
   23MOL0     C 2924   5.093   9.727   5.049  0.2463 -0.4623  0.2885
   23MOL0     C 2925   5.184   9.638   5.130 -0.0087 -0.7121  0.2961
   23MOL0     C 2926   5.316   9.702   5.167  0.8672  0.8621  0.7754
   23MOL0     C 2927   5.410   9.589   5.210 -0.1505  0.5024  0.6244
   23MOL0     O 2928   5.457   9.501   5.107  0.2051 -0.1844 -0.2670
   23MOL0     C 2929   5.570   9.526   5.036 -1.0570  1.4857 -0.0174
   23MOL0     C 2930   5.605   9.433   4.936 -0.0960  0.7192  0.5443
   23MOL0     C 2931   5.713   9.451   4.846  0.5164 -0.1364 -0.1382
   23MOL0     C 2932   5.779   9.578   4.849  0.2410 -0.2783 -0.1519
   23MOL0     C 2933   5.875   9.608   4.734 -0.2299 -0.8035 -0.3330
   23MOL0     O 2934   5.919   9.739   4.739 -0.3543  0.2874 -0.3133
   23MOL0     C 2935   6.003   9.767   4.636  0.7143  0.2281 -0.6573
   23MOL0     C 2936   5.941   9.783   4.509 -0.3109  0.8044 -0.3642
   23MOL0     C 2937   6.016   9.823   4.397 -0.9509  0.0385 -0.0127
   23MOL0     C 2938   6.154   9.866   4.412  0.2497  0.7965  0.1391
   23MOL0     O 2939   6.206   9.914   4.291  0.3240  0.4246  0.1654
   23MOL0     C 2940   6.342   9.901   4.261 -0.5818 -0.7797 -0.0597
   23MOL0     C 2941   6.412  10.026   4.318  0.8797 -0.4472  0.7994
   23MOL0     C 2942   6.559  10.016   4.281 -0.4996 -0.3032  0.0729
   23MOL0     C 2943   6.641  10.131   4.348 -0.1635  0.3733 -0.0545
   23MOL0     C 2944   6.785  10.138   4.300 -0.4574  0.0041 -0.2769
   23MOL0     C 2945   6.863  10.014   4.343  0.4035 -0.6379  0.2487
   23MOL0     C 2946   7.010  10.033   4.281  0.4086  0.0689  0.8310
   23MOL0     C 2947   7.070   9.896   4.246  0.1010  0.2064 -0.4188
   23MOL0    Cl 2948   7.238   9.919   4.193  0.0397  0.3488  0.4431
   23MOL0     C 2949   6.212   9.850   4.538 -0.8487 -0.7413  1.0263
   23MOL0     C 2950   6.141   9.811   4.646  0.0595  0.5898 -0.8105
   23MOL0     O 2951   5.906   9.528   4.647 -1.2986 -0.0582 -0.2149
   23MOL0     C 2952   5.740   9.677   4.945  0.3761 -0.7549  0.0676
   23MOL0     C 2953   5.642   9.649   5.039 -1.2449 -0.7571 -0.2990
   23MOL0     N 2954   5.074   9.932   5.197 -0.2527  0.3228 -1.1057
   23MOL0     N 2955   4.987   9.992   5.264 -0.1479  0.0480  0.4919
   23MOL0     C 2956   4.696   9.281   5.781 -0.0739  0.2643  0.0618
   23MOL0     C 2957   4.811   9.200   5.765 -0.3536  0.2578 -0.5214
   23MOL0     C 2958   5.180   8.974   5.714  0.5608  0.0411  0.2434
   23MOL0     C 2959   5.292   9.033   5.768  0.6559 -0.4021 -0.2961
   23MOL0     C 2960   5.423   9.014   5.717  0.5833  0.7437 -0.9446
   23MOL0     C 2961   5.441   8.932   5.608 -0.9473  1.0100  0.8883
   23MOL0     O 2962   5.558   8.915   5.544 -0.0010  0.5114 -1.0061
   23MOL0     C 2963   5.674   8.985   5.591  0.4348  0.1841 -0.5078
   23MOL0     C 2964   5.796   8.962   5.502  0.4065  0.9246 -0.4602
   23MOL0     C 2965   5.903   9.080   5.511 -1.0905 -0.1532  0.5051
   23MOL0     C 2966   6.002   9.070   5.396  0.0154 -0.1963  0.4361
   23MOL0     C 2967   6.090   8.956   5.405 -0.1193 -0.6205  1.0116
   23MOL0     C 2968   6.167   8.862   5.415 -0.1655 -0.3295 -0.7931
   23MOL0     C 2969   5.333   8.861   5.562 -0.1919 -0.5811 -0.0729
   23MOL0     C 2970   5.203   8.884   5.606 -0.2654 -0.2004 -0.3595
   23MOL0     H 2971   4.969   9.287   6.052 -2.8467 -2.9612  3.6665
   23MOL0     H 2972   4.761   9.433   6.069 -1.3521 -1.3516  1.1834
   23MOL0     H 2973   4.538   9.527   5.692  1.2946  0.4883 -0.6462
   23MOL0     H 2974   4.684   9.575   5.776  0.6342  0.4387  1.6152
   23MOL0     H 2975   4.577   9.727   5.926  0.5798 -2.3049  0.8516
   23MOL0     H 2976   4.411   9.667   5.894  0.6653 -0.2453  0.4915
   23MOL0     H 2977   4.419   9.861   5.747 -3.0892 -1.7518 -0.8082
   23MOL0     H 2978   4.452   9.730   5.643 -3.7870 -0.3105  2.2828
   23MOL0     H 2979   4.639   9.922   5.780  0.2941 -2.9775  1.8431
   23MOL0     H 2980   4.716   9.787   5.710  1.0537  0.8163  2.2473
   23MOL0     H 2981   4.725   9.977   5.561  1.1691 -0.5325  1.9602
   23MOL0     H 2982   4.545   9.987   5.555  0.2108  0.9253 -1.8023
   23MOL0     H 2983   4.569   9.749   5.439  0.1821 -0.3671 -2.1108
   23MOL0     H 2984   4.745   9.783   5.452  0.7351 -0.5527 -1.2914
   23MOL0     H 2985   4.607   9.840   5.226 -0.9596 -1.3593  1.1445
   23MOL0     H 2986   4.540   9.975   5.310  2.0557  2.6733 -0.1367
   23MOL0     H 2987   4.766  10.074   5.370 -0.8452  1.0750  0.1470
   23MOL0     H 2988   4.719  10.080   5.200  0.6196  0.0090 -0.4234
   23MOL0     H 2989   4.810   9.758   5.135  1.7214 -1.4305  0.0763
   23MOL0     H 2990   5.142   9.776   4.963  0.6342 -1.6980 -0.2143
   23MOL0     H 2991   5.022   9.657   5.004  0.0314 -0.8735  1.2442
   23MOL0     H 2992   5.193   9.547   5.072 -1.6238 -1.6106  1.3642
   23MOL0     H 2993   5.136   9.611   5.225  2.4637  0.5827  2.0302
   23MOL0     H 2994   5.364   9.754   5.083  0.2564  0.7402  0.3420
   23MOL0     H 2995   5.309   9.772   5.250 -0.0997  0.1912  1.2798
   23MOL0     H 2996   5.354   9.520   5.274  0.6743 -2.0285 -1.1960
   23MOL0     H 2997   5.489   9.631   5.273 -0.2363 -0.3638  1.3390
   23MOL0     H 2998   5.547   9.344   4.911  1.5362 -0.1498 -0.3150
   23MOL0     H 2999   5.732   9.374   4.772  1.3787  1.6879 -1.9121
   23MOL0     H 3000   5.838   9.753   4.497 -0.2313  0.5699 -0.4568
   23MOL0     H 3001   5.985   9.823   4.293  2.5698  1.4756 -1.2142
   23MOL0     H 3002   6.353   9.902   4.152 -0.3562  2.1776 -0.0988
   23MOL0     H 3003   6.382   9.810   4.305  0.5590 -0.8147 -1.1097
   23MOL0     H 3004   6.398  10.045   4.425  0.4995 -0.8927  0.8343
   23MOL0     H 3005   6.376  10.117   4.268  3.8822  0.1382 -0.5055
   23MOL0     H 3006   6.558  10.016   4.172 -0.2616 -2.0217  0.0495
   23MOL0     H 3007   6.605   9.921   4.309 -1.0637 -1.1248 -1.6754
   23MOL0     H 3008   6.591  10.225   4.321  1.3961  0.4841 -2.8932
   23MOL0     H 3009   6.634  10.113   4.456 -3.3358 -1.3356 -0.4261
   23MOL0     H 3010   6.836  10.219   4.353  1.5904 -1.3503 -0.0831
   23MOL0     H 3011   6.780  10.149   4.192  0.5431 -1.4349 -0.4847
   23MOL0     H 3012   6.809   9.922   4.316 -0.2404 -0.3022  0.3706
   23MOL0     H 3013   6.861  10.011   4.452 -1.7340  0.4221  0.2831
   23MOL0     H 3014   6.999  10.075   4.181 -1.9174  0.6187  1.2727
   23MOL0     H 3015   7.077  10.096   4.341  1.4603 -0.2427  0.0138
   23MOL0     H 3016   7.016   9.839   4.171  0.4840 -0.1088 -0.4590
   23MOL0     H 3017   7.066   9.843   4.342 -1.8267  0.3666 -0.3762
   23MOL0     H 3018   6.313   9.888   4.543 -2.2131  4.6365 -2.8226
   23MOL0     H 3019   6.188   9.796   4.743 -1.2785  1.4816  0.0050
   23MOL0     H 3020   5.783   9.777   4.944  0.8602 -0.9229 -2.4480
   23MOL0     H 3021   5.611   9.729   5.104 -0.1549 -1.5756  1.2927
   23MOL0     H 3022   4.632   9.284   5.693 -0.0068  0.2112  0.0103
   23MOL0     H 3023   4.824   9.136   5.678  2.3596  0.7737 -0.5590
   23MOL0     H 3024   5.285   9.097   5.856 -1.3473 -0.9291 -0.0336
   23MOL0     H 3025   5.507   9.059   5.769  2.0878 -0.7507 -1.9818
   23MOL0     H 3026   5.696   8.952   5.693  0.1782 -2.4401 -1.2187
   23MOL0     H 3027   5.645   9.090   5.582 -4.1326 -0.8232  0.3434
   23MOL0     H 3028   5.836   8.861   5.513 -1.4169  0.1882 -0.3630
   23MOL0     H 3029   5.748   8.976   5.405 -0.5874 -1.9700 -0.4848
   23MOL0     H 3030   5.956   9.077   5.607  0.7193 -0.7546 -0.4776
   23MOL0     H 3031   5.860   9.180   5.498 -0.0640  0.0285 -1.9741
   23MOL0     H 3032   5.945   9.065   5.303  2.2516 -0.9236 -0.9648
   23MOL0     H 3033   6.056   9.165   5.400 -0.1713 -0.0740  4.1591
   23MOL0     H 3034   6.244   8.788   5.425  2.1119  1.6477 -2.5263
   23MOL0     H 3035   5.340   8.792   5.478 -0.7793 -0.4034 -0.2739
   23MOL0     H 3036   5.119   8.839   5.554 -1.4808  1.6228 -0.0637
   24MOL0     O 3037   1.511  10.993   3.588  0.0004  0.3594  0.1512
   24MOL0     C 3038   1.536  10.986   3.466 -0.2452  0.5987 -0.0415
   24MOL0     O 3039   1.440  10.986   3.363  0.3509  0.4104  0.7081
   24MOL0     C 3040   1.305  10.987   3.400 -0.1255 -0.9972  1.1517
   24MOL0     C 3041   1.252  11.070   3.508 -0.8708 -0.4382  0.4734
   24MOL0     C 3042   1.116  11.091   3.526 -0.2318 -0.0829  0.1526
   24MOL0     C 3043   1.026  11.004   3.452  1.0031  0.0164 -0.8267
   24MOL0     O 3044   0.888  11.023   3.472 -0.1669  0.3875  0.1871
   24MOL0     C 3045   0.849  11.051   3.611  0.2169  0.1084  0.5281
   24MOL0     C 3046   0.705  10.998   3.638  0.1484  0.5163 -0.4376
   24MOL0     C 3047   0.606  11.083   3.554  0.4036  0.0039 -0.6038
   24MOL0     C 3048   0.462  11.040   3.565  0.2927  0.1418 -0.5299
   24MOL0     C 3049   0.369  11.132   3.486  0.2063 -0.5012  0.2491
   24MOL0     C 3050   0.259  11.047   3.416 -0.4893  0.1147  0.0347
   24MOL0     C 3051   0.147  10.993   3.504 -0.2813  0.1782 -0.1962
   24MOL0     C 3052   0.030  11.085   3.539 -0.6041  0.0654 -0.1789
   24MOL0     N 3053  -0.089  11.070   3.453 -0.3385  0.3210 -0.6723
   24MOL0     C 3054  -0.153  10.955   3.426  0.2371  0.7342  0.2222
   24MOL0     C 3055  -0.263  10.987   3.351  0.5953 -0.2032 -1.0142
   24MOL0     C 3056  -0.371  10.894   3.301  0.3460  0.6696  0.1788
   24MOL0     C 3057  -0.455  10.826   3.406  0.0075  0.4245  0.2170
   24MOL0     C 3058  -0.534  10.933   3.488  0.0889  0.7364  0.1007
   24MOL0     C 3059  -0.639  10.871   3.578  0.3300  0.0929 -0.6169
   24MOL0     O 3060  -0.722  10.972   3.636 -0.3243  0.4835 -0.7412
   24MOL0     C 3061  -0.840  11.004   3.581 -0.3320  0.3464  0.5084
   24MOL0     C 3062  -0.906  10.942   3.472 -0.0610 -0.1155  0.0603
   24MOL0     C 3063  -1.031  10.973   3.426  0.1704  0.0307 -0.9234
   24MOL0     C 3064  -1.107  11.076   3.495  0.1088 -0.4385  0.2472
   24MOL0     C 3065  -1.239  11.128   3.449 -0.3169 -0.3783  0.2989
   24MOL0     O 3066  -1.289  11.085   3.328 -0.9842 -0.3829 -0.0295
   24MOL0     C 3067  -1.417  11.122   3.290  0.4685  0.1005  0.7413
   24MOL0     C 3068  -1.439  11.250   3.256 -0.0025  0.2283  1.0233
   24MOL0     C 3069  -1.558  11.288   3.205  0.3133  0.2629  0.3647
   24MOL0     C 3070  -1.666  11.202   3.187 -0.6435 -0.3941  0.1089
   24MOL0     O 3071  -1.781  11.241   3.117  0.6667  0.0970 -0.3597
   24MOL0     C 3072  -1.905  11.177   3.143 -0.4422 -0.6878  0.1647
   24MOL0     C 3073  -2.025  11.251   3.072  0.1785 -0.2388 -0.8986
   24MOL0     C 3074  -2.045  11.187   2.942  0.0542 -0.5431 -0.6007
   24MOL0     C 3075  -2.155  11.253   2.862 -0.3036 -0.2352  0.8052
   24MOL0     C 3076  -2.293  11.187   2.881  0.1257 -0.2691 -0.7434
   24MOL0     C 3077  -2.384  11.242   2.766 -0.1902 -0.6748  0.4325
   24MOL0     C 3078  -2.526  11.188   2.755 -0.5957 -0.6320 -0.4758
   24MOL0     C 3079  -2.532  11.034   2.761 -0.6635  0.7868 -0.4410
   24MOL0    Cl 3080  -2.690  10.986   2.730  0.1856  0.2847 -0.1984
   24MOL0     C 3081  -1.657  11.070   3.236 -0.7312 -0.4816  0.7103
   24MOL0     C 3082  -1.530  11.031   3.286 -0.7155 -0.0733 -1.0341
   24MOL0     O 3083  -1.297  11.205   3.523  0.1166  0.3586 -0.5961
   24MOL0     C 3084  -1.040  11.138   3.602  0.7822  0.1159 -0.8654
   24MOL0     C 3085  -0.912  11.103   3.636 -0.1242 -0.6816 -0.5145
   24MOL0     N 3086  -0.255  11.124   3.320  0.0194 -0.5004 -0.0555
   24MOL0     N 3087  -0.153  11.173   3.385  0.3748  0.2613 -0.0529
   24MOL0     C 3088   1.080  10.912   3.364  1.1561  0.1705 -0.0590
   24MOL0     C 3089   1.214  10.905   3.333  0.1731  0.2536  0.5350
   24MOL0     C 3090   1.682  10.989   3.435 -1.1511 -0.3055  0.2570
   24MOL0     C 3091   1.726  10.984   3.297 -0.4727 -0.8912  0.8046
   24MOL0     C 3092   1.864  10.974   3.267  0.6274  0.3753 -0.2946
   24MOL0     C 3093   1.961  10.971   3.369 -0.0093  0.0282  0.1831
   24MOL0     O 3094   2.102  10.967   3.346 -0.2524  0.4423 -0.4514
   24MOL0     C 3095   2.139  11.013   3.215  0.5894 -0.0903 -0.3656
   24MOL0     C 3096   2.277  11.059   3.206 -0.0770  0.6928  0.3259
   24MOL0     C 3097   2.381  10.948   3.184  0.1876  0.6455 -0.0705
   24MOL0     C 3098   2.523  10.994   3.170  0.4997 -0.3792  0.2768
   24MOL0     C 3099   2.542  11.060   3.041  0.4269 -0.0013  0.8695
   24MOL0     C 3100   2.551  11.126   2.937  0.1556 -0.7042  0.2206
   24MOL0     C 3101   1.915  10.980   3.501  0.2540 -0.7400  0.0160
   24MOL0     C 3102   1.777  10.986   3.535  0.1798  0.4796 -0.4078
   24MOL0     H 3103   1.331  11.131   3.551  0.9715 -2.6682  0.4196
   24MOL0     H 3104   1.081  11.168   3.594 -1.4504  0.6062 -1.1996
   24MOL0     H 3105   0.851  11.160   3.617  2.3012  0.2580 -1.4515
   24MOL0     H 3106   0.919  10.998   3.678 -0.0251 -0.5375  0.2753
   24MOL0     H 3107   0.677  11.004   3.744  1.6408 -0.1073  0.0141
   24MOL0     H 3108   0.696  10.891   3.615  1.0817  0.1237  0.8697
   24MOL0     H 3109   0.635  11.083   3.449 -3.4308  2.1007 -1.8590
   24MOL0     H 3110   0.595  11.183   3.597  2.3091  1.7934 -3.8851
   24MOL0     H 3111   0.466  10.944   3.512 -1.9892  0.2906 -1.0934
   24MOL0     H 3112   0.431  11.025   3.669 -2.2686  0.1355 -1.2059
   24MOL0     H 3113   0.419  11.184   3.404 -1.5117  0.5820 -0.1538
   24MOL0     H 3114   0.328  11.212   3.549 -0.3311 -0.1351 -0.5586
   24MOL0     H 3115   0.311  10.969   3.361 -0.7125 -0.9680  1.3072
   24MOL0     H 3116   0.211  11.120   3.350  2.3074  1.6188 -0.4776
   24MOL0     H 3117   0.105  10.913   3.442 -3.2976  0.5750  1.1797
   24MOL0     H 3118   0.192  10.952   3.596  4.3643  0.3857 -2.0845
   24MOL0     H 3119   0.077  11.183   3.529 -0.6101  0.2201  1.2006
   24MOL0     H 3120  -0.000  11.073   3.643 -2.4550  3.0786 -0.2517
   24MOL0     H 3121  -0.115  10.859   3.461  0.4572 -0.5226 -3.0602
   24MOL0     H 3122  -0.314  10.824   3.239  1.1413  3.3951 -2.3899
   24MOL0     H 3123  -0.436  10.940   3.226 -1.0025 -3.5306 -1.5306
   24MOL0     H 3124  -0.385  10.769   3.467 -1.0995 -0.3285  0.8188
   24MOL0     H 3125  -0.530  10.762   3.358  1.5773 -2.0436  0.8726
   24MOL0     H 3126  -0.465  10.983   3.556 -0.1549 -0.1685  1.0454
   24MOL0     H 3127  -0.576  11.000   3.412  0.7882  0.5869 -0.4210
   24MOL0     H 3128  -0.590  10.815   3.658  0.8266  1.2582 -0.0766
   24MOL0     H 3129  -0.704  10.801   3.526  1.9096  0.2611 -2.9804
   24MOL0     H 3130  -0.847  10.872   3.414 -0.3359 -3.0237  2.9739
   24MOL0     H 3131  -1.084  10.923   3.346 -0.8970 -1.0912  0.4280
   24MOL0     H 3132  -1.362  11.327   3.258 -1.0738  1.4272 -0.8707
   24MOL0     H 3133  -1.559  11.383   3.153 -2.8223  0.1782  0.0716
   24MOL0     H 3134  -1.928  11.187   3.250 -0.1069 -2.8206  0.4709
   24MOL0     H 3135  -1.901  11.073   3.110 -2.0474 -1.2615  1.6603
   24MOL0     H 3136  -2.010  11.358   3.053 -1.2732  0.3271  0.9199
   24MOL0     H 3137  -2.121  11.246   3.124 -0.3443  2.8185 -1.3666
   24MOL0     H 3138  -2.060  11.080   2.957  2.1752 -0.8277 -0.2063
   24MOL0     H 3139  -1.953  11.197   2.882  0.5570  2.3722  0.4818
   24MOL0     H 3140  -2.166  11.361   2.874 -2.9303 -0.4551  0.9761
   24MOL0     H 3141  -2.122  11.246   2.758  2.8927 -2.9462  1.8282
   24MOL0     H 3142  -2.320  11.221   2.981  3.5807  0.6178  0.0162
   24MOL0     H 3143  -2.294  11.078   2.873 -0.9707 -0.3959  0.6238
   24MOL0     H 3144  -2.337  11.241   2.667 -1.0515  0.5220 -0.0001
   24MOL0     H 3145  -2.402  11.347   2.791 -0.5387 -0.6109 -0.0813
   24MOL0     H 3146  -2.575  11.227   2.845  1.5326 -1.1900  1.0352
   24MOL0     H 3147  -2.565  11.229   2.662  1.4575  2.2782 -0.1676
   24MOL0     H 3148  -2.496  10.997   2.857  0.3296 -1.1009 -1.4875
   24MOL0     H 3149  -2.466  10.984   2.690  1.0433 -1.6492  2.6126
   24MOL0     H 3150  -1.731  10.991   3.245 -0.4403 -0.5924  2.5352
   24MOL0     H 3151  -1.512  10.930   3.320 -1.1449 -0.0210 -0.6279
   24MOL0     H 3152  -1.086  11.221   3.653 -2.8808 -2.5626  0.6257
   24MOL0     H 3153  -0.867  11.166   3.712 -0.6967  0.8772 -1.4229
   24MOL0     H 3154   1.026  10.821   3.337  1.5202  0.2227 -1.0041
   24MOL0     H 3155   1.254  10.830   3.267  0.2435  0.3856  0.4265
   24MOL0     H 3156   1.664  10.990   3.208  1.0439  2.1156 -0.1681
   24MOL0     H 3157   1.896  10.977   3.164 -1.2191  0.6157 -0.9046
   24MOL0     H 3158   2.075  11.099   3.192 -1.8015 -1.4133  0.9499
   24MOL0     H 3159   2.120  10.944   3.133  4.1033 -0.0773 -1.3443
   24MOL0     H 3160   2.288  11.112   3.111 -1.5912 -1.6483 -1.2566
   24MOL0     H 3161   2.316  11.111   3.295  0.9730  1.7757 -0.7369
   24MOL0     H 3162   2.358  10.880   3.101  0.4298 -0.1271  0.4915
   24MOL0     H 3163   2.390  10.888   3.275 -0.8363 -1.3097 -1.1702
   24MOL0     H 3164   2.539  11.074   3.243  0.6827  1.0297 -1.2504
   24MOL0     H 3165   2.583  10.903   3.177 -1.7207 -1.9449 -0.1501
   24MOL0     H 3166   2.580  11.189   2.855  0.0394  2.4030  2.3780
   24MOL0     H 3167   1.996  10.972   3.573  0.7813  0.2385 -0.4560
   24MOL0     H 3168   1.734  10.972   3.634 -1.3601 -0.8937 -1.2099
   25MOL0     O 3169   4.538  11.094   9.909 -0.5978  0.1122 -0.4605
   25MOL0     C 3170   4.615  11.045   9.828  0.2096  0.1607  0.2496
   25MOL0     O 3171   4.582  10.986   9.714  0.0017  0.0597  0.4134
   25MOL0     C 3172   4.452  10.985   9.667  0.0026 -0.4023 -0.2295
   25MOL0     C 3173   4.344  10.959   9.746 -0.1677  0.6233  0.0137
   25MOL0     C 3174   4.218  10.969   9.693  0.1227  0.4364 -0.6315
   25MOL0     C 3175   4.187  10.990   9.553 -0.3725 -0.4903 -0.1943
   25MOL0     O 3176   4.060  10.994   9.500 -0.1003  0.7281 -0.4022
   25MOL0     C 3177   3.947  10.967   9.580 -0.3696 -0.0797 -0.3383
   25MOL0     C 3178   3.829  11.013   9.482 -0.1870  0.0124 -0.4300
   25MOL0     C 3179   3.687  10.985   9.546  0.3777  0.1578 -0.0326
   25MOL0     C 3180   3.580  11.045   9.462  0.0335 -0.2721  0.1917
   25MOL0     C 3181   3.610  11.072   9.314 -0.0367  0.7270 -0.9989
   25MOL0     C 3182   3.485  11.126   9.252  0.1646  0.0543  0.0889
   25MOL0     C 3183   3.525  11.183   9.119 -0.6439  0.0561 -0.5305
   25MOL0     C 3184   3.418  11.228   9.029  0.6078 -0.5955  0.7296
   25MOL0     N 3185   3.344  11.115   8.964  0.8740 -0.9018  0.5586
   25MOL0     C 3186   3.380  11.032   8.861 -0.2615  0.5745  0.0975
   25MOL0     C 3187   3.283  10.940   8.861 -0.7545  0.2868 -0.1135
   25MOL0     C 3188   3.279  10.810   8.785 -0.0111 -0.3435 -0.1326
   25MOL0     C 3189   3.139  10.765   8.755  0.5831  0.2807  0.8813
   25MOL0     C 3190   3.067  10.676   8.856 -0.2331 -0.3083  0.3304
   25MOL0     C 3191   2.944  10.600   8.782 -0.1621  0.0280 -0.9513
   25MOL0     O 3192   2.993  10.504   8.689  0.2774  0.3122 -0.0067
   25MOL0     C 3193   2.901  10.420   8.618 -0.2962  0.2590  0.3353
   25MOL0     C 3194   2.825  10.474   8.520  0.0326  0.2116 -0.3011
   25MOL0     C 3195   2.733  10.392   8.445 -0.2679  0.0085  0.0063
   25MOL0     C 3196   2.704  10.269   8.498  0.5221  0.0769  0.0960
   25MOL0     C 3197   2.596  10.187   8.436 -0.3794  0.3683 -0.1777
   25MOL0     O 3198   2.553  10.073   8.501 -0.5029  0.0812  0.4102
   25MOL0     C 3199   2.454  10.002   8.442  0.1424 -0.1797 -0.7783
   25MOL0     C 3200   2.319  10.038   8.449  0.3950  0.1849  0.3816
   25MOL0     C 3201   2.224   9.960   8.389  0.2509  0.1553  0.3614
   25MOL0     C 3202   2.264   9.846   8.315  1.0829  0.0294  1.0283
   25MOL0     O 3203   2.171   9.765   8.246  0.1817  0.5860 -0.4356
   25MOL0     C 3204   2.034   9.802   8.236  0.3900  0.3799  0.3513
   25MOL0     C 3205   1.951   9.686   8.165  0.3075 -0.3533 -0.5660
   25MOL0     C 3206   1.812   9.732   8.113 -0.5057 -0.7088 -0.1051
   25MOL0     C 3207   1.728   9.608   8.069 -0.9949 -0.9356  0.3703
   25MOL0     C 3208   1.604   9.675   8.006 -0.1955  0.3742  0.3475
   25MOL0     C 3209   1.519   9.566   7.940  1.3945  1.0670  0.2008
   25MOL0     C 3210   1.436   9.475   8.036 -0.2745 -1.0719  0.4461
   25MOL0     C 3211   1.332   9.393   7.951 -0.3805 -0.0676  0.1341
   25MOL0    Cl 3212   1.260   9.255   8.044  0.1698 -0.0295  0.1114
   25MOL0     C 3213   2.395   9.811   8.313 -0.0678 -0.1245 -0.1706
   25MOL0     C 3214   2.493   9.891   8.377 -0.2174  0.0171 -0.3421
   25MOL0     O 3215   2.548  10.234   8.328 -0.9059  0.1407 -0.0445
   25MOL0     C 3216   2.787  10.207   8.597  0.3153 -0.0076 -0.0881
   25MOL0     C 3217   2.897  10.288   8.647 -0.0071  0.4408  0.0595
   25MOL0     N 3218   3.195  10.962   8.959  0.4259  0.3284  0.4919
   25MOL0     N 3219   3.229  11.067   9.013 -0.4755 -0.7824  0.0286
   25MOL0     C 3220   4.301  10.997   9.468  0.5210 -0.2973 -0.6126
   25MOL0     C 3221   4.425  10.997   9.523 -0.1894 -0.6006 -0.0805
   25MOL0     C 3222   4.759  11.065   9.858 -0.1631 -0.1543 -0.6718
   25MOL0     C 3223   4.849  11.008   9.762  1.3032 -0.3699 -0.2443
   25MOL0     C 3224   4.984  11.004   9.792 -0.3123  0.1021  0.2524
   25MOL0     C 3225   5.043  11.061   9.912  0.0423  0.6587 -0.0345
   25MOL0     O 3226   5.179  11.079   9.943  0.4517  0.1965 -0.8884
   25MOL0     C 3227   5.275  11.053   9.849  0.3015  0.0401 -0.8832
   25MOL0     C 3228   5.411  11.034   9.903 -0.6114 -1.1583 -0.4970
   25MOL0     C 3229   5.439  11.172   9.976  0.1145 -0.4555  0.1334
   25MOL0     C 3230   5.586  11.188  10.024  0.7344 -0.5392  0.3582
   25MOL0     C 3231   5.684  11.174   9.914 -0.7321 -0.0231 -0.6205
   25MOL0     C 3232   5.781  11.160   9.835  0.5288  0.4182 -0.0182
   25MOL0     C 3233   4.950  11.117  10.003  0.1227 -0.0222  0.7767
   25MOL0     C 3234   4.815  11.117   9.981  0.2114  0.2586  0.4548
   25MOL0     H 3235   4.352  10.950   9.854  0.3900  1.8628  0.0952
   25MOL0     H 3236   4.131  10.963   9.759  1.4399 -0.3231  1.1130
   25MOL0     H 3237   3.939  11.030   9.670 -2.0892  2.7141 -2.2752
   25MOL0     H 3238   3.939  10.863   9.612  1.5826 -0.8016 -1.9931
   25MOL0     H 3239   3.834  10.938   9.402  2.0735 -3.1273  2.3548
   25MOL0     H 3240   3.840  11.112   9.437  1.4155 -1.0262 -2.4512
   25MOL0     H 3241   3.673  11.022   9.648  0.1616 -0.0632  0.0184
   25MOL0     H 3242   3.661  10.879   9.553 -3.8622  1.0323  0.3734
   25MOL0     H 3243   3.493  10.978   9.467  0.6796 -1.3749 -2.0812
   25MOL0     H 3244   3.567  11.145   9.503  1.2165 -0.1574  0.3137
   25MOL0     H 3245   3.640  10.974   9.276 -0.8969  0.1113 -0.1314
   25MOL0     H 3246   3.685  11.150   9.297  0.3726  0.0792 -2.3166
   25MOL0     H 3247   3.443  11.206   9.315  0.0088  0.0476 -0.0065
   25MOL0     H 3248   3.421  11.040   9.230 -1.0861  1.0924 -0.4446
   25MOL0     H 3249   3.593  11.267   9.138  0.2687 -0.7637 -0.0678
   25MOL0     H 3250   3.572  11.110   9.053 -1.4274 -0.3692 -0.6330
   25MOL0     H 3251   3.449  11.313   8.969 -0.9917 -1.0815 -0.8688
   25MOL0     H 3252   3.336  11.267   9.090 -0.5300  0.3062 -1.2767
   25MOL0     H 3253   3.472  11.036   8.804  1.8839 -6.4068  2.0717
   25MOL0     H 3254   3.336  10.740   8.846  0.5708  0.8205  0.7046
   25MOL0     H 3255   3.324  10.837   8.689  1.3126  0.9800  0.7923
   25MOL0     H 3256   3.156  10.704   8.665  1.5145 -0.1800  1.3604
   25MOL0     H 3257   3.072  10.848   8.731  0.8845  0.5534  0.9825
   25MOL0     H 3258   3.144  10.612   8.900  0.5137 -0.2136 -0.7875
   25MOL0     H 3259   3.013  10.732   8.932 -0.0831  3.7794 -2.2612
   25MOL0     H 3260   2.876  10.669   8.732  1.2886  1.6337 -0.8032
   25MOL0     H 3261   2.886  10.548   8.859 -2.1817  1.0045 -1.7584
   25MOL0     H 3262   2.850  10.577   8.498  0.0121  0.1778 -0.4861
   25MOL0     H 3263   2.681  10.436   8.360  0.1232 -0.1719 -0.3290
   25MOL0     H 3264   2.290  10.129   8.500  0.8650  0.5753 -0.0356
   25MOL0     H 3265   2.124   9.999   8.402 -0.0715 -0.1956 -0.9549
   25MOL0     H 3266   2.014   9.896   8.185 -2.1505 -0.9507 -1.3440
   25MOL0     H 3267   1.985   9.812   8.334 -0.8627 -1.7647  0.0275
   25MOL0     H 3268   1.938   9.602   8.234 -2.1331 -1.4021 -2.1778
   25MOL0     H 3269   2.016   9.648   8.087  0.6969 -0.5643 -0.1458
   25MOL0     H 3270   1.828   9.800   8.029  2.1716  1.1834  1.7578
   25MOL0     H 3271   1.763   9.788   8.193  2.0046  2.7715 -0.7768
   25MOL0     H 3272   1.773   9.554   7.985  0.1355  0.6189 -0.0499
   25MOL0     H 3273   1.699   9.547   8.156  0.3560  0.2064  1.6662
   25MOL0     H 3274   1.622   9.747   7.926 -2.6308 -0.6385 -1.2288
   25MOL0     H 3275   1.541   9.732   8.075  0.5420  1.2391  0.3318
   25MOL0     H 3276   1.583   9.495   7.885 -2.5871 -3.0510  0.2483
   25MOL0     H 3277   1.454   9.617   7.868  0.9251 -0.8455 -0.8184
   25MOL0     H 3278   1.509   9.405   8.079 -0.0207 -0.8643  0.3535
   25MOL0     H 3279   1.391   9.534   8.115  1.0002 -1.3560  1.4244
   25MOL0     H 3280   1.390   9.356   7.866  1.2264  1.5193  0.4763
   25MOL0     H 3281   1.248   9.453   7.914  0.9631  1.1081 -1.0892
   25MOL0     H 3282   2.417   9.727   8.248  5.0750  0.4580  0.3665
   25MOL0     H 3283   2.594   9.861   8.404  0.3165  2.2956  0.4122
   25MOL0     H 3284   2.766  10.108   8.636  1.0357 -0.1621 -0.0910
   25MOL0     H 3285   2.958  10.248   8.727 -2.5547 -2.6068  0.6742
   25MOL0     H 3286   4.286  11.020   9.363  1.5823  0.6049 -0.5950
   25MOL0     H 3287   4.513  11.019   9.463  0.1339 -0.3230  0.4929
   25MOL0     H 3288   4.806  10.968   9.670 -2.5454  2.1031  0.2644
   25MOL0     H 3289   5.044  10.948   9.721 -1.6447 -2.3606  0.9347
   25MOL0     H 3290   5.274  11.132   9.772 -0.1871 -1.2717 -2.2754
   25MOL0     H 3291   5.254  10.969   9.782 -1.4364  0.4794 -0.9341
   25MOL0     H 3292   5.419  10.953   9.975  3.1589  0.3595  1.0439
   25MOL0     H 3293   5.483  11.020   9.821 -2.0572  1.3570 -2.3494
   25MOL0     H 3294   5.378  11.172  10.067  0.7177 -1.7098  0.5602
   25MOL0     H 3295   5.401  11.259   9.921 -0.4633 -1.6596 -1.4564
   25MOL0     H 3296   5.605  11.281  10.079 -0.6838  0.3394 -0.5935
   25MOL0     H 3297   5.608  11.108  10.095  4.5447  0.9155  1.0588
   25MOL0     H 3298   5.875  11.144   9.787  0.6964 -0.1516  0.4949
   25MOL0     H 3299   4.988  11.172  10.089  0.6094  1.1486 -0.1598
   25MOL0     H 3300   4.755  11.172  10.053 -1.3388 -0.0483 -0.5598
   26MOL0     O 3301   8.474   5.337   1.644  0.0919  0.5069  0.2674
   26MOL0     C 3302   8.517   5.447   1.603  0.6797 -0.3381 -0.1057
   26MOL0     O 3303   8.434   5.529   1.543 -0.8978 -0.2796 -0.7566
   26MOL0     C 3304   8.303   5.531   1.548  1.4331  0.0402  0.8196
   26MOL0     C 3305   8.234   5.599   1.443 -0.3805  0.8248 -0.4795
   26MOL0     C 3306   8.097   5.621   1.442 -0.2703 -0.2415  0.9009
   26MOL0     C 3307   8.019   5.584   1.554  1.6246 -0.3040 -0.2215
   26MOL0     O 3308   7.884   5.626   1.547  0.4263 -0.2235  0.0026
   26MOL0     C 3309   7.789   5.598   1.652 -0.0212 -0.3789  0.5308
   26MOL0     C 3310   7.654   5.546   1.590  0.8476  0.6697  0.1541
   26MOL0     C 3311   7.578   5.640   1.494  0.0715  0.2722  0.6625
   26MOL0     C 3312   7.482   5.736   1.564 -0.1389  0.2966  0.5323
   26MOL0     C 3313   7.370   5.786   1.464 -0.0540  0.0923  0.4920
   26MOL0     C 3314   7.264   5.870   1.536 -0.6246  0.2057  0.0286
   26MOL0     C 3315   7.168   5.946   1.445  0.5589 -0.2646  0.8086
   26MOL0     C 3316   7.085   6.056   1.516  0.0801 -0.4944  0.5065
   26MOL0     N 3317   6.986   6.118   1.432  0.7769  0.0827 -0.7766
   26MOL0     C 3318   7.000   6.211   1.339 -0.2669 -0.7644  0.3573
   26MOL0     C 3319   6.871   6.229   1.299  0.8080 -0.1287 -0.6358
   26MOL0     C 3320   6.839   6.337   1.190  0.8984  0.5910 -0.1760
   26MOL0     C 3321   6.898   6.484   1.214  0.5586  0.3966 -0.1463
   26MOL0     C 3322   6.831   6.574   1.320 -0.0460 -0.8204  0.3076
   26MOL0     C 3323   6.696   6.536   1.362  0.0544  0.2881  1.0851
   26MOL0     O 3324   6.597   6.531   1.259  0.6473 -0.1692  0.9669
   26MOL0     C 3325   6.482   6.454   1.274  0.7565 -0.5122 -0.3999
   26MOL0     C 3326   6.415   6.436   1.397  0.7503  0.3922 -0.0780
   26MOL0     C 3327   6.292   6.373   1.408 -0.6624 -0.3735  0.2140
   26MOL0     C 3328   6.228   6.325   1.293 -0.4214 -0.8665 -0.5081
   26MOL0     C 3329   6.098   6.268   1.302  0.4599 -0.0218  0.0684
   26MOL0     O 3330   6.025   6.289   1.413 -0.2899  0.0866 -0.0949
   26MOL0     C 3331   5.901   6.223   1.437  0.1738 -0.1472 -0.3238
   26MOL0     C 3332   5.842   6.117   1.360 -0.5485  0.4394 -0.5360
   26MOL0     C 3333   5.714   6.064   1.391 -0.0852  0.1085  0.2257
   26MOL0     C 3334   5.643   6.116   1.497  0.0767  0.2054 -0.0268
   26MOL0     O 3335   5.508   6.090   1.523  0.0277 -0.1701 -0.0156
   26MOL0     C 3336   5.438   5.996   1.441 -0.5134 -0.0779 -0.8938
   26MOL0     C 3337   5.287   6.032   1.456 -0.0726 -0.2628 -0.0709
   26MOL0     C 3338   5.198   5.946   1.368 -0.1672 -0.1383 -0.0606
   26MOL0     C 3339   5.055   5.959   1.417 -0.1135 -0.1295  0.1418
   26MOL0     C 3340   4.961   5.874   1.341  0.1959  0.3047  0.3700
   26MOL0     C 3341   4.812   5.895   1.387  0.2727 -0.7628  0.0726
   26MOL0     C 3342   4.726   5.806   1.296 -0.1063  0.3930  0.7622
   26MOL0     C 3343   4.579   5.824   1.317 -0.6231 -0.1751  0.0168
   26MOL0    Cl 3344   4.520   5.980   1.249  0.5397  0.2897 -0.4733
   26MOL0     C 3345   5.707   6.214   1.580  0.0434  1.0340  0.5973
   26MOL0     C 3346   5.829   6.264   1.554  0.3481 -0.2000  0.2267
   26MOL0     O 3347   6.061   6.206   1.204  0.0712 -0.2163  0.0442
   26MOL0     C 3348   6.300   6.336   1.170 -0.2628  0.1175  0.4674
   26MOL0     C 3349   6.418   6.405   1.159 -0.2722 -0.8981 -0.0946
   26MOL0     N 3350   6.778   6.150   1.365 -0.0970  0.3401  0.2206
   26MOL0     N 3351   6.856   6.078   1.437  0.0137 -0.0262  0.3960
   26MOL0     C 3352   8.085   5.513   1.660 -0.9908  0.4901 -0.2233
   26MOL0     C 3353   8.223   5.495   1.662  0.3995  0.2208  1.0645
   26MOL0     C 3354   8.658   5.464   1.583 -0.2464  0.4334  0.1307
   26MOL0     C 3355   8.716   5.566   1.513 -1.1001  0.2990  0.3837
   26MOL0     C 3356   8.854   5.586   1.486  1.3281 -1.0687 -0.7881
   26MOL0     C 3357   8.948   5.485   1.528 -0.1577 -0.8574  0.6302
   26MOL0     O 3358   9.076   5.494   1.485  0.2636 -0.5140 -0.1953
   26MOL0     C 3359   9.147   5.376   1.471 -0.4453 -0.0408 -0.2477
   26MOL0     C 3360   9.272   5.404   1.401 -0.3619  0.0317  0.4362
   26MOL0     C 3361   9.370   5.288   1.399  0.1798  1.0214  0.5944
   26MOL0     C 3362   9.497   5.313   1.314 -0.9073 -0.1899  0.3515
   26MOL0     C 3363   9.489   5.378   1.187  0.2800 -0.0683  0.6671
   26MOL0     C 3364   9.477   5.435   1.082  0.4028 -0.3588 -0.2093
   26MOL0     C 3365   8.897   5.384   1.605  0.0113 -0.3634  0.5223
   26MOL0     C 3366   8.757   5.374   1.633 -0.0474 -0.5529 -0.3813
   26MOL0     H 3367   8.287   5.616   1.349 -0.0622 -1.5610 -0.7874
   26MOL0     H 3368   8.052   5.670   1.357 -3.4541  0.0941  2.6142
   26MOL0     H 3369   7.777   5.685   1.718 -1.6709  0.2037 -0.4787
   26MOL0     H 3370   7.830   5.521   1.718  1.0636  1.4726  2.1320
   26MOL0     H 3371   7.588   5.523   1.674 -1.0762  1.3214 -1.1210
   26MOL0     H 3372   7.678   5.455   1.536 -0.8820  0.7725 -0.8567
   26MOL0     H 3373   7.508   5.578   1.437 -2.4447  2.6297  0.9650
   26MOL0     H 3374   7.647   5.681   1.420 -0.1299 -0.5638 -0.0193
   26MOL0     H 3375   7.431   5.684   1.645 -0.0911  1.1024  1.0909
   26MOL0     H 3376   7.540   5.821   1.602 -1.7484  1.6134  0.1994
   26MOL0     H 3377   7.324   5.707   1.405  1.6491 -0.6137  0.0462
   26MOL0     H 3378   7.425   5.848   1.392  0.7566 -0.9978  0.1615
   26MOL0     H 3379   7.320   5.945   1.592  1.3322 -0.4648 -0.9322
   26MOL0     H 3380   7.207   5.807   1.605 -1.5528 -0.0982 -0.9901
   26MOL0     H 3381   7.222   6.000   1.367 -2.6957  0.5346 -1.0803
   26MOL0     H 3382   7.100   5.878   1.392 -0.3038  1.9905 -1.1496
   26MOL0     H 3383   7.163   6.127   1.545 -1.7573  2.7335 -1.7729
   26MOL0     H 3384   7.032   6.010   1.600 -2.0904  0.1880 -0.4221
   26MOL0     H 3385   7.084   6.253   1.286 -1.3632  0.5097 -0.4574
   26MOL0     H 3386   6.730   6.338   1.185  0.8396  0.0239  0.7189
   26MOL0     H 3387   6.867   6.299   1.092  1.8943  0.4426  0.1497
   26MOL0     H 3388   6.897   6.544   1.123 -2.0038  1.5520  0.5724
   26MOL0     H 3389   7.002   6.458   1.234  0.4045 -1.0997 -1.1233
   26MOL0     H 3390   6.899   6.580   1.405 -0.0751 -0.3462  0.3044
   26MOL0     H 3391   6.818   6.672   1.273 -1.1757 -1.1389 -0.0935
   26MOL0     H 3392   6.675   6.612   1.438 -0.1778  2.0067 -0.6269
   26MOL0     H 3393   6.703   6.436   1.406 -1.2962 -0.5378 -0.4700
   26MOL0     H 3394   6.459   6.484   1.484  0.7952  2.1087 -1.0191
   26MOL0     H 3395   6.236   6.368   1.501 -0.7981  2.0750  0.3309
   26MOL0     H 3396   5.898   6.067   1.282  1.0861  1.6720 -0.1878
   26MOL0     H 3397   5.668   5.988   1.330 -2.5686  0.9375  0.9598
   26MOL0     H 3398   5.469   5.895   1.468  1.2996  0.8750  0.8412
   26MOL0     H 3399   5.467   6.009   1.337 -2.1847 -2.0293 -1.6755
   26MOL0     H 3400   5.273   6.136   1.424 -0.9693 -0.1633  0.6279
   26MOL0     H 3401   5.255   6.030   1.560 -0.5678  4.1544  0.0369
   26MOL0     H 3402   5.232   5.844   1.388 -0.1078  0.0534  0.8467
   26MOL0     H 3403   5.220   5.959   1.261  0.5786 -2.5084 -0.2557
   26MOL0     H 3404   5.041   5.943   1.524  0.5650  0.7756  0.3751
   26MOL0     H 3405   5.033   6.065   1.399 -0.7644 -0.3378 -0.3267
   26MOL0     H 3406   4.995   5.771   1.327  0.1401  0.3414 -0.0470
   26MOL0     H 3407   4.962   5.903   1.235  4.1738  3.8611  1.1199
   26MOL0     H 3408   4.797   6.003   1.381 -1.4387 -0.9243  0.8184
   26MOL0     H 3409   4.799   5.868   1.492  0.7188  0.6469  0.5121
   26MOL0     H 3410   4.749   5.804   1.189  1.4960 -2.6432  1.0479
   26MOL0     H 3411   4.742   5.704   1.330  0.0489  0.2377  0.2316
   26MOL0     H 3412   4.551   5.825   1.423 -2.0833  1.2506 -0.3484
   26MOL0     H 3413   4.520   5.747   1.266 -0.4214  0.3790 -1.0715
   26MOL0     H 3414   5.651   6.255   1.663 -0.4322  1.5807  0.0127
   26MOL0     H 3415   5.879   6.337   1.617  1.9830  0.2598 -1.5099
   26MOL0     H 3416   6.266   6.307   1.071  3.3129  1.5203 -1.3684
   26MOL0     H 3417   6.475   6.409   1.067  1.2171 -0.8909  0.7885
   26MOL0     H 3418   8.037   5.471   1.748 -0.6794 -1.1578 -0.7992
   26MOL0     H 3419   8.282   5.444   1.738  2.1172  0.5191  0.0050
   26MOL0     H 3420   8.644   5.635   1.470  0.3769  1.1124 -0.8913
   26MOL0     H 3421   8.896   5.676   1.441 -0.3936  1.6730  2.5218
   26MOL0     H 3422   9.097   5.295   1.416  1.2694 -0.4400 -1.3143
   26MOL0     H 3423   9.169   5.340   1.572 -1.4096  0.0491 -0.0021
   26MOL0     H 3424   9.252   5.430   1.296  1.0334 -0.2572  0.0783
   26MOL0     H 3425   9.337   5.467   1.462  0.0623 -1.7943  1.9651
   26MOL0     H 3426   9.319   5.202   1.355 -2.2740  2.5675  0.2453
   26MOL0     H 3427   9.402   5.268   1.502 -0.1383 -0.5464  0.4199
   26MOL0     H 3428   9.563   5.376   1.375  0.3530  1.6170 -2.6276
   26MOL0     H 3429   9.546   5.220   1.283 -2.9994 -1.3640  0.4147
   26MOL0     H 3430   9.460   5.489   0.990 -3.9063 -1.6547 -0.3930
   26MOL0     H 3431   8.960   5.302   1.640 -0.8051 -2.2822 -2.1436
   26MOL0     H 3432   8.720   5.292   1.694 -0.0228 -0.6324 -0.4743
   27MOL0     O 3433   1.365  10.785   5.289  0.6231  0.8154  0.1877
   27MOL0     C 3434   1.445  10.701   5.248  0.1448  0.5505  0.4713
   27MOL0     O 3435   1.429  10.619   5.141 -0.2580 -0.2185 -0.2310
   27MOL0     C 3436   1.303  10.639   5.086  0.9480  0.7906  0.0242
   27MOL0     C 3437   1.297  10.696   4.958 -0.3777 -0.4252  0.4072
   27MOL0     C 3438   1.174  10.710   4.888  0.3738  0.0096 -0.3798
   27MOL0     C 3439   1.060  10.663   4.951 -0.3207  0.8727 -0.2647
   27MOL0     O 3440   0.930  10.679   4.893 -0.1158  0.6224 -0.4868
   27MOL0     C 3441   0.929  10.709   4.757  0.3916 -0.0097 -0.2519
   27MOL0     C 3442   0.789  10.680   4.718  0.0297 -0.8686  0.9147
   27MOL0     C 3443   0.748  10.527   4.736 -0.2041 -0.1325  0.0541
   27MOL0     C 3444   0.619  10.498   4.668 -0.8890 -0.0802  0.5959
   27MOL0     C 3445   0.567  10.366   4.706  0.3577  0.7300 -0.8705
   27MOL0     C 3446   0.507  10.364   4.853  1.1718 -0.5134  0.4543
   27MOL0     C 3447   0.383  10.451   4.865 -1.3193  0.5018 -0.1225
   27MOL0     C 3448   0.254  10.395   4.791  0.1391 -0.4885 -0.0779
   27MOL0     N 3449   0.151  10.497   4.792  0.5659 -0.7943  0.0634
   27MOL0     C 3450   0.077  10.531   4.905  0.4726  0.6322 -0.1477
   27MOL0     C 3451  -0.012  10.626   4.855 -0.2571 -0.8206 -0.7021
   27MOL0     C 3452  -0.133  10.679   4.919  0.4753  0.0879  0.2823
   27MOL0     C 3453  -0.140  10.835   4.941  0.1139  0.2284  0.3095
   27MOL0     C 3454  -0.282  10.881   4.977 -0.1097 -0.1804 -0.7566
   27MOL0     C 3455  -0.333  10.811   5.106  0.3252  0.6607 -0.2241
   27MOL0     O 3456  -0.427  10.902   5.162  0.0062  0.3088  0.2459
   27MOL0     C 3457  -0.557  10.897   5.122  0.7844  0.4728  0.6108
   27MOL0     C 3458  -0.622  10.789   5.061 -1.0318 -0.2384 -1.0678
   27MOL0     C 3459  -0.760  10.791   5.032 -0.1189 -0.1259 -0.7708
   27MOL0     C 3460  -0.832  10.914   5.059 -0.6471  0.0501 -0.9685
   27MOL0     C 3461  -0.968  10.938   5.014 -0.1914  0.4737 -0.1330
   27MOL0     O 3462  -1.026  11.034   5.087  0.1824 -0.3259 -0.4385
   27MOL0     C 3463  -1.155  11.060   5.055  0.0231 -0.3368 -0.7080
   27MOL0     C 3464  -1.207  11.099   4.933 -1.3162 -0.1789 -0.4481
   27MOL0     C 3465  -1.340  11.126   4.917  0.0353  0.2951  0.8884
   27MOL0     C 3466  -1.427  11.102   5.024  0.0693  0.3279 -0.2076
   27MOL0     O 3467  -1.563  11.110   4.995  0.3130 -0.1297  1.0638
   27MOL0     C 3468  -1.647  11.123   5.107 -0.2602 -0.0561 -0.6964
   27MOL0     C 3469  -1.792  11.183   5.067  0.1084  0.3277 -0.3323
   27MOL0     C 3470  -1.867  11.099   4.961 -0.0398  1.6883  0.5278
   27MOL0     C 3471  -1.985  11.190   4.914  0.4702  0.2258  0.2713
   27MOL0     C 3472  -2.069  11.115   4.809 -0.6673 -0.0045  0.3906
   27MOL0     C 3473  -2.002  11.082   4.678 -0.3720  0.9214  1.1771
   27MOL0     C 3474  -2.116  11.010   4.608  0.3317 -0.1941 -0.8811
   27MOL0     C 3475  -2.093  10.975   4.462  0.0440  0.4722 -0.0216
   27MOL0    Cl 3476  -2.080  11.125   4.351  0.9074 -0.3061  0.1181
   27MOL0     C 3477  -1.378  11.058   5.148 -0.5006 -0.4003  0.7464
   27MOL0     C 3478  -1.243  11.040   5.168 -0.0086  0.4420  0.5171
   27MOL0     O 3479  -1.018  10.861   4.929  0.0215  0.2948 -0.4398
   27MOL0     C 3480  -0.761  11.021   5.121  0.1336 -0.0979  0.2506
   27MOL0     C 3481  -0.630  11.010   5.146 -0.5737 -0.1318  0.2280
   27MOL0     N 3482   0.012  10.640   4.721 -0.4608 -0.2393 -0.2361
   27MOL0     N 3483   0.107  10.567   4.680 -0.8038  0.0897  0.0576
   27MOL0     C 3484   1.062  10.609   5.082 -0.3668  0.2816 -0.1190
   27MOL0     C 3485   1.185  10.586   5.140  0.9577 -0.0697 -0.3146
   27MOL0     C 3486   1.574  10.709   5.311 -1.0653  0.1828  0.1529
   27MOL0     C 3487   1.673  10.611   5.270 -0.0801  0.2944 -0.0275
   27MOL0     C 3488   1.794  10.601   5.335 -0.0687 -0.2093 -0.2932
   27MOL0     C 3489   1.832  10.690   5.442  0.0520  0.7244  0.5090
   27MOL0     O 3490   1.959  10.683   5.494  0.5890 -0.0255 -0.2196
   27MOL0     C 3491   1.991  10.732   5.627  0.0404  0.0604  0.3551
   27MOL0     C 3492   2.071  10.864   5.619  0.1895  0.3097 -0.0511
   27MOL0     C 3493   2.087  10.918   5.770 -0.5716  0.1440 -0.5101
   27MOL0     C 3494   2.195  10.852   5.854  0.0839  0.2194  0.1436
   27MOL0     C 3495   2.248  10.935   5.964 -0.5780 -1.0415 -0.1340
   27MOL0     C 3496   2.277  11.010   6.053 -0.1985 -0.1867  0.3329
   27MOL0     C 3497   1.739  10.793   5.475 -0.0029 -1.0357 -0.2008
   27MOL0     C 3498   1.606  10.801   5.408 -0.7475 -0.8235 -0.0619
   27MOL0     H 3499   1.394  10.726   4.919 -0.4142 -2.6615 -1.6148
   27MOL0     H 3500   1.176  10.752   4.788  1.1384 -0.3657 -0.5289
   27MOL0     H 3501   0.995  10.655   4.689 -1.1701 -0.1855 -1.7134
   27MOL0     H 3502   0.944  10.816   4.739  0.1531  0.4668  2.1040
   27MOL0     H 3503   0.778  10.717   4.615 -2.5345  0.7244  1.6518
   27MOL0     H 3504   0.724  10.747   4.775  0.7550 -0.0671  0.8308
   27MOL0     H 3505   0.749  10.503   4.843 -0.2522 -0.8209 -0.0945
   27MOL0     H 3506   0.824  10.462   4.691 -0.4820  1.3430 -2.8134
   27MOL0     H 3507   0.548  10.580   4.686  0.7623  1.1576  1.8263
   27MOL0     H 3508   0.641  10.486   4.562 -0.5195 -0.8066  0.7523
   27MOL0     H 3509   0.644  10.288   4.711 -0.0363  0.3971  0.8991
   27MOL0     H 3510   0.490  10.335   4.635 -0.5781 -2.3044  1.2535
   27MOL0     H 3511   0.572  10.393   4.936 -0.3533  0.8774  1.2257
   27MOL0     H 3512   0.464  10.267   4.877  0.4148 -0.6425 -1.2668
   27MOL0     H 3513   0.359  10.458   4.972  1.7884 -1.4584  0.8523
   27MOL0     H 3514   0.409  10.552   4.834 -0.8936  0.4380  0.0110
   27MOL0     H 3515   0.218  10.306   4.845 -0.2048  1.0705  2.4255
   27MOL0     H 3516   0.266  10.374   4.684 -0.2144 -1.1128 -0.0002
   27MOL0     H 3517   0.090  10.486   5.002  1.0613  0.7471 -0.1635
   27MOL0     H 3518  -0.152  10.633   5.016  0.5330  0.2997  0.3928
   27MOL0     H 3519  -0.219  10.654   4.855  0.1799 -0.7950  0.9984
   27MOL0     H 3520  -0.099  10.883   4.851 -0.1172 -1.4822 -0.7507
   27MOL0     H 3521  -0.067  10.857   5.020  0.2825 -0.6140  0.4040
   27MOL0     H 3522  -0.280  10.989   4.992 -0.3853 -0.4159  1.2730
   27MOL0     H 3523  -0.348  10.858   4.893 -0.3567 -2.5256 -0.0217
   27MOL0     H 3524  -0.250  10.798   5.176  2.4040 -1.9044 -2.9184
   27MOL0     H 3525  -0.380  10.714   5.084 -3.1121  1.9421  0.8123
   27MOL0     H 3526  -0.569  10.697   5.039 -1.7845 -0.6282 -1.2819
   27MOL0     H 3527  -0.813  10.705   4.992 -1.7100  0.7019 -0.5095
   27MOL0     H 3528  -1.139  11.118   4.851 -0.3394  2.4691  0.8465
   27MOL0     H 3529  -1.387  11.150   4.822  0.1087 -1.5669  0.3459
   27MOL0     H 3530  -1.597  11.200   5.166  0.3047 -1.0497  0.1422
   27MOL0     H 3531  -1.658  11.026   5.155  0.2312 -0.7592 -1.9673
   27MOL0     H 3532  -1.773  11.284   5.029  0.8434  0.3981  0.2057
   27MOL0     H 3533  -1.843  11.193   5.163  0.3104 -2.5753  0.1691
   27MOL0     H 3534  -1.914  11.009   5.004  0.2267  0.9127 -0.7466
   27MOL0     H 3535  -1.799  11.073   4.880 -1.4423  0.6716 -0.3828
   27MOL0     H 3536  -2.047  11.207   5.002  3.3911 -0.5149  2.6225
   27MOL0     H 3537  -1.941  11.285   4.883 -0.4215  0.3620 -0.6137
   27MOL0     H 3538  -2.148  11.186   4.782 -0.3230 -0.4703 -2.1548
   27MOL0     H 3539  -2.110  11.028   4.861 -1.4045  1.0059  1.5562
   27MOL0     H 3540  -1.920  11.011   4.692 -0.3842  0.6969  0.1374
   27MOL0     H 3541  -1.968  11.169   4.621  0.4689 -1.5828 -2.5040
   27MOL0     H 3542  -2.133  10.922   4.670 -0.5850  0.7617  0.2831
   27MOL0     H 3543  -2.204  11.075   4.609  1.7250  1.8342 -2.1571
   27MOL0     H 3544  -2.182  10.928   4.419  0.6990  2.0460 -3.4779
   27MOL0     H 3545  -2.001  10.917   4.454  0.5589  1.0372  1.4546
   27MOL0     H 3546  -1.447  11.028   5.226  0.7741 -1.5636  1.4787
   27MOL0     H 3547  -1.202  10.999   5.259 -0.6753 -2.1897 -0.2723
   27MOL0     H 3548  -0.805  11.119   5.137  0.0601 -0.5087  3.0799
   27MOL0     H 3549  -0.585  11.096   5.196 -0.6106  0.1608 -0.2328
   27MOL0     H 3550   0.971  10.575   5.131 -0.5536  0.7924 -0.1032
   27MOL0     H 3551   1.194  10.542   5.239  2.6473  1.5685  0.3255
   27MOL0     H 3552   1.654  10.530   5.200 -0.6407 -0.5757  1.1107
   27MOL0     H 3553   1.873  10.547   5.283  0.1193  0.3550 -0.6069
   27MOL0     H 3554   2.038  10.657   5.691 -1.8471 -1.6116 -0.1389
   27MOL0     H 3555   1.897  10.744   5.682  1.2792 -0.2056  2.6584
   27MOL0     H 3556   2.164  10.866   5.562 -0.4323 -0.0520 -1.1036
   27MOL0     H 3557   2.012  10.939   5.565 -0.3009  2.0256  2.6364
   27MOL0     H 3558   1.991  10.925   5.821 -0.6343  2.1225 -0.8065
   27MOL0     H 3559   2.121  11.022   5.767 -2.4126  0.8513  1.0045
   27MOL0     H 3560   2.164  10.759   5.903 -1.0892  1.7746  2.5303
   27MOL0     H 3561   2.278  10.828   5.786 -0.3563 -0.2575 -0.2321
   27MOL0     H 3562   2.292  11.083   6.130  0.7695  0.8756 -0.8361
   27MOL0     H 3563   1.763  10.866   5.551 -0.6129 -1.4549  0.4071
   27MOL0     H 3564   1.541  10.878   5.449  2.3802  0.9899  1.9040
   28MOL0     O 3565   8.865  10.448   6.087 -0.1439 -0.1598 -0.1313
   28MOL0     C 3566   8.886  10.534   6.176  1.2805 -0.3832 -0.0046
   28MOL0     O 3567   8.793  10.600   6.255 -0.5273 -0.0341  0.4009
   28MOL0     C 3568   8.659  10.593   6.248  0.5776 -0.1674  0.6207
   28MOL0     C 3569   8.586  10.491   6.173 -0.4196 -0.1799  0.5775
   28MOL0     C 3570   8.449  10.464   6.190 -0.0805 -0.2291 -0.1573
   28MOL0     C 3571   8.379  10.557   6.259  0.6048 -0.7515 -0.6598
   28MOL0     O 3572   8.235  10.582   6.264 -1.0213 -0.0852  0.7326
   28MOL0     C 3573   8.154  10.494   6.184  0.1812 -0.6039  0.6826
   28MOL0     C 3574   8.124  10.364   6.264  0.4148 -0.9936 -0.4135
   28MOL0     C 3575   8.076  10.247   6.175 -0.9316 -0.9248 -0.1860
   28MOL0     C 3576   7.964  10.279   6.072 -0.7005 -0.1769 -0.1535
   28MOL0     C 3577   7.827  10.313   6.132 -0.3378  0.4104 -0.4061
   28MOL0     C 3578   7.766  10.193   6.213 -0.3147 -0.2423  0.1169
   28MOL0     C 3579   7.624  10.222   6.266  0.0721  0.6519 -0.5730
   28MOL0     C 3580   7.512  10.212   6.166 -0.4779 -0.4259 -0.1137
   28MOL0     N 3581   7.463  10.335   6.101 -0.9724 -0.1377 -0.5935
   28MOL0     C 3582   7.442  10.347   5.964  0.2412 -0.3050 -0.5348
   28MOL0     C 3583   7.374  10.465   5.965  0.3830  0.1629  0.2531
   28MOL0     C 3584   7.309  10.540   5.855 -0.2926 -0.3071 -1.4052
   28MOL0     C 3585   7.264  10.449   5.747 -0.1104  1.1903  0.3586
   28MOL0     C 3586   7.180  10.519   5.640 -0.3664  0.2172 -0.1333
   28MOL0     C 3587   7.041  10.559   5.673  0.6159  0.6406  0.0327
   28MOL0     O 3588   6.979  10.604   5.550 -0.6595 -0.5002  0.8075
   28MOL0     C 3589   6.843  10.638   5.551  0.4093 -0.9580 -0.1149
   28MOL0     C 3590   6.784  10.649   5.423 -0.8684 -0.0796 -0.2067
   28MOL0     C 3591   6.657  10.701   5.415 -1.1748 -0.4592 -0.2024
   28MOL0     C 3592   6.584  10.732   5.535 -0.8419  0.4980 -0.7607
   28MOL0     C 3593   6.446  10.782   5.518  0.8898 -0.2250  0.4419
   28MOL0     O 3594   6.404  10.839   5.394  0.2245  0.4677 -0.7543
   28MOL0     C 3595   6.289  10.904   5.409  0.4662  0.0910 -0.2901
   28MOL0     C 3596   6.280  11.044   5.418  0.0441 -0.2832  0.5289
   28MOL0     C 3597   6.164  11.110   5.456  0.1659  0.0935 -0.5067
   28MOL0     C 3598   6.048  11.033   5.491 -0.6729  0.2661 -0.0880
   28MOL0     O 3599   5.933  11.083   5.534  0.5911 -0.2854 -0.4264
   28MOL0     C 3600   5.926  11.081   5.679  0.3111 -0.3181 -0.3207
   28MOL0     C 3601   5.784  11.122   5.715 -0.2249 -0.7624  0.0285
   28MOL0     C 3602   5.682  11.018   5.667 -0.0556  0.4951  0.4932
   28MOL0     C 3603   5.540  11.073   5.687  1.0869 -0.7823 -0.8578
   28MOL0     C 3604   5.432  10.960   5.669  0.4188 -0.2643  0.4670
   28MOL0     C 3605   5.298  10.972   5.735  0.1056 -0.2499 -0.1280
   28MOL0     C 3606   5.235  11.102   5.689 -0.6762 -0.3273 -0.3583
   28MOL0     C 3607   5.077  11.090   5.697 -0.3201  0.5102  0.4527
   28MOL0    Cl 3608   5.013  11.101   5.863  0.2146 -0.0256 -0.1958
   28MOL0     C 3609   6.064  10.900   5.483  0.4568  0.6358 -0.0088
   28MOL0     C 3610   6.178  10.838   5.431 -0.4988  0.9489  0.5485
   28MOL0     O 3611   6.382  10.782   5.625  0.3828 -0.1680  0.1532
   28MOL0     C 3612   6.642  10.715   5.664  0.3539 -0.2967  1.2502
   28MOL0     C 3613   6.776  10.675   5.679  0.1481  0.8436  0.3019
   28MOL0     N 3614   7.353  10.504   6.101 -0.4688 -0.2593  0.8507
   28MOL0     N 3615   7.403  10.428   6.174 -0.3287  0.2390 -0.3138
   28MOL0     C 3616   8.444  10.669   6.313 -0.3497  0.3749 -0.6036
   28MOL0     C 3617   8.583  10.685   6.313 -0.2265  0.4345  0.9063
   28MOL0     C 3618   9.029  10.552   6.220 -0.9162 -0.0099 -0.2914
   28MOL0     C 3619   9.056  10.655   6.309  0.5437 -0.6477  0.2523
   28MOL0     C 3620   9.186  10.668   6.358 -0.9393 -0.5213  0.8230
   28MOL0     C 3621   9.296  10.597   6.314 -0.4549 -0.6571 -0.1703
   28MOL0     O 3622   9.417  10.638   6.356  0.8036 -0.2147  0.0510
   28MOL0     C 3623   9.505  10.534   6.389  0.2179  0.2055 -0.7498
   28MOL0     C 3624   9.640  10.596   6.405 -0.1819  0.2099 -0.2862
   28MOL0     C 3625   9.748  10.497   6.435  0.2552  0.2723 -0.6755
   28MOL0     C 3626   9.860  10.505   6.339 -0.1802  0.2737 -1.0313
   28MOL0     C 3627   9.925  10.632   6.314  0.6536  0.2676  0.2210
   28MOL0     C 3628   9.947  10.751   6.293 -0.3293  0.0310  0.7472
   28MOL0     C 3629   9.267  10.491   6.221 -0.0728 -0.0180 -0.7055
   28MOL0     C 3630   9.133  10.474   6.172  0.0486  0.1831  0.1661
   28MOL0     H 3631   8.632  10.424   6.102  0.0360 -0.6674  1.3164
   28MOL0     H 3632   8.396  10.382   6.143 -0.1505  0.0024 -0.4840
   28MOL0     H 3633   8.201  10.467   6.089 -1.6736 -0.1858 -0.3877
   28MOL0     H 3634   8.059  10.541   6.159  0.8737 -0.1283 -1.2012
   28MOL0     H 3635   8.048  10.389   6.338  0.4503  3.4164 -1.5678
   28MOL0     H 3636   8.215  10.329   6.314  2.3761 -0.0731 -3.0889
   28MOL0     H 3637   8.044  10.163   6.236  0.6242 -1.2375  0.2355
   28MOL0     H 3638   8.165  10.202   6.129  1.2795 -1.3634  4.0210
   28MOL0     H 3639   7.997  10.351   5.997 -1.5025  0.2499 -0.1062
   28MOL0     H 3640   7.955  10.187   6.012  2.3499 -1.7740  1.6269
   28MOL0     H 3641   7.771  10.346   6.044  1.3151  0.0535 -1.6384
   28MOL0     H 3642   7.852  10.402   6.190  4.5519  2.0625 -4.3362
   28MOL0     H 3643   7.833  10.167   6.295 -1.2139 -1.7156  0.4130
   28MOL0     H 3644   7.775  10.115   6.137  0.7917 -0.5257  0.5266
   28MOL0     H 3645   7.603  10.130   6.322 -1.4065 -0.7114 -3.1539
   28MOL0     H 3646   7.614  10.312   6.327 -2.0252 -0.5597  0.9914
   28MOL0     H 3647   7.424  10.165   6.211  0.7843 -2.9151 -0.0779
   28MOL0     H 3648   7.547  10.138   6.094 -1.5976 -0.3892 -0.7180
   28MOL0     H 3649   7.468  10.282   5.880  0.3695 -0.4852 -0.3558
   28MOL0     H 3650   7.383  10.609   5.813  1.9928 -2.6459 -1.4381
   28MOL0     H 3651   7.226  10.601   5.892 -1.5610 -2.5661 -0.3039
   28MOL0     H 3652   7.201  10.368   5.784  1.2937 -1.2944 -2.2487
   28MOL0     H 3653   7.346  10.402   5.691 -0.1834  0.7428  0.6202
   28MOL0     H 3654   7.225  10.610   5.599 -0.1558  1.0852  1.9050
   28MOL0     H 3655   7.182  10.438   5.566 -1.1383  0.5163 -0.4873
   28MOL0     H 3656   7.053  10.646   5.738  1.0374  1.3493 -0.9760
   28MOL0     H 3657   6.992  10.476   5.724 -0.3399  1.9858  1.4069
   28MOL0     H 3658   6.849  10.637   5.336 -0.4645  1.8366 -0.2136
   28MOL0     H 3659   6.601  10.700   5.322 -1.9880 -2.0891  0.2621
   28MOL0     H 3660   6.371  11.099   5.398 -0.0540 -0.0566  0.7047
   28MOL0     H 3661   6.156  11.217   5.467  0.4853  0.2596 -1.8197
   28MOL0     H 3662   5.991  11.154   5.728  0.5019  1.5870 -3.1690
   28MOL0     H 3663   5.933  10.981   5.724  3.3650  0.2331  0.6087
   28MOL0     H 3664   5.758  11.222   5.679  2.2159 -0.3250 -0.7011
   28MOL0     H 3665   5.786  11.125   5.824 -1.4926 -0.6841  0.0718
   28MOL0     H 3666   5.692  10.926   5.725  2.4505  2.4895  3.5523
   28MOL0     H 3667   5.701  11.016   5.559  0.5718  4.0690  0.4183
   28MOL0     H 3668   5.541  11.093   5.795  1.3043 -0.2565 -0.9554
   28MOL0     H 3669   5.507  11.157   5.626 -0.7271 -0.7357  0.1247
   28MOL0     H 3670   5.474  10.869   5.713 -0.2254 -0.7932 -0.0009
   28MOL0     H 3671   5.420  10.941   5.562  2.6508  0.1930  0.0796
   28MOL0     H 3672   5.326  10.967   5.841  1.3001 -2.8246 -0.4907
   28MOL0     H 3673   5.232  10.888   5.712 -1.2499  0.5657  0.6349
   28MOL0     H 3674   5.266  11.191   5.744  1.1241 -0.6643 -0.7797
   28MOL0     H 3675   5.261  11.113   5.583  1.4798 -3.2309 -0.2365
   28MOL0     H 3676   5.046  10.996   5.651  0.6400  0.1261  0.5781
   28MOL0     H 3677   5.033  11.167   5.633  0.5887 -0.1530 -1.0201
   28MOL0     H 3678   5.980  10.837   5.506 -1.3259  2.0646 -2.2061
   28MOL0     H 3679   6.174  10.730   5.418  0.4378  0.9740 -0.0684
   28MOL0     H 3680   6.592  10.735   5.758  3.3146 -0.6125  3.0064
   28MOL0     H 3681   6.814  10.667   5.780 -1.3402 -0.5050  0.7882
   28MOL0     H 3682   8.378  10.738   6.365 -2.1399  0.2926 -2.6135
   28MOL0     H 3683   8.629  10.767   6.367  0.7819  0.0126  0.7027
   28MOL0     H 3684   8.979  10.723   6.343  0.9685  0.4021 -0.8223
   28MOL0     H 3685   9.204  10.758   6.416 -0.6835  0.8981 -1.3154
   28MOL0     H 3686   9.510  10.461   6.308  1.0392 -0.0917 -0.4401
   28MOL0     H 3687   9.462  10.488   6.479 -2.2536  0.6407 -1.6238
   28MOL0     H 3688   9.659  10.657   6.316  0.6413  1.6511  0.8375
   28MOL0     H 3689   9.641  10.673   6.482  0.4419  0.9836 -1.0420
   28MOL0     H 3690   9.709  10.395   6.436 -0.7863  0.6287 -2.0716
   28MOL0     H 3691   9.794  10.511   6.534  0.8504 -0.0117 -0.9057
   28MOL0     H 3692   9.930  10.430   6.379 -1.7662  0.3480  2.2628
   28MOL0     H 3693   9.821  10.473   6.242  0.7736 -0.4536 -1.1928
   28MOL0     H 3694   9.969  10.851   6.260 -2.2465  0.0575 -0.6652
   28MOL0     H 3695   9.348  10.423   6.196 -0.1284 -0.2080 -0.3784
   28MOL0     H 3696   9.125  10.395   6.097  0.2002  1.8190 -1.6593
   29MOL0     O 3697   6.399   4.507   5.011  0.7560 -0.0176 -0.3658
   29MOL0     C 3698   6.433   4.473   5.127 -0.3372 -0.6214 -1.2088
   29MOL0     O 3699   6.354   4.469   5.240  0.2604 -0.0922 -0.7416
   29MOL0     C 3700   6.222   4.504   5.216  0.1509 -0.6309 -0.2361
   29MOL0     C 3701   6.126   4.398   5.216 -0.1251 -0.4019  0.0332
   29MOL0     C 3702   5.989   4.435   5.193  0.6228  0.2175 -0.2931
   29MOL0     C 3703   5.944   4.565   5.180  0.2621  0.8752  0.0405
   29MOL0     O 3704   5.805   4.585   5.159 -0.5900 -0.3047 -0.2083
   29MOL0     C 3705   5.743   4.713   5.168 -0.0124  0.0950 -0.5030
   29MOL0     C 3706   5.600   4.674   5.170 -1.1323  0.5759 -0.8209
   29MOL0     C 3707   5.512   4.795   5.196  0.2483 -0.2336 -0.5297
   29MOL0     C 3708   5.364   4.755   5.212 -0.3881 -0.8497 -0.5665
   29MOL0     C 3709   5.287   4.880   5.268 -0.3521  0.7293  0.3070
   29MOL0     C 3710   5.148   4.843   5.313 -0.8798 -0.9897 -0.1257
   29MOL0     C 3711   5.053   4.952   5.369 -0.5058 -0.1053 -0.7737
   29MOL0     C 3712   4.922   4.894   5.419 -0.7425  0.1099  0.7203
   29MOL0     N 3713   4.823   4.883   5.313  1.0511 -0.0758  0.6947
   29MOL0     C 3714   4.728   4.971   5.283  0.6197 -0.3103  1.1271
   29MOL0     C 3715   4.675   4.938   5.162 -0.3418  0.2291  0.0045
   29MOL0     C 3716   4.597   5.031   5.072  0.4169  0.1966  0.0954
   29MOL0     C 3717   4.444   5.023   5.097  0.4984  0.1002  0.0738
   29MOL0     C 3718   4.355   5.108   5.006  0.8080  0.3861 -0.2836
   29MOL0     C 3719   4.203   5.111   5.054 -0.0427  0.7182 -0.1015
   29MOL0     O 3720   4.142   5.206   4.972  0.0426  0.4523  0.3390
   29MOL0     C 3721   4.007   5.212   4.960  0.7479  0.0854 -0.4027
   29MOL0     C 3722   3.916   5.129   5.020 -0.8199  0.4417 -0.5840
   29MOL0     C 3723   3.772   5.152   5.017 -1.1213 -0.6231 -0.7782
   29MOL0     C 3724   3.716   5.243   4.925 -0.5444 -0.3295 -0.8092
   29MOL0     C 3725   3.573   5.250   4.918  0.4269  0.2710 -0.6768
   29MOL0     O 3726   3.497   5.136   4.939 -0.0572  0.0778  0.0980
   29MOL0     C 3727   3.366   5.147   4.943  0.0271  0.4600  0.5553
   29MOL0     C 3728   3.295   5.189   5.058  1.8284  0.5538 -0.6173
   29MOL0     C 3729   3.159   5.227   5.052 -0.2363  0.0215 -0.4971
   29MOL0     C 3730   3.093   5.227   4.930  0.0790 -0.2106 -0.6047
   29MOL0     O 3731   2.964   5.282   4.940 -0.3329 -0.2728  0.0887
   29MOL0     C 3732   2.875   5.257   4.826 -0.1425  0.2057 -0.0592
   29MOL0     C 3733   2.730   5.262   4.872 -0.7245 -0.0722  0.7255
   29MOL0     C 3734   2.696   5.196   5.014  1.4232 -0.2523  0.2489
   29MOL0     C 3735   2.778   5.072   5.041  0.3973 -0.0865 -0.4336
   29MOL0     C 3736   2.691   4.967   5.121  0.6457  0.2523  0.3236
   29MOL0     C 3737   2.604   4.884   5.029  0.1172  0.5597  0.1800
   29MOL0     C 3738   2.491   4.815   5.104  0.1253 -0.3083  0.1876
   29MOL0     C 3739   2.356   4.886   5.088 -0.7058  0.2471  0.5057
   29MOL0    Cl 3740   2.362   5.050   5.164  0.1824 -0.3488  0.5289
   29MOL0     C 3741   3.154   5.177   4.809  0.0979 -0.2851 -0.3054
   29MOL0     C 3742   3.294   5.133   4.818  1.1564 -0.4096  0.2284
   29MOL0     O 3743   3.532   5.355   4.873 -0.9573 -0.2121  0.6035
   29MOL0     C 3744   3.803   5.327   4.861 -1.2915 -0.4954 -0.4852
   29MOL0     C 3745   3.945   5.311   4.874  0.8651 -0.1400  0.2013
   29MOL0     N 3746   4.734   4.820   5.129 -0.2225 -0.5866 -0.0216
   29MOL0     N 3747   4.819   4.788   5.222  0.7105  0.8344 -0.0017
   29MOL0     C 3748   6.040   4.667   5.184  0.6570 -0.0387 -0.6277
   29MOL0     C 3749   6.169   4.639   5.203 -0.2593 -0.7805  0.0564
   29MOL0     C 3750   6.575   4.453   5.151 -0.8724  0.4059  0.1581
   29MOL0     C 3751   6.659   4.446   5.042 -0.7427  0.2092  0.6211
   29MOL0     C 3752   6.800   4.429   5.063 -0.5048  0.0547 -0.9174
   29MOL0     C 3753   6.848   4.435   5.197 -0.0882  0.4407 -0.4153
   29MOL0     O 3754   6.981   4.436   5.233 -0.1203  0.1111 -0.5752
   29MOL0     C 3755   7.084   4.421   5.137  0.5968 -0.2221 -0.1265
   29MOL0     C 3756   7.215   4.450   5.203 -0.1358  0.8599 -0.6279
   29MOL0     C 3757   7.291   4.325   5.275  0.1642  0.7933  0.1540
   29MOL0     C 3758   7.330   4.331   5.425  0.2533  0.3396  0.4211
   29MOL0     C 3759   7.200   4.340   5.505  0.5752  1.1521 -0.9796
   29MOL0     C 3760   7.095   4.329   5.562 -0.2016  0.8389 -0.1062
   29MOL0     C 3761   6.760   4.438   5.304 -0.2356 -0.0949 -0.0638
   29MOL0     C 3762   6.627   4.449   5.281  0.1299 -0.8833 -0.1192
   29MOL0     H 3763   6.162   4.297   5.236  0.5989 -0.5121 -1.6581
   29MOL0     H 3764   5.912   4.359   5.179  1.5396 -0.7712 -0.0956
   29MOL0     H 3765   5.770   4.761   5.073  3.0429 -0.9190 -0.2703
   29MOL0     H 3766   5.779   4.768   5.255  4.0960 -1.9313 -0.6724
   29MOL0     H 3767   5.583   4.596   5.244  2.4063 -0.2974 -0.7893
   29MOL0     H 3768   5.573   4.637   5.071 -0.2470 -0.0226 -0.8470
   29MOL0     H 3769   5.518   4.871   5.118 -0.6760 -1.4966 -1.8871
   29MOL0     H 3770   5.537   4.841   5.292 -1.1274 -0.4052 -0.0617
   29MOL0     H 3771   5.323   4.717   5.118 -0.5740 -0.9627 -0.4403
   29MOL0     H 3772   5.353   4.677   5.287 -1.2062 -0.3945 -0.1982
   29MOL0     H 3773   5.283   4.960   5.194  0.9545 -1.5918 -2.4296
   29MOL0     H 3774   5.342   4.913   5.357 -0.9608 -0.6618  1.2429
   29MOL0     H 3775   5.154   4.759   5.383  1.5975 -1.3630 -0.7170
   29MOL0     H 3776   5.107   4.806   5.218  1.9179 -1.3244 -1.2957
   29MOL0     H 3777   5.107   5.001   5.451  0.6165 -1.5763 -0.5941
   29MOL0     H 3778   5.028   5.022   5.288  0.2491 -0.8474 -1.6798
   29MOL0     H 3779   4.883   4.953   5.503  0.6568 -0.6022  1.9201
   29MOL0     H 3780   4.951   4.801   5.469  0.7221  0.1795  0.0451
   29MOL0     H 3781   4.697   5.056   5.344  1.5304  0.7293  0.1899
   29MOL0     H 3782   4.621   5.009   4.968 -2.2240 -1.0422 -0.3128
   29MOL0     H 3783   4.624   5.132   5.103  1.2101 -0.5595  2.0695
   29MOL0     H 3784   4.439   5.066   5.198  2.3660  2.3792 -0.6962
   29MOL0     H 3785   4.404   4.922   5.100 -0.9987  0.6615 -0.1908
   29MOL0     H 3786   4.393   5.211   5.010 -2.1842  1.5778  3.6539
   29MOL0     H 3787   4.355   5.070   4.903  1.2559 -0.7684  0.1220
   29MOL0     H 3788   4.193   5.141   5.159 -1.4958 -2.1450  0.7040
   29MOL0     H 3789   4.159   5.011   5.059  0.6258  0.4688  1.7667
   29MOL0     H 3790   3.946   5.043   5.080  0.3510 -0.5357 -2.4632
   29MOL0     H 3791   3.708   5.074   5.059 -2.3011  0.1245 -1.1325
   29MOL0     H 3792   3.342   5.191   5.156  0.9073  0.1507 -0.1496
   29MOL0     H 3793   3.115   5.274   5.140  0.9276 -1.3216  0.8555
   29MOL0     H 3794   2.886   5.151   4.799  3.0299  0.0588  1.2953
   29MOL0     H 3795   2.892   5.318   4.737 -0.6455  0.4872  0.0351
   29MOL0     H 3796   2.672   5.201   4.802  0.4411 -0.3531 -0.0210
   29MOL0     H 3797   2.699   5.365   4.855 -1.7041 -0.6761 -1.7385
   29MOL0     H 3798   2.590   5.168   5.012  1.0928  0.8396 -3.1275
   29MOL0     H 3799   2.714   5.278   5.084  0.8143  1.7928 -1.8693
   29MOL0     H 3800   2.811   5.026   4.948  1.0130 -1.1190  0.2719
   29MOL0     H 3801   2.859   5.098   5.109  0.2495 -1.0617  0.1214
   29MOL0     H 3802   2.626   5.026   5.186  0.2694 -0.6079  0.7486
   29MOL0     H 3803   2.746   4.902   5.189 -2.0387  0.8415  3.3001
   29MOL0     H 3804   2.672   4.806   4.993 -0.0573 -0.2084  1.4471
   29MOL0     H 3805   2.574   4.943   4.942 -0.9868  0.5050  0.5070
   29MOL0     H 3806   2.476   4.719   5.056 -0.5394 -1.3503  2.3303
   29MOL0     H 3807   2.515   4.803   5.210 -1.9916 -0.3109  0.7144
   29MOL0     H 3808   2.270   4.826   5.118 -0.0869 -1.9676 -1.7327
   29MOL0     H 3809   2.328   4.909   4.984 -0.8611 -0.7904  0.3134
   29MOL0     H 3810   3.119   5.175   4.706 -1.1226  0.1490  0.0811
   29MOL0     H 3811   3.354   5.111   4.730 -3.3538 -1.5860 -2.9500
   29MOL0     H 3812   3.763   5.399   4.789  2.2389  2.2033 -0.0313
   29MOL0     H 3813   4.015   5.378   4.825  2.7594  0.3409  3.2991
   29MOL0     H 3814   6.005   4.767   5.162  0.7369  0.6974  2.2650
   29MOL0     H 3815   6.246   4.715   5.207  0.1007 -1.1677  0.6725
   29MOL0     H 3816   6.617   4.443   4.942 -0.8126  1.4327  0.5949
   29MOL0     H 3817   6.863   4.420   4.976 -1.0370  0.2783 -1.3295
   29MOL0     H 3818   7.071   4.496   5.058  1.7127  0.7143  0.5580
   29MOL0     H 3819   7.092   4.321   5.093  2.0563  0.9281 -2.7149
   29MOL0     H 3820   7.294   4.494   5.141  1.1125 -2.2176 -1.3683
   29MOL0     H 3821   7.196   4.522   5.284  2.5261 -0.5315  1.4070
   29MOL0     H 3822   7.372   4.284   5.215 -2.3263 -4.9077  0.1165
   29MOL0     H 3823   7.223   4.240   5.280  0.7328  0.3984  1.5910
   29MOL0     H 3824   7.397   4.249   5.454 -2.0112 -1.0428  2.0787
   29MOL0     H 3825   7.378   4.429   5.433  2.1202 -0.5730  1.0022
   29MOL0     H 3826   7.003   4.319   5.614 -0.4067  0.7582 -0.4797
   29MOL0     H 3827   6.808   4.434   5.402  1.5111  0.1837 -0.8641
   29MOL0     H 3828   6.579   4.444   5.379  1.1506 -2.6278  0.3359
   30MOL0     O 3829  10.292   1.613   6.169 -0.0029  0.1597 -0.7923
   30MOL0     C 3830  10.342   1.678   6.072  0.6399 -0.6675  0.3145
   30MOL0     O 3831  10.278   1.783   6.009 -0.1646  0.2625 -0.2375
   30MOL0     C 3832  10.156   1.832   6.051  0.4678  0.7253 -0.1351
   30MOL0     C 3833  10.138   1.960   6.085 -0.3221 -0.8398 -0.2457
   30MOL0     C 3834  10.018   2.008   6.140 -0.3808  0.5251  0.9543
   30MOL0     C 3835   9.902   1.928   6.134 -0.3727 -0.3377 -0.9408
   30MOL0     O 3836   9.785   1.988   6.177 -0.0208 -0.0000 -0.3800
   30MOL0     C 3837   9.675   1.950   6.092  0.1028  0.5354 -0.5296
   30MOL0     C 3838   9.564   2.054   6.091 -0.4625 -0.8146  0.1269
   30MOL0     C 3839   9.594   2.167   5.995 -0.0689  0.3350 -0.5331
   30MOL0     C 3840   9.512   2.298   6.016 -0.0962 -0.1899 -0.1630
   30MOL0     C 3841   9.524   2.414   5.908  0.0540  0.4048  0.7629
   30MOL0     C 3842   9.484   2.362   5.769 -0.0911 -0.2402  0.4574
   30MOL0     C 3843   9.436   2.474   5.678  0.5513 -0.6134 -0.0838
   30MOL0     C 3844   9.426   2.429   5.532  0.9342 -0.4884 -0.1759
   30MOL0     N 3845   9.339   2.537   5.470 -0.7647  0.0663  0.1155
   30MOL0     C 3846   9.369   2.666   5.431  0.2218 -0.5334  0.0757
   30MOL0     C 3847   9.262   2.705   5.348  0.3070  0.0246 -1.1722
   30MOL0     C 3848   9.250   2.832   5.268  0.2595 -0.1619 -0.9263
   30MOL0     C 3849   9.323   2.836   5.133 -0.4623 -1.5027  0.2243
   30MOL0     C 3850   9.301   2.974   5.064  0.1941 -0.3554  0.6491
   30MOL0     C 3851   9.319   2.966   4.917  0.3512  0.2733 -0.5734
   30MOL0     O 3852   9.217   2.886   4.844  0.2706  0.5224 -0.6969
   30MOL0     C 3853   9.080   2.900   4.840 -0.3771 -0.3566  0.3676
   30MOL0     C 3854   9.019   3.026   4.864 -1.0523  0.0417 -0.6884
   30MOL0     C 3855   8.882   3.028   4.842 -0.7387 -0.6379  0.2494
   30MOL0     C 3856   8.805   2.924   4.800  0.7001  0.2609 -0.5151
   30MOL0     C 3857   8.660   2.954   4.746  0.3532 -0.2201  0.4419
   30MOL0     O 3858   8.590   2.849   4.708  0.1007 -0.2109 -0.5677
   30MOL0     C 3859   8.464   2.862   4.654 -0.1005 -0.4611 -0.0489
   30MOL0     C 3860   8.360   2.831   4.753 -0.0966  0.4389  0.1418
   30MOL0     C 3861   8.227   2.831   4.708  1.0487  0.1892 -0.1274
   30MOL0     C 3862   8.196   2.861   4.576 -0.1658 -0.0256  0.3964
   30MOL0     O 3863   8.070   2.860   4.518  0.0715  0.2624 -0.8002
   30MOL0     C 3864   7.961   2.821   4.599 -0.1811 -0.0003 -0.2595
   30MOL0     C 3865   7.832   2.847   4.524  0.3489 -0.0101 -0.7243
   30MOL0     C 3866   7.712   2.789   4.600  0.3831 -1.2504 -0.2323
   30MOL0     C 3867   7.581   2.818   4.525 -0.2958  0.4066  1.1963
   30MOL0     C 3868   7.457   2.750   4.588  0.6719  0.2545  0.4982
   30MOL0     C 3869   7.333   2.805   4.514  0.1268  0.3523  0.3870
   30MOL0     C 3870   7.214   2.739   4.574 -0.3879 -0.1168 -0.3290
   30MOL0     C 3871   7.085   2.795   4.518 -0.5563  0.6200  0.6702
   30MOL0    Cl 3872   6.961   2.801   4.648  0.2078 -0.1226 -0.3390
   30MOL0     C 3873   8.302   2.900   4.487  0.1643  0.8017  0.1419
   30MOL0     C 3874   8.438   2.898   4.526  0.0268 -0.4211 -0.0776
   30MOL0     O 3875   8.619   3.065   4.749  0.0411 -0.4785 -0.2358
   30MOL0     C 3876   8.863   2.797   4.786  0.1376  0.6497 -0.3516
   30MOL0     C 3877   9.002   2.785   4.802  0.7532  0.3317 -0.6465
   30MOL0     N 3878   9.166   2.606   5.350 -0.2645 -0.7486 -0.1545
   30MOL0     N 3879   9.214   2.504   5.413 -0.2220  0.1036  0.4242
   30MOL0     C 3880   9.923   1.789   6.104  0.6158 -0.7754 -0.2092
   30MOL0     C 3881  10.041   1.746   6.066 -0.5126  0.0479 -0.5244
   30MOL0     C 3882  10.469   1.626   6.023  0.0019 -0.7818  0.3406
   30MOL0     C 3883  10.550   1.531   6.085 -0.0726 -0.1182  0.3576
   30MOL0     C 3884  10.679   1.522   6.046  0.3269  0.4148 -0.1991
   30MOL0     C 3885  10.728   1.588   5.931  0.1975 -0.5063  0.2004
   30MOL0     O 3886  10.851   1.584   5.878 -0.5468 -0.4983 -0.5553
   30MOL0     C 3887  10.945   1.486   5.931 -0.1907 -0.1650 -0.5949
   30MOL0     C 3888  11.091   1.516   5.887  0.4590 -0.1107 -0.5418
   30MOL0     C 3889  11.194   1.408   5.923 -0.1682  0.7341  0.8699
   30MOL0     C 3890  11.334   1.456   5.872  0.0309  0.0212 -0.4260
   30MOL0     C 3891  11.445   1.361   5.907  0.2607  0.8689 -0.5530
   30MOL0     C 3892  11.548   1.295   5.928 -0.3544  0.2106  0.4021
   30MOL0     C 3893  10.646   1.673   5.859  0.0412 -0.4509  0.2584
   30MOL0     C 3894  10.516   1.685   5.903 -0.4790  0.6549  0.5475
   30MOL0     H 3895  10.217   2.031   6.059 -0.5369 -0.6943 -0.5069
   30MOL0     H 3896   9.996   2.108   6.178 -1.0975  1.6183 -2.0028
   30MOL0     H 3897   9.631   1.855   6.120 -1.4471  0.3455 -3.2368
   30MOL0     H 3898   9.707   1.925   5.990  0.9010 -3.3292  0.4998
   30MOL0     H 3899   9.545   2.101   6.188 -2.3350  1.2071 -1.1200
   30MOL0     H 3900   9.470   2.019   6.048 -0.4904  0.2806 -0.7529
   30MOL0     H 3901   9.578   2.143   5.889  2.5309  0.7420 -1.1074
   30MOL0     H 3902   9.699   2.192   6.013 -0.7749  1.1922  3.0649
   30MOL0     H 3903   9.405   2.274   6.024 -0.3046  1.2025  2.1743
   30MOL0     H 3904   9.536   2.352   6.107  0.9449 -1.1524  0.1488
   30MOL0     H 3905   9.629   2.443   5.902  0.4697 -0.9044  1.4240
   30MOL0     H 3906   9.464   2.500   5.940 -2.1324 -0.7775  0.0112
   30MOL0     H 3907   9.398   2.302   5.800 -0.5329  2.1585  4.6598
   30MOL0     H 3908   9.564   2.299   5.730 -0.3634 -0.5860  0.4502
   30MOL0     H 3909   9.333   2.502   5.703  0.2916 -2.2972  0.8336
   30MOL0     H 3910   9.507   2.556   5.690  1.4341 -1.5980  1.8423
   30MOL0     H 3911   9.383   2.328   5.524  0.1276 -0.1348 -0.4477
   30MOL0     H 3912   9.525   2.420   5.487  1.0441 -1.5309  0.2458
   30MOL0     H 3913   9.467   2.713   5.445 -0.3178  0.6620 -0.0093
   30MOL0     H 3914   9.294   2.910   5.330 -0.6149 -0.2174 -0.2230
   30MOL0     H 3915   9.147   2.863   5.247 -0.0534 -0.8087 -0.3876
   30MOL0     H 3916   9.283   2.762   5.063 -1.9714  1.9850 -2.9856
   30MOL0     H 3917   9.428   2.816   5.156  0.5532 -0.6147 -3.0727
   30MOL0     H 3918   9.208   3.028   5.087  0.2586  1.5364 -2.9162
   30MOL0     H 3919   9.380   3.041   5.098  0.4844 -1.4209  2.1657
   30MOL0     H 3920   9.419   2.924   4.901  0.4934  1.1050 -1.9522
   30MOL0     H 3921   9.325   3.065   4.872  0.9413 -0.2737 -1.7339
   30MOL0     H 3922   9.070   3.119   4.886 -1.3336  0.9056 -3.4036
   30MOL0     H 3923   8.829   3.120   4.867  0.9395  1.0824 -2.0574
   30MOL0     H 3924   8.387   2.835   4.859  2.8042  0.9094 -0.5173
   30MOL0     H 3925   8.148   2.813   4.780  2.0764  2.5133  1.7020
   30MOL0     H 3926   7.955   2.880   4.691 -0.4776  0.8139 -0.7914
   30MOL0     H 3927   7.966   2.714   4.623 -2.3437 -0.4401 -1.5285
   30MOL0     H 3928   7.837   2.797   4.427 -1.3209  0.8417 -1.2777
   30MOL0     H 3929   7.804   2.950   4.504 -0.3495 -0.0960 -0.2171
   30MOL0     H 3930   7.717   2.840   4.697 -0.5391 -2.2008  0.3430
   30MOL0     H 3931   7.735   2.683   4.617  1.1371 -0.9812  0.5176
   30MOL0     H 3932   7.564   2.926   4.519  1.6649  0.7159  0.4818
   30MOL0     H 3933   7.584   2.777   4.423  0.0786  1.8689  0.6051
   30MOL0     H 3934   7.443   2.775   4.693 -1.1603 -1.9666  0.8750
   30MOL0     H 3935   7.455   2.641   4.575 -0.9664  0.4741 -1.6133
   30MOL0     H 3936   7.329   2.806   4.405 -0.5351 -0.8665  0.3735
   30MOL0     H 3937   7.338   2.911   4.541  2.9928  0.1467  0.8963
   30MOL0     H 3938   7.208   2.630   4.565  0.9013 -0.4249  1.8770
   30MOL0     H 3939   7.215   2.759   4.681 -2.2079 -1.3276 -0.0358
   30MOL0     H 3940   7.060   2.735   4.431 -0.6571 -0.0934  1.1808
   30MOL0     H 3941   7.109   2.897   4.487 -0.4739 -0.0683 -1.6595
   30MOL0     H 3942   8.275   2.932   4.387  1.6179  0.8467 -0.2592
   30MOL0     H 3943   8.516   2.943   4.465 -1.2147  3.7267  1.1142
   30MOL0     H 3944   8.808   2.713   4.743 -0.2423  1.1604 -0.8725
   30MOL0     H 3945   9.047   2.687   4.795 -1.0155 -0.5949  0.2695
   30MOL0     H 3946   9.840   1.726   6.131  0.2444  0.1835  1.0347
   30MOL0     H 3947  10.047   1.638   6.057 -3.7675 -0.3464  0.6398
   30MOL0     H 3948  10.510   1.474   6.168 -0.6876 -0.0204  0.1347
   30MOL0     H 3949  10.744   1.456   6.103  2.9468  0.8849 -2.3776
   30MOL0     H 3950  10.923   1.387   5.890  0.8681 -0.0446 -1.5115
   30MOL0     H 3951  10.944   1.475   6.039 -0.0233 -2.2368 -0.7588
   30MOL0     H 3952  11.097   1.538   5.780  0.3719  2.2279 -0.1185
   30MOL0     H 3953  11.127   1.602   5.943  0.0292  0.2524 -0.8064
   30MOL0     H 3954  11.168   1.311   5.880  1.8876 -0.8307  2.9093
   30MOL0     H 3955  11.194   1.401   6.033  1.1365  1.4099  0.9270
   30MOL0     H 3956  11.345   1.473   5.765  0.5557  2.0344 -0.0902
   30MOL0     H 3957  11.351   1.549   5.926 -2.6532 -0.6917  1.9409
   30MOL0     H 3958  11.626   1.224   5.947 -0.0123 -0.1308 -1.8797
   30MOL0     H 3959  10.677   1.740   5.779 -2.3446 -0.4871 -0.7755
   30MOL0     H 3960  10.456   1.757   5.848 -1.2894  1.0347  1.8771
   31MOL0     O 3961   5.745   8.400   6.908  0.2211 -0.1723 -0.8563
   31MOL0     C 3962   5.734   8.315   6.821 -1.1997  0.0525 -0.4462
   31MOL0     O 3963   5.838   8.276   6.737 -0.3563  0.7066  0.5465
   31MOL0     C 3964   5.962   8.340   6.735 -0.5505 -0.3403 -0.3046
   31MOL0     C 3965   6.035   8.379   6.852  0.1250 -0.1085  0.1602
   31MOL0     C 3966   6.170   8.422   6.847 -0.3470 -0.1148  0.3144
   31MOL0     C 3967   6.228   8.453   6.723 -0.2681  0.5775 -0.5266
   31MOL0     O 3968   6.362   8.487   6.725 -0.0327  0.6327  0.3658
   31MOL0     C 3969   6.433   8.486   6.602 -0.1443 -1.1462  0.0445
   31MOL0     C 3970   6.576   8.522   6.616 -0.7823  0.1540 -0.1125
   31MOL0     C 3971   6.656   8.418   6.695 -0.2530  0.1745  0.5471
   31MOL0     C 3972   6.794   8.438   6.647  0.0188 -0.7651  0.6680
   31MOL0     C 3973   6.893   8.363   6.738 -0.0159 -0.3861  0.8095
   31MOL0     C 3974   6.875   8.210   6.744 -0.6546  0.1787 -0.3227
   31MOL0     C 3975   6.912   8.151   6.610 -0.1054  0.4020  0.9378
   31MOL0     C 3976   6.977   8.016   6.626 -0.3279 -0.2483  0.3595
   31MOL0     N 3977   6.906   7.926   6.705  0.0201 -0.5256 -0.2339
   31MOL0     C 3978   6.772   7.881   6.685 -0.8447 -0.0058  0.4369
   31MOL0     C 3979   6.739   7.825   6.801 -0.8013  0.3999 -0.1802
   31MOL0     C 3980   6.605   7.760   6.836  0.4291 -0.6194  0.5625
   31MOL0     C 3981   6.503   7.743   6.722 -0.6121 -0.2892 -0.7314
   31MOL0     C 3982   6.365   7.659   6.749  0.0611  0.4785  0.2302
   31MOL0     C 3983   6.283   7.626   6.628 -0.1110 -0.3161  0.0273
   31MOL0     O 3984   6.165   7.551   6.658  0.4346 -0.0425  0.4950
   31MOL0     C 3985   6.042   7.602   6.697  0.2784  0.4493  0.1211
   31MOL0     C 3986   5.951   7.507   6.730 -0.9112 -0.1532 -0.5010
   31MOL0     C 3987   5.815   7.540   6.747 -0.1449  0.1952  0.3301
   31MOL0     C 3988   5.774   7.678   6.730 -0.4955 -0.4787  0.4444
   31MOL0     C 3989   5.631   7.716   6.739 -0.4112  0.1010 -0.2846
   31MOL0     O 3990   5.542   7.630   6.688  0.5056 -0.8353 -0.4073
   31MOL0     C 3991   5.404   7.649   6.721  0.3338  0.0319  0.1199
   31MOL0     C 3992   5.353   7.591   6.837 -0.3501 -1.4381  0.1766
   31MOL0     C 3993   5.219   7.596   6.866  1.1070 -0.9494  0.0495
   31MOL0     C 3994   5.131   7.669   6.784 -0.1399 -0.0627 -0.1444
   31MOL0     O 3995   5.003   7.682   6.842 -0.1765 -0.1584 -0.3176
   31MOL0     C 3996   4.890   7.741   6.770  0.2181  0.0718 -0.0133
   31MOL0     C 3997   4.760   7.740   6.855 -0.3144  0.1684 -0.1059
   31MOL0     C 3998   4.637   7.807   6.791  0.2088 -0.1984  0.7250
   31MOL0     C 3999   4.523   7.806   6.887  0.1801 -0.0925  0.9930
   31MOL0     C 4000   4.411   7.893   6.836 -0.0807  0.2052  0.1602
   31MOL0     C 4001   4.287   7.857   6.918  0.2707 -1.1633 -0.4389
   31MOL0     C 4002   4.163   7.920   6.838 -0.0962  0.1983  0.6691
   31MOL0     C 4003   4.143   8.070   6.828  0.1177 -0.5392  0.0766
   31MOL0    Cl 4004   4.087   8.134   6.993 -0.3573 -0.4428 -0.4482
   31MOL0     C 4005   5.177   7.715   6.663 -0.1572  0.1468 -0.0830
   31MOL0     C 4006   5.312   7.698   6.629 -0.4002 -0.0064  0.0655
   31MOL0     O 4007   5.606   7.829   6.787 -0.1840 -0.3953  0.6066
   31MOL0     C 4008   5.876   7.778   6.710  0.0070  0.1249  0.0452
   31MOL0     C 4009   6.009   7.734   6.701 -0.5987  0.5130 -0.4017
   31MOL0     N 4010   6.851   7.821   6.885  0.1810 -0.4941  0.8232
   31MOL0     N 4011   6.945   7.893   6.827  0.3957  0.8704 -0.4443
   31MOL0     C 4012   6.153   8.431   6.610 -0.4196 -0.2650 -0.1755
   31MOL0     C 4013   6.025   8.387   6.617 -0.6862  0.4310 -1.0360
   31MOL0     C 4014   5.598   8.249   6.809 -0.8583 -0.6373  0.3374
   31MOL0     C 4015   5.578   8.141   6.725 -0.1044  0.3582 -0.1506
   31MOL0     C 4016   5.455   8.075   6.716 -0.7261  0.1661 -0.3653
   31MOL0     C 4017   5.359   8.119   6.799  0.6524  0.3205 -0.3919
   31MOL0     O 4018   5.241   8.059   6.772  0.0224  0.9268 -0.9865
   31MOL0     C 4019   5.118   8.069   6.843 -0.4412 -0.5854 -0.5111
   31MOL0     C 4020   5.033   8.170   6.773  1.2939 -0.8042  0.1465
   31MOL0     C 4021   4.892   8.175   6.835 -0.1146 -0.4036  0.3822
   31MOL0     C 4022   4.797   8.275   6.768 -0.7429  0.8818 -0.2398
   31MOL0     C 4023   4.654   8.259   6.812 -0.8182 -0.7339  0.3344
   31MOL0     C 4024   4.536   8.247   6.828 -0.2797 -0.6820 -0.3209
   31MOL0     C 4025   5.370   8.224   6.883 -0.5328 -0.5376 -0.0936
   31MOL0     C 4026   5.498   8.280   6.899  0.3914  0.3852  0.3720
   31MOL0     H 4027   5.991   8.346   6.945  1.5402  1.3905  1.4296
   31MOL0     H 4028   6.235   8.439   6.932  1.0487 -1.6058 -0.4019
   31MOL0     H 4029   6.387   8.570   6.548  0.3199 -1.2944 -0.5918
   31MOL0     H 4030   6.424   8.386   6.560 -1.1417 -0.7287 -0.7749
   31MOL0     H 4031   6.585   8.617   6.668  0.4200  1.0377 -1.8319
   31MOL0     H 4032   6.615   8.535   6.514 -3.3793 -1.9092 -1.4870
   31MOL0     H 4033   6.617   8.320   6.669 -1.6708  1.2676 -1.7594
   31MOL0     H 4034   6.642   8.441   6.802  1.0195 -0.3234  0.8304
   31MOL0     H 4035   6.800   8.410   6.542 -0.1796  4.2260 -0.9317
   31MOL0     H 4036   6.811   8.546   6.655 -1.1350 -0.4417 -0.8720
   31MOL0     H 4037   6.880   8.393   6.843 -5.2862 -0.4296  0.4634
   31MOL0     H 4038   6.986   8.394   6.690  0.1614  0.5383  1.6992
   31MOL0     H 4039   6.777   8.181   6.783 -1.1182  3.7175  1.5558
   31MOL0     H 4040   6.944   8.167   6.817 -2.6918 -4.9200 -0.9957
   31MOL0     H 4041   6.830   8.145   6.538  0.6999  0.4833 -0.0024
   31MOL0     H 4042   6.990   8.210   6.562 -0.9189  1.0340  0.3478
   31MOL0     H 4043   7.082   8.030   6.652  0.2541  0.6539 -2.1002
   31MOL0     H 4044   6.970   7.970   6.527  1.9065  0.5927 -0.2416
   31MOL0     H 4045   6.718   7.901   6.593 -0.9031 -0.2774  0.4108
   31MOL0     H 4046   6.557   7.805   6.923 -0.6785  1.5357 -1.0841
   31MOL0     H 4047   6.636   7.656   6.854  0.6259 -0.2957  2.2380
   31MOL0     H 4048   6.561   7.683   6.651  0.2750 -3.7068  2.5336
   31MOL0     H 4049   6.481   7.845   6.690  1.0371  0.5308  0.6320
   31MOL0     H 4050   6.391   7.562   6.792  1.9396  0.0981 -1.5693
   31MOL0     H 4051   6.303   7.719   6.815 -0.1625 -0.4213  0.8596
   31MOL0     H 4052   6.347   7.566   6.562  1.1503 -1.3070  2.0479
   31MOL0     H 4053   6.249   7.721   6.587 -0.9201 -0.2444  0.8447
   31MOL0     H 4054   5.982   7.403   6.722  1.5123  0.5676 -1.4995
   31MOL0     H 4055   5.737   7.466   6.765 -2.1855  2.7092  2.5959
   31MOL0     H 4056   5.417   7.538   6.907 -0.1276  1.5025  2.3961
   31MOL0     H 4057   5.192   7.542   6.956  0.7950  1.2363  1.3228
   31MOL0     H 4058   4.881   7.673   6.685  2.0374 -2.6269  1.8187
   31MOL0     H 4059   4.921   7.837   6.726 -1.5767 -0.1546 -1.9546
   31MOL0     H 4060   4.775   7.782   6.955 -0.2239 -0.3622  0.1063
   31MOL0     H 4061   4.737   7.636   6.877  2.9080 -0.4346  1.0193
   31MOL0     H 4062   4.614   7.755   6.698  0.6791 -1.4106  1.2611
   31MOL0     H 4063   4.655   7.914   6.778  0.4940 -0.3508 -0.1222
   31MOL0     H 4064   4.490   7.705   6.915  3.8112 -1.6990 -0.0238
   31MOL0     H 4065   4.564   7.849   6.979  3.2826  2.4841 -1.3758
   31MOL0     H 4066   4.394   7.896   6.728  2.9120  0.5486 -0.3994
   31MOL0     H 4067   4.444   7.997   6.849 -1.6592  0.7221  0.1939
   31MOL0     H 4068   4.274   7.889   7.022  0.3063 -2.4114 -0.0263
   31MOL0     H 4069   4.280   7.748   6.919 -2.7746 -1.0776  1.0039
   31MOL0     H 4070   4.163   7.879   6.737  2.3569  1.7339 -0.0593
   31MOL0     H 4071   4.070   7.875   6.874 -1.2430  0.5569 -1.6439
   31MOL0     H 4072   4.065   8.089   6.754  0.5057  3.8349  0.5144
   31MOL0     H 4073   4.231   8.124   6.789 -1.6084  1.2500 -1.5765
   31MOL0     H 4074   5.106   7.762   6.596  1.0229  1.0576 -0.7192
   31MOL0     H 4075   5.346   7.731   6.531  0.1158 -0.1439  0.1971
   31MOL0     H 4076   5.847   7.882   6.700  1.7039  0.5796 -0.5526
   31MOL0     H 4077   6.083   7.811   6.680 -2.1169  2.3280  0.6430
   31MOL0     H 4078   6.196   8.457   6.514  2.6327 -0.7014  0.9379
   31MOL0     H 4079   5.957   8.364   6.535 -0.3898 -2.0414 -0.6675
   31MOL0     H 4080   5.655   8.117   6.652 -2.7400  0.9958 -3.3825
   31MOL0     H 4081   5.446   8.002   6.636  0.0407 -1.5306  1.0310
   31MOL0     H 4082   5.125   8.096   6.949  1.0587 -1.8561 -0.2494
   31MOL0     H 4083   5.070   7.971   6.835  0.0541 -0.7438 -1.7620
   31MOL0     H 4084   5.081   8.268   6.788  2.6580 -0.7483 -3.5250
   31MOL0     H 4085   5.034   8.141   6.667  0.5256  1.1216 -0.4433
   31MOL0     H 4086   4.896   8.197   6.942 -2.0232 -1.5611  0.7368
   31MOL0     H 4087   4.852   8.074   6.832  1.0217 -0.9136  1.2397
   31MOL0     H 4088   4.837   8.374   6.792  0.6214  0.2622  0.1445
   31MOL0     H 4089   4.802   8.248   6.662 -0.6168 -1.5127  0.3134
   31MOL0     H 4090   4.433   8.231   6.855 -0.8908 -2.0148 -3.1232
   31MOL0     H 4091   5.288   8.273   6.934  1.2292  0.6253  1.7789
   31MOL0     H 4092   5.516   8.363   6.967  4.0821  0.7451 -0.8321
   32MOL0     O 4093   2.770   8.160  10.223  0.0592 -0.0120  0.2600
   32MOL0     C 4094   2.836   8.062  10.191 -0.0486  0.0872  0.1111
   32MOL0     O 4095   2.804   7.971  10.101 -0.5674  0.3493  0.5326
   32MOL0     C 4096   2.696   7.981  10.011  0.1677 -0.0333  0.6215
   32MOL0     C 4097   2.612   8.089   9.976  0.3009  0.8443  0.1426
   32MOL0     C 4098   2.502   8.070   9.891  1.0172  0.1129 -0.1398
   32MOL0     C 4099   2.474   7.945   9.828  0.1827 -0.0416  0.3965
   32MOL0     O 4100   2.365   7.945   9.745 -0.8639 -0.5312  0.2580
   32MOL0     C 4101   2.285   7.828   9.742  0.1995 -0.3770 -0.0226
   32MOL0     C 4102   2.151   7.860   9.671  0.4747  0.6114  0.1367
   32MOL0     C 4103   2.068   7.737   9.623  0.1736 -0.2571 -0.3557
   32MOL0     C 4104   2.127   7.682   9.488  0.4293  1.0733  0.1240
   32MOL0     C 4105   2.060   7.556   9.443  0.3345 -0.3575 -0.1187
   32MOL0     C 4106   2.138   7.440   9.506  0.3370 -0.3208  0.5559
   32MOL0     C 4107   2.092   7.321   9.420  0.5566  0.3329 -0.3359
   32MOL0     C 4108   2.186   7.197   9.460  0.0482 -0.2453 -0.5073
   32MOL0     N 4109   2.161   7.070   9.397  0.5785  0.1675  0.3555
   32MOL0     C 4110   2.224   6.953   9.436  0.5509  0.3388  0.3624
   32MOL0     C 4111   2.170   6.857   9.354 -0.1384 -0.9053 -0.3624
   32MOL0     C 4112   2.199   6.715   9.367 -0.9128 -0.4986 -0.5760
   32MOL0     C 4113   2.257   6.650   9.243 -0.1860 -0.3215 -0.6299
   32MOL0     C 4114   2.373   6.544   9.264 -0.8541  0.4254 -0.1691
   32MOL0     C 4115   2.350   6.449   9.376 -0.1641  0.3406 -0.0646
   32MOL0     O 4116   2.221   6.385   9.345 -0.4395  0.2158  0.0877
   32MOL0     C 4117   2.207   6.274   9.275 -0.3312  1.0386  0.2258
   32MOL0     C 4118   2.079   6.225   9.258  0.1210 -0.6431  0.1534
   32MOL0     C 4119   2.051   6.113   9.180  0.6943  0.3245  0.4471
   32MOL0     C 4120   2.160   6.047   9.101  0.4941 -0.0963 -0.0089
   32MOL0     C 4121   2.135   5.926   9.016 -0.5417  0.0803  0.0330
   32MOL0     O 4122   2.018   5.861   9.020  1.1977  0.6245  0.2691
   32MOL0     C 4123   1.989   5.765   8.918  0.9707  0.1789 -0.8652
   32MOL0     C 4124   1.861   5.760   8.864  0.0550 -0.0070  0.4628
   32MOL0     C 4125   1.823   5.666   8.774  0.1761  0.1800  0.3331
   32MOL0     C 4126   1.916   5.560   8.728 -0.5418 -0.2175 -0.3296
   32MOL0     O 4127   1.902   5.463   8.631 -0.1852 -0.3982 -0.7100
   32MOL0     C 4128   1.784   5.455   8.549 -0.7487 -0.4400 -0.5848
   32MOL0     C 4129   1.676   5.380   8.632  0.2952  0.1075 -0.6998
   32MOL0     C 4130   1.543   5.386   8.559  0.3516  0.2192  0.3855
   32MOL0     C 4131   1.445   5.301   8.649 -0.1406  0.3443  0.7481
   32MOL0     C 4132   1.326   5.259   8.562  0.4271  0.2317 -0.3441
   32MOL0     C 4133   1.213   5.213   8.654  0.5237 -0.3424  0.0084
   32MOL0     C 4134   1.096   5.170   8.570  0.1091  0.6716  0.4481
   32MOL0     C 4135   0.972   5.124   8.647  0.4253 -0.8986  1.2443
   32MOL0    Cl 4136   0.876   5.022   8.524  0.2470  0.1532  0.0031
   32MOL0     C 4137   2.040   5.558   8.786  0.6105  0.0508 -0.3100
   32MOL0     C 4138   2.072   5.657   8.881 -0.3019  0.5825 -0.1704
   32MOL0     O 4139   2.229   5.894   8.937 -0.0018 -1.0971 -0.1963
   32MOL0     C 4140   2.287   6.112   9.109 -0.2685 -0.9581  0.1558
   32MOL0     C 4141   2.312   6.213   9.203  0.4067  0.0767  0.3568
   32MOL0     N 4142   2.065   6.903   9.276 -0.0180  0.8284 -0.7856
   32MOL0     N 4143   2.062   7.031   9.303  0.8562 -0.3914  0.7364
   32MOL0     C 4144   2.552   7.835   9.860  0.1486  0.3577  0.3960
   32MOL0     C 4145   2.671   7.861   9.940 -0.1297  0.5604 -0.1483
   32MOL0     C 4146   2.954   8.031  10.268  0.1689 -0.3309  0.0293
   32MOL0     C 4147   2.976   8.090  10.397 -0.3333  0.1729 -0.2766
   32MOL0     C 4148   3.098   8.075  10.466 -0.3565 -0.2165  0.5673
   32MOL0     C 4149   3.192   7.987  10.412 -0.7534 -0.0010  0.1579
   32MOL0     O 4150   3.307   7.952  10.487  0.5828  0.6845  0.5511
   32MOL0     C 4151   3.342   8.037  10.598 -0.3826 -0.9650 -0.3282
   32MOL0     C 4152   3.483   7.997  10.624 -0.0482  0.7863 -1.2680
   32MOL0     C 4153   3.530   8.080  10.747 -0.4724  0.0800 -0.1471
   32MOL0     C 4154   3.669   8.031  10.790  0.2739  0.4459 -0.4575
   32MOL0     C 4155   3.736   8.134  10.864  0.2046  0.0790 -0.2435
   32MOL0     C 4156   3.802   8.219  10.916  0.6430 -0.3444 -0.6610
   32MOL0     C 4157   3.170   7.930  10.283  0.5056  0.3246 -0.2369
   32MOL0     C 4158   3.062   7.953  10.209 -0.1100 -0.1602  0.6942
   32MOL0     H 4159   2.645   8.184  10.018  0.3538  1.5944 -1.5284
   32MOL0     H 4160   2.435   8.154   9.874  0.3357 -0.7416 -1.9765
   32MOL0     H 4161   2.265   7.799   9.845  0.3996  2.2661  0.8290
   32MOL0     H 4162   2.321   7.739   9.690  0.4442 -0.7121  0.7147
   32MOL0     H 4163   2.167   7.932   9.591  1.3143  2.0165  1.5238
   32MOL0     H 4164   2.091   7.909   9.749  1.4184  0.6297  0.8645
   32MOL0     H 4165   1.966   7.774   9.618  0.2081  0.2255  1.6937
   32MOL0     H 4166   2.080   7.660   9.701 -2.1724 -0.4744 -0.1272
   32MOL0     H 4167   2.092   7.758   9.417 -2.2471  1.1285  1.3450
   32MOL0     H 4168   2.235   7.669   9.494  0.6522  1.6685 -1.9035
   32MOL0     H 4169   2.065   7.548   9.334  0.5687 -0.8972 -0.0705
   32MOL0     H 4170   1.956   7.550   9.477 -0.1026  0.2369 -1.2981
   32MOL0     H 4171   2.120   7.426   9.613  2.9891  1.5366  1.3341
   32MOL0     H 4172   2.245   7.451   9.490  0.8849 -1.6484  2.8677
   32MOL0     H 4173   1.986   7.300   9.440  0.9314 -4.7284 -2.0319
   32MOL0     H 4174   2.116   7.346   9.316 -0.2557 -0.1519 -0.6495
   32MOL0     H 4175   2.182   7.183   9.569 -1.2846 -0.4137 -0.5618
   32MOL0     H 4176   2.293   7.214   9.446  0.1974 -1.6234 -1.1853
   32MOL0     H 4177   2.303   6.926   9.507  2.5487 -0.1656 -1.9114
   32MOL0     H 4178   2.120   6.656   9.414  1.5969 -2.6007  1.3671
   32MOL0     H 4179   2.280   6.706   9.441 -1.5530 -1.5494  0.0203
   32MOL0     H 4180   2.293   6.732   9.181 -0.9307  1.7095  1.4517
   32MOL0     H 4181   2.178   6.608   9.180 -0.5024 -0.6980  0.0015
   32MOL0     H 4182   2.382   6.483   9.173  0.8812  1.2495 -0.5897
   32MOL0     H 4183   2.467   6.591   9.294 -1.2016 -0.2435  2.1578
   32MOL0     H 4184   2.335   6.506   9.468 -2.7705 -0.4257  0.0675
   32MOL0     H 4185   2.421   6.367   9.391 -1.9019 -1.2711 -0.2582
   32MOL0     H 4186   1.992   6.271   9.305  0.1219 -0.7651  0.2759
   32MOL0     H 4187   1.950   6.073   9.170  1.0320 -0.5199  0.2800
   32MOL0     H 4188   1.782   5.830   8.888  0.6717  0.5990  0.7696
   32MOL0     H 4189   1.719   5.664   8.744 -0.1627 -2.3786  1.3568
   32MOL0     H 4190   1.797   5.396   8.458  0.6336 -3.1756  1.2502
   32MOL0     H 4191   1.746   5.553   8.520 -0.9955 -0.1975  0.5170
   32MOL0     H 4192   1.655   5.416   8.733 -0.9727  0.4136 -1.0497
   32MOL0     H 4193   1.717   5.280   8.645  3.7189  1.5073  0.3736
   32MOL0     H 4194   1.543   5.340   8.460  0.2591 -0.1526  0.5570
   32MOL0     H 4195   1.506   5.488   8.547  0.8129  0.1851 -1.7442
   32MOL0     H 4196   1.502   5.212   8.678  1.9601  0.6711 -1.9517
   32MOL0     H 4197   1.420   5.362   8.736 -0.1293  1.4044  0.0292
   32MOL0     H 4198   1.348   5.176   8.494  1.1011  0.8624 -0.9130
   32MOL0     H 4199   1.305   5.348   8.502  0.7990 -0.4100 -1.4722
   32MOL0     H 4200   1.182   5.300   8.712 -3.1062 -2.0094  0.8275
   32MOL0     H 4201   1.244   5.140   8.729 -2.1567  0.7981  2.4131
   32MOL0     H 4202   1.071   5.253   8.504 -1.0444  1.6479  2.0394
   32MOL0     H 4203   1.126   5.082   8.512 -3.0759  0.0582 -0.4511
   32MOL0     H 4204   0.904   5.199   8.688 -2.7580 -2.7649 -0.2674
   32MOL0     H 4205   0.986   5.053   8.729 -1.6647 -1.8997  0.8025
   32MOL0     H 4206   2.111   5.484   8.750 -0.6517 -0.5640 -1.6625
   32MOL0     H 4207   2.166   5.673   8.931 -1.6041  0.8713  2.3646
   32MOL0     H 4208   2.370   6.081   9.047 -0.3169 -0.1962 -0.3053
   32MOL0     H 4209   2.413   6.252   9.198  0.1616  0.7393  0.5156
   32MOL0     H 4210   2.533   7.736   9.818 -0.1208  0.1019  1.1101
   32MOL0     H 4211   2.739   7.781   9.966  0.7854  1.5850  0.6867
   32MOL0     H 4212   2.893   8.147  10.438  0.2656  0.3927  0.6883
   32MOL0     H 4213   3.108   8.122  10.563 -3.1761 -0.7610  1.2076
   32MOL0     H 4214   3.281   8.024  10.688  2.0524  0.1594  1.6047
   32MOL0     H 4215   3.348   8.143  10.573 -0.6492 -0.9607 -0.3720
   32MOL0     H 4216   3.491   7.893  10.657 -2.7632  0.5589 -1.0939
   32MOL0     H 4217   3.554   8.009  10.542 -0.9932  0.2460 -2.1844
   32MOL0     H 4218   3.461   8.091  10.830  0.8943  0.3741  0.9908
   32MOL0     H 4219   3.544   8.179  10.702  2.2650 -0.7255 -1.2915
   32MOL0     H 4220   3.666   7.953  10.867 -0.9177  2.1963  1.3480
   32MOL0     H 4221   3.732   8.000  10.705 -0.9342 -0.2600 -1.1223
   32MOL0     H 4222   3.863   8.279  10.981  1.9185 -1.0512 -1.1605
   32MOL0     H 4223   3.239   7.858  10.242 -0.1831 -0.3134 -0.2852
   32MOL0     H 4224   3.055   7.924  10.105  1.2368 -0.7658  0.7518
   33MOL0     O 4225  11.118   3.349   4.354  0.0200 -0.6412  0.4959
   33MOL0     C 4226  11.211   3.405   4.299  0.6762  0.6167 -0.0141
   33MOL0     O 4227  11.226   3.538   4.292  0.9072  0.2165  0.0452
   33MOL0     C 4228  11.115   3.623   4.302 -0.7681  0.3488  0.5782
   33MOL0     C 4229  10.983   3.591   4.272  0.3006 -0.7640 -0.1488
   33MOL0     C 4230  10.890   3.694   4.292 -0.4078  0.1231  0.4884
   33MOL0     C 4231  10.924   3.820   4.350 -0.0100  1.1924  0.2790
   33MOL0     O 4232  10.844   3.925   4.381  0.1193 -0.5148  0.0196
   33MOL0     C 4233  10.708   3.916   4.364  0.5749  0.7317 -0.3888
   33MOL0     C 4234  10.635   4.041   4.405  0.6293 -0.1955  0.3520
   33MOL0     C 4235  10.475   4.024   4.379 -0.0969 -0.4196  0.5162
   33MOL0     C 4236  10.425   4.015   4.232  0.4590 -0.0312  0.0240
   33MOL0     C 4237  10.274   3.991   4.211 -0.0815  0.0410 -0.5085
   33MOL0     C 4238  10.184   4.080   4.281  0.0411  0.0710 -0.0692
   33MOL0     C 4239  10.040   4.053   4.259  0.7720  0.0699  0.2525
   33MOL0     C 4240   9.982   4.060   4.113  0.3208  1.4200 -0.7473
   33MOL0     N 4241   9.839   4.041   4.113  0.5393  1.0230  0.4034
   33MOL0     C 4242   9.750   4.065   4.214  0.7487 -0.2575  0.0252
   33MOL0     C 4243   9.647   3.989   4.192  0.6512 -0.4273 -0.2927
   33MOL0     C 4244   9.510   3.962   4.257  0.7324 -1.3388  0.8869
   33MOL0     C 4245   9.515   3.844   4.349 -0.0314 -0.1479 -0.2838
   33MOL0     C 4246   9.426   3.732   4.305 -0.5466 -0.7829 -0.2488
   33MOL0     C 4247   9.474   3.678   4.170 -0.1901  0.5538  0.2768
   33MOL0     O 4248   9.380   3.565   4.142  0.0648  0.1194 -0.3519
   33MOL0     C 4249   9.245   3.574   4.120  0.5050  0.0894 -0.3314
   33MOL0     C 4250   9.165   3.468   4.157  0.0862  0.3703 -0.1393
   33MOL0     C 4251   9.033   3.460   4.120 -0.1367  0.6342  0.0155
   33MOL0     C 4252   8.967   3.571   4.050 -0.4205 -0.0955  1.2006
   33MOL0     C 4253   8.818   3.573   4.021 -0.4798 -0.5487 -0.1548
   33MOL0     O 4254   8.781   3.663   3.929 -0.6487  0.5565  0.1702
   33MOL0     C 4255   8.643   3.674   3.898 -0.3784 -0.0798 -0.1692
   33MOL0     C 4256   8.570   3.789   3.923 -0.4898 -0.0287  0.3221
   33MOL0     C 4257   8.433   3.802   3.885 -0.6746 -0.7126 -0.8581
   33MOL0     C 4258   8.364   3.697   3.827 -0.5539  0.5735 -0.7180
   33MOL0     O 4259   8.227   3.715   3.817  0.0789 -0.0126 -0.0778
   33MOL0     C 4260   8.159   3.596   3.771 -0.3746  0.0276  0.4760
   33MOL0     C 4261   8.014   3.629   3.760  0.4453  0.1251  0.4714
   33MOL0     C 4262   7.922   3.509   3.725  1.2467 -0.6959 -0.3484
   33MOL0     C 4263   7.783   3.527   3.777  0.5715 -0.1870 -0.3243
   33MOL0     C 4264   7.708   3.646   3.707 -0.7682  0.3867 -0.2449
   33MOL0     C 4265   7.567   3.648   3.757  0.3187  0.0876 -0.3672
   33MOL0     C 4266   7.493   3.785   3.748 -0.8657 -0.3719  0.9303
   33MOL0     C 4267   7.358   3.792   3.828  0.5435 -0.2424  0.1208
   33MOL0    Cl 4268   7.313   3.961   3.836  0.1644 -0.3354 -0.0923
   33MOL0     C 4269   8.436   3.585   3.815 -0.0374 -0.1070 -0.1054
   33MOL0     C 4270   8.578   3.576   3.838 -0.1595  0.5534  0.3667
   33MOL0     O 4271   8.739   3.505   4.087  0.2706  0.2750 -0.4572
   33MOL0     C 4272   9.051   3.685   4.022  0.4609  0.6763 -0.1942
   33MOL0     C 4273   9.182   3.684   4.060 -0.5140 -0.9201 -0.2723
   33MOL0     N 4274   9.673   3.913   4.083  0.3521 -0.7156 -0.1338
   33MOL0     N 4275   9.787   3.945   4.031  0.0905  0.3831  0.1705
   33MOL0     C 4276  11.056   3.845   4.380  0.4424 -0.1968 -0.4579
   33MOL0     C 4277  11.150   3.747   4.354  0.3976 -0.0882 -0.4146
   33MOL0     C 4278  11.323   3.319   4.256  0.5442  0.5533  0.6891
   33MOL0     C 4279  11.450   3.369   4.217 -0.3430 -0.2309 -0.5264
   33MOL0     C 4280  11.560   3.288   4.180 -1.0389 -0.6296 -1.0463
   33MOL0     C 4281  11.535   3.144   4.190 -1.1485  0.4934  0.3852
   33MOL0     O 4282  11.637   3.053   4.162 -0.0098 -0.5703 -0.4079
   33MOL0     C 4283  11.616   2.940   4.073 -0.0562 -0.1044  0.3790
   33MOL0     C 4284  11.747   2.925   3.999 -0.0663 -0.4680  0.5841
   33MOL0     C 4285  11.863   2.869   4.074 -0.3554 -0.3321  0.1625
   33MOL0     C 4286  11.895   2.949   4.198  0.4852 -0.1105  0.3050
   33MOL0     C 4287  12.026   2.912   4.244 -0.8042 -0.2651  0.1268
   33MOL0     C 4288  12.135   2.869   4.279 -0.1218  0.2012  1.3077
   33MOL0     C 4289  11.418   3.101   4.231 -0.6235 -0.5725 -0.6006
   33MOL0     C 4290  11.313   3.179   4.270  0.2189  0.3437 -0.1606
   33MOL0     H 4291  10.947   3.503   4.220  3.0071 -0.4905 -2.6825
   33MOL0     H 4292  10.786   3.668   4.272  0.2372 -0.8506 -1.9737
   33MOL0     H 4293  10.670   3.836   4.429 -0.6220  1.4081 -0.2083
   33MOL0     H 4294  10.686   3.881   4.263 -0.3259  1.0217 -0.3043
   33MOL0     H 4295  10.679   4.131   4.360  1.4323 -0.2768  0.9456
   33MOL0     H 4296  10.647   4.065   4.511  0.4084  1.1966  0.0829
   33MOL0     H 4297  10.427   4.114   4.419 -0.5474  0.2723 -1.4915
   33MOL0     H 4298  10.438   3.937   4.434  1.8680 -0.2182  2.2741
   33MOL0     H 4299  10.451   4.106   4.177 -2.7156 -0.2664 -2.1322
   33MOL0     H 4300  10.476   3.927   4.193  3.3043  0.2793  2.6213
   33MOL0     H 4301  10.251   3.886   4.229  1.2870 -0.3939 -1.1351
   33MOL0     H 4302  10.252   4.005   4.104  2.3466  1.0174 -0.9341
   33MOL0     H 4303  10.206   4.186   4.264 -0.0362 -0.4427 -4.5165
   33MOL0     H 4304  10.193   4.063   4.389  0.5817 -0.8286 -0.2544
   33MOL0     H 4305  10.016   3.956   4.304  2.6548 -0.9864 -0.8965
   33MOL0     H 4306   9.986   4.123   4.323 -2.0271  0.1092 -1.9135
   33MOL0     H 4307  10.028   3.977   4.058  2.3221  2.2655 -0.4185
   33MOL0     H 4308  10.004   4.155   4.063 -0.6557  2.2280  0.3136
   33MOL0     H 4309   9.762   4.124   4.304  2.3687 -0.0914 -0.2565
   33MOL0     H 4310   9.443   3.950   4.171  0.7692  3.8817 -0.1365
   33MOL0     H 4311   9.477   4.047   4.317 -2.3337 -0.1356 -2.1428
   33MOL0     H 4312   9.485   3.876   4.450  1.6339  1.5894 -0.2772
   33MOL0     H 4313   9.616   3.806   4.360  0.4020  0.7819 -0.9035
   33MOL0     H 4314   9.410   3.656   4.382 -2.1213  0.4489  0.7052
   33MOL0     H 4315   9.325   3.774   4.292 -1.0033 -1.9746 -0.7182
   33MOL0     H 4316   9.576   3.640   4.181 -0.4646 -1.4933 -2.9177
   33MOL0     H 4317   9.477   3.756   4.094 -1.0677  0.9383  0.6227
   33MOL0     H 4318   9.201   3.383   4.214 -2.8701 -0.5377  0.5384
   33MOL0     H 4319   8.979   3.368   4.137  1.0805 -0.5411 -2.0019
   33MOL0     H 4320   8.611   3.880   3.965 -0.2519 -0.2333  0.5368
   33MOL0     H 4321   8.374   3.890   3.910  0.1209 -0.6003  0.6867
   33MOL0     H 4322   8.163   3.514   3.843 -1.4452  1.4171  2.1761
   33MOL0     H 4323   8.205   3.556   3.680  2.0181 -2.8287  2.7305
   33MOL0     H 4324   8.017   3.709   3.686  0.0488 -0.5939 -0.3393
   33MOL0     H 4325   7.976   3.679   3.849 -2.9742 -0.0629 -0.7471
   33MOL0     H 4326   7.947   3.412   3.768 -2.5485 -0.6541  2.3863
   33MOL0     H 4327   7.918   3.492   3.617 -0.6078  0.1635 -0.4544
   33MOL0     H 4328   7.738   3.430   3.755  0.1507  0.3593 -2.0430
   33MOL0     H 4329   7.794   3.555   3.882 -1.9034 -2.1974  0.5784
   33MOL0     H 4330   7.722   3.631   3.600 -1.7030 -0.8622 -0.2047
   33MOL0     H 4331   7.763   3.736   3.736  0.1227 -0.8141  2.0750
   33MOL0     H 4332   7.566   3.608   3.859 -2.5446  0.5705 -0.1274
   33MOL0     H 4333   7.515   3.574   3.696 -2.0497  2.3715 -1.2949
   33MOL0     H 4334   7.559   3.863   3.789  0.1049 -0.1832 -0.8991
   33MOL0     H 4335   7.473   3.807   3.643 -3.0005 -0.7070  1.2193
   33MOL0     H 4336   7.372   3.765   3.933  0.3900  2.7265  0.9813
   33MOL0     H 4337   7.286   3.732   3.772  1.5741 -0.8041 -0.6337
   33MOL0     H 4338   8.392   3.492   3.779 -2.5307  0.7729  0.5441
   33MOL0     H 4339   8.618   3.475   3.833 -3.4765 -0.9385  1.6884
   33MOL0     H 4340   9.013   3.773   3.972 -1.9627  1.2234  2.3236
   33MOL0     H 4341   9.241   3.773   4.040 -0.3318 -1.3533 -1.8164
   33MOL0     H 4342  11.090   3.941   4.416  0.1036 -0.3391  0.2480
   33MOL0     H 4343  11.253   3.769   4.378 -0.7744  2.5994  2.9255
   33MOL0     H 4344  11.469   3.476   4.221 -2.5786  0.1798  1.1579
   33MOL0     H 4345  11.651   3.337   4.146 -0.5940  1.7403  3.0206
   33MOL0     H 4346  11.534   2.970   4.007  0.7731  2.8869  0.5415
   33MOL0     H 4347  11.599   2.848   4.130 -0.2875 -0.3913 -0.1467
   33MOL0     H 4348  11.719   2.857   3.917  3.3537  1.2671 -2.3208
   33MOL0     H 4349  11.770   3.013   3.939 -0.0338 -2.1865 -2.1274
   33MOL0     H 4350  11.948   2.872   4.006 -1.2663  0.6510 -0.9798
   33MOL0     H 4351  11.845   2.763   4.093 -0.7189 -0.5394 -1.2061
   33MOL0     H 4352  11.893   3.058   4.185  0.3218  0.1762  2.2829
   33MOL0     H 4353  11.824   2.930   4.279  1.0007 -2.5820  0.2572
   33MOL0     H 4354  12.238   2.841   4.287  0.3708  1.6609  0.5929
   33MOL0     H 4355  11.416   2.993   4.241  1.8335 -0.8447 -2.1623
   33MOL0     H 4356  11.225   3.131   4.311  0.2671 -1.6149 -2.1387
   34MOL0     O 4357  10.454   1.974   0.146 -1.1385  0.0737 -0.3946
   34MOL0     C 4358  10.479   2.059   0.055 -0.2872  0.1986  0.3454
   34MOL0     O 4359  10.431   2.051  -0.071  0.0340 -1.1902 -0.0243
   34MOL0     C 4360  10.340   1.960  -0.098 -0.0309  0.5159 -1.2195
   34MOL0     C 4361  10.208   1.988  -0.070 -0.4013  0.4992  0.2355
   34MOL0     C 4362  10.107   1.900  -0.109 -0.1602 -0.2936 -0.0137
   34MOL0     C 4363  10.138   1.782  -0.180  0.4115 -0.3218  0.0724
   34MOL0     O 4364  10.043   1.691  -0.226  0.1300  0.2729 -0.8906
   34MOL0     C 4365   9.905   1.715  -0.225 -0.2842  0.1948  0.1508
   34MOL0     C 4366   9.837   1.671  -0.091 -0.1252  0.5045 -0.5541
   34MOL0     C 4367   9.685   1.702  -0.105 -0.5142 -0.3114  0.4647
   34MOL0     C 4368   9.607   1.654   0.013  0.1722  0.7189  0.3112
   34MOL0     C 4369   9.463   1.714   0.017  0.6603 -0.4834  0.0176
   34MOL0     C 4370   9.369   1.653  -0.078  0.0869  0.5206  0.6203
   34MOL0     C 4371   9.225   1.698  -0.059  0.5873  0.2415  0.3077
   34MOL0     C 4372   9.133   1.646  -0.170 -0.1463  0.0329 -0.1563
   34MOL0     N 4373   8.993   1.704  -0.152 -0.1744 -0.1592 -0.1020
   34MOL0     C 4374   8.924   1.772  -0.252  0.7094  0.2232  0.0503
   34MOL0     C 4375   8.806   1.816  -0.197  0.2811  0.0238 -0.3083
   34MOL0     C 4376   8.692   1.854  -0.287 -0.1714 -0.4807 -0.2162
   34MOL0     C 4377   8.552   1.809  -0.230 -1.3941  0.1385 -0.4218
   34MOL0     C 4378   8.535   1.657  -0.194  0.1623  0.2868  0.0111
   34MOL0     C 4379   8.390   1.631  -0.169 -0.3384 -0.8249 -0.3683
   34MOL0     O 4380   8.310   1.642  -0.284  0.3938 -0.1548 -0.2857
   34MOL0     C 4381   8.175   1.602  -0.279 -1.0133  0.7553 -0.5016
   34MOL0     C 4382   8.090   1.583  -0.383  0.1622  0.0649  0.6769
   34MOL0     C 4383   7.961   1.546  -0.371  0.0612  0.3847 -0.0861
   34MOL0     C 4384   7.911   1.532  -0.251  0.0895 -0.2624 -1.2638
   34MOL0     C 4385   7.767   1.495  -0.236  0.0689 -0.3960  0.6473
   34MOL0     O 4386   7.693   1.509  -0.345  0.1612  1.0468  0.2491
   34MOL0     C 4387   7.560   1.463  -0.348  0.0517  0.6816  0.7113
   34MOL0     C 4388   7.519   1.329  -0.315  0.2788 -0.0727  0.2563
   34MOL0     C 4389   7.383   1.301  -0.321 -0.0034  0.0728  0.3101
   34MOL0     C 4390   7.294   1.396  -0.369  0.1749 -0.2655  0.2946
   34MOL0     O 4391   7.155   1.374  -0.384 -0.5903  0.0609  0.3426
   34MOL0     C 4392   7.088   1.256  -0.335  0.2571 -0.2653  1.6025
   34MOL0     C 4393   6.937   1.272  -0.358  0.4325  0.0217 -1.0835
   34MOL0     C 4394   6.879   1.396  -0.283 -0.0217  0.5257 -0.0450
   34MOL0     C 4395   6.723   1.406  -0.298  0.2840 -0.1331  0.0353
   34MOL0     C 4396   6.671   1.550  -0.289 -0.3769  1.0365 -0.2739
   34MOL0     C 4397   6.522   1.556  -0.306 -0.5023  0.1464  0.0507
   34MOL0     C 4398   6.471   1.703  -0.307 -1.0567 -0.2242  0.2111
   34MOL0     C 4399   6.310   1.699  -0.294 -0.1812  0.2172 -0.2757
   34MOL0    Cl 4400   6.258   1.869  -0.316  0.0649  0.2639 -0.0378
   34MOL0     C 4401   7.342   1.524  -0.410  0.2137  0.2098 -0.0422
   34MOL0     C 4402   7.470   1.560  -0.380 -0.3231  0.1833  0.3633
   34MOL0     O 4403   7.729   1.437  -0.132  0.0830  0.3530  0.0993
   34MOL0     C 4404   7.994   1.550  -0.131  0.3379  0.7835  0.2471
   34MOL0     C 4405   8.123   1.575  -0.152 -0.2325  0.8516  0.1292
   34MOL0     N 4406   8.811   1.771  -0.067 -0.3596 -0.0170 -0.0438
   34MOL0     N 4407   8.921   1.706  -0.040 -0.1522 -0.0110 -0.8341
   34MOL0     C 4408  10.270   1.749  -0.199 -0.7149  0.0998 -0.4816
   34MOL0     C 4409  10.376   1.841  -0.154  0.7417  0.2757  0.4724
   34MOL0     C 4410  10.582   2.164   0.082 -0.5424 -0.2005 -1.1673
   34MOL0     C 4411  10.628   2.189   0.218  0.7447  0.2702  1.2896
   34MOL0     C 4412  10.721   2.290   0.244 -0.2982  0.5877  0.2611
   34MOL0     C 4413  10.762   2.378   0.153  0.0363  0.6702  0.4397
   34MOL0     O 4414  10.859   2.479   0.173 -0.2575  0.2301  0.0043
   34MOL0     C 4415  10.990   2.406   0.186  0.7962  0.0796  0.1463
   34MOL0     C 4416  11.108   2.480   0.130 -0.3378  0.2745 -0.4477
   34MOL0     C 4417  11.182   2.578   0.228  0.0226 -0.0363  0.4231
   34MOL0     C 4418  11.314   2.631   0.157  0.3781 -0.2084 -0.3683
   34MOL0     C 4419  11.369   2.729   0.249 -0.3763 -1.1202 -0.1375
   34MOL0     C 4420  11.424   2.801   0.322 -0.0122 -1.0360 -0.1381
   34MOL0     C 4421  10.708   2.359   0.025  0.1562 -0.6500  0.2427
   34MOL0     C 4422  10.625   2.262  -0.008 -0.6367  0.4862 -0.3114
   34MOL0     H 4423  10.183   2.072  -0.006 -0.7229  1.8165 -1.5229
   34MOL0     H 4424  10.005   1.932  -0.092  0.0709  0.5440 -0.1562
   34MOL0     H 4425   9.861   1.645  -0.297  1.6334 -0.5516 -0.3806
   34MOL0     H 4426   9.879   1.815  -0.259 -0.5200 -0.2835 -1.1547
   34MOL0     H 4427   9.876   1.713   0.003 -2.4114  3.3754 -0.7357
   34MOL0     H 4428   9.852   1.563  -0.090  0.3284  0.5262  1.8826
   34MOL0     H 4429   9.644   1.650  -0.193 -1.1449 -1.2440  1.2866
   34MOL0     H 4430   9.676   1.809  -0.126  1.0573 -0.8869 -4.4022
   34MOL0     H 4431   9.614   1.546   0.029 -3.1703  0.6653  2.2613
   34MOL0     H 4432   9.653   1.696   0.103  0.3708  3.5269 -1.0184
   34MOL0     H 4433   9.466   1.819  -0.011  1.3502  0.0116  1.8110
   34MOL0     H 4434   9.430   1.707   0.121 -0.2185 -1.1327 -0.2942
   34MOL0     H 4435   9.351   1.549  -0.049 -3.8469  0.8456 -0.0254
   34MOL0     H 4436   9.399   1.656  -0.183  2.7541 -1.7539  1.2174
   34MOL0     H 4437   9.184   1.662   0.035  0.6875  1.6694  0.9236
   34MOL0     H 4438   9.215   1.805  -0.043 -0.7693 -0.1413  2.3821
   34MOL0     H 4439   9.127   1.537  -0.163  1.8535 -0.1546 -0.7572
   34MOL0     H 4440   9.174   1.665  -0.270  0.2274  1.4488  0.2442
   34MOL0     H 4441   8.951   1.776  -0.357  0.7190  1.1042  0.0816
   34MOL0     H 4442   8.705   1.796  -0.379  1.3710 -0.1951 -0.2078
   34MOL0     H 4443   8.694   1.961  -0.307  1.1893 -0.3860  0.3309
   34MOL0     H 4444   8.480   1.854  -0.298 -2.9243 -0.2108  0.9048
   34MOL0     H 4445   8.530   1.873  -0.144 -0.0683  1.2903 -0.8905
   34MOL0     H 4446   8.566   1.598  -0.280 -1.3235 -0.5801  0.0380
   34MOL0     H 4447   8.589   1.616  -0.108 -0.0014  0.9034  0.4145
   34MOL0     H 4448   8.355   1.705  -0.096  0.0999  0.5282 -1.4957
   34MOL0     H 4449   8.372   1.531  -0.128 -2.5867 -0.7363 -0.9872
   34MOL0     H 4450   8.132   1.604  -0.481 -2.5248  2.2416 -0.1382
   34MOL0     H 4451   7.903   1.534  -0.462  0.5143  2.7971 -0.7761
   34MOL0     H 4452   7.594   1.255  -0.287  0.6958 -0.7661 -2.4433
   34MOL0     H 4453   7.346   1.201  -0.302 -0.0835  0.1773  0.7184
   34MOL0     H 4454   7.111   1.238  -0.229  2.4555 -0.6528  1.1063
   34MOL0     H 4455   7.121   1.171  -0.395  0.6038  1.1542 -0.3234
   34MOL0     H 4456   6.891   1.182  -0.316  1.8446 -0.3542 -0.3083
   34MOL0     H 4457   6.924   1.289  -0.466  3.2009  0.4925 -1.4071
   34MOL0     H 4458   6.921   1.491  -0.319  1.3732 -0.8193 -2.2029
   34MOL0     H 4459   6.908   1.389  -0.178 -0.6935 -2.1137  0.0331
   34MOL0     H 4460   6.686   1.377  -0.397 -2.2138  1.2081  0.4845
   34MOL0     H 4461   6.677   1.340  -0.223  2.8149  0.5293  2.3232
   34MOL0     H 4462   6.713   1.613  -0.368  0.7395 -0.6866 -1.0999
   34MOL0     H 4463   6.698   1.598  -0.195 -0.9890 -0.2046  0.5666
   34MOL0     H 4464   6.469   1.504  -0.226 -2.0251  1.3954 -0.1112
   34MOL0     H 4465   6.492   1.494  -0.390  0.2250 -1.1524  0.7103
   34MOL0     H 4466   6.518   1.763  -0.228  2.1062 -1.2612 -0.7329
   34MOL0     H 4467   6.504   1.749  -0.400  2.3781  3.2948  2.8175
   34MOL0     H 4468   6.277   1.656  -0.199  2.4775 -3.0221 -0.6765
   34MOL0     H 4469   6.263   1.644  -0.376 -4.0547 -0.2258  1.9918
   34MOL0     H 4470   7.269   1.588  -0.457 -0.8017 -1.4724 -0.8519
   34MOL0     H 4471   7.511   1.657  -0.407 -1.2544  0.6506  0.6031
   34MOL0     H 4472   7.955   1.536  -0.031  2.8322  3.5101  1.7596
   34MOL0     H 4473   8.180   1.585  -0.060 -0.8586  1.4509  0.4605
   34MOL0     H 4474  10.304   1.656  -0.242  0.4327 -0.0670  0.7352
   34MOL0     H 4475  10.475   1.820  -0.193  1.0420  2.2177  0.1160
   34MOL0     H 4476  10.586   2.125   0.295 -1.2090 -2.0152 -1.4609
   34MOL0     H 4477  10.774   2.290   0.339  0.2183 -0.1135 -0.0229
   34MOL0     H 4478  10.990   2.314   0.128  0.9579  1.7536 -2.6662
   34MOL0     H 4479  10.991   2.391   0.295 -5.0510  1.5061  0.7717
   34MOL0     H 4480  11.179   2.398   0.115  0.4701  1.0135 -0.7340
   34MOL0     H 4481  11.092   2.526   0.032 -1.0383 -1.8246 -1.3889
   34MOL0     H 4482  11.208   2.520   0.318  0.7700 -2.3494 -1.1819
   34MOL0     H 4483  11.113   2.659   0.251 -1.8088 -1.4029 -0.0123
   34MOL0     H 4484  11.387   2.553   0.136  1.5753 -0.5021  3.9097
   34MOL0     H 4485  11.293   2.683   0.063  0.1007  1.5983  0.6417
   34MOL0     H 4486  11.466   2.848   0.409  0.6471 -0.9525 -0.5013
   34MOL0     H 4487  10.730   2.434  -0.051 -1.4244  0.0328  0.4199
   34MOL0     H 4488  10.589   2.252  -0.110 -1.4571  1.7018 -0.1675
   35MOL0     O 4489  10.663   7.542   5.025 -0.2947 -0.3911 -0.0332
   35MOL0     C 4490  10.651   7.553   5.150  0.0370  0.2390 -0.2455
   35MOL0     O 4491  10.533   7.550   5.218 -0.2897 -0.3911  0.7303
   35MOL0     C 4492  10.417   7.516   5.147 -0.3759 -0.2264 -0.6615
   35MOL0     C 4493  10.356   7.596   5.057 -0.4056  0.6289 -0.8680
   35MOL0     C 4494  10.235   7.567   4.996  0.6378  0.2528 -0.3194
   35MOL0     C 4495  10.161   7.454   5.044  0.0242 -0.8916 -0.0120
   35MOL0     O 4496  10.036   7.412   5.012 -0.6142  0.7426 -0.6671
   35MOL0     C 4497   9.952   7.485   4.924 -0.4174  0.1070 -1.0853
   35MOL0     C 4498   9.800   7.468   4.947 -0.8834 -0.3821 -0.2793
   35MOL0     C 4499   9.761   7.322   4.950  0.3453  0.2853 -0.3579
   35MOL0     C 4500   9.777   7.253   4.815  0.3497  0.4651  0.0002
   35MOL0     C 4501   9.672   7.134   4.806  0.5341 -0.5905 -0.6681
   35MOL0     C 4502   9.711   7.018   4.905  0.4835 -0.4438  0.6561
   35MOL0     C 4503   9.624   6.896   4.919  0.0478  0.3291  0.4643
   35MOL0     C 4504   9.495   6.915   4.985  0.0790 -0.4399  0.1347
   35MOL0     N 4505   9.435   6.777   5.001  0.2314  0.0574 -0.7449
   35MOL0     C 4506   9.378   6.700   4.896  0.3401 -0.1818  0.1845
   35MOL0     C 4507   9.316   6.596   4.962  0.4055 -0.1699 -0.6040
   35MOL0     C 4508   9.219   6.492   4.912 -0.1373  0.2744 -1.0276
   35MOL0     C 4509   9.068   6.526   4.939  0.4422  0.0701 -0.2095
   35MOL0     C 4510   9.013   6.435   5.057  0.3989 -0.2465 -0.0282
   35MOL0     C 4511   8.889   6.496   5.104  0.1163 -0.2696  0.3236
   35MOL0     O 4512   8.798   6.527   4.995  0.1141  0.2758 -0.3298
   35MOL0     C 4513   8.665   6.531   5.025  0.4137  0.2790  0.3561
   35MOL0     C 4514   8.594   6.500   4.912 -0.3466  0.0471  0.1519
   35MOL0     C 4515   8.454   6.501   4.922 -0.1086  0.0126 -0.1994
   35MOL0     C 4516   8.386   6.524   5.050 -0.1586  0.3003  0.0377
   35MOL0     C 4517   8.233   6.517   5.048 -0.4683  0.0734 -0.3624
   35MOL0     O 4518   8.181   6.453   5.152 -0.2283 -0.0407  0.1963
   35MOL0     C 4519   8.052   6.421   5.144  0.6959 -0.5984  0.1090
   35MOL0     C 4520   8.013   6.294   5.091 -0.0101  0.5737 -0.4130
   35MOL0     C 4521   7.880   6.249   5.108  0.1903  1.0791 -0.1356
   35MOL0     C 4522   7.791   6.330   5.176  0.7820  0.2134  0.9309
   35MOL0     O 4523   7.655   6.318   5.192 -0.0066  0.1408 -0.4402
   35MOL0     C 4524   7.608   6.193   5.140  0.1593  0.7750 -0.3928
   35MOL0     C 4525   7.459   6.206   5.147  0.2881 -0.5043  0.1467
   35MOL0     C 4526   7.379   6.097   5.079 -0.4490 -0.2249 -0.3986
   35MOL0     C 4527   7.238   6.123   5.106 -0.5368  0.3791  0.5711
   35MOL0     C 4528   7.161   6.019   5.023  0.5940 -0.2214  0.0821
   35MOL0     C 4529   7.006   6.039   5.051  0.0101 -0.3338  0.4053
   35MOL0     C 4530   6.929   5.931   4.976 -0.6049 -0.1744 -0.2712
   35MOL0     C 4531   6.816   5.881   5.065  0.1701  0.3512 -0.5057
   35MOL0    Cl 4532   6.700   5.768   4.985 -0.2150  0.3026  0.2346
   35MOL0     C 4533   7.828   6.452   5.225  0.8699  1.1491 -0.3545
   35MOL0     C 4534   7.954   6.486   5.217  0.1556  0.1038  0.0443
   35MOL0     O 4535   8.174   6.571   4.959 -0.1488  0.9156  0.1019
   35MOL0     C 4536   8.467   6.550   5.171  0.2880  0.3036  0.1738
   35MOL0     C 4537   8.607   6.562   5.150 -0.8938 -0.3195  0.1633
   35MOL0     N 4538   9.343   6.606   5.102  0.8327  0.7050 -0.1904
   35MOL0     N 4539   9.410   6.715   5.121 -1.0133 -0.3220  0.4803
   35MOL0     C 4540  10.221   7.374   5.134  0.4108 -0.1628  1.1245
   35MOL0     C 4541  10.343   7.412   5.189 -0.1877  0.6362 -0.0991
   35MOL0     C 4542  10.768   7.569   5.234 -1.0818  0.2364 -0.4262
   35MOL0     C 4543  10.893   7.612   5.181  0.0769 -0.1180 -0.1085
   35MOL0     C 4544  11.010   7.613   5.248 -0.3281  0.3514 -0.3945
   35MOL0     C 4545  11.007   7.584   5.385  0.2087  0.1885 -0.6995
   35MOL0     O 4546  11.108   7.590   5.481 -0.0031 -0.2167  0.6839
   35MOL0     C 4547  11.234   7.626   5.438 -0.4756  0.3996  0.2820
   35MOL0     C 4548  11.351   7.581   5.522  0.9357 -0.7262 -0.2112
   35MOL0     C 4549  11.356   7.656   5.653 -0.3766 -0.3382  0.8096
   35MOL0     C 4550  11.449   7.779   5.656  0.1676 -0.2829 -0.0464
   35MOL0     C 4551  11.586   7.748   5.616 -0.6785  0.5350 -1.1892
   35MOL0     C 4552  11.701   7.729   5.595  0.8559 -0.1641  0.3175
   35MOL0     C 4553  10.886   7.538   5.449  0.2570  0.2048 -0.1146
   35MOL0     C 4554  10.768   7.533   5.375  0.2477  0.7043  0.1112
   35MOL0     H 4555  10.396   7.693   5.028 -0.8803  0.7678 -1.0629
   35MOL0     H 4556  10.194   7.631   4.918  1.5273 -0.0038 -1.0209
   35MOL0     H 4557   9.965   7.442   4.824  0.3146 -0.0176 -0.9430
   35MOL0     H 4558   9.975   7.591   4.914 -3.1313  0.7318 -1.4650
   35MOL0     H 4559   9.750   7.529   4.872 -0.1365 -1.2561 -1.5426
   35MOL0     H 4560   9.781   7.507   5.048  3.9172 -2.0849  1.5846
   35MOL0     H 4561   9.660   7.296   4.982 -0.0365 -0.3700 -2.0101
   35MOL0     H 4562   9.816   7.273   5.031 -0.6375  1.4699  1.0660
   35MOL0     H 4563   9.746   7.329   4.743 -2.9125  1.8400  2.5720
   35MOL0     H 4564   9.880   7.220   4.799 -1.0597 -5.3155  0.8808
   35MOL0     H 4565   9.671   7.087   4.708  4.7891 -0.6238 -0.9128
   35MOL0     H 4566   9.571   7.168   4.829  0.8813  0.2119 -0.2463
   35MOL0     H 4567   9.735   7.065   5.001  2.1343 -0.3205  0.2182
   35MOL0     H 4568   9.809   6.987   4.867  0.6345  1.5194 -0.7347
   35MOL0     H 4569   9.622   6.852   4.819  0.2993  0.1581  0.5341
   35MOL0     H 4570   9.686   6.833   4.983 -0.5032  0.7379  1.4294
   35MOL0     H 4571   9.438   6.994   4.935  2.1148  2.1785  1.6893
   35MOL0     H 4572   9.516   6.968   5.079  2.1827  3.3109 -2.2056
   35MOL0     H 4573   9.384   6.732   4.793  0.9191  1.1079  0.6023
   35MOL0     H 4574   9.253   6.397   4.953  1.5176  1.1101 -0.3794
   35MOL0     H 4575   9.221   6.467   4.805 -1.5090 -0.9521 -0.8059
   35MOL0     H 4576   9.008   6.514   4.848  0.4535  0.2502 -0.2400
   35MOL0     H 4577   9.068   6.624   4.986 -2.7501 -1.1137  2.7561
   35MOL0     H 4578   8.991   6.329   5.041 -2.6022  0.0418  1.5666
   35MOL0     H 4579   9.080   6.441   5.143  1.0875  2.1229 -0.6609
   35MOL0     H 4580   8.922   6.594   5.140  2.1421 -0.7748 -0.0435
   35MOL0     H 4581   8.841   6.428   5.174  0.1068 -1.1323 -0.4969
   35MOL0     H 4582   8.633   6.471   4.815 -0.0453  1.7687 -0.2780
   35MOL0     H 4583   8.403   6.472   4.831  1.4502 -0.0597 -1.0887
   35MOL0     H 4584   8.087   6.228   5.047  0.7629  0.9649  0.2491
   35MOL0     H 4585   7.857   6.152   5.065 -0.5598  1.3088 -0.2599
   35MOL0     H 4586   7.635   6.106   5.200 -0.0993 -0.0553 -1.4440
   35MOL0     H 4587   7.645   6.187   5.037  1.0206  1.0733 -0.1125
   35MOL0     H 4588   7.429   6.294   5.090 -0.7757 -0.8712  0.1014
   35MOL0     H 4589   7.431   6.227   5.251 -0.3464  1.7899 -0.4390
   35MOL0     H 4590   7.401   5.999   5.121  1.5105 -0.8823 -2.7712
   35MOL0     H 4591   7.388   6.096   4.970  0.2566 -0.9538 -0.3425
   35MOL0     H 4592   7.217   6.116   5.213  0.6706  0.9791  0.8691
   35MOL0     H 4593   7.228   6.230   5.086  2.3283  0.3549 -1.6845
   35MOL0     H 4594   7.191   5.920   5.060 -0.6560 -0.7931 -0.3591
   35MOL0     H 4595   7.180   6.027   4.916 -0.0196  1.0326  0.0438
   35MOL0     H 4596   6.973   6.139   5.023  0.4911 -0.9274 -2.6540
   35MOL0     H 4597   6.987   6.028   5.159 -2.0748  0.2525  0.1257
   35MOL0     H 4598   6.886   5.971   4.884 -1.8244 -1.7984 -0.4544
   35MOL0     H 4599   6.997   5.852   4.944 -0.5359 -0.1688 -0.1369
   35MOL0     H 4600   6.747   5.963   5.088  0.4952  0.7166 -0.8025
   35MOL0     H 4601   6.855   5.852   5.163 -0.2593  2.1321  0.2436
   35MOL0     H 4602   7.747   6.504   5.276  1.6233 -0.5311  2.8523
   35MOL0     H 4603   7.996   6.569   5.273 -1.9181  1.0714  0.2755
   35MOL0     H 4604   8.415   6.575   5.263 -1.3922  0.9690 -0.9076
   35MOL0     H 4605   8.674   6.592   5.230 -0.0387 -1.3013 -0.1626
   35MOL0     H 4606  10.173   7.280   5.159 -0.2540  0.2306  1.3287
   35MOL0     H 4607  10.389   7.347   5.262 -0.0813 -0.5078 -1.1502
   35MOL0     H 4608  10.906   7.635   5.075 -1.5464  1.0199 -0.1097
   35MOL0     H 4609  11.102   7.628   5.193  0.2487 -0.3749  0.3388
   35MOL0     H 4610  11.250   7.732   5.417  1.4681 -0.0505 -0.6864
   35MOL0     H 4611  11.264   7.576   5.346  4.2470  0.4986  1.4938
   35MOL0     H 4612  11.328   7.474   5.536 -2.9603 -0.1634 -1.0558
   35MOL0     H 4613  11.439   7.588   5.458 -1.0650  2.2027 -2.9774
   35MOL0     H 4614  11.393   7.586   5.728 -0.3131 -1.9078 -0.6302
   35MOL0     H 4615  11.255   7.670   5.694  0.3214 -0.3944  2.6361
   35MOL0     H 4616  11.421   7.859   5.586 -0.1427  0.7269  1.1885
   35MOL0     H 4617  11.454   7.826   5.755  2.5722 -0.3645 -0.0670
   35MOL0     H 4618  11.805   7.707   5.576  0.2538 -3.1828  0.0291
   35MOL0     H 4619  10.877   7.498   5.549  0.4740 -1.4433 -0.7251
   35MOL0     H 4620  10.680   7.492   5.423  1.3772 -1.1104  0.7277
   36MOL0     O 4621   8.934   1.358   1.924  0.4039  0.3546 -0.0427
   36MOL0     C 4622   8.990   1.311   1.823 -0.8180 -0.1916  0.3449
   36MOL0     O 4623   8.935   1.317   1.700 -0.0224  0.1401 -0.0459
   36MOL0     C 4624   8.809   1.351   1.680  0.3456 -0.2256 -1.7379
   36MOL0     C 4625   8.699   1.308   1.756  0.8760  0.2996  0.3932
   36MOL0     C 4626   8.573   1.369   1.758 -0.6475  0.2642  0.3539
   36MOL0     C 4627   8.553   1.476   1.670 -0.7751  0.2769 -0.0152
   36MOL0     O 4628   8.431   1.543   1.654 -0.6835  0.3014 -0.3802
   36MOL0     C 4629   8.378   1.602   1.773  0.4778 -0.2434  0.2519
   36MOL0     C 4630   8.240   1.670   1.732 -0.0387  0.0682  0.5041
   36MOL0     C 4631   8.134   1.574   1.662 -1.2217 -0.7385 -0.8210
   36MOL0     C 4632   8.003   1.656   1.642  0.4210  0.2479 -0.3344
   36MOL0     C 4633   7.946   1.647   1.497 -0.3767  0.1705 -0.0171
   36MOL0     C 4634   7.837   1.539   1.497 -0.2421  0.1728 -0.3645
   36MOL0     C 4635   7.779   1.523   1.348  0.2022  0.4310 -0.0292
   36MOL0     C 4636   7.701   1.388   1.345  0.3982  0.8524  0.1361
   36MOL0     N 4637   7.576   1.406   1.417  0.0110 -0.0622  0.4835
   36MOL0     C 4638   7.552   1.366   1.547  0.0231  0.0994 -0.5182
   36MOL0     C 4639   7.419   1.371   1.563  0.1461 -0.5758  0.0056
   36MOL0     C 4640   7.342   1.329   1.691 -0.6422  0.1639  0.4399
   36MOL0     C 4641   7.193   1.332   1.690 -0.4032  0.4261  0.3514
   36MOL0     C 4642   7.135   1.303   1.819 -0.0772 -0.0758  0.7711
   36MOL0     C 4643   6.984   1.296   1.816  0.2641 -0.6787  0.2015
   36MOL0     O 4644   6.951   1.178   1.741 -0.1541  0.0597  0.2462
   36MOL0     C 4645   6.826   1.139   1.726  0.5190  0.2445  0.8400
   36MOL0     C 4646   6.718   1.167   1.812  0.4419 -0.1856 -1.0452
   36MOL0     C 4647   6.588   1.146   1.762  0.0472  0.0345  0.3238
   36MOL0     C 4648   6.552   1.107   1.633  0.1424 -0.0939 -0.3728
   36MOL0     C 4649   6.411   1.091   1.590  0.2016  0.1977 -0.0487
   36MOL0     O 4650   6.316   1.137   1.676  0.3710  0.0116  0.3778
   36MOL0     C 4651   6.187   1.171   1.635 -0.2336  0.1907 -0.1807
   36MOL0     C 4652   6.159   1.297   1.582  0.2322 -0.1368  0.2961
   36MOL0     C 4653   6.026   1.334   1.556 -0.0504  0.1124  0.2287
   36MOL0     C 4654   5.922   1.243   1.570 -0.7280 -0.9006 -0.7543
   36MOL0     O 4655   5.797   1.294   1.553  0.1439  0.3568  0.7205
   36MOL0     C 4656   5.686   1.221   1.598 -0.1667  0.1114 -0.7856
   36MOL0     C 4657   5.561   1.310   1.591  0.3857 -0.7471  0.3334
   36MOL0     C 4658   5.429   1.244   1.636  0.1685 -0.0424  0.6245
   36MOL0     C 4659   5.403   1.116   1.551 -0.3874  0.5281  0.1230
   36MOL0     C 4660   5.264   1.060   1.579 -0.6567  0.1487  0.6815
   36MOL0     C 4661   5.153   1.145   1.521  1.0576  0.0753 -0.4643
   36MOL0     C 4662   5.017   1.108   1.585  0.5758 -0.0647 -0.4317
   36MOL0     C 4663   4.903   1.185   1.515  0.5392 -0.5087  0.8567
   36MOL0    Cl 4664   4.741   1.119   1.573  0.6949  0.0802  0.5339
   36MOL0     C 4665   5.951   1.110   1.604 -0.4997  0.2962  0.2247
   36MOL0     C 4666   6.084   1.076   1.632  0.0082  0.8897  0.2924
   36MOL0     O 4667   6.385   1.045   1.481 -1.0087  1.1767  0.0644
   36MOL0     C 4668   6.666   1.080   1.556  0.5615  0.1173 -0.1495
   36MOL0     C 4669   6.798   1.091   1.596  0.6010 -0.1383  0.0491
   36MOL0     N 4670   7.368   1.426   1.447 -0.7398  0.0836 -0.3194
   36MOL0     N 4671   7.459   1.438   1.359 -0.9341 -0.0016  0.3206
   36MOL0     C 4672   8.658   1.509   1.580  0.0613 -0.6649 -0.1238
   36MOL0     C 4673   8.786   1.456   1.591 -0.2706  0.3051  0.1758
   36MOL0     C 4674   9.113   1.233   1.854  1.0186  0.0319  0.2753
   36MOL0     C 4675   9.210   1.220   1.760  0.6961  0.4056 -0.8288
   36MOL0     C 4676   9.322   1.152   1.791  0.3147  0.4056 -0.0422
   36MOL0     C 4677   9.338   1.095   1.913  0.5675  0.4877  0.3821
   36MOL0     O 4678   9.458   1.031   1.939 -0.0011 -0.6899 -0.7767
   36MOL0     C 4679   9.519   1.042   2.069  0.9603 -0.4855 -0.0915
   36MOL0     C 4680   9.659   0.979   2.088  0.3335  0.5385 -0.8545
   36MOL0     C 4681   9.688   0.940   2.234 -0.0962 -0.6228 -0.3417
   36MOL0     C 4682   9.810   0.849   2.232  0.1466 -0.3880  0.1283
   36MOL0     C 4683   9.932   0.915   2.179  0.4844 -0.0339  0.2118
   36MOL0     C 4684  10.019   0.990   2.137 -0.2510  0.5389  0.1875
   36MOL0     C 4685   9.242   1.107   2.010 -0.3857 -0.1493 -0.2622
   36MOL0     C 4686   9.129   1.172   1.981  0.3899 -0.4292 -0.3412
   36MOL0     H 4687   8.704   1.229   1.830 -1.6347  1.2468  1.6998
   36MOL0     H 4688   8.496   1.332   1.825 -1.9802 -0.3969 -1.4423
   36MOL0     H 4689   8.445   1.680   1.810  1.2307 -0.0911 -1.3591
   36MOL0     H 4690   8.361   1.536   1.859  0.1113  1.5492  1.6068
   36MOL0     H 4691   8.264   1.749   1.660 -3.1171  3.1092  2.4716
   36MOL0     H 4692   8.207   1.726   1.820 -0.1911 -0.4550  0.7821
   36MOL0     H 4693   8.124   1.489   1.731 -1.0044  0.3303  0.5497
   36MOL0     H 4694   8.172   1.556   1.561  1.5888  2.6098 -0.5063
   36MOL0     H 4695   7.918   1.636   1.708 -0.2738  1.9685 -0.6603
   36MOL0     H 4696   8.038   1.758   1.659  0.2885 -0.0027  1.6700
   36MOL0     H 4697   8.032   1.621   1.434 -0.0854 -0.0578  0.4684
   36MOL0     H 4698   7.904   1.739   1.456  0.2819  0.3741 -0.2521
   36MOL0     H 4699   7.752   1.565   1.561  0.5667  1.8562  0.0854
   36MOL0     H 4700   7.874   1.443   1.535 -3.0814 -1.0607 -0.4907
   36MOL0     H 4701   7.714   1.610   1.332  0.5808  0.8886  0.8454
   36MOL0     H 4702   7.855   1.526   1.270  0.8759  1.8290  0.6443
   36MOL0     H 4703   7.753   1.308   1.399  1.6903  1.4439 -0.1988
   36MOL0     H 4704   7.679   1.361   1.241 -1.2767  1.0029  0.4266
   36MOL0     H 4705   7.625   1.321   1.615  0.7660  1.2433 -0.5324
   36MOL0     H 4706   7.372   1.387   1.779  1.1216  0.0830 -0.0846
   36MOL0     H 4707   7.376   1.227   1.710 -1.6428 -0.2216  0.2666
   36MOL0     H 4708   7.162   1.264   1.610 -2.4641  2.3129 -0.5601
   36MOL0     H 4709   7.149   1.428   1.660  1.8308  0.5945 -2.9793
   36MOL0     H 4710   7.185   1.217   1.866  2.5684  1.9876  2.0027
   36MOL0     H 4711   7.163   1.374   1.898  0.6491 -0.8308  1.2112
   36MOL0     H 4712   6.951   1.392   1.776 -0.4949 -1.0783 -0.1534
   36MOL0     H 4713   6.941   1.305   1.916 -0.0139  2.2655 -0.0907
   36MOL0     H 4714   6.746   1.191   1.914 -1.9246 -1.3413 -0.0417
   36MOL0     H 4715   6.507   1.163   1.832 -0.4778 -0.6547 -0.1102
   36MOL0     H 4716   6.237   1.369   1.559 -0.5126 -0.3174 -3.4612
   36MOL0     H 4717   6.001   1.435   1.525  1.2242  0.1500 -0.7526
   36MOL0     H 4718   5.696   1.192   1.703  2.2917 -0.3232 -1.0765
   36MOL0     H 4719   5.681   1.134   1.531  2.3455 -0.1607 -0.6980
   36MOL0     H 4720   5.549   1.320   1.483 -2.9675 -1.5134  0.5182
   36MOL0     H 4721   5.568   1.406   1.642 -0.7184 -1.1228  1.2360
   36MOL0     H 4722   5.344   1.310   1.615  0.0286  0.1574  1.7645
   36MOL0     H 4723   5.436   1.214   1.741  1.2171 -1.6679  0.1186
   36MOL0     H 4724   5.414   1.141   1.445 -3.0229 -0.4826 -0.4539
   36MOL0     H 4725   5.473   1.037   1.581 -0.4591 -0.2695 -1.7153
   36MOL0     H 4726   5.235   1.034   1.682 -1.4829 -3.5683 -0.3213
   36MOL0     H 4727   5.259   0.960   1.534  1.2124 -0.2767  1.2882
   36MOL0     H 4728   5.152   1.121   1.414 -0.3927  0.4590 -0.5689
   36MOL0     H 4729   5.166   1.251   1.546 -0.1171  0.1579 -0.0927
   36MOL0     H 4730   5.005   0.999   1.582 -0.0060 -0.0840  1.4656
   36MOL0     H 4731   5.004   1.134   1.690 -1.4799 -0.1332 -0.6217
   36MOL0     H 4732   4.909   1.166   1.407  0.9441  0.4675  0.7043
   36MOL0     H 4733   4.908   1.293   1.529  2.4089 -0.1935 -1.5790
   36MOL0     H 4734   5.876   1.033   1.603  1.2910 -1.6284 -2.8900
   36MOL0     H 4735   6.114   0.977   1.665 -2.0755 -0.1495 -0.7366
   36MOL0     H 4736   6.649   1.047   1.454  0.3337  0.7075 -0.3033
   36MOL0     H 4737   6.866   1.037   1.531 -1.5582 -2.2853 -0.6068
   36MOL0     H 4738   8.634   1.591   1.512 -0.5643 -1.5042 -0.9451
   36MOL0     H 4739   8.866   1.501   1.533  0.9536  1.3409  2.5375
   36MOL0     H 4740   9.179   1.261   1.665  2.9911 -1.5670 -2.5241
   36MOL0     H 4741   9.405   1.148   1.722  2.0208  1.5933  1.8350
   36MOL0     H 4742   9.449   0.989   2.134  1.2983 -0.0782  0.6129
   36MOL0     H 4743   9.521   1.147   2.098  1.6979  0.1540 -2.2852
   36MOL0     H 4744   9.663   0.884   2.035 -0.2929  1.6095 -2.9672
   36MOL0     H 4745   9.736   1.051   2.058 -1.3026  2.6396 -0.3233
   36MOL0     H 4746   9.607   0.882   2.279 -0.3523  0.4555  0.6362
   36MOL0     H 4747   9.713   1.024   2.300  0.4183  0.3916 -1.7829
   36MOL0     H 4748   9.835   0.819   2.334 -0.5631  0.9335  0.7194
   36MOL0     H 4749   9.788   0.752   2.185  1.4338 -1.8677  2.4046
   36MOL0     H 4750  10.104   1.045   2.101  3.1520 -4.6739 -0.9745
   36MOL0     H 4751   9.260   1.051   2.101 -4.1951  0.3024  0.9081
   36MOL0     H 4752   9.048   1.171   2.053  0.4204 -2.1945 -0.2720
   37MOL0     O 4753   4.032   6.449   3.895 -0.3723  0.1772 -0.3064
   37MOL0     C 4754   4.082   6.546   3.951  0.3757  0.9001  0.5182
   37MOL0     O 4755   4.016   6.623   4.033 -0.5733 -0.0953  0.2232
   37MOL0     C 4756   3.882   6.603   4.048  0.3244  0.2723 -0.7012
   37MOL0     C 4757   3.787   6.638   3.947 -0.0128  0.0709  0.3658
   37MOL0     C 4758   3.649   6.621   3.958 -0.4388  0.0873 -0.2474
   37MOL0     C 4759   3.602   6.566   4.080 -0.2103 -0.2531  0.1377
   37MOL0     O 4760   3.465   6.554   4.108 -0.1101 -0.5765 -0.3145
   37MOL0     C 4761   3.354   6.613   4.030  0.9334  0.3143 -0.2358
   37MOL0     C 4762   3.239   6.615   4.134 -1.6726  0.4295 -0.1379
   37MOL0     C 4763   3.098   6.638   4.069 -0.3422  0.8130  0.0754
   37MOL0     C 4764   2.973   6.599   4.157  0.9486  0.1417  0.7758
   37MOL0     C 4765   2.843   6.568   4.073 -0.1130 -1.1354  0.5447
   37MOL0     C 4766   2.728   6.566   4.170  1.1359  0.4548 -0.1222
   37MOL0     C 4767   2.599   6.527   4.097  0.3194  0.8271 -0.3165
   37MOL0     C 4768   2.482   6.547   4.181  0.0022 -0.0911  0.2190
   37MOL0     N 4769   2.352   6.501   4.115 -0.5207 -0.2887 -0.1186
   37MOL0     C 4770   2.269   6.576   4.035  0.0750  0.0360 -0.1557
   37MOL0     C 4771   2.187   6.475   3.995  0.3428 -0.0583  0.5630
   37MOL0     C 4772   2.088   6.492   3.879  0.1497 -0.2360 -0.2580
   37MOL0     C 4773   1.957   6.413   3.909  0.3637 -0.0406  0.3739
   37MOL0     C 4774   1.838   6.463   3.813  0.5964  0.2759  0.2416
   37MOL0     C 4775   1.800   6.607   3.844 -0.5654 -1.3967 -0.1715
   37MOL0     O 4776   1.733   6.668   3.734 -0.1084 -0.1149  0.0849
   37MOL0     C 4777   1.608   6.625   3.698  0.9779 -0.5963  0.4814
   37MOL0     C 4778   1.523   6.544   3.778  0.7104 -0.1376  0.1827
   37MOL0     C 4779   1.394   6.514   3.743  0.5942  0.1456  0.5057
   37MOL0     C 4780   1.345   6.556   3.614  1.4061  0.8779  0.0206
   37MOL0     C 4781   1.205   6.535   3.566  0.2648 -0.1828 -0.1868
   37MOL0     O 4782   1.121   6.474   3.657  0.2414 -0.8442 -0.1039
   37MOL0     C 4783   0.995   6.436   3.626 -0.1024  0.6628  0.3173
   37MOL0     C 4784   0.920   6.441   3.507  0.3031  0.6584  0.0121
   37MOL0     C 4785   0.787   6.392   3.503 -1.1690 -0.4084 -0.0535
   37MOL0     C 4786   0.718   6.349   3.617 -1.5269  0.0577  0.6805
   37MOL0     O 4787   0.591   6.306   3.616  0.4538 -0.4110  0.0360
   37MOL0     C 4788   0.498   6.386   3.558 -0.2146 -0.6609  0.2724
   37MOL0     C 4789   0.363   6.332   3.588  0.1718  0.4160  0.0249
   37MOL0     C 4790   0.353   6.322   3.734  1.1181  0.2894 -0.5801
   37MOL0     C 4791   0.211   6.289   3.777  0.6617  0.7693 -0.2173
   37MOL0     C 4792   0.180   6.310   3.925  0.3718 -1.0416 -0.1603
   37MOL0     C 4793   0.292   6.287   4.032 -0.1201  0.1335 -0.4535
   37MOL0     C 4794   0.242   6.286   4.175  0.4697  0.2874 -1.0914
   37MOL0     C 4795   0.342   6.294   4.296  0.2774  0.1222 -0.3389
   37MOL0    Cl 4796   0.254   6.388   4.421  0.4459 -0.0411  0.1858
   37MOL0     C 4797   0.795   6.331   3.734  0.2345  0.8934 -0.0012
   37MOL0     C 4798   0.933   6.377   3.739 -0.0856  0.2741  0.3453
   37MOL0     O 4799   1.179   6.564   3.450 -0.1570 -0.0300 -0.0365
   37MOL0     C 4800   1.430   6.620   3.527 -0.3447  0.4017  0.2908
   37MOL0     C 4801   1.562   6.650   3.573 -0.4323 -0.3823 -0.1677
   37MOL0     N 4802   2.218   6.350   4.039 -0.8427  0.5972 -0.4319
   37MOL0     N 4803   2.313   6.373   4.125 -0.2589 -0.3160 -0.1031
   37MOL0     C 4804   3.685   6.523   4.184 -0.1956  0.9615  0.0848
   37MOL0     C 4805   3.826   6.552   4.166 -0.5190  0.5122 -0.2097
   37MOL0     C 4806   4.224   6.579   3.929  0.3337 -0.3009 -0.0672
   37MOL0     C 4807   4.288   6.676   4.010 -0.7234 -0.4007 -0.6507
   37MOL0     C 4808   4.420   6.714   3.995  0.4604  0.8051  0.7733
   37MOL0     C 4809   4.496   6.651   3.894 -0.2248  0.8821 -0.3362
   37MOL0     O 4810   4.622   6.691   3.877 -0.1861 -0.2890 -0.7135
   37MOL0     C 4811   4.695   6.669   3.756 -0.3441  0.0118 -0.6941
   37MOL0     C 4812   4.839   6.724   3.765  0.7639 -0.4205  0.1396
   37MOL0     C 4813   4.830   6.874   3.802 -0.8500 -0.0067  0.6422
   37MOL0     C 4814   4.962   6.933   3.786 -0.1751 -0.3804 -0.7459
   37MOL0     C 4815   4.972   7.074   3.826 -0.0355  0.6371  0.2642
   37MOL0     C 4816   4.978   7.188   3.853 -0.3368  0.4133  0.4259
   37MOL0     C 4817   4.428   6.570   3.806  0.4417 -0.0491 -0.3025
   37MOL0     C 4818   4.296   6.536   3.815 -0.1560 -0.5677 -0.4835
   37MOL0     H 4819   3.824   6.679   3.853 -1.0004  2.4902  0.9609
   37MOL0     H 4820   3.575   6.649   3.883 -1.9328 -3.3892 -0.2646
   37MOL0     H 4821   3.331   6.557   3.938 -0.6871 -1.1342  0.9654
   37MOL0     H 4822   3.378   6.718   4.011 -0.4769  1.1456  2.1494
   37MOL0     H 4823   3.258   6.687   4.214 -1.1661 -0.1334  0.2482
   37MOL0     H 4824   3.229   6.519   4.184 -0.0365  0.3946  0.1745
   37MOL0     H 4825   3.084   6.569   3.986  0.0515 -0.1635  0.8008
   37MOL0     H 4826   3.099   6.738   4.024 -2.7090  0.8252 -0.0751
   37MOL0     H 4827   2.995   6.501   4.201  0.4813 -1.0181 -1.4048
   37MOL0     H 4828   2.962   6.670   4.239  0.8359  0.6091  0.3599
   37MOL0     H 4829   2.855   6.477   4.014  0.0085 -0.0258 -1.2103
   37MOL0     H 4830   2.827   6.649   4.002 -0.3519 -1.2403  0.4782
   37MOL0     H 4831   2.701   6.661   4.218  0.4527  1.1687 -1.8107
   37MOL0     H 4832   2.748   6.488   4.244  1.3349 -1.3786 -2.0346
   37MOL0     H 4833   2.583   6.591   4.009 -3.2000  2.1424  1.0853
   37MOL0     H 4834   2.598   6.423   4.066 -0.9649 -0.0781  2.4598
   37MOL0     H 4835   2.473   6.655   4.199  4.9884  0.6351 -0.2832
   37MOL0     H 4836   2.480   6.502   4.281 -1.2349  1.7889  1.1107
   37MOL0     H 4837   2.266   6.680   4.002  1.4043 -0.3120 -1.4860
   37MOL0     H 4838   2.143   6.464   3.788 -0.7365  1.2856 -1.3159
   37MOL0     H 4839   2.074   6.600   3.870  2.7613  0.3496  1.4780
   37MOL0     H 4840   1.920   6.421   4.012 -1.5582  0.7215 -0.3433
   37MOL0     H 4841   1.977   6.307   3.891  0.7407 -0.3643  2.4672
   37MOL0     H 4842   1.862   6.454   3.707  1.8369  1.7645  0.3528
   37MOL0     H 4843   1.741   6.414   3.821 -1.3319  3.3947 -1.6921
   37MOL0     H 4844   1.887   6.672   3.851 -0.6998 -0.6658 -3.6029
   37MOL0     H 4845   1.746   6.611   3.938 -1.4352  1.2354 -0.7072
   37MOL0     H 4846   1.548   6.525   3.882 -2.3633  0.9715  1.2163
   37MOL0     H 4847   1.321   6.465   3.807 -0.3435  2.3987  1.2411
   37MOL0     H 4848   0.954   6.488   3.415 -0.2989  0.5144 -0.2900
   37MOL0     H 4849   0.740   6.381   3.406 -0.5169 -0.9377 -0.3229
   37MOL0     H 4850   0.515   6.386   3.451  0.7761  0.4447  0.4081
   37MOL0     H 4851   0.518   6.491   3.581 -0.3861 -0.5731  0.0285
   37MOL0     H 4852   0.346   6.233   3.543 -3.0522  0.6642  0.5118
   37MOL0     H 4853   0.289   6.402   3.548  0.9448  0.5794 -1.1883
   37MOL0     H 4854   0.374   6.415   3.789 -0.4386  1.3686 -1.7287
   37MOL0     H 4855   0.415   6.243   3.778 -1.3089 -0.5867  1.5099
   37MOL0     H 4856   0.147   6.354   3.717 -1.1941 -1.2033 -0.4889
   37MOL0     H 4857   0.189   6.190   3.737  2.5832  0.4144 -0.5026
   37MOL0     H 4858   0.097   6.242   3.946 -0.2453 -0.5884 -1.0651
   37MOL0     H 4859   0.150   6.414   3.940 -1.9856 -1.6879  0.0238
   37MOL0     H 4860   0.359   6.373   4.030  0.0044  0.0214 -1.4531
   37MOL0     H 4861   0.348   6.196   4.011  1.2447  1.3632 -2.4566
   37MOL0     H 4862   0.175   6.373   4.179  0.3079  0.1066  0.2890
   37MOL0     H 4863   0.185   6.197   4.201  3.0316 -1.3441 -0.7352
   37MOL0     H 4864   0.436   6.344   4.272  0.8129  0.3887  1.9885
   37MOL0     H 4865   0.371   6.192   4.324 -0.4258  0.0490  0.1509
   37MOL0     H 4866   0.739   6.287   3.816 -1.6944  0.1079 -1.6366
   37MOL0     H 4867   0.980   6.386   3.836 -2.4533 -2.0004  1.8563
   37MOL0     H 4868   1.404   6.656   3.428 -0.1800  0.8391  0.4012
   37MOL0     H 4869   1.629   6.714   3.518 -1.6277  1.3823  0.3393
   37MOL0     H 4870   3.641   6.472   4.269 -1.0463  0.3853 -0.6867
   37MOL0     H 4871   3.892   6.530   4.249  1.3210  0.5052 -1.6021
   37MOL0     H 4872   4.231   6.723   4.089  0.1311  1.6639 -1.1971
   37MOL0     H 4873   4.461   6.791   4.059  1.8099  2.5214 -1.9768
   37MOL0     H 4874   4.645   6.724   3.676  1.8327 -1.3839 -3.1710
   37MOL0     H 4875   4.705   6.564   3.728  2.5337 -0.1534  0.6428
   37MOL0     H 4876   4.893   6.679   3.849 -0.0931 -1.0140  0.3878
   37MOL0     H 4877   4.883   6.714   3.666 -1.9036  0.3064 -1.2304
   37MOL0     H 4878   4.798   6.886   3.906 -2.0151  0.3633  0.2559
   37MOL0     H 4879   4.761   6.938   3.747 -0.5957  1.0069  1.4711
   37MOL0     H 4880   5.034   6.887   3.855  0.6183  4.6123  2.2411
   37MOL0     H 4881   4.988   6.915   3.681  0.7203 -0.2552 -0.5529
   37MOL0     H 4882   4.988   7.285   3.897 -1.0586 -0.6437  3.1059
   37MOL0     H 4883   4.486   6.531   3.722 -0.5142  1.2311 -1.5948
   37MOL0     H 4884   4.245   6.467   3.747 -0.4399  0.5720 -1.4583
   38MOL0     O 4885   9.922   5.323   8.637 -0.0187 -0.3556  0.4065
   38MOL0     C 4886   9.951   5.441   8.614 -0.0807 -0.1977  0.1847
   38MOL0     O 4887   9.862   5.540   8.598 -0.0743 -0.5736 -1.3023
   38MOL0     C 4888   9.731   5.526   8.620  0.2428 -0.6151 -0.0977
   38MOL0     C 4889   9.667   5.564   8.737  0.1268 -0.4584 -0.7587
   38MOL0     C 4890   9.528   5.555   8.764 -0.0060 -0.3632 -0.4710
   38MOL0     C 4891   9.446   5.506   8.666  0.5891 -0.0920  0.2032
   38MOL0     O 4892   9.308   5.516   8.695 -0.4215 -0.9823 -0.5172
   38MOL0     C 4893   9.215   5.448   8.613 -0.1980 -0.2016  0.8354
   38MOL0     C 4894   9.077   5.465   8.674  0.0062 -0.3088  0.5523
   38MOL0     C 4895   8.970   5.399   8.588  0.8152  0.3099 -0.3503
   38MOL0     C 4896   8.841   5.384   8.673 -0.6756  1.1335 -0.1389
   38MOL0     C 4897   8.734   5.299   8.606 -0.3996 -0.2602 -0.2136
   38MOL0     C 4898   8.613   5.298   8.701  0.4620  0.9403 -0.3542
   38MOL0     C 4899   8.511   5.189   8.642  0.0546 -1.1231 -0.1405
   38MOL0     C 4900   8.378   5.201   8.709 -0.1454  0.4118 -0.0993
   38MOL0     N 4901   8.301   5.310   8.641 -0.5816  0.1237  0.4196
   38MOL0     C 4902   8.252   5.307   8.514  0.7978 -0.3340  0.3778
   38MOL0     C 4903   8.191   5.423   8.503 -0.4634  0.3991  0.2511
   38MOL0     C 4904   8.146   5.460   8.369  0.1465 -0.1760 -0.4775
   38MOL0     C 4905   8.004   5.520   8.375  0.4110 -0.0249  0.6858
   38MOL0     C 4906   7.897   5.419   8.413  0.8613  0.1485 -0.0070
   38MOL0     C 4907   7.764   5.494   8.435 -0.6860  0.0993  1.0055
   38MOL0     O 4908   7.674   5.394   8.484  0.1266  0.2318  0.3200
   38MOL0     C 4909   7.538   5.432   8.486  0.2205  0.3475  0.5918
   38MOL0     C 4910   7.442   5.334   8.511  0.6662 -0.5245  0.8832
   38MOL0     C 4911   7.304   5.378   8.514  0.1522 -0.4113  1.0153
   38MOL0     C 4912   7.269   5.515   8.510  0.0428  0.4211  0.0440
   38MOL0     C 4913   7.125   5.555   8.532 -0.5601 -0.5887 -0.0661
   38MOL0     O 4914   7.025   5.465   8.511 -0.5519  0.1703 -0.4933
   38MOL0     C 4915   6.892   5.499   8.490  0.0178 -0.7531 -1.1829
   38MOL0     C 4916   6.803   5.395   8.464  0.5062 -0.0522 -0.2837
   38MOL0     C 4917   6.661   5.424   8.463 -0.0338  0.0742 -0.4138
   38MOL0     C 4918   6.605   5.547   8.484  0.5747 -1.3786 -0.8199
   38MOL0     O 4919   6.471   5.572   8.490  0.0817  0.0395  0.4005
   38MOL0     C 4920   6.393   5.486   8.401  0.2082  0.4936 -0.7399
   38MOL0     C 4921   6.270   5.565   8.358 -0.0110  1.2306 -0.1829
   38MOL0     C 4922   6.166   5.484   8.277 -0.6754  0.9393  0.4063
   38MOL0     C 4923   6.042   5.558   8.232  0.3264 -0.7638  0.5483
   38MOL0     C 4924   5.931   5.471   8.176  0.5802 -0.1247  0.9561
   38MOL0     C 4925   5.809   5.546   8.100 -0.4031 -1.0106 -0.7643
   38MOL0     C 4926   5.748   5.672   8.170 -0.1425  0.7462 -0.4379
   38MOL0     C 4927   5.688   5.640   8.307  0.1252 -0.7307  0.4958
   38MOL0    Cl 4928   5.544   5.543   8.268  0.2501 -0.0094 -0.6040
   38MOL0     C 4929   6.695   5.647   8.505 -0.7267 -0.2369 -0.0960
   38MOL0     C 4930   6.831   5.627   8.520 -0.7686  0.4097 -0.4266
   38MOL0     O 4931   7.114   5.670   8.571 -0.3698  0.5220 -0.3558
   38MOL0     C 4932   7.364   5.615   8.475 -0.6187 -0.3312 -0.2222
   38MOL0     C 4933   7.501   5.568   8.464  0.4244  0.0153  0.1676
   38MOL0     N 4934   8.195   5.498   8.615 -0.2080  0.7215  0.7437
   38MOL0     N 4935   8.271   5.428   8.696  0.0968 -0.4920  0.1555
   38MOL0     C 4936   9.501   5.459   8.543  0.0742  0.3549  0.0355
   38MOL0     C 4937   9.645   5.462   8.524  0.2057  0.7849 -0.0154
   38MOL0     C 4938  10.094   5.473   8.593  0.3179 -0.3687  0.0397
   38MOL0     C 4939  10.201   5.380   8.583  0.5242 -0.8907  0.0456
   38MOL0     C 4940  10.332   5.431   8.552 -0.9071  1.5110 -0.8169
   38MOL0     C 4941  10.363   5.566   8.521 -0.7806 -0.1579  0.7718
   38MOL0     O 4942  10.493   5.604   8.482 -0.2760  0.4843  0.0256
   38MOL0     C 4943  10.528   5.740   8.512  0.2587  0.3652  0.3296
   38MOL0     C 4944  10.668   5.756   8.557  0.4333 -0.1961 -0.0323
   38MOL0     C 4945  10.764   5.731   8.435  0.2561  0.8164 -0.2870
   38MOL0     C 4946  10.908   5.735   8.494  0.3893  0.2391 -0.3879
   38MOL0     C 4947  11.012   5.686   8.402  0.8669  0.7473  0.4776
   38MOL0     C 4948  11.079   5.653   8.313 -0.4192 -0.6321  0.9000
   38MOL0     C 4949  10.250   5.645   8.518 -0.7321 -0.1305 -0.4681
   38MOL0     C 4950  10.127   5.609   8.559  0.1379 -0.2124 -0.3299
   38MOL0     H 4951   9.727   5.611   8.815 -2.1023  0.7382  0.3304
   38MOL0     H 4952   9.477   5.595   8.851  1.4901  0.1950  0.1784
   38MOL0     H 4953   9.240   5.344   8.590  0.6863  0.1315  0.2269
   38MOL0     H 4954   9.205   5.493   8.514 -4.0825  0.0482  1.1860
   38MOL0     H 4955   9.047   5.570   8.684  0.0537 -0.3928  1.5973
   38MOL0     H 4956   9.081   5.423   8.774  1.2967 -3.1199 -0.5692
   38MOL0     H 4957   9.005   5.302   8.551 -1.9577 -1.8215  2.1498
   38MOL0     H 4958   8.948   5.462   8.502  1.2757  2.7258  1.2240
   38MOL0     H 4959   8.869   5.338   8.768  1.5201  2.5684 -0.0445
   38MOL0     H 4960   8.791   5.480   8.688 -1.3676  1.0805 -1.8360
   38MOL0     H 4961   8.776   5.200   8.586  0.2521 -0.7266  2.8621
   38MOL0     H 4962   8.697   5.339   8.511 -0.9824 -1.0794 -0.3365
   38MOL0     H 4963   8.558   5.392   8.698 -0.9584  0.1084 -1.8468
   38MOL0     H 4964   8.641   5.259   8.800 -2.3699 -3.5698 -1.0301
   38MOL0     H 4965   8.505   5.205   8.534  3.8784  0.8562 -0.2145
   38MOL0     H 4966   8.553   5.088   8.649  1.7078 -0.5648 -1.3464
   38MOL0     H 4967   8.389   5.222   8.816 -0.8126 -1.9380  0.4830
   38MOL0     H 4968   8.321   5.110   8.694 -1.9653  1.4229  0.3465
   38MOL0     H 4969   8.243   5.233   8.434 -3.2625 -1.7725  1.9321
   38MOL0     H 4970   8.143   5.371   8.305  1.8019 -0.5460 -0.0887
   38MOL0     H 4971   8.216   5.534   8.330  2.6927 -1.5716  1.1584
   38MOL0     H 4972   7.994   5.563   8.275  0.2510 -0.6496  0.4280
   38MOL0     H 4973   7.991   5.597   8.452 -0.0768  0.1413  0.4430
   38MOL0     H 4974   7.884   5.349   8.331 -2.8430 -1.7051  1.9027
   38MOL0     H 4975   7.922   5.372   8.509 -3.3290  0.2325  1.3475
   38MOL0     H 4976   7.727   5.530   8.338 -1.5474  1.7029  1.8911
   38MOL0     H 4977   7.793   5.580   8.495  1.1980 -0.0802  0.4239
   38MOL0     H 4978   7.466   5.230   8.530  0.6035 -0.3787  1.7828
   38MOL0     H 4979   7.219   5.312   8.526 -0.7590  0.6972  0.8979
   38MOL0     H 4980   6.844   5.299   8.436  1.0284  0.6869 -2.1736
   38MOL0     H 4981   6.601   5.336   8.442  0.0392  0.0876 -0.6851
   38MOL0     H 4982   6.367   5.394   8.454 -0.4315  1.8671  1.4636
   38MOL0     H 4983   6.456   5.450   8.320  2.4859 -0.0214  1.1298
   38MOL0     H 4984   6.307   5.653   8.306  3.0236  0.8833  1.1818
   38MOL0     H 4985   6.225   5.609   8.448 -1.5817 -0.8469  0.1365
   38MOL0     H 4986   6.147   5.396   8.339 -0.6628 -0.0089 -0.8929
   38MOL0     H 4987   6.210   5.446   8.184  2.6407 -0.5040  2.3905
   38MOL0     H 4988   6.005   5.616   8.317  0.6577  1.2019 -0.5913
   38MOL0     H 4989   6.075   5.625   8.153 -0.3325  2.4081  2.7495
   38MOL0     H 4990   5.886   5.417   8.260 -1.0249  1.8598  1.4677
   38MOL0     H 4991   5.985   5.404   8.109 -1.7761 -0.3884 -0.8124
   38MOL0     H 4992   5.729   5.475   8.080  2.1725 -3.9872 -1.2620
   38MOL0     H 4993   5.850   5.573   8.002 -0.4934  0.8534 -0.3367
   38MOL0     H 4994   5.829   5.745   8.174  1.9589 -1.5320  1.0914
   38MOL0     H 4995   5.661   5.707   8.114  0.2408  4.1003  0.8358
   38MOL0     H 4996   5.651   5.730   8.357 -1.6990 -0.6916 -0.8354
   38MOL0     H 4997   5.756   5.585   8.373 -0.0891 -2.0132 -0.3183
   38MOL0     H 4998   6.658   5.749   8.515 -2.2190 -0.5636 -1.6820
   38MOL0     H 4999   6.898   5.712   8.534  0.9001 -0.9902  0.3839
   38MOL0     H 5000   7.344   5.721   8.477 -0.3350 -0.2770  1.5447
   38MOL0     H 5001   7.574   5.642   8.434  0.8708 -1.2702 -2.1872
   38MOL0     H 5002   9.441   5.436   8.456  1.5383  2.5853 -1.6987
   38MOL0     H 5003   9.692   5.424   8.434  1.5797 -1.4542  1.5479
   38MOL0     H 5004  10.181   5.276   8.610  1.3424 -0.4549  2.5598
   38MOL0     H 5005  10.412   5.357   8.552 -2.1149  0.1154  1.4460
   38MOL0     H 5006  10.467   5.772   8.596 -0.2827  2.7488 -0.8826
   38MOL0     H 5007  10.503   5.805   8.427  1.0401  2.1501  1.3896
   38MOL0     H 5008  10.684   5.857   8.597 -0.4951  0.4747 -1.2736
   38MOL0     H 5009  10.689   5.676   8.628 -3.3747 -0.4216  1.0572
   38MOL0     H 5010  10.735   5.809   8.363 -0.2765  1.7111  0.8675
   38MOL0     H 5011  10.751   5.631   8.394 -0.0271  0.9023 -0.4095
   38MOL0     H 5012  10.931   5.838   8.522 -0.5125  0.3871 -0.1365
   38MOL0     H 5013  10.929   5.674   8.582  2.6393  1.9540  0.3415
   38MOL0     H 5014  11.128   5.628   8.221 -3.1320  0.2290 -0.8893
   38MOL0     H 5015  10.260   5.745   8.475  1.8427 -0.8607 -1.7770
   38MOL0     H 5016  10.043   5.678   8.556 -1.1925 -1.6711  1.1687
   39MOL0     O 5017   5.436   7.773  10.415  0.5560  0.6874 -0.5303
   39MOL0     C 5018   5.496   7.765  10.307 -0.0861  0.5577  0.0968
   39MOL0     O 5019   5.437   7.767  10.177  0.1242 -0.0897  0.7915
   39MOL0     C 5020   5.300   7.780  10.153 -0.2644  0.0650  0.2806
   39MOL0     C 5021   5.243   7.710  10.047  0.1309  0.1255  0.0934
   39MOL0     C 5022   5.104   7.710  10.023 -0.1981 -0.2674 -0.7717
   39MOL0     C 5023   5.022   7.803  10.103  0.2012 -1.1419 -0.7159
   39MOL0     O 5024   4.883   7.802  10.125 -0.8501  0.2589  0.4510
   39MOL0     C 5025   4.806   7.708  10.048  0.2390  1.0608 -0.6333
   39MOL0     C 5026   4.807   7.577  10.123 -0.2011  0.1659  0.3042
   39MOL0     C 5027   4.678   7.500  10.065  0.7033  0.5896 -0.6533
   39MOL0     C 5028   4.551   7.552  10.134 -0.0435 -1.1069  0.5694
   39MOL0     C 5029   4.432   7.454  10.121 -0.5568 -0.5332  0.2397
   39MOL0     C 5030   4.324   7.497  10.212 -1.0455 -0.7066  0.4738
   39MOL0     C 5031   4.190   7.416  10.216 -0.2920  0.0789  1.0612
   39MOL0     C 5032   4.101   7.461  10.098 -0.7087  0.5493  0.3041
   39MOL0     N 5033   3.984   7.363  10.094 -0.1837 -0.0003  0.2761
   39MOL0     C 5034   3.866   7.368  10.166  0.0645 -0.4406 -0.3897
   39MOL0     C 5035   3.795   7.266  10.118 -0.4079 -0.1645 -0.5007
   39MOL0     C 5036   3.651   7.230  10.162 -0.2604  0.2592 -0.0586
   39MOL0     C 5037   3.551   7.326  10.102  0.4900  0.2682  0.0078
   39MOL0     C 5038   3.506   7.270   9.967  0.2566  0.0351 -0.2346
   39MOL0     C 5039   3.374   7.331   9.925 -0.6492  1.0376  0.5176
   39MOL0     O 5040   3.273   7.288  10.019  0.5219 -0.2491  0.0766
   39MOL0     C 5041   3.153   7.342  10.003  0.2283  0.1497  0.4241
   39MOL0     C 5042   3.050   7.278  10.070  0.0179  0.9834  1.3951
   39MOL0     C 5043   2.918   7.312  10.050  0.7253 -0.9816  0.5202
   39MOL0     C 5044   2.883   7.407   9.957 -0.5503  0.3405 -0.3618
   39MOL0     C 5045   2.737   7.441   9.939 -0.0394 -0.0478  0.1009
   39MOL0     O 5046   2.647   7.392  10.025 -0.3417 -0.5347 -0.4637
   39MOL0     C 5047   2.516   7.425  10.014  0.0288  0.8826  0.2216
   39MOL0     C 5048   2.442   7.374   9.903 -0.8897 -0.5840 -0.3850
   39MOL0     C 5049   2.310   7.408   9.892  0.3479  0.6547  0.3831
   39MOL0     C 5050   2.244   7.500   9.973 -0.6953  0.8453 -0.6863
   39MOL0     O 5051   2.106   7.535   9.948 -0.7548  0.7851  1.0858
   39MOL0     C 5052   2.030   7.607  10.044 -0.5820 -0.6347  0.1219
   39MOL0     C 5053   1.895   7.632  10.004 -0.1543  1.0052  0.4936
   39MOL0     C 5054   1.815   7.495   9.989 -0.1032  0.1609 -0.1137
   39MOL0     C 5055   1.673   7.516   9.927  0.3736  0.3706  0.1529
   39MOL0     C 5056   1.601   7.381   9.906 -0.0290  0.1586  1.3040
   39MOL0     C 5057   1.535   7.329  10.033 -0.2958  0.4956  0.4592
   39MOL0     C 5058   1.439   7.211   9.999 -0.2900 -0.0936  0.2603
   39MOL0     C 5059   1.354   7.156  10.122 -0.3174 -0.2282 -0.1553
   39MOL0    Cl 5060   1.239   7.023  10.084  0.3647  0.4229 -0.4148
   39MOL0     C 5061   2.322   7.546  10.086 -0.4013 -0.0543 -0.3460
   39MOL0     C 5062   2.457   7.514  10.100  0.1171  0.1379 -0.2339
   39MOL0     O 5063   2.710   7.512   9.839 -0.7783 -0.5831 -0.2763
   39MOL0     C 5064   2.985   7.488   9.908 -0.8472  0.4266  0.2519
   39MOL0     C 5065   3.121   7.458   9.933  0.2182  0.6349 -1.3189
   39MOL0     N 5066   3.863   7.213  10.011 -0.3319  0.0404  0.8683
   39MOL0     N 5067   3.976   7.273   9.991  0.5930  0.8772  0.4336
   39MOL0     C 5068   5.088   7.877  10.201  0.5863  0.5986  0.1030
   39MOL0     C 5069   5.223   7.865  10.225  0.0038 -0.3073  0.5442
   39MOL0     C 5070   5.638   7.727  10.318  0.4954  0.8659 -0.2128
   39MOL0     C 5071   5.700   7.674  10.203 -0.2292 -0.5137  0.5096
   39MOL0     C 5072   5.835   7.653  10.210  0.2327  0.4487  0.6652
   39MOL0     C 5073   5.910   7.681  10.328  0.3482  0.9169 -0.4784
   39MOL0     O 5074   6.044   7.644  10.321 -0.9594 -0.1231  0.5635
   39MOL0     C 5075   6.115   7.599  10.440 -0.2139  0.1219 -0.2232
   39MOL0     C 5076   6.259   7.561  10.404  0.0595 -0.4931 -0.1591
   39MOL0     C 5077   6.341   7.688  10.356  0.2268  0.4129 -0.7646
   39MOL0     C 5078   6.494   7.657  10.344 -0.2903 -0.5937  0.0077
   39MOL0     C 5079   6.509   7.597  10.214  0.2187 -0.6739  0.3629
   39MOL0     C 5080   6.518   7.564  10.092  0.6063  0.7424 -0.0970
   39MOL0     C 5081   5.843   7.725  10.448 -0.4059  0.3822 -0.6703
   39MOL0     C 5082   5.703   7.743  10.441 -0.0422  0.2702 -0.1937
   39MOL0     H 5083   5.302   7.637   9.993 -0.0986 -1.2735  1.6521
   39MOL0     H 5084   5.063   7.642   9.950  1.1612  0.1174 -1.9257
   39MOL0     H 5085   4.834   7.711   9.943  0.9454  1.0313 -0.4480
   39MOL0     H 5086   4.703   7.746  10.046  0.1172  0.7770 -0.0576
   39MOL0     H 5087   4.780   7.594  10.227 -2.2744  0.1008 -0.1924
   39MOL0     H 5088   4.900   7.524  10.099 -0.4610  1.1776 -3.5739
   39MOL0     H 5089   4.714   7.400  10.092 -0.5014  0.1151 -0.7692
   39MOL0     H 5090   4.658   7.495   9.958 -1.2450 -0.9153 -0.2839
   39MOL0     H 5091   4.575   7.567  10.240  0.1963 -0.2534  0.3969
   39MOL0     H 5092   4.539   7.651  10.090  1.4117 -1.9835 -2.0106
   39MOL0     H 5093   4.458   7.349  10.140  2.4165 -0.2862 -1.7212
   39MOL0     H 5094   4.387   7.467  10.023 -1.4982  0.7333  0.8128
   39MOL0     H 5095   4.312   7.605  10.201  1.0663 -0.3001  1.6725
   39MOL0     H 5096   4.375   7.486  10.308  2.5688  0.8985 -1.0857
   39MOL0     H 5097   4.204   7.308  10.200  0.5430  0.4147 -0.7093
   39MOL0     H 5098   4.136   7.443  10.307 -1.3794  1.2949  0.0786
   39MOL0     H 5099   4.151   7.449  10.001 -3.1345  0.4827 -1.0221
   39MOL0     H 5100   4.070   7.565  10.110 -0.5618  0.6972 -0.5238
   39MOL0     H 5101   3.834   7.441  10.240 -0.8321  0.1489 -1.3242
   39MOL0     H 5102   3.655   7.241  10.271  2.3082  0.7308 -0.1287
   39MOL0     H 5103   3.633   7.128  10.126 -2.4398  0.6367 -0.1789
   39MOL0     H 5104   3.596   7.426  10.094  0.0248  0.3853 -1.3832
   39MOL0     H 5105   3.466   7.333  10.171  1.6371  0.6112  1.4343
   39MOL0     H 5106   3.579   7.300   9.891  1.7008  0.7304  1.3506
   39MOL0     H 5107   3.507   7.161   9.966  0.3604  0.0289 -1.7205
   39MOL0     H 5108   3.349   7.299   9.823 -2.9493 -0.6030  1.4826
   39MOL0     H 5109   3.382   7.440   9.930 -0.3390  0.9921  1.1989
   39MOL0     H 5110   3.085   7.204  10.142  3.4411 -0.2639 -1.2610
   39MOL0     H 5111   2.846   7.266  10.117 -0.8867  2.2568  1.1889
   39MOL0     H 5112   2.495   7.312   9.832  0.9281  1.1902 -0.6688
   39MOL0     H 5113   2.257   7.358   9.811  0.6267  1.4918 -0.3419
   39MOL0     H 5114   2.092   7.697  10.056 -1.4583  0.2835 -1.7691
   39MOL0     H 5115   2.022   7.551  10.138 -0.5690  0.0693  0.5563
   39MOL0     H 5116   1.889   7.688   9.910  1.1333 -1.4384 -1.1601
   39MOL0     H 5117   1.856   7.707  10.073 -1.0319  0.9684  0.0538
   39MOL0     H 5118   1.810   7.453  10.089 -0.1417  1.0649  0.2741
   39MOL0     H 5119   1.874   7.428   9.925 -1.8019  0.9721 -2.6908
   39MOL0     H 5120   1.609   7.578   9.990  0.9925  0.4342  0.7329
   39MOL0     H 5121   1.700   7.570   9.836  0.1436 -0.0056 -0.1419
   39MOL0     H 5122   1.676   7.306   9.879  2.3928  3.1159 -0.9538
   39MOL0     H 5123   1.528   7.391   9.826 -1.1231 -1.2698  2.0777
   39MOL0     H 5124   1.476   7.409  10.078 -0.1820 -0.3869  2.2373
   39MOL0     H 5125   1.614   7.288  10.095  0.0668 -0.4784 -0.6030
   39MOL0     H 5126   1.366   7.251   9.928  1.8597 -0.0952 -2.0914
   39MOL0     H 5127   1.496   7.128   9.958  0.7375  0.6966  0.0586
   39MOL0     H 5128   1.298   7.240  10.164  0.5104  0.0769  0.3634
   39MOL0     H 5129   1.426   7.108  10.188 -1.4343 -2.2027 -0.3027
   39MOL0     H 5130   2.290   7.623  10.156  2.1613  0.4212  0.4220
   39MOL0     H 5131   2.516   7.557  10.180 -3.0166  1.4035  1.6057
   39MOL0     H 5132   2.975   7.570   9.838 -0.5890  1.3275  1.2453
   39MOL0     H 5133   3.188   7.527   9.884  0.0992  2.0786  0.4597
   39MOL0     H 5134   5.030   7.937  10.271 -0.6376  1.2547 -1.4111
   39MOL0     H 5135   5.272   7.917  10.307 -1.8759  2.2068  0.2052
   39MOL0     H 5136   5.656   7.654  10.105  0.0827 -0.4615  0.3598
   39MOL0     H 5137   5.894   7.589  10.146  0.3638  0.6504  0.5814
   39MOL0     H 5138   6.060   7.514  10.481 -2.4383  1.6765  0.2298
   39MOL0     H 5139   6.105   7.678  10.516  0.5531 -0.7847  0.8613
   39MOL0     H 5140   6.304   7.516  10.493  0.6277  0.5547  0.0975
   39MOL0     H 5141   6.259   7.479  10.331  2.0399  0.1900 -0.9943
   39MOL0     H 5142   6.335   7.761  10.436  1.1823 -0.5963  0.2706
   39MOL0     H 5143   6.293   7.729  10.266 -0.2977 -1.3109 -1.3158
   39MOL0     H 5144   6.560   7.743  10.351 -0.6766 -0.1941 -0.9755
   39MOL0     H 5145   6.521   7.588  10.424 -1.8335  0.4169  1.4703
   39MOL0     H 5146   6.519   7.552   9.986  2.0678 -0.0955 -0.0050
   39MOL0     H 5147   5.894   7.750  10.540 -0.1082  3.2359 -1.5169
   39MOL0     H 5148   5.653   7.766  10.535  0.7311  0.5846  0.1609
   40MOL0     O 5149   2.827   7.714   7.329 -0.2803 -0.2449 -0.1200
   40MOL0     C 5150   2.735   7.643   7.360 -0.6335  0.3339  0.4496
   40MOL0     O 5151   2.745   7.502   7.368  0.0544  0.2664 -0.4624
   40MOL0     C 5152   2.878   7.455   7.359  0.6121 -0.3436 -0.2183
   40MOL0     C 5153   2.981   7.492   7.451 -0.1336  0.1677 -0.7467
   40MOL0     C 5154   3.104   7.442   7.435 -0.1002  0.5892 -1.1600
   40MOL0     C 5155   3.142   7.342   7.337  0.5858 -0.2410 -0.3122
   40MOL0     O 5156   3.262   7.275   7.320 -0.0108 -0.0813  0.4747
   40MOL0     C 5157   3.361   7.293   7.421  0.3376 -0.2145 -0.2511
   40MOL0     C 5158   3.448   7.169   7.447 -0.2046 -0.2222  0.2937
   40MOL0     C 5159   3.582   7.221   7.506 -0.1611  0.1143 -0.1739
   40MOL0     C 5160   3.684   7.100   7.508  0.5055 -0.1853  0.8302
   40MOL0     C 5161   3.821   7.123   7.567 -0.2924 -0.1558 -0.6584
   40MOL0     C 5162   3.910   6.997   7.543 -0.7156 -0.3456  0.7495
   40MOL0     C 5163   4.046   7.003   7.629  0.7172  0.6391  0.9105
   40MOL0     C 5164   4.141   6.878   7.619 -0.6965 -0.7293  0.3401
   40MOL0     N 5165   4.267   6.912   7.695 -0.4626  0.0688 -0.3371
   40MOL0     C 5166   4.295   6.867   7.824 -0.1430 -0.0323  1.0935
   40MOL0     C 5167   4.407   6.924   7.865  0.3965  0.0006 -0.4191
   40MOL0     C 5168   4.465   6.916   8.006 -0.1026 -0.7968  0.1093
   40MOL0     C 5169   4.384   6.993   8.113  0.2747  0.8344 -0.7661
   40MOL0     C 5170   4.379   7.145   8.110 -0.1863  0.2475 -0.2917
   40MOL0     C 5171   4.521   7.206   8.101 -0.8375  0.7172 -0.0663
   40MOL0     O 5172   4.505   7.343   8.101 -1.3795 -0.1283  0.0872
   40MOL0     C 5173   4.608   7.422   8.051  0.2329 -0.0453  0.7787
   40MOL0     C 5174   4.579   7.556   8.038  0.7051 -0.0295 -0.3552
   40MOL0     C 5175   4.665   7.654   7.987 -0.9004  0.2025 -1.1403
   40MOL0     C 5176   4.800   7.627   7.965 -1.3158 -0.5478 -0.6284
   40MOL0     C 5177   4.901   7.739   7.929 -0.4272  0.2036  0.0799
   40MOL0     O 5178   5.033   7.696   7.917  0.3128  0.3748  0.1398
   40MOL0     C 5179   5.125   7.764   7.863  0.2800 -0.3973 -0.6080
   40MOL0     C 5180   5.258   7.757   7.917 -0.2290  0.6163  0.1481
   40MOL0     C 5181   5.359   7.839   7.863  0.3244  0.7870  0.5911
   40MOL0     C 5182   5.339   7.917   7.751 -1.4775 -0.0876 -0.7758
   40MOL0     O 5183   5.439   8.005   7.701 -0.4199 -0.0244 -0.1668
   40MOL0     C 5184   5.561   8.014   7.779 -0.0994 -0.8075 -0.4568
   40MOL0     C 5185   5.661   8.097   7.701 -0.2793  0.4157  0.4020
   40MOL0     C 5186   5.804   8.086   7.752 -0.6088 -0.4925 -0.0143
   40MOL0     C 5187   5.812   8.160   7.886  0.1593  0.0387 -0.3019
   40MOL0     C 5188   5.948   8.140   7.962  0.0726  0.4280  0.5062
   40MOL0     C 5189   6.073   8.181   7.874  0.5027  0.1233 -0.8078
   40MOL0     C 5190   6.197   8.177   7.953  0.3804  0.6761  0.2486
   40MOL0     C 5191   6.322   8.215   7.871  0.1369 -0.8034 -0.8797
   40MOL0    Cl 5192   6.354   8.081   7.749  0.0729 -0.2315 -0.2261
   40MOL0     C 5193   5.214   7.915   7.696 -1.1586 -0.8305 -1.2184
   40MOL0     C 5194   5.109   7.834   7.742  0.0513 -0.4055 -0.6843
   40MOL0     O 5195   4.871   7.860   7.923 -0.1326  0.4383 -0.1101
   40MOL0     C 5196   4.839   7.496   7.970  0.2364 -0.0518 -0.1473
   40MOL0     C 5197   4.750   7.395   8.015 -0.0342 -0.2260 -0.5475
   40MOL0     N 5198   4.448   7.011   7.764 -0.7054  1.2694 -0.5423
   40MOL0     N 5199   4.362   7.004   7.671 -0.1515  0.0829  0.0527
   40MOL0     C 5200   3.038   7.306   7.247 -0.0020  0.1705  0.5497
   40MOL0     C 5201   2.911   7.367   7.260 -0.0846 -0.3798 -0.6307
   40MOL0     C 5202   2.602   7.712   7.383  0.2695 -0.2288 -0.8206
   40MOL0     C 5203   2.484   7.633   7.414 -0.7948 -0.5276 -0.4222
   40MOL0     C 5204   2.364   7.691   7.430 -0.1157  0.1283  0.8599
   40MOL0     C 5205   2.343   7.830   7.425 -1.1479 -0.0783 -0.4682
   40MOL0     O 5206   2.222   7.890   7.427  0.3427  0.4584  0.2047
   40MOL0     C 5207   2.116   7.819   7.498  0.2731 -0.1397 -0.5316
   40MOL0     C 5208   2.014   7.921   7.535  0.4568 -0.5701 -0.4582
   40MOL0     C 5209   1.882   7.874   7.573 -0.0687 -0.1104 -0.6577
   40MOL0     C 5210   1.801   7.831   7.460 -0.4634  0.4150 -0.2193
   40MOL0     C 5211   1.659   7.812   7.487 -0.9141  0.3410 -0.3226
   40MOL0     C 5212   1.543   7.790   7.527 -0.9609  0.5416  0.0496
   40MOL0     C 5213   2.456   7.910   7.383  0.4570 -0.4739  0.1194
   40MOL0     C 5214   2.584   7.857   7.371  0.1188  0.1913  0.8824
   40MOL0     H 5215   2.960   7.567   7.526  0.3888  0.2496 -0.6811
   40MOL0     H 5216   3.176   7.484   7.505 -0.3479  2.6872 -2.1027
   40MOL0     H 5217   3.308   7.316   7.513 -0.3610 -0.2422 -0.6397
   40MOL0     H 5218   3.428   7.372   7.385 -0.6891  0.6754 -0.2475
   40MOL0     H 5219   3.473   7.127   7.349  1.4031  1.3519 -0.0406
   40MOL0     H 5220   3.405   7.087   7.505  0.5377  0.6166  2.0879
   40MOL0     H 5221   3.574   7.259   7.608 -1.5445 -1.9353  0.5314
   40MOL0     H 5222   3.628   7.302   7.448  3.1151 -0.1069  1.8410
   40MOL0     H 5223   3.639   7.023   7.572 -0.4117 -0.0063  0.4206
   40MOL0     H 5224   3.685   7.060   7.406 -0.8284  2.3295 -0.2488
   40MOL0     H 5225   3.809   7.139   7.674  1.1579 -2.1427 -0.1518
   40MOL0     H 5226   3.861   7.213   7.520 -3.2403  1.7085  0.1392
   40MOL0     H 5227   3.932   6.991   7.436  2.0359  1.4819  1.1023
   40MOL0     H 5228   3.860   6.904   7.571 -1.1327 -0.9043 -1.6704
   40MOL0     H 5229   4.099   7.089   7.587 -1.1271  0.3798 -2.2280
   40MOL0     H 5230   4.022   7.022   7.734 -2.9241  0.5469  0.2053
   40MOL0     H 5231   4.168   6.851   7.517  1.0074 -0.3133  0.6580
   40MOL0     H 5232   4.096   6.791   7.668 -0.2390 -0.7569  0.7264
   40MOL0     H 5233   4.237   6.799   7.885  0.5348 -0.7123  0.9916
   40MOL0     H 5234   4.570   6.947   8.009 -1.2303  3.6737  0.6532
   40MOL0     H 5235   4.447   6.812   8.033  0.3161 -0.6167  1.1196
   40MOL0     H 5236   4.416   6.963   8.213 -2.0236  2.0685  0.4111
   40MOL0     H 5237   4.281   6.957   8.117  0.5435  0.0677 -0.4610
   40MOL0     H 5238   4.325   7.160   8.016  1.9659  0.9466 -1.4721
   40MOL0     H 5239   4.320   7.183   8.194  0.9921  1.2443  0.1107
   40MOL0     H 5240   4.577   7.179   8.012 -0.1080 -1.3373  0.9471
   40MOL0     H 5241   4.578   7.171   8.188 -1.0727  2.3733  0.8052
   40MOL0     H 5242   4.484   7.586   8.082  0.6748  3.2226 -2.3488
   40MOL0     H 5243   4.633   7.757   7.975  1.6430  1.2180  0.0270
   40MOL0     H 5244   5.267   7.702   8.011 -3.1066  1.8021  1.2485
   40MOL0     H 5245   5.454   7.830   7.915 -0.8155  1.3538  2.9275
   40MOL0     H 5246   5.598   7.911   7.787 -0.4505 -0.7810  2.0002
   40MOL0     H 5247   5.537   8.051   7.878  2.2971  0.9441 -0.4557
   40MOL0     H 5248   5.623   8.199   7.698  0.5558  0.7335  0.1290
   40MOL0     H 5249   5.671   8.055   7.600 -1.8168  1.1440 -0.0709
   40MOL0     H 5250   5.869   8.140   7.683 -1.2805  1.5846  0.9055
   40MOL0     H 5251   5.842   7.984   7.761  0.7062  0.0196  0.5915
   40MOL0     H 5252   5.781   8.264   7.869 -1.2884  0.1468  2.5061
   40MOL0     H 5253   5.747   8.108   7.956  4.3418 -0.7823  3.4229
   40MOL0     H 5254   5.957   8.034   7.986 -2.2041 -1.1752 -4.4161
   40MOL0     H 5255   5.944   8.200   8.054 -0.0700  2.2398 -0.6225
   40MOL0     H 5256   6.064   8.279   7.827 -0.9202 -0.0673 -0.9737
   40MOL0     H 5257   6.085   8.117   7.786  0.4279 -0.2455 -0.5524
   40MOL0     H 5258   6.193   8.224   8.052  1.6564 -1.4711  1.3897
   40MOL0     H 5259   6.199   8.070   7.978 -0.5659  0.3045 -1.1450
   40MOL0     H 5260   6.394   8.233   7.951 -1.2849 -0.2978  0.3453
   40MOL0     H 5261   6.301   8.309   7.819  0.2317  0.6881  1.5963
   40MOL0     H 5262   5.203   7.983   7.612  1.1755  1.1773 -0.0275
   40MOL0     H 5263   5.010   7.853   7.702 -1.7610 -2.2394  2.5636
   40MOL0     H 5264   4.939   7.468   7.939  0.0825 -1.2013  0.3372
   40MOL0     H 5265   4.793   7.295   8.011  2.3837  0.4395  3.4989
   40MOL0     H 5266   3.068   7.234   7.173 -1.9592 -1.3053  1.0860
   40MOL0     H 5267   2.838   7.348   7.183 -0.5094  0.7990 -0.5235
   40MOL0     H 5268   2.507   7.527   7.423 -1.2056 -0.7106 -1.4795
   40MOL0     H 5269   2.286   7.628   7.473  1.8504 -2.2027  1.2231
   40MOL0     H 5270   2.166   7.768   7.581  1.2167  1.6154  0.0260
   40MOL0     H 5271   2.069   7.742   7.436  0.3603  1.3450 -2.5703
   40MOL0     H 5272   2.055   7.988   7.612 -3.1560  1.1187  0.2048
   40MOL0     H 5273   1.999   7.985   7.447  1.0088  0.0257 -0.1238
   40MOL0     H 5274   1.833   7.954   7.630  1.3697  0.5555 -0.3015
   40MOL0     H 5275   1.886   7.785   7.637 -3.0599 -0.2427 -0.5111
   40MOL0     H 5276   1.803   7.904   7.379  3.2575 -1.9282 -2.5500
   40MOL0     H 5277   1.849   7.742   7.419 -4.7043 -0.3775 -4.2481
   40MOL0     H 5278   1.442   7.762   7.547 -0.4793 -2.1660 -0.8395
   40MOL0     H 5279   2.440   8.015   7.362 -2.7842 -0.7582  0.5835
   40MOL0     H 5280   2.669   7.919   7.345 -1.2576  1.7592 -0.0206
   41MOL0     O 5281   5.868   6.606   6.569 -0.6664  0.3101 -0.2558
   41MOL0     C 5282   5.911   6.512   6.496 -0.1334 -0.1819  1.3190
   41MOL0     O 5283   5.830   6.412   6.441  0.0813 -0.2157 -0.4633
   41MOL0     C 5284   5.701   6.411   6.481 -0.0220  1.2529  0.8390
   41MOL0     C 5285   5.652   6.406   6.611  0.4738  0.3383 -0.3501
   41MOL0     C 5286   5.516   6.428   6.633 -0.0414  0.7667  0.9571
   41MOL0     C 5287   5.422   6.414   6.529  0.4126 -0.4720  0.3598
   41MOL0     O 5288   5.284   6.413   6.550  0.8038 -0.3516 -0.4935
   41MOL0     C 5289   5.231   6.452   6.673  0.2794 -0.4877 -0.4027
   41MOL0     C 5290   5.077   6.424   6.644 -0.3018 -0.2148  0.4880
   41MOL0     C 5291   4.986   6.473   6.760  0.4771  0.2704 -0.7127
   41MOL0     C 5292   4.855   6.398   6.742  0.9161  0.4333  0.1045
   41MOL0     C 5293   4.743   6.441   6.840  1.1550 -0.6030  0.1353
   41MOL0     C 5294   4.614   6.357   6.835 -0.4884 -0.3846 -0.0622
   41MOL0     C 5295   4.521   6.395   6.954  0.4019  0.0263 -0.7531
   41MOL0     C 5296   4.390   6.311   6.958  1.0749 -0.5771  0.3310
   41MOL0     N 5297   4.277   6.392   6.911  0.1775  0.5555 -0.1711
   41MOL0     C 5298   4.243   6.399   6.782 -0.0261 -0.2980  0.2792
   41MOL0     C 5299   4.122   6.468   6.779 -1.2287 -0.7323  0.7585
   41MOL0     C 5300   4.037   6.470   6.661 -0.5613 -0.3965 -0.3788
   41MOL0     C 5301   3.961   6.333   6.647 -1.3091  0.1382 -0.6229
   41MOL0     C 5302   3.864   6.316   6.527  0.1686 -0.0026 -0.5391
   41MOL0     C 5303   3.827   6.168   6.520  0.4026  0.0303  0.1355
   41MOL0     O 5304   3.755   6.107   6.627 -0.0052 -0.2458  0.4959
   41MOL0     C 5305   3.641   6.170   6.667 -0.2115 -0.4917 -0.0634
   41MOL0     C 5306   3.619   6.172   6.805  0.5831  0.5338  0.4515
   41MOL0     C 5307   3.496   6.211   6.855 -0.2209 -0.2440 -0.1360
   41MOL0     C 5308   3.397   6.257   6.765 -0.7634  0.2695  1.2312
   41MOL0     C 5309   3.268   6.303   6.809 -0.9114 -0.2995  0.2086
   41MOL0     O 5310   3.205   6.374   6.712  0.1701  0.3095 -0.0062
   41MOL0     C 5311   3.090   6.434   6.739  0.3449 -0.6169  0.3018
   41MOL0     C 5312   3.080   6.527   6.839  0.1986 -0.2753  0.5913
   41MOL0     C 5313   2.952   6.573   6.865  0.5541  0.7495 -0.1566
   41MOL0     C 5314   2.835   6.540   6.793  0.0216 -0.6070  0.3831
   41MOL0     O 5315   2.714   6.607   6.822 -0.6363 -0.1929  0.2729
   41MOL0     C 5316   2.640   6.653   6.714 -0.4561  0.1473  0.3106
   41MOL0     C 5317   2.522   6.748   6.762  0.0861  0.2151 -0.5388
   41MOL0     C 5318   2.457   6.827   6.652 -0.5364  0.0908 -0.1353
   41MOL0     C 5319   2.344   6.738   6.582 -0.5840 -1.0284 -1.4716
   41MOL0     C 5320   2.246   6.808   6.493  0.3965  1.1164  0.3853
   41MOL0     C 5321   2.302   6.916   6.401  0.4767  0.2100 -0.0631
   41MOL0     C 5322   2.205   6.929   6.279 -0.6705 -0.1702 -0.0856
   41MOL0     C 5323   2.211   6.814   6.173 -0.0946 -1.3476  0.4482
   41MOL0    Cl 5324   2.074   6.839   6.061  0.5145 -0.0522  0.1015
   41MOL0     C 5325   2.850   6.439   6.703  0.5384 -0.2593 -0.7396
   41MOL0     C 5326   2.979   6.388   6.678  0.4361  0.2542 -0.2124
   41MOL0     O 5327   3.237   6.298   6.926 -0.4741 -0.1702 -0.2037
   41MOL0     C 5328   3.429   6.261   6.626  0.2813 -0.1976  0.8008
   41MOL0     C 5329   3.542   6.212   6.575  0.1150  0.3966  0.4421
   41MOL0     N 5330   4.097   6.510   6.907 -0.0987  0.3948  0.1567
   41MOL0     N 5331   4.187   6.464   6.983  0.0152 -0.0738 -0.3754
   41MOL0     C 5332   5.470   6.407   6.397 -0.4858 -0.2984 -0.5368
   41MOL0     C 5333   5.604   6.405   6.380 -1.4270  0.0773  0.1416
   41MOL0     C 5334   6.057   6.518   6.454  0.0402  0.9082 -0.5051
   41MOL0     C 5335   6.138   6.399   6.449 -0.6276 -0.4544 -0.1079
   41MOL0     C 5336   6.271   6.402   6.402  0.8834  0.4348  0.6389
   41MOL0     C 5337   6.330   6.531   6.365 -0.5392  0.1527  0.6547
   41MOL0     O 5338   6.461   6.514   6.313  0.5715  1.1349 -0.0046
   41MOL0     C 5339   6.530   6.619   6.250  0.4208 -1.0606 -0.2738
   41MOL0     C 5340   6.675   6.575   6.234 -0.1166  0.0502  0.3971
   41MOL0     C 5341   6.712   6.525   6.093 -0.6684 -0.2412  0.2078
   41MOL0     C 5342   6.853   6.471   6.075 -0.1924 -0.5797 -0.2458
   41MOL0     C 5343   6.938   6.580   6.070  0.8954 -1.0401 -0.0873
   41MOL0     C 5344   6.993   6.689   6.040 -0.2866  0.4962  0.4559
   41MOL0     C 5345   6.250   6.647   6.374  0.9645  0.2720  0.3042
   41MOL0     C 5346   6.114   6.644   6.416  0.5965  0.1148 -0.6784
   41MOL0     H 5347   5.723   6.404   6.693  0.8931  1.5241 -0.6590
   41MOL0     H 5348   5.485   6.426   6.737  1.8034 -2.6219  1.5980
   41MOL0     H 5349   5.252   6.557   6.700  0.4591  0.2346 -3.1211
   41MOL0     H 5350   5.255   6.381   6.753 -1.6792  0.0965  0.7901
   41MOL0     H 5351   5.064   6.316   6.633 -0.8114 -0.2893  1.6566
   41MOL0     H 5352   5.043   6.476   6.554 -1.4786 -1.3079  0.2732
   41MOL0     H 5353   4.959   6.578   6.747 -1.5526  0.1737  1.9291
   41MOL0     H 5354   5.034   6.455   6.856 -1.1243  0.9725  0.2564
   41MOL0     H 5355   4.815   6.395   6.640  1.4078 -0.6976 -0.0770
   41MOL0     H 5356   4.873   6.292   6.766  3.4615  0.7579 -0.1186
   41MOL0     H 5357   4.717   6.546   6.826  0.6224 -1.0373 -2.9945
   41MOL0     H 5358   4.778   6.426   6.942 -1.1074 -0.8711  0.9362
   41MOL0     H 5359   4.641   6.251   6.826 -0.7113 -0.4123 -0.4261
   41MOL0     H 5360   4.561   6.380   6.742  1.1323 -0.8157 -1.1312
   41MOL0     H 5361   4.576   6.372   7.045  0.1174  0.9803 -0.3370
   41MOL0     H 5362   4.500   6.502   6.959 -3.7791 -0.6860  2.8776
   41MOL0     H 5363   4.375   6.283   7.063 -3.5846 -0.2505 -0.0750
   41MOL0     H 5364   4.406   6.215   6.908  0.1466 -1.8031  2.2874
   41MOL0     H 5365   4.305   6.373   6.696 -1.1250  0.6276 -0.8448
   41MOL0     H 5366   4.092   6.487   6.568  0.4765 -0.2060  0.2556
   41MOL0     H 5367   3.958   6.545   6.669 -0.9566 -0.9003  0.6386
   41MOL0     H 5368   3.919   6.300   6.742 -1.3770 -2.0628 -1.3626
   41MOL0     H 5369   4.045   6.265   6.627  0.3590  2.3847 -1.7149
   41MOL0     H 5370   3.770   6.371   6.534  0.1349 -0.3003  2.2888
   41MOL0     H 5371   3.919   6.346   6.437  2.8706  0.3762  1.1244
   41MOL0     H 5372   3.918   6.108   6.508  0.1495 -0.7581  1.8144
   41MOL0     H 5373   3.767   6.163   6.428  0.0032  2.7766  0.1738
   41MOL0     H 5374   3.697   6.134   6.870 -1.1510 -0.8673  1.8064
   41MOL0     H 5375   3.480   6.202   6.962  0.4158  0.3920  0.0200
   41MOL0     H 5376   3.163   6.569   6.894  0.5374 -0.2453  0.0545
   41MOL0     H 5377   2.955   6.649   6.942  2.2045  0.6702 -0.1127
   41MOL0     H 5378   2.606   6.564   6.661 -0.4821  1.2439 -1.6113
   41MOL0     H 5379   2.702   6.702   6.638 -1.3407 -3.0839 -2.7335
   41MOL0     H 5380   2.555   6.812   6.845  0.2491  0.5445 -0.8558
   41MOL0     H 5381   2.454   6.681   6.815  0.7042  0.6055  0.7979
   41MOL0     H 5382   2.537   6.848   6.581 -0.5902 -1.3046 -0.6196
   41MOL0     H 5383   2.414   6.920   6.692  0.7665  1.0151 -0.8310
   41MOL0     H 5384   2.386   6.650   6.534 -2.3868 -1.2481 -2.7271
   41MOL0     H 5385   2.276   6.708   6.662 -1.4615  0.7179 -1.5160
   41MOL0     H 5386   2.169   6.860   6.550 -0.8090 -0.9039  0.6755
   41MOL0     H 5387   2.191   6.735   6.434  2.1472 -1.3975  1.6998
   41MOL0     H 5388   2.400   6.874   6.377  0.9751  1.8930 -1.1489
   41MOL0     H 5389   2.320   7.007   6.459 -2.9988  1.2279 -0.3467
   41MOL0     H 5390   2.099   6.941   6.303 -0.1717  0.3861  2.0112
   41MOL0     H 5391   2.245   7.010   6.218  2.2371 -2.4944 -1.5518
   41MOL0     H 5392   2.210   6.719   6.227 -0.0564 -0.1013  2.7591
   41MOL0     H 5393   2.311   6.817   6.128 -0.5601 -1.0448 -0.6042
   41MOL0     H 5394   2.772   6.388   6.648 -0.6412  1.0606 -0.3655
   41MOL0     H 5395   2.999   6.309   6.607  0.6098 -1.1028  1.2768
   41MOL0     H 5396   3.349   6.280   6.554 -0.0137 -0.4814  1.0520
   41MOL0     H 5397   3.557   6.208   6.468 -0.8706 -0.1884  0.3166
   41MOL0     H 5398   5.408   6.389   6.310  1.1741 -1.3925 -1.5359
   41MOL0     H 5399   5.629   6.411   6.275 -1.1835  0.9378  0.2419
   41MOL0     H 5400   6.098   6.303   6.479  1.3640 -1.0802  0.7210
   41MOL0     H 5401   6.324   6.307   6.400  1.6315  0.8463 -1.2096
   41MOL0     H 5402   6.538   6.711   6.308 -2.9558 -0.9870  0.2680
   41MOL0     H 5403   6.482   6.643   6.154 -2.2309  1.3010  1.4798
   41MOL0     H 5404   6.742   6.661   6.237  1.3663 -1.0036 -0.4932
   41MOL0     H 5405   6.698   6.513   6.322 -1.1449  0.6177  1.0757
   41MOL0     H 5406   6.690   6.606   6.022  0.7699 -0.7258 -0.8563
   41MOL0     H 5407   6.648   6.444   6.059  0.4649 -1.2546  0.4017
   41MOL0     H 5408   6.877   6.408   6.161 -0.2977 -0.8443 -0.4085
   41MOL0     H 5409   6.860   6.418   5.979  0.0013 -0.6176 -0.2095
   41MOL0     H 5410   7.051   6.778   6.025  1.3140 -0.0281  2.9239
   41MOL0     H 5411   6.291   6.745   6.354  2.4171 -0.5481 -1.0063
   41MOL0     H 5412   6.046   6.729   6.417  1.4022  0.7730 -0.4467
   42MOL0     O 5413   0.651   4.376   6.725 -0.2041  0.3078 -0.1096
   42MOL0     C 5414   0.674   4.393   6.605  0.6384 -0.6173 -0.6255
   42MOL0     O 5415   0.573   4.418   6.516 -0.2885 -0.9898  0.3037
   42MOL0     C 5416   0.443   4.432   6.554 -0.3539  0.4486 -0.1867
   42MOL0     C 5417   0.352   4.332   6.518  0.0124 -0.1267  0.1118
   42MOL0     C 5418   0.216   4.342   6.556  0.5825 -0.2227  0.3036
   42MOL0     C 5419   0.170   4.460   6.623  1.1879 -0.6696  0.7451
   42MOL0     O 5420   0.041   4.476   6.661  0.6009 -0.2331 -0.2699
   42MOL0     C 5421  -0.063   4.408   6.585 -0.2177  0.6725 -0.3639
   42MOL0     C 5422  -0.198   4.482   6.596  0.7110 -0.6755  0.0057
   42MOL0     C 5423  -0.312   4.384   6.567  0.7016 -0.3984  0.0400
   42MOL0     C 5424  -0.462   4.448   6.598 -0.5613 -0.0821 -0.9665
   42MOL0     C 5425  -0.566   4.335   6.582 -0.3406 -0.2348  0.7171
   42MOL0     C 5426  -0.696   4.338   6.653  0.5461 -0.3935 -0.2462
   42MOL0     C 5427  -0.762   4.484   6.636  0.2391 -0.1611  0.2287
   42MOL0     C 5428  -0.808   4.531   6.496  0.3169  0.4122 -0.8005
   42MOL0     N 5429  -0.908   4.434   6.460  0.0523 -0.1216  0.3367
   42MOL0     C 5430  -0.893   4.331   6.364 -0.6111 -0.4038  0.1410
   42MOL0     C 5431  -1.022   4.294   6.335 -0.3522  0.8046 -0.0508
   42MOL0     C 5432  -1.070   4.205   6.229 -0.5531  0.3115 -0.1499
   42MOL0     C 5433  -1.175   4.100   6.275 -0.7776 -1.1015 -0.1906
   42MOL0     C 5434  -1.321   4.148   6.262 -0.3755 -0.8747 -0.4281
   42MOL0     C 5435  -1.356   4.145   6.115 -0.6657 -0.0193 -0.4061
   42MOL0     O 5436  -1.470   4.233   6.101  0.5152 -0.1312 -0.3519
   42MOL0     C 5437  -1.603   4.199   6.113 -0.1810  0.0751  1.2372
   42MOL0     C 5438  -1.702   4.291   6.060  0.1701  0.2611 -0.0450
   42MOL0     C 5439  -1.841   4.272   6.064 -0.1872 -0.1445 -1.2289
   42MOL0     C 5440  -1.880   4.150   6.129 -0.3870  0.1625  0.1329
   42MOL0     C 5441  -2.032   4.121   6.139 -0.1070 -0.2180  0.1419
   42MOL0     O 5442  -2.064   3.993   6.164  0.2656 -0.0820 -0.2242
   42MOL0     C 5443  -2.193   3.948   6.197 -0.9511 -0.0999 -0.0785
   42MOL0     C 5444  -2.252   3.846   6.123 -0.0103  0.6488 -0.3194
   42MOL0     C 5445  -2.379   3.806   6.156 -0.2395 -0.5382 -0.5034
   42MOL0     C 5446  -2.449   3.863   6.264 -0.1268  0.2610  0.9088
   42MOL0     O 5447  -2.587   3.835   6.280 -0.2523 -0.1713 -0.2330
   42MOL0     C 5448  -2.652   3.740   6.202  0.0942  0.1331 -0.1497
   42MOL0     C 5449  -2.786   3.718   6.256  0.1159  0.2301 -0.5600
   42MOL0     C 5450  -2.885   3.657   6.160 -0.3479 -0.3632  0.0494
   42MOL0     C 5451  -2.935   3.759   6.060  0.5606  0.5084 -0.1867
   42MOL0     C 5452  -3.030   3.699   5.957 -0.8579 -0.5132  0.2387
   42MOL0     C 5453  -3.080   3.801   5.852 -0.7048  0.6363 -0.7191
   42MOL0     C 5454  -3.195   3.728   5.770  0.2340  0.3067  0.7809
   42MOL0     C 5455  -3.297   3.823   5.698  0.2175 -0.8944  0.9361
   42MOL0    Cl 5456  -3.213   3.916   5.567 -0.2215 -0.0226 -0.0926
   42MOL0     C 5457  -2.391   3.965   6.339 -0.1872 -0.4975  0.1455
   42MOL0     C 5458  -2.256   4.011   6.308 -0.2167 -0.0990  1.1312
   42MOL0     O 5459  -2.112   4.212   6.112 -0.0978  0.6583  0.1518
   42MOL0     C 5460  -1.788   4.061   6.178 -0.6500  0.3024  0.0124
   42MOL0     C 5461  -1.651   4.082   6.175  0.1608  0.8161  0.6153
   42MOL0     N 5462  -1.107   4.359   6.431  0.4703  0.3520  0.5237
   42MOL0     N 5463  -1.037   4.440   6.498  0.6203  0.3460  0.3863
   42MOL0     C 5464   0.265   4.553   6.661 -0.3526 -0.3949  0.5913
   42MOL0     C 5465   0.399   4.537   6.634  1.1710  0.0160  0.2825
   42MOL0     C 5466   0.815   4.370   6.559 -0.2627  0.0361 -0.1105
   42MOL0     C 5467   0.863   4.400   6.429  0.3291  0.3412 -0.0536
   42MOL0     C 5468   0.995   4.380   6.399  0.2595 -0.5383 -0.1551
   42MOL0     C 5469   1.093   4.329   6.490  0.0586 -1.1723  0.0789
   42MOL0     O 5470   1.227   4.310   6.449 -0.2386  0.7541  0.2653
   42MOL0     C 5471   1.330   4.297   6.550  0.3178 -0.0215 -0.2218
   42MOL0     C 5472   1.467   4.342   6.507 -0.1985 -0.2143  0.4864
   42MOL0     C 5473   1.455   4.472   6.433 -0.1619 -0.4443 -0.7384
   42MOL0     C 5474   1.387   4.583   6.504  0.0171 -0.1196 -0.3392
   42MOL0     C 5475   1.458   4.617   6.631 -0.3228 -0.0635  0.0516
   42MOL0     C 5476   1.532   4.639   6.718 -0.0463 -0.1787 -1.0329
   42MOL0     C 5477   1.043   4.298   6.619  0.4069 -0.2008 -0.2992
   42MOL0     C 5478   0.906   4.309   6.648 -0.1664 -0.0026  0.8135
   42MOL0     H 5479   0.372   4.245   6.456 -1.3090 -1.2423  1.1822
   42MOL0     H 5480   0.151   4.256   6.541 -0.5350  0.7015 -0.3328
   42MOL0     H 5481  -0.071   4.304   6.618  3.9140 -0.9240 -3.4960
   42MOL0     H 5482  -0.025   4.401   6.482  2.1372  2.1764  0.3314
   42MOL0     H 5483  -0.204   4.556   6.516 -1.3927  0.5006  1.1680
   42MOL0     H 5484  -0.218   4.534   6.689  1.9681  0.2321 -0.2026
   42MOL0     H 5485  -0.297   4.294   6.629  1.3317 -0.9927 -0.9551
   42MOL0     H 5486  -0.310   4.359   6.461 -0.8342  0.1414 -0.1338
   42MOL0     H 5487  -0.466   4.488   6.700 -1.2113  2.7460 -2.0065
   42MOL0     H 5488  -0.478   4.529   6.526  0.0372 -0.4051 -1.4696
   42MOL0     H 5489  -0.527   4.236   6.607  0.2989 -0.6061 -1.5418
   42MOL0     H 5490  -0.588   4.318   6.476  0.5157 -0.4711  0.5687
   42MOL0     H 5491  -0.687   4.316   6.760  3.0215  1.2110 -0.0473
   42MOL0     H 5492  -0.767   4.263   6.616  0.7030 -1.6720  1.8791
   42MOL0     H 5493  -0.853   4.478   6.696  1.6849  1.0640  2.7041
   42MOL0     H 5494  -0.697   4.563   6.675  0.3830 -0.0107 -0.3087
   42MOL0     H 5495  -0.724   4.524   6.425  3.0805 -1.4130  2.3581
   42MOL0     H 5496  -0.852   4.630   6.493 -0.4688  0.0569 -1.4765
   42MOL0     H 5497  -0.807   4.301   6.305 -0.0527 -1.5635  1.4825
   42MOL0     H 5498  -0.984   4.141   6.212 -0.0853  0.5653  1.1559
   42MOL0     H 5499  -1.100   4.258   6.138  1.2193 -1.2874 -1.7318
   42MOL0     H 5500  -1.148   4.069   6.376  0.5464  1.9221  0.5089
   42MOL0     H 5501  -1.159   4.007   6.220  0.2213 -0.9565 -0.1523
   42MOL0     H 5502  -1.391   4.104   6.333  2.5961 -0.5532  3.0079
   42MOL0     H 5503  -1.321   4.250   6.301 -4.2637 -0.8717 -0.0385
   42MOL0     H 5504  -1.373   4.039   6.094  3.7500 -0.9559 -0.2004
   42MOL0     H 5505  -1.282   4.174   6.040  0.1449 -3.0165 -0.9116
   42MOL0     H 5506  -1.679   4.394   6.034 -1.8190  0.3124 -1.8713
   42MOL0     H 5507  -1.918   4.334   6.019 -1.0771  0.8260  1.4054
   42MOL0     H 5508  -2.199   3.791   6.045 -0.3211 -1.4957  0.8846
   42MOL0     H 5509  -2.423   3.725   6.098  0.4959 -2.8433  1.9639
   42MOL0     H 5510  -2.600   3.645   6.185 -0.6739 -0.5542  1.2421
   42MOL0     H 5511  -2.675   3.794   6.110  0.3207 -0.3280 -0.4783
   42MOL0     H 5512  -2.830   3.815   6.280  1.3559  1.7301 -3.7532
   42MOL0     H 5513  -2.775   3.663   6.351  0.4498  1.3646  0.0782
   42MOL0     H 5514  -2.971   3.613   6.211  0.2757  1.0185  2.4273
   42MOL0     H 5515  -2.835   3.577   6.105  1.1570 -0.9843  2.2020
   42MOL0     H 5516  -2.980   3.848   6.105 -2.9788 -0.8671 -0.6983
   42MOL0     H 5517  -2.859   3.796   5.991  0.8425 -0.3850 -0.3625
   42MOL0     H 5518  -3.113   3.656   6.014 -1.5227  0.4637  0.0142
   42MOL0     H 5519  -2.975   3.623   5.899 -1.9860  0.1911 -1.8711
   42MOL0     H 5520  -2.993   3.832   5.794  0.4062 -1.9661 -0.5951
   42MOL0     H 5521  -3.124   3.889   5.899 -1.6166 -1.1868  2.1107
   42MOL0     H 5522  -3.143   3.666   5.697  0.9281  0.3877  1.1973
   42MOL0     H 5523  -3.247   3.649   5.824 -1.5837  0.8687 -0.0594
   42MOL0     H 5524  -3.344   3.895   5.765  2.2805  2.6547 -1.1422
   42MOL0     H 5525  -3.374   3.759   5.653 -0.1111  0.7404 -1.0040
   42MOL0     H 5526  -2.436   4.015   6.424  0.0186  0.4064 -0.2742
   42MOL0     H 5527  -2.210   4.088   6.369  0.7401 -0.0849  0.4227
   42MOL0     H 5528  -1.821   3.978   6.240  2.1296  1.7753  3.9440
   42MOL0     H 5529  -1.581   4.012   6.220  1.6630  1.3845 -0.7542
   42MOL0     H 5530   0.232   4.638   6.721  0.7833  0.0605  0.5919
   42MOL0     H 5531   0.468   4.611   6.673  0.4593  0.6144  0.4189
   42MOL0     H 5532   0.801   4.452   6.356  1.7429  0.8531 -0.9217
   42MOL0     H 5533   1.036   4.416   6.305  0.7498 -0.1455  0.2017
   42MOL0     H 5534   1.333   4.194   6.585 -2.3766 -0.7596 -1.9267
   42MOL0     H 5535   1.305   4.351   6.642 -0.3789  3.6819 -2.3659
   42MOL0     H 5536   1.543   4.350   6.585  1.4462 -2.0165 -0.8310
   42MOL0     H 5537   1.514   4.265   6.445 -1.6017  0.8757 -2.1070
   42MOL0     H 5538   1.390   4.450   6.348 -2.0807 -0.6890  0.7334
   42MOL0     H 5539   1.558   4.502   6.409  0.5752 -0.7221  1.8169
   42MOL0     H 5540   1.376   4.676   6.446  1.9561 -1.0229 -2.3107
   42MOL0     H 5541   1.283   4.556   6.526  0.4509 -0.7276  1.0191
   42MOL0     H 5542   1.603   4.663   6.795 -0.1877 -1.2430 -0.5514
   42MOL0     H 5543   1.114   4.259   6.691  2.2624 -1.8930 -2.8749
   42MOL0     H 5544   0.871   4.264   6.740 -2.9807  1.3800  0.5241
   43MOL0     O 5545   2.446  10.884  10.388  0.6181  0.0096 -0.2717
   43MOL0     C 5546   2.477  10.974  10.469  0.3329  0.4608 -0.0097
   43MOL0     O 5547   2.390  11.037  10.557 -1.3138 -0.0361  0.1573
   43MOL0     C 5548   2.255  11.017  10.544 -0.7636 -0.3387 -0.5065
   43MOL0     C 5549   2.183  10.995  10.662 -0.5556 -0.2088  0.0552
   43MOL0     C 5550   2.045  11.006  10.671  0.3854  0.8715 -0.7540
   43MOL0     C 5551   1.977  11.031  10.560 -0.2577 -0.1359  0.2036
   43MOL0     O 5552   1.842  11.039  10.564 -1.0803 -0.3369 -0.1287
   43MOL0     C 5553   1.770  10.921  10.609 -0.0352  0.0795 -0.2236
   43MOL0     C 5554   1.809  10.802  10.524  1.0630  0.6018 -0.5789
   43MOL0     C 5555   1.716  10.687  10.564 -0.6165 -0.1426 -0.7508
   43MOL0     C 5556   1.727  10.572  10.459 -0.1989 -0.0447 -0.2000
   43MOL0     C 5557   1.638  10.461  10.510  0.0346 -0.8003 -0.4743
   43MOL0     C 5558   1.631  10.337  10.430 -0.6390 -0.6137  0.8502
   43MOL0     C 5559   1.583  10.209  10.512  0.0275 -0.5763 -0.4828
   43MOL0     C 5560   1.428  10.217  10.527 -0.1428 -0.1362 -0.1751
   43MOL0     N 5561   1.391  10.100  10.617 -0.2346  0.8671  0.2113
   43MOL0     C 5562   1.377   9.972  10.563  0.3343  0.3978  0.2735
   43MOL0     C 5563   1.301   9.910  10.653  0.1042  0.5575 -0.5940
   43MOL0     C 5564   1.229   9.783  10.626  1.1265  0.2806 -0.0793
   43MOL0     C 5565   1.117   9.733  10.715  0.0064 -0.2720 -0.8546
   43MOL0     C 5566   1.061   9.593  10.672 -0.7081 -0.6421 -0.2549
   43MOL0     C 5567   0.937   9.557  10.754 -0.3492 -0.0875 -0.2545
   43MOL0     O 5568   0.899   9.416  10.736  0.2892 -0.5788 -0.2176
   43MOL0     C 5569   0.771   9.380  10.759  0.3098  0.3439 -0.5016
   43MOL0     C 5570   0.689   9.452  10.845  0.0770  0.6133  0.2310
   43MOL0     C 5571   0.567   9.407  10.885  0.2975 -0.0523 -0.8552
   43MOL0     C 5572   0.503   9.300  10.823 -0.3605  0.3732  1.0144
   43MOL0     C 5573   0.372   9.263  10.872  0.6667 -1.0432  0.6466
   43MOL0     O 5574   0.318   9.307  10.993  0.5200  0.1538 -0.4678
   43MOL0     C 5575   0.195   9.260  11.050 -0.7079  0.3648 -0.6762
   43MOL0     C 5576   0.080   9.325  11.038 -0.3131 -0.8963  0.7401
   43MOL0     C 5577  -0.037   9.277  11.085  0.9491  0.0356 -0.2193
   43MOL0     C 5578  -0.036   9.159  11.163 -0.6581 -0.4901 -0.8321
   43MOL0     O 5579  -0.154   9.111  11.208 -0.4796  0.2842 -0.1804
   43MOL0     C 5580  -0.161   9.039  11.332 -0.1644  0.1286  0.3612
   43MOL0     C 5581  -0.201   8.892  11.321 -0.6412  0.2521  0.6917
   43MOL0     C 5582  -0.249   8.827  11.454 -0.8217  0.1247  1.0566
   43MOL0     C 5583  -0.321   8.696  11.420  0.1201 -0.2553  0.7931
   43MOL0     C 5584  -0.463   8.718  11.369  0.3542 -0.3732  0.2639
   43MOL0     C 5585  -0.568   8.617  11.423  0.8114  0.4689  0.3035
   43MOL0     C 5586  -0.708   8.624  11.348 -0.0160 -0.2654 -0.0849
   43MOL0     C 5587  -0.814   8.521  11.397  0.5533 -0.0265  0.4251
   43MOL0    Cl 5588  -0.959   8.548  11.281 -0.0682 -0.5142 -0.2472
   43MOL0     C 5589   0.089   9.098  11.202 -0.3398 -0.5318  0.2590
   43MOL0     C 5590   0.204   9.147  11.135 -0.1307 -0.5044  0.3047
   43MOL0     O 5591   0.320   9.173  10.803 -0.6926 -0.5154  0.3061
   43MOL0     C 5592   0.585   9.225  10.725 -0.3691 -0.1940  0.8905
   43MOL0     C 5593   0.715   9.270  10.698  0.2746  0.7388 -0.0937
   43MOL0     N 5594   1.277   9.996  10.763  0.2312 -0.6783  0.6747
   43MOL0     N 5595   1.328  10.111  10.737  0.4862  0.3795  0.4795
   43MOL0     C 5596   2.040  11.056  10.436 -0.3809  0.0916  0.3959
   43MOL0     C 5597   2.183  11.046  10.423  0.6719 -0.1445 -0.1617
   43MOL0     C 5598   2.619  11.015  10.486 -1.1598 -0.1442 -0.1867
   43MOL0     C 5599   2.716  10.976  10.391 -0.5480  0.6284 -0.7725
   43MOL0     C 5600   2.840  11.034  10.402  0.6313  0.8532 -0.5106
   43MOL0     C 5601   2.876  11.128  10.500  0.4040  0.8202  0.9869
   43MOL0     O 5602   3.004  11.182  10.484  0.5465 -0.0831  0.3632
   43MOL0     C 5603   3.045  11.268  10.589 -0.1759 -0.6670  0.3283
   43MOL0     C 5604   3.185  11.328  10.555  0.4731  0.2396 -0.1441
   43MOL0     C 5605   3.236  11.414  10.668 -0.2765 -0.6569 -0.7371
   43MOL0     C 5606   3.385  11.409  10.701  0.2714  1.2011 -0.9942
   43MOL0     C 5607   3.473  11.435  10.588 -0.1818  0.6884 -0.2896
   43MOL0     C 5608   3.531  11.450  10.489 -0.9348 -0.7506  0.0442
   43MOL0     C 5609   2.785  11.152  10.604  0.7104  0.2299  0.6194
   43MOL0     C 5610   2.651  11.103  10.587  0.3254 -0.2221  0.3993
   43MOL0     H 5611   2.234  10.987  10.758 -1.0365  3.2015  0.7374
   43MOL0     H 5612   2.001  10.992  10.769  0.5922 -0.6727 -0.8526
   43MOL0     H 5613   1.663  10.942  10.596  0.1426  2.0023  1.1428
   43MOL0     H 5614   1.786  10.904  10.715  1.5609 -0.0500 -0.4629
   43MOL0     H 5615   1.914  10.775  10.536  1.0676  0.6876 -0.4213
   43MOL0     H 5616   1.790  10.819  10.418 -0.5526 -1.1707 -0.6129
   43MOL0     H 5617   1.618  10.731  10.582 -0.9185 -1.2123  0.4018
   43MOL0     H 5618   1.752  10.650  10.661  2.2563  1.9260 -0.8864
   43MOL0     H 5619   1.702  10.603  10.357 -2.8200  2.3860  1.0333
   43MOL0     H 5620   1.826  10.527  10.455 -0.9992 -2.1397  1.7480
   43MOL0     H 5621   1.539  10.506  10.510 -0.3374 -1.5928 -1.0542
   43MOL0     H 5622   1.659  10.437  10.615 -1.2320  0.0558 -0.0004
   43MOL0     H 5623   1.731  10.306  10.397 -0.0052  0.5701  1.5917
   43MOL0     H 5624   1.577  10.356  10.337  0.2940 -0.8493  0.2444
   43MOL0     H 5625   1.612  10.114  10.465  3.6354  0.2371 -0.1481
   43MOL0     H 5626   1.629  10.203  10.610 -0.0690 -1.5394 -0.4875
   43MOL0     H 5627   1.382  10.205  10.428 -0.0849  1.1869 -0.3817
   43MOL0     H 5628   1.397  10.311  10.574 -0.8695 -0.6520  0.4205
   43MOL0     H 5629   1.386   9.946  10.458 -0.1990 -1.8050  0.7150
   43MOL0     H 5630   1.289   9.691  10.631  2.8110  1.3630  0.3415
   43MOL0     H 5631   1.193   9.788  10.522  2.4551 -0.3993 -0.6029
   43MOL0     H 5632   1.035   9.805  10.707  0.7817  0.9064  1.1048
   43MOL0     H 5633   1.150   9.741  10.819 -0.6193  3.3075 -0.7929
   43MOL0     H 5634   1.049   9.590  10.563  1.0018 -0.9544 -0.4627
   43MOL0     H 5635   1.139   9.518  10.686  1.2187  1.4917  1.1724
   43MOL0     H 5636   0.863   9.628  10.717  0.6864  1.4815  0.5876
   43MOL0     H 5637   0.957   9.556  10.862 -0.3999 -0.5987 -0.2472
   43MOL0     H 5638   0.713   9.547  10.891  0.3905  0.4391  0.4298
   43MOL0     H 5639   0.516   9.464  10.962  0.9426 -1.8076  0.9510
   43MOL0     H 5640   0.077   9.415  10.977 -0.4403 -0.2592  1.6722
   43MOL0     H 5641  -0.129   9.332  11.068  1.7074  1.0470 -1.2128
   43MOL0     H 5642  -0.246   9.090  11.376 -3.1733 -3.9169 -0.1695
   43MOL0     H 5643  -0.080   9.055  11.404 -0.5330 -0.1265  0.8389
   43MOL0     H 5644  -0.108   8.843  11.290  0.4131  2.0180  0.9306
   43MOL0     H 5645  -0.279   8.884  11.245 -0.4248  0.8094  0.4088
   43MOL0     H 5646  -0.324   8.888  11.503 -2.3728 -2.3237  1.9390
   43MOL0     H 5647  -0.164   8.804  11.519 -1.2609  0.2929  1.6924
   43MOL0     H 5648  -0.269   8.626  11.354 -2.1938 -0.6229 -0.7536
   43MOL0     H 5649  -0.329   8.635  11.509  2.3342  0.1223  1.3122
   43MOL0     H 5650  -0.462   8.721  11.260  1.9208  1.7716  0.2900
   43MOL0     H 5651  -0.507   8.814  11.396 -1.7997 -1.0066 -0.7017
   43MOL0     H 5652  -0.587   8.630  11.530  0.7553 -1.7040  0.6105
   43MOL0     H 5653  -0.532   8.515  11.409 -2.0707 -0.4424 -1.2614
   43MOL0     H 5654  -0.748   8.725  11.356 -2.4286 -1.0819 -0.8399
   43MOL0     H 5655  -0.681   8.608  11.244 -0.7053 -2.7322  0.0464
   43MOL0     H 5656  -0.827   8.535  11.505 -2.1710  2.3089 -0.0890
   43MOL0     H 5657  -0.774   8.420  11.389  0.9049  0.2484 -2.1180
   43MOL0     H 5658   0.098   9.021  11.278  0.0695 -2.9839 -2.0933
   43MOL0     H 5659   0.303   9.113  11.163 -0.3906 -0.0665  1.8275
   43MOL0     H 5660   0.553   9.132  10.679  0.7470  1.2013 -3.0847
   43MOL0     H 5661   0.781   9.216  10.631  0.3337  0.1828  0.4003
   43MOL0     H 5662   1.983  11.082  10.348 -0.2627 -0.9025  0.0087
   43MOL0     H 5663   2.228  11.057  10.325 -3.3655 -1.6849 -2.4633
   43MOL0     H 5664   2.692  10.922  10.300 -2.8033  0.1399  0.0281
   43MOL0     H 5665   2.917  11.011  10.329  1.4667 -1.6319  1.0492
   43MOL0     H 5666   3.046  11.204  10.678  1.0447  1.0248  1.5995
   43MOL0     H 5667   2.973  11.347  10.614  1.0994  0.7454 -0.3774
   43MOL0     H 5668   3.244  11.238  10.535 -1.5534 -1.0757 -0.4755
   43MOL0     H 5669   3.191  11.393  10.468  0.1929  2.1734  1.2076
   43MOL0     H 5670   3.187  11.390  10.762 -0.3509 -0.3793 -0.7062
   43MOL0     H 5671   3.207  11.518  10.651 -1.8330 -1.0137 -0.3951
   43MOL0     H 5672   3.412  11.474  10.785 -0.8908 -0.3331  0.6393
   43MOL0     H 5673   3.413  11.309  10.735 -2.7711 -0.2921 -2.5042
   43MOL0     H 5674   3.578  11.471  10.395 -0.9886 -0.2432  0.1245
   43MOL0     H 5675   2.802  11.214  10.692 -1.0548  1.0696  0.4108
   43MOL0     H 5676   2.574  11.124  10.660 -0.5002 -0.1570 -0.4766
   44MOL0     O 5677   1.955   3.227   3.441  1.2178  0.4379 -0.0381
   44MOL0     C 5678   1.965   3.343   3.477  0.2195 -0.9596  0.6030
   44MOL0     O 5679   1.862   3.425   3.512  0.8189 -0.0190  0.4903
   44MOL0     C 5680   1.729   3.386   3.506 -0.1653 -0.3939 -0.9985
   44MOL0     C 5681   1.652   3.407   3.620  0.0539  0.0420  0.6371
   44MOL0     C 5682   1.519   3.374   3.615  0.9834 -0.4287 -0.6456
   44MOL0     C 5683   1.458   3.330   3.496 -0.5578 -0.2899 -0.4591
   44MOL0     O 5684   1.324   3.308   3.502  0.1490 -0.7160  0.7689
   44MOL0     C 5685   1.248   3.270   3.386 -0.0033  0.5388 -0.3960
   44MOL0     C 5686   1.092   3.245   3.415 -0.2695 -0.1977 -0.2308
   44MOL0     C 5687   1.055   3.395   3.446  0.2452 -0.1589 -0.4248
   44MOL0     C 5688   0.899   3.394   3.475  0.0433 -0.0008  1.1249
   44MOL0     C 5689   0.852   3.529   3.515 -0.1966 -0.4401  0.4421
   44MOL0     C 5690   0.703   3.546   3.543 -0.7626 -0.2564  0.3883
   44MOL0     C 5691   0.617   3.512   3.418  0.0129  0.3895 -0.5041
   44MOL0     C 5692   0.495   3.604   3.384 -0.8157  0.1344  0.0836
   44MOL0     N 5693   0.426   3.560   3.262 -0.2863  0.1059  0.4363
   44MOL0     C 5694   0.313   3.493   3.266 -0.5551  0.5622  0.3491
   44MOL0     C 5695   0.270   3.482   3.138 -0.9622  0.0336 -0.5902
   44MOL0     C 5696   0.150   3.426   3.084 -0.9032  0.1960  0.6007
   44MOL0     C 5697   0.057   3.541   3.026  0.5398  0.5113  0.2902
   44MOL0     C 5698  -0.072   3.485   2.977  0.5086  0.4840  0.6400
   44MOL0     C 5699  -0.180   3.459   3.079  0.5636 -0.3398 -0.4066
   44MOL0     O 5700  -0.224   3.590   3.132  0.3186  0.9152 -0.1650
   44MOL0     C 5701  -0.356   3.604   3.110 -0.2605  0.2387  0.1964
   44MOL0     C 5702  -0.414   3.644   2.985  0.5138 -0.6215 -0.8794
   44MOL0     C 5703  -0.550   3.660   2.977  0.2306  0.0154 -0.2998
   44MOL0     C 5704  -0.636   3.650   3.090  0.3249 -0.9481 -0.6689
   44MOL0     C 5705  -0.782   3.675   3.061 -0.4218 -0.7356 -0.2442
   44MOL0     O 5706  -0.830   3.697   2.934  0.6339  0.2840  0.3793
   44MOL0     C 5707  -0.965   3.696   2.922  0.3534  0.0594  0.0589
   44MOL0     C 5708  -1.045   3.796   2.969 -0.1634  0.0100 -0.1579
   44MOL0     C 5709  -1.180   3.814   2.941  0.8137  0.0296 -0.4885
   44MOL0     C 5710  -1.249   3.713   2.864  0.8598 -0.6144  0.2639
   44MOL0     O 5711  -1.374   3.723   2.809  0.0324 -0.5387  0.4056
   44MOL0     C 5712  -1.478   3.795   2.874  0.0843 -0.3542 -0.0854
   44MOL0     C 5713  -1.606   3.808   2.797 -0.5807 -0.2571  0.2894
   44MOL0     C 5714  -1.720   3.885   2.859 -0.5739 -0.1658 -0.7497
   44MOL0     C 5715  -1.701   4.028   2.881  0.0569  0.1027  0.5204
   44MOL0     C 5716  -1.837   4.108   2.896 -0.1189  0.8561 -0.7365
   44MOL0     C 5717  -1.941   4.072   2.784 -0.0043 -0.4996  0.0958
   44MOL0     C 5718  -2.066   4.163   2.788 -0.0008  0.6576  0.3627
   44MOL0     C 5719  -2.183   4.124   2.695 -0.5342 -0.2765  0.2463
   44MOL0    Cl 5720  -2.290   4.273   2.663 -0.0564 -0.1361 -0.3040
   44MOL0     C 5721  -1.166   3.610   2.812  0.0584  0.0858 -0.2302
   44MOL0     C 5722  -1.024   3.602   2.843  0.0711 -0.2600  0.3432
   44MOL0     O 5723  -0.848   3.671   3.170 -0.2641  0.2197  0.2231
   44MOL0     C 5724  -0.571   3.621   3.215  0.6304  0.9280 -0.0549
   44MOL0     C 5725  -0.438   3.601   3.222  0.6729  1.7824  0.0462
   44MOL0     N 5726   0.359   3.550   3.056  0.1531 -0.0188 -0.2366
   44MOL0     N 5727   0.457   3.592   3.133  0.1794 -0.5759 -0.2406
   44MOL0     C 5728   1.541   3.319   3.382 -0.2449 -0.4420 -0.3592
   44MOL0     C 5729   1.674   3.350   3.385  0.0529  0.4211 -0.4723
   44MOL0     C 5730   2.096   3.416   3.469 -0.3873 -0.7482 -0.7896
   44MOL0     C 5731   2.200   3.368   3.386  0.6918  0.0458  0.0132
   44MOL0     C 5732   2.317   3.439   3.351 -0.2915 -0.1418 -0.3562
   44MOL0     C 5733   2.330   3.565   3.420 -0.2574  0.2838 -0.1195
   44MOL0     O 5734   2.429   3.652   3.399 -0.0995 -0.3601 -0.6156
   44MOL0     C 5735   2.560   3.603   3.428  0.2910  0.0060 -0.8036
   44MOL0     C 5736   2.663   3.654   3.331 -0.8137  0.5507  0.0562
   44MOL0     C 5737   2.808   3.595   3.370 -0.4624 -0.4385  0.2739
   44MOL0     C 5738   2.914   3.670   3.287 -1.0792  0.0777  0.0208
   44MOL0     C 5739   3.049   3.610   3.311  0.3714 -0.5116  0.8332
   44MOL0     C 5740   3.165   3.568   3.326  1.3853  0.0768 -0.1594
   44MOL0     C 5741   2.232   3.614   3.511 -0.3828  0.2193 -1.2009
   44MOL0     C 5742   2.116   3.534   3.537 -1.1983  0.2803 -0.0674
   44MOL0     H 5743   1.702   3.445   3.708 -1.9642  0.0185  1.8423
   44MOL0     H 5744   1.454   3.390   3.700  1.6813  0.3098 -0.2447
   44MOL0     H 5745   1.285   3.170   3.364 -2.5992 -0.6195  0.1568
   44MOL0     H 5746   1.260   3.349   3.311 -4.4376  2.1269  0.2978
   44MOL0     H 5747   1.065   3.178   3.497 -1.7833  1.2395  0.5143
   44MOL0     H 5748   1.039   3.200   3.330 -0.2078 -1.6227  0.4596
   44MOL0     H 5749   1.086   3.462   3.366 -0.6913  0.0075 -0.6606
   44MOL0     H 5750   1.111   3.428   3.533 -0.3568 -0.5017  0.1035
   44MOL0     H 5751   0.840   3.355   3.392 -0.7829 -0.2141  1.7868
   44MOL0     H 5752   0.871   3.332   3.562 -1.2934 -0.4714  0.3912
   44MOL0     H 5753   0.901   3.604   3.453  4.2831 -1.6794  2.1073
   44MOL0     H 5754   0.908   3.555   3.605  3.2369  0.5365 -1.8070
   44MOL0     H 5755   0.694   3.648   3.581 -0.9558 -0.1069 -0.0425
   44MOL0     H 5756   0.681   3.481   3.627  4.7720 -1.8495  0.9849
   44MOL0     H 5757   0.675   3.508   3.325 -0.8008 -1.0081 -0.9823
   44MOL0     H 5758   0.581   3.410   3.434 -1.0744  0.8774  0.2731
   44MOL0     H 5759   0.534   3.705   3.367 -2.7560  0.9683  0.3649
   44MOL0     H 5760   0.436   3.606   3.476  2.5615  0.2859  2.4461
   44MOL0     H 5761   0.256   3.458   3.351 -2.0164 -1.3223 -1.2823
   44MOL0     H 5762   0.095   3.351   3.141 -1.8040 -0.4412 -1.0368
   44MOL0     H 5763   0.180   3.378   2.991 -0.7672 -2.1391  1.7715
   44MOL0     H 5764   0.111   3.593   2.946 -2.0346  0.0544 -1.8924
   44MOL0     H 5765   0.032   3.610   3.107  1.6475 -1.3784  2.3364
   44MOL0     H 5766  -0.120   3.553   2.907 -0.4142 -0.7227  0.0560
   44MOL0     H 5767  -0.053   3.386   2.934 -2.1558  0.5964 -0.9787
   44MOL0     H 5768  -0.132   3.403   3.159 -0.0444 -0.9728 -0.4789
   44MOL0     H 5769  -0.268   3.409   3.037 -0.6713  0.4926  1.0919
   44MOL0     H 5770  -0.339   3.651   2.907  0.4080 -2.5790 -1.2221
   44MOL0     H 5771  -0.598   3.694   2.886 -0.6646  2.0908  0.8752
   44MOL0     H 5772  -0.997   3.874   3.027 -3.3593  2.8643 -0.9447
   44MOL0     H 5773  -1.246   3.892   2.976 -1.3029 -1.6260 -0.6178
   44MOL0     H 5774  -1.433   3.892   2.895  0.7853 -1.1583  2.5662
   44MOL0     H 5775  -1.488   3.756   2.976  3.2183  2.3781  1.4514
   44MOL0     H 5776  -1.645   3.709   2.772  0.7408 -0.5891 -0.5453
   44MOL0     H 5777  -1.578   3.854   2.702  5.3118  0.3566  1.9008
   44MOL0     H 5778  -1.754   3.832   2.948  0.4368  1.5380  0.7045
   44MOL0     H 5779  -1.798   3.869   2.783  1.2150 -0.1832 -2.6946
   44MOL0     H 5780  -1.628   4.042   2.961 -0.0831 -0.5669  0.7707
   44MOL0     H 5781  -1.654   4.084   2.799 -0.6797  2.3997  1.5651
   44MOL0     H 5782  -1.812   4.214   2.905  2.3076  0.2696  0.2793
   44MOL0     H 5783  -1.888   4.082   2.989 -2.0702 -0.0198 -2.0000
   44MOL0     H 5784  -1.978   3.970   2.801  0.2289 -0.3915  1.3583
   44MOL0     H 5785  -1.890   4.085   2.689 -1.6019  0.7517 -0.6419
   44MOL0     H 5786  -2.108   4.141   2.886 -1.5606 -3.1772 -0.9417
   44MOL0     H 5787  -2.040   4.268   2.771  2.9903 -0.1062 -0.4818
   44MOL0     H 5788  -2.248   4.050   2.742  0.3081 -1.0439  0.2193
   44MOL0     H 5789  -2.140   4.085   2.603 -1.1503  1.7306 -0.9617
   44MOL0     H 5790  -1.202   3.539   2.738  0.1666  1.5186 -1.7376
   44MOL0     H 5791  -0.961   3.523   2.803 -0.1261 -0.9973  1.4466
   44MOL0     H 5792  -0.625   3.635   3.308  2.3344 -1.6060  1.4259
   44MOL0     H 5793  -0.395   3.575   3.319  0.6694  0.7702 -0.2043
   44MOL0     H 5794   1.500   3.293   3.285  0.9817 -0.4801 -0.8898
   44MOL0     H 5795   1.741   3.340   3.300  0.9772  1.5572  0.0831
   44MOL0     H 5796   2.198   3.265   3.350 -1.6729  0.4734 -1.2303
   44MOL0     H 5797   2.400   3.401   3.292 -0.0027  0.2976 -0.2363
   44MOL0     H 5798   2.565   3.494   3.428  2.0149  0.0502 -0.0017
   44MOL0     H 5799   2.582   3.647   3.525 -0.3287 -1.4287  0.0116
   44MOL0     H 5800   2.631   3.645   3.227  2.0812  2.0285 -1.0840
   44MOL0     H 5801   2.672   3.762   3.339  0.8786  0.4919 -0.6251
   44MOL0     H 5802   2.810   3.488   3.346  0.5175 -0.3749  0.0032
   44MOL0     H 5803   2.820   3.621   3.475 -1.4714  0.6094  0.1484
   44MOL0     H 5804   2.897   3.655   3.180  0.2669 -0.9480 -0.0808
   44MOL0     H 5805   2.924   3.777   3.306  2.0363 -0.0117 -0.6475
   44MOL0     H 5806   3.258   3.515   3.334  2.3598  1.9040  1.2925
   44MOL0     H 5807   2.243   3.715   3.551 -3.4192 -0.0384  0.5813
   44MOL0     H 5808   2.052   3.584   3.609 -3.9479 -2.1423 -0.6238
   45MOL0     O 5809   1.464  10.317   7.078 -0.0444  0.2666 -0.0596
   45MOL0     C 5810   1.523  10.211   7.088  0.2815 -0.0774 -0.3552
   45MOL0     O 5811   1.478  10.090   7.028  0.0184 -0.4126 -0.0362
   45MOL0     C 5812   1.344  10.084   6.993  0.0714  0.5821  0.1599
   45MOL0     C 5813   1.258  10.021   7.079  0.5609  0.1206  0.0961
   45MOL0     C 5814   1.124   9.993   7.045 -0.9638 -0.2599  0.6812
   45MOL0     C 5815   1.071  10.025   6.915 -0.1221 -0.6712  0.4938
   45MOL0     O 5816   0.941  10.004   6.878  0.5276 -0.5220  0.1499
   45MOL0     C 5817   0.875   9.900   6.952  0.0819  0.2167  0.2354
   45MOL0     C 5818   0.745   9.855   6.890  0.5580  0.1343 -0.0735
   45MOL0     C 5819   0.654   9.979   6.901 -0.4633  0.4322  0.0468
   45MOL0     C 5820   0.514   9.948   6.847 -0.7309 -0.5652  0.3773
   45MOL0     C 5821   0.423   9.893   6.956  0.0948  0.0450  0.0985
   45MOL0     C 5822   0.301   9.799   6.908 -1.3394 -0.1816  0.7092
   45MOL0     C 5823   0.228   9.728   7.025  0.0483 -0.5151 -0.7170
   45MOL0     C 5824   0.111   9.633   6.969 -0.0235  0.5592 -0.0458
   45MOL0     N 5825   0.141   9.495   6.949  0.3076  0.5777  0.1794
   45MOL0     C 5826   0.128   9.389   7.039  0.4213  0.1259 -0.2101
   45MOL0     C 5827   0.153   9.280   6.981 -0.0252  0.5214 -0.1787
   45MOL0     C 5828   0.142   9.145   7.040  0.5757  0.2880  0.3045
   45MOL0     C 5829   0.008   9.102   7.080 -0.2421 -0.5939 -0.5568
   45MOL0     C 5830   0.018   8.956   7.112  0.0508  0.0667  0.1735
   45MOL0     C 5831  -0.113   8.887   7.105  1.5340 -0.6053 -0.7371
   45MOL0     O 5832  -0.203   8.942   7.211 -0.6821 -0.6617  0.5499
   45MOL0     C 5833  -0.335   8.896   7.213 -0.0978 -0.1884 -0.5573
   45MOL0     C 5834  -0.428   8.963   7.297 -0.1211 -0.2377  1.0602
   45MOL0     C 5835  -0.570   8.927   7.293 -0.3748 -0.3758  0.2084
   45MOL0     C 5836  -0.614   8.812   7.217 -0.6728 -0.6866  0.2365
   45MOL0     C 5837  -0.752   8.770   7.195  0.3182 -0.4538 -0.4689
   45MOL0     O 5838  -0.839   8.835   7.275 -0.1098 -0.3113 -0.5556
   45MOL0     C 5839  -0.974   8.813   7.267  1.0739  0.3018 -0.0631
   45MOL0     C 5840  -1.035   8.688   7.253 -0.3707 -0.1125 -1.0749
   45MOL0     C 5841  -1.172   8.678   7.253  0.6578 -0.7742  0.0756
   45MOL0     C 5842  -1.255   8.796   7.245 -0.5428  0.7159  0.1960
   45MOL0     O 5843  -1.393   8.782   7.224 -0.9462  0.2655  0.0214
   45MOL0     C 5844  -1.472   8.881   7.287  0.8383 -0.5808  1.2266
   45MOL0     C 5845  -1.613   8.815   7.300 -0.1420 -0.2786 -0.3575
   45MOL0     C 5846  -1.710   8.923   7.343 -0.1390  0.4087 -0.9215
   45MOL0     C 5847  -1.856   8.876   7.309 -0.0294 -0.3111 -0.7475
   45MOL0     C 5848  -1.956   8.985   7.343 -0.4929 -0.2261  0.3789
   45MOL0     C 5849  -2.099   8.942   7.327  0.4264 -0.7597  0.8377
   45MOL0     C 5850  -2.210   9.055   7.337 -1.2264  0.3082 -0.5639
   45MOL0     C 5851  -2.338   9.008   7.276  0.6724 -0.4751 -0.9286
   45MOL0    Cl 5852  -2.335   8.998   7.103  0.1245 -0.1742  0.4036
   45MOL0     C 5853  -1.193   8.924   7.261 -0.0315 -0.6361  0.1951
   45MOL0     C 5854  -1.054   8.927   7.266  1.5301 -0.5383 -0.6458
   45MOL0     O 5855  -0.775   8.676   7.118  0.3195  0.0390 -0.9963
   45MOL0     C 5856  -0.509   8.744   7.151  0.1181  0.2289  0.0599
   45MOL0     C 5857  -0.381   8.787   7.147  0.1555 -0.3804 -1.0090
   45MOL0     N 5858   0.199   9.310   6.854  0.1648  0.6187  0.8246
   45MOL0     N 5859   0.184   9.437   6.835 -0.4415 -0.3184  0.3990
   45MOL0     C 5860   1.160  10.090   6.829  0.5898 -0.4457  0.5320
   45MOL0     C 5861   1.292  10.113   6.868 -0.1830  0.3312  0.1075
   45MOL0     C 5862   1.661  10.210   7.154 -0.1403 -0.0902  0.4409
   45MOL0     C 5863   1.743  10.091   7.165 -0.3440 -0.0495  0.6167
   45MOL0     C 5864   1.869  10.093   7.223  0.3685  0.2179 -0.0013
   45MOL0     C 5865   1.922  10.212   7.274 -0.4163 -0.4301 -0.3044
   45MOL0     O 5866   2.048  10.222   7.323 -0.0663  0.1997 -0.4926
   45MOL0     C 5867   2.109  10.100   7.366  0.0950  0.3441  0.1752
   45MOL0     C 5868   2.251  10.119   7.432 -0.1042  0.1298  0.7037
   45MOL0     C 5869   2.243  10.170   7.581  0.1444  0.3104 -0.3648
   45MOL0     C 5870   2.230  10.318   7.602 -0.2872 -0.5162 -0.4010
   45MOL0     C 5871   2.340  10.402   7.553 -0.8693  0.2996 -0.4880
   45MOL0     C 5872   2.436  10.456   7.507  0.0402 -0.6442  0.1515
   45MOL0     C 5873   1.843  10.327   7.268  0.2378  0.0080 -0.0852
   45MOL0     C 5874   1.718  10.327   7.208  0.2679 -0.3556 -0.0323
   45MOL0     H 5875   1.285   9.975   7.174 -1.5138  0.1608  0.7466
   45MOL0     H 5876   1.067   9.944   7.122  0.3775 -2.4108  0.4185
   45MOL0     H 5877   0.858   9.932   7.056  0.9792  1.9103 -0.1133
   45MOL0     H 5878   0.941   9.813   6.945  1.8377  1.4991  0.1449
   45MOL0     H 5879   0.703   9.772   6.947  1.0078  1.1250  1.7678
   45MOL0     H 5880   0.760   9.831   6.784  1.8822 -0.9139  0.3190
   45MOL0     H 5881   0.697  10.044   6.825  0.0873 -1.8213 -1.6678
   45MOL0     H 5882   0.643  10.015   7.003 -1.8048 -1.6571  0.7220
   45MOL0     H 5883   0.480  10.049   6.821  3.3218  0.8137 -0.2603
   45MOL0     H 5884   0.529   9.893   6.754  1.6796  0.6458 -0.0458
   45MOL0     H 5885   0.401   9.962   7.038 -0.4504  1.7387 -1.4281
   45MOL0     H 5886   0.486   9.817   7.004 -1.7730 -1.5527  0.1637
   45MOL0     H 5887   0.349   9.725   6.843 -0.0575  2.2890 -1.3247
   45MOL0     H 5888   0.220   9.849   6.855 -1.6266 -1.2642  0.0995
   45MOL0     H 5889   0.302   9.665   7.075  0.0498 -0.4719 -0.6652
   45MOL0     H 5890   0.187   9.805   7.091  0.4707 -3.3497  3.2137
   45MOL0     H 5891   0.078   9.676   6.874  0.4414  2.6575  0.6765
   45MOL0     H 5892   0.028   9.646   7.039 -1.1060 -1.1730 -0.9314
   45MOL0     H 5893   0.107   9.391   7.145  1.2360 -2.6539  0.0787
   45MOL0     H 5894   0.197   9.148   7.135  0.3232 -2.2054  0.5958
   45MOL0     H 5895   0.186   9.077   6.966  0.2940  1.0690 -0.6032
   45MOL0     H 5896  -0.074   9.127   7.013 -0.5348  1.5722  0.5426
   45MOL0     H 5897  -0.015   9.153   7.174 -3.1369  0.8146 -1.9102
   45MOL0     H 5898   0.072   8.918   7.025  0.5181  2.3648 -0.6197
   45MOL0     H 5899   0.079   8.951   7.203  1.8864  3.1299 -0.7154
   45MOL0     H 5900  -0.101   8.781   7.126 -2.5694 -0.8150  1.7130
   45MOL0     H 5901  -0.166   8.882   7.009 -1.6517 -0.2106  0.8710
   45MOL0     H 5902  -0.396   9.053   7.348 -2.0581  1.0864  0.0465
   45MOL0     H 5903  -0.639   8.974   7.363  0.4648  1.4058 -0.1090
   45MOL0     H 5904  -0.968   8.603   7.262 -1.5520 -1.1040 -1.3518
   45MOL0     H 5905  -1.223   8.582   7.247  0.4915 -0.6479 -0.5813
   45MOL0     H 5906  -1.492   8.957   7.210 -4.1499 -2.7407 -0.0253
   45MOL0     H 5907  -1.436   8.918   7.383  3.1918  2.1508 -0.5236
   45MOL0     H 5908  -1.616   8.733   7.372  1.7001  1.3691  1.7455
   45MOL0     H 5909  -1.639   8.773   7.202  1.4570 -0.5935 -0.6639
   45MOL0     H 5910  -1.696   9.016   7.287  0.3121  1.2962  0.6347
   45MOL0     H 5911  -1.696   8.956   7.446  2.0090  1.4226 -1.4846
   45MOL0     H 5912  -1.881   8.836   7.210  1.5474 -0.1348 -1.2338
   45MOL0     H 5913  -1.883   8.797   7.380 -1.4902  0.5107 -0.3375
   45MOL0     H 5914  -1.950   9.068   7.271  3.2606  0.5923  1.4074
   45MOL0     H 5915  -1.932   9.030   7.440  1.1866  2.2790 -1.0726
   45MOL0     H 5916  -2.128   8.865   7.401  1.6419 -1.8719  0.2014
   45MOL0     H 5917  -2.112   8.902   7.226  0.8581  3.6369 -1.1746
   45MOL0     H 5918  -2.226   9.088   7.440 -0.5818 -0.9732 -0.0326
   45MOL0     H 5919  -2.166   9.133   7.274  0.3643  0.4825  0.6934
   45MOL0     H 5920  -2.412   9.081   7.311  0.1014 -2.3421  2.2051
   45MOL0     H 5921  -2.359   8.908   7.317 -0.1856  0.0320 -0.0892
   45MOL0     H 5922  -1.247   9.018   7.253 -0.1955 -0.3483  3.3776
   45MOL0     H 5923  -1.014   9.028   7.275 -0.4341  0.3196 -1.1106
   45MOL0     H 5924  -0.531   8.658   7.089 -0.9551 -0.9829  2.0252
   45MOL0     H 5925  -0.319   8.730   7.078 -0.2326 -2.1788  0.0911
   45MOL0     H 5926   1.127  10.104   6.727  0.7394  0.2024  0.5706
   45MOL0     H 5927   1.365  10.145   6.795 -2.1453  0.4915 -1.9151
   45MOL0     H 5928   1.698   9.996   7.136 -5.4252  1.9605  0.8190
   45MOL0     H 5929   1.920   9.998   7.229  0.2628  0.2315  1.5274
   45MOL0     H 5930   2.128  10.033   7.281  2.6379  0.5583  0.4976
   45MOL0     H 5931   2.035  10.064   7.439  0.9162  1.0741  1.4160
   45MOL0     H 5932   2.295  10.019   7.445 -1.7546 -0.5522  1.4230
   45MOL0     H 5933   2.321  10.171   7.367 -0.5350 -0.7084 -0.4577
   45MOL0     H 5934   2.337  10.140   7.627  1.1460  1.3208 -1.6513
   45MOL0     H 5935   2.160  10.112   7.622  0.0281  0.2178 -0.7203
   45MOL0     H 5936   2.139  10.350   7.552 -0.2357 -0.8709 -0.7194
   45MOL0     H 5937   2.226  10.319   7.712  0.8554 -0.2506 -0.3505
   45MOL0     H 5938   2.524  10.503   7.469 -2.0288  5.3255  1.6327
   45MOL0     H 5939   1.883  10.423   7.298 -1.4256  0.9599 -0.7580
   45MOL0     H 5940   1.657  10.415   7.192 -2.4775 -1.9160  1.0587
   46MOL0     O 5941   2.397   8.396   8.055  0.3747  0.1445 -0.7911
   46MOL0     C 5942   2.444   8.490   7.992 -0.2988  0.6776  0.3615
   46MOL0     O 5943   2.411   8.531   7.864  0.1648  0.4692  0.4672
   46MOL0     C 5944   2.296   8.495   7.798  0.6066  0.3078  0.9337
   46MOL0     C 5945   2.175   8.446   7.850 -0.9198 -0.7460 -0.0780
   46MOL0     C 5946   2.077   8.381   7.768 -0.6200  0.3689 -0.0969
   46MOL0     C 5947   2.095   8.398   7.624 -0.0495  0.8034 -0.4224
   46MOL0     O 5948   1.996   8.365   7.523 -0.5938 -0.0943 -0.0719
   46MOL0     C 5949   1.867   8.314   7.553 -0.0108 -0.1265  0.7049
   46MOL0     C 5950   1.799   8.300   7.412 -0.3255 -0.3945 -0.2227
   46MOL0     C 5951   1.664   8.237   7.436  0.0112  0.2258  0.3904
   46MOL0     C 5952   1.593   8.190   7.312  0.0203  0.4741  0.9841
   46MOL0     C 5953   1.459   8.120   7.354 -0.3727  0.2456  0.6137
   46MOL0     C 5954   1.360   8.216   7.418 -0.3352  0.0370  0.5737
   46MOL0     C 5955   1.223   8.167   7.434  0.1826 -0.1235 -0.9857
   46MOL0     C 5956   1.225   8.018   7.479 -0.1639  0.3269  0.0198
   46MOL0     N 5957   1.091   7.975   7.508 -0.3846  0.2688 -0.1991
   46MOL0     C 5958   0.990   7.948   7.412  0.2295 -0.1086  0.0551
   46MOL0     C 5959   0.880   7.927   7.488 -0.5823  0.6742  0.3747
   46MOL0     C 5960   0.753   7.875   7.427 -0.8149 -0.7868 -0.9675
   46MOL0     C 5961   0.684   7.783   7.523  1.0102  0.2653  0.3004
   46MOL0     C 5962   0.566   7.718   7.449 -0.3473  0.3551 -0.3803
   46MOL0     C 5963   0.503   7.635   7.558  0.1151 -0.3811  0.6841
   46MOL0     O 5964   0.377   7.591   7.501 -0.4898  0.4520  0.3233
   46MOL0     C 5965   0.284   7.531   7.589 -0.5889 -0.4980  0.1593
   46MOL0     C 5966   0.154   7.558   7.559  0.8123  0.1931 -1.0019
   46MOL0     C 5967   0.062   7.543   7.662 -0.3167 -0.4535 -0.2797
   46MOL0     C 5968   0.096   7.493   7.786  0.1989  0.6609 -0.5610
   46MOL0     C 5969   0.000   7.497   7.897 -0.2923  0.0654 -0.9753
   46MOL0     O 5970  -0.117   7.565   7.872  0.9375  0.3360  0.5143
   46MOL0     C 5971  -0.226   7.578   7.954  0.2613  0.5841 -0.4727
   46MOL0     C 5972  -0.354   7.610   7.894  0.0857  0.1323 -0.5302
   46MOL0     C 5973  -0.469   7.621   7.977  0.4186 -0.2781 -0.2833
   46MOL0     C 5974  -0.461   7.620   8.114 -0.0121  0.2409  0.1842
   46MOL0     O 5975  -0.573   7.655   8.197 -0.1261 -0.3698 -0.0355
   46MOL0     C 5976  -0.690   7.716   8.144 -0.3819  0.8710  0.0255
   46MOL0     C 5977  -0.785   7.752   8.257 -0.2806 -0.3227  0.5610
   46MOL0     C 5978  -0.814   7.632   8.353  0.0379 -0.1577  0.1321
   46MOL0     C 5979  -0.912   7.675   8.470  0.5744 -0.2941  0.3763
   46MOL0     C 5980  -1.038   7.758   8.433 -0.1570 -0.1063 -0.4870
   46MOL0     C 5981  -1.111   7.805   8.561 -0.9586 -0.1611  0.9377
   46MOL0     C 5982  -1.248   7.864   8.522 -1.3646  0.9632  0.0244
   46MOL0     C 5983  -1.320   7.906   8.649  0.7107 -0.4617 -0.2324
   46MOL0    Cl 5984  -1.221   8.026   8.742  0.0339 -0.0280 -0.0883
   46MOL0     C 5985  -0.335   7.600   8.170 -0.6473 -0.5614 -0.3793
   46MOL0     C 5986  -0.220   7.580   8.096 -0.0138 -0.8456 -1.0961
   46MOL0     O 5987   0.019   7.427   8.002  0.1380 -0.3939  1.2271
   46MOL0     C 5988   0.228   7.439   7.806 -0.5624 -0.6740 -0.6913
   46MOL0     C 5989   0.321   7.474   7.711 -0.1137 -0.5382  0.0998
   46MOL0     N 5990   0.915   7.943   7.629  0.0418  0.2757 -0.0226
   46MOL0     N 5991   1.038   7.970   7.629 -0.4134  0.2566 -0.5977
   46MOL0     C 5992   2.213   8.448   7.571  0.1661 -0.1454  0.3866
   46MOL0     C 5993   2.311   8.491   7.658 -0.8196  0.9777 -0.8447
   46MOL0     C 5994   2.534   8.576   8.060 -0.6026 -0.0511  0.0343
   46MOL0     C 5995   2.551   8.572   8.205 -0.7832  0.1250 -0.2647
   46MOL0     C 5996   2.655   8.648   8.262  0.2460  0.2659 -0.3644
   46MOL0     C 5997   2.731   8.746   8.193  0.3174  0.1559 -0.8952
   46MOL0     O 5998   2.819   8.819   8.268  0.0705 -0.1112 -0.3756
   46MOL0     C 5999   2.923   8.897   8.201 -0.0621 -0.5093 -0.4087
   46MOL0     C 6000   3.040   8.923   8.295  0.2478 -0.4723 -0.0610
   46MOL0     C 6001   3.166   8.948   8.219  0.9519  0.5201  0.1182
   46MOL0     C 6002   3.283   8.967   8.318  0.0037 -0.5683  0.1538
   46MOL0     C 6003   3.393   8.999   8.230 -0.2936 -0.2353 -0.5903
   46MOL0     C 6004   3.476   9.046   8.156 -0.2177  0.5315  0.5808
   46MOL0     C 6005   2.692   8.764   8.056  0.1698  0.3758  0.2607
   46MOL0     C 6006   2.602   8.678   7.991 -0.1096  0.1623  1.1633
   46MOL0     H 6007   2.174   8.449   7.958  2.7231  0.2584  0.0762
   46MOL0     H 6008   1.994   8.329   7.814  0.9286 -1.4348  0.7799
   46MOL0     H 6009   1.805   8.375   7.620 -0.1456 -0.6008  1.0150
   46MOL0     H 6010   1.875   8.217   7.602  1.4385  0.0242  0.8218
   46MOL0     H 6011   1.862   8.238   7.348 -0.6433  0.2967 -1.2217
   46MOL0     H 6012   1.779   8.393   7.357 -1.1523 -0.1288  0.5039
   46MOL0     H 6013   1.599   8.304   7.492 -1.3817 -0.9052  0.1862
   46MOL0     H 6014   1.675   8.152   7.503 -1.2354 -0.0889  0.2224
   46MOL0     H 6015   1.578   8.286   7.260  2.6004 -0.1241 -1.1096
   46MOL0     H 6016   1.654   8.118   7.257 -2.3358 -2.4339  1.9374
   46MOL0     H 6017   1.488   8.040   7.423  1.4459 -0.2267 -0.6274
   46MOL0     H 6018   1.405   8.081   7.267 -0.5381 -1.6542  1.5111
   46MOL0     H 6019   1.368   8.315   7.372  0.4667  0.3974  1.4305
   46MOL0     H 6020   1.396   8.239   7.519 -1.4472 -1.4601  1.3390
   46MOL0     H 6021   1.169   8.226   7.508  1.0917 -0.1187 -0.3099
   46MOL0     H 6022   1.169   8.188   7.340 -0.6743  0.6609 -0.3370
   46MOL0     H 6023   1.288   7.989   7.564 -0.2184 -0.0599 -0.0727
   46MOL0     H 6024   1.252   7.966   7.386  0.9161  0.8738  0.0143
   46MOL0     H 6025   0.992   7.935   7.305 -1.1587  0.0118 -0.0032
   46MOL0     H 6026   0.784   7.814   7.342  0.7287  0.4876 -1.3733
   46MOL0     H 6027   0.692   7.957   7.389  0.6111  0.0962 -1.4073
   46MOL0     H 6028   0.641   7.834   7.609  0.0022  1.6070 -0.9350
   46MOL0     H 6029   0.753   7.710   7.566  1.7810  0.4293 -0.6220
   46MOL0     H 6030   0.496   7.794   7.411 -2.5464 -2.1193 -1.6192
   46MOL0     H 6031   0.605   7.657   7.368 -1.4483 -1.4003  0.3597
   46MOL0     H 6032   0.483   7.690   7.650 -1.2423 -0.7796  0.6406
   46MOL0     H 6033   0.564   7.547   7.578 -1.2636 -1.4465  0.3264
   46MOL0     H 6034   0.128   7.604   7.464 -0.0005  2.9484  0.4493
   46MOL0     H 6035  -0.031   7.595   7.640 -1.7411 -2.0286  1.6536
   46MOL0     H 6036  -0.352   7.613   7.785  1.1117 -1.1365 -0.5729
   46MOL0     H 6037  -0.568   7.622   7.934 -0.6585 -0.6452  2.0587
   46MOL0     H 6038  -0.731   7.652   8.066  0.1933 -0.5132  0.8163
   46MOL0     H 6039  -0.660   7.806   8.089 -1.0394 -0.2979 -2.3611
   46MOL0     H 6040  -0.880   7.784   8.212 -0.0352 -1.9370 -1.2622
   46MOL0     H 6041  -0.737   7.830   8.316  1.3788 -0.4252 -0.5729
   46MOL0     H 6042  -0.721   7.592   8.394  0.3005 -1.6712 -1.7925
   46MOL0     H 6043  -0.856   7.550   8.293  0.6801  0.5521 -1.3367
   46MOL0     H 6044  -0.942   7.589   8.531  2.5513 -0.0007  1.8546
   46MOL0     H 6045  -0.860   7.748   8.534 -1.0917  3.0639 -1.8170
   46MOL0     H 6046  -1.105   7.693   8.376  0.3269 -0.6618 -0.4380
   46MOL0     H 6047  -1.014   7.840   8.364 -0.2618  0.9238  0.6581
   46MOL0     H 6048  -1.047   7.868   8.624 -0.9036 -0.1308  0.8537
   46MOL0     H 6049  -1.126   7.714   8.619  1.2888 -1.2500 -0.0251
   46MOL0     H 6050  -1.238   7.955   8.461 -0.5849  1.2704  0.5889
   46MOL0     H 6051  -1.309   7.785   8.477 -0.0388  0.1559 -0.4290
   46MOL0     H 6052  -1.343   7.818   8.710 -0.5776  1.4968  2.3062
   46MOL0     H 6053  -1.409   7.962   8.618 -1.1550 -2.3400  1.3349
   46MOL0     H 6054  -0.323   7.602   8.278 -2.6129  1.4828 -0.1287
   46MOL0     H 6055  -0.130   7.571   8.155 -1.6228  1.2238  1.9376
   46MOL0     H 6056   0.252   7.391   7.900  0.6948  0.7148 -0.2521
   46MOL0     H 6057   0.426   7.456   7.731  0.0219  3.1281  4.1051
   46MOL0     H 6058   2.227   8.441   7.463 -0.9163 -0.5890  0.2622
   46MOL0     H 6059   2.395   8.543   7.614 -1.2590  0.6959 -2.0721
   46MOL0     H 6060   2.496   8.499   8.264  2.0556  0.1130  2.5661
   46MOL0     H 6061   2.677   8.634   8.368 -1.3061  0.2053 -0.0187
   46MOL0     H 6062   2.884   8.995   8.172 -2.6673 -0.9823  1.2029
   46MOL0     H 6063   2.959   8.838   8.116 -0.2893 -0.4059 -0.5792
   46MOL0     H 6064   3.006   9.008   8.354 -0.1051 -2.6766  3.1978
   46MOL0     H 6065   3.042   8.835   8.360  2.0295 -0.2516  0.2605
   46MOL0     H 6066   3.154   9.039   8.160 -2.5271  0.7214  0.9203
   46MOL0     H 6067   3.175   8.867   8.146  1.0139 -0.8073  1.5488
   46MOL0     H 6068   3.266   9.048   8.389  1.2877  0.5345 -0.7501
   46MOL0     H 6069   3.324   8.879   8.369 -1.0324 -0.6216  0.9281
   46MOL0     H 6070   3.545   9.082   8.082 -2.3300  0.5437 -1.5175
   46MOL0     H 6071   2.747   8.850   8.018 -0.7326  1.2744  0.9235
   46MOL0     H 6072   2.583   8.684   7.885 -1.0317  1.0021  1.3603
   47MOL0     O 6073   9.783  10.406   7.090  0.7715 -0.7477  0.3403
   47MOL0     C 6074   9.896  10.390   7.043  0.1020  0.0050  0.0390
   47MOL0     O 6075   9.942  10.288   6.961  0.1616  0.3093 -0.0113
   47MOL0     C 6076   9.847  10.202   6.915  1.0173  0.4347 -0.3652
   47MOL0     C 6077   9.790  10.222   6.789  0.4279 -0.8414  0.3923
   47MOL0     C 6078   9.702  10.133   6.742  0.4323  0.0922  0.7260
   47MOL0     C 6079   9.688  10.009   6.807  0.4586  0.5484 -0.5953
   47MOL0     O 6080   9.615   9.904   6.754  0.0394 -0.2378  0.5830
   47MOL0     C 6081   9.473   9.920   6.771  0.2963 -0.2321  0.2320
   47MOL0     C 6082   9.404   9.783   6.736 -0.0089  0.5486  0.2159
   47MOL0     C 6083   9.249   9.802   6.735  0.2166  0.0839 -0.5073
   47MOL0     C 6084   9.184   9.670   6.764  0.5868  0.3705 -0.8247
   47MOL0     C 6085   9.046   9.658   6.704 -0.9786  1.4552 -0.0374
   47MOL0     C 6086   8.979   9.523   6.749 -0.1359 -0.0239 -0.0469
   47MOL0     C 6087   8.831   9.525   6.750 -0.1432  0.3130 -0.8711
   47MOL0     C 6088   8.776   9.573   6.619  0.4000 -0.1365  0.4650
   47MOL0     N 6089   8.627   9.567   6.616 -0.3150  0.0826  0.1840
   47MOL0     C 6090   8.559   9.466   6.674  0.5124  0.1081 -0.4529
   47MOL0     C 6091   8.429   9.511   6.680 -0.2023 -0.0518 -1.0051
   47MOL0     C 6092   8.313   9.425   6.730  0.4895 -0.6610  0.2483
   47MOL0     C 6093   8.238   9.359   6.610  0.8407  1.1590  0.0589
   47MOL0     C 6094   8.324   9.272   6.527  0.2923 -0.1983  0.3447
   47MOL0     C 6095   8.267   9.233   6.389  0.2896  0.3982  0.3790
   47MOL0     O 6096   8.163   9.133   6.394 -0.2334 -0.5025  0.5910
   47MOL0     C 6097   8.030   9.177   6.388  0.6936  0.3492 -0.6386
   47MOL0     C 6098   7.953   9.145   6.498 -0.1766  1.0737 -0.3029
   47MOL0     C 6099   7.822   9.194   6.513  0.0526 -0.3689  1.0061
   47MOL0     C 6100   7.765   9.273   6.412 -0.4138 -0.3226  0.9824
   47MOL0     C 6101   7.626   9.332   6.426  0.1521  0.3671  1.1095
   47MOL0     O 6102   7.578   9.321   6.554 -0.8640 -0.1833  0.5260
   47MOL0     C 6103   7.450   9.356   6.570  0.3025 -0.5198 -0.3577
   47MOL0     C 6104   7.421   9.491   6.598 -0.9609 -0.0599  0.4972
   47MOL0     C 6105   7.290   9.536   6.603  0.2471 -0.5132 -0.8231
   47MOL0     C 6106   7.187   9.446   6.591  0.7502  0.3826 -0.5102
   47MOL0     O 6107   7.053   9.475   6.612 -0.1946 -0.1532 -0.3090
   47MOL0     C 6108   7.012   9.585   6.688 -0.9305  0.1603  0.0025
   47MOL0     C 6109   6.862   9.613   6.694 -0.3730  0.0002  0.0480
   47MOL0     C 6110   6.798   9.524   6.801  0.0991  0.1812 -0.3760
   47MOL0     C 6111   6.643   9.534   6.799  0.1413  0.7897 -0.0122
   47MOL0     C 6112   6.595   9.471   6.928 -0.0030  0.7120 -0.0948
   47MOL0     C 6113   6.461   9.400   6.900  0.1741  0.0857  0.9168
   47MOL0     C 6114   6.475   9.268   6.830  0.5084 -0.2648 -0.0663
   47MOL0     C 6115   6.339   9.198   6.794  0.1932 -0.0719  0.4490
   47MOL0    Cl 6116   6.240   9.183   6.952 -0.6144  0.1810  0.3030
   47MOL0     C 6117   7.214   9.313   6.576 -0.2033 -0.3022 -0.5489
   47MOL0     C 6118   7.344   9.265   6.559 -0.2748 -0.5826  0.1228
   47MOL0     O 6119   7.566   9.382   6.330  0.7669  0.0869 -0.1616
   47MOL0     C 6120   7.853   9.306   6.302 -0.4427  0.0444  0.0518
   47MOL0     C 6121   7.982   9.258   6.293 -0.2405  0.5036  0.8248
   47MOL0     N 6122   8.432   9.636   6.627 -0.6686 -0.1024  0.0234
   47MOL0     N 6123   8.551   9.672   6.600  0.2914  0.6866  0.4585
   47MOL0     C 6124   9.757   9.983   6.920  0.0247 -0.7055 -0.0991
   47MOL0     C 6125   9.835  10.080   6.981  0.8426 -0.3120 -0.0896
   47MOL0     C 6126   9.990  10.494   7.090 -0.2992 -0.5659  0.5055
   47MOL0     C 6127   9.968  10.606   7.171  0.6216 -0.2584  0.1556
   47MOL0     C 6128  10.072  10.699   7.214  0.0043  0.5883 -0.0173
   47MOL0     C 6129  10.201  10.678   7.168  0.0431 -0.0086  0.3073
   47MOL0     O 6130  10.300  10.764   7.211  0.0623 -0.5593  0.0381
   47MOL0     C 6131  10.282  10.910   7.186 -0.8304  0.3125 -0.4391
   47MOL0     C 6132  10.282  10.934   7.038  0.0519 -0.5208 -0.4204
   47MOL0     C 6133  10.410  10.875   6.969  1.0675 -0.3216 -0.1139
   47MOL0     C 6134  10.431  10.918   6.819 -0.3272  0.0862 -0.0472
   47MOL0     C 6135  10.538  11.014   6.801 -0.2478  0.7066  0.4007
   47MOL0     C 6136  10.626  11.101   6.790  0.3428  1.0766 -0.2251
   47MOL0     C 6137  10.227  10.574   7.079  0.4600  0.3111  0.7238
   47MOL0     C 6138  10.127  10.486   7.040  1.1297  0.0994 -0.1426
   47MOL0     H 6139   9.809  10.315   6.737  0.0485 -2.0715 -2.1139
   47MOL0     H 6140   9.643  10.173   6.660 -1.3709  1.1953  2.4762
   47MOL0     H 6141   9.435  10.000   6.707  2.2896  0.1132 -0.5986
   47MOL0     H 6142   9.445   9.937   6.875  1.1134 -0.9104  0.5702
   47MOL0     H 6143   9.436   9.706   6.807 -1.0541 -2.0413 -1.9254
   47MOL0     H 6144   9.429   9.744   6.637 -1.2560 -0.2175  0.1783
   47MOL0     H 6145   9.217   9.851   6.643 -0.3455  1.8497  0.5661
   47MOL0     H 6146   9.222   9.872   6.816  2.7492  0.0740  0.4522
   47MOL0     H 6147   9.241   9.581   6.736 -0.9241 -0.7027 -0.5890
   47MOL0     H 6148   9.168   9.668   6.872 -0.9623 -1.0716 -1.0398
   47MOL0     H 6149   9.058   9.658   6.595  0.1261 -0.2384  0.0465
   47MOL0     H 6150   8.993   9.749   6.733 -0.1529  2.6809 -2.1593
   47MOL0     H 6151   9.019   9.487   6.845  1.1516 -0.7737 -0.8389
   47MOL0     H 6152   9.009   9.448   6.675 -3.0326  0.3884 -1.8079
   47MOL0     H 6153   8.812   9.419   6.768  0.0172  0.1075 -1.8352
   47MOL0     H 6154   8.811   9.577   6.844 -0.8651 -1.0504 -0.2440
   47MOL0     H 6155   8.815   9.519   6.532  1.7323 -0.9285  1.5242
   47MOL0     H 6156   8.801   9.680   6.614 -0.5864  0.0968  0.3824
   47MOL0     H 6157   8.590   9.369   6.711  1.1404 -0.2496 -1.8807
   47MOL0     H 6158   8.253   9.485   6.799  0.8854  2.4246 -1.8881
   47MOL0     H 6159   8.350   9.345   6.795 -0.2658 -0.0081  1.5075
   47MOL0     H 6160   8.198   9.436   6.543 -2.3959  1.2395  1.8829
   47MOL0     H 6161   8.158   9.297   6.652  0.7933  1.6263  0.6750
   47MOL0     H 6162   8.421   9.315   6.503  1.2040 -2.4894 -0.3135
   47MOL0     H 6163   8.342   9.179   6.582 -0.2604 -0.8861 -0.6027
   47MOL0     H 6164   8.355   9.197   6.335 -0.7153  1.6596 -2.3026
   47MOL0     H 6165   8.225   9.317   6.333  1.7843  1.1073  0.2757
   47MOL0     H 6166   8.001   9.093   6.581 -0.0288  0.9405 -0.4679
   47MOL0     H 6167   7.772   9.164   6.604  0.1339 -0.2019  1.1065
   47MOL0     H 6168   7.501   9.561   6.614 -1.7218  1.3154 -1.3601
   47MOL0     H 6169   7.278   9.642   6.622 -1.0596 -0.4878 -1.6740
   47MOL0     H 6170   7.054   9.671   6.635  2.4317 -2.1682 -1.4838
   47MOL0     H 6171   7.047   9.575   6.791  0.7329 -0.6948 -0.5981
   47MOL0     H 6172   6.817   9.593   6.596 -0.6002 -1.7382  0.4700
   47MOL0     H 6173   6.838   9.716   6.719 -0.3101 -0.0481  0.3127
   47MOL0     H 6174   6.840   9.563   6.895  1.3300 -0.0261 -0.8216
   47MOL0     H 6175   6.822   9.417   6.796 -0.0778  0.1365 -0.2967
   47MOL0     H 6176   6.602   9.633   6.775  0.2721  0.8368 -0.0401
   47MOL0     H 6177   6.620   9.483   6.705  1.7080  2.3026 -1.2788
   47MOL0     H 6178   6.580   9.549   7.003  0.0760  0.8616 -0.2368
   47MOL0     H 6179   6.670   9.399   6.962  0.0536 -0.0140 -1.6780
   47MOL0     H 6180   6.387   9.465   6.852 -0.8616 -2.2713 -0.8646
   47MOL0     H 6181   6.412   9.381   6.996  1.5112 -0.8128  1.4527
   47MOL0     H 6182   6.516   9.296   6.732 -2.6679  0.7049 -1.2686
   47MOL0     H 6183   6.538   9.205   6.892  0.5689  1.8270  2.1352
   47MOL0     H 6184   6.362   9.103   6.745  2.7490  0.6659  0.0816
   47MOL0     H 6185   6.271   9.260   6.734  0.1418  0.7802  1.3562
   47MOL0     H 6186   7.127   9.248   6.565 -0.6137  0.1692 -0.1369
   47MOL0     H 6187   7.371   9.162   6.545  3.1233 -0.0730  1.9202
   47MOL0     H 6188   7.809   9.363   6.220 -1.1431  0.7416  0.8903
   47MOL0     H 6189   8.051   9.273   6.211 -1.1419 -3.9624 -1.0175
   47MOL0     H 6190   9.749   9.882   6.961  2.0643 -1.7512 -2.0889
   47MOL0     H 6191   9.885  10.064   7.075 -1.0522 -0.9379  0.8678
   47MOL0     H 6192   9.866  10.631   7.197  1.0012 -1.5963  3.2703
   47MOL0     H 6193  10.066  10.782   7.283  0.8555 -1.0064  2.0983
   47MOL0     H 6194  10.369  10.963   7.226 -0.7847 -0.9740  1.2841
   47MOL0     H 6195  10.194  10.964   7.223  0.2131  1.8374 -0.0635
   47MOL0     H 6196  10.198  10.887   6.986  0.3774 -0.4575 -1.0150
   47MOL0     H 6197  10.292  11.041   7.020 -0.7896 -0.6513 -1.7826
   47MOL0     H 6198  10.411  10.766   6.978  1.9064 -0.2118  1.4220
   47MOL0     H 6199  10.494  10.908   7.031 -0.5454  0.7019  1.6145
   47MOL0     H 6200  10.435  10.828   6.757  0.5642  0.5275 -0.6616
   47MOL0     H 6201  10.339  10.966   6.784 -1.0526 -1.8962 -0.9840
   47MOL0     H 6202  10.689  11.186   6.777  2.1062 -0.2605 -0.7970
   47MOL0     H 6203  10.325  10.550   7.038 -0.0477 -1.0981  0.2426
   47MOL0     H 6204  10.153  10.395   6.988  0.5146 -0.3152  0.2671
   48MOL0     O 6205   8.322   4.554   4.273 -0.4323 -0.0221 -0.2617
   48MOL0     C 6206   8.267   4.579   4.376  0.0958  0.2849 -0.2348
   48MOL0     O 6207   8.322   4.662   4.468 -0.0086 -0.3326  0.1454
   48MOL0     C 6208   8.451   4.715   4.435 -0.1877 -0.2634 -1.1153
   48MOL0     C 6209   8.453   4.825   4.355  0.4423  0.1756 -0.8288
   48MOL0     C 6210   8.580   4.879   4.321 -0.4068  0.1854  0.2145
   48MOL0     C 6211   8.698   4.831   4.378  0.3961 -0.9114  0.3929
   48MOL0     O 6212   8.810   4.896   4.344 -0.1129 -0.1734 -0.2079
   48MOL0     C 6213   8.935   4.866   4.407 -0.3350  0.2330  0.7432
   48MOL0     C 6214   9.033   4.965   4.358 -0.6322 -0.3928 -0.1205
   48MOL0     C 6215   9.176   4.955   4.427  0.5949 -0.0090 -0.3335
   48MOL0     C 6216   9.279   5.053   4.368  0.3827 -1.3217  0.2125
   48MOL0     C 6217   9.409   5.027   4.439 -0.0917 -0.5185 -0.1583
   48MOL0     C 6218   9.507   5.132   4.398  0.6175 -0.4139  0.0330
   48MOL0     C 6219   9.645   5.076   4.386  0.0885  1.0801 -0.4897
   48MOL0     C 6220   9.745   5.175   4.310  0.1070 -0.6941 -0.7681
   48MOL0     N 6221   9.795   5.297   4.384 -0.6783  0.5560  0.2575
   48MOL0     C 6222   9.815   5.297   4.516 -0.1189 -0.2570 -0.1416
   48MOL0     C 6223   9.840   5.425   4.556  0.6944  0.8756 -0.2045
   48MOL0     C 6224   9.869   5.478   4.698 -0.6871  0.0100  0.2490
   48MOL0     C 6225   9.750   5.457   4.782  0.1004 -0.4247 -0.0414
   48MOL0     C 6226   9.658   5.573   4.781  0.7607  0.0580  0.0438
   48MOL0     C 6227   9.563   5.569   4.664  0.1462  0.1127 -0.4380
   48MOL0     O 6228   9.486   5.448   4.647  0.5381  0.2518 -0.6020
   48MOL0     C 6229   9.378   5.432   4.730 -0.1791  0.3978 -0.1673
   48MOL0     C 6230   9.313   5.523   4.816  0.0920  0.4756 -0.0549
   48MOL0     C 6231   9.208   5.486   4.890 -0.1068 -0.3919 -0.8767
   48MOL0     C 6232   9.167   5.350   4.896  0.1125 -0.1307  0.2134
   48MOL0     C 6233   9.049   5.319   4.986 -0.4961 -0.0356 -0.4941
   48MOL0     O 6234   8.982   5.207   4.962 -0.1103 -0.2611 -0.4245
   48MOL0     C 6235   8.871   5.160   5.031  1.0807 -0.0752  0.1502
   48MOL0     C 6236   8.819   5.037   4.981 -0.2744  0.1364  0.5369
   48MOL0     C 6237   8.690   4.999   5.022  0.0266  0.5562  0.8094
   48MOL0     C 6238   8.620   5.067   5.113  0.8862  0.0944 -0.8287
   48MOL0     O 6239   8.489   5.017   5.140 -0.4515  0.5620  0.2506
   48MOL0     C 6240   8.461   5.025   5.283 -0.2701 -0.2131 -0.7460
   48MOL0     C 6241   8.354   4.921   5.320 -0.7792 -0.1439 -0.3214
   48MOL0     C 6242   8.217   4.944   5.258 -0.4430  1.0618  0.0158
   48MOL0     C 6243   8.128   4.826   5.268 -0.1990  0.1486  0.2479
   48MOL0     C 6244   7.982   4.850   5.243  0.0114  0.5865 -0.2395
   48MOL0     C 6245   7.883   4.743   5.294  0.0649  0.6886  0.1087
   48MOL0     C 6246   7.745   4.778   5.227 -0.4285  0.5221 -0.6714
   48MOL0     C 6247   7.624   4.697   5.285  0.2263  0.5875 -0.1068
   48MOL0    Cl 6248   7.476   4.735   5.187 -0.1073 -0.0764 -0.2382
   48MOL0     C 6249   8.675   5.187   5.169 -0.1795  0.1852 -0.8158
   48MOL0     C 6250   8.792   5.230   5.120 -0.2181  0.4070 -0.3723
   48MOL0     O 6251   9.027   5.394   5.086 -0.5789 -0.0114 -0.2475
   48MOL0     C 6252   9.226   5.258   4.804 -0.2647 -0.4954  0.1243
   48MOL0     C 6253   9.327   5.303   4.723  0.3000 -0.5601 -0.3215
   48MOL0     N 6254   9.828   5.503   4.442  1.0270  0.1825  0.3033
   48MOL0     N 6255   9.806   5.423   4.339 -0.1039  0.4678 -0.0297
   48MOL0     C 6256   8.690   4.729   4.469  0.2993  0.3979 -1.0262
   48MOL0     C 6257   8.567   4.676   4.506  0.0582 -0.8984 -1.1504
   48MOL0     C 6258   8.138   4.522   4.405  0.4395 -0.4753  0.0364
   48MOL0     C 6259   8.079   4.546   4.533 -0.1043 -0.3079 -0.2545
   48MOL0     C 6260   7.945   4.503   4.554 -0.3658  0.1953  0.7356
   48MOL0     C 6261   7.871   4.431   4.460 -0.1057  0.0222  1.0096
   48MOL0     O 6262   7.742   4.393   4.471  0.1929  0.2105 -0.2764
   48MOL0     C 6263   7.688   4.334   4.593 -0.8000  0.5410  0.4863
   48MOL0     C 6264   7.564   4.265   4.558  0.1414 -0.4884 -0.2863
   48MOL0     C 6265   7.589   4.142   4.492  0.3875  0.2742 -0.0421
   48MOL0     C 6266   7.465   4.072   4.439 -0.2564  0.5052  0.4806
   48MOL0     C 6267   7.371   4.016   4.539  0.0205  0.1601 -0.0764
   48MOL0     C 6268   7.298   3.985   4.629 -0.1174  0.4638 -0.2151
   48MOL0     C 6269   7.932   4.404   4.333 -0.3586 -0.0994 -0.1536
   48MOL0     C 6270   8.066   4.458   4.301  0.0494  0.2756  1.1671
   48MOL0     H 6271   8.359   4.862   4.314  1.1989  0.8176 -2.0206
   48MOL0     H 6272   8.591   4.966   4.256 -1.5954 -0.9355 -1.5536
   48MOL0     H 6273   8.962   4.766   4.372 -3.7812 -0.4633 -0.3166
   48MOL0     H 6274   8.935   4.875   4.516  1.1222 -1.5068  0.9383
   48MOL0     H 6275   8.990   5.065   4.362 -0.5670 -0.3064 -1.2246
   48MOL0     H 6276   9.057   4.953   4.251  0.1018  1.4712 -0.2031
   48MOL0     H 6277   9.209   4.853   4.410  0.7555  0.2686 -1.7667
   48MOL0     H 6278   9.165   4.969   4.536 -0.8415 -0.5925 -0.3757
   48MOL0     H 6279   9.290   5.047   4.260 -0.6874  0.1516 -0.0098
   48MOL0     H 6280   9.240   5.154   4.379 -3.9637 -2.4637 -2.1484
   48MOL0     H 6281   9.445   4.931   4.400 -0.3086 -0.7215  0.1284
   48MOL0     H 6282   9.405   5.019   4.548  0.0658 -0.3239 -0.1394
   48MOL0     H 6283   9.511   5.212   4.472 -0.4118 -1.7615  1.6146
   48MOL0     H 6284   9.470   5.173   4.304 -0.2519 -2.2172 -0.4650
   48MOL0     H 6285   9.681   5.046   4.485 -1.2029 -0.0725 -0.3383
   48MOL0     H 6286   9.639   4.994   4.314  1.4288  1.0298 -0.5657
   48MOL0     H 6287   9.711   5.196   4.208  1.6340  2.6892 -0.7049
   48MOL0     H 6288   9.838   5.120   4.295  0.2243 -1.0950  1.1805
   48MOL0     H 6289   9.820   5.213   4.584  0.7363  0.6692  1.0056
   48MOL0     H 6290   9.894   5.584   4.691 -0.3207 -0.1074 -0.2794
   48MOL0     H 6291   9.957   5.423   4.734 -1.5529 -3.3506 -2.2358
   48MOL0     H 6292   9.789   5.437   4.882  0.7680 -0.6947 -0.3473
   48MOL0     H 6293   9.700   5.364   4.753 -1.2916  0.2941  0.0142
   48MOL0     H 6294   9.605   5.560   4.876 -0.9063  0.5315 -0.7792
   48MOL0     H 6295   9.718   5.663   4.771  0.9053 -0.1390 -1.0477
   48MOL0     H 6296   9.620   5.588   4.572 -1.2599  1.6429 -1.0523
   48MOL0     H 6297   9.494   5.655   4.663 -3.5004 -2.5564 -0.8573
   48MOL0     H 6298   9.344   5.626   4.808 -3.9815  1.7236 -2.2300
   48MOL0     H 6299   9.166   5.562   4.956 -1.8208  0.1180 -2.4722
   48MOL0     H 6300   8.865   4.981   4.900 -0.3628  0.5355  0.2084
   48MOL0     H 6301   8.645   4.910   4.980  0.1869 -0.6475  3.0107
   48MOL0     H 6302   8.431   5.127   5.308 -0.0534  0.1295 -1.8176
   48MOL0     H 6303   8.556   4.999   5.331  1.1048  0.9207 -2.7196
   48MOL0     H 6304   8.347   4.918   5.429  0.5253  1.1869 -0.1822
   48MOL0     H 6305   8.390   4.823   5.285 -0.3114  0.5086 -1.7460
   48MOL0     H 6306   8.215   4.989   5.159 -1.9065  1.8927  0.3955
   48MOL0     H 6307   8.171   5.022   5.319  2.3924 -0.2445  4.2805
   48MOL0     H 6308   8.168   4.744   5.208  1.2291  0.2148  1.0694
   48MOL0     H 6309   8.130   4.796   5.373  0.3251  1.7347  0.7328
   48MOL0     H 6310   7.960   4.856   5.136  0.5387 -5.3948 -1.0071
   48MOL0     H 6311   7.950   4.949   5.279  4.3088  3.1477 -2.6056
   48MOL0     H 6312   7.863   4.745   5.401  0.9555 -0.2586  0.3052
   48MOL0     H 6313   7.924   4.647   5.262  0.3064  1.1801 -1.1316
   48MOL0     H 6314   7.724   4.884   5.245  0.7888  0.8623 -1.0898
   48MOL0     H 6315   7.756   4.766   5.119  0.1259  1.6573 -0.7618
   48MOL0     H 6316   7.606   4.731   5.388 -3.0737 -0.8994 -0.0643
   48MOL0     H 6317   7.641   4.589   5.287  0.7793  0.6585  2.3146
   48MOL0     H 6318   8.619   5.240   5.245 -0.5774 -0.0343 -0.9506
   48MOL0     H 6319   8.814   5.334   5.142 -1.1387  0.6525 -0.5884
   48MOL0     H 6320   9.194   5.155   4.789  0.2131 -0.4797 -1.1185
   48MOL0     H 6321   9.365   5.232   4.651 -2.0362 -1.3967 -0.8149
   48MOL0     H 6322   8.779   4.681   4.508 -0.0765  0.4839 -0.0216
   48MOL0     H 6323   8.550   4.599   4.580 -0.0843 -1.2206 -1.5137
   48MOL0     H 6324   8.124   4.603   4.613  1.5352 -2.5915  0.5409
   48MOL0     H 6325   7.914   4.528   4.655 -0.0475  1.3802  0.5618
   48MOL0     H 6326   7.679   4.419   4.661 -2.2108  2.0715 -1.5045
   48MOL0     H 6327   7.757   4.258   4.630 -1.3292 -1.2762 -2.0113
   48MOL0     H 6328   7.502   4.241   4.645 -2.8353 -1.7880 -2.5853
   48MOL0     H 6329   7.509   4.327   4.487 -1.4428 -3.4843 -1.8663
   48MOL0     H 6330   7.644   4.072   4.557  1.8911  1.0800 -0.4236
   48MOL0     H 6331   7.658   4.153   4.409  0.4510 -1.2755 -0.2372
   48MOL0     H 6332   7.410   4.129   4.364 -1.6537  0.5313  1.4710
   48MOL0     H 6333   7.502   3.984   4.385 -3.4231 -0.7580  0.1303
   48MOL0     H 6334   7.244   3.953   4.716  1.6831  0.4690  0.9472
   48MOL0     H 6335   7.873   4.352   4.258  1.4743  0.6024 -2.2051
   48MOL0     H 6336   8.119   4.430   4.211  1.3825  1.6230  1.4795
   49MOL0     O 6337   4.274   9.631   3.963 -0.0762  0.3774 -0.6328
   49MOL0     C 6338   4.341   9.526   3.947 -0.6458 -0.1360  0.3647
   49MOL0     O 6339   4.295   9.420   3.883 -0.0292  0.2547  0.1031
   49MOL0     C 6340   4.155   9.409   3.857  0.0765  0.5625 -0.7291
   49MOL0     C 6341   4.064   9.404   3.962 -0.0421 -0.2414  0.2632
   49MOL0     C 6342   3.933   9.371   3.946 -0.3868 -0.0047 -0.3070
   49MOL0     C 6343   3.884   9.355   3.813  0.8442 -0.0590 -0.0327
   49MOL0     O 6344   3.750   9.324   3.786  0.5465  0.0756  0.0672
   49MOL0     C 6345   3.656   9.360   3.880 -0.2340  0.9918  0.7480
   49MOL0     C 6346   3.527   9.380   3.814 -0.3617 -0.2188  0.3851
   49MOL0     C 6347   3.468   9.264   3.738 -1.1034  0.4260  0.2002
   49MOL0     C 6348   3.346   9.323   3.664  0.5239  0.4022 -0.2789
   49MOL0     C 6349   3.301   9.249   3.541 -1.1340  0.0069  0.6479
   49MOL0     C 6350   3.179   9.298   3.464  0.0455  0.0927 -0.7768
   49MOL0     C 6351   3.044   9.297   3.547  0.1049  0.1337 -0.5593
   49MOL0     C 6352   3.022   9.180   3.645  0.2034 -0.1189 -0.3391
   49MOL0     N 6353   2.917   9.226   3.732  0.3369 -0.2054 -0.1696
   49MOL0     C 6354   2.788   9.241   3.691  0.9970 -0.9683 -0.3925
   49MOL0     C 6355   2.706   9.238   3.801  0.3929 -0.0280  1.0175
   49MOL0     C 6356   2.557   9.224   3.818  0.3567 -0.4009  0.0723
   49MOL0     C 6357   2.464   9.338   3.785 -0.1096 -0.1793  0.6017
   49MOL0     C 6358   2.504   9.471   3.858 -0.6788  0.9877 -0.1454
   49MOL0     C 6359   2.456   9.608   3.803 -0.2534  0.1112  0.6737
   49MOL0     O 6360   2.526   9.628   3.678 -0.2643  0.1985 -0.1056
   49MOL0     C 6361   2.663   9.648   3.670  0.6345 -0.8056  0.1703
   49MOL0     C 6362   2.725   9.607   3.556 -0.8674 -1.4597  0.3435
   49MOL0     C 6363   2.866   9.615   3.539  0.2049  0.8806 -0.4405
   49MOL0     C 6364   2.939   9.680   3.641 -0.3240 -0.3627 -0.3620
   49MOL0     C 6365   3.080   9.701   3.617  0.5633 -0.3139  1.2305
   49MOL0     O 6366   3.148   9.758   3.726  0.8829 -0.1416  0.2072
   49MOL0     C 6367   3.289   9.763   3.728  0.3794  0.0630  0.2464
   49MOL0     C 6368   3.353   9.849   3.637 -0.0626  0.5992  0.3510
   49MOL0     C 6369   3.487   9.878   3.643  0.7617  0.2545  0.2334
   49MOL0     C 6370   3.570   9.823   3.748  0.1855 -0.2170 -0.9367
   49MOL0     O 6371   3.702   9.846   3.730  0.7355 -0.9173 -0.4889
   49MOL0     C 6372   3.792   9.825   3.842 -0.4681  0.3311 -0.0197
   49MOL0     C 6373   3.897   9.931   3.832 -0.0002  0.3551 -0.9241
   49MOL0     C 6374   3.997   9.907   3.941 -0.4469  0.1008  0.0832
   49MOL0     C 6375   4.094  10.021   3.968  0.3540 -0.1493 -0.2717
   49MOL0     C 6376   4.182  10.000   4.096 -0.5745  0.4138 -0.0893
   49MOL0     C 6377   4.273  10.122   4.117 -0.2150 -0.2475  0.1176
   49MOL0     C 6378   4.374  10.099   4.230  0.6565 -0.0792 -1.4052
   49MOL0     C 6379   4.488  10.205   4.246  0.5826  0.3849  0.1122
   49MOL0    Cl 6380   4.595  10.143   4.372  0.3176  0.1452 -0.0525
   49MOL0     C 6381   3.500   9.747   3.857  0.0002 -0.1622  0.5069
   49MOL0     C 6382   3.359   9.721   3.846 -0.2529  0.1851  0.8701
   49MOL0     O 6383   3.122   9.673   3.508 -0.5254  0.2187  0.5327
   49MOL0     C 6384   2.879   9.722   3.759  0.1378  0.3531 -0.4549
   49MOL0     C 6385   2.742   9.703   3.772  0.1986 -0.4402 -0.2770
   49MOL0     N 6386   2.794   9.245   3.905 -0.0518 -0.3852  0.5648
   49MOL0     N 6387   2.914   9.222   3.873  0.7822  0.6610  0.6270
   49MOL0     C 6388   3.973   9.362   3.707 -0.4100  0.5372  0.4025
   49MOL0     C 6389   4.113   9.378   3.729 -0.0295  0.0206  0.2428
   49MOL0     C 6390   4.477   9.521   4.009  0.4104  0.3349  0.0583
   49MOL0     C 6391   4.530   9.629   4.081  0.4057 -0.5803  0.6176
   49MOL0     C 6392   4.656   9.622   4.127 -1.2359 -0.3845  0.5081
   49MOL0     C 6393   4.744   9.511   4.117  0.8150 -0.0360 -0.0973
   49MOL0     O 6394   4.874   9.514   4.166  0.6183  0.0299 -0.5072
   49MOL0     C 6395   4.961   9.407   4.153  0.0884 -0.4262 -0.2739
   49MOL0     C 6396   5.104   9.438   4.209  0.3283  0.5584 -0.3149
   49MOL0     C 6397   5.223   9.361   4.152 -0.0602  0.3722 -0.4614
   49MOL0     C 6398   5.276   9.412   4.016  0.2809  1.1848  0.6257
   49MOL0     C 6399   5.410   9.351   3.993  0.5406 -0.6633 -0.3109
   49MOL0     C 6400   5.524   9.310   3.986  0.1638  0.3442  0.1726
   49MOL0     C 6401   4.687   9.404   4.048  0.1811  0.6300 -0.0333
   49MOL0     C 6402   4.556   9.402   4.008 -0.1938  0.1291  0.3297
   49MOL0     H 6403   4.087   9.417   4.067  0.0383 -0.2607  0.2479
   49MOL0     H 6404   3.878   9.352   4.037  0.7372 -1.6965  0.0729
   49MOL0     H 6405   3.692   9.457   3.915  1.2836  1.4598 -1.8162
   49MOL0     H 6406   3.634   9.285   3.956 -1.9317  1.5438  0.8433
   49MOL0     H 6407   3.542   9.463   3.744  2.6200 -1.3299 -0.4428
   49MOL0     H 6408   3.461   9.412   3.896  0.4587 -0.8489  1.3015
   49MOL0     H 6409   3.443   9.181   3.806 -3.0156 -1.0854 -2.1754
   49MOL0     H 6410   3.549   9.231   3.672  0.8614 -0.2401  2.7856
   49MOL0     H 6411   3.264   9.335   3.735 -0.9680 -0.7559 -1.7593
   49MOL0     H 6412   3.366   9.420   3.618  2.2723 -1.1737 -3.1221
   49MOL0     H 6413   3.282   9.144   3.567 -2.0155  0.2630  1.0695
   49MOL0     H 6414   3.386   9.247   3.472 -1.3171 -1.4542  0.4116
   49MOL0     H 6415   3.163   9.239   3.373  2.2026 -0.3612 -0.9010
   49MOL0     H 6416   3.202   9.398   3.426 -1.2653  0.6265 -0.2397
   49MOL0     H 6417   3.053   9.388   3.608  1.0080 -1.0689  1.1739
   49MOL0     H 6418   2.956   9.307   3.483 -0.9703 -4.0822 -0.0408
   49MOL0     H 6419   3.113   9.158   3.702  0.2808  0.1523 -0.3556
   49MOL0     H 6420   2.995   9.090   3.589 -1.1053  0.6976 -1.0639
   49MOL0     H 6421   2.755   9.238   3.588 -2.8558  1.7047  0.5412
   49MOL0     H 6422   2.549   9.193   3.923 -0.1926  0.9807  0.4525
   49MOL0     H 6423   2.524   9.143   3.751 -0.9562  0.1171  0.0578
   49MOL0     H 6424   2.356   9.324   3.797 -0.4712  0.1076 -1.8284
   49MOL0     H 6425   2.471   9.347   3.676 -2.5606 -1.0615  0.2918
   49MOL0     H 6426   2.465   9.461   3.960  2.1349  0.4879  0.9696
   49MOL0     H 6427   2.613   9.478   3.867 -0.7433  2.6796 -0.3545
   49MOL0     H 6428   2.474   9.692   3.870  0.3714 -0.8866  1.7878
   49MOL0     H 6429   2.351   9.591   3.778  0.0116 -0.6605  0.0345
   49MOL0     H 6430   2.663   9.551   3.487  0.2755 -1.0059 -1.1192
   49MOL0     H 6431   2.910   9.571   3.450 -2.3324  0.4000 -1.5599
   49MOL0     H 6432   3.301   9.895   3.554  0.6467 -0.9169 -0.9872
   49MOL0     H 6433   3.543   9.921   3.560  0.0640  2.4257  0.8159
   49MOL0     H 6434   3.838   9.728   3.820  2.9708  1.3731  1.8741
   49MOL0     H 6435   3.737   9.830   3.936 -1.3259  0.3121 -0.5116
   49MOL0     H 6436   3.851  10.028   3.852 -0.6535 -0.2700  0.7712
   49MOL0     H 6437   3.948   9.933   3.735 -0.6730  4.4078 -1.3770
   49MOL0     H 6438   4.064   9.822   3.922 -0.8935 -0.1003 -0.6563
   49MOL0     H 6439   3.947   9.878   4.033 -1.3788  2.0349  0.2539
   49MOL0     H 6440   4.153  10.033   3.877  1.8999 -1.5742  0.4832
   49MOL0     H 6441   4.034  10.109   3.993  1.0133  0.2590 -0.1138
   49MOL0     H 6442   4.234   9.904   4.086 -4.1238 -1.7541  0.3856
   49MOL0     H 6443   4.117  10.001   4.184 -1.5264 -0.8341 -0.7425
   49MOL0     H 6444   4.214  10.213   4.134 -4.9517 -2.8213 -0.5998
   49MOL0     H 6445   4.325  10.132   4.022  0.9462 -2.3794  0.4541
   49MOL0     H 6446   4.318  10.085   4.323  2.2981 -1.0989 -0.5253
   49MOL0     H 6447   4.420  10.004   4.203 -0.0542 -0.2810 -1.9529
   49MOL0     H 6448   4.448  10.305   4.268  0.1541  0.0655  0.8208
   49MOL0     H 6449   4.540  10.207   4.150 -0.4468  1.1537 -0.4548
   49MOL0     H 6450   3.560   9.700   3.934  0.4820 -3.1874 -1.5596
   49MOL0     H 6451   3.311   9.660   3.922 -0.1638 -0.9226  0.0594
   49MOL0     H 6452   2.941   9.765   3.837  2.1714  0.3372 -1.9722
   49MOL0     H 6453   2.695   9.733   3.865 -2.3558 -2.9624 -0.6529
   49MOL0     H 6454   3.944   9.343   3.604  2.1079  0.1779 -0.3231
   49MOL0     H 6455   4.189   9.380   3.651 -0.6501  1.7880 -0.3526
   49MOL0     H 6456   4.474   9.722   4.094 -0.6313 -1.2556  1.0964
   49MOL0     H 6457   4.704   9.708   4.172  0.1985 -0.1463 -1.3498
   49MOL0     H 6458   4.977   9.386   4.047  0.7124 -1.2527 -0.0225
   49MOL0     H 6459   4.923   9.329   4.219  0.0280  2.4594  3.4769
   49MOL0     H 6460   5.116   9.543   4.181  0.3649  0.9637  1.1151
   49MOL0     H 6461   5.109   9.439   4.319  3.2778 -0.6209 -0.3308
   49MOL0     H 6462   5.202   9.253   4.148  1.0511  0.1661 -1.3582
   49MOL0     H 6463   5.298   9.387   4.227 -2.5754  0.2115  2.2707
   49MOL0     H 6464   5.207   9.383   3.937  1.1436 -4.5093  1.5692
   49MOL0     H 6465   5.282   9.522   4.014  0.0296  1.2296 -2.4153
   49MOL0     H 6466   5.619   9.270   3.957 -1.7783 -2.0173 -3.6324
   49MOL0     H 6467   4.756   9.322   4.033 -0.7840  0.0968 -1.8978
   49MOL0     H 6468   4.520   9.313   3.958 -1.2791 -0.9203  2.8225
   50MOL0     O 6469   2.841   7.219   2.582  0.3533 -0.1246  0.3942
   50MOL0     C 6470   2.770   7.132   2.642  0.2872 -0.5838  0.3661
   50MOL0     O 6471   2.810   7.056   2.749 -0.4175 -0.6954 -0.8140
   50MOL0     C 6472   2.943   7.068   2.787  0.0137 -0.2702 -0.5506
   50MOL0     C 6473   3.017   6.949   2.803 -0.2390  0.2190 -1.4131
   50MOL0     C 6474   3.143   6.951   2.864  0.2994 -0.1318 -0.4722
   50MOL0     C 6475   3.198   7.074   2.902 -0.0355 -0.0601 -0.3862
   50MOL0     O 6476   3.323   7.071   2.969  0.1173 -0.2103 -0.2251
   50MOL0     C 6477   3.400   7.192   2.984  0.1054 -0.0153  0.6067
   50MOL0     C 6478   3.528   7.166   3.053  0.4417  0.3220 -0.6242
   50MOL0     C 6479   3.632   7.279   3.029  0.2760  0.7537  0.1771
   50MOL0     C 6480   3.741   7.277   3.133 -0.5081 -0.6184 -0.2018
   50MOL0     C 6481   3.773   7.419   3.169  0.2360 -0.2452  0.8259
   50MOL0     C 6482   3.673   7.484   3.269 -0.3053  0.6504  0.2665
   50MOL0     C 6483   3.723   7.631   3.281 -0.4180  0.5305 -0.4465
   50MOL0     C 6484   3.647   7.735   3.198 -0.7435 -0.4860 -0.7504
   50MOL0     N 6485   3.509   7.739   3.237 -0.0006  0.5911  0.0105
   50MOL0     C 6486   3.453   7.795   3.348 -0.8319 -0.0380  0.0404
   50MOL0     C 6487   3.321   7.789   3.338 -0.1965  0.1250  0.3482
   50MOL0     C 6488   3.231   7.851   3.435  0.0863  0.0524  0.1429
   50MOL0     C 6489   3.102   7.759   3.459 -0.0388  0.6960  0.4769
   50MOL0     C 6490   3.003   7.808   3.563 -0.7056 -0.0989 -0.2977
   50MOL0     C 6491   2.895   7.703   3.572 -0.2576  0.6248 -0.5080
   50MOL0     O 6492   2.822   7.737   3.689 -0.0424 -1.1703 -0.8001
   50MOL0     C 6493   2.685   7.744   3.691 -0.0542 -0.5609  0.5942
   50MOL0     C 6494   2.606   7.651   3.642  0.1642  1.0003 -0.2481
   50MOL0     C 6495   2.467   7.651   3.664  0.0794  0.5063  0.2865
   50MOL0     C 6496   2.412   7.761   3.734  0.0758  0.0982  0.1963
   50MOL0     C 6497   2.263   7.779   3.747 -0.1665  0.1702  0.2367
   50MOL0     O 6498   2.176   7.712   3.663  0.1569  0.0579 -0.6093
   50MOL0     C 6499   2.045   7.753   3.643  0.8097 -0.5629 -0.1324
   50MOL0     C 6500   1.954   7.653   3.620  0.2125  0.0603 -0.0378
   50MOL0     C 6501   1.817   7.677   3.599  0.0002 -0.7592 -0.2102
   50MOL0     C 6502   1.775   7.807   3.609 -0.9907  0.1565 -0.3674
   50MOL0     O 6503   1.642   7.829   3.599  0.6402  0.3331 -0.1838
   50MOL0     C 6504   1.571   7.932   3.675 -0.3079  0.5270  0.3046
   50MOL0     C 6505   1.414   7.902   3.686 -0.4276  0.2867  0.2235
   50MOL0     C 6506   1.377   7.765   3.745 -0.4375 -0.5119 -0.2110
   50MOL0     C 6507   1.221   7.748   3.728 -0.1344  0.3698 -0.1200
   50MOL0     C 6508   1.135   7.844   3.813 -0.5444 -1.1736 -0.0826
   50MOL0     C 6509   0.984   7.809   3.789 -0.1484 -0.3044 -0.0284
   50MOL0     C 6510   0.888   7.882   3.882  0.1886  0.2254 -0.2696
   50MOL0     C 6511   0.753   7.818   3.854 -0.0865 -0.7240  0.6012
   50MOL0    Cl 6512   0.745   7.648   3.898 -0.1320  0.5501  0.3374
   50MOL0     C 6513   1.865   7.914   3.637  1.0319  0.2277  0.5803
   50MOL0     C 6514   1.994   7.883   3.651 -0.9905 -0.1908  0.1782
   50MOL0     O 6515   2.230   7.853   3.842  0.4578 -0.2491  0.6113
   50MOL0     C 6516   2.501   7.857   3.797 -0.6857 -0.3112  0.2114
   50MOL0     C 6517   2.640   7.855   3.771  0.4466 -0.1586 -0.3577
   50MOL0     N 6518   3.299   7.735   3.215  1.1495 -0.7683  0.6070
   50MOL0     N 6519   3.403   7.710   3.150  0.3380  0.7937 -0.7487
   50MOL0     C 6520   3.130   7.192   2.876 -0.4586  0.1181 -0.1640
   50MOL0     C 6521   3.007   7.196   2.820  0.8168  1.0746 -0.2630
   50MOL0     C 6522   2.626   7.116   2.601 -0.3037  0.4482  0.5080
   50MOL0     C 6523   2.527   7.058   2.685 -0.5009  0.4834  0.7135
   50MOL0     C 6524   2.401   7.035   2.644 -0.5299 -0.7656 -0.4762
   50MOL0     C 6525   2.359   7.073   2.516  1.5666  0.1344  0.0038
   50MOL0     O 6526   2.231   7.063   2.471 -0.4307 -0.1170 -0.3808
   50MOL0     C 6527   2.137   6.976   2.550 -0.3946  0.0891  0.4316
   50MOL0     C 6528   2.035   6.919   2.451  0.2752 -0.2005  0.1162
   50MOL0     C 6529   1.934   6.835   2.526  0.4262  0.1780 -0.3010
   50MOL0     C 6530   1.813   6.789   2.454 -0.0412  0.2769  0.3080
   50MOL0     C 6531   1.703   6.879   2.429  0.7061 -0.4978 -0.1041
   50MOL0     C 6532   1.601   6.942   2.417 -0.9615  0.0010  0.3566
   50MOL0     C 6533   2.449   7.134   2.423 -0.1642 -0.2529 -0.0012
   50MOL0     C 6534   2.578   7.152   2.464 -1.0295  0.2676 -0.0857
   50MOL0     H 6535   2.971   6.856   2.772  0.0570 -1.5638  2.9007
   50MOL0     H 6536   3.195   6.856   2.872 -2.4353 -1.6255  1.2882
   50MOL0     H 6537   3.337   7.262   3.039 -0.0096 -0.5118  1.1096
   50MOL0     H 6538   3.423   7.231   2.884 -1.1108  1.3303  0.8200
   50MOL0     H 6539   3.555   7.065   3.018  0.1065 -0.4909  1.3573
   50MOL0     H 6540   3.512   7.150   3.160 -1.2982  0.4370 -0.8425
   50MOL0     H 6541   3.568   7.368   3.033  0.5239  1.0734 -2.0536
   50MOL0     H 6542   3.674   7.269   2.929  0.2639  1.2659  0.1153
   50MOL0     H 6543   3.708   7.228   3.226 -0.1363  0.6629  0.6409
   50MOL0     H 6544   3.829   7.227   3.093  1.7117  0.9468  2.3592
   50MOL0     H 6545   3.772   7.483   3.080 -1.0171  0.7663  1.5384
   50MOL0     H 6546   3.872   7.423   3.215  0.9445  2.2157 -0.7356
   50MOL0     H 6547   3.672   7.420   3.358  1.0406 -1.6556 -1.2555
   50MOL0     H 6548   3.572   7.490   3.228  0.0870  0.0188 -0.8223
   50MOL0     H 6549   3.717   7.651   3.388 -0.5844 -1.7682  0.0197
   50MOL0     H 6550   3.830   7.638   3.259 -0.0600 -1.4087  0.4780
   50MOL0     H 6551   3.650   7.704   3.093 -0.0158  0.9271 -1.1615
   50MOL0     H 6552   3.700   7.829   3.213  0.9039 -1.5315  0.3476
   50MOL0     H 6553   3.511   7.832   3.432  1.1096 -1.1634 -0.7578
   50MOL0     H 6554   3.202   7.949   3.395  1.1639  1.0372  1.6758
   50MOL0     H 6555   3.274   7.877   3.532 -0.8979 -0.6632  0.7830
   50MOL0     H 6556   3.136   7.659   3.488 -1.3595  0.1721  0.2528
   50MOL0     H 6557   3.042   7.746   3.369 -1.9107 -3.3450  2.0521
   50MOL0     H 6558   3.052   7.813   3.661  1.9768  0.3104 -1.5592
   50MOL0     H 6559   2.961   7.908   3.547 -0.4958  0.3765  1.7518
   50MOL0     H 6560   2.951   7.611   3.592  0.2535  1.1395  0.5214
   50MOL0     H 6561   2.846   7.683   3.476 -2.5829  0.6371  0.5906
   50MOL0     H 6562   2.658   7.571   3.590 -1.4483  1.7596 -3.3023
   50MOL0     H 6563   2.397   7.579   3.623  1.1781 -0.4635  0.0527
   50MOL0     H 6564   1.987   7.550   3.615  0.0604 -0.0356  0.7373
   50MOL0     H 6565   1.752   7.594   3.573  0.9549 -2.6756  2.9403
   50MOL0     H 6566   1.581   8.029   3.626 -1.8488  0.5131 -0.0934
   50MOL0     H 6567   1.610   7.948   3.776  0.1829  1.4466 -0.0187
   50MOL0     H 6568   1.356   7.910   3.594  2.1540 -2.5383 -1.8729
   50MOL0     H 6569   1.375   7.972   3.761  0.8652 -0.5998  1.7808
   50MOL0     H 6570   1.408   7.759   3.849  1.1913  0.6479 -0.5852
   50MOL0     H 6571   1.437   7.692   3.689  0.3097 -1.6930  2.0267
   50MOL0     H 6572   1.191   7.762   3.624  3.3460  0.4310 -1.2507
   50MOL0     H 6573   1.180   7.651   3.760  0.9763 -0.8845 -2.2612
   50MOL0     H 6574   1.154   7.944   3.771 -2.3299 -0.8656 -0.2377
   50MOL0     H 6575   1.173   7.849   3.915  3.2139 -0.6881 -1.3357
   50MOL0     H 6576   0.963   7.703   3.800 -0.5700 -0.3819 -1.4173
   50MOL0     H 6577   0.961   7.833   3.684  2.3708  1.5955 -0.2555
   50MOL0     H 6578   0.942   7.859   3.975  1.3131  3.1450 -0.1096
   50MOL0     H 6579   0.883   7.991   3.876 -0.4439  0.3151  1.3679
   50MOL0     H 6580   0.728   7.827   3.748  0.6469  3.0742  0.5845
   50MOL0     H 6581   0.679   7.872   3.913 -0.3462 -0.3863 -0.0174
   50MOL0     H 6582   1.842   8.020   3.642 -2.1071 -0.4262  1.9595
   50MOL0     H 6583   2.069   7.958   3.673 -0.8568 -0.4594  0.6312
   50MOL0     H 6584   2.459   7.929   3.866 -1.5686 -1.0937  0.5178
   50MOL0     H 6585   2.699   7.935   3.814 -0.4244  1.0040 -1.2678
   50MOL0     H 6586   3.169   7.289   2.905 -0.6150 -0.6172  2.8248
   50MOL0     H 6587   2.946   7.285   2.809  0.2802  0.6957 -0.4009
   50MOL0     H 6588   2.562   7.034   2.785  3.2620  0.9737 -0.3206
   50MOL0     H 6589   2.333   6.988   2.714 -0.8876 -0.0681 -0.3365
   50MOL0     H 6590   2.081   7.041   2.617 -2.0393  1.2686 -1.9200
   50MOL0     H 6591   2.187   6.900   2.612  0.9726 -1.4064 -2.2932
   50MOL0     H 6592   1.969   6.995   2.409 -3.0101 -2.4824  0.7952
   50MOL0     H 6593   2.082   6.872   2.364 -0.7905 -1.7111  0.3121
   50MOL0     H 6594   1.902   6.897   2.610  0.8411  0.5393 -0.4015
   50MOL0     H 6595   1.985   6.744   2.559  0.1338 -0.1387 -0.7048
   50MOL0     H 6596   1.836   6.727   2.366 -1.6261 -1.0878  0.7896
   50MOL0     H 6597   1.762   6.727   2.529 -0.0891  1.7544  1.5239
   50MOL0     H 6598   1.519   7.008   2.395 -0.3454  0.8129  0.4629
   50MOL0     H 6599   2.418   7.164   2.324 -0.5832 -1.5108 -0.2668
   50MOL0     H 6600   2.648   7.193   2.391 -0.4544 -0.7028 -0.1061
   51MOL0     O 6601   7.953   9.624   2.160  0.5531  0.4471 -0.0902
   51MOL0     C 6602   8.028   9.723   2.164 -0.2723  0.0327 -0.3476
   51MOL0     O 6603   7.986   9.851   2.164  0.0361  0.8170 -0.3363
   51MOL0     C 6604   7.853   9.880   2.166 -0.1490  0.3739  0.0653
   51MOL0     C 6605   7.793   9.947   2.274 -0.3205 -0.2825  0.1610
   51MOL0     C 6606   7.664  10.006   2.260  0.0961  0.1819 -0.4692
   51MOL0     C 6607   7.584   9.989   2.148  0.1567 -0.2461  0.1833
   51MOL0     O 6608   7.458  10.055   2.149 -0.2008  0.5577  0.4931
   51MOL0     C 6609   7.393  10.038   2.024 -0.4600 -0.1817 -0.3110
   51MOL0     C 6610   7.257  10.111   2.040  0.2206 -0.6102 -0.0812
   51MOL0     C 6611   7.163  10.085   1.926  0.0383 -0.2480  0.4077
   51MOL0     C 6612   7.030  10.142   1.974 -0.2876  0.1364  0.6922
   51MOL0     C 6613   6.922  10.102   1.883  0.3780  0.7220  0.6002
   51MOL0     C 6614   6.937  10.107   1.726 -0.6184  0.4053 -0.1728
   51MOL0     C 6615   6.798  10.085   1.653  0.9488  0.9292 -0.1694
   51MOL0     C 6616   6.720   9.954   1.689 -0.0941  0.2895 -0.4853
   51MOL0     N 6617   6.802   9.837   1.660  0.5593 -0.1530 -0.1662
   51MOL0     C 6618   6.846   9.743   1.752 -0.8390 -0.2575 -0.5066
   51MOL0     C 6619   6.904   9.641   1.690 -0.0715 -1.0624  0.4411
   51MOL0     C 6620   6.983   9.518   1.738 -0.5713  0.2798  0.4276
   51MOL0     C 6621   7.112   9.577   1.807 -0.8420  0.2728 -0.2739
   51MOL0     C 6622   7.218   9.646   1.716  1.1749 -0.4998 -0.5259
   51MOL0     C 6623   7.358   9.640   1.783 -0.9353  0.6221  1.3698
   51MOL0     O 6624   7.410   9.509   1.809 -0.2702 -0.8262  0.5958
   51MOL0     C 6625   7.545   9.503   1.791 -0.8651 -0.2745  0.8166
   51MOL0     C 6626   7.588   9.499   1.657  0.6762 -0.1771 -0.2933
   51MOL0     C 6627   7.725   9.511   1.626 -0.1150 -0.6769 -1.0320
   51MOL0     C 6628   7.819   9.529   1.726  0.3361  0.0286 -0.5544
   51MOL0     C 6629   7.958   9.550   1.691 -0.8305  0.5536  1.1840
   51MOL0     O 6630   8.038   9.478   1.766 -0.5223 -0.0569 -1.0247
   51MOL0     C 6631   8.173   9.481   1.744  0.1104 -0.5484 -0.3600
   51MOL0     C 6632   8.218   9.389   1.652  0.2127  0.1749  0.5510
   51MOL0     C 6633   8.355   9.382   1.613  0.1159  0.2596  0.6621
   51MOL0     C 6634   8.448   9.466   1.668  0.6208  0.3064 -0.4395
   51MOL0     O 6635   8.578   9.461   1.629 -0.4238 -0.2429 -0.2812
   51MOL0     C 6636   8.671   9.544   1.687 -0.8259  0.0614 -0.2507
   51MOL0     C 6637   8.825   9.530   1.646  1.0268  0.4578 -0.0461
   51MOL0     C 6638   8.875   9.381   1.654 -1.0127 -0.5366  0.3374
   51MOL0     C 6639   9.029   9.390   1.633 -0.6606 -0.1039  1.0906
   51MOL0     C 6640   9.100   9.260   1.676  0.1961 -0.6984 -0.8902
   51MOL0     C 6641   9.247   9.269   1.646 -1.2259 -0.2230  0.0187
   51MOL0     C 6642   9.323   9.362   1.744 -0.1864 -0.6257 -0.4531
   51MOL0     C 6643   9.472   9.369   1.720 -0.2370 -0.1334 -0.3541
   51MOL0    Cl 6644   9.501   9.462   1.573  0.0832  0.1240 -0.5480
   51MOL0     C 6645   8.400   9.566   1.757  0.4297  1.1079  0.0014
   51MOL0     C 6646   8.264   9.572   1.795 -0.7475  0.1458 -0.5531
   51MOL0     O 6647   7.992   9.615   1.589 -0.3122 -0.0845  0.2237
   51MOL0     C 6648   7.777   9.519   1.865 -0.8043  0.0914 -1.4856
   51MOL0     C 6649   7.640   9.521   1.886 -0.2123  0.5771 -0.1103
   51MOL0     N 6650   6.882   9.669   1.557  0.1546  1.0876  0.4408
   51MOL0     N 6651   6.817   9.776   1.535 -0.6380  0.2200 -0.3374
   51MOL0     C 6652   7.644   9.904   2.052 -0.2015  0.6375  0.3697
   51MOL0     C 6653   7.776   9.853   2.056  0.4125  0.8640 -0.3405
   51MOL0     C 6654   8.177   9.704   2.160 -0.8409  0.2743 -0.3162
   51MOL0     C 6655   8.262   9.802   2.124  0.8329 -0.6691 -0.7046
   51MOL0     C 6656   8.397   9.797   2.125 -0.2594  0.2504  0.1380
   51MOL0     C 6657   8.452   9.676   2.150 -0.4770 -0.2204  0.2685
   51MOL0     O 6658   8.589   9.678   2.159  0.3520 -0.2848  0.7554
   51MOL0     C 6659   8.661   9.560   2.193  0.0096 -0.1513  0.7876
   51MOL0     C 6660   8.809   9.585   2.183  0.1863 -0.4675  0.1556
   51MOL0     C 6661   8.852   9.598   2.041 -0.6640 -0.1118  0.9588
   51MOL0     C 6662   9.005   9.630   2.010  0.7691  0.1271  0.1950
   51MOL0     C 6663   9.105   9.562   2.091 -0.2874  1.4189  0.2703
   51MOL0     C 6664   9.196   9.519   2.167  0.7527  0.1400 -0.3141
   51MOL0     C 6665   8.375   9.570   2.184 -0.1693 -1.1289 -0.4666
   51MOL0     C 6666   8.241   9.584   2.188  0.1006  0.0269 -0.1019
   51MOL0     H 6667   7.855   9.965   2.361 -1.5201 -1.2985  1.2763
   51MOL0     H 6668   7.642  10.077   2.339 -1.3231 -0.5999 -0.1228
   51MOL0     H 6669   7.380   9.932   2.001 -1.7078 -0.0812 -0.1517
   51MOL0     H 6670   7.447  10.083   1.940  3.2116 -0.7167  1.5727
   51MOL0     H 6671   7.290  10.215   2.038 -1.1826 -0.1458 -0.2737
   51MOL0     H 6672   7.204  10.089   2.133 -0.7464  1.3585 -0.1149
   51MOL0     H 6673   7.164   9.980   1.896  0.3852  0.5284 -2.6637
   51MOL0     H 6674   7.196  10.139   1.836  0.0207 -0.9762 -0.0458
   51MOL0     H 6675   7.012  10.100   2.073  4.2426  1.1142  2.1735
   51MOL0     H 6676   7.041  10.250   1.989 -2.3117  0.2346  1.7435
   51MOL0     H 6677   6.841  10.171   1.909 -0.2057 -0.6158  2.5114
   51MOL0     H 6678   6.883  10.002   1.901 -0.2146  0.7484 -0.4628
   51MOL0     H 6679   7.007  10.031   1.690 -2.2980 -0.8602 -0.9153
   51MOL0     H 6680   6.972  10.208   1.705  2.5486 -0.1839  1.6087
   51MOL0     H 6681   6.735  10.173   1.667 -0.6199 -0.0223 -0.8902
   51MOL0     H 6682   6.809  10.086   1.544 -0.9366  1.3230 -0.4021
   51MOL0     H 6683   6.621   9.952   1.644 -0.5757 -1.6780  0.5349
   51MOL0     H 6684   6.700   9.963   1.796  1.2093 -1.2956 -0.0547
   51MOL0     H 6685   6.855   9.765   1.858 -0.5307 -0.2013 -0.5430
   51MOL0     H 6686   7.032   9.461   1.659  0.8975  2.4349 -0.3305
   51MOL0     H 6687   6.923   9.455   1.804 -0.4881 -1.0579 -0.7327
   51MOL0     H 6688   7.168   9.487   1.831  0.2533  0.5042 -1.7860
   51MOL0     H 6689   7.093   9.637   1.896  0.7416 -0.2722  0.4698
   51MOL0     H 6690   7.231   9.605   1.616 -1.3154 -0.6805 -0.8347
   51MOL0     H 6691   7.191   9.751   1.703  3.7152  0.1521 -0.9369
   51MOL0     H 6692   7.353   9.696   1.877 -1.6365  2.8516  0.0938
   51MOL0     H 6693   7.426   9.700   1.721 -0.5293  2.4261  3.4254
   51MOL0     H 6694   7.517   9.483   1.576 -0.1783 -0.0876  0.4314
   51MOL0     H 6695   7.764   9.520   1.525  1.2515  0.4674 -0.4278
   51MOL0     H 6696   8.148   9.313   1.617 -1.3171  0.6621  2.4033
   51MOL0     H 6697   8.393   9.301   1.552  0.7106 -0.9883  2.5944
   51MOL0     H 6698   8.659   9.519   1.792 -2.8041  1.6961 -0.0063
   51MOL0     H 6699   8.653   9.651   1.669  1.9650  0.7894  0.8193
   51MOL0     H 6700   8.887   9.593   1.710  0.7174  0.6675  0.0487
   51MOL0     H 6701   8.833   9.569   1.544 -1.5824 -0.3272 -0.6147
   51MOL0     H 6702   8.835   9.322   1.571  1.3029 -2.1660  0.2858
   51MOL0     H 6703   8.842   9.338   1.749 -2.3005  0.6785  0.4905
   51MOL0     H 6704   9.034   9.406   1.524 -0.2400 -2.4446  0.7076
   51MOL0     H 6705   9.074   9.473   1.689  0.9955  0.4726 -0.9277
   51MOL0     H 6706   9.052   9.181   1.616 -2.3620 -0.9382  1.2913
   51MOL0     H 6707   9.096   9.242   1.783  1.5158  2.2143 -0.2678
   51MOL0     H 6708   9.270   9.308   1.546 -0.2428 -1.1970 -0.1541
   51MOL0     H 6709   9.292   9.170   1.652  1.8342  1.0675  0.3097
   51MOL0     H 6710   9.297   9.467   1.731  3.9534  0.6696  0.3297
   51MOL0     H 6711   9.311   9.322   1.846  1.7622 -1.0926 -0.3771
   51MOL0     H 6712   9.517   9.269   1.717 -0.4705 -0.2353 -3.0844
   51MOL0     H 6713   9.524   9.423   1.800  1.3527  0.9911 -2.0636
   51MOL0     H 6714   8.465   9.648   1.786 -0.2727  2.7427 -2.6464
   51MOL0     H 6715   8.228   9.653   1.857  0.0205  0.3940 -0.4199
   51MOL0     H 6716   7.837   9.514   1.955 -0.3908 -1.4920 -1.8244
   51MOL0     H 6717   7.613   9.524   1.991  2.8107 -2.3764  0.9593
   51MOL0     H 6718   7.597   9.868   1.961 -1.3451  0.2808  1.0841
   51MOL0     H 6719   7.820   9.796   1.975 -1.3182 -0.8307 -0.1736
   51MOL0     H 6720   8.216   9.899   2.114  1.0316 -0.6415 -1.4236
   51MOL0     H 6721   8.451   9.891   2.114  0.7456 -0.4210 -0.9763
   51MOL0     H 6722   8.647   9.473   2.128  0.0579 -0.1526  0.7786
   51MOL0     H 6723   8.640   9.539   2.298  1.3691  0.2614  1.1594
   51MOL0     H 6724   8.832   9.675   2.239 -2.2970  0.4408 -0.1433
   51MOL0     H 6725   8.860   9.495   2.220  0.1690  0.7255  3.3202
   51MOL0     H 6726   8.799   9.686   2.005  1.6307  1.3781  1.0084
   51MOL0     H 6727   8.820   9.507   1.988 -2.3924  1.4511 -0.8115
   51MOL0     H 6728   9.011   9.619   1.901 -0.5844 -0.0708  0.1219
   51MOL0     H 6729   9.027   9.733   2.041  0.3704 -0.1001  1.2615
   51MOL0     H 6730   9.279   9.471   2.216 -1.2491 -1.4301  1.7276
   51MOL0     H 6731   8.422   9.475   2.210 -0.2471 -0.2786  3.2745
   51MOL0     H 6732   8.182   9.503   2.231 -0.3656  1.6280  2.4820
   52MOL0     O 6733   3.365   3.812   7.128  0.3517 -0.3436 -0.0764
   52MOL0     C 6734   3.402   3.925   7.169 -0.3762 -0.9382  0.4735
   52MOL0     O 6735   3.318   4.037   7.185  0.5083  0.6011  0.2950
   52MOL0     C 6736   3.179   4.022   7.173  1.2407 -0.2401  0.6094
   52MOL0     C 6737   3.113   3.937   7.079 -0.0967 -0.2208 -0.7951
   52MOL0     C 6738   2.969   3.933   7.072  0.3551 -0.7922  0.2937
   52MOL0     C 6739   2.887   4.021   7.145  0.0730  0.1283  0.3298
   52MOL0     O 6740   2.747   4.026   7.141  0.0061 -0.2250  0.3286
   52MOL0     C 6741   2.669   3.905   7.145 -0.5085  0.0036 -0.2722
   52MOL0     C 6742   2.526   3.915   7.093 -0.3935 -0.6319  0.2248
   52MOL0     C 6743   2.454   3.785   7.093  0.1083  0.5908  0.4847
   52MOL0     C 6744   2.303   3.820   7.062 -0.5704  0.3817 -0.4301
   52MOL0     C 6745   2.219   3.703   7.015 -0.0767  0.3245 -0.2773
   52MOL0     C 6746   2.247   3.656   6.869  0.0493 -0.1646  0.7644
   52MOL0     C 6747   2.195   3.761   6.764  0.9264 -0.4362 -0.4878
   52MOL0     C 6748   2.044   3.802   6.778 -0.7036  0.3086 -0.2439
   52MOL0     N 6749   1.953   3.687   6.799 -0.1861  0.2057  0.2885
   52MOL0     C 6750   1.953   3.571   6.721  0.1187  0.4055 -0.2241
   52MOL0     C 6751   1.871   3.477   6.785 -1.1326  0.0608 -0.1842
   52MOL0     C 6752   1.847   3.337   6.745  0.9575  0.9766 -0.0099
   52MOL0     C 6753   1.710   3.304   6.800  0.7929 -1.1849 -0.3387
   52MOL0     C 6754   1.671   3.157   6.747 -0.4443  0.6875 -0.9503
   52MOL0     C 6755   1.520   3.131   6.769 -0.1154 -0.4350  0.1884
   52MOL0     O 6756   1.508   3.068   6.899  0.2919  0.4677  0.4841
   52MOL0     C 6757   1.385   3.008   6.933 -0.1307  0.2051  0.0782
   52MOL0     C 6758   1.266   3.011   6.853 -0.0204 -0.3999  0.2554
   52MOL0     C 6759   1.149   2.951   6.899 -0.1062  0.1535  0.2223
   52MOL0     C 6760   1.136   2.889   7.029  0.0329 -0.8360 -0.9507
   52MOL0     C 6761   1.010   2.824   7.071 -0.3376 -0.4397 -0.2659
   52MOL0     O 6762   0.899   2.825   6.984 -0.6155  0.2203 -0.3830
   52MOL0     C 6763   0.774   2.792   7.012  1.2776  0.0551 -0.2270
   52MOL0     C 6764   0.676   2.800   6.907  0.9428 -0.2031 -0.4428
   52MOL0     C 6765   0.545   2.748   6.926 -1.3743  0.1342  0.0851
   52MOL0     C 6766   0.509   2.696   7.050 -0.2254  0.3827 -1.3449
   52MOL0     O 6767   0.387   2.648   7.077 -0.3519 -0.0838  0.6596
   52MOL0     C 6768   0.319   2.689   7.192 -0.2347 -0.0281 -0.0410
   52MOL0     C 6769   0.194   2.760   7.157  0.7196  0.4038 -0.6929
   52MOL0     C 6770   0.112   2.797   7.288 -0.4622  0.4722 -0.0591
   52MOL0     C 6771  -0.026   2.862   7.267 -0.1092  0.4016  0.8919
   52MOL0     C 6772  -0.096   2.835   7.402  0.1342 -0.4537 -0.6684
   52MOL0     C 6773  -0.227   2.910   7.415  0.7818 -0.4304  0.7319
   52MOL0     C 6774  -0.340   2.842   7.327  0.2897 -0.2541 -0.0109
   52MOL0     C 6775  -0.478   2.866   7.392  0.8756  0.9532  0.3125
   52MOL0    Cl 6776  -0.521   2.751   7.520  0.2776  0.2528 -0.5589
   52MOL0     C 6777   0.605   2.679   7.158 -0.1855  0.7839  0.1243
   52MOL0     C 6778   0.727   2.736   7.136  0.5788  0.0891 -0.5373
   52MOL0     O 6779   1.015   2.764   7.181 -0.3180 -0.3693  0.0401
   52MOL0     C 6780   1.255   2.894   7.107 -0.1223  0.7387 -0.4472
   52MOL0     C 6781   1.375   2.955   7.060  0.3965 -0.3366  0.5698
   52MOL0     N 6782   1.826   3.553   6.897  0.3062  0.1110  0.1763
   52MOL0     N 6783   1.875   3.672   6.908 -0.4113 -0.3022 -0.5451
   52MOL0     C 6784   2.960   4.113   7.231  0.7105  0.7019 -0.4084
   52MOL0     C 6785   3.091   4.105   7.239  0.0698 -0.2749 -0.8252
   52MOL0     C 6786   3.546   3.947   7.194  0.6456  0.0324  0.7936
   52MOL0     C 6787   3.592   4.074   7.233  0.3184  0.4708 -0.1639
   52MOL0     C 6788   3.717   4.080   7.282  0.1322 -0.6024  0.2712
   52MOL0     C 6789   3.809   3.974   7.292 -1.6741 -0.4563  0.4118
   52MOL0     O 6790   3.919   4.006   7.357 -0.9651  0.7460  0.6817
   52MOL0     C 6791   4.019   3.904   7.386  0.1630 -0.4805 -0.1871
   52MOL0     C 6792   4.151   3.963   7.437 -0.3521  0.6809 -0.4651
   52MOL0     C 6793   4.253   3.859   7.441  0.3990  0.4338 -0.9060
   52MOL0     C 6794   4.391   3.885   7.485 -0.1405 -0.3794  0.2110
   52MOL0     C 6795   4.467   3.987   7.401  0.1982 -0.1267 -0.0837
   52MOL0     C 6796   4.541   4.056   7.336  0.0365 -0.5485  0.0340
   52MOL0     C 6797   3.764   3.851   7.248 -0.2140 -0.0777 -0.3908
   52MOL0     C 6798   3.635   3.835   7.196 -0.6961 -0.5616 -0.2468
   52MOL0     H 6799   3.168   3.874   7.010  0.8726 -2.0873  1.5245
   52MOL0     H 6800   2.940   3.857   7.000 -1.4904 -1.7683  1.9924
   52MOL0     H 6801   2.673   3.877   7.251 -0.8633  0.6227 -0.0940
   52MOL0     H 6802   2.727   3.840   7.079 -0.0029  0.5532 -0.3771
   52MOL0     H 6803   2.530   3.956   6.992  1.4274 -1.7762 -0.2156
   52MOL0     H 6804   2.485   3.988   7.163  0.4740 -0.0838  0.1747
   52MOL0     H 6805   2.450   3.732   7.188  0.0705 -0.8037 -0.2781
   52MOL0     H 6806   2.500   3.721   7.017 -0.5285  1.4663 -0.6859
   52MOL0     H 6807   2.258   3.873   7.146 -1.4349  0.9403 -1.2223
   52MOL0     H 6808   2.285   3.891   6.980  0.7218  0.1454 -0.9462
   52MOL0     H 6809   2.112   3.722   7.027  0.1722  1.6078  0.0592
   52MOL0     H 6810   2.248   3.626   7.087  2.8993  1.7204  0.1651
   52MOL0     H 6811   2.192   3.563   6.854  2.0333 -1.2200 -0.5333
   52MOL0     H 6812   2.354   3.651   6.845  0.1010  3.2615 -0.1975
   52MOL0     H 6813   2.254   3.853   6.766  0.7328 -0.3037  1.3738
   52MOL0     H 6814   2.223   3.720   6.667  0.6693 -3.0696  0.4695
   52MOL0     H 6815   2.013   3.855   6.688 -1.1178  1.6018  0.6278
   52MOL0     H 6816   2.042   3.872   6.862  4.2258 -1.9395  2.2015
   52MOL0     H 6817   2.003   3.554   6.626 -1.2145  0.5909 -0.9865
   52MOL0     H 6818   1.917   3.269   6.795  2.2433  0.5193 -2.3083
   52MOL0     H 6819   1.848   3.323   6.637  0.9022 -1.0447  0.2069
   52MOL0     H 6820   1.637   3.377   6.764  1.3854 -0.8511 -0.8938
   52MOL0     H 6821   1.699   3.300   6.909 -2.3460 -2.2442 -0.5806
   52MOL0     H 6822   1.698   3.144   6.642  0.4688  1.3988 -0.8088
   52MOL0     H 6823   1.728   3.088   6.810 -0.1996 -0.0508 -1.9649
   52MOL0     H 6824   1.482   3.066   6.691  2.3896  1.6394 -3.0572
   52MOL0     H 6825   1.461   3.222   6.755 -2.7321 -2.1782 -0.8477
   52MOL0     H 6826   1.258   3.055   6.754 -0.7753  0.3042  0.6140
   52MOL0     H 6827   1.067   2.956   6.829 -0.0011  0.0831  0.0940
   52MOL0     H 6828   0.705   2.847   6.813 -1.3922  0.8283 -0.7215
   52MOL0     H 6829   0.481   2.736   6.838 -1.8709 -1.2798  0.6119
   52MOL0     H 6830   0.377   2.767   7.242 -0.8251  0.7254 -0.5145
   52MOL0     H 6831   0.292   2.603   7.254  0.8609  1.1029  2.1112
   52MOL0     H 6832   0.137   2.691   7.095 -0.9775 -1.6584  2.8428
   52MOL0     H 6833   0.218   2.851   7.102  4.2098  0.9124  1.3726
   52MOL0     H 6834   0.172   2.859   7.355  1.8995  0.5539 -2.0809
   52MOL0     H 6835   0.091   2.697   7.328 -4.1880  0.2150 -2.1555
   52MOL0     H 6836  -0.024   2.969   7.243 -1.4271  0.4221  0.8411
   52MOL0     H 6837  -0.079   2.809   7.188  0.6253  0.2353  0.4956
   52MOL0     H 6838  -0.033   2.881   7.480 -4.6678  2.0950  2.1751
   52MOL0     H 6839  -0.105   2.732   7.436  2.4887  0.2174  2.5613
   52MOL0     H 6840  -0.220   3.017   7.390 -0.3230 -0.1236  1.6274
   52MOL0     H 6841  -0.255   2.899   7.520  3.4945 -2.2147  1.3579
   52MOL0     H 6842  -0.337   2.871   7.222  0.0187  2.1514  0.5795
   52MOL0     H 6843  -0.329   2.734   7.342 -3.5190 -0.7956  0.0347
   52MOL0     H 6844  -0.552   2.854   7.312 -0.2022  1.4335  1.2152
   52MOL0     H 6845  -0.484   2.967   7.433 -2.6947  0.2226  2.0094
   52MOL0     H 6846   0.579   2.641   7.257 -0.5685  3.8669  1.3168
   52MOL0     H 6847   0.790   2.734   7.224 -1.4922  0.9664  1.0757
   52MOL0     H 6848   1.240   2.858   7.209 -0.9637 -0.7570 -1.0579
   52MOL0     H 6849   1.462   2.958   7.126  0.0759 -1.3064  1.0525
   52MOL0     H 6850   2.899   4.190   7.278 -0.9094 -0.8533  0.1492
   52MOL0     H 6851   3.149   4.166   7.307 -3.1060 -2.8529  4.8570
   52MOL0     H 6852   3.534   4.166   7.237  2.7927  2.2316 -1.6870
   52MOL0     H 6853   3.753   4.174   7.323  2.1867 -0.3178 -1.9408
   52MOL0     H 6854   4.040   3.851   7.292 -1.8043 -1.9438  0.1150
   52MOL0     H 6855   3.984   3.828   7.457  0.4933  0.2968  0.8252
   52MOL0     H 6856   4.183   4.044   7.370 -0.8664 -0.5106 -2.2206
   52MOL0     H 6857   4.132   3.997   7.539  0.8555 -2.3675  0.8673
   52MOL0     H 6858   4.268   3.812   7.344  1.0667 -0.6726 -0.2848
   52MOL0     H 6859   4.208   3.789   7.512  0.6052 -1.4285 -2.5346
   52MOL0     H 6860   4.396   3.924   7.587  2.0751 -0.3822  0.1448
   52MOL0     H 6861   4.441   3.789   7.476 -0.5087 -0.3581 -4.2299
   52MOL0     H 6862   4.587   4.118   7.261 -1.0932 -1.9004 -1.8820
   52MOL0     H 6863   3.835   3.769   7.251  0.3514  0.4194  0.5246
   52MOL0     H 6864   3.606   3.734   7.170 -1.8989 -0.3519  0.2075
   53MOL0     O 6865  11.122   8.831   6.322  0.4536 -0.4843 -0.0468
   53MOL0     C 6866  11.232   8.867   6.273  0.2523  1.2169  0.3722
   53MOL0     O 6867  11.254   8.965   6.180 -0.0913 -0.0791 -0.2540
   53MOL0     C 6868  11.148   9.042   6.128  0.1023 -0.7250  0.6135
   53MOL0     C 6869  11.170   9.085   5.999  0.3048  0.5765  0.3614
   53MOL0     C 6870  11.075   9.150   5.927  0.6081 -0.1383  0.2101
   53MOL0     C 6871  10.952   9.191   5.986 -0.2023 -0.5341 -0.0788
   53MOL0     O 6872  10.855   9.262   5.916  0.1276  0.4629 -0.2002
   53MOL0     C 6873  10.841   9.265   5.778  0.2052  0.4647 -0.1443
   53MOL0     C 6874  10.779   9.125   5.730  0.4037  0.3844 -0.3415
   53MOL0     C 6875  10.645   9.079   5.801 -0.4763 -0.3384  0.6920
   53MOL0     C 6876  10.611   8.935   5.776  0.8839  0.3980  0.2887
   53MOL0     C 6877  10.464   8.904   5.796 -1.0404  0.0736  0.1768
   53MOL0     C 6878  10.419   8.760   5.775  0.0376 -0.2523 -0.2729
   53MOL0     C 6879  10.276   8.751   5.822  0.0809 -0.0633  0.0667
   53MOL0     C 6880  10.234   8.604   5.809 -0.1430  0.1165  0.2415
   53MOL0     N 6881  10.091   8.585   5.837  0.4974 -0.0855 -0.1663
   53MOL0     C 6882  10.011   8.493   5.764 -0.6473  0.7551  0.9426
   53MOL0     C 6883   9.882   8.504   5.821 -0.6837  0.1813 -0.1167
   53MOL0     C 6884   9.763   8.426   5.771  0.2100  0.1757 -0.8328
   53MOL0     C 6885   9.649   8.403   5.880  0.4733 -0.2444  0.5226
   53MOL0     C 6886   9.545   8.305   5.824  0.7899  0.1842 -0.0770
   53MOL0     C 6887   9.418   8.300   5.910 -0.3456 -0.8633  0.0395
   53MOL0     O 6888   9.331   8.189   5.869 -0.0726 -0.0679 -0.0433
   53MOL0     C 6889   9.226   8.170   5.949  0.5672  0.2825 -0.1929
   53MOL0     C 6890   9.178   8.258   6.054 -0.3413  0.4554  0.9007
   53MOL0     C 6891   9.061   8.227   6.123 -0.3947 -0.4251 -0.3613
   53MOL0     C 6892   8.977   8.115   6.088 -0.0696 -1.1448  0.5721
   53MOL0     C 6893   8.835   8.109   6.140 -0.7577 -0.0945 -0.1327
   53MOL0     O 6894   8.796   8.209   6.226  0.5831  0.6130  0.4219
   53MOL0     C 6895   8.673   8.205   6.285 -0.7493 -0.0610 -0.4663
   53MOL0     C 6896   8.659   8.175   6.426  0.4840 -0.4682 -0.2211
   53MOL0     C 6897   8.531   8.173   6.481  0.2379 -0.4493 -0.3552
   53MOL0     C 6898   8.415   8.192   6.406 -0.1109  0.3418  0.2968
   53MOL0     O 6899   8.289   8.210   6.463 -0.4052 -0.0743 -0.0879
   53MOL0     C 6900   8.175   8.172   6.394 -0.6823  0.6005 -0.1177
   53MOL0     C 6901   8.055   8.155   6.485  0.6203  0.0953  0.1759
   53MOL0     C 6902   8.022   8.293   6.550  0.8128  0.3393 -0.1400
   53MOL0     C 6903   7.884   8.296   6.620  0.0213 -0.3272 -0.2554
   53MOL0     C 6904   7.761   8.306   6.525 -0.0748  0.0267 -0.0852
   53MOL0     C 6905   7.647   8.375   6.597  0.2420  0.2747 -0.1598
   53MOL0     C 6906   7.524   8.389   6.516  0.4155  0.8535  0.4372
   53MOL0     C 6907   7.397   8.426   6.597 -1.0759  0.0938  0.5399
   53MOL0    Cl 6908   7.251   8.406   6.495 -0.4957  0.1682 -0.4762
   53MOL0     C 6909   8.429   8.217   6.267  0.3210 -0.8287 -0.3948
   53MOL0     C 6910   8.565   8.225   6.208  0.4469  0.0855 -0.2546
   53MOL0     O 6911   8.775   8.009   6.108  0.8077  1.0618  0.5366
   53MOL0     C 6912   9.028   8.033   5.981  1.2738 -0.4849  0.4514
   53MOL0     C 6913   9.150   8.061   5.915  0.0911  0.1553 -0.3275
   53MOL0     N 6914   9.892   8.598   5.924  0.4198  0.3231  0.1095
   53MOL0     N 6915  10.010   8.656   5.922  0.5054 -0.2705  0.0245
   53MOL0     C 6916  10.933   9.147   6.121  0.3095 -1.2480  0.3612
   53MOL0     C 6917  11.022   9.073   6.191 -0.9044  0.3241 -0.4345
   53MOL0     C 6918  11.354   8.800   6.329  0.5305 -0.6708 -0.3150
   53MOL0     C 6919  11.334   8.686   6.410  0.3796  0.7005 -0.3377
   53MOL0     C 6920  11.437   8.604   6.457  0.2104 -0.0634 -0.1646
   53MOL0     C 6921  11.561   8.646   6.425 -1.3767 -0.2361  0.6186
   53MOL0     O 6922  11.665   8.564   6.464 -0.1991 -0.3766  0.0725
   53MOL0     C 6923  11.804   8.614   6.472 -0.0833 -0.8677 -0.2079
   53MOL0     C 6924  11.887   8.493   6.516 -0.4756 -0.6054 -0.2804
   53MOL0     C 6925  12.040   8.529   6.566 -0.3367 -0.4801 -0.0598
   53MOL0     C 6926  12.105   8.416   6.631 -0.0956  0.0378  0.1683
   53MOL0     C 6927  12.246   8.436   6.663 -0.7736 -0.1293  0.0121
   53MOL0     C 6928  12.354   8.446   6.713 -0.1421 -0.0202  0.4728
   53MOL0     C 6929  11.588   8.760   6.345  0.5150 -0.2774 -0.4275
   53MOL0     C 6930  11.487   8.839   6.298  0.0679  0.0148  0.2726
   53MOL0     H 6931  11.256   9.073   5.934 -0.9770  1.7651 -1.6441
   53MOL0     H 6932  11.086   9.167   5.820  2.7870  0.6664  0.5095
   53MOL0     H 6933  10.935   9.286   5.727 -0.1082 -2.5795 -2.2347
   53MOL0     H 6934  10.773   9.346   5.750 -1.7385 -1.6185 -1.8426
   53MOL0     H 6935  10.847   9.052   5.773  0.1609  1.3616  1.8645
   53MOL0     H 6936  10.778   9.115   5.621  2.4102 -0.0444 -0.3432
   53MOL0     H 6937  10.556   9.135   5.771 -0.1225 -1.6059 -3.3946
   53MOL0     H 6938  10.658   9.090   5.909  1.7094  2.0263  0.2850
   53MOL0     H 6939  10.621   8.911   5.669 -0.1813  0.9879  0.0406
   53MOL0     H 6940  10.673   8.869   5.838 -0.9028 -1.6556  0.0164
   53MOL0     H 6941  10.402   8.967   5.732 -0.7929  0.3372  0.1913
   53MOL0     H 6942  10.433   8.927   5.898 -2.4374  1.5967 -0.5551
   53MOL0     H 6943  10.482   8.691   5.832 -0.0866 -0.4447 -0.3629
   53MOL0     H 6944  10.432   8.737   5.669  0.9919  0.9773 -0.4464
   53MOL0     H 6945  10.263   8.786   5.925  0.4107 -1.3991  0.5926
   53MOL0     H 6946  10.216   8.815   5.757  0.2160  1.8961  1.7499
   53MOL0     H 6947  10.290   8.535   5.873  0.0459 -0.1727 -0.2347
   53MOL0     H 6948  10.250   8.585   5.703 -0.5023 -0.6765  0.3209
   53MOL0     H 6949  10.047   8.442   5.676  1.4189  1.6298  1.2243
   53MOL0     H 6950   9.795   8.328   5.735  0.0693 -0.3513  0.4336
   53MOL0     H 6951   9.722   8.486   5.689 -2.0960  0.1944  0.2509
   53MOL0     H 6952   9.597   8.498   5.893 -0.9754 -0.4785 -2.7668
   53MOL0     H 6953   9.685   8.367   5.978 -0.1388 -1.6462  0.2629
   53MOL0     H 6954   9.515   8.330   5.722  0.8774  2.1407  0.3345
   53MOL0     H 6955   9.589   8.206   5.807  2.4638  0.5200  1.8636
   53MOL0     H 6956   9.363   8.391   5.889 -3.5143 -2.5167  0.6335
   53MOL0     H 6957   9.458   8.279   6.010  3.2305 -1.4232 -1.3482
   53MOL0     H 6958   9.223   8.354   6.074  0.0579  0.2137  1.1795
   53MOL0     H 6959   9.035   8.297   6.201  0.6575  0.9212 -1.1646
   53MOL0     H 6960   8.749   8.152   6.482 -0.1172  0.9365  1.3947
   53MOL0     H 6961   8.507   8.144   6.583 -2.2686  1.4429 -0.3119
   53MOL0     H 6962   8.201   8.078   6.344 -2.1957 -0.3701  0.8166
   53MOL0     H 6963   8.162   8.246   6.315 -1.7361 -0.8463 -1.3765
   53MOL0     H 6964   8.079   8.087   6.566  0.5745 -0.0231  0.0893
   53MOL0     H 6965   7.969   8.111   6.434 -0.9303  0.8441  2.0197
   53MOL0     H 6966   8.017   8.366   6.470 -0.3020 -0.0262 -0.4156
   53MOL0     H 6967   8.099   8.316   6.624 -1.9762  2.2377  2.3881
   53MOL0     H 6968   7.864   8.205   6.676 -1.9897 -0.6680 -1.4285
   53MOL0     H 6969   7.873   8.374   6.696 -0.2420 -1.7970  1.2469
   53MOL0     H 6970   7.727   8.210   6.488  0.0258  0.0007 -0.1113
   53MOL0     H 6971   7.789   8.380   6.449 -0.1738 -0.2283 -0.3719
   53MOL0     H 6972   7.683   8.474   6.628  3.1706 -0.8627  0.3974
   53MOL0     H 6973   7.632   8.320   6.690 -0.9745  0.0332 -0.4742
   53MOL0     H 6974   7.547   8.458   6.435  2.6157 -1.3992 -0.9708
   53MOL0     H 6975   7.507   8.293   6.467  2.5825 -0.9368  2.8854
   53MOL0     H 6976   7.387   8.531   6.627 -2.0481  0.2939 -0.4364
   53MOL0     H 6977   7.389   8.364   6.687 -1.1614 -1.1375 -0.2785
   53MOL0     H 6978   8.343   8.260   6.216  0.3719  0.1780  0.3526
   53MOL0     H 6979   8.587   8.230   6.102  1.3186 -1.3342 -0.1716
   53MOL0     H 6980   8.972   7.950   5.940  2.9340 -1.4109 -0.0562
   53MOL0     H 6981   9.180   8.001   5.830  0.4380 -0.7667  0.4315
   53MOL0     H 6982  10.850   9.192   6.175  1.8739  1.5068  0.6676
   53MOL0     H 6983  11.002   9.041   6.293 -0.1271 -1.1532 -0.7134
   53MOL0     H 6984  11.237   8.649   6.440  1.4406 -1.4784  0.6328
   53MOL0     H 6985  11.418   8.520   6.522 -1.8276  0.2932 -0.2457
   53MOL0     H 6986  11.808   8.697   6.543 -5.2516 -0.8424  0.4859
   53MOL0     H 6987  11.840   8.643   6.373 -3.2946  0.3978 -1.1415
   53MOL0     H 6988  11.832   8.448   6.599 -0.9529  1.1898  0.4372
   53MOL0     H 6989  11.893   8.424   6.431  0.5340 -1.2230  0.2649
   53MOL0     H 6990  12.026   8.614   6.633 -0.5416 -0.5507 -0.0113
   53MOL0     H 6991  12.108   8.563   6.487 -1.5586  1.1873 -0.4421
   53MOL0     H 6992  12.057   8.383   6.723  1.0750 -2.2441  0.0202
   53MOL0     H 6993  12.100   8.324   6.573  3.8955 -0.2997  0.1251
   53MOL0     H 6994  12.454   8.460   6.749 -0.1556  0.3359  0.3783
   53MOL0     H 6995  11.690   8.786   6.316  0.2507  1.9908  0.4425
   53MOL0     H 6996  11.510   8.925   6.236 -1.1283  1.9795  2.4043
   54MOL0     O 6997   4.188   8.352   5.105  0.3241 -0.6659 -1.0253
   54MOL0     C 6998   4.252   8.259   5.063 -0.3204  0.0489  0.1521
   54MOL0     O 6999   4.205   8.139   5.034  0.7209 -0.3402 -0.2292
   54MOL0     C 7000   4.067   8.130   5.040  0.0085 -0.8313  0.0992
   54MOL0     C 7001   3.984   8.155   4.925  0.6834 -0.0616 -0.7604
   54MOL0     C 7002   3.848   8.123   4.928 -0.3686 -0.9409 -0.3949
   54MOL0     C 7003   3.784   8.084   5.050 -0.1346 -0.5676  0.5779
   54MOL0     O 7004   3.648   8.062   5.056 -0.8481 -0.5750  0.2840
   54MOL0     C 7005   3.615   7.925   5.034 -0.1929 -0.6794 -0.3459
   54MOL0     C 7006   3.491   7.923   4.943 -0.2220  0.2559 -0.0587
   54MOL0     C 7007   3.432   7.778   4.943 -0.2839 -0.1288  0.1327
   54MOL0     C 7008   3.284   7.779   4.901 -0.3061 -0.3137  0.4138
   54MOL0     C 7009   3.257   7.844   4.763 -0.2210  0.3058  0.4969
   54MOL0     C 7010   3.236   7.765   4.628  0.5268 -0.3968  0.3963
   54MOL0     C 7011   3.207   7.862   4.518 -0.6546 -0.2160  0.1368
   54MOL0     C 7012   3.220   7.796   4.373  0.3629 -0.1147  0.0602
   54MOL0     N 7013   3.126   7.680   4.350  0.1721  0.1152 -0.2427
   54MOL0     C 7014   3.001   7.659   4.415 -0.1058 -0.7330  0.1164
   54MOL0     C 7015   2.958   7.546   4.364  0.6338  0.0619  0.2215
   54MOL0     C 7016   2.816   7.497   4.371  0.2678 -0.5838 -0.5589
   54MOL0     C 7017   2.776   7.449   4.509 -0.3704 -0.4356  0.7234
   54MOL0     C 7018   2.675   7.331   4.505 -0.0009 -0.8579  0.8551
   54MOL0     C 7019   2.615   7.327   4.642  0.3591  0.5780 -0.3070
   54MOL0     O 7020   2.551   7.201   4.659  0.3700  0.2819  0.3764
   54MOL0     C 7021   2.418   7.173   4.622 -0.1257 -0.3287 -0.2979
   54MOL0     C 7022   2.315   7.270   4.620 -0.4154  0.2504  0.5698
   54MOL0     C 7023   2.183   7.234   4.593  0.0482 -0.8601  0.0854
   54MOL0     C 7024   2.146   7.102   4.581 -0.3608 -0.3551 -0.9973
   54MOL0     C 7025   2.009   7.054   4.556  0.2751 -0.2230  0.2286
   54MOL0     O 7026   1.912   7.150   4.544 -0.1642  0.0416  0.3523
   54MOL0     C 7027   1.777   7.119   4.531 -0.3202 -0.7913  1.0486
   54MOL0     C 7028   1.698   7.180   4.435  1.3169 -0.3123 -0.1707
   54MOL0     C 7029   1.559   7.155   4.431  0.5343 -0.0115  0.0173
   54MOL0     C 7030   1.499   7.081   4.532  0.2506  0.2152 -0.7792
   54MOL0     O 7031   1.360   7.058   4.551 -0.5845 -0.0599  0.1313
   54MOL0     C 7032   1.288   7.051   4.435  0.9025  1.0846  0.3257
   54MOL0     C 7033   1.152   6.987   4.477 -0.2856 -0.1363 -0.3505
   54MOL0     C 7034   1.063   6.951   4.361  0.0802 -0.5612 -0.3520
   54MOL0     C 7035   0.935   6.863   4.401 -0.5348  0.4960 -0.8259
   54MOL0     C 7036   0.884   6.769   4.289 -0.1007 -0.8871 -0.2895
   54MOL0     C 7037   0.962   6.638   4.248  0.0357  0.5835 -0.0885
   54MOL0     C 7038   1.092   6.657   4.164 -0.1767 -0.1702 -0.1694
   54MOL0     C 7039   1.130   6.540   4.080 -0.1981 -0.2113 -0.2131
   54MOL0    Cl 7040   1.149   6.382   4.177 -0.0414 -0.2655  0.2751
   54MOL0     C 7041   1.583   7.024   4.630  0.3885 -0.5670 -0.3116
   54MOL0     C 7042   1.724   7.041   4.627  0.9701 -0.0894  0.8565
   54MOL0     O 7043   1.997   6.932   4.536 -0.0313  0.3845 -0.5060
   54MOL0     C 7044   2.253   7.007   4.583  0.0950 -0.2204  0.1636
   54MOL0     C 7045   2.382   7.048   4.598  0.6092  0.5647  0.1490
   54MOL0     N 7046   3.057   7.487   4.288  0.1612 -0.3385 -0.0686
   54MOL0     N 7047   3.161   7.562   4.290 -0.9806 -0.0031 -0.6004
   54MOL0     C 7048   3.863   8.054   5.165 -0.4233 -0.2480  0.0285
   54MOL0     C 7049   4.001   8.087   5.161  0.5769 -0.7766  1.1022
   54MOL0     C 7050   4.402   8.257   5.072  0.5455 -0.2988 -1.5058
   54MOL0     C 7051   4.467   8.352   5.157 -0.1341  0.5734 -0.8564
   54MOL0     C 7052   4.607   8.353   5.158 -0.3436  0.7229  0.1631
   54MOL0     C 7053   4.670   8.243   5.097  0.0659 -0.1498  0.2196
   54MOL0     O 7054   4.808   8.250   5.114 -0.4189 -0.2722 -0.7828
   54MOL0     C 7055   4.880   8.133   5.063 -0.2586  0.0190 -0.0030
   54MOL0     C 7056   5.021   8.142   5.091  0.4014  0.4875  0.0918
   54MOL0     C 7057   5.057   8.133   5.240  0.0482  0.3279  0.0826
   54MOL0     C 7058   5.211   8.141   5.251 -0.0050  0.2894  0.5679
   54MOL0     C 7059   5.279   8.056   5.348 -0.4850 -1.3130  0.6249
   54MOL0     C 7060   5.329   7.989   5.433  0.4939 -0.1395 -0.9513
   54MOL0     C 7061   4.602   8.151   5.013 -0.1314 -0.1284 -0.2201
   54MOL0     C 7062   4.466   8.169   5.000 -0.1220 -0.8591 -0.9264
   54MOL0     H 7063   4.031   8.192   4.834  0.2466 -0.3830 -1.1232
   54MOL0     H 7064   3.784   8.140   4.842  0.7387  0.0978 -1.0304
   54MOL0     H 7065   3.590   7.874   5.127  2.6046  1.6049  1.8410
   54MOL0     H 7066   3.688   7.860   4.985 -0.0215 -0.1474 -0.8118
   54MOL0     H 7067   3.509   7.942   4.836  2.8376 -1.0896  0.1231
   54MOL0     H 7068   3.420   7.993   4.988 -1.5650 -1.4011  0.4748
   54MOL0     H 7069   3.434   7.728   5.041  1.3690  2.2404  1.4134
   54MOL0     H 7070   3.488   7.721   4.868  0.4180  0.3074  0.3120
   54MOL0     H 7071   3.246   7.677   4.903  1.2690 -0.9444  0.1005
   54MOL0     H 7072   3.231   7.827   4.983  1.7319  0.3231  1.4475
   54MOL0     H 7073   3.336   7.918   4.748  0.7739 -0.7646  0.3477
   54MOL0     H 7074   3.155   7.882   4.776  0.4865  2.8423 -0.5769
   54MOL0     H 7075   3.162   7.687   4.648  1.2498 -1.1374  0.2546
   54MOL0     H 7076   3.323   7.705   4.600 -0.0533 -0.8749 -0.3956
   54MOL0     H 7077   3.113   7.913   4.538 -0.8265  0.0277 -1.1702
   54MOL0     H 7078   3.284   7.939   4.513 -0.3075 -0.3435  2.5817
   54MOL0     H 7079   3.320   7.752   4.370  1.3509  1.9594  0.8158
   54MOL0     H 7080   3.217   7.871   4.293  0.5478  1.3472  1.3685
   54MOL0     H 7081   2.944   7.727   4.477  1.5701 -1.3238  2.4428
   54MOL0     H 7082   2.811   7.422   4.291  0.3264 -0.9737 -0.2007
   54MOL0     H 7083   2.761   7.585   4.337  2.2674 -0.3528 -3.5830
   54MOL0     H 7084   2.738   7.534   4.567 -1.8171 -0.7475  0.2721
   54MOL0     H 7085   2.872   7.417   4.551  0.8634  2.5766  0.4880
   54MOL0     H 7086   2.602   7.340   4.424  2.0342 -2.5030 -1.3204
   54MOL0     H 7087   2.726   7.238   4.479  0.6063 -0.2748 -0.1151
   54MOL0     H 7088   2.541   7.406   4.657  0.0104  0.2387 -0.2156
   54MOL0     H 7089   2.699   7.324   4.712  0.5510 -1.9069 -0.5410
   54MOL0     H 7090   2.330   7.373   4.649 -1.4539  0.9979 -1.3374
   54MOL0     H 7091   2.106   7.311   4.588  1.1176  0.2349  0.2721
   54MOL0     H 7092   1.751   7.233   4.357 -0.4901  1.1873 -0.4629
   54MOL0     H 7093   1.505   7.191   4.344  0.0233 -0.4480  0.1482
   54MOL0     H 7094   1.344   6.989   4.365 -0.9499 -1.4836  0.9752
   54MOL0     H 7095   1.280   7.150   4.391  0.3544  0.9330  0.0846
   54MOL0     H 7096   1.105   7.066   4.536  0.7029  1.3566 -1.4892
   54MOL0     H 7097   1.178   6.896   4.532 -0.2410  0.3279  0.4121
   54MOL0     H 7098   1.119   6.889   4.290 -0.1413 -1.4216  0.2046
   54MOL0     H 7099   1.038   7.042   4.306  1.6715  0.1206 -0.0100
   54MOL0     H 7100   0.958   6.814   4.496 -3.2196  2.1803  0.8356
   54MOL0     H 7101   0.856   6.934   4.426  1.2423  2.2827 -0.0776
   54MOL0     H 7102   0.871   6.828   4.197 -1.5365  1.6106  1.3850
   54MOL0     H 7103   0.788   6.731   4.326 -0.6665  1.5712  0.9700
   54MOL0     H 7104   0.887   6.584   4.189  0.9683  1.4019 -2.1346
   54MOL0     H 7105   0.995   6.573   4.329  2.5452  0.9102 -0.7531
   54MOL0     H 7106   1.072   6.743   4.099 -0.5716  0.3862  0.6706
   54MOL0     H 7107   1.166   6.693   4.235 -0.3123 -0.5174  0.1550
   54MOL0     H 7108   1.228   6.566   4.040 -0.0495 -1.6087 -0.8190
   54MOL0     H 7109   1.079   6.522   3.985  0.9663  0.3145 -0.9685
   54MOL0     H 7110   1.531   6.962   4.703 -1.1610  2.5976  1.4647
   54MOL0     H 7111   1.777   6.986   4.703  2.2796 -0.4044 -0.2336
   54MOL0     H 7112   2.236   6.903   4.558  2.6906 -0.8269  0.6508
   54MOL0     H 7113   2.466   6.981   4.582 -1.9793 -2.7114 -0.8293
   54MOL0     H 7114   3.805   8.015   5.248 -0.7385 -1.2674 -0.6507
   54MOL0     H 7115   4.058   8.070   5.252  1.1647 -0.0025  0.8845
   54MOL0     H 7116   4.423   8.429   5.221  1.1307  2.0000 -1.6248
   54MOL0     H 7117   4.669   8.417   5.220  2.0737  0.5788 -1.9210
   54MOL0     H 7118   4.868   8.128   4.955  2.0221  0.4611 -0.3381
   54MOL0     H 7119   4.842   8.045   5.115  0.4512  1.1031  2.4869
   54MOL0     H 7120   5.072   8.070   5.027 -2.8630 -0.9701 -1.0808
   54MOL0     H 7121   5.060   8.239   5.059 -0.5168  0.0714 -2.4907
   54MOL0     H 7122   5.037   8.031   5.275  2.5566  0.1018  1.0591
   54MOL0     H 7123   5.002   8.206   5.299 -2.2506 -0.6355 -0.7168
   54MOL0     H 7124   5.247   8.125   5.149 -2.4235  0.9250 -0.4622
   54MOL0     H 7125   5.231   8.244   5.279 -0.0158  0.0170  1.6182
   54MOL0     H 7126   5.377   7.936   5.513  0.5581  0.5896 -0.4997
   54MOL0     H 7127   4.650   8.065   4.967  0.6503 -1.6829  3.1359
   54MOL0     H 7128   4.413   8.097   4.939 -0.5934 -1.0927 -0.2516
   55MOL0     O 7129   6.491   2.775   1.503 -0.7584  0.1214 -0.8792
   55MOL0     C 7130   6.472   2.707   1.401 -0.2628 -0.2260  0.3856
   55MOL0     O 7131   6.354   2.686   1.333 -0.0739 -0.3463  0.3852
   55MOL0     C 7132   6.239   2.758   1.358  0.0476  0.3353 -0.7106
   55MOL0     C 7133   6.111   2.699   1.333 -0.7197 -0.2770 -0.7374
   55MOL0     C 7134   5.992   2.764   1.358  0.6471 -0.2530  0.8647
   55MOL0     C 7135   5.995   2.897   1.401 -0.0212  0.7519 -0.4048
   55MOL0     O 7136   5.893   2.985   1.396 -0.1144  0.1269 -0.6683
   55MOL0     C 7137   5.754   2.939   1.398  0.7011 -0.0431  0.4000
   55MOL0     C 7138   5.671   3.064   1.398  0.3302 -0.4750  0.6628
   55MOL0     C 7139   5.522   3.036   1.374  0.4318 -0.3523  0.1740
   55MOL0     C 7140   5.448   3.167   1.418  0.0415  0.2713 -0.8213
   55MOL0     C 7141   5.307   3.159   1.360 -0.1472  0.1171  0.4820
   55MOL0     C 7142   5.202   3.099   1.456 -0.2285  0.0902 -0.3174
   55MOL0     C 7143   5.064   3.136   1.395  0.0875 -0.3237 -0.1212
   55MOL0     C 7144   4.952   3.072   1.484  0.0149  0.3547  0.3575
   55MOL0     N 7145   4.824   3.061   1.411 -0.2903 -0.0129  0.6895
   55MOL0     C 7146   4.808   2.972   1.305 -0.3017 -0.5129  0.4594
   55MOL0     C 7147   4.689   3.006   1.250 -0.5185 -0.1410  0.3964
   55MOL0     C 7148   4.618   2.949   1.131  1.4232  0.2623  0.2199
   55MOL0     C 7149   4.520   2.833   1.164  0.1603 -0.6383  0.5473
   55MOL0     C 7150   4.419   2.868   1.273 -0.1054 -0.6112 -0.0912
   55MOL0     C 7151   4.280   2.798   1.259 -0.4283  0.0925 -0.0725
   55MOL0     O 7152   4.272   2.650   1.251 -0.2993 -0.4318 -0.3354
   55MOL0     C 7153   4.152   2.578   1.251  0.6332  0.8444  0.0179
   55MOL0     C 7154   4.023   2.632   1.225 -0.5181 -0.8220 -1.0850
   55MOL0     C 7155   3.908   2.561   1.198  0.8353 -0.1863  0.6021
   55MOL0     C 7156   3.917   2.417   1.219 -0.1569 -0.2460  0.2293
   55MOL0     C 7157   3.795   2.329   1.204  0.1851  1.3027  0.2364
   55MOL0     O 7158   3.683   2.377   1.139 -0.1930 -0.1890 -0.6976
   55MOL0     C 7159   3.574   2.299   1.122 -0.3269 -0.4991  0.0554
   55MOL0     C 7160   3.444   2.343   1.150  0.5284  0.0293  0.6356
   55MOL0     C 7161   3.331   2.260   1.126 -0.4581 -0.7991 -0.7141
   55MOL0     C 7162   3.345   2.128   1.083 -0.1653 -0.1765  0.4791
   55MOL0     O 7163   3.240   2.048   1.039  0.0630  0.5185 -0.5065
   55MOL0     C 7164   3.157   2.107   0.946 -0.1193 -0.2915  0.2953
   55MOL0     C 7165   3.050   2.004   0.901 -0.3047  0.1957 -0.6754
   55MOL0     C 7166   2.965   2.047   0.784 -0.3965  0.0696 -0.4709
   55MOL0     C 7167   2.859   1.946   0.743 -1.2880  0.4215 -0.1796
   55MOL0     C 7168   2.819   1.974   0.594 -1.2054 -0.5847  0.2679
   55MOL0     C 7169   2.723   1.862   0.545 -0.4421  0.6592 -0.3959
   55MOL0     C 7170   2.603   1.925   0.467 -0.3600 -0.2007 -0.0934
   55MOL0     C 7171   2.627   1.976   0.328  0.0252  0.7090  0.1218
   55MOL0    Cl 7172   2.744   1.872   0.231 -0.1873  0.3402  0.3013
   55MOL0     C 7173   3.476   2.083   1.055  1.0498  0.1920 -0.1902
   55MOL0     C 7174   3.583   2.169   1.074  0.0012  0.1231  0.1466
   55MOL0     O 7175   3.809   2.215   1.238  0.9904  0.6741 -0.1605
   55MOL0     C 7176   4.038   2.364   1.248  1.0140  0.0072  0.8003
   55MOL0     C 7177   4.162   2.436   1.258 -0.1296 -0.3180 -0.1653
   55MOL0     N 7178   4.644   3.115   1.323 -0.5026  0.3381  0.6196
   55MOL0     N 7179   4.720   3.147   1.419  0.1550 -0.4283  0.5305
   55MOL0     C 7180   6.118   2.953   1.444 -0.6308  0.2036  0.4830
   55MOL0     C 7181   6.237   2.887   1.412  0.5090  0.4161 -0.0339
   55MOL0     C 7182   6.598   2.627   1.343  1.1311 -0.3871 -0.6451
   55MOL0     C 7183   6.579   2.536   1.237 -0.0318  1.0859 -0.0670
   55MOL0     C 7184   6.688   2.456   1.193  0.1508  0.2374  0.2176
   55MOL0     C 7185   6.815   2.460   1.249  0.3853 -0.4665  0.4308
   55MOL0     O 7186   6.913   2.393   1.182 -0.6251  0.1671 -0.3294
   55MOL0     C 7187   7.050   2.397   1.222 -0.5832 -0.5354  0.7696
   55MOL0     C 7188   7.124   2.260   1.191  0.5889 -0.0540 -0.5111
   55MOL0     C 7189   7.106   2.211   1.048  0.2424 -0.6990 -1.3276
   55MOL0     C 7190   7.183   2.081   1.044 -0.3086  0.0132 -1.0834
   55MOL0     C 7191   7.149   2.011   0.922  0.0935 -0.0064  0.8810
   55MOL0     C 7192   7.120   1.964   0.815  0.5926  0.4101 -0.3665
   55MOL0     C 7193   6.831   2.551   1.352 -0.0174  0.3607  0.0719
   55MOL0     C 7194   6.726   2.631   1.400 -0.4707  0.2881  0.3061
   55MOL0     H 7195   6.100   2.601   1.289 -1.9198 -0.2777 -0.4713
   55MOL0     H 7196   5.898   2.719   1.327  0.0720  0.5095  1.4842
   55MOL0     H 7197   5.727   2.876   1.484 -1.0213  1.2525  0.8615
   55MOL0     H 7198   5.739   2.877   1.309  1.5100  0.8196 -0.3500
   55MOL0     H 7199   5.699   3.143   1.327  1.1161  1.7396  3.2735
   55MOL0     H 7200   5.678   3.100   1.501 -1.0077  2.3431 -0.1099
   55MOL0     H 7201   5.495   2.955   1.443  0.3551 -0.4278  0.0557
   55MOL0     H 7202   5.493   3.006   1.273  0.6472 -0.2987  0.0941
   55MOL0     H 7203   5.447   3.175   1.527  1.7313 -0.9603 -0.6793
   55MOL0     H 7204   5.505   3.251   1.378  1.9040 -2.0071 -3.3157
   55MOL0     H 7205   5.301   3.110   1.263 -1.4215  2.2744 -0.5985
   55MOL0     H 7206   5.274   3.263   1.349  2.0767  0.7288 -0.9699
   55MOL0     H 7207   5.214   3.122   1.563  0.4648 -0.3661 -0.2890
   55MOL0     H 7208   5.214   2.991   1.451  1.1655  0.2771 -1.7266
   55MOL0     H 7209   5.061   3.245   1.379 -0.8001 -0.3743 -0.3095
   55MOL0     H 7210   5.055   3.099   1.293 -2.0254 -0.6236  0.1329
   55MOL0     H 7211   4.930   3.148   1.560 -0.6095 -2.3603  3.0490
   55MOL0     H 7212   4.983   2.976   1.524  0.1353 -0.9345 -2.5467
   55MOL0     H 7213   4.868   2.894   1.258 -0.1416 -1.1336  1.6674
   55MOL0     H 7214   4.690   2.917   1.055  1.8085 -0.0041  0.6954
   55MOL0     H 7215   4.561   3.028   1.081  0.9134 -1.3532 -1.9011
   55MOL0     H 7216   4.572   2.741   1.195 -0.7492 -1.0985  0.7297
   55MOL0     H 7217   4.465   2.817   1.071 -1.0661  0.9341  0.9658
   55MOL0     H 7218   4.445   2.843   1.377 -0.7437  0.8832  0.4626
   55MOL0     H 7219   4.405   2.977   1.270 -0.7377 -0.5718  2.2716
   55MOL0     H 7220   4.242   2.838   1.164  0.5446  0.8522 -0.1611
   55MOL0     H 7221   4.212   2.829   1.338 -1.5966 -0.8450 -0.6747
   55MOL0     H 7222   4.024   2.741   1.221  0.1712 -0.7193  0.8978
   55MOL0     H 7223   3.820   2.606   1.153  0.6759 -0.1678  0.9262
   55MOL0     H 7224   3.437   2.447   1.181  0.5943 -0.1707  1.3359
   55MOL0     H 7225   3.230   2.299   1.141 -0.4263 -0.4360 -1.3869
   55MOL0     H 7226   3.219   2.141   0.863  1.7138  0.0235  1.7313
   55MOL0     H 7227   3.102   2.190   0.991  0.4073  0.8543 -1.0881
   55MOL0     H 7228   2.983   1.993   0.987 -1.1546 -0.9884 -1.4587
   55MOL0     H 7229   3.090   1.903   0.888 -0.8470 -0.2158  0.6612
   55MOL0     H 7230   3.032   2.060   0.699  1.0428 -1.4615  0.3558
   55MOL0     H 7231   2.928   2.148   0.807  2.0459  0.2073  3.9925
   55MOL0     H 7232   2.900   1.845   0.744 -0.9094  0.5352 -1.7283
   55MOL0     H 7233   2.765   1.957   0.797 -2.1576  3.0201 -2.0023
   55MOL0     H 7234   2.909   1.963   0.533 -2.2241 -0.0867 -1.3848
   55MOL0     H 7235   2.794   2.079   0.577  4.0566  0.9755  0.3121
   55MOL0     H 7236   2.682   1.820   0.637 -2.6758 -0.9870 -2.0152
   55MOL0     H 7237   2.755   1.779   0.481 -1.1240  0.2820 -0.2576
   55MOL0     H 7238   2.521   1.852   0.465 -0.0157 -0.5718 -0.8666
   55MOL0     H 7239   2.566   2.006   0.530 -0.7834 -0.5338  0.0948
   55MOL0     H 7240   2.663   2.079   0.340 -2.9265  1.4921  4.3026
   55MOL0     H 7241   2.537   1.963   0.267  0.4104 -2.1029  0.0257
   55MOL0     H 7242   3.492   1.982   1.019  0.2988  0.1597 -0.4406
   55MOL0     H 7243   3.684   2.132   1.057 -0.4438 -0.6098 -1.0190
   55MOL0     H 7244   4.053   2.259   1.275 -1.0658 -1.4758 -2.9737
   55MOL0     H 7245   4.258   2.386   1.260  0.4782  0.6122 -2.9479
   55MOL0     H 7246   6.126   3.053   1.485 -1.1045  0.1170  0.7939
   55MOL0     H 7247   6.318   2.954   1.439  0.9158 -0.5065  1.1429
   55MOL0     H 7248   6.485   2.525   1.183 -0.3796 -1.5454  0.9171
   55MOL0     H 7249   6.680   2.389   1.108  4.3236 -0.4393  0.1517
   55MOL0     H 7250   7.059   2.399   1.331 -1.9502  2.5952  0.9182
   55MOL0     H 7251   7.099   2.478   1.168 -1.4899 -1.0535 -0.8953
   55MOL0     H 7252   7.230   2.273   1.216  1.1707  1.6587 -3.4372
   55MOL0     H 7253   7.082   2.187   1.261 -1.8281  0.9865 -0.7911
   55MOL0     H 7254   7.145   2.293   0.988 -1.3703  1.6629  0.6413
   55MOL0     H 7255   7.000   2.190   1.027  0.2721 -0.3863 -1.7945
   55MOL0     H 7256   7.291   2.083   1.061 -0.5674  1.9839  0.8409
   55MOL0     H 7257   7.151   2.026   1.133  2.2745  1.4662  0.9033
   55MOL0     H 7258   7.091   1.915   0.725 -2.2744 -0.8088  1.0824
   55MOL0     H 7259   6.921   2.563   1.411  0.5475 -1.0836 -0.4460
   55MOL0     H 7260   6.743   2.685   1.492  0.3400  1.2234 -0.3760
   56MOL0     O 7261   6.324   6.322   7.779 -0.8750 -0.4254 -0.1902
   56MOL0     C 7262   6.342   6.198   7.784 -0.6991 -0.4053 -0.7775
   56MOL0     O 7263   6.246   6.103   7.822  0.1487  0.2341  1.2675
   56MOL0     C 7264   6.124   6.142   7.854  0.1661 -0.2663  0.6298
   56MOL0     C 7265   6.047   6.233   7.785 -0.0459  0.1847  0.7719
   56MOL0     C 7266   5.914   6.245   7.809 -0.3421  0.5509 -0.0481
   56MOL0     C 7267   5.855   6.168   7.908  0.3840 -0.3631  0.3575
   56MOL0     O 7268   5.716   6.177   7.924 -0.2839 -0.2343  0.5036
   56MOL0     C 7269   5.655   6.093   8.022 -0.5566  0.0541 -0.3338
   56MOL0     C 7270   5.507   6.138   8.023 -0.2663  0.2821  0.6482
   56MOL0     C 7271   5.446   6.103   7.896  0.3696  0.9427  0.9176
   56MOL0     C 7272   5.306   6.153   7.890  0.3817 -0.1382  0.1953
   56MOL0     C 7273   5.238   6.118   7.759  0.4591 -0.0277 -0.3350
   56MOL0     C 7274   5.087   6.148   7.777  0.2167  1.0048  0.9152
   56MOL0     C 7275   5.015   6.117   7.641 -1.0388  0.4167 -0.0068
   56MOL0     C 7276   4.882   6.197   7.609 -0.2475  0.8609  0.1857
   56MOL0     N 7277   4.782   6.143   7.698  0.5838 -0.2582  0.5586
   56MOL0     C 7278   4.739   6.006   7.716 -0.1870 -0.4060 -0.0031
   56MOL0     C 7279   4.657   6.009   7.820  0.6272  0.0154 -0.3150
   56MOL0     C 7280   4.567   5.895   7.879  0.3512  0.4782  0.0792
   56MOL0     C 7281   4.424   5.934   7.884  0.2440 -0.1474 -0.7543
   56MOL0     C 7282   4.323   5.834   7.944 -1.2482 -0.1982  0.0913
   56MOL0     C 7283   4.185   5.893   7.953 -0.1202  1.1896  0.6147
   56MOL0     O 7284   4.105   5.788   8.019 -0.2631  0.2328 -0.0833
   56MOL0     C 7285   3.969   5.789   8.001  0.1011 -1.1001  0.1484
   56MOL0     C 7286   3.893   5.888   7.935 -0.1258  0.5797 -0.3647
   56MOL0     C 7287   3.752   5.879   7.925  0.0336  0.1802  0.2962
   56MOL0     C 7288   3.686   5.773   7.975  0.0523  0.6848  0.4907
   56MOL0     C 7289   3.539   5.769   7.952 -0.4229 -0.1489 -0.2729
   56MOL0     O 7290   3.469   5.681   8.023  0.9295 -0.2480  0.2388
   56MOL0     C 7291   3.332   5.675   8.003 -0.0280 -0.8148 -0.4662
   56MOL0     C 7292   3.254   5.757   8.082  0.6505  0.0125 -0.2948
   56MOL0     C 7293   3.119   5.754   8.072  0.4975  0.0031 -0.4803
   56MOL0     C 7294   3.049   5.670   7.985  0.1319  0.6259  0.5424
   56MOL0     O 7295   2.910   5.673   7.983 -0.7617 -0.1560  0.4311
   56MOL0     C 7296   2.853   5.619   7.860 -0.0626 -0.3814  0.1434
   56MOL0     C 7297   2.702   5.634   7.846 -0.1058 -0.3097  0.3854
   56MOL0     C 7298   2.649   5.550   7.726 -0.9761 -0.2764  0.7045
   56MOL0     C 7299   2.497   5.562   7.710  0.8749  0.3985  0.1326
   56MOL0     C 7300   2.422   5.449   7.788 -0.7728 -0.4431 -0.4272
   56MOL0     C 7301   2.272   5.467   7.768 -0.2348 -0.2992  0.9151
   56MOL0     C 7302   2.205   5.343   7.816 -0.3003 -1.5907  0.7331
   56MOL0     C 7303   2.054   5.364   7.812  0.0821  0.6366  0.3420
   56MOL0    Cl 7304   1.975   5.446   7.947 -0.9180 -0.1447 -0.0292
   56MOL0     C 7305   3.126   5.593   7.893 -0.2911 -0.4442 -0.1499
   56MOL0     C 7306   3.269   5.595   7.906 -0.3892 -0.0175 -0.3944
   56MOL0     O 7307   3.497   5.847   7.860  0.1993  0.1082 -0.3923
   56MOL0     C 7308   3.758   5.669   8.046  0.3040 -0.2433 -0.0647
   56MOL0     C 7309   3.894   5.686   8.055 -0.0989 -0.5172 -0.9135
   56MOL0     N 7310   4.650   6.145   7.865  0.4177  1.0482  0.2676
   56MOL0     N 7311   4.720   6.223   7.789  0.1825  0.0091 -0.1118
   56MOL0     C 7312   5.941   6.094   7.991 -0.3432 -0.1242 -0.3894
   56MOL0     C 7313   6.069   6.064   7.956 -0.4504 -0.5667  0.5907
   56MOL0     C 7314   6.481   6.159   7.747  0.6675  0.6131 -0.3707
   56MOL0     C 7315   6.497   6.030   7.696 -1.1869 -0.6096  0.2616
   56MOL0     C 7316   6.628   5.983   7.684 -0.5535 -0.0462 -0.9404
   56MOL0     C 7317   6.742   6.055   7.728 -0.3021 -0.0229 -0.2630
   56MOL0     O 7318   6.865   5.993   7.722  0.4183  0.2255  0.2187
   56MOL0     C 7319   6.978   6.069   7.767 -0.4998  0.2397  0.0941
   56MOL0     C 7320   7.110   5.990   7.767  0.2275  1.0461 -0.3089
   56MOL0     C 7321   7.138   5.925   7.626  0.7304 -0.4991 -0.1681
   56MOL0     C 7322   7.256   5.985   7.561 -0.6241 -0.0330  0.3476
   56MOL0     C 7323   7.225   6.120   7.509 -0.2638 -0.9767 -0.6042
   56MOL0     C 7324   7.203   6.227   7.454  0.1793 -0.3047  0.1639
   56MOL0     C 7325   6.713   6.185   7.792 -0.3179 -0.3087 -0.5378
   56MOL0     C 7326   6.588   6.234   7.797  0.9959  0.7904  0.1344
   56MOL0     H 7327   6.083   6.296   7.704 -0.1221 -1.3128 -0.4636
   56MOL0     H 7328   5.847   6.304   7.748  0.2911  3.1448  1.6353
   56MOL0     H 7329   5.688   6.111   8.125 -1.2915  0.5846 -0.1821
   56MOL0     H 7330   5.663   5.986   8.003  1.3303 -0.0243  0.6586
   56MOL0     H 7331   5.497   6.246   8.033 -2.1054  0.4344 -1.8950
   56MOL0     H 7332   5.451   6.094   8.107 -1.0479 -0.6923 -0.3463
   56MOL0     H 7333   5.445   5.996   7.874  1.5128  1.4783 -2.2321
   56MOL0     H 7334   5.497   6.160   7.818  0.2207  1.0660  0.9094
   56MOL0     H 7335   5.261   6.114   7.982 -0.0323  1.4923  0.7295
   56MOL0     H 7336   5.306   6.263   7.892 -0.5814 -0.0475 -1.9459
   56MOL0     H 7337   5.257   6.013   7.736 -1.2163 -0.7029  1.0931
   56MOL0     H 7338   5.277   6.175   7.675 -0.6632 -0.5740 -1.2564
   56MOL0     H 7339   5.077   6.254   7.800 -2.0448  1.2882 -1.0144
   56MOL0     H 7340   5.033   6.084   7.847 -2.7031 -0.3608 -2.2999
   56MOL0     H 7341   5.087   6.138   7.561 -1.4820  1.6712 -0.1032
   56MOL0     H 7342   5.003   6.009   7.630  2.7138 -0.2128  0.7548
   56MOL0     H 7343   4.846   6.177   7.507  0.3283 -1.3342  0.3568
   56MOL0     H 7344   4.893   6.303   7.632  1.0091  0.6360  0.6666
   56MOL0     H 7345   4.772   5.915   7.667 -2.1308 -0.4371 -1.3493
   56MOL0     H 7346   4.599   5.868   7.980  0.0062 -1.0163 -0.1734
   56MOL0     H 7347   4.579   5.805   7.817  1.9588  1.1095 -0.5721
   56MOL0     H 7348   4.405   5.973   7.783 -1.4248  1.9459  0.2867
   56MOL0     H 7349   4.417   6.018   7.954  1.0374  0.7983 -1.7636
   56MOL0     H 7350   4.327   5.745   7.880  2.2157 -1.1650  1.4630
   56MOL0     H 7351   4.352   5.809   8.046 -2.1515  1.1870  0.7174
   56MOL0     H 7352   4.144   5.910   7.853 -0.6269 -2.0929  0.1416
   56MOL0     H 7353   4.180   5.991   8.000  2.3845  1.6375  0.0997
   56MOL0     H 7354   3.939   5.976   7.889 -1.4914  1.7587  0.4350
   56MOL0     H 7355   3.702   5.944   7.854 -0.9687  0.0581  0.8693
   56MOL0     H 7356   3.291   5.837   8.145 -1.9184 -0.2374  1.6971
   56MOL0     H 7357   3.056   5.819   8.132  1.7037  1.0630 -0.3186
   56MOL0     H 7358   2.867   5.511   7.864 -0.2996 -0.4503 -0.6830
   56MOL0     H 7359   2.904   5.666   7.775 -2.3623  0.8521 -0.6445
   56MOL0     H 7360   2.689   5.737   7.813  0.8389  0.3860  2.0625
   56MOL0     H 7361   2.655   5.616   7.943 -1.9993  0.9952 -0.2469
   56MOL0     H 7362   2.683   5.446   7.728  0.0108  0.0095 -0.0471
   56MOL0     H 7363   2.698   5.599   7.641 -1.2569  0.9299  1.2136
   56MOL0     H 7364   2.461   5.661   7.740 -2.8923 -0.6091 -0.5260
   56MOL0     H 7365   2.473   5.550   7.604  2.2733  1.0429 -0.2904
   56MOL0     H 7366   2.434   5.463   7.896 -1.1013  1.8911 -0.6349
   56MOL0     H 7367   2.459   5.348   7.768 -0.6969 -0.6392  0.6571
   56MOL0     H 7368   2.257   5.482   7.660  1.1661  3.4731  1.0552
   56MOL0     H 7369   2.236   5.559   7.816 -3.0653 -1.2025  0.6879
   56MOL0     H 7370   2.231   5.263   7.746 -1.2934 -2.2101  1.0487
   56MOL0     H 7371   2.233   5.332   7.921 -1.0544 -2.2048  0.8828
   56MOL0     H 7372   2.006   5.266   7.815 -0.6861  1.0406  2.3225
   56MOL0     H 7373   2.016   5.419   7.725 -1.6335 -0.5355  0.2987
   56MOL0     H 7374   3.080   5.529   7.819 -0.8649  0.3592 -0.4957
   56MOL0     H 7375   3.333   5.532   7.845 -1.7130 -1.0692 -0.7475
   56MOL0     H 7376   3.711   5.586   8.097 -0.8504  1.1475  1.1997
   56MOL0     H 7377   3.956   5.614   8.107  0.2882  0.4621  0.0159
   56MOL0     H 7378   5.895   6.041   8.073 -0.7680 -1.1199 -1.2444
   56MOL0     H 7379   6.127   5.994   8.015  1.4783  0.8301  0.4517
   56MOL0     H 7380   6.413   5.963   7.679 -0.9168 -1.3432  1.6451
   56MOL0     H 7381   6.660   5.883   7.654  1.4417 -1.2720  4.2884
   56MOL0     H 7382   6.964   6.118   7.864 -0.1863  1.1509 -0.3088
   56MOL0     H 7383   6.999   6.155   7.702  1.4912  0.3657  0.8028
   56MOL0     H 7384   7.193   6.049   7.806  0.2441 -0.4913  2.2336
   56MOL0     H 7385   7.097   5.909   7.840 -2.4703  0.7014 -1.0686
   56MOL0     H 7386   7.046   5.905   7.570  0.4458 -0.5957  0.3227
   56MOL0     H 7387   7.169   5.823   7.650  1.0742 -0.5690 -0.8955
   56MOL0     H 7388   7.338   5.998   7.633  0.4325 -0.8551 -0.6835
   56MOL0     H 7389   7.291   5.931   7.473  1.4117  2.7824 -0.7202
   56MOL0     H 7390   7.202   6.316   7.395  0.8272  0.5352  1.3787
   56MOL0     H 7391   6.788   6.247   7.842  1.8224 -2.6891 -0.5562
   56MOL0     H 7392   6.575   6.327   7.852  1.4747  0.9903 -0.0846
   57MOL0     O 7393   0.931   7.896  10.556  0.6786  0.3362  0.3631
   57MOL0     C 7394   0.925   7.982  10.647  0.7825  0.0897  0.8255
   57MOL0     O 7395   0.805   8.047  10.673 -0.0570 -0.6557 -0.0709
   57MOL0     C 7396   0.678   8.010  10.622 -0.8128 -0.5480  1.0268
   57MOL0     C 7397   0.573   7.981  10.709  0.3737  0.2664 -0.4288
   57MOL0     C 7398   0.440   7.956  10.662 -0.1893  1.0364 -0.0903
   57MOL0     C 7399   0.413   7.965  10.521 -0.2105  0.1697  0.4940
   57MOL0     O 7400   0.285   7.931  10.477  1.0660  0.0468  0.3312
   57MOL0     C 7401   0.257   7.991  10.347 -0.2850  0.2644  0.6635
   57MOL0     C 7402   0.099   7.986  10.319 -0.0853 -0.4265 -0.8849
   57MOL0     C 7403   0.031   7.859  10.363  0.6072  0.0128 -0.0553
   57MOL0     C 7404  -0.122   7.861  10.330 -0.0782  0.0800 -1.0864
   57MOL0     C 7405  -0.190   7.725  10.331  0.6609 -0.0924 -0.0891
   57MOL0     C 7406  -0.339   7.736  10.279 -0.4159 -0.4023  0.2176
   57MOL0     C 7407  -0.431   7.819  10.368  0.4349  0.9333  0.7413
   57MOL0     C 7408  -0.447   7.773  10.514  0.1766  1.0376  0.0595
   57MOL0     N 7409  -0.528   7.863  10.591  0.1674 -1.0112 -0.0185
   57MOL0     C 7410  -0.650   7.837  10.646 -0.5619 -0.0211  0.3310
   57MOL0     C 7411  -0.671   7.928  10.740 -0.2627  0.1734  0.2866
   57MOL0     C 7412  -0.780   7.942  10.829  0.4367  0.2229 -0.2083
   57MOL0     C 7413  -0.915   7.881  10.778  0.5828  0.0469  0.2483
   57MOL0     C 7414  -0.969   7.951  10.651 -0.3239  0.7052  0.2639
   57MOL0     C 7415  -1.122   7.919  10.623 -0.4694  0.6138  0.5004
   57MOL0     O 7416  -1.143   7.775  10.615 -0.3307 -0.6364  0.3386
   57MOL0     C 7417  -1.273   7.723  10.593 -0.2069 -0.2172 -0.6704
   57MOL0     C 7418  -1.381   7.798  10.545  0.1507  0.1873 -1.1663
   57MOL0     C 7419  -1.505   7.751  10.508  0.0509  0.2720  0.0929
   57MOL0     C 7420  -1.526   7.609  10.512 -0.7089  0.2372 -0.3055
   57MOL0     C 7421  -1.648   7.547  10.459 -0.3410 -0.5909  0.4594
   57MOL0     O 7422  -1.661   7.411  10.459  0.2763 -0.0298 -0.5387
   57MOL0     C 7423  -1.767   7.358  10.392 -0.3749  0.1995 -0.7832
   57MOL0     C 7424  -1.747   7.286  10.276 -0.3858 -0.3558 -0.1413
   57MOL0     C 7425  -1.850   7.259  10.192  0.0209 -0.7060 -0.3658
   57MOL0     C 7426  -1.981   7.267  10.244  0.2069  0.1608 -0.4450
   57MOL0     O 7427  -2.077   7.238  10.154  0.3078  0.4568 -0.1656
   57MOL0     C 7428  -2.200   7.305  10.164  0.1216 -0.6018  0.4658
   57MOL0     C 7429  -2.294   7.251  10.067 -0.5962  1.0675  0.7754
   57MOL0     C 7430  -2.433   7.292  10.102  0.0318 -0.4566 -0.7236
   57MOL0     C 7431  -2.502   7.372   9.985  0.1474 -0.2106 -0.4954
   57MOL0     C 7432  -2.638   7.412  10.017  0.3079 -0.6256  0.3588
   57MOL0     C 7433  -2.717   7.477   9.905  0.3555 -0.3023 -0.4858
   57MOL0     C 7434  -2.837   7.552   9.968 -0.4092  0.1421 -0.1048
   57MOL0     C 7435  -2.954   7.453  10.007  0.2323 -0.1426 -1.0495
   57MOL0    Cl 7436  -2.986   7.317   9.897  0.2376  0.4031 -0.1630
   57MOL0     C 7437  -2.007   7.319  10.372 -0.4052  0.3034 -0.2385
   57MOL0     C 7438  -1.895   7.372  10.446  1.3226  0.8152 -0.1922
   57MOL0     O 7439  -1.731   7.620  10.411 -0.0635 -0.3529 -0.6617
   57MOL0     C 7440  -1.412   7.527  10.547  0.1527  0.1244  0.1690
   57MOL0     C 7441  -1.290   7.585  10.586  0.6004  0.0804  0.1780
   57MOL0     N 7442  -0.573   8.021  10.730  0.6603  0.2117 -0.8025
   57MOL0     N 7443  -0.485   7.980  10.645 -0.3298  0.0320  0.1491
   57MOL0     C 7444   0.522   7.984  10.437  0.1539  0.4933 -0.5204
   57MOL0     C 7445   0.651   8.007  10.486 -0.4855 -0.1766  0.1855
   57MOL0     C 7446   1.052   8.026  10.702  0.5424  0.2543 -0.1330
   57MOL0     C 7447   1.171   7.949  10.696  0.2936  0.4575 -0.6658
   57MOL0     C 7448   1.295   7.997  10.727 -0.1698 -0.3049 -0.7020
   57MOL0     C 7449   1.302   8.135  10.777  0.6557  0.8713 -0.4075
   57MOL0     O 7450   1.430   8.170  10.807  0.5097 -0.3956  0.0321
   57MOL0     C 7451   1.438   8.256  10.921 -0.2752 -0.5631 -1.0628
   57MOL0     C 7452   1.580   8.298  10.962  0.3447  0.9107 -0.6967
   57MOL0     C 7453   1.655   8.178  11.020  0.1325 -0.6179 -0.2040
   57MOL0     C 7454   1.808   8.220  11.044 -0.5159  1.4460 -0.5226
   57MOL0     C 7455   1.886   8.105  11.089 -0.4359 -0.2154 -0.2333
   57MOL0     C 7456   1.950   8.006  11.119  0.1717 -1.0410  0.0174
   57MOL0     C 7457   1.179   8.210  10.785  0.6873 -0.2748 -0.6413
   57MOL0     C 7458   1.058   8.159  10.749  0.7728  1.0371  0.0876
   57MOL0     H 7459   0.609   7.977  10.811 -1.4727  2.0588  0.3744
   57MOL0     H 7460   0.367   7.931  10.738  0.6643  1.5631  0.9324
   57MOL0     H 7461   0.304   7.934  10.266 -1.1085  2.5517 -1.5285
   57MOL0     H 7462   0.290   8.093  10.327  2.6012 -0.7779 -0.3034
   57MOL0     H 7463   0.071   8.015  10.217  1.2853  0.4977 -1.0161
   57MOL0     H 7464   0.064   8.071  10.380 -1.8667 -1.4184 -0.4278
   57MOL0     H 7465   0.040   7.856  10.472  0.6462  0.2108 -0.0534
   57MOL0     H 7466   0.077   7.772  10.315 -0.0551 -0.0071 -0.6706
   57MOL0     H 7467  -0.178   7.919  10.404 -1.8891 -1.9016 -0.8121
   57MOL0     H 7468  -0.137   7.917  10.237  0.4084 -0.1375 -1.3016
   57MOL0     H 7469  -0.174   7.700  10.437 -4.8978  1.9901  1.6315
   57MOL0     H 7470  -0.147   7.657  10.257  2.2244  0.5596  0.1833
   57MOL0     H 7471  -0.381   7.635  10.278 -1.9871  0.1996  1.4260
   57MOL0     H 7472  -0.338   7.761  10.173 -1.4377 -0.1038  0.2744
   57MOL0     H 7473  -0.401   7.924  10.380 -0.6727  1.0769  2.7854
   57MOL0     H 7474  -0.530   7.810  10.323  0.4980 -0.1798  0.7935
   57MOL0     H 7475  -0.350   7.768  10.564 -0.5432  0.5213  1.4415
   57MOL0     H 7476  -0.489   7.672  10.505 -1.4095  1.7764 -1.4665
   57MOL0     H 7477  -0.709   7.746  10.639  0.4845 -0.6747 -0.2567
   57MOL0     H 7478  -0.789   8.049  10.848  1.7992  0.0257  1.9514
   57MOL0     H 7479  -0.755   7.899  10.927 -1.3018 -3.9964 -1.3983
   57MOL0     H 7480  -0.979   7.883  10.866  1.6103 -1.8293  1.1171
   57MOL0     H 7481  -0.904   7.773  10.761 -0.6621 -0.3723  1.8376
   57MOL0     H 7482  -0.952   8.057  10.671  0.2173  0.7448 -0.3727
   57MOL0     H 7483  -0.910   7.929  10.561 -1.2054  2.0483 -0.6745
   57MOL0     H 7484  -1.149   7.972  10.531 -0.1147  1.3622  0.8165
   57MOL0     H 7485  -1.183   7.958  10.705  0.6905  0.4554  1.4679
   57MOL0     H 7486  -1.382   7.906  10.556  2.7096  0.2821 -1.1783
   57MOL0     H 7487  -1.587   7.822  10.500  1.6087  2.3163  1.3237
   57MOL0     H 7488  -1.651   7.271  10.229 -0.7554  1.8054 -1.7823
   57MOL0     H 7489  -1.830   7.222  10.092 -2.6495 -2.7685 -0.2509
   57MOL0     H 7490  -2.188   7.411  10.139 -1.1718  0.1406  2.7106
   57MOL0     H 7491  -2.242   7.294  10.265  0.8126 -0.6032  0.7608
   57MOL0     H 7492  -2.290   7.142  10.060  1.4887  1.0526  1.3646
   57MOL0     H 7493  -2.270   7.291   9.968 -1.6353 -2.4573 -1.0954
   57MOL0     H 7494  -2.429   7.349  10.196 -1.4807 -2.3322  0.5601
   57MOL0     H 7495  -2.483   7.196  10.117 -0.2315 -0.1728  0.3273
   57MOL0     H 7496  -2.444   7.463   9.967  0.8290 -0.5768 -0.1865
   57MOL0     H 7497  -2.498   7.307   9.897 -2.8437  0.5177 -1.2649
   57MOL0     H 7498  -2.634   7.486  10.097  0.8576  1.0372 -1.1220
   57MOL0     H 7499  -2.695   7.322  10.043 -0.7384 -0.5754 -1.5539
   57MOL0     H 7500  -2.752   7.394   9.842  1.4592 -1.7218  0.6936
   57MOL0     H 7501  -2.659   7.545   9.841 -1.5019  1.2307 -0.6301
   57MOL0     H 7502  -2.799   7.601  10.058 -1.8167 -2.7078  2.2059
   57MOL0     H 7503  -2.882   7.634   9.910  0.4643  0.9100  0.2837
   57MOL0     H 7504  -3.044   7.514  10.018  0.0240 -0.5529 -0.4605
   57MOL0     H 7505  -2.928   7.421  10.108 -0.7301  1.4224 -0.2570
   57MOL0     H 7506  -2.106   7.342  10.408 -0.3035  1.6580 -0.7965
   57MOL0     H 7507  -1.907   7.416  10.544  0.6825 -2.1452  1.1662
   57MOL0     H 7508  -1.432   7.421  10.549 -0.5349  0.2543  0.8217
   57MOL0     H 7509  -1.206   7.524  10.618  0.8005 -0.7485 -1.7751
   57MOL0     H 7510   0.512   7.985  10.329 -2.2647 -0.4513 -0.3810
   57MOL0     H 7511   0.732   8.020  10.415 -2.3059 -1.1019 -2.1747
   57MOL0     H 7512   1.171   7.849  10.655  2.3542 -0.4805  1.3795
   57MOL0     H 7513   1.372   7.926  10.701 -1.4240 -1.0966 -2.4779
   57MOL0     H 7514   1.396   8.210  11.012  0.5303  2.3501  0.9145
   57MOL0     H 7515   1.382   8.345  10.892  0.1931 -0.5582 -1.9840
   57MOL0     H 7516   1.627   8.340  10.873 -1.2023  1.5206 -1.2506
   57MOL0     H 7517   1.581   8.372  11.043  1.1855  1.2891 -1.0354
   57MOL0     H 7518   1.658   8.096  10.948  0.2366 -1.1227  0.3666
   57MOL0     H 7519   1.608   8.144  11.113  0.4902 -0.8949 -0.1204
   57MOL0     H 7520   1.851   8.255  10.949  0.4799  0.3918 -0.4788
   57MOL0     H 7521   1.819   8.292  11.126  2.4861  1.2246 -0.6365
   57MOL0     H 7522   2.007   7.926  11.160  0.5463  0.1656  1.9702
   57MOL0     H 7523   1.177   8.315  10.812  0.3470  0.0875 -1.9898
   57MOL0     H 7524   0.966   8.216  10.759 -0.6526 -0.8812 -1.2921
   58MOL0     O 7525   8.946   1.318   6.116  0.0817  0.2724 -0.3299
   58MOL0     C 7526   8.973   1.318   5.999 -0.4967  0.0569  0.2910
   58MOL0     O 7527   8.889   1.339   5.895 -0.2275  0.1998 -0.7409
   58MOL0     C 7528   8.762   1.366   5.932  0.5756 -0.9710 -0.4250
   58MOL0     C 7529   8.653   1.295   5.877  0.8491  0.5838  0.3258
   58MOL0     C 7530   8.523   1.325   5.908  0.3475  0.1575  0.4723
   58MOL0     C 7531   8.494   1.435   5.995 -0.6991  0.3009 -0.2791
   58MOL0     O 7532   8.371   1.458   6.054  0.5999 -0.0481 -0.2420
   58MOL0     C 7533   8.257   1.399   5.985  0.6203 -0.3019  0.2105
   58MOL0     C 7534   8.129   1.454   6.040  0.2130 -1.4055  0.8009
   58MOL0     C 7535   7.996   1.417   5.964 -0.4441  0.6920  0.2660
   58MOL0     C 7536   7.994   1.272   5.915 -0.0003  0.3339  0.3614
   58MOL0     C 7537   7.876   1.244   5.832 -0.5651 -1.2431  0.0099
   58MOL0     C 7538   7.744   1.241   5.917 -0.4523  0.1466  0.2794
   58MOL0     C 7539   7.629   1.180   5.829  0.6213  0.0403 -0.2454
   58MOL0     C 7540   7.496   1.193   5.911 -0.5369 -0.4394 -0.2007
   58MOL0     N 7541   7.385   1.160   5.825 -0.2751  0.2734 -1.0236
   58MOL0     C 7542   7.314   1.244   5.745  0.1096  0.3108 -0.3835
   58MOL0     C 7543   7.219   1.165   5.691 -0.5192  0.3751  0.3701
   58MOL0     C 7544   7.118   1.219   5.597 -0.3051  0.8987  0.0493
   58MOL0     C 7545   6.974   1.207   5.653  0.0773 -0.9912  0.9715
   58MOL0     C 7546   6.913   1.075   5.602  0.0378 -0.5981  0.3108
   58MOL0     C 7547   6.761   1.067   5.621  0.5652  0.8146  0.6284
   58MOL0     O 7548   6.731   1.017   5.753 -0.0161  0.3892 -0.1570
   58MOL0     C 7549   6.606   0.962   5.789 -0.2063  0.1372  0.3030
   58MOL0     C 7550   6.585   0.913   5.918 -0.7907 -0.3745  0.2021
   58MOL0     C 7551   6.461   0.853   5.965  0.1911  0.1636  0.2919
   58MOL0     C 7552   6.353   0.860   5.878  0.8101 -0.3730  0.2368
   58MOL0     C 7553   6.224   0.826   5.936  0.0667  0.2123 -0.2800
   58MOL0     O 7554   6.191   0.832   6.069  0.5911 -0.2214  0.0425
   58MOL0     C 7555   6.060   0.799   6.100  0.1394  1.0944 -0.6179
   58MOL0     C 7556   5.947   0.833   6.016 -0.6097  0.7594  0.6036
   58MOL0     C 7557   5.817   0.794   6.066 -1.6425  0.2737  0.3630
   58MOL0     C 7558   5.801   0.724   6.187  0.5880  0.3264  0.2656
   58MOL0     O 7559   5.673   0.683   6.220  0.0234 -0.5743 -0.2295
   58MOL0     C 7560   5.572   0.626   6.128 -0.2868 -0.1289  0.4564
   58MOL0     C 7561   5.438   0.670   6.179 -1.2850  0.8891  0.1159
   58MOL0     C 7562   5.321   0.625   6.090  0.8797 -0.9760  0.5003
   58MOL0     C 7563   5.183   0.635   6.156  0.0768 -1.0003 -0.7246
   58MOL0     C 7564   5.076   0.630   6.045  0.0603 -0.5539 -0.1477
   58MOL0     C 7565   4.940   0.646   6.104  0.2239 -0.4222 -0.3357
   58MOL0     C 7566   4.834   0.624   5.998  0.3099 -0.3282  0.1701
   58MOL0     C 7567   4.684   0.659   6.044 -0.5833  0.1527  0.3879
   58MOL0    Cl 7568   4.572   0.591   5.925 -0.3885  0.0135 -0.0534
   58MOL0     C 7569   5.917   0.691   6.257 -0.1291  0.4004 -0.3331
   58MOL0     C 7570   6.042   0.736   6.222  0.1323 -0.6014 -0.3600
   58MOL0     O 7571   6.155   0.781   5.846 -0.1277 -0.8908 -0.2631
   58MOL0     C 7572   6.374   0.912   5.748  0.0247 -0.5628  0.9099
   58MOL0     C 7573   6.501   0.962   5.701 -0.2594  0.4416 -0.3483
   58MOL0     N 7574   7.239   1.038   5.730  0.6221  1.1162  0.5467
   58MOL0     N 7575   7.336   1.036   5.812 -0.9943  0.7414  0.2359
   58MOL0     C 7576   8.602   1.507   6.050  0.4189 -0.0637  0.3853
   58MOL0     C 7577   8.735   1.481   6.014 -0.3205 -0.2908  0.0083
   58MOL0     C 7578   9.111   1.285   5.957  0.4737 -0.2830  0.0252
   58MOL0     C 7579   9.203   1.237   6.054 -0.9779 -0.4612 -0.2742
   58MOL0     C 7580   9.335   1.200   6.015 -0.2332  0.5901  0.2846
   58MOL0     C 7581   9.376   1.191   5.887  0.4592 -0.3425  0.4233
   58MOL0     O 7582   9.494   1.125   5.876 -0.5989 -0.2880  0.5910
   58MOL0     C 7583   9.589   1.137   5.769 -0.5026  0.3286  0.6267
   58MOL0     C 7584   9.536   1.043   5.655  0.6246 -0.5002  0.0640
   58MOL0     C 7585   9.585   1.091   5.514 -0.1692  0.1488 -1.2469
   58MOL0     C 7586   9.737   1.072   5.482  0.0302 -0.0530 -0.3068
   58MOL0     C 7587   9.759   1.065   5.337 -0.1541  0.3025 -0.5895
   58MOL0     C 7588   9.784   1.044   5.215  0.3405 -0.1570  0.3918
   58MOL0     C 7589   9.289   1.245   5.792  0.0341 -0.0216 -0.3275
   58MOL0     C 7590   9.161   1.291   5.824  0.3037  0.5042 -0.2719
   58MOL0     H 7591   8.682   1.226   5.798  0.6061  1.6191 -0.6802
   58MOL0     H 7592   8.447   1.262   5.863 -0.2448  0.8632  0.4721
   58MOL0     H 7593   8.261   1.291   6.007  0.5396  0.1347  2.6480
   58MOL0     H 7594   8.257   1.428   5.880  3.9526  0.1416  0.2256
   58MOL0     H 7595   8.137   1.563   6.040  2.2853 -1.4950  1.7285
   58MOL0     H 7596   8.102   1.430   6.143 -0.6649  0.6306  1.0921
   58MOL0     H 7597   7.976   1.482   5.879 -0.4296 -0.2559 -0.4817
   58MOL0     H 7598   7.913   1.428   6.035  0.8702  1.1902  1.7972
   58MOL0     H 7599   8.088   1.230   5.878 -0.5336 -0.2259 -0.4192
   58MOL0     H 7600   7.973   1.220   6.009 -0.8587  0.9275  0.5100
   58MOL0     H 7601   7.896   1.143   5.794  1.7533 -0.4311 -1.1728
   58MOL0     H 7602   7.867   1.310   5.745  1.7212  0.2393  0.7771
   58MOL0     H 7603   7.713   1.341   5.945 -0.1428 -0.6005  3.6994
   58MOL0     H 7604   7.759   1.179   6.006 -0.1147  0.2060  0.2648
   58MOL0     H 7605   7.630   1.245   5.741 -1.5622 -1.9791 -1.8840
   58MOL0     H 7606   7.645   1.075   5.806 -1.7736 -0.9542  2.0899
   58MOL0     H 7607   7.484   1.296   5.943  0.5815 -0.2907 -0.2069
   58MOL0     H 7608   7.510   1.127   5.997 -0.9298 -0.0542  0.1569
   58MOL0     H 7609   7.321   1.351   5.734 -1.3567  0.5638  0.8374
   58MOL0     H 7610   7.115   1.181   5.495 -0.2641  1.7074 -0.2515
   58MOL0     H 7611   7.130   1.327   5.586 -0.2417  0.9219  0.3320
   58MOL0     H 7612   6.917   1.293   5.616  2.2989  0.0077 -0.3436
   58MOL0     H 7613   6.975   1.211   5.762  0.7860 -2.0829  1.0228
   58MOL0     H 7614   6.931   1.076   5.494  2.3318  3.7059  0.5116
   58MOL0     H 7615   6.967   0.989   5.642  3.5457  1.0771 -0.4328
   58MOL0     H 7616   6.731   1.011   5.532  0.4845  2.7359 -0.6298
   58MOL0     H 7617   6.717   1.167   5.612 -1.6220  0.1065  2.5965
   58MOL0     H 7618   6.672   0.905   5.981 -0.4306 -0.9719 -0.3483
   58MOL0     H 7619   6.460   0.812   6.065  0.6644  2.6476  1.3810
   58MOL0     H 7620   5.952   0.886   5.922  0.4790 -1.5617 -0.7266
   58MOL0     H 7621   5.744   0.822   5.991 -1.0806 -2.2228 -1.2119
   58MOL0     H 7622   5.574   0.520   6.104 -1.1269  0.0470 -0.4487
   58MOL0     H 7623   5.588   0.679   6.034 -1.2429 -1.0381 -0.2349
   58MOL0     H 7624   5.452   0.778   6.191  3.8390  0.4496  0.1885
   58MOL0     H 7625   5.420   0.623   6.276 -0.4072  0.5962  0.1423
   58MOL0     H 7626   5.329   0.525   6.048 -1.3429 -0.4511 -1.3947
   58MOL0     H 7627   5.326   0.700   6.011 -1.3336  1.1719  2.2305
   58MOL0     H 7628   5.177   0.545   6.218 -0.5453 -0.7221 -0.3741
   58MOL0     H 7629   5.174   0.721   6.223  3.0108  1.7095 -3.4981
   58MOL0     H 7630   5.078   0.531   5.997 -0.7197 -2.3105  3.1489
   58MOL0     H 7631   5.091   0.705   5.967  2.5044 -2.8408 -2.1099
   58MOL0     H 7632   4.933   0.746   6.148  2.6998  1.0838 -3.0782
   58MOL0     H 7633   4.930   0.574   6.185 -0.7225 -1.4540 -1.3329
   58MOL0     H 7634   4.875   0.681   5.914  5.1283 -1.7276  1.2635
   58MOL0     H 7635   4.843   0.520   5.968 -1.5762 -1.7685  3.9765
   58MOL0     H 7636   4.689   0.767   6.059  1.5582  0.0429  0.7940
   58MOL0     H 7637   4.657   0.620   6.143 -1.2949 -1.3107 -0.3540
   58MOL0     H 7638   5.908   0.630   6.346  0.8293 -2.1507 -1.8716
   58MOL0     H 7639   6.125   0.721   6.291  0.3407  0.8596 -0.2703
   58MOL0     H 7640   6.288   0.918   5.681 -2.7833  2.9296  4.3262
   58MOL0     H 7641   6.516   1.000   5.601  0.6874 -0.4055 -0.5406
   58MOL0     H 7642   8.571   1.585   6.118 -3.8618 -0.6304 -0.6270
   58MOL0     H 7643   8.808   1.548   6.057 -1.8716  2.0190 -0.7560
   58MOL0     H 7644   9.179   1.234   6.159  4.0526 -1.8164  1.1095
   58MOL0     H 7645   9.404   1.176   6.096 -1.9125 -0.3276  1.4994
   58MOL0     H 7646   9.690   1.105   5.794  0.8220  3.3764 -0.3583
   58MOL0     H 7647   9.592   1.242   5.738 -0.7193 -0.1367 -1.1250
   58MOL0     H 7648   9.551   0.937   5.673  0.2196 -1.0930 -2.6536
   58MOL0     H 7649   9.428   1.060   5.663  1.1182  2.0368  3.1078
   58MOL0     H 7650   9.562   1.195   5.492  0.2192  0.4275 -0.3991
   58MOL0     H 7651   9.525   1.034   5.444  1.0476 -1.6453 -0.9101
   58MOL0     H 7652   9.788   1.162   5.518 -1.9729  1.1515 -0.2969
   58MOL0     H 7653   9.775   0.979   5.524 -0.6070 -0.4996 -0.6927
   58MOL0     H 7654   9.798   1.034   5.109 -0.6107  1.1122  0.1177
   58MOL0     H 7655   9.316   1.244   5.687  1.1623  1.2958 -0.0836
   58MOL0     H 7656   9.093   1.313   5.742 -2.0405  1.0388  1.6954
   59MOL0     O 7657   8.316  10.113   0.807  0.0912  0.5232  0.0635
   59MOL0     C 7658   8.283   9.996   0.786 -0.4708  0.8078 -0.7012
   59MOL0     O 7659   8.158   9.938   0.771 -0.2372  0.2273  0.0105
   59MOL0     C 7660   8.050  10.025   0.776 -0.1259  0.2085  0.1756
   59MOL0     C 7661   7.932   9.968   0.816  0.6073  0.8813 -0.1106
   59MOL0     C 7662   7.807  10.031   0.790  0.2501  0.7625  0.5388
   59MOL0     C 7663   7.805  10.161   0.740 -0.2640 -0.2537 -0.8645
   59MOL0     O 7664   7.677  10.213   0.750 -0.2434 -0.1768 -0.2039
   59MOL0     C 7665   7.645  10.308   0.654 -0.0969 -1.2802  0.0081
   59MOL0     C 7666   7.490  10.317   0.660 -0.1614 -0.8694 -0.7720
   59MOL0     C 7667   7.424  10.327   0.801  0.1150  0.6907  0.1200
   59MOL0     C 7668   7.273  10.363   0.790 -0.1815  0.6797  0.0451
   59MOL0     C 7669   7.210  10.403   0.929  0.0439 -0.5169 -0.2316
   59MOL0     C 7670   7.061  10.410   0.922  0.4746  0.1197 -0.0264
   59MOL0     C 7671   6.998  10.419   1.059  0.0773 -0.5254 -0.4397
   59MOL0     C 7672   7.012  10.555   1.128 -0.0497 -0.6987 -0.6562
   59MOL0     N 7673   6.920  10.670   1.100  0.7195  0.3068 -0.2641
   59MOL0     C 7674   6.884  10.724   0.977  0.0268  0.2536 -0.0989
   59MOL0     C 7675   6.804  10.829   0.998 -0.0847 -0.4174  0.6584
   59MOL0     C 7676   6.733  10.913   0.894 -0.2626  0.3213 -0.1343
   59MOL0     C 7677   6.583  10.900   0.908 -0.5945 -0.3794  0.6970
   59MOL0     C 7678   6.529  11.023   0.990  1.1176 -0.0738  0.1000
   59MOL0     C 7679   6.373  11.012   0.998  0.4227 -0.1661  0.9943
   59MOL0     O 7680   6.327  11.113   1.089  0.6873 -0.2349 -0.7833
   59MOL0     C 7681   6.195  11.143   1.074  0.1870 -0.8108 -0.1107
   59MOL0     C 7682   6.156  11.255   1.011 -1.0691 -0.0637 -0.4302
   59MOL0     C 7683   6.028  11.291   1.002 -0.1820 -0.2915  0.0066
   59MOL0     C 7684   5.922  11.207   1.049 -0.3974  0.1002 -0.4955
   59MOL0     C 7685   5.779  11.241   1.022 -0.5202 -1.0196 -0.3227
   59MOL0     O 7686   5.755  11.383   1.000  0.0694  0.3366  0.1560
   59MOL0     C 7687   5.640  11.423   0.942 -0.7155 -0.5511  0.6245
   59MOL0     C 7688   5.654  11.524   0.845  0.7997 -0.9583 -0.1177
   59MOL0     C 7689   5.544  11.577   0.778 -0.1043 -0.8023  0.1173
   59MOL0     C 7690   5.417  11.519   0.795  0.1455  0.0612 -0.5612
   59MOL0     O 7691   5.299  11.568   0.744  0.0101  0.0918 -0.6115
   59MOL0     C 7692   5.311  11.697   0.683 -0.7343  0.2496 -0.3298
   59MOL0     C 7693   5.179  11.763   0.671 -0.1116 -0.3947 -0.5545
   59MOL0     C 7694   5.097  11.767   0.799  1.3600  0.3103 -0.0990
   59MOL0     C 7695   4.985  11.873   0.814 -0.0058  0.0178 -0.2766
   59MOL0     C 7696   4.849  11.832   0.749  0.3450 -0.1182  0.6017
   59MOL0     C 7697   4.738  11.940   0.756  0.9330  0.1172 -0.4911
   59MOL0     C 7698   4.608  11.876   0.799  0.0121  0.0876 -1.3402
   59MOL0     C 7699   4.546  11.787   0.694 -0.6909 -0.5383  0.6491
   59MOL0    Cl 7700   4.540  11.862   0.530  0.1224 -0.1664 -0.0961
   59MOL0     C 7701   5.405  11.416   0.885 -0.1108 -0.1839  0.0336
   59MOL0     C 7702   5.514  11.370   0.961  0.1513  0.6627  0.8744
   59MOL0     O 7703   5.698  11.145   1.001  0.2717 -0.5755  0.4650
   59MOL0     C 7704   5.958  11.088   1.126  0.3837  0.0101  0.2527
   59MOL0     C 7705   6.094  11.057   1.126  0.2486  0.0813 -0.3793
   59MOL0     N 7706   6.787  10.846   1.137 -0.0513  0.2497  0.2938
   59MOL0     N 7707   6.851  10.745   1.196 -0.2761 -0.0106  0.0818
   59MOL0     C 7708   7.927  10.223   0.715  0.1978  0.0571  0.0119
   59MOL0     C 7709   8.043  10.157   0.731  0.4290  0.0543  0.7632
   59MOL0     C 7710   8.388   9.890   0.775 -0.8337  0.1068  0.0606
   59MOL0     C 7711   8.525   9.923   0.782 -0.0238  0.5638 -1.2264
   59MOL0     C 7712   8.628   9.820   0.767 -0.2287 -0.5135  0.0110
   59MOL0     C 7713   8.586   9.684   0.759 -0.0925  0.5766  0.1390
   59MOL0     O 7714   8.674   9.571   0.746  0.0107 -0.4448 -0.1569
   59MOL0     C 7715   8.811   9.609   0.725  0.1273 -0.0059  0.2505
   59MOL0     C 7716   8.900   9.496   0.678 -0.0642  0.5236 -0.7264
   59MOL0     C 7717   9.043   9.540   0.672 -1.3701  0.4284  0.2161
   59MOL0     C 7718   9.123   9.425   0.598 -0.5397  0.3242 -0.5827
   59MOL0     C 7719   9.267   9.440   0.615  0.2665  0.2877 -0.4504
   59MOL0     C 7720   9.385   9.436   0.622 -0.8950  0.4474  1.0043
   59MOL0     C 7721   8.453   9.658   0.756  0.4528  0.4537  0.5141
   59MOL0     C 7722   8.347   9.753   0.759 -0.2118  0.5459 -0.9932
   59MOL0     H 7723   7.919   9.870   0.860  1.5796  0.6434 -0.3382
   59MOL0     H 7724   7.709   9.989   0.811  0.8434 -1.1397 -0.2429
   59MOL0     H 7725   7.655  10.272   0.551 -2.9302 -2.9809  0.2205
   59MOL0     H 7726   7.700  10.401   0.667  1.2115 -1.9755 -0.3677
   59MOL0     H 7727   7.454  10.225   0.614 -1.6223 -0.6515 -0.1513
   59MOL0     H 7728   7.457  10.404   0.603 -2.3088 -1.3910 -0.4153
   59MOL0     H 7729   7.474  10.405   0.858 -0.8019  0.8045  0.8013
   59MOL0     H 7730   7.428  10.231   0.853 -0.4799  3.2180  5.4909
   59MOL0     H 7731   7.265  10.451   0.726  0.7682  0.2128 -0.7312
   59MOL0     H 7732   7.218  10.278   0.749  1.1618 -0.4234  0.4436
   59MOL0     H 7733   7.256  10.499   0.955 -0.1370  0.6770 -3.8731
   59MOL0     H 7734   7.239  10.328   1.004  0.8363  1.2977  1.3773
   59MOL0     H 7735   7.017  10.322   0.873  2.0290  0.1314 -1.5980
   59MOL0     H 7736   7.020  10.489   0.859 -1.7867 -0.0866  1.0836
   59MOL0     H 7737   6.890  10.399   1.061 -0.5708  2.3354  2.3580
   59MOL0     H 7738   7.042  10.340   1.121  3.5220  0.7941 -1.0229
   59MOL0     H 7739   7.107  10.596   1.093 -0.7828  0.6731 -1.1380
   59MOL0     H 7740   7.021  10.541   1.236  3.2381 -3.1509 -1.1223
   59MOL0     H 7741   6.896  10.673   0.882 -0.2523 -1.5280  0.7765
   59MOL0     H 7742   6.767  10.884   0.794  0.1996  0.5798 -0.0531
   59MOL0     H 7743   6.768  11.014   0.915  0.9394 -0.3168  1.0371
   59MOL0     H 7744   6.560  10.810   0.965 -2.7434 -2.0398 -2.4991
   59MOL0     H 7745   6.529  10.889   0.813  1.6483 -0.3535 -0.6422
   59MOL0     H 7746   6.570  11.024   1.091  0.6963 -3.2867  0.4071
   59MOL0     H 7747   6.572  11.113   0.944  1.0891 -0.5077 -0.8001
   59MOL0     H 7748   6.341  10.915   1.038 -0.6667  0.5128  1.8385
   59MOL0     H 7749   6.348  11.027   0.892  2.0618  0.6781  0.7059
   59MOL0     H 7750   6.232  11.324   0.975 -1.1319  0.0552 -0.3371
   59MOL0     H 7751   5.997  11.380   0.948 -1.2943  0.0900  1.2322
   59MOL0     H 7752   5.750  11.574   0.834  0.9269 -0.9821  0.8029
   59MOL0     H 7753   5.552  11.662   0.711  0.5821  0.5648  1.8446
   59MOL0     H 7754   5.361  11.682   0.587 -2.7238  1.5383 -1.6339
   59MOL0     H 7755   5.370  11.768   0.742 -1.6292  1.0996 -0.4320
   59MOL0     H 7756   5.125  11.709   0.592  0.3302 -0.2059 -0.9894
   59MOL0     H 7757   5.201  11.865   0.639  3.1509 -1.5759 -2.5464
   59MOL0     H 7758   5.161  11.768   0.888  0.2278 -0.3774  0.7579
   59MOL0     H 7759   5.052  11.667   0.799  0.3847  0.6378 -3.1183
   59MOL0     H 7760   4.980  11.874   0.924 -3.1068  2.2840 -0.3185
   59MOL0     H 7761   5.021  11.969   0.776 -1.3875 -0.0480 -1.8345
   59MOL0     H 7762   4.813  11.740   0.796 -0.2514  1.5172  3.5487
   59MOL0     H 7763   4.856  11.802   0.644  1.5582 -1.4663  1.0287
   59MOL0     H 7764   4.739  12.000   0.664 -0.4689  2.2445  0.7948
   59MOL0     H 7765   4.756  12.014   0.835 -2.8963  0.9579 -0.1935
   59MOL0     H 7766   4.624  11.823   0.893  2.0138 -2.5092 -2.9906
   59MOL0     H 7767   4.534  11.955   0.815 -0.1268  0.0576 -1.8029
   59MOL0     H 7768   4.444  11.753   0.713 -0.0104 -2.6710  0.7443
   59MOL0     H 7769   4.602  11.694   0.684  0.2073 -0.1541  1.8456
   59MOL0     H 7770   5.305  11.381   0.909  0.3094 -0.6620  1.1334
   59MOL0     H 7771   5.499  11.289   1.031 -0.6032 -2.0803 -2.2310
   59MOL0     H 7772   5.871  11.039   1.169 -0.2857  0.9823  0.0669
   59MOL0     H 7773   6.131  10.975   1.187  0.0846 -1.2588 -2.0061
   59MOL0     H 7774   7.925  10.323   0.674 -0.6597 -0.7657 -2.0380
   59MOL0     H 7775   8.129  10.197   0.679 -0.6351  0.5479 -0.6937
   59MOL0     H 7776   8.536  10.026   0.813  0.3176 -0.4935  2.7101
   59MOL0     H 7777   8.735   9.836   0.757 -0.4834  0.8695 -0.6489
   59MOL0     H 7778   8.847   9.651   0.819 -1.8330 -0.2652  1.1725
   59MOL0     H 7779   8.813   9.681   0.643 -2.2726 -1.9196 -1.6710
   59MOL0     H 7780   8.912   9.412   0.747  0.0663 -1.9343 -3.5490
   59MOL0     H 7781   8.876   9.457   0.579 -0.0788 -1.7682  0.1263
   59MOL0     H 7782   9.083   9.565   0.770  0.0292  1.0648 -0.5017
   59MOL0     H 7783   9.052   9.627   0.606 -2.2201  1.1843  1.0746
   59MOL0     H 7784   9.101   9.324   0.635  0.0964 -0.0259 -1.1356
   59MOL0     H 7785   9.101   9.425   0.491  0.4904 -3.4375 -0.9177
   59MOL0     H 7786   9.491   9.432   0.609 -1.2402 -0.5259 -2.2215
   59MOL0     H 7787   8.426   9.554   0.739 -0.7621  0.5702  1.5889
   59MOL0     H 7788   8.250   9.709   0.745 -0.9718  0.7904  2.4579
   60MOL0     O 7789   1.813   9.698   4.985  0.5348 -0.0302 -0.1562
   60MOL0     C 7790   1.833   9.578   4.995  0.0901 -0.7909 -0.7559
   60MOL0     O 7791   1.953   9.513   5.032  0.7904  0.1749 -0.5231
   60MOL0     C 7792   2.042   9.600   5.097  0.0177  0.8050  0.6278
   60MOL0     C 7793   2.134   9.685   5.034 -0.7307  0.1406  0.3827
   60MOL0     C 7794   2.217   9.766   5.107 -0.9526 -0.2301 -0.4497
   60MOL0     C 7795   2.211   9.776   5.247 -0.2343 -0.0350  0.3844
   60MOL0     O 7796   2.301   9.867   5.308  0.2255  0.2103 -0.2308
   60MOL0     C 7797   2.279   9.907   5.434 -1.0388 -0.1535  0.2055
   60MOL0     C 7798   2.401  10.006   5.480  0.3002 -0.1285 -0.4095
   60MOL0     C 7799   2.536   9.932   5.483 -0.3949  0.7971  0.6689
   60MOL0     C 7800   2.642  10.030   5.531 -0.7373  0.4211 -1.1412
   60MOL0     C 7801   2.781   9.984   5.553  0.4546  0.3243 -0.3479
   60MOL0     C 7802   2.858   9.937   5.427  0.5278 -0.2846  1.2518
   60MOL0     C 7803   3.005   9.921   5.468 -0.9461  0.0316  0.1554
   60MOL0     C 7804   3.106   9.878   5.357  0.2479  0.7523  0.3248
   60MOL0     N 7805   3.071   9.759   5.286  0.2925 -0.3257  0.3400
   60MOL0     C 7806   3.086   9.642   5.347 -0.7598 -0.4486 -0.9507
   60MOL0     C 7807   3.027   9.557   5.270  0.5308 -0.5580  0.6353
   60MOL0     C 7808   3.035   9.412   5.303  0.2760 -0.5503  0.1937
   60MOL0     C 7809   3.010   9.317   5.177 -0.5424 -0.1923 -0.2954
   60MOL0     C 7810   3.008   9.166   5.214  0.1228 -0.1515  0.0199
   60MOL0     C 7811   2.867   9.121   5.238  0.1780 -0.7717  0.1833
   60MOL0     O 7812   2.859   9.015   5.326 -0.0729  0.0444  0.0884
   60MOL0     C 7813   2.735   8.991   5.380  0.0668 -0.0294 -0.3547
   60MOL0     C 7814   2.732   8.891   5.478  0.0426  0.5131 -0.5117
   60MOL0     C 7815   2.607   8.851   5.523  0.0901  0.3875 -0.1733
   60MOL0     C 7816   2.491   8.899   5.469 -0.4097 -0.1798 -0.0168
   60MOL0     C 7817   2.366   8.854   5.526  0.5202 -0.4233  0.2868
   60MOL0     O 7818   2.248   8.884   5.462  0.1673  0.2457 -0.1382
   60MOL0     C 7819   2.143   8.801   5.469 -0.0268 -0.6900 -0.5860
   60MOL0     C 7820   2.084   8.753   5.590 -0.7190 -0.5470 -0.2241
   60MOL0     C 7821   1.958   8.691   5.604 -0.4372 -0.2633  0.3436
   60MOL0     C 7822   1.879   8.685   5.497  0.1912 -0.0891  0.5882
   60MOL0     O 7823   1.751   8.638   5.515 -0.1561  0.0689 -0.4366
   60MOL0     C 7824   1.682   8.590   5.402 -0.0410  0.7959 -0.0256
   60MOL0     C 7825   1.585   8.482   5.404  0.1362 -0.3936  0.1723
   60MOL0     C 7826   1.436   8.524   5.445  0.1261 -0.3296 -0.0928
   60MOL0     C 7827   1.333   8.424   5.413  0.1896 -0.1428  0.3312
   60MOL0     C 7828   1.194   8.468   5.439  0.0345 -0.5106 -0.5424
   60MOL0     C 7829   1.081   8.373   5.391 -0.6959 -0.9860 -0.8128
   60MOL0     C 7830   0.953   8.438   5.405  0.0973 -0.3646 -0.7973
   60MOL0     C 7831   0.841   8.372   5.335  0.1623 -0.4080 -0.5142
   60MOL0    Cl 7832   0.877   8.352   5.158  0.1121  0.2034  0.1899
   60MOL0     C 7833   1.934   8.731   5.372  0.5891  0.6050 -0.1336
   60MOL0     C 7834   2.058   8.794   5.362  0.7661  0.1295 -0.2347
   60MOL0     O 7835   2.372   8.776   5.615 -0.1911 -0.3695 -0.5389
   60MOL0     C 7836   2.498   9.002   5.376 -0.1412  0.6643 -0.4909
   60MOL0     C 7837   2.618   9.053   5.341 -0.2766 -0.7141  0.1719
   60MOL0     N 7838   2.979   9.617   5.152 -0.4167 -0.6622  0.1298
   60MOL0     N 7839   3.004   9.740   5.162 -0.2318  0.5396 -0.5575
   60MOL0     C 7840   2.114   9.690   5.309 -0.4921  0.3993 -0.1978
   60MOL0     C 7841   2.034   9.604   5.231 -0.7194 -0.9087 -0.3136
   60MOL0     C 7842   1.720   9.486   4.957  1.1362 -0.6644  1.1312
   60MOL0     C 7843   1.599   9.529   4.907 -0.0597  1.0621  0.3383
   60MOL0     C 7844   1.496   9.434   4.876 -0.2012  0.6544  0.6932
   60MOL0     C 7845   1.514   9.295   4.897  0.2281 -0.1570 -0.1808
   60MOL0     O 7846   1.423   9.205   4.857  0.3889 -0.5493  0.1412
   60MOL0     C 7847   1.438   9.066   4.878 -0.8529 -0.1410 -0.0252
   60MOL0     C 7848   1.522   8.996   4.781  0.2519 -0.8549 -0.4917
   60MOL0     C 7849   1.531   8.847   4.812 -0.2999 -0.0979  0.4805
   60MOL0     C 7850   1.571   8.757   4.687 -0.5812  0.5268 -0.1543
   60MOL0     C 7851   1.714   8.758   4.669 -0.1593 -0.0249  1.2104
   60MOL0     C 7852   1.835   8.761   4.674  0.5451  0.3326  0.4090
   60MOL0     C 7853   1.636   9.258   4.960  0.1338  0.7296  0.1306
   60MOL0     C 7854   1.737   9.349   4.991  0.3144 -0.4163  0.4598
   60MOL0     H 7855   2.134   9.682   4.926 -3.9278  1.4727  0.2601
   60MOL0     H 7856   2.293   9.825   5.054  1.5665 -2.1021  0.8642
   60MOL0     H 7857   2.268   9.823   5.503 -1.2339  1.0511  1.6921
   60MOL0     H 7858   2.184   9.962   5.435 -1.0244 -0.1131  1.7426
   60MOL0     H 7859   2.388  10.046   5.581  3.6987  1.7334 -0.5669
   60MOL0     H 7860   2.402  10.091   5.412  1.8578 -0.3055 -0.6298
   60MOL0     H 7861   2.554   9.894   5.383 -1.3369  2.1346 -0.0317
   60MOL0     H 7862   2.528   9.848   5.553 -2.9072 -0.3151 -0.8417
   60MOL0     H 7863   2.645  10.111   5.458  0.8074 -0.3281 -1.9850
   60MOL0     H 7864   2.612  10.079   5.623  2.3031 -1.1936  0.9025
   60MOL0     H 7865   2.774   9.900   5.623 -2.8059  0.0594 -0.8273
   60MOL0     H 7866   2.835  10.065   5.603 -2.0934  3.6999 -2.6140
   60MOL0     H 7867   2.837  10.006   5.344 -1.3149  0.0566  1.9615
   60MOL0     H 7868   2.821   9.836   5.407  2.6898 -1.4140  2.6020
   60MOL0     H 7869   3.046  10.010   5.516  0.5868  0.0271 -1.0598
   60MOL0     H 7870   3.016   9.837   5.537  2.0999 -0.4963 -0.8145
   60MOL0     H 7871   3.203   9.851   5.399  0.0325  0.9639  0.9634
   60MOL0     H 7872   3.107   9.953   5.277  0.1515 -2.2450 -2.7085
   60MOL0     H 7873   3.132   9.628   5.445 -1.7357 -2.5719 -0.7254
   60MOL0     H 7874   2.968   9.384   5.386  0.6222  1.2566  1.1197
   60MOL0     H 7875   3.139   9.402   5.335  0.5763  0.0728 -0.5590
   60MOL0     H 7876   3.087   9.336   5.102 -0.5971  2.7272  0.2535
   60MOL0     H 7877   2.919   9.342   5.121 -0.6939 -0.0701  0.0027
   60MOL0     H 7878   3.051   9.108   5.132  0.7513 -1.4881  1.2502
   60MOL0     H 7879   3.073   9.150   5.300  1.0361 -0.5229 -0.7192
   60MOL0     H 7880   2.822   9.099   5.141  0.4124 -3.0492  0.5330
   60MOL0     H 7881   2.825   9.213   5.279  0.3995 -0.1910 -0.8736
   60MOL0     H 7882   2.820   8.836   5.509 -2.0440 -1.7153  1.9750
   60MOL0     H 7883   2.612   8.781   5.606 -0.0841  1.5454  0.8407
   60MOL0     H 7884   2.138   8.785   5.679  0.8966 -0.4835 -1.1824
   60MOL0     H 7885   1.931   8.655   5.703  0.1045 -3.0740 -0.4268
   60MOL0     H 7886   1.760   8.563   5.330  1.3446  0.3659  1.5844
   60MOL0     H 7887   1.626   8.676   5.362 -1.8341 -0.6694 -0.8270
   60MOL0     H 7888   1.621   8.395   5.460 -0.1582 -1.7948 -1.7085
   60MOL0     H 7889   1.588   8.444   5.301  1.3141  0.6929 -0.2109
   60MOL0     H 7890   1.413   8.611   5.383 -1.9188 -0.7124  0.0669
   60MOL0     H 7891   1.443   8.551   5.551 -0.7297 -1.2062  0.2041
   60MOL0     H 7892   1.343   8.375   5.316 -1.4973 -1.2928  0.6866
   60MOL0     H 7893   1.346   8.345   5.487  1.1217 -1.7271 -1.4405
   60MOL0     H 7894   1.177   8.560   5.383 -0.8416 -0.5270 -0.3205
   60MOL0     H 7895   1.178   8.485   5.546 -1.0169  1.3495 -0.9497
   60MOL0     H 7896   1.081   8.284   5.454 -1.8536 -0.5139 -0.1242
   60MOL0     H 7897   1.103   8.349   5.287  1.2339 -2.0416 -0.2155
   60MOL0     H 7898   0.918   8.451   5.508 -1.3888 -1.4781 -1.1270
   60MOL0     H 7899   0.955   8.537   5.358 -1.3915 -0.3820 -0.9349
   60MOL0     H 7900   0.751   8.433   5.350 -1.2772 -2.3090 -0.9597
   60MOL0     H 7901   0.826   8.275   5.383 -1.9708  0.5202  0.8199
   60MOL0     H 7902   1.880   8.727   5.278 -2.7704  0.9782  1.6494
   60MOL0     H 7903   2.101   8.831   5.269  3.6543 -1.4649  0.3376
   60MOL0     H 7904   2.408   9.053   5.342  1.2427  2.2425 -2.0187
   60MOL0     H 7905   2.615   9.138   5.273  1.4946 -1.3337 -0.7432
   60MOL0     H 7906   2.095   9.697   5.415 -1.8420 -3.0783 -0.1023
   60MOL0     H 7907   1.957   9.540   5.272 -1.4764 -0.8284 -1.5623
   60MOL0     H 7908   1.576   9.631   4.875 -1.0226  0.2439 -1.8082
   60MOL0     H 7909   1.403   9.468   4.832  0.4889 -0.3502 -1.7250
   60MOL0     H 7910   1.332   9.040   4.868 -1.1772  1.6683 -2.0897
   60MOL0     H 7911   1.462   9.047   4.983 -0.5244 -1.4308 -0.3169
   60MOL0     H 7912   1.482   9.017   4.682  1.3376  2.1028 -0.4022
   60MOL0     H 7913   1.623   9.035   4.795  0.3559 -1.0086 -0.7988
   60MOL0     H 7914   1.427   8.835   4.845 -0.0454  1.8272  2.1330
   60MOL0     H 7915   1.600   8.834   4.895  2.1228 -1.1594 -1.5729
   60MOL0     H 7916   1.536   8.655   4.705  1.4777  0.0108  1.2780
   60MOL0     H 7917   1.520   8.801   4.601 -1.9401  0.3796  0.5530
   60MOL0     H 7918   1.942   8.756   4.683  0.4637 -0.9800  0.8327
   60MOL0     H 7919   1.659   9.154   4.977 -1.2056  0.2326 -0.8971
   60MOL0     H 7920   1.833   9.315   5.028  0.9518 -0.9045 -1.5176
   61MOL0     O 7921   3.946   8.438   6.761  0.1640  0.4788 -0.2935
   61MOL0     C 7922   3.925   8.386   6.651  0.3102  0.6597 -0.0096
   61MOL0     O 7923   3.796   8.345   6.607  0.1293  0.0684  0.6628
   61MOL0     C 7924   3.689   8.397   6.668  0.5855 -0.6399  0.8459
   61MOL0     C 7925   3.607   8.471   6.581  0.1503  0.5547  0.1172
   61MOL0     C 7926   3.477   8.505   6.616 -1.0349 -0.2462  0.2351
   61MOL0     C 7927   3.434   8.470   6.745  0.0831  1.0015 -0.2612
   61MOL0     O 7928   3.304   8.516   6.770  0.1125 -0.0155  0.0265
   61MOL0     C 7929   3.241   8.494   6.896  0.0200 -0.5603 -0.3107
   61MOL0     C 7930   3.100   8.559   6.901 -0.3953  0.4420  0.3744
   61MOL0     C 7931   3.011   8.521   6.786 -0.2891 -1.3893 -0.6191
   61MOL0     C 7932   2.952   8.380   6.796 -0.7953 -0.3441  0.0456
   61MOL0     C 7933   2.835   8.371   6.703  0.3280  0.1052  0.4262
   61MOL0     C 7934   2.719   8.453   6.747 -0.2114 -0.5816  0.5829
   61MOL0     C 7935   2.593   8.429   6.670  0.7042 -0.0318  0.2300
   61MOL0     C 7936   2.477   8.512   6.733  0.2267  0.0653 -0.2460
   61MOL0     N 7937   2.345   8.482   6.677 -0.7578  0.0084  0.4530
   61MOL0     C 7938   2.284   8.360   6.680 -0.2858  0.0865 -0.0613
   61MOL0     C 7939   2.159   8.384   6.640  1.1393  0.6998  1.3635
   61MOL0     C 7940   2.053   8.277   6.622 -0.5086 -0.1143 -0.0510
   61MOL0     C 7941   1.951   8.299   6.510 -0.5181 -1.0468  0.4571
   61MOL0     C 7942   1.844   8.393   6.552  0.7964 -0.5911  0.3024
   61MOL0     C 7943   1.733   8.407   6.451 -0.1215 -0.2091 -0.1978
   61MOL0     O 7944   1.612   8.472   6.513 -0.0128 -0.5650  0.1672
   61MOL0     C 7945   1.513   8.505   6.432  0.0938  0.2622 -0.2253
   61MOL0     C 7946   1.507   8.470   6.293  0.5658  0.5704  0.4821
   61MOL0     C 7947   1.398   8.504   6.214 -0.1063 -0.0680 -0.4580
   61MOL0     C 7948   1.279   8.556   6.278  0.5968 -0.4749 -0.0813
   61MOL0     C 7949   1.155   8.579   6.200  0.1316  0.3540 -0.1301
   61MOL0     O 7950   1.051   8.623   6.271 -0.0739  0.2507  0.0740
   61MOL0     C 7951   0.927   8.590   6.214  0.0055  0.1667 -0.1967
   61MOL0     C 7952   0.883   8.456   6.182  0.5717  0.0475  0.3182
   61MOL0     C 7953   0.751   8.442   6.123 -0.5594 -0.0884 -0.4295
   61MOL0     C 7954   0.665   8.555   6.108 -0.2772  0.3025 -0.2715
   61MOL0     O 7955   0.532   8.543   6.075  0.1860  0.4789  0.7169
   61MOL0     C 7956   0.453   8.429   6.129  0.1235  0.3901 -0.4304
   61MOL0     C 7957   0.320   8.449   6.059  0.1049  1.0975  0.1052
   61MOL0     C 7958   0.228   8.323   6.055  0.7110 -0.3716  0.2175
   61MOL0     C 7959   0.138   8.320   6.184 -0.0972 -0.2640 -0.1588
   61MOL0     C 7960   0.027   8.219   6.186  0.8815 -0.1894 -0.1744
   61MOL0     C 7961  -0.070   8.227   6.312 -0.3232  0.6558  1.0437
   61MOL0     C 7962  -0.192   8.137   6.298 -0.5923 -0.6309  0.1361
   61MOL0     C 7963  -0.283   8.146   6.416 -0.3973 -0.0931 -0.3726
   61MOL0    Cl 7964  -0.355   8.312   6.401  0.0134 -0.6991 -0.6425
   61MOL0     C 7965   0.710   8.682   6.143 -0.6848  0.3535 -0.2647
   61MOL0     C 7966   0.842   8.701   6.194  0.1509  0.4368 -0.0760
   61MOL0     O 7967   1.150   8.566   6.078  0.1922  0.6708 -1.1112
   61MOL0     C 7968   1.280   8.576   6.419  0.1709 -0.4296 -0.6716
   61MOL0     C 7969   1.396   8.559   6.491  0.4101 -0.0297 -0.3980
   61MOL0     N 7970   2.140   8.523   6.615  0.1735 -0.0475  0.3428
   61MOL0     N 7971   2.260   8.576   6.636  0.4952  0.1411 -0.0852
   61MOL0     C 7972   3.509   8.404   6.833  0.2861  0.2448 -0.6618
   61MOL0     C 7973   3.633   8.357   6.795  0.3336 -1.5058 -0.0290
   61MOL0     C 7974   4.041   8.338   6.576 -0.4987  0.0964  0.4363
   61MOL0     C 7975   4.171   8.353   6.632 -0.5610 -0.3421 -0.1172
   61MOL0     C 7976   4.277   8.285   6.569  0.5815 -0.3403 -0.3451
   61MOL0     C 7977   4.257   8.212   6.455 -0.1766  0.6418  0.8749
   61MOL0     O 7978   4.352   8.121   6.394  0.3896  0.1270  0.3081
   61MOL0     C 7979   4.490   8.117   6.427 -0.8445  0.0632  0.4216
   61MOL0     C 7980   4.569   7.995   6.360 -0.0247  0.1846  0.8222
   61MOL0     C 7981   4.717   8.031   6.346  0.5686  0.3665 -0.2822
   61MOL0     C 7982   4.790   7.965   6.464 -0.4214  0.4193  0.1195
   61MOL0     C 7983   4.935   7.983   6.440  0.6413  0.4386 -0.0197
   61MOL0     C 7984   5.048   7.991   6.409  0.3552 -0.4804  0.2104
   61MOL0     C 7985   4.135   8.205   6.399 -0.1273  1.0326 -0.7777
   61MOL0     C 7986   4.029   8.272   6.449 -0.6145 -0.0835 -0.9420
   61MOL0     H 7987   3.636   8.500   6.481  1.1465  0.7093  0.4368
   61MOL0     H 7988   3.412   8.559   6.548  2.6967  2.5452 -1.4983
   61MOL0     H 7989   3.290   8.548   6.978 -0.0914 -0.4076 -0.3433
   61MOL0     H 7990   3.245   8.390   6.928 -0.8016 -0.5943 -0.2977
   61MOL0     H 7991   3.134   8.663   6.905  1.8564 -0.0179 -2.8203
   61MOL0     H 7992   3.058   8.527   6.997 -1.1377  2.2536  0.6907
   61MOL0     H 7993   3.072   8.527   6.695 -0.9720  2.1087 -0.9971
   61MOL0     H 7994   2.935   8.600   6.783 -0.1576 -1.2417 -0.2141
   61MOL0     H 7995   3.030   8.307   6.774  0.8428  1.3145  0.1382
   61MOL0     H 7996   2.908   8.356   6.894 -0.6522 -0.5863  0.0483
   61MOL0     H 7997   2.805   8.267   6.712  2.5887 -0.6755 -0.2994
   61MOL0     H 7998   2.862   8.386   6.598  0.4752 -0.8261  0.3217
   61MOL0     H 7999   2.746   8.557   6.727  1.9246 -0.4490  3.4498
   61MOL0     H 8000   2.693   8.450   6.853 -1.9198  1.0250  0.2398
   61MOL0     H 8001   2.601   8.461   6.566 -1.3666 -0.0584  0.0130
   61MOL0     H 8002   2.570   8.322   6.673  1.7454 -0.3758 -2.2150
   61MOL0     H 8003   2.498   8.620   6.733 -4.4685  1.2629 -1.7234
   61MOL0     H 8004   2.472   8.484   6.838  0.5265  1.6699  0.2243
   61MOL0     H 8005   2.320   8.260   6.703 -0.1691  0.3696  0.9880
   61MOL0     H 8006   2.002   8.273   6.719  0.7038 -1.1590  0.5764
   61MOL0     H 8007   2.116   8.190   6.600  0.7318  0.4092  1.2688
   61MOL0     H 8008   1.912   8.199   6.488 -1.5695 -0.5580  0.0282
   61MOL0     H 8009   2.008   8.332   6.423 -1.7130  2.2625  0.7801
   61MOL0     H 8010   1.796   8.344   6.638  0.6304  1.4985  1.4750
   61MOL0     H 8011   1.881   8.492   6.578  0.6177  0.1247 -1.9821
   61MOL0     H 8012   1.707   8.310   6.408 -4.6937  0.0673  1.4197
   61MOL0     H 8013   1.786   8.466   6.376 -1.0454 -2.7192 -3.0372
   61MOL0     H 8014   1.597   8.431   6.246  0.0935 -1.3643  1.0668
   61MOL0     H 8015   1.390   8.479   6.108  1.3548  0.4794 -0.7244
   61MOL0     H 8016   0.933   8.360   6.193 -0.4156 -0.3380  1.6367
   61MOL0     H 8017   0.727   8.348   6.075  0.9574 -0.9727  0.4485
   61MOL0     H 8018   0.433   8.429   6.236  1.7798  0.0418 -0.0906
   61MOL0     H 8019   0.479   8.329   6.094 -3.2396 -2.6582  4.6124
   61MOL0     H 8020   0.338   8.473   5.954  3.6842  0.3943  0.4193
   61MOL0     H 8021   0.253   8.521   6.104 -0.0877  0.2340  1.2496
   61MOL0     H 8022   0.285   8.231   6.044  0.5913 -0.8539  2.9105
   61MOL0     H 8023   0.167   8.345   5.967  1.0094  0.1396  0.1311
   61MOL0     H 8024   0.195   8.296   6.274 -0.3005 -1.0769 -0.2451
   61MOL0     H 8025   0.092   8.415   6.213 -1.0022 -1.3235  2.1380
   61MOL0     H 8026   0.070   8.119   6.193 -1.5347 -1.2197  1.2115
   61MOL0     H 8027  -0.036   8.219   6.097 -1.4554 -3.8494  1.2875
   61MOL0     H 8028  -0.104   8.330   6.329  1.5135  1.3275  0.9100
   61MOL0     H 8029  -0.017   8.202   6.404  1.3857  0.5607  0.0680
   61MOL0     H 8030  -0.244   8.166   6.206 -0.1734  1.3160  0.4832
   61MOL0     H 8031  -0.169   8.032   6.278 -3.4147 -1.1362 -1.0691
   61MOL0     H 8032  -0.219   8.141   6.505  1.0231 -0.3925 -1.3752
   61MOL0     H 8033  -0.362   8.071   6.408  0.0033 -0.7652  1.4559
   61MOL0     H 8034   0.640   8.763   6.124 -0.6031 -0.1215 -2.9810
   61MOL0     H 8035   0.871   8.804   6.211  1.5578 -0.2868  2.2546
   61MOL0     H 8036   1.188   8.619   6.459  0.4208 -0.2124 -0.3346
   61MOL0     H 8037   1.385   8.586   6.596 -0.0911  1.1422 -0.7410
   61MOL0     H 8038   3.484   8.396   6.938 -0.2789  3.4705 -0.4608
   61MOL0     H 8039   3.704   8.319   6.868 -0.1257 -2.8528 -0.2663
   61MOL0     H 8040   4.180   8.404   6.727 -1.3129  1.6020 -1.0443
   61MOL0     H 8041   4.374   8.300   6.616  0.0453  0.7920  0.4675
   61MOL0     H 8042   4.516   8.125   6.533  3.0007  0.6062 -0.4373
   61MOL0     H 8043   4.540   8.204   6.384  0.7201 -1.0144  0.0027
   61MOL0     H 8044   4.551   7.901   6.412  2.5626  0.1141  1.7238
   61MOL0     H 8045   4.531   7.976   6.259 -1.3670  0.0017  1.3458
   61MOL0     H 8046   4.737   8.138   6.348 -1.9248  0.9008  1.4477
   61MOL0     H 8047   4.749   7.999   6.247  0.4715  0.5186 -0.3617
   61MOL0     H 8048   4.758   8.007   6.559 -1.1395  0.4056 -0.1046
   61MOL0     H 8049   4.763   7.859   6.472 -3.1162  1.0392  0.3828
   61MOL0     H 8050   5.148   7.997   6.370  0.4759 -1.9241  0.2367
   61MOL0     H 8051   4.118   8.132   6.320  0.9525 -1.2511  0.9900
   61MOL0     H 8052   3.932   8.251   6.405 -0.4524 -3.7285  0.1496
   62MOL0     O 8053   3.964   3.354   6.450  0.0691  0.3625 -0.3620
   62MOL0     C 8054   4.014   3.432   6.373  0.3434  0.0122  0.1031
   62MOL0     O 8055   3.951   3.480   6.259 -0.3009  0.2479  0.3957
   62MOL0     C 8056   3.813   3.465   6.229 -0.0911 -0.2725  0.5218
   62MOL0     C 8057   3.782   3.512   6.104  0.1686 -0.9656  0.3348
   62MOL0     C 8058   3.646   3.511   6.054  0.0758  0.2499 -0.5848
   62MOL0     C 8059   3.534   3.452   6.132 -0.8056 -0.0390 -1.8181
   62MOL0     O 8060   3.402   3.455   6.096 -0.0679 -0.2838 -0.5023
   62MOL0     C 8061   3.389   3.413   5.959  0.1505 -0.5403  0.1903
   62MOL0     C 8062   3.251   3.347   5.931 -0.4156 -0.3013  0.0015
   62MOL0     C 8063   3.130   3.430   5.979 -0.3982 -0.1856  0.3243
   62MOL0     C 8064   3.111   3.580   5.923 -0.1939  1.6038  0.5845
   62MOL0     C 8065   3.044   3.581   5.779 -1.0589 -0.2336 -0.3465
   62MOL0     C 8066   3.045   3.721   5.706 -0.2620 -0.3205 -0.0876
   62MOL0     C 8067   3.019   3.699   5.558  0.1155 -0.4222 -0.1673
   62MOL0     C 8068   3.138   3.692   5.467 -0.0730 -0.4587 -0.1444
   62MOL0     N 8069   3.244   3.604   5.503  0.8641  0.1405 -0.1318
   62MOL0     C 8070   3.272   3.494   5.429 -0.5753  0.3822  0.4765
   62MOL0     C 8071   3.396   3.452   5.475 -0.0761 -0.5723  0.7746
   62MOL0     C 8072   3.479   3.332   5.433 -0.8611  0.6389  0.0001
   62MOL0     C 8073   3.566   3.267   5.552  0.5743 -0.7604  0.8037
   62MOL0     C 8074   3.482   3.179   5.644 -0.8796 -0.1302  0.0313
   62MOL0     C 8075   3.472   3.037   5.588 -0.9054 -0.7743 -0.3687
   62MOL0     O 8076   3.362   3.013   5.510 -0.7077 -0.2172  0.0463
   62MOL0     C 8077   3.250   2.960   5.564  0.5933  0.2329  0.0542
   62MOL0     C 8078   3.142   2.932   5.479  0.3243 -0.4733 -0.0303
   62MOL0     C 8079   3.024   2.864   5.514  0.1478  0.6820 -0.1723
   62MOL0     C 8080   3.006   2.834   5.655  0.1342 -0.4331  0.4365
   62MOL0     C 8081   2.874   2.792   5.700  0.0734 -0.1426 -0.4940
   62MOL0     O 8082   2.778   2.788   5.612 -0.8574 -0.3071 -0.4180
   62MOL0     C 8083   2.643   2.770   5.645  0.3674 -0.1568  0.0695
   62MOL0     C 8084   2.548   2.847   5.582  0.1703 -0.4200  0.4980
   62MOL0     C 8085   2.411   2.823   5.591  0.9161 -0.2594 -0.0718
   62MOL0     C 8086   2.365   2.718   5.670  0.8840  0.0475  0.1667
   62MOL0     O 8087   2.228   2.698   5.661 -0.1093 -0.5819 -0.3991
   62MOL0     C 8088   2.184   2.615   5.768 -0.2547  0.5469 -0.1068
   62MOL0     C 8089   2.037   2.579   5.760  0.2218  0.3483  0.1479
   62MOL0     C 8090   1.991   2.530   5.633 -0.2422  0.0797  1.1827
   62MOL0     C 8091   1.839   2.539   5.623 -0.1843  0.6884 -0.1312
   62MOL0     C 8092   1.776   2.477   5.743  0.0673 -0.3207 -0.0921
   62MOL0     C 8093   1.621   2.467   5.713  0.8295  0.4939 -0.0378
   62MOL0     C 8094   1.552   2.412   5.834  0.5382  0.2539 -0.8672
   62MOL0     C 8095   1.395   2.399   5.813  0.3774  0.4596  0.1969
   62MOL0    Cl 8096   1.324   2.314   5.955 -0.0048  0.1742  0.1619
   62MOL0     C 8097   2.456   2.640   5.742 -0.0260  0.1384  0.3183
   62MOL0     C 8098   2.592   2.671   5.735 -0.6794  0.5506  0.8046
   62MOL0     O 8099   2.858   2.787   5.822 -0.5521 -0.0111  0.2219
   62MOL0     C 8100   3.103   2.868   5.747  0.1861 -0.9730  0.1562
   62MOL0     C 8101   3.231   2.925   5.703 -0.0957  0.5026  1.0883
   62MOL0     N 8102   3.432   3.546   5.563 -0.6797  0.1151 -0.7245
   62MOL0     N 8103   3.344   3.636   5.589  0.2977  0.1155  0.7073
   62MOL0     C 8104   3.577   3.397   6.258  0.9375 -0.1410  0.0060
   62MOL0     C 8105   3.710   3.401   6.307 -0.2469 -0.0908 -0.3651
   62MOL0     C 8106   4.155   3.453   6.392  0.1557 -0.7021  0.1924
   62MOL0     C 8107   4.233   3.505   6.291  0.4147  0.1897  0.3900
   62MOL0     C 8108   4.370   3.502   6.297  0.3158  0.0291 -0.4540
   62MOL0     C 8109   4.434   3.457   6.410 -0.8652 -0.4955  0.4865
   62MOL0     O 8110   4.564   3.435   6.396 -0.1485  0.3262  0.4287
   62MOL0     C 8111   4.632   3.374   6.503  0.9448 -0.1591 -0.7160
   62MOL0     C 8112   4.667   3.466   6.621 -0.6160 -0.6015 -0.3258
   62MOL0     C 8113   4.755   3.585   6.583 -0.2860 -0.0024 -0.1255
   62MOL0     C 8114   4.871   3.560   6.476  0.2685  0.0420 -0.2807
   62MOL0     C 8115   4.960   3.464   6.543  1.4157  0.7729 -0.6172
   62MOL0     C 8116   5.016   3.372   6.595  0.0013 -0.0996  0.1432
   62MOL0     C 8117   4.355   3.418   6.519  0.3774 -0.3068  0.2302
   62MOL0     C 8118   4.218   3.416   6.511 -0.1724  0.1034 -0.4218
   62MOL0     H 8119   3.855   3.563   6.042  0.0164 -1.3251 -0.1387
   62MOL0     H 8120   3.630   3.541   5.952  1.4095  1.5802 -0.4386
   62MOL0     H 8121   3.456   3.330   5.935 -0.0456 -0.6273 -0.0582
   62MOL0     H 8122   3.396   3.498   5.892  2.6252 -0.7605  0.0917
   62MOL0     H 8123   3.261   3.265   6.003 -0.0342  1.1900  1.6911
   62MOL0     H 8124   3.244   3.319   5.825 -0.2649  0.3649 -0.1861
   62MOL0     H 8125   3.140   3.435   6.088  1.1263 -0.3277  0.2096
   62MOL0     H 8126   3.050   3.359   5.957  1.9524 -3.2023  0.8248
   62MOL0     H 8127   3.048   3.622   6.001  0.6449  0.8725  1.6853
   62MOL0     H 8128   3.208   3.630   5.925  0.0366  1.1560  2.3671
   62MOL0     H 8129   2.940   3.555   5.798 -0.3373 -0.9646  3.1316
   62MOL0     H 8130   3.079   3.506   5.707 -1.3088  2.4680 -3.5529
   62MOL0     H 8131   3.134   3.779   5.731 -1.0879  0.2501  1.7119
   62MOL0     H 8132   2.960   3.780   5.743 -0.9318 -0.8971 -0.6913
   62MOL0     H 8133   2.956   3.610   5.547  1.0199 -1.0524 -0.3522
   62MOL0     H 8134   2.953   3.780   5.526 -0.9217 -1.3708 -0.4589
   62MOL0     H 8135   3.186   3.791   5.462 -0.5055 -0.2803 -0.7774
   62MOL0     H 8136   3.102   3.664   5.368 -1.3530 -0.1224  0.2086
   62MOL0     H 8137   3.217   3.440   5.352 -1.7496  4.0027 -1.4672
   62MOL0     H 8138   3.545   3.351   5.347 -0.1166 -3.8748 -0.6632
   62MOL0     H 8139   3.406   3.260   5.397 -0.1447  0.9216 -2.2266
   62MOL0     H 8140   3.605   3.360   5.594  0.9102  0.5783 -2.1432
   62MOL0     H 8141   3.644   3.214   5.496 -2.7943 -2.6575 -2.6441
   62MOL0     H 8142   3.522   3.179   5.745 -2.8816 -0.6839  0.8816
   62MOL0     H 8143   3.381   3.222   5.652 -1.2119 -1.1368  1.7369
   62MOL0     H 8144   3.476   2.964   5.669 -0.0723  1.0248  1.3092
   62MOL0     H 8145   3.563   3.018   5.530 -0.3855 -0.4793  0.3313
   62MOL0     H 8146   3.160   2.956   5.375  0.9532  0.6355  0.3159
   62MOL0     H 8147   2.946   2.836   5.444 -1.3268  2.2970  0.7508
   62MOL0     H 8148   2.575   2.935   5.524 -1.8077  0.0780  0.2571
   62MOL0     H 8149   2.341   2.890   5.541 -0.7613 -0.9051  1.3247
   62MOL0     H 8150   2.194   2.671   5.861 -3.3239 -0.1976  0.7805
   62MOL0     H 8151   2.230   2.516   5.776  0.5483  0.9692  0.6256
   62MOL0     H 8152   1.986   2.672   5.788 -1.2848 -1.1618  2.8044
   62MOL0     H 8153   2.001   2.510   5.837 -1.6097  0.5776 -0.4538
   62MOL0     H 8154   2.019   2.425   5.621 -0.6272  0.0099  0.8525
   62MOL0     H 8155   2.036   2.580   5.547 -0.0745 -4.1681 -1.5513
   62MOL0     H 8156   1.803   2.642   5.617 -0.0602  0.8169  1.1627
   62MOL0     H 8157   1.810   2.480   5.536  1.1366  1.0364 -0.8420
   62MOL0     H 8158   1.785   2.543   5.829 -0.3172  1.0834 -1.0912
   62MOL0     H 8159   1.814   2.380   5.775  1.9810 -0.4865 -2.6092
   62MOL0     H 8160   1.617   2.404   5.624 -0.4262 -0.3980  0.6112
   62MOL0     H 8161   1.574   2.565   5.699 -0.9100 -0.3682 -0.5980
   62MOL0     H 8162   1.583   2.309   5.858 -2.2587  0.0728  2.9063
   62MOL0     H 8163   1.570   2.476   5.921 -1.0675  1.6548 -1.5230
   62MOL0     H 8164   1.368   2.355   5.717 -1.7709  2.4828 -0.1869
   62MOL0     H 8165   1.347   2.497   5.817 -1.6722 -0.4759 -0.1456
   62MOL0     H 8166   2.427   2.553   5.800  0.2958  0.2683  0.6817
   62MOL0     H 8167   2.666   2.603   5.776  1.1555  1.7549 -0.3248
   62MOL0     H 8168   3.084   2.864   5.854 -2.9742  0.1490 -0.2495
   62MOL0     H 8169   3.303   2.963   5.774  0.2190  3.9445 -0.8537
   62MOL0     H 8170   3.495   3.353   6.314  1.7728  0.2363  1.5837
   62MOL0     H 8171   3.729   3.369   6.409  2.6069  0.3612 -0.6621
   62MOL0     H 8172   4.188   3.528   6.195  0.6729 -2.4029 -0.4141
   62MOL0     H 8173   4.425   3.533   6.208 -0.7805 -0.4184 -1.3022
   62MOL0     H 8174   4.726   3.329   6.472 -0.2144 -1.9459 -1.8235
   62MOL0     H 8175   4.568   3.295   6.544  1.7781  0.7294  2.5130
   62MOL0     H 8176   4.573   3.495   6.670  0.6939 -1.4385  3.0179
   62MOL0     H 8177   4.715   3.404   6.698 -1.7392  0.3622  1.2205
   62MOL0     H 8178   4.809   3.622   6.671 -0.6023 -1.4463  0.6946
   62MOL0     H 8179   4.690   3.663   6.542  1.8257  0.4274 -3.0197
   62MOL0     H 8180   4.841   3.511   6.383 -0.5717 -1.5866  0.8079
   62MOL0     H 8181   4.929   3.652   6.459  1.6438 -0.4049  1.6606
   62MOL0     H 8182   5.052   3.279   6.635  0.4101 -0.0530 -0.1124
   62MOL0     H 8183   4.391   3.368   6.609  2.6047 -3.4492 -2.1799
   62MOL0     H 8184   4.158   3.377   6.593  0.9394  0.4962  0.6095
   63MOL0     O 8185   9.887   1.358   5.693 -0.4989 -0.7024 -0.3624
   63MOL0     C 8186   9.955   1.397   5.789 -0.3687  0.0620  0.0219
   63MOL0     O 8187   9.919   1.456   5.904 -0.0993  0.0077 -0.4011
   63MOL0     C 8188   9.789   1.490   5.929  0.9260 -0.2996  0.2173
   63MOL0     C 8189   9.721   1.437   6.039  0.0797 -0.0014  0.2963
   63MOL0     C 8190   9.590   1.478   6.077  0.1975  0.1183  0.6266
   63MOL0     C 8191   9.518   1.561   5.988  0.5427  0.5862 -0.8696
   63MOL0     O 8192   9.388   1.599   6.010 -0.4017 -0.5965 -0.4051
   63MOL0     C 8193   9.325   1.567   6.138 -0.2697 -0.0545  0.5460
   63MOL0     C 8194   9.192   1.635   6.142  0.0453  0.0098  0.2640
   63MOL0     C 8195   9.107   1.600   6.269  0.2936 -0.5852  0.4780
   63MOL0     C 8196   9.192   1.619   6.396  0.3163 -0.5575  0.2907
   63MOL0     C 8197   9.106   1.573   6.522 -0.3371 -0.1364 -0.3430
   63MOL0     C 8198   9.185   1.613   6.655  0.8809 -0.1466 -0.1852
   63MOL0     C 8199   9.105   1.560   6.775  0.1213 -0.0418 -0.0685
   63MOL0     C 8200   9.171   1.577   6.914  0.5389  0.3279  0.1216
   63MOL0     N 8201   9.197   1.719   6.934 -0.9780  0.0510  0.3473
   63MOL0     C 8202   9.321   1.783   6.934  0.2785 -0.2545 -0.2678
   63MOL0     C 8203   9.293   1.913   6.954  0.8268 -0.0690 -0.1777
   63MOL0     C 8204   9.393   2.017   6.978  0.1248  0.4645 -1.0092
   63MOL0     C 8205   9.505   1.985   7.080  0.3625 -0.4649 -0.7692
   63MOL0     C 8206   9.592   2.106   7.108  0.0843  1.1031  0.4574
   63MOL0     C 8207   9.714   2.078   7.210  0.2232 -0.4835  0.3746
   63MOL0     O 8208   9.826   2.010   7.156  0.3835 -0.7054  0.1422
   63MOL0     C 8209   9.920   2.081   7.086  0.4094 -0.1583  0.4688
   63MOL0     C 8210   9.914   2.211   7.056 -0.7550 -0.8049  0.1922
   63MOL0     C 8211  10.013   2.277   6.983 -0.2749 -0.1987  0.0523
   63MOL0     C 8212  10.135   2.212   6.949  0.0670  0.2432 -0.1861
   63MOL0     C 8213  10.233   2.273   6.862 -0.1687 -0.5027 -0.0773
   63MOL0     O 8214  10.225   2.412   6.845 -0.4120  0.7688 -0.5317
   63MOL0     C 8215  10.318   2.471   6.761  0.6447 -0.3575  0.5089
   63MOL0     C 8216  10.312   2.437   6.623 -0.4397 -0.6547 -0.4347
   63MOL0     C 8217  10.415   2.471   6.539  0.3514  0.4855  0.3576
   63MOL0     C 8218  10.522   2.549   6.582 -0.6409 -0.4863 -0.0947
   63MOL0     O 8219  10.616   2.581   6.485 -0.3127 -0.1374 -0.6167
   63MOL0     C 8220  10.731   2.655   6.536  0.4545 -0.2037 -0.2613
   63MOL0     C 8221  10.818   2.684   6.407 -0.8838 -0.2990 -0.9835
   63MOL0     C 8222  10.891   2.558   6.379 -0.0705 -0.0357 -0.6542
   63MOL0     C 8223  10.959   2.560   6.247  0.2548 -0.1255 -0.3278
   63MOL0     C 8224  11.059   2.446   6.229 -0.4950 -0.2375  0.1574
   63MOL0     C 8225  11.139   2.461   6.110  0.1251  0.3003 -0.5319
   63MOL0     C 8226  11.057   2.435   5.981  1.0262  0.1776  0.8533
   63MOL0     C 8227  11.021   2.283   5.963  0.3380  0.4033  0.8176
   63MOL0    Cl 8228  10.914   2.266   5.829  0.1856 -0.0078  0.2651
   63MOL0     C 8229  10.520   2.586   6.718 -0.1381 -0.4286  0.3221
   63MOL0     C 8230  10.432   2.539   6.810  0.7079 -0.3434  0.6978
   63MOL0     O 8231  10.331   2.213   6.822 -0.2529  0.0033 -0.2925
   63MOL0     C 8232  10.142   2.074   6.992 -0.1871 -0.5089  0.5319
   63MOL0     C 8233  10.038   2.007   7.055 -0.3602  0.2504  0.4863
   63MOL0     N 8234   9.160   1.932   6.946 -0.4160  0.3131 -0.0645
   63MOL0     N 8235   9.102   1.810   6.935 -0.6895 -0.3688 -0.6615
   63MOL0     C 8236   9.582   1.605   5.869  0.0454 -0.3110 -0.6513
   63MOL0     C 8237   9.713   1.565   5.844  0.8114  0.4713  0.8607
   63MOL0     C 8238  10.093   1.349   5.787  0.1015 -0.9268  0.0751
   63MOL0     C 8239  10.144   1.276   5.679  0.5647 -0.0190 -0.4953
   63MOL0     C 8240  10.278   1.227   5.691  0.0173  0.0652  0.0794
   63MOL0     C 8241  10.359   1.247   5.801  0.5937 -1.4532 -0.1741
   63MOL0     O 8242  10.489   1.209   5.808  0.8318  0.3093  0.3408
   63MOL0     C 8243  10.531   1.142   5.928  0.4254 -0.2438 -0.6604
   63MOL0     C 8244  10.672   1.163   5.960 -0.5027 -0.2849  0.7926
   63MOL0     C 8245  10.721   1.099   6.089 -0.9162  0.3018  0.2529
   63MOL0     C 8246  10.866   1.139   6.137  0.3429  0.3857 -0.6936
   63MOL0     C 8247  10.969   1.114   6.036 -0.2360 -0.1437 -0.5076
   63MOL0     C 8248  11.050   1.088   5.954  0.2124 -0.1486 -0.8761
   63MOL0     C 8249  10.308   1.328   5.906 -0.5528  0.0540 -0.6050
   63MOL0     C 8250  10.177   1.380   5.892 -0.4675  0.0812 -0.6921
   63MOL0     H 8251   9.769   1.359   6.098 -2.9496 -0.3525  2.5298
   63MOL0     H 8252   9.548   1.421   6.160 -0.7585 -2.3338 -1.3698
   63MOL0     H 8253   9.397   1.590   6.216  0.2763  0.2223 -0.0315
   63MOL0     H 8254   9.319   1.457   6.142 -0.0366 -0.2577 -2.4469
   63MOL0     H 8255   9.127   1.613   6.057 -0.0508  1.6032 -0.1103
   63MOL0     H 8256   9.194   1.744   6.144 -2.1906  0.1131 -0.2942
   63MOL0     H 8257   9.070   1.497   6.270 -1.6836  0.0768  1.2923
   63MOL0     H 8258   9.015   1.657   6.287 -1.2298 -2.4265 -1.0446
   63MOL0     H 8259   9.284   1.559   6.394  0.7311  0.0854 -0.6965
   63MOL0     H 8260   9.214   1.724   6.415 -3.1086 -0.2348  3.5428
   63MOL0     H 8261   9.086   1.466   6.524  2.0218 -0.6990 -2.2469
   63MOL0     H 8262   9.011   1.623   6.502 -0.5808 -0.6067 -0.3876
   63MOL0     H 8263   9.195   1.722   6.649  0.3440 -0.0793  0.0431
   63MOL0     H 8264   9.286   1.572   6.652  0.3119 -1.8926  1.8798
   63MOL0     H 8265   9.004   1.601   6.788 -0.2533 -1.1357  0.6658
   63MOL0     H 8266   9.084   1.454   6.756  3.5527 -0.6247 -1.2992
   63MOL0     H 8267   9.263   1.520   6.928  0.2497 -0.0552  0.4490
   63MOL0     H 8268   9.110   1.542   6.997 -0.8099 -0.5981 -1.2031
   63MOL0     H 8269   9.419   1.737   6.940  1.3612  1.4897 -2.7881
   63MOL0     H 8270   9.346   2.112   7.007 -0.1355 -0.4594  1.9537
   63MOL0     H 8271   9.432   2.039   6.878 -0.9778 -2.4619 -2.1806
   63MOL0     H 8272   9.561   1.895   7.051  0.7947 -0.6716  0.6591
   63MOL0     H 8273   9.459   1.951   7.173  1.3588 -2.3751 -0.9070
   63MOL0     H 8274   9.628   2.148   7.014  0.8903  0.0984  0.2973
   63MOL0     H 8275   9.527   2.182   7.153  1.6506  2.5610  0.3363
   63MOL0     H 8276   9.674   2.024   7.296 -2.6177  0.3069 -0.3486
   63MOL0     H 8277   9.747   2.176   7.246  0.8273 -1.1128  1.5728
   63MOL0     H 8278   9.831   2.279   7.076  0.5182  1.2078 -1.0106
   63MOL0     H 8279   9.999   2.379   6.949 -1.0305 -0.7079 -1.2038
   63MOL0     H 8280  10.231   2.373   6.589 -3.0781 -0.8056  5.0160
   63MOL0     H 8281  10.424   2.425   6.441 -0.9126 -1.0675  0.9275
   63MOL0     H 8282  10.783   2.603   6.616 -2.2747 -4.4023 -0.9272
   63MOL0     H 8283  10.701   2.750   6.582 -0.1965 -0.2036 -0.6707
   63MOL0     H 8284  10.883   2.771   6.420 -0.7774  0.0751 -3.5363
   63MOL0     H 8285  10.754   2.713   6.323 -1.8985 -2.8716 -1.1844
   63MOL0     H 8286  10.825   2.471   6.386  0.8695 -0.6178  3.0326
   63MOL0     H 8287  10.960   2.538   6.462 -1.3491 -0.5950  0.3220
   63MOL0     H 8288  10.886   2.564   6.165 -0.3761 -4.4085 -0.2091
   63MOL0     H 8289  11.019   2.651   6.256  0.5479 -0.5427  2.6340
   63MOL0     H 8290  10.999   2.356   6.244 -0.4595 -0.0691  1.4008
   63MOL0     H 8291  11.115   2.452   6.324 -3.3870  1.8349  1.8901
   63MOL0     H 8292  11.225   2.395   6.122 -0.9414 -0.9057  0.7270
   63MOL0     H 8293  11.199   2.553   6.112  1.2579 -0.4286  1.2474
   63MOL0     H 8294  10.960   2.484   5.974  1.4471  1.1536  1.6994
   63MOL0     H 8295  11.110   2.468   5.891  2.1930  0.0977  1.4854
   63MOL0     H 8296  10.970   2.244   6.051  0.0900 -0.6721  0.2277
   63MOL0     H 8297  11.111   2.220   5.952 -0.1468 -0.1922  0.0990
   63MOL0     H 8298  10.606   2.617   6.777  0.8253 -2.9701  0.4188
   63MOL0     H 8299  10.439   2.562   6.916  2.9310  2.0373  0.1464
   63MOL0     H 8300  10.231   2.016   6.969 -0.6242 -1.0675  0.2310
   63MOL0     H 8301  10.064   1.902   7.059 -0.3539 -0.0572 -3.5973
   63MOL0     H 8302   9.534   1.669   5.795 -0.1168 -0.2218 -0.4699
   63MOL0     H 8303   9.763   1.594   5.752  0.4952 -0.5247  0.3646
   63MOL0     H 8304  10.097   1.245   5.587  0.2671 -0.2361 -0.2678
   63MOL0     H 8305  10.311   1.171   5.604  1.0119 -1.7034  1.5040
   63MOL0     H 8306  10.514   1.034   5.921  0.3362 -0.2458 -0.4261
   63MOL0     H 8307  10.472   1.172   6.015  0.1823 -2.3192 -0.0597
   63MOL0     H 8308  10.741   1.127   5.883 -2.5195 -1.8565 -0.3877
   63MOL0     H 8309  10.676   1.272   5.961  0.9098 -0.2769 -0.6820
   63MOL0     H 8310  10.703   0.991   6.095  3.9139 -0.6901  3.3801
   63MOL0     H 8311  10.654   1.141   6.164 -2.4048  1.0164 -1.4186
   63MOL0     H 8312  10.860   1.244   6.166  2.1509  0.4063 -0.3216
   63MOL0     H 8313  10.878   1.078   6.227 -7.7489 -0.3025  0.6685
   63MOL0     H 8314  11.128   1.078   5.881  0.7494 -1.6839 -0.1407
   63MOL0     H 8315  10.368   1.344   5.995 -0.8232 -3.8294  0.4869
   63MOL0     H 8316  10.144   1.441   5.976  2.0631  1.2366 -0.4100
   64MOL0     O 8317   5.422   2.440   5.051  0.5273 -0.3366  0.1561
   64MOL0     C 8318   5.537   2.461   5.085  0.6190 -0.1667  0.0114
   64MOL0     O 8319   5.580   2.588   5.122  0.5615  0.2738  0.1731
   64MOL0     C 8320   5.497   2.700   5.113 -0.4054  0.2281 -1.1402
   64MOL0     C 8321   5.470   2.772   4.993  0.2240  0.3943 -0.4496
   64MOL0     C 8322   5.383   2.883   4.997  0.3702  0.1761 -0.3653
   64MOL0     C 8323   5.340   2.937   5.123 -0.6889  0.2003 -0.3268
   64MOL0     O 8324   5.260   3.044   5.136  0.0844  0.3753 -0.1082
   64MOL0     C 8325   5.219   3.127   5.019  0.7195 -0.5896  0.2598
   64MOL0     C 8326   5.149   3.261   5.054 -0.1437  0.0852 -0.0566
   64MOL0     C 8327   5.231   3.349   5.150  0.1617 -0.5360 -0.5837
   64MOL0     C 8328   5.142   3.465   5.197  0.8443  0.2976 -1.0074
   64MOL0     C 8329   5.040   3.416   5.294 -0.5162  0.2498  0.6280
   64MOL0     C 8330   5.104   3.346   5.419 -0.1009  0.1798  0.3538
   64MOL0     C 8331   5.053   3.388   5.562 -0.0682  0.0917  0.4961
   64MOL0     C 8332   4.900   3.392   5.580 -0.5239  0.4440  0.1191
   64MOL0     N 8333   4.845   3.254   5.610  0.8296  0.4367 -0.0924
   64MOL0     C 8334   4.815   3.214   5.734 -0.7958  0.4390  0.0288
   64MOL0     C 8335   4.788   3.083   5.712  0.8176  1.3197  0.6830
   64MOL0     C 8336   4.742   2.972   5.806  0.2039 -0.0204 -0.3288
   64MOL0     C 8337   4.858   2.933   5.893  0.4207  0.2957 -0.5225
   64MOL0     C 8338   4.829   2.806   5.988  0.2035 -0.6145  0.2439
   64MOL0     C 8339   4.934   2.793   6.101  0.5242 -0.6368 -1.1864
   64MOL0     O 8340   5.046   2.728   6.043  0.5909  0.4865  0.2268
   64MOL0     C 8341   5.159   2.722   6.115  0.4640 -1.2131  0.1478
   64MOL0     C 8342   5.166   2.718   6.253  0.2157  0.2323 -0.2060
   64MOL0     C 8343   5.288   2.688   6.320  0.2439  0.2952  1.0192
   64MOL0     C 8344   5.401   2.671   6.246 -0.2516 -0.6375  1.0200
   64MOL0     C 8345   5.528   2.642   6.305 -0.2819 -0.4014 -0.8180
   64MOL0     O 8346   5.636   2.613   6.228 -0.3249  0.2548 -0.2709
   64MOL0     C 8347   5.755   2.628   6.291  0.7227  0.2929  0.2315
   64MOL0     C 8348   5.840   2.518   6.313  0.4126 -0.2491 -0.7314
   64MOL0     C 8349   5.962   2.533   6.383  0.2675  0.7651  0.0380
   64MOL0     C 8350   6.007   2.658   6.416 -0.4406 -0.2347  0.5165
   64MOL0     O 8351   6.136   2.662   6.466  0.6721 -0.0581  0.3534
   64MOL0     C 8352   6.202   2.784   6.449  0.1553 -0.4539 -0.4223
   64MOL0     C 8353   6.347   2.755   6.501  0.0908 -0.3940 -0.5353
   64MOL0     C 8354   6.434   2.880   6.510  0.0431 -0.5783 -0.8470
   64MOL0     C 8355   6.582   2.849   6.526 -0.1176  0.8434 -0.0644
   64MOL0     C 8356   6.653   2.974   6.480  0.0290  0.0124  0.2552
   64MOL0     C 8357   6.803   2.960   6.508 -0.1067  0.3639  0.4713
   64MOL0     C 8358   6.832   2.961   6.659 -0.0529 -0.6398 -0.6496
   64MOL0     C 8359   6.983   2.972   6.683 -0.1674  0.1856  0.4220
   64MOL0    Cl 8360   7.016   2.996   6.853  0.5217  0.0854 -0.1802
   64MOL0     C 8361   5.932   2.776   6.383 -0.5550 -0.1198  0.1786
   64MOL0     C 8362   5.805   2.753   6.324 -0.5594 -0.2961  0.0880
   64MOL0     O 8363   5.527   2.636   6.431  0.3760 -1.0825  0.5012
   64MOL0     C 8364   5.400   2.673   6.103  0.0731  0.6854  0.7656
   64MOL0     C 8365   5.277   2.704   6.043 -0.4386  0.5138  0.6197
   64MOL0     N 8366   4.793   3.059   5.575  0.0101 -0.5705  0.0551
   64MOL0     N 8367   4.825   3.166   5.513 -0.0086  0.5682  0.0155
   64MOL0     C 8368   5.381   2.878   5.235  0.2004  0.5947 -0.4969
   64MOL0     C 8369   5.451   2.756   5.228  0.7995 -0.8378  0.0011
   64MOL0     C 8370   5.635   2.352   5.068 -0.5555 -1.0598  0.7355
   64MOL0     C 8371   5.757   2.350   5.130 -0.0896  0.3767 -0.7944
   64MOL0     C 8372   5.838   2.239   5.117 -0.0122  0.0141  0.7899
   64MOL0     C 8373   5.801   2.128   5.048  0.1074  0.7398  0.3812
   64MOL0     O 8374   5.891   2.022   5.043  0.0246  0.1760  0.0615
   64MOL0     C 8375   5.933   1.987   4.912 -0.1677  0.1190 -0.7669
   64MOL0     C 8376   6.039   1.867   4.924 -0.1725  0.0755 -1.2882
   64MOL0     C 8377   6.182   1.918   4.931  0.7609 -0.2761  0.2202
   64MOL0     C 8378   6.274   1.800   4.920 -0.2215 -0.2024  0.2174
   64MOL0     C 8379   6.265   1.700   5.030  0.1278  0.1530 -0.2799
   64MOL0     C 8380   6.262   1.634   5.132 -0.2205 -0.0094 -0.1510
   64MOL0     C 8381   5.671   2.121   4.985  0.4505  0.0291  0.6656
   64MOL0     C 8382   5.598   2.239   4.993 -0.0012  0.2581 -0.0767
   64MOL0     H 8383   5.508   2.746   4.895 -0.6626  4.9514 -2.2332
   64MOL0     H 8384   5.367   2.940   4.906  1.9160 -2.1023 -2.2122
   64MOL0     H 8385   5.152   3.064   4.960  0.1650 -1.7439  2.0018
   64MOL0     H 8386   5.306   3.151   4.957 -0.1731  0.0193 -0.7673
   64MOL0     H 8387   5.051   3.234   5.092  0.2030 -1.6027 -0.3030
   64MOL0     H 8388   5.131   3.313   4.959  0.3794 -1.3451 -0.9710
   64MOL0     H 8389   5.325   3.385   5.106  1.5951  0.5228  2.9438
   64MOL0     H 8390   5.270   3.280   5.225  0.5774  1.4087  1.0733
   64MOL0     H 8391   5.206   3.541   5.244 -0.7868  1.4713 -0.5573
   64MOL0     H 8392   5.096   3.507   5.107 -1.8872 -0.5874 -0.1371
   64MOL0     H 8393   4.964   3.347   5.257 -2.9640  2.4512  1.2813
   64MOL0     H 8394   4.985   3.507   5.318  0.3963  1.0532 -0.2493
   64MOL0     H 8395   5.210   3.371   5.430  0.3300 -1.2016 -0.4589
   64MOL0     H 8396   5.084   3.242   5.392 -0.9027  0.9128 -2.2128
   64MOL0     H 8397   5.094   3.325   5.641 -0.0347 -1.0303 -0.3878
   64MOL0     H 8398   5.093   3.487   5.586  0.1787 -0.4881  2.6681
   64MOL0     H 8399   4.857   3.423   5.484  1.7397  0.0358 -1.0963
   64MOL0     H 8400   4.884   3.470   5.655  1.2417  0.3019  0.6841
   64MOL0     H 8401   4.822   3.273   5.824  0.5263  1.9444 -1.0066
   64MOL0     H 8402   4.707   2.892   5.741  1.2763  0.4608 -1.5431
   64MOL0     H 8403   4.659   3.003   5.871  0.5195 -1.8139  1.0175
   64MOL0     H 8404   4.880   3.017   5.960 -1.0521 -1.3190  2.1718
   64MOL0     H 8405   4.942   2.906   5.829  1.8644  0.8119  1.0808
   64MOL0     H 8406   4.741   2.837   6.045  1.8244  2.1930  1.4801
   64MOL0     H 8407   4.818   2.712   5.935 -3.1365 -0.8992  1.1970
   64MOL0     H 8408   4.892   2.728   6.179  0.1459  0.8726 -0.0853
   64MOL0     H 8409   4.959   2.890   6.145  0.6150  0.0785 -2.7636
   64MOL0     H 8410   5.077   2.718   6.315  0.3149 -3.9103  0.2016
   64MOL0     H 8411   5.272   2.691   6.427 -2.8834  1.2712  0.6382
   64MOL0     H 8412   5.819   2.415   6.283 -1.9311  0.1397 -0.6067
   64MOL0     H 8413   6.028   2.452   6.410  2.1461  2.3022  0.3148
   64MOL0     H 8414   6.167   2.868   6.510  3.4417 -0.5301  1.8322
   64MOL0     H 8415   6.201   2.815   6.344  0.5501 -0.0877 -0.3208
   64MOL0     H 8416   6.387   2.685   6.427  3.5253 -0.1738  0.9226
   64MOL0     H 8417   6.329   2.713   6.600 -3.2658 -0.3190 -1.0092
   64MOL0     H 8418   6.403   2.934   6.599  1.9740 -0.9621  0.1120
   64MOL0     H 8419   6.413   2.941   6.422 -1.8582  2.2500  1.3856
   64MOL0     H 8420   6.604   2.817   6.628  1.2282 -2.2166 -1.2210
   64MOL0     H 8421   6.602   2.771   6.453 -1.3985  0.9805 -0.5955
   64MOL0     H 8422   6.617   3.062   6.534  0.8144 -0.3999  1.4942
   64MOL0     H 8423   6.647   2.999   6.374 -2.3945  3.8036  1.0681
   64MOL0     H 8424   6.846   3.048   6.460  0.1820  0.1839  0.4017
   64MOL0     H 8425   6.845   2.869   6.465 -0.5760  0.4869 -0.2572
   64MOL0     H 8426   6.780   3.046   6.704  0.2673  0.5601 -2.4324
   64MOL0     H 8427   6.785   2.873   6.703 -0.6648  0.3596  0.7706
   64MOL0     H 8428   7.033   3.046   6.620  0.2461 -0.1225  0.3841
   64MOL0     H 8429   7.027   2.877   6.654  0.1545  1.2971 -3.3215
   64MOL0     H 8430   5.956   2.880   6.398 -3.5173  1.2768 -3.2788
   64MOL0     H 8431   5.735   2.834   6.303 -0.2724 -0.0534  0.0656
   64MOL0     H 8432   5.489   2.652   6.044 -0.5845 -1.2295  0.3905
   64MOL0     H 8433   5.281   2.698   5.935  2.8232 -0.0478  0.6571
   64MOL0     H 8434   5.353   2.911   5.335  1.0396  1.9911 -0.6896
   64MOL0     H 8435   5.489   2.721   5.324  1.8070  2.8196  1.1163
   64MOL0     H 8436   5.802   2.427   5.191 -1.5930  0.2394  0.5399
   64MOL0     H 8437   5.937   2.234   5.163 -0.5349  1.7173  2.2499
   64MOL0     H 8438   5.969   2.079   4.866 -0.4983  2.6217  3.4903
   64MOL0     H 8439   5.846   1.951   4.856  0.9457 -1.3297 -1.6328
   64MOL0     H 8440   6.009   1.810   5.012 -1.5063 -3.4162 -3.7852
   64MOL0     H 8441   6.030   1.809   4.832 -3.5906 -1.5413 -0.1175
   64MOL0     H 8442   6.196   1.968   5.027  1.2472  2.0939 -1.0137
   64MOL0     H 8443   6.192   1.990   4.850  2.4605 -1.6328 -0.8435
   64MOL0     H 8444   6.246   1.748   4.828 -0.0155  0.2151 -0.0870
   64MOL0     H 8445   6.378   1.833   4.907 -0.7441  0.8355 -1.6666
   64MOL0     H 8446   6.260   1.590   5.229 -0.0018  2.0633  0.8469
   64MOL0     H 8447   5.631   2.038   4.928  0.3459 -0.6010  1.6233
   64MOL0     H 8448   5.492   2.227   4.971 -0.5549  2.3830  1.0781
   65MOL0     O 8449   7.488   0.778   4.938  0.0284  0.1081 -0.0910
   65MOL0     C 8450   7.512   0.737   4.821  0.9023  0.4919  0.0464
   65MOL0     O 8451   7.425   0.748   4.713 -0.1585  0.2185 -0.5074
   65MOL0     C 8452   7.295   0.772   4.748  0.1444  0.1678 -1.0541
   65MOL0     C 8453   7.224   0.700   4.847 -0.4475 -0.2746 -0.3426
   65MOL0     C 8454   7.085   0.703   4.842 -0.4814 -0.5849 -0.8724
   65MOL0     C 8455   7.013   0.775   4.760 -0.0983 -0.2842 -0.1845
   65MOL0     O 8456   6.875   0.783   4.761 -0.2478 -0.0011 -0.3682
   65MOL0     C 8457   6.801   0.709   4.861  0.0350 -0.0125 -0.0756
   65MOL0     C 8458   6.667   0.778   4.879 -0.0398 -0.0178  0.6879
   65MOL0     C 8459   6.569   0.791   4.766 -0.4882  0.6139 -0.2345
   65MOL0     C 8460   6.426   0.837   4.802 -0.5052  1.2132  0.0480
   65MOL0     C 8461   6.329   0.813   4.684 -0.0231 -0.7642 -0.5397
   65MOL0     C 8462   6.184   0.852   4.717  0.3354 -0.5467 -1.3994
   65MOL0     C 8463   6.104   0.840   4.588  1.1222  0.0997 -0.5610
   65MOL0     C 8464   5.963   0.889   4.604 -0.2001 -1.1100 -0.0874
   65MOL0     N 8465   5.901   0.895   4.469 -0.2013 -0.9580  0.2929
   65MOL0     C 8466   5.846   0.786   4.398  0.1930 -0.2461  0.5478
   65MOL0     C 8467   5.784   0.842   4.288  0.4938  0.8372 -0.5820
   65MOL0     C 8468   5.698   0.768   4.176 -0.5495 -0.3779  0.0659
   65MOL0     C 8469   5.559   0.832   4.174  0.4271 -0.3651  0.8387
   65MOL0     C 8470   5.456   0.732   4.109  0.1651  0.2028  0.0050
   65MOL0     C 8471   5.324   0.807   4.093  0.7008  1.1050  0.9850
   65MOL0     O 8472   5.238   0.763   3.985 -0.7392  0.6624 -0.2577
   65MOL0     C 8473   5.113   0.820   3.964 -1.4519  0.5753  0.4114
   65MOL0     C 8474   5.056   0.920   4.044 -0.4078  0.0039  0.3563
   65MOL0     C 8475   4.938   0.972   4.006  0.1302 -0.2573 -0.4446
   65MOL0     C 8476   4.858   0.941   3.893 -0.0860 -0.0568  0.3685
   65MOL0     C 8477   4.729   1.006   3.876  0.1353  0.3361 -0.4941
   65MOL0     O 8478   4.655   0.957   3.766  0.4108 -0.2636  0.6594
   65MOL0     C 8479   4.529   1.004   3.749  0.1378  0.2199 -0.6293
   65MOL0     C 8480   4.507   1.128   3.689 -0.1080  0.3644  0.7701
   65MOL0     C 8481   4.378   1.165   3.654  0.2277 -0.2072  0.8547
   65MOL0     C 8482   4.265   1.082   3.675  0.3849 -0.0587 -0.6552
   65MOL0     O 8483   4.136   1.108   3.634  0.3623  0.0427  0.6491
   65MOL0     C 8484   4.112   1.230   3.569 -0.0979  0.4734  0.4035
   65MOL0     C 8485   3.963   1.246   3.541  0.2668  0.4072  0.6145
   65MOL0     C 8486   3.928   1.132   3.441  0.5269 -0.2026 -0.1625
   65MOL0     C 8487   3.781   1.165   3.403  0.6707  0.4589  1.1958
   65MOL0     C 8488   3.726   1.085   3.281  0.1714  0.4740  0.3435
   65MOL0     C 8489   3.578   1.123   3.258  0.8476 -0.1830  0.1856
   65MOL0     C 8490   3.524   1.021   3.153 -0.0224  0.0503 -0.1135
   65MOL0     C 8491   3.375   1.031   3.111 -0.4302  0.3379  0.0358
   65MOL0    Cl 8492   3.340   0.924   2.976  0.4711  0.0404 -0.0745
   65MOL0     C 8493   4.283   0.964   3.751 -0.7597  0.4471  0.0037
   65MOL0     C 8494   4.414   0.925   3.785 -0.7675  0.0918  0.1408
   65MOL0     O 8495   4.706   1.102   3.946 -0.0218  0.8923 -0.0582
   65MOL0     C 8496   4.914   0.841   3.817  0.0395  0.0932 -0.3338
   65MOL0     C 8497   5.036   0.777   3.852  0.4562 -0.1498  0.0480
   65MOL0     N 8498   5.797   0.977   4.297  0.3155  0.0885 -0.1821
   65MOL0     N 8499   5.860   1.004   4.405 -0.0839 -0.2591  0.0927
   65MOL0     C 8500   7.077   0.852   4.661 -0.5752  0.1800 -0.1135
   65MOL0     C 8501   7.223   0.840   4.655 -0.0685  0.1986 -0.2949
   65MOL0     C 8502   7.653   0.708   4.783 -0.5296  0.9543 -0.6690
   65MOL0     C 8503   7.681   0.655   4.656  0.2914 -0.6374  0.3038
   65MOL0     C 8504   7.815   0.614   4.629 -0.2533  0.2246 -0.1082
   65MOL0     C 8505   7.901   0.589   4.734 -0.8096 -0.3775 -0.5127
   65MOL0     O 8506   8.009   0.508   4.714 -0.1447  0.4072  0.1287
   65MOL0     C 8507   8.135   0.587   4.703  0.3402 -0.0176  0.9525
   65MOL0     C 8508   8.240   0.495   4.720 -0.0257 -0.0418  0.0702
   65MOL0     C 8509   8.224   0.404   4.847  0.9215  0.1603 -0.5944
   65MOL0     C 8510   8.365   0.344   4.880  0.3328  0.9690 -0.1046
   65MOL0     C 8511   8.414   0.257   4.777 -0.4402  0.8194  0.1096
   65MOL0     C 8512   8.448   0.173   4.701  0.9020 -0.1938  0.4015
   65MOL0     C 8513   7.879   0.639   4.854 -0.0798 -0.2685 -0.4645
   65MOL0     C 8514   7.757   0.709   4.878 -0.8786  0.7870 -0.0268
   65MOL0     H 8515   7.282   0.659   4.928 -0.5680  2.3937  1.2224
   65MOL0     H 8516   7.038   0.643   4.920  1.0475 -0.0939  0.4829
   65MOL0     H 8517   6.853   0.706   4.958  2.0616 -0.4455 -1.1164
   65MOL0     H 8518   6.780   0.609   4.822 -2.5400  0.4502 -0.0262
   65MOL0     H 8519   6.676   0.877   4.926  1.0692  0.0826  0.2886
   65MOL0     H 8520   6.610   0.714   4.947 -1.6975 -0.5217 -1.0863
   65MOL0     H 8521   6.550   0.695   4.716  2.6992 -0.6330  0.6555
   65MOL0     H 8522   6.604   0.862   4.690 -2.2147 -1.2914 -2.9950
   65MOL0     H 8523   6.399   0.785   4.894  2.3564 -0.8169 -0.1276
   65MOL0     H 8524   6.428   0.945   4.823 -1.8619  1.4213 -0.7778
   65MOL0     H 8525   6.328   0.710   4.647  4.4147 -1.7925  1.4685
   65MOL0     H 8526   6.371   0.875   4.603 -1.0626  2.4535  1.2255
   65MOL0     H 8527   6.179   0.948   4.769 -0.2616 -2.2882  2.0619
   65MOL0     H 8528   6.138   0.782   4.788 -1.1869  1.2659 -0.4943
   65MOL0     H 8529   6.148   0.899   4.506 -1.8776  0.2829 -2.1862
   65MOL0     H 8530   6.091   0.734   4.565 -1.1018 -0.2537  1.8277
   65MOL0     H 8531   5.970   0.986   4.654 -0.9974 -0.9267 -0.3042
   65MOL0     H 8532   5.907   0.821   4.668 -1.3432 -1.0064 -0.9371
   65MOL0     H 8533   5.848   0.679   4.420  3.8070 -1.0231 -2.6596
   65MOL0     H 8534   5.697   0.662   4.203  0.3699 -0.5961 -0.6716
   65MOL0     H 8535   5.755   0.791   4.085  3.9963 -0.0868  2.6808
   65MOL0     H 8536   5.564   0.933   4.132  1.2326  0.3104  2.4846
   65MOL0     H 8537   5.526   0.853   4.276  0.4433  1.1921  0.5417
   65MOL0     H 8538   5.490   0.679   4.019 -0.7482  0.5248 -0.5419
   65MOL0     H 8539   5.439   0.649   4.178  0.0237 -0.9060 -1.3060
   65MOL0     H 8540   5.346   0.913   4.075 -1.9772  1.4929 -0.6031
   65MOL0     H 8541   5.270   0.792   4.187 -0.4141 -1.0125  0.0752
   65MOL0     H 8542   5.102   0.962   4.133 -0.8012  1.6412 -0.1909
   65MOL0     H 8543   4.905   1.053   4.070 -1.0027  0.1711 -1.5173
   65MOL0     H 8544   4.589   1.199   3.682  0.2414 -0.1514 -0.5868
   65MOL0     H 8545   4.369   1.263   3.608 -2.2050  1.0925  3.7147
   65MOL0     H 8546   4.166   1.230   3.475 -1.9372 -1.4241 -0.7408
   65MOL0     H 8547   4.153   1.307   3.635  1.5678 -2.6829  3.3745
   65MOL0     H 8548   3.945   1.341   3.490  0.3981  0.2046  0.1891
   65MOL0     H 8549   3.899   1.235   3.629  0.0292 -0.6035  0.3303
   65MOL0     H 8550   3.925   1.033   3.487  1.2904 -0.7104 -1.1883
   65MOL0     H 8551   3.994   1.138   3.354 -1.8551 -0.0807 -2.0750
   65MOL0     H 8552   3.720   1.150   3.492 -0.1543  1.8665  0.9076
   65MOL0     H 8553   3.763   1.267   3.366 -1.6366 -0.4668 -0.4563
   65MOL0     H 8554   3.731   0.978   3.304 -1.1811  0.0798 -1.0613
   65MOL0     H 8555   3.787   1.108   3.194  1.7271  0.6820  1.4499
   65MOL0     H 8556   3.571   1.227   3.225 -0.7347 -0.4450 -0.3628
   65MOL0     H 8557   3.519   1.113   3.350 -0.6647  1.7764 -0.5024
   65MOL0     H 8558   3.584   1.030   3.062  0.2615 -0.6552 -0.0003
   65MOL0     H 8559   3.545   0.920   3.190  1.0480  0.2839 -0.0565
   65MOL0     H 8560   3.348   1.135   3.094  0.3328  0.5230 -0.0854
   65MOL0     H 8561   3.312   1.002   3.195  2.0776 -5.1884  0.4650
   65MOL0     H 8562   4.193   0.908   3.772 -0.6335  0.9769  2.3372
   65MOL0     H 8563   4.436   0.826   3.826  0.1662  0.6516  1.0519
   65MOL0     H 8564   4.863   0.814   3.725 -0.5755  0.8486 -0.2243
   65MOL0     H 8565   5.067   0.699   3.783  1.3510 -0.1134  0.3939
   65MOL0     H 8566   7.019   0.904   4.586 -1.9195  0.4531  1.0829
   65MOL0     H 8567   7.274   0.888   4.573  2.6677 -0.6641  0.7921
   65MOL0     H 8568   7.605   0.649   4.579 -0.8688  2.7408  1.0153
   65MOL0     H 8569   7.836   0.560   4.537 -2.2901 -3.0210  1.1316
   65MOL0     H 8570   8.138   0.670   4.773 -1.0959 -1.0523  2.3116
   65MOL0     H 8571   8.148   0.619   4.599  1.1377  1.1139  1.3823
   65MOL0     H 8572   8.260   0.431   4.633  1.1090 -1.7597  1.5210
   65MOL0     H 8573   8.330   0.557   4.728 -0.6953  0.9544 -0.0768
   65MOL0     H 8574   8.141   0.334   4.835 -0.3584  1.1795  1.7669
   65MOL0     H 8575   8.204   0.472   4.931  1.1808  1.2882 -1.4151
   65MOL0     H 8576   8.440   0.419   4.907  3.3729 -2.9758  4.0816
   65MOL0     H 8577   8.349   0.283   4.970  0.8523 -0.2321 -0.7895
   65MOL0     H 8578   8.467   0.094   4.631 -1.1386  1.1201 -1.7490
   65MOL0     H 8579   7.955   0.637   4.931 -2.6393 -0.8985  2.2314
   65MOL0     H 8580   7.744   0.761   4.972  0.6579 -3.3457  2.7574
   66MOL0     O 8581   1.259  10.033   2.352 -0.0529 -0.1911  0.4027
   66MOL0     C 8582   1.294   9.946   2.426  0.3814 -0.0514 -0.9148
   66MOL0     O 8583   1.221   9.842   2.478 -0.0948 -0.2946 -0.5397
   66MOL0     C 8584   1.083   9.853   2.474 -0.6868 -0.2044  0.4589
   66MOL0     C 8585   1.011   9.832   2.365 -0.0615 -0.3968 -0.4504
   66MOL0     C 8586   0.870   9.846   2.369  0.2542 -0.2034 -0.5990
   66MOL0     C 8587   0.797   9.868   2.487 -0.4304  0.2886  0.4867
   66MOL0     O 8588   0.655   9.856   2.468 -0.4428  0.3977  0.0159
   66MOL0     C 8589   0.582   9.876   2.591 -0.6381  0.0732  0.1657
   66MOL0     C 8590   0.441   9.848   2.562 -0.9911 -0.2723 -0.2028
   66MOL0     C 8591   0.365   9.825   2.690 -0.5428 -0.3236 -0.2796
   66MOL0     C 8592   0.221   9.793   2.652 -0.9542 -0.1734  0.2526
   66MOL0     C 8593   0.124   9.820   2.769 -0.5021 -0.6655 -0.0574
   66MOL0     C 8594  -0.017   9.779   2.716 -0.0626 -0.3263 -0.9814
   66MOL0     C 8595  -0.132   9.843   2.799 -1.6941  0.7150 -0.3106
   66MOL0     C 8596  -0.256   9.837   2.721 -0.0150  0.4467 -0.3349
   66MOL0     N 8597  -0.363   9.909   2.800  0.5243  0.4050  0.2084
   66MOL0     C 8598  -0.459   9.996   2.739 -0.0765  0.3656 -0.1232
   66MOL0     C 8599  -0.566  10.000   2.823 -0.0054  0.1499  0.7092
   66MOL0     C 8600  -0.689  10.093   2.827 -0.5815 -0.0594 -0.4722
   66MOL0     C 8601  -0.783  10.057   2.716  0.6345  0.6602  0.3044
   66MOL0     C 8602  -0.922  10.122   2.739  0.5026  0.4339  0.3735
   66MOL0     C 8603  -1.026  10.069   2.640  0.2459 -0.6635  0.4703
   66MOL0     O 8604  -1.081   9.955   2.701  1.1241 -0.2855  0.5036
   66MOL0     C 8605  -1.214   9.924   2.663  0.1346  0.3798 -0.4524
   66MOL0     C 8606  -1.288   9.862   2.762 -0.4768 -1.0985 -0.0980
   66MOL0     C 8607  -1.431   9.848   2.755  0.1180 -0.8501  0.2084
   66MOL0     C 8608  -1.499   9.885   2.634 -0.2420  0.5942 -0.5555
   66MOL0     C 8609  -1.646   9.872   2.616 -0.5943  0.4873 -0.8422
   66MOL0     O 8610  -1.706   9.844   2.737  0.3509 -0.1172  0.2330
   66MOL0     C 8611  -1.838   9.796   2.739 -0.0757  0.0588 -0.3511
   66MOL0     C 8612  -1.859   9.689   2.829  0.1502 -1.0338 -0.6722
   66MOL0     C 8613  -1.988   9.630   2.841 -0.2118  0.9721  0.0183
   66MOL0     C 8614  -2.096   9.675   2.776 -0.2062 -0.1972 -0.0857
   66MOL0     O 8615  -2.218   9.621   2.802  0.5641 -0.2113  0.4496
   66MOL0     C 8616  -2.326   9.716   2.819  0.6498  0.4345  0.0389
   66MOL0     C 8617  -2.433   9.636   2.895  0.6664 -0.5496 -0.1695
   66MOL0     C 8618  -2.563   9.726   2.912 -0.1197 -0.0776  0.5394
   66MOL0     C 8619  -2.674   9.631   2.962 -0.2133 -0.6518  0.1050
   66MOL0     C 8620  -2.798   9.703   3.007  0.0977 -0.8014  0.2923
   66MOL0     C 8621  -2.890   9.601   3.085 -1.1349 -0.4725 -1.0180
   66MOL0     C 8622  -3.009   9.669   3.159  0.2397  0.0277  0.1575
   66MOL0     C 8623  -3.063   9.593   3.285  0.6414 -0.1075  0.0456
   66MOL0    Cl 8624  -3.202   9.695   3.347 -0.3331  0.1716  0.0695
   66MOL0     C 8625  -2.073   9.776   2.677  0.1735 -0.0634  0.2676
   66MOL0     C 8626  -1.949   9.833   2.658  0.2214 -0.2120 -0.0062
   66MOL0     O 8627  -1.698   9.863   2.505  0.5486 -0.3495 -0.0007
   66MOL0     C 8628  -1.419   9.936   2.527 -0.6676 -1.0914  0.2365
   66MOL0     C 8629  -1.277   9.954   2.546 -0.0707 -0.5457 -0.1705
   66MOL0     N 8630  -0.539   9.912   2.927 -0.0536  0.0099 -0.5470
   66MOL0     N 8631  -0.418   9.860   2.915  0.0994  0.3421  0.0799
   66MOL0     C 8632   0.880   9.875   2.607  0.0317  0.5042 -0.4265
   66MOL0     C 8633   1.020   9.880   2.597 -0.0587 -0.2625  0.5744
   66MOL0     C 8634   1.438   9.952   2.460 -0.8733  0.2690  0.3458
   66MOL0     C 8635   1.531  10.047   2.408  0.6104  1.1725 -0.6649
   66MOL0     C 8636   1.658  10.070   2.465 -0.4145 -0.6155 -0.2367
   66MOL0     C 8637   1.702   9.992   2.576  0.2383 -0.5219  0.5737
   66MOL0     O 8638   1.839   9.994   2.612  0.1746  1.1856 -0.1903
   66MOL0     C 8639   1.941  10.010   2.511  0.3116 -0.9850 -0.6667
   66MOL0     C 8640   2.074   9.987   2.586 -0.9464  0.1277  0.1300
   66MOL0     C 8641   2.201   9.985   2.506 -0.2051 -0.1797 -0.0613
   66MOL0     C 8642   2.214   9.861   2.419  0.1354  1.0559  0.9950
   66MOL0     C 8643   2.331   9.879   2.332 -0.3928 -0.0606 -1.9132
   66MOL0     C 8644   2.406   9.906   2.242 -0.4399 -0.6782  0.1288
   66MOL0     C 8645   1.617   9.893   2.613 -0.1221 -0.1371 -0.6158
   66MOL0     C 8646   1.491   9.872   2.560  0.8713  0.2492 -0.1443
   66MOL0     H 8647   1.054   9.794   2.273 -2.8893 -3.7622 -0.5735
   66MOL0     H 8648   0.814   9.839   2.276  0.9441 -3.0689 -0.9070
   66MOL0     H 8649   0.597   9.980   2.622  2.6938 -0.2958  0.2128
   66MOL0     H 8650   0.610   9.805   2.669 -2.0977  0.9217  1.5233
   66MOL0     H 8651   0.435   9.755   2.505 -0.0245 -1.1762  1.1241
   66MOL0     H 8652   0.398   9.935   2.511 -2.4588  0.8163  2.6902
   66MOL0     H 8653   0.372   9.919   2.745 -1.7252  1.0107 -2.2488
   66MOL0     H 8654   0.414   9.743   2.743 -1.2391 -0.1567  0.6363
   66MOL0     H 8655   0.191   9.844   2.560  0.1033  0.3315  0.1790
   66MOL0     H 8656   0.218   9.685   2.635  1.8591 -0.5767  1.6703
   66MOL0     H 8657   0.131   9.923   2.803  2.0792 -0.4045 -1.1788
   66MOL0     H 8658   0.141   9.758   2.857 -0.1298  1.9312  1.7983
   66MOL0     H 8659  -0.036   9.672   2.719  1.1880 -0.6835 -3.2990
   66MOL0     H 8660  -0.022   9.810   2.612 -1.6996  1.8131 -0.3363
   66MOL0     H 8661  -0.129   9.790   2.895 -2.3442  0.5454 -0.3810
   66MOL0     H 8662  -0.107   9.948   2.815 -0.7157  0.6923 -1.5773
   66MOL0     H 8663  -0.296   9.737   2.703 -3.3564  1.9055 -1.8946
   66MOL0     H 8664  -0.254   9.886   2.623 -2.6988  0.1114 -0.6323
   66MOL0     H 8665  -0.453  10.064   2.655 -1.4406  0.3869 -0.2355
   66MOL0     H 8666  -0.661  10.198   2.815  1.3759 -0.1528  2.3381
   66MOL0     H 8667  -0.727  10.097   2.930  1.1714 -0.8074  0.2413
   66MOL0     H 8668  -0.800   9.951   2.697  0.6285  0.5069  1.1485
   66MOL0     H 8669  -0.735  10.084   2.621  1.0801  1.6778  0.8016
   66MOL0     H 8670  -0.959  10.093   2.837  0.9460 -3.1672 -0.3601
   66MOL0     H 8671  -0.910  10.230   2.728  0.5599  0.6171  2.0663
   66MOL0     H 8672  -0.986  10.045   2.541  0.4229 -0.6268  0.5320
   66MOL0     H 8673  -1.099  10.148   2.624  0.9992  0.2347  1.3275
   66MOL0     H 8674  -1.228   9.833   2.848 -2.9077  0.7498  2.4260
   66MOL0     H 8675  -1.477   9.810   2.846  0.3447 -1.4235  0.0895
   66MOL0     H 8676  -1.775   9.643   2.879  1.8364 -0.2270 -2.6239
   66MOL0     H 8677  -2.006   9.548   2.910 -1.6659  0.7741 -0.5506
   66MOL0     H 8678  -2.372   9.760   2.730 -3.1789  0.3024  1.7325
   66MOL0     H 8679  -2.295   9.794   2.888 -1.2198  0.7149  0.6191
   66MOL0     H 8680  -2.402   9.602   2.995  0.3276  0.0246  0.1370
   66MOL0     H 8681  -2.455   9.548   2.835  1.5176  0.5440 -2.1993
   66MOL0     H 8682  -2.593   9.777   2.821 -0.1879  0.9700  1.1373
   66MOL0     H 8683  -2.537   9.801   2.987  1.1119 -1.6918  1.8015
   66MOL0     H 8684  -2.707   9.548   2.900 -3.5799  0.8017 -0.2070
   66MOL0     H 8685  -2.631   9.583   3.051 -0.4140  1.2925  1.3267
   66MOL0     H 8686  -2.861   9.738   2.925  0.2255  0.1620  0.5814
   66MOL0     H 8687  -2.771   9.788   3.072 -0.3119  0.1715 -0.7737
   66MOL0     H 8688  -2.827   9.540   3.151 -1.0763  2.2943  1.7057
   66MOL0     H 8689  -2.942   9.530   3.021 -1.6344 -3.7902  2.6941
   66MOL0     H 8690  -2.979   9.772   3.181  1.5404 -0.2272 -0.3480
   66MOL0     H 8691  -3.094   9.676   3.090 -1.4129  0.2257  2.0973
   66MOL0     H 8692  -2.979   9.569   3.351 -0.5938 -0.4841  1.5226
   66MOL0     H 8693  -3.103   9.497   3.250 -0.1159  0.3439 -0.3581
   66MOL0     H 8694  -2.150   9.813   2.610  1.7995  1.7762 -0.6514
   66MOL0     H 8695  -1.938   9.905   2.578 -0.2794 -2.3526 -2.1166
   66MOL0     H 8696  -1.463   9.969   2.434 -0.8726 -0.9587  0.3809
   66MOL0     H 8697  -1.211  10.011   2.482  1.4648 -0.3898  1.4548
   66MOL0     H 8698   0.831   9.890   2.702  1.5214 -1.9618  0.8284
   66MOL0     H 8699   1.077   9.903   2.686 -1.6580 -0.2839  1.6487
   66MOL0     H 8700   1.497  10.109   2.326 -0.6033 -1.7279 -2.4637
   66MOL0     H 8701   1.731  10.141   2.428 -0.9113  0.6269  1.0798
   66MOL0     H 8702   1.937  10.113   2.473  0.0285 -1.9647 -3.4857
   66MOL0     H 8703   1.922   9.949   2.423 -0.1750  0.1152 -1.3469
   66MOL0     H 8704   2.078  10.067   2.659  2.0202 -0.8932  1.2626
   66MOL0     H 8705   2.079   9.888   2.632 -2.0004 -0.3342 -0.6967
   66MOL0     H 8706   2.274   9.980   2.587  0.1894 -0.0699 -0.4002
   66MOL0     H 8707   2.215  10.077   2.448  1.6873 -0.3745 -0.0029
   66MOL0     H 8708   2.240   9.774   2.481  0.3486 -1.3925 -2.2662
   66MOL0     H 8709   2.124   9.838   2.362  1.6307  1.0370 -1.4908
   66MOL0     H 8710   2.453   9.936   2.151 -0.6693  4.1450  1.3396
   66MOL0     H 8711   1.655   9.818   2.682 -0.6728 -0.5115 -0.7088
   66MOL0     H 8712   1.433   9.793   2.608  1.3313 -2.3136 -3.3986
   67MOL0     O 8713  11.092  10.086   7.399 -0.4935  0.0034  0.5182
   67MOL0     C 8714  11.191  10.049   7.460 -0.5226  0.4293  0.0798
   67MOL0     O 8715  11.218   9.916   7.494  0.1571 -1.0260 -1.1079
   67MOL0     C 8716  11.149   9.817   7.437 -0.3552  0.2881  0.1478
   67MOL0     C 8717  11.223   9.717   7.375 -0.8949  0.3850 -0.1776
   67MOL0     C 8718  11.170   9.594   7.323  0.0373 -0.1183 -0.1104
   67MOL0     C 8719  11.035   9.566   7.340  0.2433 -1.1759 -0.5546
   67MOL0     O 8720  10.970   9.457   7.279 -0.3282  0.1051  0.1945
   67MOL0     C 8721  10.826   9.445   7.293  0.3763 -1.1910 -0.1320
   67MOL0     C 8722  10.775   9.336   7.188 -0.2221 -0.2994 -0.0669
   67MOL0     C 8723  10.847   9.351   7.041 -0.2726  0.1727 -0.5485
   67MOL0     C 8724  10.811   9.224   6.967 -0.0721 -0.2863  0.9361
   67MOL0     C 8725  10.675   9.214   6.899  0.0781 -0.4351  0.0747
   67MOL0     C 8726  10.653   9.068   6.863 -0.2196 -0.4157 -0.2768
   67MOL0     C 8727  10.507   9.045   6.827  0.1020 -0.3138 -0.0893
   67MOL0     C 8728  10.493   8.895   6.789  0.4717 -0.1475 -0.2001
   67MOL0     N 8729  10.348   8.857   6.781  0.5483 -0.4930  0.4462
   67MOL0     C 8730  10.259   8.828   6.884  0.7759 -0.4791  0.0603
   67MOL0     C 8731  10.139   8.803   6.822 -0.2051 -0.5518 -0.8416
   67MOL0     C 8732  10.003   8.759   6.900 -0.6321 -0.0775 -0.0406
   67MOL0     C 8733   9.883   8.797   6.819  0.1309  0.6280 -0.6630
   67MOL0     C 8734   9.748   8.782   6.888  0.0992  0.3114 -0.6730
   67MOL0     C 8735   9.627   8.765   6.793 -0.2773 -0.1040  0.1262
   67MOL0     O 8736   9.517   8.777   6.880  0.5137  0.5862 -0.0710
   67MOL0     C 8737   9.398   8.790   6.817  0.1636 -1.3327  0.5945
   67MOL0     C 8738   9.377   8.774   6.683 -0.3306  0.0200  0.2347
   67MOL0     C 8739   9.247   8.795   6.633 -0.7284 -0.0404  0.0025
   67MOL0     C 8740   9.135   8.830   6.707  0.3628 -0.4276  0.2065
   67MOL0     C 8741   9.000   8.818   6.649  0.2164  0.5097 -0.0718
   67MOL0     O 8742   8.988   8.765   6.522 -0.1910  0.6403  0.5253
   67MOL0     C 8743   8.856   8.731   6.480  0.0106 -0.1754 -0.5933
   67MOL0     C 8744   8.813   8.596   6.471  0.2208  0.6188  0.5382
   67MOL0     C 8745   8.678   8.558   6.434 -0.9760  0.1792  0.3738
   67MOL0     C 8746   8.595   8.666   6.393  0.1471 -0.8231  0.8536
   67MOL0     O 8747   8.466   8.638   6.359  0.0140 -0.4008  0.6056
   67MOL0     C 8748   8.371   8.699   6.449 -0.6897  0.1392  0.2749
   67MOL0     C 8749   8.233   8.702   6.379  0.1220  0.2701 -0.1617
   67MOL0     C 8750   8.138   8.769   6.481  0.2252  0.3410 -0.4009
   67MOL0     C 8751   8.003   8.788   6.409  1.2282 -0.6508 -0.1024
   67MOL0     C 8752   7.881   8.790   6.504 -0.6333  1.1248  0.0229
   67MOL0     C 8753   7.751   8.834   6.438 -0.2087 -0.3856 -0.8044
   67MOL0     C 8754   7.624   8.834   6.530 -0.0564  0.0748  0.5945
   67MOL0     C 8755   7.500   8.868   6.452 -0.8606  0.2080  0.7491
   67MOL0    Cl 8756   7.372   8.833   6.566  0.5156 -0.2845 -0.4363
   67MOL0     C 8757   8.648   8.799   6.377 -0.3779  0.9882  0.6645
   67MOL0     C 8758   8.769   8.826   6.428  0.1275 -0.1796  0.1073
   67MOL0     O 8759   8.906   8.837   6.725  0.0826  0.0227  0.0760
   67MOL0     C 8760   9.152   8.839   6.844 -1.3203 -0.5946 -0.5514
   67MOL0     C 8761   9.277   8.808   6.900 -0.5230 -0.6531  0.9779
   67MOL0     N 8762  10.151   8.820   6.691 -0.0425  0.2012 -0.2166
   67MOL0     N 8763  10.272   8.848   6.664  1.0525 -0.6926 -0.3095
   67MOL0     C 8764  10.966   9.666   7.409  0.0544 -0.2724  0.0106
   67MOL0     C 8765  11.017   9.782   7.454 -0.2048  1.0128 -0.3505
   67MOL0     C 8766  11.278  10.158   7.484 -0.9514  0.2440  0.3730
   67MOL0     C 8767  11.387  10.136   7.566  0.3279 -0.5288 -0.6963
   67MOL0     C 8768  11.485  10.231   7.578  0.3989 -0.7786  0.8850
   67MOL0     C 8769  11.485  10.352   7.512 -0.5839 -0.1023  0.4814
   67MOL0     O 8770  11.574  10.452   7.522 -0.1724  0.3643 -0.1045
   67MOL0     C 8771  11.688  10.420   7.596  0.3038 -0.1096  0.0617
   67MOL0     C 8772  11.797  10.516   7.561 -0.3269 -0.2587  0.0057
   67MOL0     C 8773  11.918  10.489   7.645 -1.4663 -0.5228 -0.1250
   67MOL0     C 8774  12.026  10.595   7.593  0.0685 -0.5096  0.3145
   67MOL0     C 8775  12.163  10.595   7.659 -0.0984 -0.3422  0.1711
   67MOL0     C 8776  12.267  10.595   7.719 -0.2588  0.1421  0.1354
   67MOL0     C 8777  11.370  10.376   7.439  0.5041 -0.5050 -0.1185
   67MOL0     C 8778  11.270  10.278   7.418  0.3258 -0.1843  1.0622
   67MOL0     H 8779  11.330   9.727   7.381 -0.5652 -1.4044 -2.0205
   67MOL0     H 8780  11.237   9.522   7.278 -0.2961  0.6696 -1.9254
   67MOL0     H 8781  10.774   9.537   7.266 -1.1829 -1.9091  0.2815
   67MOL0     H 8782  10.791   9.421   7.394 -0.4513 -1.7445 -0.5379
   67MOL0     H 8783  10.668   9.357   7.180  0.0816  0.9648 -1.2219
   67MOL0     H 8784  10.796   9.239   7.234  1.0275 -1.5365 -2.9960
   67MOL0     H 8785  10.956   9.348   7.052 -0.5176 -1.0547  2.4617
   67MOL0     H 8786  10.813   9.445   6.997  1.5892 -0.6377 -4.0609
   67MOL0     H 8787  10.887   9.206   6.890 -1.4786  1.9914 -1.1436
   67MOL0     H 8788  10.826   9.138   7.033 -3.7573  0.1470  2.5661
   67MOL0     H 8789  10.665   9.276   6.809  0.3775  0.4120  0.6149
   67MOL0     H 8790  10.607   9.239   6.981  1.5169  0.9089  0.9351
   67MOL0     H 8791  10.676   9.008   6.951  0.8211  0.5493  0.1266
   67MOL0     H 8792  10.716   9.051   6.775  0.6283  0.5462  0.1286
   67MOL0     H 8793  10.445   9.073   6.912  0.5673  2.9814 -0.7132
   67MOL0     H 8794  10.485   9.121   6.751  2.4862  1.6274  1.0465
   67MOL0     H 8795  10.534   8.838   6.873 -1.1215  0.8927  1.3431
   67MOL0     H 8796  10.556   8.865   6.705  0.6725 -1.6085  0.4340
   67MOL0     H 8797  10.282   8.826   6.990  0.5000 -2.3329  0.1311
   67MOL0     H 8798   9.996   8.805   6.999  0.0677  0.0141 -0.0247
   67MOL0     H 8799  10.008   8.650   6.895  0.5575 -0.0540  0.2864
   67MOL0     H 8800   9.894   8.713   6.750  0.0850  0.1052 -0.0423
   67MOL0     H 8801   9.896   8.897   6.776 -1.6841  0.4041 -1.8340
   67MOL0     H 8802   9.751   8.698   6.959  1.6973  2.8025  2.4913
   67MOL0     H 8803   9.730   8.866   6.956 -0.2888 -0.5128  0.2783
   67MOL0     H 8804   9.634   8.669   6.740 -3.0991 -1.4524  1.9691
   67MOL0     H 8805   9.618   8.849   6.723 -0.4148  0.2851  0.6017
   67MOL0     H 8806   9.454   8.747   6.611 -1.4229 -0.6438 -0.7344
   67MOL0     H 8807   9.236   8.792   6.525 -0.5512 -0.7956 -0.0001
   67MOL0     H 8808   8.876   8.512   6.500 -1.2423 -0.2588  1.2755
   67MOL0     H 8809   8.629   8.462   6.430 -1.4105  0.4109  0.0908
   67MOL0     H 8810   8.395   8.803   6.473  0.1763  0.4614 -1.7430
   67MOL0     H 8811   8.360   8.643   6.542  0.7535 -2.1819 -0.8345
   67MOL0     H 8812   8.204   8.601   6.350 -2.0497  0.3833  1.3616
   67MOL0     H 8813   8.249   8.768   6.293  0.5749  0.6886  0.2338
   67MOL0     H 8814   8.178   8.858   6.529  0.9445 -0.4206  0.4331
   67MOL0     H 8815   8.111   8.690   6.551 -0.8164  0.6341 -0.4528
   67MOL0     H 8816   8.011   8.870   6.338  0.1454 -2.1615 -2.0852
   67MOL0     H 8817   7.976   8.705   6.343 -0.2246 -0.6382  0.4284
   67MOL0     H 8818   7.907   8.868   6.577 -0.3978  2.8759 -1.8270
   67MOL0     H 8819   7.872   8.693   6.552  0.1916  0.4725 -1.0893
   67MOL0     H 8820   7.736   8.759   6.360  0.5301 -0.9274 -0.4393
   67MOL0     H 8821   7.765   8.935   6.400  1.9349 -0.4923 -0.3928
   67MOL0     H 8822   7.611   8.736   6.578 -0.3873  0.1314  0.6182
   67MOL0     H 8823   7.623   8.896   6.620 -1.1850  0.3802  0.3761
   67MOL0     H 8824   7.478   8.816   6.358 -2.0285  1.7080  0.1543
   67MOL0     H 8825   7.497   8.970   6.415 -2.0297 -0.8031 -2.2437
   67MOL0     H 8826   8.586   8.880   6.340  0.6327  0.8990 -1.3666
   67MOL0     H 8827   8.808   8.927   6.422 -1.2888  0.3608 -0.5035
   67MOL0     H 8828   9.071   8.859   6.914 -0.4716 -1.3055  0.6873
   67MOL0     H 8829   9.289   8.797   7.007 -1.5621  0.0567  1.1779
   67MOL0     H 8830  10.857   9.670   7.410  0.0890  0.9747  0.1148
   67MOL0     H 8831  10.946   9.840   7.511 -0.7442 -0.2192  0.2759
   67MOL0     H 8832  11.393  10.040   7.615 -1.9936 -1.1475 -1.5066
   67MOL0     H 8833  11.569  10.206   7.642  1.0767 -0.5329  0.1194
   67MOL0     H 8834  11.721  10.318   7.573  0.9526 -0.2873  1.6745
   67MOL0     H 8835  11.676  10.428   7.704 -0.9178  1.5492 -0.1538
   67MOL0     H 8836  11.830  10.514   7.457  1.6348  2.4250  0.4758
   67MOL0     H 8837  11.750  10.613   7.579 -1.0985 -0.6124 -0.0506
   67MOL0     H 8838  11.955  10.388   7.629  0.1741  0.2965 -1.8833
   67MOL0     H 8839  11.897  10.514   7.750 -0.2025 -1.6642  0.4219
   67MOL0     H 8840  12.028  10.597   7.483  1.1642 -2.8023  0.2446
   67MOL0     H 8841  11.969  10.686   7.614 -0.2413 -0.3425 -1.1037
   67MOL0     H 8842  12.360  10.588   7.772  0.6529  2.9422 -0.8673
   67MOL0     H 8843  11.342  10.473   7.400 -0.2688 -0.8693 -0.4926
   67MOL0     H 8844  11.189  10.306   7.352 -1.0052 -0.4456  2.5279
   68MOL0     O 8845   8.480   0.572   1.467 -0.1461 -0.0186 -0.7644
   68MOL0     C 8846   8.512   0.680   1.521  1.0770 -0.2554 -0.5431
   68MOL0     O 8847   8.415   0.774   1.553  0.0789  0.0918 -0.1588
   68MOL0     C 8848   8.281   0.738   1.523 -0.5238  0.5844 -0.5044
   68MOL0     C 8849   8.224   0.709   1.398  0.3072 -0.4965 -0.8214
   68MOL0     C 8850   8.088   0.692   1.379 -0.5460 -0.0792 -0.2869
   68MOL0     C 8851   8.008   0.701   1.486  0.3460  0.1514 -0.2495
   68MOL0     O 8852   7.868   0.699   1.474  0.1928 -0.1342  0.1382
   68MOL0     C 8853   7.799   0.649   1.354 -0.3107 -0.5931  0.1366
   68MOL0     C 8854   7.640   0.669   1.364  0.4340  0.1040 -0.5463
   68MOL0     C 8855   7.602   0.812   1.402  0.5707 -0.1659  0.7149
   68MOL0     C 8856   7.443   0.838   1.380  0.1936  0.2702 -0.3294
   68MOL0     C 8857   7.399   0.984   1.358  0.3294  0.0276  0.1064
   68MOL0     C 8858   7.249   0.993   1.330  0.4377 -0.6581  0.1398
   68MOL0     C 8859   7.201   1.139   1.290  0.1671 -0.0515  0.0809
   68MOL0     C 8860   7.059   1.176   1.325  0.2383 -0.0172 -0.2438
   68MOL0     N 8861   6.956   1.125   1.236  0.1527 -0.3128 -0.3839
   68MOL0     C 8862   6.934   1.152   1.108  0.0929  0.0416  1.3222
   68MOL0     C 8863   6.836   1.066   1.067  0.5818 -1.3496  1.0766
   68MOL0     C 8864   6.789   1.065   0.927  0.5687  0.2612 -0.2958
   68MOL0     C 8865   6.641   1.038   0.903 -0.1191  0.0758  1.0024
   68MOL0     C 8866   6.554   1.166   0.918  0.0748 -0.0437 -0.7902
   68MOL0     C 8867   6.403   1.138   0.916 -0.0200  0.2348 -0.1356
   68MOL0     O 8868   6.364   1.141   0.781  0.4687  0.4380 -0.0287
   68MOL0     C 8869   6.232   1.112   0.758  0.5041 -0.4640 -0.0468
   68MOL0     C 8870   6.198   1.075   0.627 -0.0400 -0.2499  0.1932
   68MOL0     C 8871   6.076   1.036   0.585  0.1133  0.3764 -1.1098
   68MOL0     C 8872   5.971   1.016   0.687  0.1523  0.2591  0.1284
   68MOL0     C 8873   5.837   0.958   0.650  0.4235 -0.1024 -0.3508
   68MOL0     O 8874   5.738   0.962   0.744  0.1394  0.7098 -0.0403
   68MOL0     C 8875   5.607   0.949   0.707 -0.5803 -0.5252 -0.0468
   68MOL0     C 8876   5.532   0.842   0.767  0.4835 -0.5937 -0.3554
   68MOL0     C 8877   5.399   0.826   0.726  0.9389  0.6625 -0.2459
   68MOL0     C 8878   5.339   0.907   0.625 -0.6648 -0.0611 -1.0836
   68MOL0     O 8879   5.207   0.883   0.611  0.2664 -0.1881  0.1332
   68MOL0     C 8880   5.124   0.945   0.509  0.4652  0.4252  0.1241
   68MOL0     C 8881   4.971   0.937   0.570  0.2037 -0.0222 -0.6759
   68MOL0     C 8882   4.866   1.019   0.494  0.4489  0.0606  0.9440
   68MOL0     C 8883   4.848   0.974   0.349 -0.0100 -0.0448 -0.1324
   68MOL0     C 8884   4.709   1.027   0.294  0.8044 -1.2153  0.3055
   68MOL0     C 8885   4.589   0.949   0.345  0.1277 -0.5503  0.0064
   68MOL0     C 8886   4.469   1.003   0.268 -0.1840  0.4934  0.6818
   68MOL0     C 8887   4.347   0.940   0.326  0.4752  0.8333 -0.5836
   68MOL0    Cl 8888   4.199   0.971   0.241 -0.2739 -0.5600  0.2319
   68MOL0     C 8889   5.416   1.015   0.576  0.9813 -0.0936  0.5159
   68MOL0     C 8890   5.548   1.029   0.608  0.1947  0.6854 -0.3262
   68MOL0     O 8891   5.818   0.920   0.536  0.1247 -0.0053 -0.3945
   68MOL0     C 8892   6.005   1.056   0.821 -0.2687 -0.9618  0.4056
   68MOL0     C 8893   6.131   1.115   0.851  0.1304  0.4448  0.0893
   68MOL0     N 8894   6.815   0.973   1.164 -0.7260  0.2359 -0.6078
   68MOL0     N 8895   6.878   1.019   1.267 -0.3397 -0.0054 -0.6480
   68MOL0     C 8896   8.054   0.726   1.615 -0.6752  0.2797 -0.9356
   68MOL0     C 8897   8.192   0.738   1.633 -0.3858  0.0372 -0.2637
   68MOL0     C 8898   8.662   0.688   1.547  1.0999 -0.5765 -0.9522
   68MOL0     C 8899   8.749   0.587   1.515 -0.1108  0.3224  0.3689
   68MOL0     C 8900   8.885   0.601   1.529 -0.1065 -0.5141  0.2479
   68MOL0     C 8901   8.938   0.724   1.572  0.1389 -0.1050 -0.9802
   68MOL0     O 8902   9.070   0.729   1.604  0.5308  0.9457  0.1448
   68MOL0     C 8903   9.122   0.833   1.693 -0.1411 -0.4293  0.2049
   68MOL0     C 8904   9.274   0.793   1.728  0.4763  0.7874  0.3839
   68MOL0     C 8905   9.356   0.818   1.596  0.7150  0.2704 -0.0537
   68MOL0     C 8906   9.503   0.840   1.633  0.4470 -0.5858 -0.0874
   68MOL0     C 8907   9.563   0.708   1.663  0.7029 -0.0619  0.2643
   68MOL0     C 8908   9.617   0.600   1.674 -0.2205 -0.4905 -0.6619
   68MOL0     C 8909   8.849   0.825   1.605  0.3089 -0.0305 -0.4207
   68MOL0     C 8910   8.705   0.809   1.591 -0.3270 -1.0154  0.6657
   68MOL0     H 8911   8.294   0.696   1.316  3.6218  1.1040  1.5164
   68MOL0     H 8912   8.058   0.676   1.276 -2.0654  0.8847 -0.0306
   68MOL0     H 8913   7.839   0.551   1.328 -0.0350 -0.5696  0.4612
   68MOL0     H 8914   7.829   0.707   1.267  0.9903 -1.5339 -0.0578
   68MOL0     H 8915   7.596   0.606   1.442 -1.1962  1.5132 -0.2722
   68MOL0     H 8916   7.588   0.639   1.273  1.9133 -0.0512 -1.3664
   68MOL0     H 8917   7.673   0.865   1.338  2.9468 -3.1476  0.6829
   68MOL0     H 8918   7.627   0.823   1.508 -3.3548 -0.6457  1.8398
   68MOL0     H 8919   7.410   0.788   1.288 -1.8645 -1.0985  1.0535
   68MOL0     H 8920   7.398   0.795   1.470  0.5834  0.0952 -0.2177
   68MOL0     H 8921   7.456   1.030   1.277 -0.7986 -0.8690 -1.2357
   68MOL0     H 8922   7.419   1.030   1.456  0.6976  0.1660 -0.0312
   68MOL0     H 8923   7.187   0.968   1.417 -1.0888 -0.5749 -0.8933
   68MOL0     H 8924   7.224   0.921   1.251 -0.8617 -0.1155  0.0309
   68MOL0     H 8925   7.276   1.209   1.328  1.3174 -1.3278  0.2794
   68MOL0     H 8926   7.221   1.153   1.183  2.0327 -1.5673  0.1792
   68MOL0     H 8927   7.049   1.285   1.325 -0.1922 -0.0519 -0.9750
   68MOL0     H 8928   7.031   1.155   1.429 -0.9435 -0.5990 -0.6517
   68MOL0     H 8929   6.976   1.222   1.036 -0.2147 -2.1827 -1.1663
   68MOL0     H 8930   6.836   0.977   0.882 -0.4129  0.5690 -2.0276
   68MOL0     H 8931   6.816   1.153   0.867 -1.9499  1.5227  0.2865
   68MOL0     H 8932   6.599   0.958   0.966 -1.8394 -0.0766 -0.2855
   68MOL0     H 8933   6.630   0.998   0.802 -0.5749 -2.3153  1.9103
   68MOL0     H 8934   6.588   1.213   1.011  3.7193 -2.8856 -0.4412
   68MOL0     H 8935   6.576   1.241   0.842 -0.7272  2.2337  1.0836
   68MOL0     H 8936   6.349   1.212   0.977 -0.4823 -0.6267  0.5236
   68MOL0     H 8937   6.374   1.047   0.970 -0.8281  0.7892  0.4003
   68MOL0     H 8938   6.269   1.065   0.545  0.2172 -1.4398  0.5399
   68MOL0     H 8939   6.048   1.001   0.486 -1.3802 -1.8114  0.0054
   68MOL0     H 8940   5.574   0.786   0.850  2.6677 -0.9202 -1.6123
   68MOL0     H 8941   5.351   0.750   0.787 -0.2505  0.7166 -1.0787
   68MOL0     H 8942   5.139   0.890   0.415  1.9932 -1.5888  1.4393
   68MOL0     H 8943   5.150   1.051   0.498  1.9300 -0.0494 -1.7335
   68MOL0     H 8944   4.978   0.971   0.673 -1.2778  3.1253 -1.4936
   68MOL0     H 8945   4.938   0.834   0.589  1.9221 -0.1934  1.9108
   68MOL0     H 8946   4.893   1.125   0.493  0.1436  0.2059  3.0772
   68MOL0     H 8947   4.767   1.015   0.540  0.1742  0.2041  0.3727
   68MOL0     H 8948   4.939   1.001   0.294 -0.6489 -0.4162 -1.4099
   68MOL0     H 8949   4.837   0.866   0.341 -1.2258 -0.0258  0.8945
   68MOL0     H 8950   4.703   1.023   0.185 -3.3557 -3.2623  0.4200
   68MOL0     H 8951   4.693   1.134   0.313 -0.8246 -1.7820  2.5453
   68MOL0     H 8952   4.581   0.974   0.451  4.1732 -1.9466  0.7864
   68MOL0     H 8953   4.596   0.841   0.333 -1.8318 -1.0994  2.8243
   68MOL0     H 8954   4.465   1.112   0.277  0.1727  0.6638 -0.9521
   68MOL0     H 8955   4.468   0.975   0.163 -0.3318  3.6760 -0.2791
   68MOL0     H 8956   4.337   0.984   0.426 -0.1503  1.3334 -0.8566
   68MOL0     H 8957   4.365   0.833   0.331  3.6212  1.2449 -0.9070
   68MOL0     H 8958   5.368   1.075   0.499  0.4975 -2.3608 -1.0508
   68MOL0     H 8959   5.601   1.104   0.550 -0.3788  3.1477  2.1275
   68MOL0     H 8960   5.934   1.049   0.902  0.5789 -0.4517  1.2134
   68MOL0     H 8961   6.150   1.153   0.951  0.9260  1.0769 -0.2981
   68MOL0     H 8962   7.992   0.742   1.702 -2.1402  0.8220 -2.0317
   68MOL0     H 8963   8.237   0.751   1.731 -1.0365 -0.1436  0.0727
   68MOL0     H 8964   8.700   0.499   1.474  0.9730 -0.8150  1.4340
   68MOL0     H 8965   8.949   0.519   1.499 -0.2295 -0.9588  1.1656
   68MOL0     H 8966   9.063   0.847   1.784  3.8513  1.3537  2.8011
   68MOL0     H 8967   9.124   0.932   1.647 -1.0438  1.1418  3.3093
   68MOL0     H 8968   9.308   0.854   1.812  0.1088 -0.9265  1.8402
   68MOL0     H 8969   9.268   0.689   1.763 -0.2496 -0.2987 -2.6024
   68MOL0     H 8970   9.317   0.901   1.537 -3.6714 -1.5617 -0.0939
   68MOL0     H 8971   9.346   0.720   1.549  4.9409 -1.4267  2.0636
   68MOL0     H 8972   9.559   0.883   1.549  1.9418 -1.4229  0.4333
   68MOL0     H 8973   9.506   0.901   1.724 -0.1067 -0.4275 -0.1739
   68MOL0     H 8974   9.650   0.501   1.699 -1.8750 -0.5404  1.7280
   68MOL0     H 8975   8.888   0.914   1.652  3.4408 -0.8757 -1.1843
   68MOL0     H 8976   8.646   0.897   1.615  0.5837 -0.2233  0.0945
   69MOL0     O 8977   9.142   8.586  10.134 -0.6023  0.4927  0.3537
   69MOL0     C 8978   9.108   8.693  10.190 -0.1415  0.3787 -0.1458
   69MOL0     O 8979   9.180   8.777  10.253 -0.7269  0.3400 -0.3020
   69MOL0     C 8980   9.312   8.757  10.246 -0.5781  0.3355  0.7515
   69MOL0     C 8981   9.394   8.805  10.144 -0.4609  0.3283  0.1376
   69MOL0     C 8982   9.530   8.772  10.146  0.2557  0.4393  0.4460
   69MOL0     C 8983   9.588   8.690  10.240  0.3167 -0.2090 -0.0847
   69MOL0     O 8984   9.722   8.667  10.233  0.4738 -0.2952 -0.4309
   69MOL0     C 8985   9.786   8.667  10.362 -0.7492 -0.2511  0.4520
   69MOL0     C 8986   9.927   8.682  10.340 -0.4396 -0.6085 -0.2644
   69MOL0     C 8987  10.012   8.673  10.472  0.8790 -0.3206  0.6062
   69MOL0     C 8988  10.147   8.764  10.457 -0.9227  0.0227  0.1912
   69MOL0     C 8989  10.244   8.726  10.569 -0.4405  0.0215 -0.0966
   69MOL0     C 8990  10.372   8.816  10.549 -0.0579 -0.2795 -0.6674
   69MOL0     C 8991  10.498   8.763  10.621  0.0721  0.3497 -0.0554
   69MOL0     C 8992  10.542   8.831  10.747  0.5053  0.3621  0.9214
   69MOL0     N 8993  10.433   8.845  10.838 -0.2015 -0.9224  0.2263
   69MOL0     C 8994  10.380   8.965  10.876  0.7699 -0.6015 -0.4255
   69MOL0     C 8995  10.281   8.925  10.960  0.4811  0.0180 -0.1521
   69MOL0     C 8996  10.174   9.022  11.012 -0.5322  0.7116 -0.2314
   69MOL0     C 8997  10.041   8.986  10.949  0.3949  0.1163  0.4091
   69MOL0     C 8998  10.024   9.031  10.806 -0.4758 -0.4963 -0.2075
   69MOL0     C 8999   9.884   9.036  10.764 -0.5806 -0.5777  0.3846
   69MOL0     O 9000   9.811   8.912  10.753 -0.1732 -0.3441 -0.1223
   69MOL0     C 9001   9.682   8.908  10.726 -0.3591 -0.2981  0.4694
   69MOL0     C 9002   9.602   9.019  10.712  0.1383 -0.4150 -1.1663
   69MOL0     C 9003   9.461   9.015  10.693  0.0484  0.0499  0.1548
   69MOL0     C 9004   9.404   8.887  10.682  0.8633 -0.5112 -0.0637
   69MOL0     C 9005   9.250   8.877  10.678 -0.7589 -0.5589 -0.3332
   69MOL0     O 9006   9.197   8.752  10.666 -0.4681 -0.8250 -0.3768
   69MOL0     C 9007   9.060   8.747  10.670 -0.3490  0.3882 -0.4169
   69MOL0     C 9008   8.995   8.687  10.772 -0.6845 -0.3351 -0.4496
   69MOL0     C 9009   8.859   8.686  10.781  0.3711 -0.1873  0.8292
   69MOL0     C 9010   8.778   8.731  10.673 -0.1985  0.8108 -0.3593
   69MOL0     O 9011   8.643   8.729  10.678 -0.1943  0.2064  0.6653
   69MOL0     C 9012   8.571   8.682  10.799 -0.4404  0.7441  0.3586
   69MOL0     C 9013   8.421   8.711  10.779 -0.5258 -0.0089 -0.2716
   69MOL0     C 9014   8.322   8.645  10.885 -0.0451  0.4843  0.3543
   69MOL0     C 9015   8.187   8.722  10.891 -0.2207  0.8299 -0.0457
   69MOL0     C 9016   8.096   8.631  10.976  0.4120  1.0925  0.2947
   69MOL0     C 9017   7.944   8.648  10.942  0.9954  0.0709  0.8155
   69MOL0     C 9018   7.888   8.798  10.958  0.1582 -0.9426  0.5309
   69MOL0     C 9019   7.782   8.839  10.848  0.5019  0.0257  0.0171
   69MOL0    Cl 9020   7.767   9.020  10.870 -0.6392 -0.3021  0.2111
   69MOL0     C 9021   8.846   8.772  10.560  0.9014 -0.5424 -0.5501
   69MOL0     C 9022   8.985   8.784  10.562  0.1614 -0.5271  0.2000
   69MOL0     O 9023   9.187   8.980  10.683  1.4054  0.3055 -0.1443
   69MOL0     C 9024   9.478   8.777  10.691 -0.8350 -0.1431 -0.5195
   69MOL0     C 9025   9.617   8.785  10.709 -0.0067  0.1049  0.6109
   69MOL0     N 9026  10.300   8.793  10.987  0.0624 -0.2647  0.0396
   69MOL0     N 9027  10.394   8.742  10.914 -0.6134  0.0529  0.4294
   69MOL0     C 9028   9.502   8.642  10.340 -0.3626  0.0036  0.5147
   69MOL0     C 9029   9.368   8.675  10.339 -0.0214  0.4376  0.5665
   69MOL0     C 9030   8.969   8.737  10.172  0.5953  0.6577  0.8203
   69MOL0     C 9031   8.866   8.646  10.168  0.7656  0.4128 -1.1852
   69MOL0     C 9032   8.735   8.680  10.150  0.5592  0.4951  1.0999
   69MOL0     C 9033   8.693   8.808  10.143 -0.5135  0.1785  0.6025
   69MOL0     O 9034   8.565   8.848  10.132  0.4737 -0.6452 -0.0750
   69MOL0     C 9035   8.475   8.774  10.214  0.4926 -0.7651 -0.1160
   69MOL0     C 9036   8.342   8.774  10.146  0.0841  0.0033  0.3414
   69MOL0     C 9037   8.228   8.688  10.210  0.3509 -0.1781  0.0166
   69MOL0     C 9038   8.098   8.708  10.144  0.9192 -0.4440  0.9174
   69MOL0     C 9039   8.080   8.658  10.004 -0.1623  0.7304  0.1933
   69MOL0     C 9040   8.074   8.615   9.895  0.1169  0.2272  0.1763
   69MOL0     C 9041   8.792   8.908  10.133  0.4845  0.9526  0.4405
   69MOL0     C 9042   8.930   8.875  10.140  0.0763  0.6766 -0.1949
   69MOL0     H 9043   9.348   8.859  10.062 -3.1602 -2.2631 -0.2277
   69MOL0     H 9044   9.590   8.809  10.064  0.1867  2.7900  1.3650
   69MOL0     H 9045   9.774   8.575  10.420  4.9363 -2.4907 -1.2483
   69MOL0     H 9046   9.750   8.757  10.412 -0.6828  1.0578 -1.7348
   69MOL0     H 9047   9.942   8.775  10.285 -1.2724  0.0441  0.5786
   69MOL0     H 9048   9.968   8.606  10.273  3.1952 -0.0203  1.1222
   69MOL0     H 9049  10.037   8.569  10.494  2.5201 -0.1274 -0.1735
   69MOL0     H 9050   9.957   8.717  10.556 -0.0909  1.8167 -1.0640
   69MOL0     H 9051  10.199   8.748  10.362  0.3826 -1.0665  1.0529
   69MOL0     H 9052  10.116   8.869  10.465 -2.2328  0.0651 -3.4836
   69MOL0     H 9053  10.264   8.619  10.559  0.7700  0.2317 -0.0808
   69MOL0     H 9054  10.193   8.737  10.666 -0.5094 -3.6292  0.4353
   69MOL0     H 9055  10.359   8.919  10.582  0.1101 -0.7067  0.8326
   69MOL0     H 9056  10.394   8.825  10.442  1.5551 -1.7143 -0.5114
   69MOL0     H 9057  10.489   8.657  10.649  1.4709  0.9443  3.0287
   69MOL0     H 9058  10.572   8.775  10.541 -2.5928  1.8257 -2.4778
   69MOL0     H 9059  10.583   8.931  10.729 -2.3662  2.1749  3.3686
   69MOL0     H 9060  10.619   8.778  10.803  0.2291 -0.3412  0.6381
   69MOL0     H 9061  10.388   9.062  10.829  1.6528 -0.1497  0.6130
   69MOL0     H 9062  10.201   9.126  10.991  1.3301  0.3321  0.1029
   69MOL0     H 9063  10.168   9.002  11.119  0.5969  0.3621 -0.2171
   69MOL0     H 9064   9.954   9.024  11.004 -0.1772  0.9589 -1.0295
   69MOL0     H 9065  10.038   8.877  10.942 -0.7312  0.1219  0.6194
   69MOL0     H 9066  10.073   9.128  10.790  0.4983 -0.2201  3.5800
   69MOL0     H 9067  10.068   8.945  10.754  0.5554 -1.2376  1.7980
   69MOL0     H 9068   9.887   9.083  10.665  0.8798 -1.1454  0.1322
   69MOL0     H 9069   9.839   9.114  10.826  0.5944  0.5288 -0.0934
   69MOL0     H 9070   9.646   9.118  10.711  2.4616 -1.3083  1.3451
   69MOL0     H 9071   9.396   9.102  10.685  0.6737  0.6427  1.2646
   69MOL0     H 9072   9.054   8.650  10.855 -0.9329  0.4788  0.1022
   69MOL0     H 9073   8.811   8.639  10.867  0.3477  3.1747  2.8366
   69MOL0     H 9074   8.603   8.739  10.887  2.9505 -0.8217  0.2785
   69MOL0     H 9075   8.590   8.576  10.814 -3.0563  0.1654  0.1099
   69MOL0     H 9076   8.389   8.678  10.679 -0.5018 -0.3820 -0.1594
   69MOL0     H 9077   8.404   8.818  10.790 -0.0178  0.1293 -0.7818
   69MOL0     H 9078   8.365   8.635  10.985  2.0712 -0.1990 -0.5458
   69MOL0     H 9079   8.314   8.543  10.848  2.2170  0.2811  0.2371
   69MOL0     H 9080   8.185   8.822  10.935 -2.2688  1.8394 -2.1969
   69MOL0     H 9081   8.149   8.727  10.789 -1.2105 -1.1213  0.1702
   69MOL0     H 9082   8.108   8.661  11.081  2.6166  1.5384 -0.0334
   69MOL0     H 9083   8.121   8.525  10.981  1.0479  1.2330  0.1678
   69MOL0     H 9084   7.887   8.583  11.010  1.4827 -0.4414  0.7489
   69MOL0     H 9085   7.925   8.606  10.843 -0.2360  1.0350  0.6293
   69MOL0     H 9086   7.835   8.804  11.053 -0.3278 -1.2063  0.2847
   69MOL0     H 9087   7.970   8.870  10.964 -1.4740  0.9941  0.6096
   69MOL0     H 9088   7.689   8.785  10.862  1.0831 -0.7933  0.7957
   69MOL0     H 9089   7.812   8.814  10.745  0.5532  1.2168 -0.2782
   69MOL0     H 9090   8.788   8.816  10.479  1.9262  0.1697 -0.9142
   69MOL0     H 9091   9.034   8.821  10.472 -1.0691  0.1206 -0.2328
   69MOL0     H 9092   9.441   8.675  10.691  2.0334 -1.3283  1.6277
   69MOL0     H 9093   9.670   8.694  10.733  0.3630  1.2586  5.1995
   69MOL0     H 9094   9.537   8.575  10.418  3.1288  1.0843  0.0559
   69MOL0     H 9095   9.300   8.634  10.413  1.8055  0.0445  2.0930
   69MOL0     H 9096   8.898   8.543  10.179  1.3120  0.7668  0.9073
   69MOL0     H 9097   8.659   8.604  10.137  2.3944 -0.9382 -3.1180
   69MOL0     H 9098   8.462   8.804  10.319 -5.1785  1.3913 -1.0612
   69MOL0     H 9099   8.498   8.667  10.212  0.8499 -0.6787 -1.3797
   69MOL0     H 9100   8.297   8.874  10.152 -0.1212  0.0327 -1.3490
   69MOL0     H 9101   8.347   8.745  10.041 -0.9955  1.6676 -0.2063
   69MOL0     H 9102   8.222   8.694  10.319 -0.5124 -4.0286  0.3293
   69MOL0     H 9103   8.247   8.582  10.188 -0.6576 -0.0154 -1.7781
   69MOL0     H 9104   8.018   8.663  10.204  0.3891 -1.5677 -0.5674
   69MOL0     H 9105   8.075   8.813  10.128 -2.7495 -1.5252 -2.7286
   69MOL0     H 9106   8.072   8.583   9.793  0.0469  2.3536 -0.5452
   69MOL0     H 9107   8.762   9.012  10.138 -4.1242 -0.1649  1.7995
   69MOL0     H 9108   9.002   8.953  10.119  2.4941 -1.7585 -1.5758
   70MOL0     O 9109   9.442   5.774   2.655 -0.7018  0.7894  0.9270
   70MOL0     C 9110   9.512   5.844   2.725 -0.1279 -0.2830  0.1359
   70MOL0     O 9111   9.486   5.975   2.764 -1.1994 -0.2622 -0.4101
   70MOL0     C 9112   9.365   6.024   2.729 -0.1611 -0.0397  0.4789
   70MOL0     C 9113   9.253   5.974   2.797  1.1014  0.2182 -0.6470
   70MOL0     C 9114   9.126   6.026   2.776 -0.5647  0.1376 -0.6619
   70MOL0     C 9115   9.102   6.127   2.680 -0.5418 -0.0153  0.1750
   70MOL0     O 9116   8.980   6.180   2.655 -0.5891  0.2516  0.0986
   70MOL0     C 9117   8.866   6.132   2.727  0.4185 -0.7094  0.9829
   70MOL0     C 9118   8.754   6.244   2.702 -0.1900 -0.2755  0.2122
   70MOL0     C 9119   8.673   6.275   2.836 -0.2080 -0.4450 -0.2106
   70MOL0     C 9120   8.607   6.149   2.901 -0.7763  0.5587 -0.0005
   70MOL0     C 9121   8.539   6.188   3.034 -0.5724 -0.0104  0.2338
   70MOL0     C 9122   8.427   6.289   3.031 -0.7829 -0.1051  0.1787
   70MOL0     C 9123   8.315   6.257   2.934  0.9647  0.0914 -0.0376
   70MOL0     C 9124   8.221   6.132   2.978  0.3674  0.0944  0.2402
   70MOL0     N 9125   8.124   6.173   3.085 -0.1025  0.5965  0.1687
   70MOL0     C 9126   7.995   6.223   3.074  0.1337  0.2314 -0.8818
   70MOL0     C 9127   7.960   6.258   3.199 -0.2946  0.1133 -0.4545
   70MOL0     C 9128   7.851   6.352   3.227  0.0764 -0.1550  0.3463
   70MOL0     C 9129   7.726   6.274   3.209 -0.1314 -0.3003 -0.2663
   70MOL0     C 9130   7.700   6.169   3.332  0.0797 -0.1476 -0.2779
   70MOL0     C 9131   7.614   6.231   3.443  1.5909 -0.3698  0.1917
   70MOL0     O 9132   7.480   6.189   3.419 -0.0801  0.0727 -0.7449
   70MOL0     C 9133   7.392   6.199   3.528  0.2977 -0.0336 -0.0075
   70MOL0     C 9134   7.295   6.098   3.543  0.9688 -0.2753  0.1806
   70MOL0     C 9135   7.186   6.107   3.625  0.1851 -0.2295 -0.0005
   70MOL0     C 9136   7.182   6.215   3.715  0.1800  0.8162  0.4268
   70MOL0     C 9137   7.065   6.226   3.813  0.7908 -0.3852 -0.3595
   70MOL0     O 9138   7.078   6.327   3.905  0.2658 -0.4773  0.7042
   70MOL0     C 9139   6.975   6.346   3.994 -0.0446 -0.2926 -0.0667
   70MOL0     C 9140   6.937   6.253   4.086  0.0307 -0.0758  0.2720
   70MOL0     C 9141   6.838   6.280   4.181  0.0597  0.2671 -0.0917
   70MOL0     C 9142   6.771   6.403   4.186  0.0073 -0.4988  0.4108
   70MOL0     O 9143   6.677   6.441   4.288  0.0039  0.2492  0.0397
   70MOL0     C 9144   6.665   6.354   4.408  0.5312  0.2174 -0.3879
   70MOL0     C 9145   6.525   6.293   4.396  0.0107 -0.4775  0.0790
   70MOL0     C 9146   6.405   6.387   4.365  0.0571 -0.1507 -0.0399
   70MOL0     C 9147   6.278   6.308   4.347  0.4986  0.0248 -0.3693
   70MOL0     C 9148   6.145   6.394   4.366  0.5667  0.3626  0.0544
   70MOL0     C 9149   6.029   6.299   4.333  0.2331  0.1593 -0.1670
   70MOL0     C 9150   5.897   6.334   4.394  0.8162  0.1980  0.1463
   70MOL0     C 9151   5.806   6.205   4.392  0.0766 -0.4757 -0.4177
   70MOL0    Cl 9152   5.733   6.190   4.224  0.2220 -0.4643  0.1453
   70MOL0     C 9153   6.812   6.501   4.096  0.7022 -0.5663  0.5584
   70MOL0     C 9154   6.917   6.472   3.998 -0.1024  0.0640 -0.2584
   70MOL0     O 9155   6.973   6.149   3.805 -0.3673 -0.1701 -0.3727
   70MOL0     C 9156   7.270   6.329   3.709  0.1945 -0.4364  0.0765
   70MOL0     C 9157   7.376   6.314   3.613 -0.5206 -0.3684 -1.1775
   70MOL0     N 9158   8.066   6.234   3.285 -0.5174  0.1008  0.2983
   70MOL0     N 9159   8.164   6.178   3.219  0.3257 -0.0126  0.5253
   70MOL0     C 9160   9.214   6.179   2.612 -0.0970 -0.1033  0.1402
   70MOL0     C 9161   9.343   6.128   2.635  1.1476 -0.1135  0.1182
   70MOL0     C 9162   9.647   5.789   2.766  0.1726 -0.5424 -0.2181
   70MOL0     C 9163   9.676   5.653   2.762 -0.3871 -0.7610 -0.7608
   70MOL0     C 9164   9.797   5.610   2.815  0.1154 -0.0867  0.3456
   70MOL0     C 9165   9.897   5.691   2.868 -1.6291  0.2588  0.0994
   70MOL0     O 9166  10.011   5.623   2.913  0.0699  0.2000  0.1805
   70MOL0     C 9167  10.135   5.693   2.924 -0.4537  0.3654 -0.2135
   70MOL0     C 9168  10.244   5.592   2.967  0.2237 -0.6198 -0.2389
   70MOL0     C 9169  10.257   5.482   2.866 -0.2083 -0.0661 -0.5035
   70MOL0     C 9170  10.390   5.400   2.878  0.5264 -0.1138 -0.6655
   70MOL0     C 9171  10.498   5.460   2.800  0.0579  0.4906 -0.1922
   70MOL0     C 9172  10.576   5.512   2.719 -0.1581  0.2037 -0.0899
   70MOL0     C 9173   9.873   5.832   2.865  0.8685  1.0676 -0.5234
   70MOL0     C 9174   9.746   5.881   2.816 -0.3639 -0.0078  0.0501
   70MOL0     H 9175   9.280   5.892   2.862 -2.2691 -2.2154 -2.0482
   70MOL0     H 9176   9.049   5.975   2.831 -0.2423 -0.5346 -0.8239
   70MOL0     H 9177   8.896   6.132   2.832 -3.9084  1.1649  2.4240
   70MOL0     H 9178   8.827   6.033   2.700  1.3718 -1.4315  2.1134
   70MOL0     H 9179   8.675   6.222   2.629 -2.5808 -0.9289  2.8083
   70MOL0     H 9180   8.807   6.336   2.678 -2.2723  0.7092 -0.8419
   70MOL0     H 9181   8.607   6.354   2.799 -2.3308 -1.6975  0.7399
   70MOL0     H 9182   8.743   6.324   2.905  1.2835 -0.7182 -1.4698
   70MOL0     H 9183   8.535   6.115   2.826  0.2142 -0.9524 -0.3090
   70MOL0     H 9184   8.678   6.071   2.931 -0.2943  1.1445  0.4159
   70MOL0     H 9185   8.621   6.229   3.094 -0.4886 -0.6804  0.5870
   70MOL0     H 9186   8.504   6.096   3.082 -0.4886 -0.2408 -0.1490
   70MOL0     H 9187   8.469   6.388   3.012  2.1754 -1.1963  0.4975
   70MOL0     H 9188   8.381   6.298   3.130 -1.0191  1.8932 -0.0683
   70MOL0     H 9189   8.254   6.345   2.911  1.4254  0.2230 -0.7734
   70MOL0     H 9190   8.360   6.231   2.838  1.2964 -1.3893  0.4812
   70MOL0     H 9191   8.291   6.058   3.016 -1.0960 -1.7133 -0.4632
   70MOL0     H 9192   8.162   6.089   2.896  1.4647  0.9677 -1.0476
   70MOL0     H 9193   7.942   6.245   2.982 -5.0730  2.3008  2.1675
   70MOL0     H 9194   7.852   6.431   3.151  0.8805 -0.1848  0.3239
   70MOL0     H 9195   7.867   6.389   3.328  0.7591 -2.8029  1.2796
   70MOL0     H 9196   7.732   6.221   3.114  0.3829 -0.1336 -0.3272
   70MOL0     H 9197   7.635   6.330   3.185 -0.0215 -0.7215 -1.7586
   70MOL0     H 9198   7.659   6.071   3.304  0.5865 -1.0330  1.8702
   70MOL0     H 9199   7.797   6.144   3.376 -0.3637 -2.0703 -0.2945
   70MOL0     H 9200   7.629   6.339   3.433 -0.0737 -0.2080 -1.0930
   70MOL0     H 9201   7.650   6.199   3.541 -0.6091 -1.8494  0.5849
   70MOL0     H 9202   7.306   6.012   3.478  1.1864 -0.1517  0.0538
   70MOL0     H 9203   7.114   6.028   3.608  1.7433 -1.4975 -1.0309
   70MOL0     H 9204   6.994   6.160   4.084  0.5672  0.2505 -0.0026
   70MOL0     H 9205   6.823   6.208   4.260  1.9639  1.1683  1.1527
   70MOL0     H 9206   6.658   6.416   4.498  1.4214  0.7198 -0.6545
   70MOL0     H 9207   6.744   6.280   4.425 -0.8242 -1.5209 -1.3986
   70MOL0     H 9208   6.508   6.221   4.476  1.2923  0.3762  1.1636
   70MOL0     H 9209   6.511   6.232   4.306 -1.5164  0.4459 -0.3344
   70MOL0     H 9210   6.429   6.443   4.275  3.7750 -2.5585 -0.7713
   70MOL0     H 9211   6.398   6.454   4.452  1.7650 -1.5445  1.2625
   70MOL0     H 9212   6.274   6.270   4.244 -1.6435  1.7722 -1.0163
   70MOL0     H 9213   6.276   6.221   4.414  1.7879  0.3710  0.1625
   70MOL0     H 9214   6.137   6.475   4.293 -1.9252 -0.3487 -0.5639
   70MOL0     H 9215   6.138   6.424   4.471 -0.6365 -1.1529  0.4445
   70MOL0     H 9216   6.051   6.196   4.363 -0.3553  0.6677  2.2235
   70MOL0     H 9217   6.021   6.291   4.225  0.9201  2.1783 -0.4000
   70MOL0     H 9218   5.909   6.357   4.500 -1.2562  0.3429  0.4039
   70MOL0     H 9219   5.837   6.411   4.344  0.6401  2.1060  3.0507
   70MOL0     H 9220   5.722   6.196   4.463  2.4838 -1.0163  2.5701
   70MOL0     H 9221   5.859   6.110   4.402 -4.6718 -3.7510 -2.4297
   70MOL0     H 9222   6.764   6.599   4.096 -1.2913 -1.3607 -2.5749
   70MOL0     H 9223   6.961   6.542   3.927  1.3905 -0.3466  0.2171
   70MOL0     H 9224   7.255   6.413   3.776 -1.9831 -0.0813 -0.7767
   70MOL0     H 9225   7.449   6.395   3.613 -1.3932  0.4469 -0.6471
   70MOL0     H 9226   9.192   6.253   2.535 -2.0063 -1.3509 -0.5874
   70MOL0     H 9227   9.416   6.167   2.565 -0.9143 -0.0087 -2.1360
   70MOL0     H 9228   9.604   5.577   2.732 -0.6906 -0.5843 -0.4901
   70MOL0     H 9229   9.811   5.502   2.819  1.1115  0.0387  0.5193
   70MOL0     H 9230  10.117   5.778   2.991 -1.4714 -0.8308  1.1024
   70MOL0     H 9231  10.165   5.724   2.824  2.5653  0.1810  0.5356
   70MOL0     H 9232  10.347   5.630   2.974  0.9940 -2.7145  0.8092
   70MOL0     H 9233  10.214   5.559   3.067 -0.4000 -0.2185 -0.2873
   70MOL0     H 9234  10.248   5.534   2.770 -2.4161  3.3240  1.3645
   70MOL0     H 9235  10.168   5.418   2.863  0.8646 -1.6530  0.2243
   70MOL0     H 9236  10.414   5.394   2.985 -1.2311  1.0091 -0.1655
   70MOL0     H 9237  10.369   5.298   2.843  0.9963 -0.0332 -1.1901
   70MOL0     H 9238  10.648   5.556   2.653 -2.7240  0.8162 -2.6314
   70MOL0     H 9239   9.937   5.893   2.927  0.9265 -0.4010  0.9347
   70MOL0     H 9240   9.720   5.986   2.822 -1.6172 -0.3284  0.7704
   71MOL0     O 9241   4.090   8.076   9.152 -0.5886  0.4432 -0.3296
   71MOL0     C 9242   4.152   8.128   9.062 -0.5987 -0.6284  0.0499
   71MOL0     O 9243   4.107   8.166   8.940 -0.9619  0.2071 -0.3528
   71MOL0     C 9244   3.982   8.126   8.894  0.3088 -0.1919 -0.9855
   71MOL0     C 9245   3.974   8.095   8.758 -0.1176 -0.3632  0.0764
   71MOL0     C 9246   3.853   8.082   8.695 -0.3843  0.7582  0.5510
   71MOL0     C 9247   3.736   8.083   8.765  0.1709  0.2259 -0.0448
   71MOL0     O 9248   3.617   8.080   8.693 -0.5040  0.0080  0.2175
   71MOL0     C 9249   3.502   8.055   8.772  0.7399 -0.3133  0.2764
   71MOL0     C 9250   3.388   8.038   8.672  0.1360  0.9916 -0.2435
   71MOL0     C 9251   3.376   7.885   8.631 -0.0330  0.1352 -0.4272
   71MOL0     C 9252   3.260   7.863   8.530  0.4465  0.1304 -0.4676
   71MOL0     C 9253   3.120   7.860   8.601  0.2798  0.4734  0.1459
   71MOL0     C 9254   3.020   7.841   8.482 -0.2152 -0.3952  0.5106
   71MOL0     C 9255   2.888   7.784   8.546  0.8490  0.8328 -0.3225
   71MOL0     C 9256   2.780   7.781   8.433  0.0895  1.0216  0.3171
   71MOL0     N 9257   2.654   7.729   8.480 -0.4579  0.0909  0.0612
   71MOL0     C 9258   2.606   7.596   8.483 -0.5353 -0.5700 -0.4802
   71MOL0     C 9259   2.485   7.597   8.551 -1.2536 -0.3730  0.4211
   71MOL0     C 9260   2.386   7.489   8.585 -0.2847  0.1898 -0.4305
   71MOL0     C 9261   2.424   7.343   8.565  0.5134 -0.2593  0.0350
   71MOL0     C 9262   2.315   7.261   8.647 -0.5524 -0.4513  0.0014
   71MOL0     C 9263   2.341   7.115   8.660 -0.0298  0.5143 -0.5218
   71MOL0     O 9264   2.267   7.071   8.776 -0.4844  0.2424 -0.3760
   71MOL0     C 9265   2.333   7.009   8.878  0.0370 -0.6895 -0.3162
   71MOL0     C 9266   2.310   7.050   9.007  0.1266  0.5310  0.1745
   71MOL0     C 9267   2.392   7.006   9.111 -0.0040  0.2324  0.0917
   71MOL0     C 9268   2.495   6.905   9.090 -1.4038 -0.1399 -0.0730
   71MOL0     C 9269   2.596   6.878   9.195 -0.7128 -0.4584  0.5251
   71MOL0     O 9270   2.727   6.851   9.136  0.7116  0.6981  0.0428
   71MOL0     C 9271   2.813   6.799   9.226  0.3612 -0.7398 -0.4469
   71MOL0     C 9272   2.819   6.657   9.237 -0.7713 -0.4590  0.2854
   71MOL0     C 9273   2.905   6.606   9.333 -0.1963  0.7019  0.4946
   71MOL0     C 9274   2.976   6.682   9.421 -1.0480  0.1296  0.0103
   71MOL0     O 9275   3.059   6.624   9.519  0.3068  0.5772  0.1241
   71MOL0     C 9276   3.172   6.690   9.578 -0.0888  0.6681  0.1037
   71MOL0     C 9277   3.256   6.581   9.633  0.3620  0.0382  0.4106
   71MOL0     C 9278   3.398   6.613   9.655  0.5691 -0.4075 -1.0595
   71MOL0     C 9279   3.481   6.499   9.724  0.5045  0.7338  0.1954
   71MOL0     C 9280   3.519   6.397   9.611 -0.2356  0.8717  0.4735
   71MOL0     C 9281   3.643   6.439   9.540 -0.3389  0.1820 -0.6036
   71MOL0     C 9282   3.691   6.344   9.433  0.2148 -0.4769 -0.1763
   71MOL0     C 9283   3.803   6.405   9.344 -0.2247 -0.4746  0.4388
   71MOL0    Cl 9284   3.951   6.423   9.447  0.5451 -0.3245 -0.3237
   71MOL0     C 9285   2.964   6.825   9.413 -0.1863  0.8330 -0.4933
   71MOL0     C 9286   2.882   6.888   9.317  0.6059  0.0559  0.1028
   71MOL0     O 9287   2.562   6.848   9.310 -0.3088 -0.3236  0.5593
   71MOL0     C 9288   2.504   6.850   8.965  0.7125  0.4330 -0.1523
   71MOL0     C 9289   2.416   6.895   8.860  0.2812 -0.3508  0.0617
   71MOL0     N 9290   2.468   7.724   8.592 -0.0924  0.1217  0.1516
   71MOL0     N 9291   2.563   7.798   8.546  0.3959 -0.1092  0.2998
   71MOL0     C 9292   3.737   8.086   8.906 -0.5396  0.6428  0.6182
   71MOL0     C 9293   3.867   8.112   8.967  0.3541  0.9504  0.5018
   71MOL0     C 9294   4.301   8.147   9.087  0.6454 -0.2401 -0.0167
   71MOL0     C 9295   4.385   8.211   8.992  1.0681  0.0305  0.5235
   71MOL0     C 9296   4.523   8.223   9.020 -0.1487 -0.2066 -0.0610
   71MOL0     C 9297   4.576   8.170   9.137 -0.7118  1.2103 -0.0338
   71MOL0     O 9298   4.705   8.165   9.178  0.2891 -0.0462  0.1761
   71MOL0     C 9299   4.785   8.278   9.132  0.9402 -0.2915 -0.0570
   71MOL0     C 9300   4.916   8.290   9.207  0.7092  0.6366  0.3064
   71MOL0     C 9301   4.881   8.304   9.361  0.0965  0.8281 -0.2026
   71MOL0     C 9302   5.003   8.323   9.457 -0.2007  0.7599  1.0472
   71MOL0     C 9303   5.111   8.233   9.427 -0.2476 -0.1505  0.3556
   71MOL0     C 9304   5.204   8.162   9.395 -0.6811 -0.0113  1.0230
   71MOL0     C 9305   4.489   8.117   9.232  0.0828  0.3965 -0.2760
   71MOL0     C 9306   4.358   8.104   9.205 -0.4907 -0.2333 -0.1367
   71MOL0     H 9307   4.064   8.102   8.697 -1.4825  0.6312 -1.9397
   71MOL0     H 9308   3.853   8.093   8.587 -1.6605 -1.6920  0.2276
   71MOL0     H 9309   3.471   8.140   8.832 -1.9267  1.0155 -2.7039
   71MOL0     H 9310   3.511   7.966   8.835  3.5476 -0.8971 -0.7647
   71MOL0     H 9311   3.410   8.107   8.590 -0.4447 -0.6908 -1.8721
   71MOL0     H 9312   3.290   8.054   8.718 -0.2167 -0.3725 -0.4821
   71MOL0     H 9313   3.362   7.822   8.720  1.6322  2.2242  1.4332
   71MOL0     H 9314   3.464   7.850   8.578  1.2873 -2.1076  2.8957
   71MOL0     H 9315   3.259   7.954   8.470  1.8068  0.2427 -0.3555
   71MOL0     H 9316   3.267   7.768   8.475 -0.3311  0.0693 -0.4652
   71MOL0     H 9317   3.097   7.935   8.677 -0.1722 -0.6145  1.1126
   71MOL0     H 9318   3.111   7.764   8.654 -1.8903 -0.3873 -1.6047
   71MOL0     H 9319   3.062   7.776   8.404  0.5887  1.4050 -0.6103
   71MOL0     H 9320   3.002   7.937   8.434 -0.4860 -0.2211  0.9519
   71MOL0     H 9321   2.892   7.687   8.595 -0.5453  1.5327  1.2941
   71MOL0     H 9322   2.861   7.845   8.632 -0.2974 -0.4037  0.2274
   71MOL0     H 9323   2.827   7.721   8.354  3.6245  3.2001  0.5537
   71MOL0     H 9324   2.764   7.880   8.391 -3.1384  0.0448 -1.0917
   71MOL0     H 9325   2.648   7.499   8.458  0.7124 -0.9776  2.6876
   71MOL0     H 9326   2.308   7.507   8.509  1.1073 -1.4715 -2.3397
   71MOL0     H 9327   2.350   7.510   8.686  0.9560  1.4569 -0.2270
   71MOL0     H 9328   2.524   7.324   8.605  0.7578  0.0286 -0.4286
   71MOL0     H 9329   2.410   7.306   8.462  1.2749 -1.7742  0.4442
   71MOL0     H 9330   2.315   7.297   8.750  2.0222 -1.7469  0.5446
   71MOL0     H 9331   2.216   7.275   8.601  1.1367  1.0395 -3.5571
   71MOL0     H 9332   2.447   7.088   8.653  0.0300  0.7868 -0.6588
   71MOL0     H 9333   2.289   7.068   8.576  1.5237  0.5581 -1.5389
   71MOL0     H 9334   2.239   7.130   9.027 -3.1402 -1.2747 -3.0782
   71MOL0     H 9335   2.382   7.051   9.209 -2.8093  0.8254 -0.3778
   71MOL0     H 9336   2.766   6.589   9.171  0.4796 -0.4814 -0.7160
   71MOL0     H 9337   2.907   6.498   9.348 -2.0019  0.6513  0.6138
   71MOL0     H 9338   3.147   6.770   9.649 -1.4394  1.9560 -1.7162
   71MOL0     H 9339   3.232   6.744   9.504  0.6674  0.4360  0.5280
   71MOL0     H 9340   3.263   6.507   9.553  2.3621  2.4442 -1.8321
   71MOL0     H 9341   3.207   6.551   9.726  0.2393 -0.0638  0.3137
   71MOL0     H 9342   3.404   6.704   9.716 -2.0339  0.2511 -1.6723
   71MOL0     H 9343   3.453   6.654   9.569  0.3611  2.4021  0.0521
   71MOL0     H 9344   3.574   6.539   9.766  1.3363  0.8956 -1.7268
   71MOL0     H 9345   3.430   6.446   9.805  1.7772 -2.4988 -0.9814
   71MOL0     H 9346   3.449   6.402   9.527  1.4882 -0.0794 -1.1041
   71MOL0     H 9347   3.524   6.295   9.651 -1.7066  1.4613  2.3134
   71MOL0     H 9348   3.724   6.441   9.614 -1.0957  1.9424  0.2482
   71MOL0     H 9349   3.636   6.538   9.494  0.9489  0.8630  0.5805
   71MOL0     H 9350   3.734   6.254   9.479 -0.7898 -0.1664  1.4341
   71MOL0     H 9351   3.606   6.317   9.370  0.9956 -0.4757 -1.2502
   71MOL0     H 9352   3.777   6.506   9.312 -1.0930 -0.8278 -0.0050
   71MOL0     H 9353   3.819   6.344   9.255  0.7788  0.3386  0.0508
   71MOL0     H 9354   3.028   6.890   9.470  0.0619  1.0169 -0.9746
   71MOL0     H 9355   2.882   6.995   9.301 -1.3241  0.2831  1.2937
   71MOL0     H 9356   2.578   6.775   8.937  0.5639 -0.0247  0.6459
   71MOL0     H 9357   2.428   6.864   8.757 -0.8170  0.1875 -0.2342
   71MOL0     H 9358   3.651   8.064   8.969 -2.0287  2.7107 -0.5556
   71MOL0     H 9359   3.875   8.108   9.075 -2.5673 -3.1559  0.8162
   71MOL0     H 9360   4.358   8.256   8.898 -0.7144  1.1056  1.4885
   71MOL0     H 9361   4.585   8.276   8.947  1.8247 -2.1175  0.1241
   71MOL0     H 9362   4.732   8.371   9.157  0.7259 -0.3150 -0.4118
   71MOL0     H 9363   4.821   8.268   9.029  2.5030  2.0708  0.1736
   71MOL0     H 9364   4.975   8.203   9.178  0.2811  0.5103 -0.1879
   71MOL0     H 9365   4.977   8.379   9.187 -0.1905  1.3366  0.6062
   71MOL0     H 9366   4.838   8.207   9.387  2.2868  0.6802  3.6376
   71MOL0     H 9367   4.800   8.376   9.381 -3.2222 -2.6487  0.0039
   71MOL0     H 9368   5.029   8.429   9.457 -1.0316  0.9806  1.7295
   71MOL0     H 9369   4.975   8.296   9.559 -1.2088  1.2706  0.9179
   71MOL0     H 9370   5.278   8.092   9.361 -1.6454 -1.1804  1.2484
   71MOL0     H 9371   4.528   8.069   9.322 -1.4422  1.1754  0.8375
   71MOL0     H 9372   4.287   8.062   9.276 -1.5508  1.9751  0.2037
   72MOL0     O 9373   1.839  10.419   8.502  0.0263  0.9088 -0.7374
   72MOL0     C 9374   1.880  10.313   8.445  0.3836 -0.3847 -0.0149
   72MOL0     O 9375   2.001  10.263   8.443  0.4712  0.3883 -0.2868
   72MOL0     C 9376   2.103  10.329   8.501 -0.8804  0.3062 -0.4211
   72MOL0     C 9377   2.221  10.353   8.421  0.4716 -0.1801 -1.2313
   72MOL0     C 9378   2.328  10.417   8.494 -0.0036 -0.0690 -0.0096
   72MOL0     C 9379   2.318  10.466   8.628  0.9585  1.0675 -0.1332
   72MOL0     O 9380   2.428  10.535   8.672 -0.2839  0.0260  0.5992
   72MOL0     C 9381   2.428  10.575   8.806 -0.0268 -0.4692  0.4130
   72MOL0     C 9382   2.569  10.631   8.826  0.2721  0.0005  0.5870
   72MOL0     C 9383   2.587  10.717   8.950 -0.1930 -0.3438  0.0132
   72MOL0     C 9384   2.560  10.646   9.080 -0.3672 -0.4762  0.1781
   72MOL0     C 9385   2.583  10.753   9.187  0.0603 -0.4276  0.1669
   72MOL0     C 9386   2.577  10.700   9.330 -0.3002 -0.4859 -0.5753
   72MOL0     C 9387   2.443  10.641   9.373  0.7378  0.3064 -0.2168
   72MOL0     C 9388   2.445  10.609   9.522 -0.6289  0.1964 -1.1365
   72MOL0     N 9389   2.311  10.580   9.570  0.3236 -0.0333 -0.0792
   72MOL0     C 9390   2.228  10.477   9.532  0.1176 -0.0425  0.0978
   72MOL0     C 9391   2.111  10.496   9.596  0.0216  0.6174 -0.1122
   72MOL0     C 9392   1.987  10.405   9.604 -0.1254 -0.1168  0.0687
   72MOL0     C 9393   2.012  10.252   9.585 -0.6474  0.7023  0.4080
   72MOL0     C 9394   1.995  10.221   9.433  0.3562 -0.3708 -0.0560
   72MOL0     C 9395   1.856  10.168   9.407 -0.3745 -0.3663 -0.8255
   72MOL0     O 9396   1.759  10.264   9.450  0.0123 -0.2207 -0.0028
   72MOL0     C 9397   1.632  10.216   9.463 -0.4841  1.1823 -0.1747
   72MOL0     C 9398   1.556  10.291   9.542 -0.3423  0.3534  0.2622
   72MOL0     C 9399   1.428  10.260   9.571  0.0156  0.5212 -0.5220
   72MOL0     C 9400   1.365  10.145   9.516 -0.5058  0.2981  0.1723
   72MOL0     C 9401   1.228  10.107   9.568 -1.0206  0.2898 -0.2636
   72MOL0     O 9402   1.167  10.187   9.666 -0.3889 -0.1977 -0.3709
   72MOL0     C 9403   1.043  10.160   9.704  0.7254 -0.6798  0.2341
   72MOL0     C 9404   0.931  10.207   9.631 -1.0446  0.4519 -0.4652
   72MOL0     C 9405   0.801  10.171   9.677  1.1899  1.2912  0.6761
   72MOL0     C 9406   0.774  10.092   9.784 -1.3810  0.9230 -1.4039
   72MOL0     O 9407   0.643  10.067   9.812  0.1140 -0.1791  0.3579
   72MOL0     C 9408   0.599   9.981   9.918 -0.2639 -0.3045  0.0655
   72MOL0     C 9409   0.444   9.953   9.915 -0.2145 -0.0346 -0.6469
   72MOL0     C 9410   0.374  10.086   9.931 -0.0863  0.5512 -0.1352
   72MOL0     C 9411   0.226  10.057   9.928  0.6134 -0.6695  0.5072
   72MOL0     C 9412   0.139  10.173   9.980 -0.2814  0.6361 -0.1066
   72MOL0     C 9413  -0.012  10.134   9.987 -0.4343  0.0622  0.3833
   72MOL0     C 9414  -0.092  10.261   9.996 -0.2323 -0.2502  0.4636
   72MOL0     C 9415  -0.078  10.322  10.133  0.6390  0.6206 -0.5619
   72MOL0    Cl 9416  -0.193  10.450  10.148 -0.1207 -0.0062  0.1118
   72MOL0     C 9417   0.884  10.042   9.854  0.0153 -0.6173 -0.6494
   72MOL0     C 9418   1.018  10.071   9.815 -0.8495 -0.1965  0.8039
   72MOL0     O 9419   1.177  10.001   9.533 -0.2365 -0.1707 -0.9971
   72MOL0     C 9420   1.436  10.074   9.420  0.4357 -0.2908 -0.3894
   72MOL0     C 9421   1.568  10.112   9.394  0.3074 -0.2986 -0.4145
   72MOL0     N 9422   2.125  10.609   9.675 -0.0605 -0.2792 -0.0269
   72MOL0     N 9423   2.238  10.661   9.647 -0.7131 -0.0449  0.7963
   72MOL0     C 9424   2.197  10.440   8.696  0.2121  0.3446 -0.6355
   72MOL0     C 9425   2.090  10.373   8.638 -0.5799  0.2156  0.2251
   72MOL0     C 9426   1.777  10.251   8.363  0.2201  0.3869 -1.0284
   72MOL0     C 9427   1.813  10.146   8.265  0.6265 -0.6777 -0.3525
   72MOL0     C 9428   1.720  10.104   8.173 -0.7135 -0.4740  0.2927
   72MOL0     C 9429   1.580  10.143   8.191 -1.0942  0.1604 -0.3447
   72MOL0     O 9430   1.481  10.119   8.099  0.0479  0.0436  0.2120
   72MOL0     C 9431   1.515  10.043   7.985 -0.5874  0.2212  0.4632
   72MOL0     C 9432   1.391  10.025   7.902 -0.0299  0.1999  0.0229
   72MOL0     C 9433   1.282   9.954   7.975  0.2411 -0.2008  0.3267
   72MOL0     C 9434   1.188   9.907   7.867 -1.0222  0.0481 -0.5217
   72MOL0     C 9435   1.103   9.805   7.920  0.2983 -0.3688  0.7472
   72MOL0     C 9436   1.035   9.718   7.964 -0.7256 -0.1550  0.0071
   72MOL0     C 9437   1.545  10.222   8.302  0.6041 -0.0729 -0.5385
   72MOL0     C 9438   1.644  10.277   8.386  0.9145 -0.0097  0.2686
   72MOL0     H 9439   2.238  10.323   8.318  3.6105  1.0345 -1.1722
   72MOL0     H 9440   2.420  10.433   8.439 -0.1486 -0.7900 -0.4741
   72MOL0     H 9441   2.411  10.492   8.876 -1.7871  1.6953  2.7152
   72MOL0     H 9442   2.354  10.655   8.820 -1.0790 -0.7995 -2.5587
   72MOL0     H 9443   2.601  10.694   8.743 -1.3553  0.6509  0.4155
   72MOL0     H 9444   2.640  10.548   8.833  0.4959  0.1916  0.5684
   72MOL0     H 9445   2.514  10.797   8.938  2.5503  2.1549 -1.3981
   72MOL0     H 9446   2.686  10.764   8.951  1.4413 -3.4416  2.2555
   72MOL0     H 9447   2.459  10.606   9.092  0.2003 -1.9045  0.3214
   72MOL0     H 9448   2.622  10.556   9.085  1.2128  0.5612 -0.0035
   72MOL0     H 9449   2.505  10.829   9.176  0.0535 -0.4818 -0.1485
   72MOL0     H 9450   2.685  10.792   9.177  1.1279 -3.2542 -1.1065
   72MOL0     H 9451   2.609  10.780   9.397 -2.1145 -0.3969  0.2338
   72MOL0     H 9452   2.650  10.620   9.343  0.4139  0.5781  2.7452
   72MOL0     H 9453   2.361  10.712   9.355 -0.1916 -0.8028 -0.5014
   72MOL0     H 9454   2.428  10.550   9.314 -0.2134  1.4371 -1.8152
   72MOL0     H 9455   2.488  10.689   9.582 -2.4340 -1.5893  2.9766
   72MOL0     H 9456   2.506  10.520   9.540  0.8484  1.1503 -1.2792
   72MOL0     H 9457   2.249  10.404   9.454 -0.8564 -1.0844  0.7672
   72MOL0     H 9458   1.912  10.441   9.533 -1.1275 -1.6971  0.2640
   72MOL0     H 9459   1.943  10.416   9.704  1.1493  1.4067  0.5076
   72MOL0     H 9460   1.962  10.191   9.661  3.8548 -0.9196  2.4444
   72MOL0     H 9461   2.118  10.236   9.608 -0.4083  1.7504  0.0763
   72MOL0     H 9462   2.024  10.296   9.359  1.4967  0.1615  0.9076
   72MOL0     H 9463   2.060  10.136   9.411  0.3600  0.5541 -4.6565
   72MOL0     H 9464   1.835  10.070   9.450  1.5619 -0.7739 -0.7236
   72MOL0     H 9465   1.851  10.153   9.299 -0.6832 -1.5754 -0.6546
   72MOL0     H 9466   1.612  10.373   9.585  1.7894  0.4140 -2.3255
   72MOL0     H 9467   1.372  10.316   9.645 -0.8962 -0.3748 -0.5141
   72MOL0     H 9468   0.929  10.268   9.542  1.7985  0.0682 -0.8874
   72MOL0     H 9469   0.724  10.218   9.615  0.5097 -0.6858 -0.0492
   72MOL0     H 9470   0.618  10.023  10.017 -0.1310 -0.6307  0.1784
   72MOL0     H 9471   0.663   9.893   9.927  1.4591  0.8173 -0.6141
   72MOL0     H 9472   0.422   9.898  10.007 -0.2501  2.0826  0.6729
   72MOL0     H 9473   0.411   9.898   9.827 -1.3091 -0.1905 -0.1460
   72MOL0     H 9474   0.395  10.155   9.849  2.5888 -0.5678 -0.4699
   72MOL0     H 9475   0.406  10.132  10.025  0.4610  0.7993 -0.4397
   72MOL0     H 9476   0.193  10.020   9.830 -0.7219 -0.3809  0.8212
   72MOL0     H 9477   0.205   9.969   9.989  0.0768 -1.7839 -1.1898
   72MOL0     H 9478   0.147  10.251   9.904 -3.5111  0.3878 -0.8774
   72MOL0     H 9479   0.187  10.203  10.073  2.7175 -5.8191  0.9842
   72MOL0     H 9480  -0.035  10.069  10.071  1.3266 -0.8355  0.2244
   72MOL0     H 9481  -0.040  10.082   9.895 -1.6063  0.1292  0.6899
   72MOL0     H 9482  -0.054  10.335   9.925 -0.2217  1.2831  1.9928
   72MOL0     H 9483  -0.199  10.255   9.972  0.1584 -4.1179 -1.0661
   72MOL0     H 9484   0.021  10.365  10.149  0.3818  1.3370 -0.8436
   72MOL0     H 9485  -0.085  10.245  10.210  0.7575  0.6075 -0.5633
   72MOL0     H 9486   0.892   9.989   9.949  2.0195  0.1031 -0.3554
   72MOL0     H 9487   1.105  10.040   9.872  0.0718  3.2418  1.5027
   72MOL0     H 9488   1.392   9.991   9.366 -1.5918 -0.7199  1.7372
   72MOL0     H 9489   1.619  10.057   9.315  2.0888  1.5268 -0.6425
   72MOL0     H 9490   2.184  10.468   8.800 -1.9647 -2.6600  0.0362
   72MOL0     H 9491   1.998  10.346   8.689 -1.0669 -0.4413 -0.9519
   72MOL0     H 9492   1.914  10.122   8.233  0.5641 -1.6378  0.1080
   72MOL0     H 9493   1.749  10.038   8.092 -1.3910 -0.3305 -0.0792
   72MOL0     H 9494   1.558   9.945   8.010 -1.6393 -0.1571  0.8494
   72MOL0     H 9495   1.588  10.099   7.926 -1.6087  3.6530  2.1407
   72MOL0     H 9496   1.351  10.120   7.865 -4.6338 -1.3059  0.4699
   72MOL0     H 9497   1.432   9.965   7.821  3.0767  2.3857 -0.1846
   72MOL0     H 9498   1.226  10.015   8.046  0.7349  0.7337 -0.0717
   72MOL0     H 9499   1.325   9.870   8.031  3.4317  0.4608 -0.9445
   72MOL0     H 9500   1.130   9.992   7.831 -1.1988 -0.7052 -2.1153
   72MOL0     H 9501   1.249   9.870   7.783 -0.2823  2.5581 -1.1628
   72MOL0     H 9502   0.999   9.625   8.004  0.9591 -0.7730  0.1440
   72MOL0     H 9503   1.442  10.255   8.312  0.2113 -0.1279 -3.5781
   72MOL0     H 9504   1.610  10.349   8.459  0.9505  0.6157 -0.3187
   73MOL0     O 9505  10.078   7.160   3.507 -0.9583  0.3147 -0.1016
   73MOL0     C 9506  10.135   7.228   3.591  0.0435 -0.3075  0.4073
   73MOL0     O 9507  10.072   7.284   3.701  0.7928 -0.3408 -1.0467
   73MOL0     C 9508   9.936   7.288   3.726  1.5368 -0.2706  0.3344
   73MOL0     C 9509   9.832   7.220   3.658  0.3534 -0.2057  0.8342
   73MOL0     C 9510   9.694   7.248   3.693 -0.4821  0.3141  1.0228
   73MOL0     C 9511   9.667   7.347   3.784  0.3138 -0.0327 -0.1821
   73MOL0     O 9512   9.529   7.355   3.795  0.1160 -0.2729  1.1902
   73MOL0     C 9513   9.477   7.481   3.850 -0.6448 -0.0705  0.3145
   73MOL0     C 9514   9.338   7.508   3.788 -0.9164 -0.3486  0.7214
   73MOL0     C 9515   9.235   7.426   3.856 -0.8399 -0.6379  0.1051
   73MOL0     C 9516   9.094   7.427   3.798 -0.3407 -0.7171 -0.0261
   73MOL0     C 9517   8.987   7.359   3.896 -0.3357 -0.9160 -0.3302
   73MOL0     C 9518   8.851   7.386   3.837  0.8824  0.0229  0.3797
   73MOL0     C 9519   8.748   7.364   3.946 -0.1178 -0.4157  0.8317
   73MOL0     C 9520   8.616   7.408   3.885 -0.0087 -0.9288 -0.0728
   73MOL0     N 9521   8.533   7.449   3.997  0.4741  0.5907 -0.5449
   73MOL0     C 9522   8.401   7.390   4.026 -0.5562  0.2734  0.1810
   73MOL0     C 9523   8.344   7.458   4.127 -1.0048 -0.1176 -0.7913
   73MOL0     C 9524   8.218   7.432   4.206  0.0978 -0.0780  0.2319
   73MOL0     C 9525   8.117   7.542   4.180  0.0219 -0.5233  1.1487
   73MOL0     C 9526   8.116   7.640   4.291 -0.2163 -0.1145 -0.1941
   73MOL0     C 9527   8.039   7.766   4.251 -0.6593 -0.0771  0.3336
   73MOL0     O 9528   7.900   7.754   4.298 -0.5517  0.1570  1.0084
   73MOL0     C 9529   7.816   7.851   4.241 -0.3288 -0.3933 -0.5626
   73MOL0     C 9530   7.686   7.831   4.273  0.5330  0.8603 -1.4764
   73MOL0     C 9531   7.586   7.910   4.232  0.2262  0.1724 -0.4506
   73MOL0     C 9532   7.604   8.016   4.147 -0.4856 -0.1519 -0.3218
   73MOL0     C 9533   7.492   8.084   4.082 -0.8994 -0.8925 -0.4875
   73MOL0     O 9534   7.364   8.037   4.084 -0.2120  0.8215  0.5498
   73MOL0     C 9535   7.257   8.112   4.037 -0.5996  0.1422 -0.0170
   73MOL0     C 9536   7.212   8.226   4.108  0.2422 -0.0210  0.2753
   73MOL0     C 9537   7.100   8.286   4.058  0.6852  1.2125 -0.4923
   73MOL0     C 9538   7.020   8.237   3.953  0.2815  0.2412  0.7423
   73MOL0     O 9539   6.910   8.300   3.902 -0.0703  0.2072  0.0913
   73MOL0     C 9540   6.876   8.431   3.959  1.0166 -0.1034 -0.8010
   73MOL0     C 9541   6.733   8.482   3.911 -0.0533  0.7638 -0.4895
   73MOL0     C 9542   6.614   8.408   3.974  0.6018  0.1775 -0.4425
   73MOL0     C 9543   6.480   8.472   3.947  0.0917 -0.0127  0.3769
   73MOL0     C 9544   6.357   8.387   3.989  0.1546 -0.7009  0.1294
   73MOL0     C 9545   6.231   8.471   3.974  0.0052 -0.9396 -0.9194
   73MOL0     C 9546   6.129   8.404   4.074 -0.0734 -0.8090 -0.2605
   73MOL0     C 9547   5.985   8.445   4.051  0.6145 -0.3470 -1.2666
   73MOL0    Cl 9548   5.990   8.620   4.053 -0.1662 -0.1375 -0.1877
   73MOL0     C 9549   7.061   8.121   3.888 -0.7289 -0.5591 -0.5155
   73MOL0     C 9550   7.184   8.061   3.927  0.7979 -0.3302 -0.6046
   73MOL0     O 9551   7.528   8.194   4.032  0.0496 -0.1804 -0.1742
   73MOL0     C 9552   7.742   8.052   4.130 -1.1742 -0.0538  0.0751
   73MOL0     C 9553   7.846   7.963   4.166  0.4557 -0.3282  0.3901
   73MOL0     N 9554   8.445   7.538   4.176 -1.0043  0.3720  0.1599
   73MOL0     N 9555   8.556   7.538   4.101  0.3936  0.1999 -0.7473
   73MOL0     C 9556   9.770   7.407   3.853  0.1617  0.0775 -0.2380
   73MOL0     C 9557   9.897   7.386   3.823 -0.2069 -0.1984 -0.3316
   73MOL0     C 9558  10.281   7.250   3.593 -0.3128  0.4274 -1.1999
   73MOL0     C 9559  10.330   7.375   3.636  0.3024 -0.2754 -0.4957
   73MOL0     C 9560  10.466   7.410   3.617  0.3543 -0.0672  0.4459
   73MOL0     C 9561  10.557   7.327   3.557  0.2265 -0.3527 -0.2712
   73MOL0     O 9562  10.694   7.350   3.558 -0.7685 -0.0883 -0.2775
   73MOL0     C 9563  10.741   7.486   3.575 -0.0421 -0.1450  0.6645
   73MOL0     C 9564  10.881   7.497   3.509 -0.9335  0.2463  0.3806
   73MOL0     C 9565  10.981   7.428   3.608  0.4123  0.3018  0.1646
   73MOL0     C 9566  11.121   7.413   3.551  0.0146 -0.0850  0.2008
   73MOL0     C 9567  11.184   7.546   3.548 -0.6201  0.3270  0.3223
   73MOL0     C 9568  11.238   7.656   3.550 -0.8408  0.0947 -0.5550
   73MOL0     C 9569  10.505   7.209   3.495 -0.7845 -0.6358  0.6178
   73MOL0     C 9570  10.370   7.170   3.513 -0.1517 -0.8385 -0.5661
   73MOL0     H 9571   9.859   7.140   3.590  1.1007  1.2647 -0.6819
   73MOL0     H 9572   9.620   7.185   3.645  0.1212  0.3680 -0.0096
   73MOL0     H 9573   9.546   7.562   3.823  0.5834 -0.9035  0.8369
   73MOL0     H 9574   9.458   7.484   3.958 -1.3747 -0.6864  0.2094
   73MOL0     H 9575   9.341   7.469   3.685  2.8673 -2.4290  1.4268
   73MOL0     H 9576   9.314   7.615   3.788 -1.4607 -0.4599 -0.0477
   73MOL0     H 9577   9.231   7.466   3.958  1.5352 -1.2080  0.4819
   73MOL0     H 9578   9.276   7.325   3.861 -3.1677 -1.7002 -0.9048
   73MOL0     H 9579   9.065   7.531   3.781 -1.0538 -0.8777  0.2047
   73MOL0     H 9580   9.100   7.363   3.710 -1.2760 -2.9248  1.4130
   73MOL0     H 9581   8.992   7.407   3.995  0.9391 -1.7408  0.0246
   73MOL0     H 9582   9.015   7.255   3.913 -3.6565 -1.6681  1.5301
   73MOL0     H 9583   8.839   7.324   3.747  2.4698 -0.0974  0.2178
   73MOL0     H 9584   8.849   7.489   3.800  1.1700 -0.4568 -1.0302
   73MOL0     H 9585   8.738   7.259   3.974 -3.7152  0.4661  3.7004
   73MOL0     H 9586   8.771   7.436   4.025  0.6772  2.0527 -1.5281
   73MOL0     H 9587   8.578   7.326   3.824 -1.5328 -1.1266  1.0667
   73MOL0     H 9588   8.641   7.499   3.829  0.6761 -1.5781 -0.8298
   73MOL0     H 9589   8.349   7.313   3.969 -0.9578  0.4810  0.2678
   73MOL0     H 9590   8.226   7.401   4.311 -2.2115 -2.4451 -0.1922
   73MOL0     H 9591   8.168   7.345   4.163 -0.6990 -0.5725  2.0616
   73MOL0     H 9592   8.018   7.497   4.186  0.0864 -0.5541  2.0866
   73MOL0     H 9593   8.136   7.595   4.086 -1.3507  1.2504  1.8247
   73MOL0     H 9594   8.072   7.596   4.381  2.1804 -0.4824  0.8628
   73MOL0     H 9595   8.222   7.656   4.311 -0.6245 -0.4528  2.6099
   73MOL0     H 9596   8.041   7.784   4.143  0.7391 -0.6760  0.2369
   73MOL0     H 9597   8.074   7.859   4.297 -2.3621  0.9465 -0.3508
   73MOL0     H 9598   7.668   7.753   4.346  2.2068  2.9827  1.4386
   73MOL0     H 9599   7.482   7.886   4.251 -0.1520  1.5612 -0.6645
   73MOL0     H 9600   7.273   8.268   4.188  0.4251  1.6132 -0.6937
   73MOL0     H 9601   7.076   8.375   4.115  1.3132  0.8591  0.3458
   73MOL0     H 9602   6.957   8.498   3.929  0.1879  0.0862 -2.7624
   73MOL0     H 9603   6.876   8.440   4.068  4.0804  0.1995 -0.7284
   73MOL0     H 9604   6.737   8.480   3.802  2.9035 -0.8583 -0.4685
   73MOL0     H 9605   6.723   8.588   3.938  0.8047  0.6481  0.3652
   73MOL0     H 9606   6.622   8.405   4.083 -0.2791 -0.9331 -0.3988
   73MOL0     H 9607   6.610   8.307   3.934  1.6861  0.3260 -0.9515
   73MOL0     H 9608   6.491   8.565   4.002  0.5248 -2.2317  4.4100
   73MOL0     H 9609   6.463   8.509   3.845 -2.9711 -0.4980  0.6304
   73MOL0     H 9610   6.368   8.365   4.095 -0.9369  3.9436  1.4503
   73MOL0     H 9611   6.355   8.299   3.923  1.8033 -0.5164 -0.2377
   73MOL0     H 9612   6.194   8.468   3.871  0.7846 -0.3842 -1.2278
   73MOL0     H 9613   6.260   8.574   3.999 -1.1538 -0.5544 -1.1016
   73MOL0     H 9614   6.129   8.295   4.071 -1.9982 -0.8247 -0.6931
   73MOL0     H 9615   6.149   8.432   4.178 -0.4485 -0.4079 -0.2917
   73MOL0     H 9616   5.914   8.401   4.122 -0.0906 -1.1167 -2.4169
   73MOL0     H 9617   5.940   8.403   3.961  1.6088 -4.6319 -0.0019
   73MOL0     H 9618   7.019   8.070   3.801  0.0134 -1.2911 -0.4463
   73MOL0     H 9619   7.210   7.967   3.881 -1.8123  0.1308 -3.3655
   73MOL0     H 9620   7.766   8.143   4.076 -1.4839  0.3324  0.5847
   73MOL0     H 9621   7.946   7.991   4.133  0.6755 -2.0135 -0.5000
   73MOL0     H 9622   9.752   7.486   3.925 -1.3214 -2.1526  1.9918
   73MOL0     H 9623   9.987   7.435   3.859 -0.2938  2.0900 -2.9123
   73MOL0     H 9624  10.267   7.454   3.674  1.1195  0.3409 -0.3897
   73MOL0     H 9625  10.502   7.503   3.661 -2.1042  1.6130 -0.8649
   73MOL0     H 9626  10.746   7.513   3.681 -0.2206 -0.8845  0.8655
   73MOL0     H 9627  10.679   7.560   3.522 -1.4592 -2.1033 -0.5391
   73MOL0     H 9628  10.885   7.442   3.415  1.0011 -0.0635  0.5982
   73MOL0     H 9629  10.921   7.598   3.496 -0.5581 -0.0651 -1.0565
   73MOL0     H 9630  10.943   7.329   3.637 -2.1584  1.1194 -0.1402
   73MOL0     H 9631  10.978   7.485   3.702 -1.1007  0.6783 -0.0920
   73MOL0     H 9632  11.185   7.375   3.630  0.1690 -1.0542 -0.3837
   73MOL0     H 9633  11.115   7.357   3.457 -0.0931  0.5022 -0.1498
   73MOL0     H 9634  11.282   7.754   3.552 -1.2909  0.2997  1.4358
   73MOL0     H 9635  10.574   7.158   3.430 -0.9294  1.2417 -1.1089
   73MOL0     H 9636  10.330   7.089   3.453 -0.9880 -0.5090 -0.4635
   74MOL0     O 9637   5.705   7.250   3.770 -0.0633  0.3429 -0.7404
   74MOL0     C 9638   5.728   7.243   3.652 -0.1993 -0.0252 -0.1468
   74MOL0     O 9639   5.642   7.276   3.548  0.3375 -0.0914  0.1303
   74MOL0     C 9640   5.514   7.331   3.572  0.2939 -0.3153 -0.0671
   74MOL0     C 9641   5.452   7.404   3.469  0.0939 -0.8196 -0.6549
   74MOL0     C 9642   5.334   7.477   3.484 -0.5658 -0.2967  0.3106
   74MOL0     C 9643   5.259   7.467   3.603  0.4847  0.0913 -0.7640
   74MOL0     O 9644   5.146   7.545   3.614  0.6300  0.1015  0.2136
   74MOL0     C 9645   5.119   7.615   3.739 -0.0060  0.0937 -0.4296
   74MOL0     C 9646   4.973   7.666   3.737  0.0126  0.0776 -0.2411
   74MOL0     C 9647   4.883   7.544   3.732  0.0981  0.0714  0.9233
   74MOL0     C 9648   4.738   7.591   3.776 -0.5429  0.1882  0.2373
   74MOL0     C 9649   4.617   7.507   3.722 -0.3036 -0.2358  0.2373
   74MOL0     C 9650   4.488   7.549   3.783 -0.0013 -0.3614  0.1339
   74MOL0     C 9651   4.478   7.507   3.932  0.5810  1.1624  0.7007
   74MOL0     C 9652   4.336   7.558   3.988 -0.4559 -0.0207  0.2999
   74MOL0     N 9653   4.293   7.508   4.116 -0.0109 -0.2741 -0.3713
   74MOL0     C 9654   4.365   7.471   4.226 -0.0811 -0.0170 -0.7951
   74MOL0     C 9655   4.299   7.390   4.310  1.2477  0.6905 -0.1416
   74MOL0     C 9656   4.361   7.321   4.431  0.3252 -0.2138  0.7078
   74MOL0     C 9657   4.512   7.340   4.457 -0.1057  0.4836  0.2196
   74MOL0     C 9658   4.558   7.476   4.505  0.4051 -0.0515  0.5919
   74MOL0     C 9659   4.710   7.500   4.506  0.6615 -0.3676  1.1117
   74MOL0     O 9660   4.781   7.384   4.536 -0.0947 -0.3445  0.3286
   74MOL0     C 9661   4.916   7.389   4.538  0.2612  0.0839 -0.5218
   74MOL0     C 9662   4.982   7.267   4.530  1.0000  0.5382 -0.0196
   74MOL0     C 9663   5.125   7.260   4.539  0.2413 -0.3046 -0.2285
   74MOL0     C 9664   5.196   7.372   4.586  0.1865 -1.1542 -0.4945
   74MOL0     C 9665   5.342   7.362   4.592  0.0836  0.3003  0.6775
   74MOL0     O 9666   5.402   7.255   4.537 -0.2178  0.2195  1.1975
   74MOL0     C 9667   5.536   7.230   4.545 -0.3774  0.3444  0.2131
   74MOL0     C 9668   5.632   7.273   4.636  0.5518 -0.2497  0.5841
   74MOL0     C 9669   5.760   7.228   4.644 -0.0264  0.6010  0.3636
   74MOL0     C 9670   5.808   7.147   4.541 -0.2541 -0.6639  0.2616
   74MOL0     O 9671   5.935   7.107   4.533  0.8846 -0.2639 -0.1601
   74MOL0     C 9672   6.044   7.189   4.592  0.3829  0.3917  0.1261
   74MOL0     C 9673   6.172   7.114   4.548  0.0627  0.4365  0.9252
   74MOL0     C 9674   6.275   7.216   4.513 -0.9655 -1.0088  0.1931
   74MOL0     C 9675   6.400   7.165   4.449  0.3861  0.3122 -0.2611
   74MOL0     C 9676   6.512   7.269   4.442 -0.3375 -0.1113 -0.6337
   74MOL0     C 9677   6.648   7.206   4.387  0.2490  0.2130 -0.2925
   74MOL0     C 9678   6.779   7.290   4.403  0.8670 -0.3639  0.2234
   74MOL0     C 9679   6.885   7.263   4.301 -0.1894  0.3316  0.0189
   74MOL0    Cl 9680   7.035   7.345   4.365  0.1302 -0.1942 -0.3717
   74MOL0     C 9681   5.720   7.097   4.451  0.4428 -0.8171 -0.0383
   74MOL0     C 9682   5.581   7.130   4.461  0.2375  0.0175  0.0074
   74MOL0     O 9683   5.401   7.457   4.647  0.6703  0.0709  0.5217
   74MOL0     C 9684   5.120   7.499   4.601 -0.6279  0.6792 -0.2091
   74MOL0     C 9685   4.981   7.506   4.581  0.7893 -0.0654 -0.6132
   74MOL0     N 9686   4.178   7.372   4.246  0.2793 -0.1948  0.4035
   74MOL0     N 9687   4.172   7.442   4.137  0.3077  0.1828  0.4939
   74MOL0     C 9688   5.310   7.385   3.703  0.6100  0.7414  0.4463
   74MOL0     C 9689   5.434   7.320   3.686  0.1057  0.2776 -0.6118
   74MOL0     C 9690   5.861   7.202   3.609 -0.0109  0.6657  0.3259
   74MOL0     C 9691   5.919   7.254   3.496  0.0567 -0.3283  0.2155
   74MOL0     C 9692   6.032   7.192   3.445  0.3828 -0.3377  0.1251
   74MOL0     C 9693   6.097   7.086   3.507 -0.3079  0.2059 -0.1761
   74MOL0     O 9694   6.187   7.005   3.454 -0.3354  0.1214 -0.0875
   74MOL0     C 9695   6.268   7.051   3.340  0.4421  0.1644 -0.3899
   74MOL0     C 9696   6.366   6.940   3.315 -0.3611 -0.5286  0.2484
   74MOL0     C 9697   6.501   6.971   3.249  0.7974  0.2361  0.2462
   74MOL0     C 9698   6.475   6.966   3.097 -0.2161 -1.2194  0.0552
   74MOL0     C 9699   6.473   6.824   3.055  0.4166 -0.3223  0.6516
   74MOL0     C 9700   6.460   6.712   3.013  0.1643 -0.0395 -0.2182
   74MOL0     C 9701   6.048   7.055   3.637 -0.5823  0.8217  0.8138
   74MOL0     C 9702   5.930   7.106   3.682 -0.3342 -0.2418  0.8127
   74MOL0     H 9703   5.509   7.405   3.377  0.5736 -3.1978 -0.4499
   74MOL0     H 9704   5.298   7.539   3.402  1.5077  0.9157  0.2448
   74MOL0     H 9705   5.184   7.701   3.756  0.3309 -0.5196  1.5436
   74MOL0     H 9706   5.121   7.551   3.828  0.2406 -0.8743 -1.1110
   74MOL0     H 9707   4.961   7.720   3.642 -3.0657 -1.2264 -0.7120
   74MOL0     H 9708   4.949   7.724   3.827 -1.8699  1.0026 -1.2861
   74MOL0     H 9709   4.918   7.455   3.786 -1.5684 -2.1146 -1.3570
   74MOL0     H 9710   4.870   7.517   3.627  0.9505  1.2283  0.5005
   74MOL0     H 9711   4.738   7.600   3.885  2.4677  1.6729  0.2336
   74MOL0     H 9712   4.722   7.691   3.733 -2.1314 -0.7365 -1.4556
   74MOL0     H 9713   4.632   7.398   3.716 -1.0298 -0.2665 -3.3971
   74MOL0     H 9714   4.607   7.534   3.617 -1.5518 -1.1577  0.0893
   74MOL0     H 9715   4.414   7.502   3.719  2.7928 -1.9980 -2.1438
   74MOL0     H 9716   4.488   7.658   3.778  2.4021 -0.2229  1.5721
   74MOL0     H 9717   4.492   7.399   3.925  0.5551  0.9623  2.8805
   74MOL0     H 9718   4.557   7.550   3.994  0.7232  3.7092 -1.0853
   74MOL0     H 9719   4.262   7.537   3.911  0.1482  1.0695 -0.6114
   74MOL0     H 9720   4.334   7.667   3.991 -1.8592 -0.0342  0.3163
   74MOL0     H 9721   4.470   7.495   4.241  0.2278 -0.8825 -1.4766
   74MOL0     H 9722   4.347   7.213   4.426 -0.1731 -0.2215  1.9708
   74MOL0     H 9723   4.307   7.359   4.518 -3.2122 -1.7706 -0.6257
   74MOL0     H 9724   4.577   7.314   4.372  1.4789  1.2256  1.1568
   74MOL0     H 9725   4.538   7.271   4.538 -0.4730  1.5205  1.2433
   74MOL0     H 9726   4.514   7.555   4.442 -0.1460 -1.2853 -0.6192
   74MOL0     H 9727   4.514   7.482   4.604 -0.9418 -1.3534  0.1059
   74MOL0     H 9728   4.728   7.563   4.594  1.7484  1.1028 -0.1050
   74MOL0     H 9729   4.746   7.551   4.416 -3.1263  0.6057 -0.0230
   74MOL0     H 9730   4.925   7.180   4.500 -0.2634  0.9919  0.9653
   74MOL0     H 9731   5.185   7.174   4.512 -1.0124 -1.2744  0.0151
   74MOL0     H 9732   5.583   7.343   4.702 -1.4954  1.1906 -2.2348
   74MOL0     H 9733   5.809   7.263   4.734  0.2225  0.7488  0.1729
   74MOL0     H 9734   6.041   7.173   4.700  1.0519 -3.1638 -0.2538
   74MOL0     H 9735   6.050   7.290   4.552  0.7811  0.3465  0.0702
   74MOL0     H 9736   6.154   7.057   4.456  1.3167  0.5207  0.6032
   74MOL0     H 9737   6.217   7.051   4.625 -0.1340 -0.5988  0.2214
   74MOL0     H 9738   6.300   7.273   4.603  0.1738 -0.2486 -0.5867
   74MOL0     H 9739   6.232   7.288   4.441 -1.9529  0.4726  2.1596
   74MOL0     H 9740   6.430   7.075   4.503  0.3430 -0.9281 -2.2167
   74MOL0     H 9741   6.382   7.143   4.344  2.2752 -2.9928 -0.0457
   74MOL0     H 9742   6.532   7.290   4.548 -1.5591 -0.4236 -0.3166
   74MOL0     H 9743   6.483   7.365   4.399 -2.2530 -0.2260  0.2770
   74MOL0     H 9744   6.639   7.176   4.282  0.2213  2.2019 -0.9007
   74MOL0     H 9745   6.663   7.116   4.447  1.6548  1.4600  1.3173
   74MOL0     H 9746   6.751   7.396   4.397  0.3769 -0.5184 -0.2899
   74MOL0     H 9747   6.824   7.270   4.500 -1.4141 -0.6471  1.2879
   74MOL0     H 9748   6.854   7.311   4.208 -2.3657 -0.1301  0.4581
   74MOL0     H 9749   6.902   7.156   4.286 -2.0546  0.1770 -1.2589
   74MOL0     H 9750   5.759   7.032   4.373  1.1564 -2.2404  1.4476
   74MOL0     H 9751   5.516   7.096   4.381 -0.2750 -0.8956  0.7786
   74MOL0     H 9752   5.177   7.590   4.620  0.0016  0.2957 -0.2304
   74MOL0     H 9753   4.920   7.594   4.598  1.1044 -0.0941  0.8420
   74MOL0     H 9754   5.264   7.381   3.802 -2.0673  1.5560 -0.6651
   74MOL0     H 9755   5.484   7.257   3.759  0.5542 -2.9166 -3.4317
   74MOL0     H 9756   5.870   7.336   3.444  0.6867  0.1005  0.2832
   74MOL0     H 9757   6.049   7.218   3.341 -3.4727  1.6967 -0.2074
   74MOL0     H 9758   6.325   7.144   3.350 -3.1312  2.8249 -2.3745
   74MOL0     H 9759   6.203   7.059   3.253  0.3417 -1.1592 -0.4604
   74MOL0     H 9760   6.391   6.903   3.415  2.3452 -0.3345 -0.2734
   74MOL0     H 9761   6.317   6.863   3.255  1.4337 -1.7463  0.2775
   74MOL0     H 9762   6.566   6.889   3.281  1.8217  1.3235  1.0343
   74MOL0     H 9763   6.546   7.064   3.284  1.4604  0.3390 -0.8173
   74MOL0     H 9764   6.390   7.029   3.070 -0.1460 -2.4119 -3.3353
   74MOL0     H 9765   6.552   7.025   3.047 -0.0845 -0.7262  0.8142
   74MOL0     H 9766   6.455   6.619   2.960 -2.3915  0.2846 -0.6491
   74MOL0     H 9767   6.071   6.967   3.697 -0.7194  1.5735  2.0172
   74MOL0     H 9768   5.881   7.065   3.770 -0.1185  3.0894  2.6619
   75MOL0     O 9769   7.967   7.728   6.479  0.0222 -0.6369  0.6988
   75MOL0     C 9770   8.041   7.677   6.560 -0.3883 -0.4852 -0.7080
   75MOL0     O 9771   8.002   7.636   6.686 -0.1757  0.8239  1.1333
   75MOL0     C 9772   7.866   7.639   6.705 -0.0161 -0.3510  0.0787
   75MOL0     C 9773   7.807   7.764   6.733 -0.4190  0.1495  0.4324
   75MOL0     C 9774   7.672   7.770   6.749  0.8834 -0.1648 -0.4057
   75MOL0     C 9775   7.587   7.660   6.749 -0.1948  0.0754  0.3794
   75MOL0     O 9776   7.450   7.671   6.745 -0.1175 -0.1659 -0.4078
   75MOL0     C 9777   7.376   7.560   6.797 -0.0924  0.7303  0.0291
   75MOL0     C 9778   7.234   7.599   6.812 -0.2044 -0.7000 -0.2840
   75MOL0     C 9779   7.207   7.670   6.939 -0.2002  0.5119 -0.2656
   75MOL0     C 9780   7.260   7.815   6.968 -0.3105  0.9428  0.6256
   75MOL0     C 9781   7.188   7.872   7.086  0.2435 -1.3128 -0.6147
   75MOL0     C 9782   7.225   8.022   7.108 -0.4421 -0.2363 -0.1418
   75MOL0     C 9783   7.139   8.082   7.217 -0.2252  0.3312 -0.0501
   75MOL0     C 9784   7.182   8.223   7.267 -1.5780 -0.0627 -0.3553
   75MOL0     N 9785   7.317   8.238   7.324 -0.7625 -0.0746 -0.5988
   75MOL0     C 9786   7.382   8.148   7.407  0.6061 -0.3068 -0.5860
   75MOL0     C 9787   7.498   8.211   7.433  0.3163  0.5042 -0.2779
   75MOL0     C 9788   7.597   8.158   7.528  0.5250 -0.2026 -0.1972
   75MOL0     C 9789   7.573   8.251   7.648  0.1732 -0.6472  0.7242
   75MOL0     C 9790   7.678   8.217   7.754  0.0539 -0.5625  0.1164
   75MOL0     C 9791   7.670   8.299   7.882  0.7181  0.3138 -0.9142
   75MOL0     O 9792   7.698   8.438   7.853 -0.8434  0.1247 -0.0454
   75MOL0     C 9793   7.830   8.489   7.838 -0.9339 -0.5075 -0.4089
   75MOL0     C 9794   7.942   8.412   7.836 -0.5669  0.7390  0.3976
   75MOL0     C 9795   8.071   8.470   7.834 -0.0296 -0.1489  0.1226
   75MOL0     C 9796   8.086   8.607   7.810  0.2861  0.2424  0.2655
   75MOL0     C 9797   8.222   8.659   7.782  0.6644 -0.1673  0.5789
   75MOL0     O 9798   8.319   8.562   7.762 -0.5728  0.1911  0.4869
   75MOL0     C 9799   8.444   8.584   7.719 -0.1918 -0.4860 -0.0997
   75MOL0     C 9800   8.527   8.700   7.741 -0.1781 -0.6486 -0.3101
   75MOL0     C 9801   8.656   8.702   7.687  0.4758  0.4062 -0.1517
   75MOL0     C 9802   8.719   8.591   7.636  0.4479  0.2897  0.5705
   75MOL0     O 9803   8.845   8.602   7.577  0.0714 -0.0009 -0.4220
   75MOL0     C 9804   8.940   8.498   7.619  0.3439 -0.3441  0.4138
   75MOL0     C 9805   9.081   8.533   7.567  0.0174 -0.1522 -0.1833
   75MOL0     C 9806   9.162   8.404   7.585  0.6816 -0.1915 -0.0098
   75MOL0     C 9807   9.295   8.401   7.511 -0.3286  1.3094 -0.0674
   75MOL0     C 9808   9.391   8.308   7.595  0.1622 -0.0033 -0.3623
   75MOL0     C 9809   9.527   8.332   7.535 -0.7201 -0.1537 -0.2358
   75MOL0     C 9810   9.627   8.221   7.566  0.0841 -0.1401  0.9263
   75MOL0     C 9811   9.765   8.240   7.491  0.6073  0.5591 -0.5781
   75MOL0    Cl 9812   9.825   8.407   7.485  0.2502 -0.2713  0.2275
   75MOL0     C 9813   8.642   8.474   7.615 -0.6633  0.2469 -0.0241
   75MOL0     C 9814   8.508   8.471   7.660  0.9390 -0.1832  0.2203
   75MOL0     O 9815   8.243   8.781   7.780 -0.8596 -0.6689 -0.7338
   75MOL0     C 9816   7.974   8.686   7.802  0.9498 -0.4494  0.1160
   75MOL0     C 9817   7.839   8.631   7.828 -0.3623 -0.4474 -0.1574
   75MOL0     N 9818   7.506   8.328   7.356 -0.2721 -0.8427 -0.3517
   75MOL0     N 9819   7.396   8.345   7.292 -0.5339 -0.0031 -0.2554
   75MOL0     C 9820   7.648   7.535   6.736 -0.3470  0.1149 -1.0465
   75MOL0     C 9821   7.790   7.521   6.709  0.4094  0.2426 -0.2941
   75MOL0     C 9822   8.188   7.674   6.524 -0.2591  0.0551 -0.4290
   75MOL0     C 9823   8.282   7.627   6.621 -0.0125  0.1736  0.4551
   75MOL0     C 9824   8.415   7.625   6.592 -0.2819 -0.9846  0.3798
   75MOL0     C 9825   8.459   7.682   6.474  0.1111 -0.7163 -0.3992
   75MOL0     O 9826   8.589   7.715   6.450  0.3034  0.3500 -0.6056
   75MOL0     C 9827   8.634   7.806   6.350 -0.7086  0.8778 -0.3993
   75MOL0     C 9828   8.788   7.816   6.381  0.0623 -1.3761  0.3963
   75MOL0     C 9829   8.827   7.851   6.520 -0.2185  1.7494  0.1690
   75MOL0     C 9830   8.960   7.927   6.526  0.1656 -0.1556  0.2763
   75MOL0     C 9831   9.080   7.845   6.492 -0.4207 -0.2608  0.4331
   75MOL0     C 9832   9.177   7.771   6.492  0.4510 -0.7527  0.0518
   75MOL0     C 9833   8.366   7.731   6.378  0.0190  0.6186  0.3958
   75MOL0     C 9834   8.231   7.729   6.400  0.3456 -0.1224 -0.6843
   75MOL0     H 9835   7.868   7.853   6.723  2.5222 -1.1325  4.2813
   75MOL0     H 9836   7.628   7.865   6.779 -1.4714 -0.9384 -1.1263
   75MOL0     H 9837   7.421   7.527   6.892  1.1488 -0.3595 -0.8862
   75MOL0     H 9838   7.387   7.472   6.732  0.4990 -0.7616  2.0214
   75MOL0     H 9839   7.173   7.508   6.811 -2.2762  0.6239 -0.7716
   75MOL0     H 9840   7.202   7.672   6.736  2.8859  1.8170  0.6091
   75MOL0     H 9841   7.242   7.609   7.023  0.7450  3.7812  1.9497
   75MOL0     H 9842   7.099   7.666   6.956 -0.3358  2.9204 -0.1166
   75MOL0     H 9843   7.369   7.811   6.980 -0.0722 -1.0818 -1.3723
   75MOL0     H 9844   7.242   7.880   6.882 -1.5884 -1.8168 -1.3391
   75MOL0     H 9845   7.214   7.808   7.172  1.5408  1.2521  1.0370
   75MOL0     H 9846   7.080   7.879   7.078  0.2809  0.9526  0.0860
   75MOL0     H 9847   7.202   8.079   7.017 -0.5231 -2.6213 -1.6882
   75MOL0     H 9848   7.332   8.029   7.130 -1.2249  0.7325  4.6050
   75MOL0     H 9849   7.035   8.086   7.184  0.6274  1.7820 -2.8728
   75MOL0     H 9850   7.145   8.011   7.300  3.4668 -0.5702 -0.9038
   75MOL0     H 9851   7.120   8.269   7.345 -0.7706 -0.5269  0.5861
   75MOL0     H 9852   7.180   8.275   7.171 -0.0731 -3.6878 -2.5381
   75MOL0     H 9853   7.358   8.048   7.442  1.6107 -1.4370 -2.9257
   75MOL0     H 9854   7.698   8.162   7.485 -0.4994 -1.4449 -2.9975
   75MOL0     H 9855   7.579   8.057   7.566  1.5042 -0.0953  0.5926
   75MOL0     H 9856   7.474   8.233   7.689 -1.0336 -0.1278 -1.7562
   75MOL0     H 9857   7.576   8.357   7.623 -0.7565 -0.8320 -0.2257
   75MOL0     H 9858   7.675   8.109   7.770 -0.0299 -1.0053 -2.4743
   75MOL0     H 9859   7.779   8.234   7.714 -0.1721 -0.2746 -0.3371
   75MOL0     H 9860   7.736   8.261   7.961  1.3617  0.5762 -1.3211
   75MOL0     H 9861   7.566   8.292   7.917  1.2303 -0.6090  0.5263
   75MOL0     H 9862   7.943   8.303   7.839  1.2832  0.6447 -1.5262
   75MOL0     H 9863   8.147   8.395   7.857  1.0287  0.8349 -0.0995
   75MOL0     H 9864   8.470   8.786   7.775 -0.2814 -1.1350  0.7878
   75MOL0     H 9865   8.716   8.792   7.683  0.7449  0.3357  1.6271
   75MOL0     H 9866   8.914   8.405   7.568  1.5470 -0.2166 -0.4895
   75MOL0     H 9867   8.947   8.469   7.724  1.6588 -0.6947  0.2516
   75MOL0     H 9868   9.132   8.613   7.621  0.5960 -0.1857 -0.6683
   75MOL0     H 9869   9.069   8.548   7.459  1.6022 -1.8712 -0.6499
   75MOL0     H 9870   9.102   8.316   7.561 -1.6896  1.6369 -1.3098
   75MOL0     H 9871   9.176   8.387   7.692  0.4541 -0.3127  0.0011
   75MOL0     H 9872   9.282   8.357   7.411  2.1252  2.6706 -1.0872
   75MOL0     H 9873   9.337   8.500   7.490  0.8063  0.1514 -4.4361
   75MOL0     H 9874   9.359   8.207   7.567 -0.2888 -0.6042  2.0900
   75MOL0     H 9875   9.394   8.336   7.701  0.7062 -0.2347 -0.3123
   75MOL0     H 9876   9.561   8.422   7.585  0.6121 -2.0821  2.6080
   75MOL0     H 9877   9.518   8.355   7.428 -0.5713  2.4735  0.2505
   75MOL0     H 9878   9.650   8.228   7.673 -0.9542 -1.5829  1.2732
   75MOL0     H 9879   9.585   8.121   7.549  2.9005 -1.2443 -0.2229
   75MOL0     H 9880   9.745   8.201   7.391 -0.7314  1.0724 -0.5283
   75MOL0     H 9881   9.842   8.177   7.535  1.3620  0.3885 -2.0987
   75MOL0     H 9882   8.681   8.387   7.563 -0.6083 -0.3557  1.0055
   75MOL0     H 9883   8.447   8.381   7.650 -1.6504  1.3538  1.2358
   75MOL0     H 9884   7.979   8.793   7.787  0.2205 -0.5062 -0.6125
   75MOL0     H 9885   7.748   8.689   7.836 -0.0053 -0.0716  1.6083
   75MOL0     H 9886   7.605   7.436   6.744  1.4388 -0.6547 -0.3358
   75MOL0     H 9887   7.825   7.419   6.705 -1.8788 -0.6884  0.9892
   75MOL0     H 9888   8.249   7.577   6.711  0.8952 -1.6087 -0.1518
   75MOL0     H 9889   8.496   7.591   6.655  1.0261  1.4754  0.1557
   75MOL0     H 9890   8.596   7.908   6.352  1.8207  1.8899  0.7824
   75MOL0     H 9891   8.618   7.761   6.252 -1.2204  2.2602 -0.9690
   75MOL0     H 9892   8.835   7.723   6.350 -1.7820 -1.7912 -1.3800
   75MOL0     H 9893   8.834   7.886   6.311  1.8453 -2.6327  0.2432
   75MOL0     H 9894   8.837   7.767   6.588 -0.4730  0.4131 -1.3695
   75MOL0     H 9895   8.742   7.910   6.556 -2.9447 -0.4690 -2.0960
   75MOL0     H 9896   8.953   8.013   6.458 -1.1364  1.2766  2.1173
   75MOL0     H 9897   8.969   7.976   6.623 -0.1071 -1.3912  0.9324
   75MOL0     H 9898   9.255   7.700   6.475 -0.4627 -1.8343  0.2209
   75MOL0     H 9899   8.403   7.771   6.284 -0.9150  1.2706  0.2910
   75MOL0     H 9900   8.160   7.756   6.322  0.7457  1.6924 -0.4667
   76MOL0     O 9901   8.711  10.331   4.481 -0.2069  0.1259 -0.3225
   76MOL0     C 9902   8.759  10.441   4.451  0.6266  0.5480  0.1573
   76MOL0     O 9903   8.674  10.547   4.415  0.1421  1.0766 -0.2119
   76MOL0     C 9904   8.535  10.534   4.439 -0.1298  0.0115  0.7653
   76MOL0     C 9905   8.480  10.494   4.563  0.1564 -0.0232 -0.2689
   76MOL0     C 9906   8.345  10.484   4.583  0.6882 -0.8890 -0.2236
   76MOL0     C 9907   8.263  10.530   4.476 -0.6580 -0.1707 -1.0406
   76MOL0     O 9908   8.130  10.540   4.493 -0.3101  0.1333  0.5486
   76MOL0     C 9909   8.057  10.459   4.585  0.1385 -0.5692 -0.2535
   76MOL0     C 9910   7.908  10.463   4.571 -0.5917 -0.1707 -0.9359
   76MOL0     C 9911   7.854  10.606   4.567 -0.3474  0.0095  0.0513
   76MOL0     C 9912   7.710  10.589   4.526 -0.1738  0.7471  0.1794
   76MOL0     C 9913   7.611  10.710   4.510 -1.0262 -0.0653 -0.0264
   76MOL0     C 9914   7.473  10.673   4.463 -0.7355 -0.3899 -0.4322
   76MOL0     C 9915   7.364  10.775   4.499  0.6986  0.0321  0.5803
   76MOL0     C 9916   7.226  10.728   4.451  0.0731 -0.8180  0.0116
   76MOL0     N 9917   7.136  10.842   4.436 -0.1719  0.1357  0.1886
   76MOL0     C 9918   7.049  10.888   4.534 -1.0689 -0.1151 -0.3480
   76MOL0     C 9919   6.983  10.994   4.477 -0.8882 -0.0602 -0.2339
   76MOL0     C 9920   6.881  11.082   4.549  0.9295 -0.0149  0.3874
   76MOL0     C 9921   6.742  11.023   4.536  1.0596  0.3359 -0.4334
   76MOL0     C 9922   6.647  11.108   4.633 -0.0952  0.3555 -0.6002
   76MOL0     C 9923   6.513  11.035   4.626  0.2308 -0.2405 -0.7750
   76MOL0     O 9924   6.434  11.061   4.508  0.3084  0.5734  0.3200
   76MOL0     C 9925   6.314  10.999   4.490  0.9579 -0.1934 -0.7148
   76MOL0     C 9926   6.268  10.984   4.366 -0.1106  0.5123  0.1721
   76MOL0     C 9927   6.146  10.919   4.341  0.0804 -0.4912 -0.2968
   76MOL0     C 9928   6.068  10.884   4.452 -0.2689 -0.0456  0.4014
   76MOL0     C 9929   5.927  10.842   4.430 -0.0427 -0.5305 -0.2895
   76MOL0     O 9930   5.883  10.803   4.305 -0.3767  0.1562 -0.4360
   76MOL0     C 9931   5.762  10.763   4.288 -0.1616  0.0028  0.8145
   76MOL0     C 9932   5.730  10.638   4.314  0.5780  0.7006  0.6685
   76MOL0     C 9933   5.594  10.608   4.303  0.9031  0.2834  0.1313
   76MOL0     C 9934   5.496  10.695   4.251 -0.1788 -0.1563  0.8559
   76MOL0     O 9935   5.373  10.643   4.242  0.3338  0.7834  0.0896
   76MOL0     C 9936   5.272  10.687   4.337  0.0570 -0.6850 -0.3484
   76MOL0     C 9937   5.216  10.827   4.301 -0.2571 -0.2298 -0.3569
   76MOL0     C 9938   5.128  10.882   4.413 -0.2009  0.5760 -0.0872
   76MOL0     C 9939   5.001  10.789   4.439  0.6702  0.7389  0.2810
   76MOL0     C 9940   4.924  10.774   4.308 -0.2602 -0.5584 -0.5918
   76MOL0     C 9941   4.779  10.738   4.331 -0.1944  0.4081  0.2665
   76MOL0     C 9942   4.763  10.596   4.376  0.0702 -0.3720 -0.5009
   76MOL0     C 9943   4.637  10.528   4.335  0.0923  0.3396 -0.9998
   76MOL0    Cl 9944   4.494  10.638   4.339  0.1001  0.7325  0.0029
   76MOL0     C 9945   5.541  10.819   4.201  0.6556  0.0391 -0.5137
   76MOL0     C 9946   5.675  10.854   4.222  0.5004 -0.0128  0.5891
   76MOL0     O 9947   5.852  10.884   4.520  0.2711 -0.0483  0.5632
   76MOL0     C 9948   6.119  10.886   4.580  0.3171 -1.0757  0.6008
   76MOL0     C 9949   6.243  10.943   4.598  0.1447 -0.0484 -0.3425
   76MOL0     N 9950   7.025  11.019   4.347 -0.5966  0.7446  0.0012
   76MOL0     N 9951   7.119  10.929   4.325 -0.7701 -0.2786 -0.9649
   76MOL0     C 9952   8.316  10.573   4.357  0.0923  0.2780  0.2549
   76MOL0     C 9953   8.456  10.571   4.331  1.1902 -0.1036  0.0906
   76MOL0     C 9954   8.909  10.453   4.434 -0.5971 -0.6955 -0.1406
   76MOL0     C 9955   8.996  10.344   4.458  0.1826  0.0491  0.0068
   76MOL0     C 9956   9.134  10.354   4.441  0.4819  0.6922 -0.2875
   76MOL0     C 9957   9.193  10.461   4.384  0.1313  0.2030  0.6158
   76MOL0     O 9958   9.340  10.453   4.377 -0.3478 -0.3500  0.3747
   76MOL0     C 9959   9.402  10.574   4.329 -0.2749  0.0324 -0.2700
   76MOL0     C 9960   9.556  10.555   4.312  0.2449  1.0348  0.6962
   76MOL0     C 9961   9.596  10.421   4.250 -0.4242  0.5187  0.0603
   76MOL0     C 9962   9.754  10.412   4.242  0.6087 -0.2416 -0.7760
   76MOL0     C 9963   9.819  10.502   4.142  0.4246  0.6571  0.1097
   76MOL0     C 9964   9.882  10.555   4.057 -0.3736 -0.5104 -0.7410
   76MOL0     C 9965   9.114  10.571   4.355  0.0963  0.0249 -0.0104
   76MOL0     C 9966   8.973  10.568   4.376 -0.4437 -0.5942  0.7876
   76MOL0     H 9967   8.546  10.469   4.645  1.9888  1.2509 -1.3085
   76MOL0     H 9968   8.298  10.454   4.676 -0.4980 -3.0503 -1.4361
   76MOL0     H 9969   8.074  10.495   4.687 -0.0033  0.1051 -0.4656
   76MOL0     H 9970   8.091  10.355   4.586 -2.2064 -1.5334  3.5682
   76MOL0     H 9971   7.861  10.398   4.645 -0.4093 -1.2716 -1.7488
   76MOL0     H 9972   7.889  10.409   4.477  2.3933  0.5375 -2.0599
   76MOL0     H 9973   7.906  10.666   4.492  1.0171  0.7785  1.5773
   76MOL0     H 9974   7.872  10.656   4.662 -1.4451  0.3620  0.0893
   76MOL0     H 9975   7.707  10.540   4.428  0.8094  1.1401 -0.0598
   76MOL0     H 9976   7.659  10.518   4.592 -0.6509 -0.4215 -1.3844
   76MOL0     H 9977   7.652  10.781   4.437 -3.6209  2.0771  0.4288
   76MOL0     H 9978   7.599  10.762   4.606 -2.2180 -0.0023 -0.1947
   76MOL0     H 9979   7.445  10.573   4.499 -2.0662 -1.0288 -3.0169
   76MOL0     H 9980   7.476  10.646   4.357  0.9697 -0.4131 -0.3977
   76MOL0     H 9981   7.360  10.803   4.605  0.3950 -0.3269  0.6664
   76MOL0     H 9982   7.391  10.869   4.451  1.0848 -0.6929 -0.6623
   76MOL0     H 9983   7.170  10.674   4.527 -0.0000 -0.6116  0.1048
   76MOL0     H 9984   7.237  10.673   4.357 -0.2994  0.1242 -0.5984
   76MOL0     H 9985   7.040  10.852   4.636 -3.4335  3.1767  0.7995
   76MOL0     H 9986   6.883  11.189   4.529 -1.3061 -0.1975 -1.1773
   76MOL0     H 9987   6.902  11.083   4.656  1.1756  2.8369  0.3745
   76MOL0     H 9988   6.749  10.919   4.570 -0.0971  0.8456  1.5363
   76MOL0     H 9989   6.713  11.036   4.432 -0.9627 -0.5506 -0.0220
   76MOL0     H 9990   6.680  11.102   4.737  0.7671 -1.1711 -0.9319
   76MOL0     H 9991   6.627  11.207   4.592 -1.3217  0.2713 -0.2564
   76MOL0     H 9992   6.452  11.081   4.704  0.9189 -1.4388  0.5209
   76MOL0     H 9993   6.527  10.929   4.649  0.8414  0.3032  1.5888
   76MOL0     H 9994   6.324  11.027   4.284 -0.8058  0.0163 -0.5747
   76MOL0     H 9995   6.109  10.898   4.241  1.1500 -1.1561 -0.5610
   76MOL0     H 9996   5.805  10.574   4.359  0.1805  0.2353  0.6742
   76MOL0     H 9997   5.569  10.506   4.329  0.7055  0.0644 -0.8788
   76MOL0     H 9998   5.312  10.688   4.438 -1.0983  2.6758  0.2181
   76MOL0     H 9999   5.188  10.617   4.335 -0.1227 -0.4895  0.1840
   76MOL0     H10000   5.159  10.808   4.210  1.2373  0.3145 -1.4457
   76MOL0     H10001   5.297  10.897   4.278  0.3548 -0.4766  0.9280
   76MOL0     H10002   5.102  10.986   4.395  2.0980  1.2619  0.2395
   76MOL0     H10003   5.181  10.882   4.509  0.0225  3.8771 -0.1044
   76MOL0     H10004   5.036  10.691   4.472  0.2234  0.5074  0.0730
   76MOL0     H10005   4.939  10.838   4.515  1.8671  3.0223 -0.1156
   76MOL0     H10006   4.974  10.692   4.256  0.7095 -1.0786  1.0711
   76MOL0     H10007   4.927  10.866   4.248 -0.9606  2.0208  2.9818
   76MOL0     H10008   4.737  10.744   4.230  2.2631 -1.7077 -1.0180
   76MOL0     H10009   4.727  10.808   4.397  1.1910 -0.5492  2.4885
   76MOL0     H10010   4.849  10.541   4.337 -0.2424 -3.0205  2.1828
   76MOL0     H10011   4.772  10.599   4.485  1.5480 -1.1674 -0.5790
   76MOL0     H10012   4.615  10.450   4.408 -2.9394  0.6642 -1.4226
   76MOL0     H10013   4.650  10.494   4.232 -0.7503  0.1243 -1.0395
   76MOL0     H10014   5.476  10.893   4.154  2.0371  1.6907  0.0575
   76MOL0     H10015   5.699  10.954   4.188  1.5672  0.5806  2.9048
   76MOL0     H10016   6.059  10.843   4.659  1.2281  0.2723  2.0980
   76MOL0     H10017   6.285  10.933   4.697 -1.2277  1.0194  0.3789
   76MOL0     H10018   8.249  10.600   4.276 -1.9007 -3.1604  0.5916
   76MOL0     H10019   8.494  10.609   4.237  0.5685 -1.6854 -0.8357
   76MOL0     H10020   8.948  10.250   4.484 -1.8234  0.2944 -2.4614
   76MOL0     H10021   9.191  10.266   4.471 -1.4865 -0.4758  0.2119
   76MOL0     H10022   9.375  10.659   4.393  0.8890 -0.1231  0.4610
   76MOL0     H10023   9.365  10.595   4.228  3.5084  1.3232 -1.5696
   76MOL0     H10024   9.596  10.629   4.242  0.1866 -0.3770 -0.8844
   76MOL0     H10025   9.598  10.572   4.411 -1.5339  2.5786  1.2614
   76MOL0     H10026   9.562  10.414   4.146 -0.0317 -2.0171  0.0469
   76MOL0     H10027   9.564  10.335   4.310  2.1177  0.7970  1.9758
   76MOL0     H10028   9.800  10.423   4.341 -3.0188 -1.3092  1.2167
   76MOL0     H10029   9.783  10.315   4.200  1.9752  0.3117 -1.1527
   76MOL0     H10030   9.938  10.616   3.989  0.8644 -0.2525  0.4733
   76MOL0     H10031   9.150  10.658   4.302 -1.4234  0.3427 -0.5730
   76MOL0     H10032   8.911  10.646   4.334 -0.9647 -1.0570  0.6847
   77MOL0     O10033   0.022   3.363   7.238 -0.6541 -0.3345 -0.0620
   77MOL0     C10034   0.087   3.440   7.167 -0.9618  0.1313 -0.5793
   77MOL0     O10035   0.074   3.581   7.157  0.4229  0.4051  0.2162
   77MOL0     C10036  -0.027   3.651   7.218  0.0576 -1.0889 -0.0963
   77MOL0     C10037  -0.047   3.790   7.176 -0.2004  1.0300  0.0009
   77MOL0     C10038  -0.148   3.864   7.235  0.4263 -0.4055  0.6221
   77MOL0     C10039  -0.229   3.814   7.331  1.4962  0.1782 -0.0410
   77MOL0     O10040  -0.332   3.894   7.380 -0.1684 -0.1402 -0.1774
   77MOL0     C10041  -0.473   3.854   7.390  0.4498  0.6738  1.0153
   77MOL0     C10042  -0.530   3.806   7.256 -0.1639 -0.2020  0.5160
   77MOL0     C10043  -0.684   3.784   7.251 -0.3718  0.7847 -0.2373
   77MOL0     C10044  -0.749   3.736   7.120  0.5827 -1.1744  0.2476
   77MOL0     C10045  -0.878   3.663   7.131  0.1311 -0.5719  0.0002
   77MOL0     C10046  -0.994   3.751   7.163 -0.2923  1.0382 -0.2763
   77MOL0     C10047  -1.120   3.691   7.132 -0.5903 -1.1398  0.8003
   77MOL0     C10048  -1.236   3.790   7.158 -0.4632  0.1053 -0.3120
   77MOL0     N10049  -1.361   3.723   7.126  0.2595  0.7305 -0.1228
   77MOL0     C10050  -1.442   3.655   7.219  0.4145  0.1413  0.5890
   77MOL0     C10051  -1.532   3.601   7.140  0.0619 -0.0440  0.9229
   77MOL0     C10052  -1.638   3.511   7.177  0.3781 -0.1760 -0.4741
   77MOL0     C10053  -1.771   3.543   7.114  0.0453  0.4132 -0.4440
   77MOL0     C10054  -1.863   3.441   7.177  1.0293 -0.0307  0.8362
   77MOL0     C10055  -2.001   3.515   7.168  0.5660  0.1682 -0.3953
   77MOL0     O10056  -2.094   3.435   7.241  0.0430  0.2450  0.7747
   77MOL0     C10057  -2.230   3.472   7.243  0.3969  0.3589 -0.4520
   77MOL0     C10058  -2.317   3.372   7.282  0.5061 -0.0015 -0.7715
   77MOL0     C10059  -2.454   3.390   7.286 -0.0638  0.2164 -0.5843
   77MOL0     C10060  -2.512   3.517   7.253 -0.2983 -0.1995  0.2296
   77MOL0     C10061  -2.659   3.548   7.259 -0.3309 -0.3690 -0.0617
   77MOL0     O10062  -2.688   3.680   7.268 -0.5789  0.1957  0.1657
   77MOL0     C10063  -2.817   3.708   7.289  0.2536 -0.0221 -0.0109
   77MOL0     C10064  -2.907   3.749   7.189 -0.6552 -0.2481 -0.0783
   77MOL0     C10065  -3.040   3.788   7.233  0.0350  0.0779  0.5334
   77MOL0     C10066  -3.066   3.808   7.369  0.1112  0.3592 -0.2010
   77MOL0     O10067  -3.196   3.839   7.416 -0.2811  0.0300 -0.2543
   77MOL0     C10068  -3.266   3.934   7.347  0.1679  0.2730 -0.1159
   77MOL0     C10069  -3.388   3.970   7.432  0.4104  0.4382  0.7215
   77MOL0     C10070  -3.358   4.092   7.527  0.4924 -0.2945 -0.6109
   77MOL0     C10071  -3.491   4.151   7.582 -0.7800  0.7572  0.2583
   77MOL0     C10072  -3.569   4.050   7.653  0.8501  0.4802  0.6148
   77MOL0     C10073  -3.699   4.108   7.728 -0.7079 -0.8871 -0.2695
   77MOL0     C10074  -3.795   3.983   7.766  0.1939  0.1523 -0.2560
   77MOL0     C10075  -3.732   3.871   7.846 -0.3588  0.4067 -0.1725
   77MOL0    Cl10076  -3.644   3.935   7.989 -0.3085 -0.1238 -0.1471
   77MOL0     C10077  -2.970   3.777   7.470  0.0098 -0.4050  0.8140
   77MOL0     C10078  -2.849   3.727   7.422 -0.0642 -0.0701 -0.2788
   77MOL0     O10079  -2.737   3.451   7.251  0.6382 -0.2817 -0.2620
   77MOL0     C10080  -2.421   3.614   7.200  0.8311 -0.3567  0.1920
   77MOL0     C10081  -2.281   3.593   7.200  0.0702  0.3710  0.3322
   77MOL0     N10082  -1.504   3.631   7.007 -0.1230 -0.1546 -0.4109
   77MOL0     N10083  -1.402   3.705   6.999  0.4815 -0.4504 -0.8420
   77MOL0     C10084  -0.218   3.683   7.382 -0.1690  0.0493 -0.2771
   77MOL0     C10085  -0.113   3.607   7.322  0.4590  0.3559  0.1239
   77MOL0     C10086   0.202   3.380   7.090 -0.1752  0.2326 -0.3176
   77MOL0     C10087   0.219   3.246   7.076 -0.0000  0.0996 -0.1537
   77MOL0     C10088   0.331   3.192   7.012  0.1341 -0.6330 -0.5691
   77MOL0     C10089   0.445   3.282   6.997 -0.6150 -0.6417 -0.0497
   77MOL0     O10090   0.562   3.227   6.951  0.0188 -0.1624  0.2631
   77MOL0     C10091   0.677   3.303   6.916  0.1951 -0.1252 -0.2974
   77MOL0     C10092   0.788   3.211   6.881 -0.2846 -0.6147  0.9888
   77MOL0     C10093   0.931   3.274   6.859  0.5402 -0.4242 -0.3179
   77MOL0     C10094   1.019   3.269   6.980  0.3147  0.4736 -0.3676
   77MOL0     C10095   1.148   3.341   6.967  0.1519 -0.2885 -0.5028
   77MOL0     C10096   1.255   3.401   6.958  0.1467  0.4882  0.3330
   77MOL0     C10097   0.437   3.420   7.016  0.2206  0.0504  0.6117
   77MOL0     C10098   0.308   3.466   7.064 -0.9444 -0.1591  0.0832
   77MOL0     H10099   0.020   3.820   7.096 -1.4959  1.3152 -1.0112
   77MOL0     H10100  -0.168   3.966   7.202 -0.3282 -1.1985 -1.5039
   77MOL0     H10101  -0.531   3.940   7.425 -2.3465  0.0515 -1.6821
   77MOL0     H10102  -0.476   3.779   7.469  2.2681  0.3621  0.8211
   77MOL0     H10103  -0.472   3.720   7.224 -0.7262 -0.6109  0.5785
   77MOL0     H10104  -0.502   3.886   7.187  0.5627 -0.2078  0.8024
   77MOL0     H10105  -0.729   3.875   7.289  0.9134  0.3475  2.6199
   77MOL0     H10106  -0.695   3.711   7.331 -2.8265  0.5292 -0.7272
   77MOL0     H10107  -0.764   3.823   7.057  1.0676 -1.6637 -0.5617
   77MOL0     H10108  -0.680   3.665   7.074  1.6090  0.8033 -1.4111
   77MOL0     H10109  -0.861   3.585   7.205  0.1549  0.8146  1.5255
   77MOL0     H10110  -0.904   3.612   7.038 -0.7415 -0.7744  0.3474
   77MOL0     H10111  -0.992   3.841   7.101 -1.9609  0.6385 -0.9651
   77MOL0     H10112  -0.985   3.776   7.269 -0.1393 -1.3261  0.3111
   77MOL0     H10113  -1.129   3.666   7.026  0.1232  1.9198 -0.0789
   77MOL0     H10114  -1.116   3.601   7.194  0.0175 -1.8073 -0.1773
   77MOL0     H10115  -1.217   3.870   7.086 -0.0949 -1.3069 -1.8435
   77MOL0     H10116  -1.234   3.825   7.262 -1.2201 -0.0601 -0.2400
   77MOL0     H10117  -1.429   3.650   7.326  0.0985 -0.8850  0.5898
   77MOL0     H10118  -1.647   3.505   7.285 -0.2777  1.9826 -0.3807
   77MOL0     H10119  -1.609   3.409   7.149 -2.7389 -1.0791 -0.7884
   77MOL0     H10120  -1.775   3.519   7.007 -2.1552  0.0589 -0.3148
   77MOL0     H10121  -1.798   3.647   7.134  2.0511  1.2080 -1.5433
   77MOL0     H10122  -1.871   3.345   7.125 -0.6200  0.9288 -0.8399
   77MOL0     H10123  -1.839   3.426   7.282  0.7037  0.2044  0.9449
   77MOL0     H10124  -2.033   3.524   7.064 -0.4220 -1.8742 -0.3299
   77MOL0     H10125  -2.000   3.618   7.203 -2.4260  0.3664 -0.5836
   77MOL0     H10126  -2.267   3.279   7.309 -0.8460 -0.7670 -0.8197
   77MOL0     H10127  -2.526   3.314   7.317  1.0438 -0.4588  0.4256
   77MOL0     H10128  -2.879   3.743   7.084  0.4868 -1.8796  0.2818
   77MOL0     H10129  -3.119   3.813   7.163 -1.4807 -2.2216  1.3340
   77MOL0     H10130  -3.298   3.901   7.248 -1.6847  3.5862 -0.7568
   77MOL0     H10131  -3.205   4.022   7.324  0.8975 -0.5096 -1.2439
   77MOL0     H10132  -3.410   3.879   7.489 -3.5121 -0.1953 -1.4053
   77MOL0     H10133  -3.469   3.997   7.364 -0.5615  0.2676  1.7707
   77MOL0     H10134  -3.298   4.172   7.483  2.6127 -0.2786  2.0165
   77MOL0     H10135  -3.300   4.064   7.616 -0.7670  3.1753  1.5365
   77MOL0     H10136  -3.460   4.228   7.653 -0.7630 -1.0544  2.3410
   77MOL0     H10137  -3.542   4.194   7.496  1.6669  1.7298 -0.7896
   77MOL0     H10138  -3.508   3.996   7.726  0.0533  1.3218  1.9496
   77MOL0     H10139  -3.612   3.991   7.571  0.6013  1.4510  0.0313
   77MOL0     H10140  -3.762   4.173   7.667 -2.1310 -2.5591 -0.6759
   77MOL0     H10141  -3.661   4.165   7.813  3.2889 -0.6883 -1.9823
   77MOL0     H10142  -3.868   4.019   7.840  1.6580 -1.9158  2.3440
   77MOL0     H10143  -3.844   3.945   7.676 -1.0897 -2.1243  1.2928
   77MOL0     H10144  -3.674   3.800   7.786 -0.0298  0.8730 -0.4182
   77MOL0     H10145  -3.826   3.825   7.878  0.6669  0.0031  2.5280
   77MOL0     H10146  -3.004   3.769   7.572 -0.7462  0.9950  0.6928
   77MOL0     H10147  -2.773   3.693   7.492  1.1995  0.2482 -1.4383
   77MOL0     H10148  -2.467   3.705   7.164 -1.2402 -1.1658  0.6282
   77MOL0     H10149  -2.207   3.666   7.168  0.3151  0.0173  0.0781
   77MOL0     H10150  -0.296   3.646   7.447  0.4543 -2.0169 -0.6204
   77MOL0     H10151  -0.107   3.508   7.366 -0.6938  0.1700 -0.0944
   77MOL0     H10152   0.136   3.181   7.103 -2.2082  2.4479 -0.9408
   77MOL0     H10153   0.348   3.086   6.993 -0.6794 -0.7368 -0.7847
   77MOL0     H10154   0.709   3.360   7.004 -0.0837  1.1611 -1.0043
   77MOL0     H10155   0.657   3.362   6.826 -1.3819 -1.0003 -0.5457
   77MOL0     H10156   0.798   3.140   6.964  1.5684 -0.1324  1.2327
   77MOL0     H10157   0.752   3.149   6.799  1.8728  1.5126 -1.7617
   77MOL0     H10158   0.906   3.381   6.862  0.8407 -0.2526 -2.5614
   77MOL0     H10159   0.971   3.243   6.763 -0.3984  1.6487 -1.4524
   77MOL0     H10160   0.958   3.306   7.063 -0.1845 -0.9284 -0.0725
   77MOL0     H10161   1.038   3.163   6.999 -0.6864  0.1062 -1.2993
   77MOL0     H10162   1.353   3.443   6.949 -1.0336  2.9685 -2.8718
   77MOL0     H10163   0.524   3.483   7.002 -0.9885  2.2802  2.2751
   77MOL0     H10164   0.299   3.572   7.085 -1.2446 -0.3022  0.6972
   78MOL0     O10165   4.050   6.400   8.303  0.0376 -0.2794  0.2537
   78MOL0     C10166   4.096   6.374   8.189  0.3663  0.0550 -0.5475
   78MOL0     O10167   4.029   6.314   8.089 -0.3641 -0.3701  0.0503
   78MOL0     C10168   3.892   6.305   8.105  0.4490 -0.3462  0.2781
   78MOL0     C10169   3.816   6.354   7.995  0.9267  0.1092 -0.6352
   78MOL0     C10170   3.679   6.325   7.991  0.1606 -0.7776  0.2998
   78MOL0     C10171   3.610   6.270   8.100  1.0346  0.4334 -0.2443
   78MOL0     O10172   3.470   6.268   8.100  0.4329 -0.5388  0.9729
   78MOL0     C10173   3.410   6.134   8.097  0.2815 -0.0986 -0.0553
   78MOL0     C10174   3.260   6.132   8.058  0.1590 -0.0070 -0.5502
   78MOL0     C10175   3.233   6.155   7.908  1.0268  0.2814  0.7682
   78MOL0     C10176   3.088   6.108   7.875  0.6471 -0.1839 -0.2494
   78MOL0     C10177   3.042   6.154   7.739  0.5897 -0.2889  0.4258
   78MOL0     C10178   2.920   6.072   7.698  0.0263  0.0174  0.4908
   78MOL0     C10179   2.847   6.118   7.570 -0.1248  0.7485  0.4922
   78MOL0     C10180   2.894   6.053   7.431  0.0522 -0.4969  0.2711
   78MOL0     N10181   2.826   5.929   7.412 -0.1871  0.6212  0.6789
   78MOL0     C10182   2.731   5.912   7.312 -0.7739  0.1651  0.4935
   78MOL0     C10183   2.679   5.795   7.343  0.1978  0.0861 -0.4128
   78MOL0     C10184   2.564   5.743   7.266 -0.0740  0.3646  0.3791
   78MOL0     C10185   2.435   5.757   7.349  0.5995  0.2364 -0.4077
   78MOL0     C10186   2.321   5.677   7.277 -0.0218 -0.2323 -0.1647
   78MOL0     C10187   2.192   5.653   7.363  0.6535  0.2549  0.6726
   78MOL0     O10188   2.133   5.778   7.391  0.0004  0.9090  0.7962
   78MOL0     C10189   2.018   5.770   7.473 -0.6956 -0.2498 -0.0598
   78MOL0     C10190   2.001   5.675   7.576  0.2697 -0.0659  0.4682
   78MOL0     C10191   1.883   5.686   7.651  0.0846  0.0145 -0.5709
   78MOL0     C10192   1.791   5.789   7.635 -0.2972 -0.4755 -0.5978
   78MOL0     C10193   1.665   5.790   7.716  0.7903  0.0112 -0.5729
   78MOL0     O10194   1.566   5.882   7.678  0.3714  0.9248  0.3163
   78MOL0     C10195   1.443   5.875   7.742  0.1646  0.0334  0.7987
   78MOL0     C10196   1.383   5.996   7.777 -0.6399  0.6737 -0.7004
   78MOL0     C10197   1.261   5.994   7.841  0.9517 -0.5342  0.6902
   78MOL0     C10198   1.187   5.885   7.858  0.2632 -0.8371  0.5325
   78MOL0     O10199   1.060   5.895   7.911  0.0255 -0.3178  0.0399
   78MOL0     C10200   0.970   5.792   7.872  0.0634 -0.7912  1.2545
   78MOL0     C10201   0.844   5.803   7.956 -0.3300  0.2677 -0.3770
   78MOL0     C10202   0.762   5.674   7.974 -0.3316  0.3595  1.0308
   78MOL0     C10203   0.632   5.708   8.054  0.0408 -0.0767  0.2735
   78MOL0     C10204   0.503   5.662   7.992  0.5026  0.5347 -0.8547
   78MOL0     C10205   0.389   5.684   8.092 -0.0152  0.2749 -0.1910
   78MOL0     C10206   0.259   5.624   8.047  0.4765  0.1039  0.3591
   78MOL0     C10207   0.152   5.649   8.143 -0.1369  0.4992  0.2830
   78MOL0    Cl10208   0.103   5.824   8.166  0.5331 -0.6639 -0.3095
   78MOL0     C10209   1.246   5.762   7.830 -0.0628  0.1750 -0.4118
   78MOL0     C10210   1.376   5.760   7.771  0.1093 -0.1123  0.4406
   78MOL0     O10211   1.655   5.731   7.824  0.5511 -0.4007 -0.3377
   78MOL0     C10212   1.812   5.887   7.539 -0.0142  0.4826 -0.3224
   78MOL0     C10213   1.930   5.874   7.458  0.0339 -0.3538  0.1453
   78MOL0     N10214   2.737   5.747   7.461  0.6990 -0.6266  0.4726
   78MOL0     N10215   2.825   5.822   7.492 -0.2533 -0.0592 -0.6732
   78MOL0     C10216   3.691   6.216   8.208 -0.0127  0.1773  0.7538
   78MOL0     C10217   3.824   6.241   8.208  0.1666  0.2345 -0.2722
   78MOL0     C10218   4.239   6.404   8.170 -0.3452  0.0037  0.8396
   78MOL0     C10219   4.299   6.507   8.241  0.3445  0.2811 -0.7836
   78MOL0     C10220   4.424   6.551   8.202  0.1486  0.5365  0.3150
   78MOL0     C10221   4.491   6.501   8.088 -0.2286  0.0575  0.2345
   78MOL0     O10222   4.608   6.569   8.058  0.1405  0.8853  0.1176
   78MOL0     C10223   4.725   6.493   8.017  0.4449 -0.8038 -0.4684
   78MOL0     C10224   4.773   6.408   8.121 -0.4729  0.6933 -0.0206
   78MOL0     C10225   4.924   6.366   8.073  1.0709 -0.4894 -0.1329
   78MOL0     C10226   5.010   6.311   8.194 -0.4286 -0.3293  0.0105
   78MOL0     C10227   5.092   6.412   8.259 -0.3869  0.3224  1.0285
   78MOL0     C10228   5.173   6.490   8.294 -0.5015 -0.5645  0.6168
   78MOL0     C10229   4.432   6.405   8.006 -1.1991 -0.7246  0.2373
   78MOL0     C10230   4.310   6.349   8.057 -0.3842  0.6246  0.7785
   78MOL0     H10231   3.879   6.393   7.915  2.0235 -0.1297  0.0946
   78MOL0     H10232   3.616   6.347   7.905  0.6818  0.6474  0.2609
   78MOL0     H10233   3.428   6.098   8.198 -0.9155  0.3832  0.3496
   78MOL0     H10234   3.460   6.076   8.019 -0.2737 -0.7409  0.0552
   78MOL0     H10235   3.206   6.216   8.103 -0.3107 -1.2206  1.2938
   78MOL0     H10236   3.217   6.037   8.093 -0.5627  0.6406  0.3819
   78MOL0     H10237   3.293   6.098   7.836 -1.6520 -1.0859 -0.5586
   78MOL0     H10238   3.246   6.263   7.893 -1.2244  0.6037  0.6414
   78MOL0     H10239   3.079   6.000   7.886 -2.5346  0.2236  2.6248
   78MOL0     H10240   3.028   6.154   7.954  0.5264 -0.0791 -0.4021
   78MOL0     H10241   3.118   6.126   7.665 -0.0334 -0.6562 -0.0819
   78MOL0     H10242   3.022   6.260   7.724  3.6936  0.2715 -0.6445
   78MOL0     H10243   2.845   6.085   7.778  2.0563  0.2116  2.4597
   78MOL0     H10244   2.942   5.965   7.696 -2.1153 -0.5206  1.7964
   78MOL0     H10245   2.743   6.089   7.584 -0.6894  2.2890 -0.3461
   78MOL0     H10246   2.851   6.227   7.565 -1.3387  0.7924  0.1698
   78MOL0     H10247   3.002   6.039   7.433  0.2405 -0.2326 -2.7076
   78MOL0     H10248   2.863   6.128   7.358 -1.4227  0.6303  1.9618
   78MOL0     H10249   2.719   5.986   7.234  1.5696  1.0535  0.9064
   78MOL0     H10250   2.583   5.638   7.245 -1.6230  0.1012  0.1591
   78MOL0     H10251   2.558   5.799   7.172 -0.9406  1.6980  1.1839
   78MOL0     H10252   2.407   5.862   7.360  1.3150  0.2532  1.7269
   78MOL0     H10253   2.446   5.720   7.451 -1.2706  1.0932  0.1506
   78MOL0     H10254   2.293   5.740   7.193 -2.3509  2.4230  2.4041
   78MOL0     H10255   2.362   5.583   7.237  1.8697  0.5899 -0.2568
   78MOL0     H10256   2.218   5.582   7.441 -0.9299 -1.5918 -0.4056
   78MOL0     H10257   2.121   5.602   7.298  1.5327 -0.1376  0.0076
   78MOL0     H10258   2.082   5.605   7.595  0.6803 -1.3846 -4.6927
   78MOL0     H10259   1.883   5.621   7.738 -2.6178 -0.6530 -0.9705
   78MOL0     H10260   1.433   6.089   7.753 -1.6920  1.9449  1.7040
   78MOL0     H10261   1.209   6.085   7.868 -0.3972 -1.0390 -0.1007
   78MOL0     H10262   0.999   5.688   7.887 -1.4303 -1.7766 -1.8133
   78MOL0     H10263   0.938   5.824   7.772  3.0464  0.2766  0.5441
   78MOL0     H10264   0.780   5.881   7.914  0.8671  0.6005 -1.6714
   78MOL0     H10265   0.877   5.824   8.058  0.5478 -3.7673  0.3569
   78MOL0     H10266   0.824   5.592   8.012  2.6031  0.1831 -3.3858
   78MOL0     H10267   0.731   5.641   7.874 -0.8028 -0.2755  1.3781
   78MOL0     H10268   0.654   5.663   8.152  1.5020  0.1161  0.0616
   78MOL0     H10269   0.624   5.816   8.062  1.4954  0.1526 -0.9331
   78MOL0     H10270   0.515   5.553   7.989  2.9601  0.6425  1.2573
   78MOL0     H10271   0.490   5.707   7.893  0.6843 -0.2436 -1.2403
   78MOL0     H10272   0.392   5.791   8.112  0.7536  0.3094 -0.4453
   78MOL0     H10273   0.420   5.633   8.184 -0.0099 -1.0531 -0.9099
   78MOL0     H10274   0.231   5.665   7.950  0.0051  1.2582  0.9667
   78MOL0     H10275   0.270   5.516   8.036  0.4222  0.0154  1.1127
   78MOL0     H10276   0.188   5.617   8.241  0.6357 -2.7942 -0.9469
   78MOL0     H10277   0.066   5.587   8.115  0.2295  0.3046 -0.4376
   78MOL0     H10278   1.204   5.668   7.863  2.7275 -1.1038 -0.1345
   78MOL0     H10279   1.419   5.666   7.736 -1.9062  0.0479 -2.8630
   78MOL0     H10280   1.736   5.958   7.509 -1.7419 -1.1228  0.1072
   78MOL0     H10281   1.953   5.953   7.387  2.2687 -2.6446 -1.8656
   78MOL0     H10282   3.651   6.147   8.282  0.6244 -0.3571  0.6075
   78MOL0     H10283   3.887   6.203   8.287  0.9831 -2.0253 -1.9233
   78MOL0     H10284   4.257   6.559   8.327  0.4459  1.0751 -1.2099
   78MOL0     H10285   4.470   6.633   8.257  0.0940 -0.4397  1.8948
   78MOL0     H10286   4.793   6.570   7.979  0.3821 -0.2333  0.5195
   78MOL0     H10287   4.694   6.432   7.932 -0.8279 -2.7025  1.2536
   78MOL0     H10288   4.773   6.479   8.204 -2.5318  0.8467 -0.1019
   78MOL0     H10289   4.711   6.322   8.149  0.6971  0.6464  2.7438
   78MOL0     H10290   4.975   6.446   8.019  0.6813  0.9986  1.6019
   78MOL0     H10291   4.909   6.282   8.004 -3.6274  0.3818 -0.5385
   78MOL0     H10292   4.949   6.267   8.273 -2.4783  0.5735 -0.9892
   78MOL0     H10293   5.074   6.229   8.158 -0.8590 -0.8445  0.4038
   78MOL0     H10294   5.245   6.564   8.322 -0.6987 -0.6582  1.3922
   78MOL0     H10295   4.491   6.384   7.917 -0.3255 -0.4811  0.7393
   78MOL0     H10296   4.255   6.270   8.006 -1.1072  0.6853  1.4266
   79MOL0     O10297   6.691   8.446   5.631  0.1566 -0.3253 -0.1586
   79MOL0     C10298   6.774   8.353   5.629  0.0714 -0.1844 -0.1078
   79MOL0     O10299   6.771   8.245   5.708 -1.1851 -0.0434  0.2492
   79MOL0     C10300   6.646   8.219   5.768  0.3705 -0.5569  0.3335
   79MOL0     C10301   6.623   8.220   5.899 -0.4284 -0.3544 -0.3998
   79MOL0     C10302   6.496   8.208   5.957  0.3450  0.8454  0.9741
   79MOL0     C10303   6.382   8.191   5.879 -1.1948 -0.7401 -0.4174
   79MOL0     O10304   6.267   8.190   5.956 -0.6410 -0.2680  0.8252
   79MOL0     C10305   6.138   8.219   5.892 -0.7758 -0.6778  0.1953
   79MOL0     C10306   6.017   8.199   5.988 -0.0686 -0.6655 -0.5306
   79MOL0     C10307   5.890   8.252   5.938 -0.0978  0.1451 -0.6309
   79MOL0     C10308   5.849   8.208   5.795 -1.0248 -0.0698 -0.8181
   79MOL0     C10309   5.730   8.297   5.748  0.8932  0.0021  0.2502
   79MOL0     C10310   5.666   8.262   5.605  0.2454  0.7070 -0.0976
   79MOL0     C10311   5.540   8.347   5.560  0.4606  0.1159  0.1644
   79MOL0     C10312   5.569   8.471   5.486 -0.9334  0.4554 -0.2035
   79MOL0     N10313   5.586   8.442   5.344  0.1590  0.6075  1.2869
   79MOL0     C10314   5.492   8.472   5.252 -0.3111  0.6101  0.2954
   79MOL0     C10315   5.550   8.449   5.132  0.1780 -0.0237  0.8940
   79MOL0     C10316   5.483   8.463   4.997  0.1400  0.5495  0.4500
   79MOL0     C10317   5.379   8.357   4.977 -0.5714  0.4278 -0.3584
   79MOL0     C10318   5.312   8.384   4.841 -0.0225  0.2628 -1.3303
   79MOL0     C10319   5.237   8.261   4.798  0.4020 -0.0017  0.4192
   79MOL0     O10320   5.175   8.286   4.668 -0.1965  0.9066  0.6941
   79MOL0     C10321   5.043   8.261   4.654  0.5587  0.3004 -1.1787
   79MOL0     C10322   4.944   8.335   4.729 -0.7932  0.0373  0.3672
   79MOL0     C10323   4.813   8.313   4.703  0.0067 -0.5640  0.3357
   79MOL0     C10324   4.769   8.226   4.597 -0.6950  0.2724 -0.3354
   79MOL0     C10325   4.628   8.210   4.560 -1.0712  0.4452  0.7979
   79MOL0     O10326   4.544   8.315   4.607 -0.2397 -0.5257  0.3183
   79MOL0     C10327   4.410   8.312   4.586 -0.5565 -0.1310 -0.3368
   79MOL0     C10328   4.346   8.262   4.473 -0.0091  0.5311 -1.2044
   79MOL0     C10329   4.209   8.267   4.459  0.3386 -0.3566  0.4350
   79MOL0     C10330   4.134   8.331   4.562 -0.4804 -0.0679  0.5195
   79MOL0     O10331   4.000   8.349   4.545  0.1395  0.2785  0.2242
   79MOL0     C10332   3.945   8.391   4.422  0.1160 -0.3365 -0.8264
   79MOL0     C10333   3.884   8.261   4.364  0.4383 -0.2445  0.6130
   79MOL0     C10334   3.807   8.278   4.233 -0.1795  1.1909 -0.1713
   79MOL0     C10335   3.771   8.141   4.178 -0.2313 -0.2367  0.2892
   79MOL0     C10336   3.731   8.133   4.035  0.6031 -0.2657  0.8078
   79MOL0     C10337   3.604   8.217   4.006  0.4004 -0.0275  0.5738
   79MOL0     C10338   3.528   8.159   3.883  0.1780  0.6363  0.1623
   79MOL0     C10339   3.386   8.101   3.908 -0.6440 -0.0061 -0.0980
   79MOL0    Cl10340   3.405   7.949   3.991 -0.2951  0.0539  0.2366
   79MOL0     C10341   4.192   8.386   4.673  0.2054 -0.3277 -0.3971
   79MOL0     C10342   4.334   8.379   4.680  0.6025  0.2203 -1.0604
   79MOL0     O10343   4.589   8.107   4.502  0.0251  0.5001 -0.2118
   79MOL0     C10344   4.874   8.156   4.518  0.9345 -0.1294  0.0551
   79MOL0     C10345   5.006   8.183   4.543 -0.1585  0.5732  0.7768
   79MOL0     N10346   5.677   8.406   5.153  0.4624 -1.2147 -0.0039
   79MOL0     N10347   5.693   8.400   5.282 -0.1530 -0.4766  0.6774
   79MOL0     C10348   6.398   8.167   5.741  0.2802  0.2505  0.1752
   79MOL0     C10349   6.539   8.186   5.682  0.4575 -0.3900  0.3395
   79MOL0     C10350   6.894   8.381   5.548 -0.2131  0.0236 -0.5114
   79MOL0     C10351   7.010   8.309   5.567  0.0313  0.1254  0.1141
   79MOL0     C10352   7.122   8.333   5.483 -1.0748  0.5411 -0.1441
   79MOL0     C10353   7.110   8.425   5.380  0.0784 -0.1104  0.3486
   79MOL0     O10354   7.219   8.437   5.300  0.6408  0.0389  0.3846
   79MOL0     C10355   7.213   8.531   5.190  0.3190  0.0934  0.8673
   79MOL0     C10356   7.345   8.539   5.114 -0.3817  0.5410 -0.5302
   79MOL0     C10357   7.347   8.671   5.024  0.2351 -0.4626 -0.3935
   79MOL0     C10358   7.472   8.683   4.930 -0.0340  0.7007  0.5714
   79MOL0     C10359   7.439   8.620   4.803 -1.5507 -0.5887 -0.0692
   79MOL0     C10360   7.395   8.578   4.699 -0.6685 -0.1252 -0.0799
   79MOL0     C10361   6.989   8.499   5.361  0.7274  0.5619 -0.1747
   79MOL0     C10362   6.885   8.475   5.448  0.3522 -1.2322  0.3662
   79MOL0     H10363   6.706   8.238   5.966  0.3796  1.6058 -1.8369
   79MOL0     H10364   6.494   8.223   6.064 -3.1738  0.1630  1.1247
   79MOL0     H10365   6.117   8.143   5.816  0.8462 -1.7819  0.7914
   79MOL0     H10366   6.139   8.320   5.851 -1.1819 -0.2007  1.3348
   79MOL0     H10367   6.046   8.247   6.082  3.5068 -1.4541 -1.0942
   79MOL0     H10368   6.007   8.092   6.009  0.5595 -0.6726 -0.2599
   79MOL0     H10369   5.894   8.362   5.938  1.0895  0.1654  1.7392
   79MOL0     H10370   5.816   8.233   6.017 -2.2414  2.4030 -1.9370
   79MOL0     H10371   5.935   8.214   5.727 -1.6286  1.3185 -1.5031
   79MOL0     H10372   5.813   8.106   5.803  2.1808 -1.2479  0.1743
   79MOL0     H10373   5.763   8.400   5.731  3.7253 -1.0508 -1.3698
   79MOL0     H10374   5.651   8.275   5.820 -1.7886  0.4777 -2.3481
   79MOL0     H10375   5.629   8.159   5.606  3.4370 -0.6850 -3.3719
   79MOL0     H10376   5.751   8.273   5.537  2.1965 -0.1390  2.0694
   79MOL0     H10377   5.486   8.284   5.489  4.1797 -1.3823 -1.6179
   79MOL0     H10378   5.481   8.373   5.648  0.2710 -3.6027  1.2993
   79MOL0     H10379   5.654   8.522   5.531  0.3459 -2.7895  1.3676
   79MOL0     H10380   5.483   8.535   5.506 -1.3042 -0.8574  2.9822
   79MOL0     H10381   5.393   8.511   5.273  0.4356  1.4848  2.4357
   79MOL0     H10382   5.563   8.461   4.922  2.2453 -0.3040  2.5863
   79MOL0     H10383   5.433   8.560   4.991 -1.0286 -0.0061  0.9620
   79MOL0     H10384   5.299   8.360   5.052 -0.4022 -0.3048 -0.1450
   79MOL0     H10385   5.429   8.260   4.982 -0.4879  0.4843 -0.0963
   79MOL0     H10386   5.238   8.465   4.846 -0.1771  0.0790 -0.3161
   79MOL0     H10387   5.387   8.415   4.767  0.4261  3.9312  0.4119
   79MOL0     H10388   5.161   8.224   4.868 -2.2159 -2.0924 -3.2071
   79MOL0     H10389   5.306   8.178   4.784  0.7904  0.0470  1.8902
   79MOL0     H10390   4.973   8.404   4.806  4.5318 -2.2942  0.8914
   79MOL0     H10391   4.743   8.362   4.769  1.1612 -0.1302  1.2724
   79MOL0     H10392   4.401   8.220   4.389  2.1101 -3.4801  1.8431
   79MOL0     H10393   4.168   8.240   4.362  2.7430  1.2053 -1.1113
   79MOL0     H10394   4.020   8.435   4.355  0.5199  1.7185  0.8592
   79MOL0     H10395   3.859   8.455   4.443  1.0127  1.0967 -1.4091
   79MOL0     H10396   3.831   8.210   4.445 -1.8394  0.8489 -0.1216
   79MOL0     H10397   3.968   8.198   4.332 -0.0958 -1.1386  0.9400
   79MOL0     H10398   3.862   8.332   4.155 -0.4688  0.9759 -0.5249
   79MOL0     H10399   3.724   8.342   4.266  0.0127  0.3826  2.0797
   79MOL0     H10400   3.862   8.081   4.189  2.0762  3.3438  2.7984
   79MOL0     H10401   3.684   8.114   4.239  0.0894  2.2997  2.0032
   79MOL0     H10402   3.699   8.029   4.025  2.1727 -0.9121  2.0918
   79MOL0     H10403   3.807   8.163   3.961 -1.3712  1.1018 -0.7851
   79MOL0     H10404   3.625   8.319   3.972 -1.2063 -0.3417 -1.5778
   79MOL0     H10405   3.531   8.222   4.087 -1.2805 -1.0006 -0.8041
   79MOL0     H10406   3.504   8.240   3.813 -0.1428 -0.5666 -1.1783
   79MOL0     H10407   3.584   8.091   3.818 -0.6289 -1.3465  1.4492
   79MOL0     H10408   3.340   8.065   3.815 -4.4536 -0.4255  1.7652
   79MOL0     H10409   3.328   8.175   3.964 -1.1365 -0.4885  0.0383
   79MOL0     H10410   4.127   8.440   4.741  1.7105  2.2430 -0.8594
   79MOL0     H10411   4.376   8.439   4.761  2.5051 -0.5332 -1.4410
   79MOL0     H10412   4.842   8.090   4.439  1.4360 -0.7457  0.3579
   79MOL0     H10413   5.081   8.149   4.471 -0.1264  1.5448  0.3461
   79MOL0     H10414   6.315   8.135   5.680  1.4336  1.0966 -1.9318
   79MOL0     H10415   6.566   8.189   5.577  1.8807 -0.7651  0.6735
   79MOL0     H10416   7.014   8.229   5.640 -0.0960  1.3897  1.5483
   79MOL0     H10417   7.216   8.282   5.499 -1.4873  0.1802  1.2638
   79MOL0     H10418   7.188   8.633   5.218  0.3563  1.2966 -2.9478
   79MOL0     H10419   7.130   8.506   5.124  0.0508 -0.4510  1.3974
   79MOL0     H10420   7.424   8.540   5.189  2.1077  0.1554 -2.9703
   79MOL0     H10421   7.352   8.449   5.053  0.3539 -0.5472  1.1002
   79MOL0     H10422   7.368   8.759   5.086  0.0941  1.8850 -3.4011
   79MOL0     H10423   7.252   8.673   4.971 -0.3793 -2.5421  0.5587
   79MOL0     H10424   7.473   8.790   4.908  1.3736  0.9231  1.6017
   79MOL0     H10425   7.570   8.657   4.971 -0.4925  0.3707  1.4788
   79MOL0     H10426   7.350   8.543   4.609  0.0603  0.1026 -0.5444
   79MOL0     H10427   6.988   8.584   5.293 -0.7127  1.4884  0.9569
   79MOL0     H10428   6.788   8.519   5.426 -0.1877 -1.1991  2.5576
   80MOL0     O10429   4.472   0.113   2.033 -0.4424  0.8984  0.2782
   80MOL0     C10430   4.500   0.228   2.070 -0.6939  0.0964  0.1250
   80MOL0     O10431   4.411   0.311   2.139 -0.2798 -0.0921  0.0265
   80MOL0     C10432   4.280   0.282   2.137 -0.2705 -0.0438  0.6280
   80MOL0     C10433   4.203   0.241   2.249  0.6725 -0.2992 -0.7201
   80MOL0     C10434   4.062   0.232   2.236 -0.2712 -0.0050  0.1954
   80MOL0     C10435   4.002   0.246   2.109  0.0785  0.0806 -0.9865
   80MOL0     O10436   3.866   0.241   2.098 -0.7310 -0.6774  0.2478
   80MOL0     C10437   3.816   0.115   2.060 -0.1980  0.0560 -0.5235
   80MOL0     C10438   3.663   0.119   2.072 -0.4861 -0.2072  0.4687
   80MOL0     C10439   3.592  -0.013   2.060  0.1075  0.0444 -0.1946
   80MOL0     C10440   3.580  -0.100   2.197 -0.1270 -0.2349  0.3205
   80MOL0     C10441   3.722  -0.157   2.248  0.1274 -0.3534 -0.2454
   80MOL0     C10442   3.782  -0.250   2.144 -0.2853  0.1761 -0.5380
   80MOL0     C10443   3.904  -0.326   2.197  0.3229 -0.9462 -0.4127
   80MOL0     C10444   3.862  -0.433   2.302 -0.5440  0.0501 -0.5925
   80MOL0     N10445   3.974  -0.524   2.336  0.1247  0.1807 -0.6091
   80MOL0     C10446   4.079  -0.501   2.432  0.1284 -0.2386  1.3021
   80MOL0     C10447   4.154  -0.608   2.407  0.0180  0.2714  0.1110
   80MOL0     C10448   4.281  -0.641   2.472 -0.6869 -0.2233 -0.7385
   80MOL0     C10449   4.400  -0.599   2.391 -0.3050  0.0704 -0.0138
   80MOL0     C10450   4.435  -0.448   2.395  0.1614  0.1076  0.2307
   80MOL0     C10451   4.587  -0.432   2.396 -0.1702 -0.7242  0.6505
   80MOL0     O10452   4.646  -0.424   2.530  0.4530  0.3116  1.0784
   80MOL0     C10453   4.770  -0.472   2.547  0.0373 -0.2365 -0.4452
   80MOL0     C10454   4.871  -0.388   2.587  0.7639 -0.5424  0.0387
   80MOL0     C10455   4.996  -0.441   2.615  0.4351 -1.3079  0.2192
   80MOL0     C10456   5.028  -0.576   2.594 -0.0862  0.0500 -0.2279
   80MOL0     C10457   5.163  -0.628   2.606  0.1259  0.6891  0.2830
   80MOL0     O10458   5.184  -0.765   2.627  0.2033  0.8875  0.2223
   80MOL0     C10459   5.313  -0.808   2.647  0.2780 -0.7980  0.5446
   80MOL0     C10460   5.400  -0.825   2.540  0.0009 -0.5066  0.9963
   80MOL0     C10461   5.536  -0.865   2.561 -0.4039 -0.3978 -0.5904
   80MOL0     C10462   5.576  -0.901   2.689 -0.9818 -0.4101 -0.3673
   80MOL0     O10463   5.709  -0.944   2.721  0.6980  0.1911  0.7159
   80MOL0     C10464   5.796  -0.977   2.612  0.3990 -0.2603  0.6245
   80MOL0     C10465   5.910  -1.057   2.661  0.0411  0.4339  0.1546
   80MOL0     C10466   6.002  -1.070   2.541  0.7339 -0.2252 -0.5531
   80MOL0     C10467   6.137  -1.140   2.593 -0.0312 -0.4437 -0.4608
   80MOL0     C10468   6.239  -1.038   2.662 -0.4948  0.2108  0.1441
   80MOL0     C10469   6.377  -1.094   2.660  0.0469  0.8286  0.3913
   80MOL0     C10470   6.474  -1.004   2.741 -0.3488  0.4290 -0.0597
   80MOL0     C10471   6.618  -1.060   2.728 -0.1380 -0.3934  0.1589
   80MOL0    Cl10472   6.729  -0.961   2.822  0.5921 -0.0239 -0.6630
   80MOL0     C10473   5.493  -0.863   2.799 -0.5123 -0.2420  0.9471
   80MOL0     C10474   5.362  -0.815   2.773 -0.6934  0.5554 -0.1123
   80MOL0     O10475   5.252  -0.545   2.597  0.8234 -0.2023  0.2524
   80MOL0     C10476   4.920  -0.662   2.546 -0.5014  0.1661  0.1230
   80MOL0     C10477   4.793  -0.610   2.526  0.8170 -0.5757  0.5087
   80MOL0     N10478   4.092  -0.689   2.311 -0.3625  0.4470  0.0954
   80MOL0     N10479   4.002  -0.625   2.253 -0.1163 -0.3812 -0.0225
   80MOL0     C10480   4.079   0.285   1.995 -0.1000  0.6708  1.0380
   80MOL0     C10481   4.222   0.313   2.010  0.2177  0.3705 -0.0402
   80MOL0     C10482   4.633   0.280   2.047  0.1289 -0.2236  0.6936
   80MOL0     C10483   4.727   0.206   1.968 -0.4140  0.1004 -0.3335
   80MOL0     C10484   4.856   0.257   1.948  0.2049  0.9773  0.0928
   80MOL0     C10485   4.909   0.377   2.010  0.6055 -0.1871  0.1947
   80MOL0     O10486   5.035   0.421   1.980 -0.9312  0.3005  0.1430
   80MOL0     C10487   5.086   0.546   2.044 -0.0256  0.1477  0.5196
   80MOL0     C10488   5.232   0.514   2.091  0.7291  0.0404 -0.1165
   80MOL0     C10489   5.313   0.468   1.970 -0.8486  0.3222  0.9079
   80MOL0     C10490   5.464   0.462   2.014  0.6366  0.1226 -0.3992
   80MOL0     C10491   5.544   0.360   1.947 -0.2871 -0.1277 -0.3668
   80MOL0     C10492   5.601   0.279   1.875  0.2560 -0.0984 -0.5425
   80MOL0     C10493   4.813   0.446   2.084  1.2282  0.1905 -0.4353
   80MOL0     C10494   4.679   0.402   2.098 -0.5104  0.5509  0.1433
   80MOL0     H10495   4.252   0.234   2.346 -1.8251  1.8708  0.8358
   80MOL0     H10496   3.996   0.214   2.321 -1.4822 -0.1227 -0.7534
   80MOL0     H10497   3.853   0.031   2.120 -0.3222 -1.2341 -2.1904
   80MOL0     H10498   3.852   0.105   1.958  1.8299  0.0987  0.1410
   80MOL0     H10499   3.621   0.184   1.995  2.5044  0.2394 -0.9165
   80MOL0     H10500   3.644   0.161   2.171  2.1581  0.3544  0.7936
   80MOL0     H10501   3.641  -0.076   1.985 -1.4572  0.3905 -1.5741
   80MOL0     H10502   3.490   0.008   2.027  0.5798  1.5184 -0.7813
   80MOL0     H10503   3.536  -0.029   2.267 -0.3847 -0.1385  0.0648
   80MOL0     H10504   3.512  -0.181   2.169  3.2364 -2.6392 -1.6943
   80MOL0     H10505   3.696  -0.214   2.338  1.8314  2.4493  2.1988
   80MOL0     H10506   3.792  -0.079   2.279 -0.9823  1.2598 -1.6581
   80MOL0     H10507   3.812  -0.188   2.059  0.7573 -1.3175 -1.2879
   80MOL0     H10508   3.703  -0.319   2.113 -2.5224  1.6843  1.4156
   80MOL0     H10509   3.954  -0.365   2.108 -4.5603 -1.5246 -3.2736
   80MOL0     H10510   3.970  -0.249   2.239 -1.7920  0.6976  0.0268
   80MOL0     H10511   3.773  -0.490   2.272  1.0685 -2.3512 -1.1505
   80MOL0     H10512   3.846  -0.380   2.396  0.8293 -1.5055  0.5936
   80MOL0     H10513   4.087  -0.416   2.499 -1.8678 -0.9690  2.5456
   80MOL0     H10514   4.298  -0.749   2.481  0.3175 -0.0022  0.1319
   80MOL0     H10515   4.284  -0.606   2.576 -2.4075 -2.5409  0.1881
   80MOL0     H10516   4.376  -0.617   2.286 -0.3745 -1.3361  0.2251
   80MOL0     H10517   4.481  -0.669   2.413  0.2951  0.6058 -0.4702
   80MOL0     H10518   4.398  -0.393   2.308  0.4931  2.0240  1.2329
   80MOL0     H10519   4.394  -0.392   2.480 -1.4277  1.2698 -1.2509
   80MOL0     H10520   4.597  -0.333   2.351 -1.2912 -2.7276 -4.6829
   80MOL0     H10521   4.629  -0.506   2.327  1.7098 -0.8029  1.8189
   80MOL0     H10522   4.843  -0.283   2.590  2.3396 -0.0934  2.9344
   80MOL0     H10523   5.072  -0.370   2.646  0.5910 -1.0251 -0.7712
   80MOL0     H10524   5.367  -0.809   2.438  0.9257 -0.0408  0.7643
   80MOL0     H10525   5.600  -0.875   2.474 -2.4049 -0.7164 -2.0889
   80MOL0     H10526   5.815  -0.884   2.558 -2.8308  1.0621  1.5015
   80MOL0     H10527   5.757  -1.037   2.530 -1.7092  1.0399  0.6261
   80MOL0     H10528   5.880  -1.155   2.698  3.8971 -1.4094 -1.0831
   80MOL0     H10529   5.957  -0.996   2.738  1.6956 -2.1278  1.2959
   80MOL0     H10530   6.029  -0.972   2.500 -0.2021  0.9886  1.5680
   80MOL0     H10531   5.956  -1.133   2.464  0.5863 -0.5964 -0.1713
   80MOL0     H10532   6.117  -1.219   2.666  1.9171 -0.1265  0.4796
   80MOL0     H10533   6.187  -1.188   2.509  0.9475 -0.8136  0.3200
   80MOL0     H10534   6.211  -1.001   2.761  3.8730  1.8815  0.9708
   80MOL0     H10535   6.244  -0.949   2.598  0.1043  0.1637  0.1253
   80MOL0     H10536   6.402  -1.110   2.554 -2.6790 -0.9988 -0.0949
   80MOL0     H10537   6.379  -1.195   2.703 -0.8874  1.5037  2.0837
   80MOL0     H10538   6.469  -0.904   2.698 -2.1792  0.5892  0.4167
   80MOL0     H10539   6.445  -1.008   2.847  0.0845  3.5678  0.2895
   80MOL0     H10540   6.643  -1.058   2.621 -0.8545 -0.2560 -0.0089
   80MOL0     H10541   6.631  -1.165   2.753 -0.6820 -0.4308  0.2936
   80MOL0     H10542   5.529  -0.893   2.897  0.3455  2.1274  1.4233
   80MOL0     H10543   5.304  -0.796   2.862 -0.9965 -0.2280 -0.1367
   80MOL0     H10544   4.940  -0.766   2.522  2.3021  0.2123  1.8532
   80MOL0     H10545   4.719  -0.684   2.498  2.6421 -2.5588  0.6537
   80MOL0     H10546   4.025   0.302   1.903  0.3605 -0.2392  0.5880
   80MOL0     H10547   4.290   0.352   1.935 -2.0244 -0.0602 -2.4113
   80MOL0     H10548   4.695   0.114   1.921  1.4195 -0.0711 -1.3141
   80MOL0     H10549   4.927   0.190   1.901 -1.6672 -2.6262  2.0430
   80MOL0     H10550   5.022   0.575   2.127  0.1076  1.5469  0.1637
   80MOL0     H10551   5.085   0.632   1.976 -3.0449  0.0227  0.2736
   80MOL0     H10552   5.269   0.608   2.132 -0.6250  0.3842  0.3650
   80MOL0     H10553   5.226   0.437   2.169 -4.4515 -0.7984 -0.9712
   80MOL0     H10554   5.315   0.544   1.892  3.6863 -0.7215 -0.2852
   80MOL0     H10555   5.293   0.375   1.917  1.6955 -0.3324  0.9394
   80MOL0     H10556   5.503   0.560   1.985  0.0285 -0.4598 -3.5709
   80MOL0     H10557   5.479   0.453   2.122  1.7906  0.0317 -0.5577
   80MOL0     H10558   5.654   0.203   1.822  0.4919  0.4077 -1.0425
   80MOL0     H10559   4.825   0.544   2.128  0.2570  0.7123 -1.2756
   80MOL0     H10560   4.612   0.470   2.150  1.0951  0.5920  2.3032
   81MOL0     O10561   3.813   5.158   1.724 -0.7263  0.4729 -0.3887
   81MOL0     C10562   3.796   5.238   1.634 -0.0287  0.0238  0.5248
   81MOL0     O10563   3.677   5.285   1.585  0.1042 -0.9878  0.9002
   81MOL0     C10564   3.548   5.237   1.611 -0.0210 -0.2442 -0.6404
   81MOL0     C10565   3.437   5.294   1.544 -0.3180 -0.1836 -0.0747
   81MOL0     C10566   3.312   5.253   1.563  0.8829 -0.2691 -0.0803
   81MOL0     C10567   3.278   5.165   1.662 -0.3515  1.5585 -0.5661
   81MOL0     O10568   3.144   5.135   1.668  0.3437  0.5399 -0.0031
   81MOL0     C10569   3.108   5.070   1.794 -0.2411 -0.0097  0.0330
   81MOL0     C10570   2.954   5.064   1.795  0.8760 -0.6771  0.2400
   81MOL0     C10571   2.886   5.209   1.797  0.1788  0.9998 -0.0446
   81MOL0     C10572   2.731   5.200   1.800 -0.2005 -0.0997  0.1530
   81MOL0     C10573   2.682   5.341   1.822  0.8745 -0.1029  0.2527
   81MOL0     C10574   2.526   5.342   1.829 -0.3908  0.3282  0.2029
   81MOL0     C10575   2.463   5.481   1.804  0.1221 -0.2616  0.4211
   81MOL0     C10576   2.316   5.475   1.789  0.7106 -0.3955  0.3617
   81MOL0     N10577   2.256   5.611   1.771  0.1108 -0.3919 -0.8586
   81MOL0     C10578   2.164   5.645   1.673 -0.5891 -0.3013 -0.1544
   81MOL0     C10579   2.132   5.782   1.687 -0.4416 -0.6613 -0.2771
   81MOL0     C10580   2.041   5.868   1.604 -0.2370 -0.2133  0.0104
   81MOL0     C10581   1.893   5.827   1.631  0.2977 -0.4665  0.3406
   81MOL0     C10582   1.842   5.884   1.767 -0.1556 -0.0453  0.2214
   81MOL0     C10583   1.699   5.838   1.802  0.5485  0.7019 -0.1646
   81MOL0     O10584   1.604   5.885   1.711  0.2467  0.0303  0.2453
   81MOL0     C10585   1.471   5.859   1.725  0.1651 -0.0561 -0.5788
   81MOL0     C10586   1.426   5.769   1.827 -1.1414  0.0630 -0.1870
   81MOL0     C10587   1.292   5.733   1.826 -0.3005  0.0410 -0.5963
   81MOL0     C10588   1.202   5.790   1.744 -0.4903  0.8190  0.8705
   81MOL0     C10589   1.059   5.748   1.750  0.0997  0.7272 -0.7039
   81MOL0     O10590   0.968   5.841   1.705 -0.0789 -0.3569  0.5944
   81MOL0     C10591   0.834   5.814   1.717  0.1576  0.0353 -0.9461
   81MOL0     C10592   0.753   5.815   1.609  0.5810  0.6072 -0.0839
   81MOL0     C10593   0.614   5.804   1.621 -0.3258 -0.2356 -0.2053
   81MOL0     C10594   0.553   5.806   1.746  0.2359  0.9360 -0.1073
   81MOL0     O10595   0.416   5.800   1.770  1.0281 -0.8910  0.3321
   81MOL0     C10596   0.336   5.787   1.653 -0.3500  0.8175 -0.8826
   81MOL0     C10597   0.189   5.766   1.692  0.1837 -0.1023  0.0616
   81MOL0     C10598   0.096   5.790   1.556  0.1979  0.1936  0.9787
   81MOL0     C10599  -0.051   5.782   1.599  0.5402 -0.3143 -0.0333
   81MOL0     C10600  -0.136   5.814   1.474 -0.3716 -0.7183 -0.3689
   81MOL0     C10601  -0.276   5.882   1.507  0.1136  0.5837  0.3231
   81MOL0     C10602  -0.360   5.820   1.617  0.2948  0.2745  0.7294
   81MOL0     C10603  -0.418   5.688   1.570 -0.9160  0.9120 -0.1734
   81MOL0    Cl10604  -0.538   5.694   1.440 -0.5675 -0.5430  0.2333
   81MOL0     C10605   0.645   5.811   1.860 -0.2796 -0.4401  0.1282
   81MOL0     C10606   0.786   5.814   1.848  0.3143  0.3301 -0.2324
   81MOL0     O10607   1.035   5.641   1.806  0.6698 -0.8618  1.2093
   81MOL0     C10608   1.244   5.881   1.646  0.0358  0.6953 -0.2613
   81MOL0     C10609   1.377   5.911   1.637 -0.4961  0.3560  0.8622
   81MOL0     N10610   2.216   5.824   1.791  0.2342  0.0936 -0.6840
   81MOL0     N10611   2.285   5.732   1.836  0.3588  0.3038 -0.2185
   81MOL0     C10612   3.382   5.102   1.737  0.4035 -0.0203 -0.1797
   81MOL0     C10613   3.516   5.133   1.703  0.0438 -0.0501  0.5010
   81MOL0     C10614   3.922   5.296   1.567  0.8316 -0.0827 -0.9323
   81MOL0     C10615   3.918   5.376   1.444  0.1676  0.6935 -0.3897
   81MOL0     C10616   4.028   5.437   1.385  0.0078  0.2300  0.0170
   81MOL0     C10617   4.151   5.417   1.447  0.3077 -0.5258 -0.3012
   81MOL0     O10618   4.249   5.492   1.394 -0.3723 -0.6897 -0.5177
   81MOL0     C10619   4.381   5.484   1.451  0.7323  0.1529  0.4095
   81MOL0     C10620   4.459   5.367   1.407 -0.5191 -0.3497  1.2843
   81MOL0     C10621   4.433   5.325   1.267 -0.4059  0.6280  0.1667
   81MOL0     C10622   4.468   5.422   1.148 -0.3718  0.1184 -0.0584
   81MOL0     C10623   4.616   5.449   1.152  0.8354  0.0849 -0.3179
   81MOL0     C10624   4.723   5.502   1.166 -0.1970 -0.0877  0.2384
   81MOL0     C10625   4.164   5.345   1.564  0.6615  0.6381 -0.3550
   81MOL0     C10626   4.040   5.284   1.629 -0.3977  0.4397  0.0116
   81MOL0     H10627   3.453   5.373   1.470  1.3865 -0.7820 -0.3837
   81MOL0     H10628   3.226   5.307   1.523  0.1953 -0.7879  0.6648
   81MOL0     H10629   3.159   5.111   1.881  1.3891 -1.4881 -0.1864
   81MOL0     H10630   3.145   4.967   1.796  0.3782  0.1448 -1.6355
   81MOL0     H10631   2.933   5.017   1.892 -0.9500 -2.1561 -0.8167
   81MOL0     H10632   2.901   5.015   1.714 -0.5745  0.2273  0.6020
   81MOL0     H10633   2.931   5.271   1.720  1.2905 -1.9241 -1.9522
   81MOL0     H10634   2.910   5.264   1.889 -0.3209 -0.7486  1.1974
   81MOL0     H10635   2.691   5.147   1.714  1.3782  0.2442 -0.8371
   81MOL0     H10636   2.695   5.139   1.884  1.6900 -2.2015 -0.4788
   81MOL0     H10637   2.721   5.405   1.742  2.5759 -2.7713 -1.1839
   81MOL0     H10638   2.718   5.371   1.921 -0.1462 -2.0196  1.2545
   81MOL0     H10639   2.495   5.305   1.928  1.4183  0.5738  0.9091
   81MOL0     H10640   2.486   5.284   1.745  1.6234  2.7380 -2.6313
   81MOL0     H10641   2.484   5.538   1.895  0.5224 -1.3578  1.0306
   81MOL0     H10642   2.496   5.523   1.708 -1.6773 -1.7637 -0.9401
   81MOL0     H10643   2.276   5.435   1.883 -3.9418  1.7043 -0.4440
   81MOL0     H10644   2.293   5.409   1.705  0.8556  1.5597 -1.2789
   81MOL0     H10645   2.115   5.587   1.595 -0.9105  1.3208 -1.2126
   81MOL0     H10646   2.055   5.833   1.501  0.6023  0.4373 -0.1075
   81MOL0     H10647   2.064   5.972   1.625  0.3747 -0.5087  0.8823
   81MOL0     H10648   1.884   5.718   1.628 -0.9092 -0.3987 -3.2592
   81MOL0     H10649   1.835   5.867   1.547  0.2320 -0.4501  0.3927
   81MOL0     H10650   1.915   5.853   1.843 -0.3381  0.9986  0.8515
   81MOL0     H10651   1.844   5.993   1.775 -1.5661 -0.0424  0.8633
   81MOL0     H10652   1.667   5.880   1.898 -0.6548  1.8311 -1.0226
   81MOL0     H10653   1.696   5.728   1.796 -1.4038  0.7834 -2.9290
   81MOL0     H10654   1.496   5.712   1.887 -0.2965  0.0912 -1.1284
   81MOL0     H10655   1.266   5.669   1.910 -0.7571 -2.1674 -2.3401
   81MOL0     H10656   0.805   5.827   1.514  0.8565 -0.2051 -0.0400
   81MOL0     H10657   0.560   5.808   1.526 -2.2427 -2.1411  0.7125
   81MOL0     H10658   0.353   5.692   1.602  1.2711  0.6350 -0.0686
   81MOL0     H10659   0.358   5.871   1.587 -3.0099  0.9588 -1.7179
   81MOL0     H10660   0.164   5.843   1.765  0.8723  0.3132 -0.1300
   81MOL0     H10661   0.161   5.666   1.725  1.9019 -0.8908 -0.7144
   81MOL0     H10662   0.121   5.723   1.473 -1.0495 -0.4057  1.0762
   81MOL0     H10663   0.108   5.896   1.532 -0.7332  0.2780  0.8672
   81MOL0     H10664  -0.083   5.692   1.652 -0.3952  1.6782  3.0735
   81MOL0     H10665  -0.083   5.856   1.673 -0.3380 -1.0355  0.3306
   81MOL0     H10666  -0.169   5.715   1.439 -2.6731 -0.8687  1.9154
   81MOL0     H10667  -0.086   5.878   1.401 -2.9970 -0.2990 -1.9375
   81MOL0     H10668  -0.335   5.876   1.415  0.3625  0.9309  0.1379
   81MOL0     H10669  -0.258   5.987   1.530  1.9476  0.1321  1.1891
   81MOL0     H10670  -0.298   5.807   1.707 -0.4609 -4.4084  0.8144
   81MOL0     H10671  -0.441   5.888   1.641  0.8263  1.0487  0.3725
   81MOL0     H10672  -0.464   5.643   1.659  2.2079  2.0973  2.2255
   81MOL0     H10673  -0.337   5.628   1.528 -1.0838  0.2934  0.3602
   81MOL0     H10674   0.585   5.821   1.950 -0.8158 -2.1274  0.0008
   81MOL0     H10675   0.863   5.816   1.925  1.1250 -1.0348 -0.9785
   81MOL0     H10676   1.184   5.922   1.566 -3.6582 -1.3807  1.1748
   81MOL0     H10677   1.414   5.962   1.549  0.8961 -0.5156  0.9196
   81MOL0     H10678   3.354   5.034   1.816  1.6558  1.2625  1.4512
   81MOL0     H10679   3.593   5.072   1.748 -2.1826 -3.3814  0.1694
   81MOL0     H10680   3.817   5.379   1.405 -1.0836 -3.8976  1.8429
   81MOL0     H10681   4.020   5.494   1.293 -1.0676 -1.4856 -1.0283
   81MOL0     H10682   4.379   5.493   1.560 -0.5950 -1.2546  0.5460
   81MOL0     H10683   4.432   5.575   1.419  0.5761 -0.2857 -1.1655
   81MOL0     H10684   4.566   5.384   1.421 -1.0674  3.4231  1.9068
   81MOL0     H10685   4.432   5.282   1.471  1.4439 -1.5226  0.6463
   81MOL0     H10686   4.333   5.286   1.244  0.2673 -0.1913 -1.5729
   81MOL0     H10687   4.492   5.233   1.264 -2.3923 -0.9181  3.0723
   81MOL0     H10688   4.436   5.373   1.055 -2.2529 -1.4517  1.3140
   81MOL0     H10689   4.410   5.514   1.157 -1.7920 -0.7685  0.1617
   81MOL0     H10690   4.810   5.563   1.151  0.6271 -1.2590  0.1068
   81MOL0     H10691   4.258   5.330   1.614 -1.3764 -1.7205  3.2303
   81MOL0     H10692   4.071   5.225   1.714  2.6816 -2.2861 -2.7024
   82MOL0     O10693   4.429   7.925   5.995  0.2059 -0.0932  0.8275
   82MOL0     C10694   4.361   8.035   5.992 -0.5582  0.0242  0.1254
   82MOL0     O10695   4.231   8.048   5.970  0.0199 -0.3739  0.6870
   82MOL0     C10696   4.155   7.933   5.988  0.2951  0.0499  0.4982
   82MOL0     C10697   4.050   7.918   5.892 -0.4758  0.3681 -0.1159
   82MOL0     C10698   3.954   7.817   5.910  0.3186  0.4434  0.4784
   82MOL0     C10699   3.967   7.728   6.012 -1.7125  0.0884 -0.1051
   82MOL0     O10700   3.874   7.632   6.020 -0.0796  0.3451  0.5515
   82MOL0     C10701   3.797   7.618   6.136 -0.0948 -0.5414 -0.8606
   82MOL0     C10702   3.653   7.612   6.085  0.3060  0.6042 -0.0743
   82MOL0     C10703   3.612   7.708   5.980  0.9756  0.0895 -0.1970
   82MOL0     C10704   3.471   7.764   6.003  0.1079 -0.2830  0.4335
   82MOL0     C10705   3.354   7.662   5.981 -0.2502 -0.7802 -0.3089
   82MOL0     C10706   3.211   7.722   6.001 -0.3491  0.7950 -0.0907
   82MOL0     C10707   3.109   7.611   5.983  0.9703  0.1310 -0.0705
   82MOL0     C10708   2.978   7.669   6.010  0.7164 -0.0756  0.2846
   82MOL0     N10709   2.863   7.585   5.981 -0.0496  0.1541 -0.1499
   82MOL0     C10710   2.786   7.597   5.867 -0.9118  0.1985 -0.2208
   82MOL0     C10711   2.686   7.509   5.884 -0.2271  0.4819 -0.9265
   82MOL0     C10712   2.572   7.498   5.792  0.2003  0.2765 -0.0925
   82MOL0     C10713   2.443   7.456   5.867 -0.1483  0.4517  0.6308
   82MOL0     C10714   2.348   7.367   5.784 -0.5338  0.3927 -0.7215
   82MOL0     C10715   2.239   7.325   5.870 -0.0679 -0.3191 -0.8202
   82MOL0     O10716   2.137   7.261   5.787 -0.3452 -0.5425  0.7933
   82MOL0     C10717   2.009   7.253   5.821  0.9618 -0.1786 -0.4733
   82MOL0     C10718   1.912   7.240   5.721  0.2268  0.3152  0.2058
   82MOL0     C10719   1.772   7.230   5.749 -0.3458 -0.1223 -0.6532
   82MOL0     C10720   1.725   7.247   5.880 -0.4937 -0.7151  0.3091
   82MOL0     C10721   1.580   7.261   5.908 -0.8274  0.0432  0.7265
   82MOL0     O10722   1.491   7.186   5.834 -0.4399  0.3893 -0.2454
   82MOL0     C10723   1.360   7.207   5.838  0.9565  0.2991  0.3643
   82MOL0     C10724   1.275   7.094   5.826  0.6411 -0.1724  0.3794
   82MOL0     C10725   1.133   7.109   5.851  0.0117  0.0193 -0.1186
   82MOL0     C10726   1.077   7.233   5.889 -0.8751 -0.6077 -0.1812
   82MOL0     O10727   0.945   7.245   5.925 -0.2738 -0.0680  0.5332
   82MOL0     C10728   0.861   7.135   5.886  0.5906  0.0314  0.2167
   82MOL0     C10729   0.718   7.170   5.944 -0.1323 -0.0022 -0.1181
   82MOL0     C10730   0.625   7.083   5.861 -0.3412  0.0206 -1.0895
   82MOL0     C10731   0.475   7.119   5.881  0.2504 -0.5944 -1.5148
   82MOL0     C10732   0.380   7.020   5.822  0.2902  0.5960  0.4649
   82MOL0     C10733   0.247   7.027   5.897  0.2370  1.1090 -0.2627
   82MOL0     C10734   0.136   6.938   5.834 -0.7158  0.8978 -0.8055
   82MOL0     C10735   0.007   6.972   5.899 -0.0115  0.6229 -0.8308
   82MOL0    Cl10736   0.001   6.931   6.076 -0.1072 -0.1199 -0.0063
   82MOL0     C10737   1.165   7.343   5.901  1.1640  0.9656 -0.1633
   82MOL0     C10738   1.304   7.327   5.880 -0.2472  1.0804 -0.4311
   82MOL0     O10739   1.547   7.331   6.000 -0.6783  0.1038  0.0547
   82MOL0     C10740   1.828   7.260   5.979  0.8967  0.3898 -0.4252
   82MOL0     C10741   1.971   7.261   5.949 -0.0064  0.4334  0.5602
   82MOL0     N10742   2.704   7.438   6.006  0.9451 -0.5369  0.0391
   82MOL0     N10743   2.815   7.480   6.052 -0.2893  1.0429  0.0773
   82MOL0     C10744   4.074   7.742   6.110 -0.4901  0.5332  0.1360
   82MOL0     C10745   4.166   7.847   6.094 -0.6040  0.6594  0.3706
   82MOL0     C10746   4.439   8.161   6.006 -0.0391 -0.5955 -0.0440
   82MOL0     C10747   4.565   8.169   5.941  0.5543  0.1682 -0.9155
   82MOL0     C10748   4.639   8.289   5.937 -0.3775  0.2671 -0.1124
   82MOL0     C10749   4.576   8.401   5.986  0.1379 -0.4561 -0.1344
   82MOL0     O10750   4.639   8.530   5.967 -0.8320  0.7049  0.1655
   82MOL0     C10751   4.555   8.631   5.921 -0.2661  0.4279 -0.3585
   82MOL0     C10752   4.638   8.739   5.843 -0.5264 -0.3796  0.5053
   82MOL0     C10753   4.580   8.775   5.703  0.5894  0.3365  0.3746
   82MOL0     C10754   4.660   8.885   5.648 -0.3934  0.4890 -0.9510
   82MOL0     C10755   4.613   8.948   5.520 -0.1029  0.6250  0.1365
   82MOL0     C10756   4.573   8.992   5.416  0.0905  0.2118 -0.2830
   82MOL0     C10757   4.448   8.398   6.049 -0.5488 -0.5436 -0.2461
   82MOL0     C10758   4.382   8.277   6.059  1.0516 -0.3839  0.1781
   82MOL0     H10759   4.051   7.981   5.803 -0.5292 -0.3044 -0.6013
   82MOL0     H10760   3.882   7.797   5.831  1.0761 -0.4057 -0.0204
   82MOL0     H10761   3.797   7.712   6.191 -2.3788  1.8760 -4.5125
   82MOL0     H10762   3.829   7.536   6.201 -3.8030 -1.9883 -0.6084
   82MOL0     H10763   3.589   7.644   6.168 -0.9192  3.0262 -1.8277
   82MOL0     H10764   3.639   7.508   6.053  2.3686  0.1059  0.5205
   82MOL0     H10765   3.621   7.660   5.882  0.2456 -0.5274  0.0228
   82MOL0     H10766   3.671   7.799   5.993 -0.0905  0.8053 -0.2545
   82MOL0     H10767   3.471   7.809   6.103  3.3639  1.1406 -0.0923
   82MOL0     H10768   3.449   7.844   5.931 -0.6100  1.2713  2.2656
   82MOL0     H10769   3.368   7.587   6.059 -1.5427  1.4778  2.2411
   82MOL0     H10770   3.359   7.625   5.878 -2.3082 -1.0114 -0.3640
   82MOL0     H10771   3.203   7.798   5.923 -0.6528  0.2445 -0.6056
   82MOL0     H10772   3.213   7.775   6.096  0.8438  1.0088 -0.2240
   82MOL0     H10773   3.114   7.571   5.881  0.8293 -1.2226  0.4330
   82MOL0     H10774   3.134   7.531   6.053 -2.5526 -1.7272 -0.7423
   82MOL0     H10775   2.966   7.762   5.953 -1.4350 -1.2914 -1.4207
   82MOL0     H10776   2.975   7.696   6.116  1.3656 -0.8747  0.5192
   82MOL0     H10777   2.804   7.669   5.787  2.1118 -2.0712 -1.8092
   82MOL0     H10778   2.602   7.432   5.710  1.0846  1.7639 -0.9984
   82MOL0     H10779   2.560   7.600   5.754 -0.9925  0.7620  1.4892
   82MOL0     H10780   2.384   7.539   5.906 -2.9940 -0.8285 -0.6895
   82MOL0     H10781   2.466   7.395   5.955 -1.9633  1.7641  2.1144
   82MOL0     H10782   2.319   7.430   5.700  0.4429  1.5804 -0.2080
   82MOL0     H10783   2.402   7.277   5.755 -0.7962  0.3030 -0.9366
   82MOL0     H10784   2.197   7.414   5.917 -1.1297 -2.4411  2.6530
   82MOL0     H10785   2.270   7.252   5.946 -3.0852 -2.3509 -1.3371
   82MOL0     H10786   1.957   7.237   5.622  1.9193  1.4179  0.8911
   82MOL0     H10787   1.695   7.226   5.673 -0.6488 -1.2800 -0.2909
   82MOL0     H10788   1.303   7.003   5.774  1.5012 -0.0218  0.5721
   82MOL0     H10789   1.071   7.020   5.849  1.7279 -1.5051  3.9091
   82MOL0     H10790   0.890   7.040   5.932 -0.4453 -0.9944 -1.1388
   82MOL0     H10791   0.862   7.127   5.777 -1.9083 -0.2322  0.1547
   82MOL0     H10792   0.693   7.275   5.927 -2.2514 -0.8922 -3.3221
   82MOL0     H10793   0.702   7.146   6.050 -0.1591  1.6689  0.3002
   82MOL0     H10794   0.638   6.979   5.892  1.2241  0.4612 -0.1245
   82MOL0     H10795   0.643   7.103   5.755 -0.5171  2.1521 -0.7599
   82MOL0     H10796   0.454   7.119   5.988 -0.4459  1.6312 -1.5905
   82MOL0     H10797   0.450   7.222   5.851 -1.9827 -0.1436  1.4683
   82MOL0     H10798   0.420   6.919   5.838 -1.5495 -0.3610 -0.6096
   82MOL0     H10799   0.354   7.024   5.716 -5.7963 -2.4422  1.3559
   82MOL0     H10800   0.217   7.132   5.887  0.5063  1.3701  1.4524
   82MOL0     H10801   0.259   7.007   6.003 -4.0319  0.4076  0.2685
   82MOL0     H10802   0.137   6.959   5.727  4.7301 -1.0559 -1.4616
   82MOL0     H10803   0.163   6.834   5.854  3.0953  2.1507  1.7546
   82MOL0     H10804  -0.061   6.901   5.851  0.9687 -1.5866  0.8894
   82MOL0     H10805  -0.009   7.079   5.880  2.6276  1.0434 -0.9889
   82MOL0     H10806   1.123   7.436   5.937  1.3569  0.1840  2.2728
   82MOL0     H10807   1.366   7.417   5.881  0.4337  0.6150 -0.1559
   82MOL0     H10808   1.803   7.272   6.083  0.0588 -0.6342 -0.4879
   82MOL0     H10809   2.039   7.275   6.032 -0.0914 -1.0670  0.9124
   82MOL0     H10810   4.075   7.667   6.189 -0.1787  1.5128  1.0808
   82MOL0     H10811   4.254   7.866   6.155  0.4582 -0.4641 -0.7552
   82MOL0     H10812   4.602   8.082   5.889 -2.4372 -1.9590  0.2593
   82MOL0     H10813   4.732   8.308   5.885  0.5138 -2.1249  0.4863
   82MOL0     H10814   4.490   8.687   5.989 -0.3852  2.5967 -2.1217
   82MOL0     H10815   4.486   8.580   5.852 -1.3012  0.8880  0.3118
   82MOL0     H10816   4.641   8.828   5.906  1.7596 -0.1172  0.0909
   82MOL0     H10817   4.740   8.702   5.829  0.4607  1.5614  2.0721
   82MOL0     H10818   4.474   8.804   5.707  0.6906  0.7141  0.3498
   82MOL0     H10819   4.592   8.684   5.643  0.5245  0.2436  0.5021
   82MOL0     H10820   4.652   8.969   5.718  0.6573  0.6821 -1.0512
   82MOL0     H10821   4.765   8.862   5.628 -0.2018 -0.2363  0.7087
   82MOL0     H10822   4.524   9.043   5.336  2.4592 -0.0242 -1.9856
   82MOL0     H10823   4.400   8.488   6.085 -1.2855 -0.6432 -0.9458
   82MOL0     H10824   4.285   8.279   6.108  1.7556  1.1074  1.6103
   83MOL0     O10825   2.653  10.815   0.087 -0.0547  0.1625 -0.2201
   83MOL0     C10826   2.729  10.894   0.029 -0.6297 -0.2546 -0.6161
   83MOL0     O10827   2.696  10.987  -0.068  0.1153  0.1110  0.1600
   83MOL0     C10828   2.565  11.027  -0.104 -0.1410 -0.0076  0.0999
   83MOL0     C10829   2.540  11.035  -0.245  0.1767 -0.4272  0.7240
   83MOL0     C10830   2.432  11.099  -0.291 -1.1006  0.3850 -0.7637
   83MOL0     C10831   2.330  11.139  -0.204 -0.4630  0.6328  0.9293
   83MOL0     O10832   2.212  11.166  -0.271 -1.0325  0.3615  0.1480
   83MOL0     C10833   2.100  11.211  -0.190  0.0021  0.1780 -1.2182
   83MOL0     C10834   1.992  11.279  -0.271 -0.0576  0.1203  0.2779
   83MOL0     C10835   1.860  11.298  -0.199 -0.9730  0.3835  0.0011
   83MOL0     C10836   1.756  11.338  -0.308 -0.3496 -0.3126 -0.1587
   83MOL0     C10837   1.625  11.385  -0.257 -0.0721 -0.6769 -0.9362
   83MOL0     C10838   1.551  11.293  -0.161 -0.2687  0.6308 -0.1765
   83MOL0     C10839   1.433  11.368  -0.097  0.2262  0.5740 -0.4707
   83MOL0     C10840   1.351  11.279  -0.007 -0.1226  0.8993 -1.1326
   83MOL0     N10841   1.280  11.179  -0.083 -0.0227  0.4465  0.0036
   83MOL0     C10842   1.150  11.186  -0.127  0.4378  0.4047 -0.5206
   83MOL0     C10843   1.116  11.063  -0.179 -0.4265  0.0528  0.0446
   83MOL0     C10844   0.995  11.008  -0.241  0.4874 -0.3938 -0.4701
   83MOL0     C10845   0.956  10.869  -0.203  0.3180  0.4943  0.1023
   83MOL0     C10846   0.894  10.826  -0.064 -0.6255 -1.2717  1.0917
   83MOL0     C10847   0.767  10.905  -0.028  0.4621 -1.0606  0.3042
   83MOL0     O10848   0.663  10.886  -0.134  0.3680  0.3720  0.0371
   83MOL0     C10849   0.526  10.897  -0.100 -0.3086 -0.8796  0.8731
   83MOL0     C10850   0.489  10.964   0.020 -0.1172  0.6969  0.2939
   83MOL0     C10851   0.354  10.980   0.046  0.1265 -0.6734 -0.7836
   83MOL0     C10852   0.259  10.912  -0.035 -0.3122  1.0604  0.1412
   83MOL0     C10853   0.122  10.910   0.004 -0.4864 -0.1387 -0.8815
   83MOL0     O10854   0.030  10.879  -0.089  0.4279 -0.2328 -0.0463
   83MOL0     C10855  -0.102  10.886  -0.060  0.3125 -0.5403 -1.0202
   83MOL0     C10856  -0.190  10.773  -0.054  0.3218  0.0251  0.4237
   83MOL0     C10857  -0.321  10.785  -0.027  0.6702  0.0880 -0.4385
   83MOL0     C10858  -0.371  10.908   0.028 -0.1444  0.1907 -0.2749
   83MOL0     O10859  -0.501  10.944   0.058 -0.3505  0.4238  0.9180
   83MOL0     C10860  -0.585  10.843   0.111  0.1085 -0.1996 -0.2744
   83MOL0     C10861  -0.723  10.908   0.155  0.2707  0.4162  0.6139
   83MOL0     C10862  -0.704  10.991   0.285  0.1268 -0.0634  0.0415
   83MOL0     C10863  -0.825  11.061   0.341  0.6163  1.0802 -0.2347
   83MOL0     C10864  -0.806  11.121   0.473 -0.0322  0.4160  0.1163
   83MOL0     C10865  -0.826  11.019   0.579  0.0593 -0.6003 -0.7586
   83MOL0     C10866  -0.842  11.097   0.711 -0.0010 -1.1923  0.9410
   83MOL0     C10867  -0.953  11.055   0.795  0.2570  0.1864  0.7917
   83MOL0    Cl10868  -0.930  10.877   0.843  0.0569 -0.2535  0.4099
   83MOL0     C10869  -0.287  11.014   0.035  1.1197 -0.5980 -0.0700
   83MOL0     C10870  -0.156  11.010  -0.019 -0.1915  0.2464 -1.3572
   83MOL0     O10871   0.098  10.942   0.124 -0.0862 -0.1729 -0.5362
   83MOL0     C10872   0.296  10.838  -0.146  0.5956  0.1848  0.0626
   83MOL0     C10873   0.426  10.837  -0.187 -0.0883 -0.0792 -0.6436
   83MOL0     N10874   1.222  10.977  -0.164  1.4056  0.2223  0.2087
   83MOL0     N10875   1.321  11.054  -0.117  0.0869  0.6166  0.0461
   83MOL0     C10876   2.350  11.120  -0.065 -0.6514  0.1826 -0.1030
   83MOL0     C10877   2.465  11.069  -0.008  0.2098 -0.5216 -0.4131
   83MOL0     C10878   2.875  10.880   0.058  0.0288  0.0660 -0.3186
   83MOL0     C10879   2.928  10.782   0.138 -0.8455  0.2587  0.9430
   83MOL0     C10880   3.061  10.785   0.189 -0.6516 -0.1036  0.1805
   83MOL0     C10881   3.135  10.902   0.164 -0.3389  0.8108 -0.4893
   83MOL0     O10882   3.273  10.904   0.195  0.1391  0.2418  0.0023
   83MOL0     C10883   3.332  11.030   0.210  0.6361 -0.1018 -0.5542
   83MOL0     C10884   3.473  11.027   0.264  0.7396  0.2282 -0.4364
   83MOL0     C10885   3.568  10.913   0.235  0.1694 -0.6775 -0.1409
   83MOL0     C10886   3.682  10.896   0.342 -0.4325 -0.6699 -0.1981
   83MOL0     C10887   3.766  11.013   0.360  0.0277  0.3202  0.4019
   83MOL0     C10888   3.843  11.106   0.369  0.1585  0.5561  0.3601
   83MOL0     C10889   3.080  10.993   0.080 -0.4304  0.1265  0.2599
   83MOL0     C10890   2.954  10.992   0.021  0.7825  0.1508 -1.1352
   83MOL0     H10891   2.618  10.998  -0.311 -2.1636 -1.6003 -1.5513
   83MOL0     H10892   2.421  11.118  -0.397 -0.0560 -0.0408 -0.9526
   83MOL0     H10893   2.134  11.289  -0.121 -0.6968  1.1279 -1.9274
   83MOL0     H10894   2.065  11.125  -0.131 -1.4798  1.0888 -0.7084
   83MOL0     H10895   1.988  11.211  -0.357  1.1560 -0.4107  0.6194
   83MOL0     H10896   2.036  11.375  -0.300  5.0401 -2.2439 -0.9592
   83MOL0     H10897   1.870  11.378  -0.125  1.9953  1.7305 -1.6633
   83MOL0     H10898   1.828  11.213  -0.139 -0.7276 -0.9366 -1.6669
   83MOL0     H10899   1.791  11.410  -0.383  0.2310 -1.3532 -0.9213
   83MOL0     H10900   1.719  11.251  -0.363  0.5556 -1.6554  1.2820
   83MOL0     H10901   1.560  11.415  -0.340  1.4769  0.3345 -1.8311
   83MOL0     H10902   1.639  11.477  -0.199 -2.1831 -0.1843 -1.1211
   83MOL0     H10903   1.603  11.257  -0.071 -1.0246  1.4868  0.6258
   83MOL0     H10904   1.516  11.203  -0.212 -0.6833  0.0100  1.1528
   83MOL0     H10905   1.477  11.447  -0.037  1.4515 -2.1319  2.4670
   83MOL0     H10906   1.370  11.415  -0.173 -1.4374 -0.6792  0.0544
   83MOL0     H10907   1.279  11.337   0.050 -4.0641 -2.8794 -1.7357
   83MOL0     H10908   1.421  11.234   0.065 -0.3714  2.5360  0.1994
   83MOL0     H10909   1.094  11.277  -0.108  1.2722  0.4404  2.2966
   83MOL0     H10910   1.006  11.012  -0.350 -0.0950  1.6427 -0.5072
   83MOL0     H10911   0.907  11.072  -0.229 -0.7672 -1.8155 -1.7394
   83MOL0     H10912   1.046  10.817  -0.237 -0.0507  0.4846 -0.8912
   83MOL0     H10913   0.880  10.847  -0.280  1.8826 -0.2047 -1.3023
   83MOL0     H10914   0.882  10.717  -0.065  0.3611 -1.5229 -3.0116
   83MOL0     H10915   0.967  10.838   0.017 -0.2910  1.2685  0.4934
   83MOL0     H10916   0.781  11.013  -0.028  1.2983 -1.0664  3.4919
   83MOL0     H10917   0.735  10.873   0.072  1.3156  0.1667  0.9955
   83MOL0     H10918   0.565  10.995   0.091  1.4024 -1.3510 -0.3240
   83MOL0     H10919   0.322  11.028   0.139  0.5156  0.1294 -1.0548
   83MOL0     H10920  -0.142  10.679  -0.078  0.2105  0.4678 -1.7879
   83MOL0     H10921  -0.383  10.696  -0.025  0.4775  0.2342  0.8850
   83MOL0     H10922  -0.543  10.789   0.196 -0.1074  1.5804  1.0355
   83MOL0     H10923  -0.611  10.763   0.042 -0.9701 -0.3250  0.2461
   83MOL0     H10924  -0.797  10.828   0.164  0.7451 -0.8431 -4.1506
   83MOL0     H10925  -0.760  10.971   0.074  1.5744 -0.1652 -0.4860
   83MOL0     H10926  -0.635  11.071   0.259  0.5350 -0.9767 -1.9234
   83MOL0     H10927  -0.668  10.925   0.364 -0.2440 -0.6835 -0.2931
   83MOL0     H10928  -0.854  11.133   0.264  1.3216  1.2170 -0.3800
   83MOL0     H10929  -0.906  10.987   0.347  2.1649 -0.7845 -1.0092
   83MOL0     H10930  -0.861  11.215   0.484 -0.2875  0.2111  0.6161
   83MOL0     H10931  -0.703  11.156   0.481 -0.1922  1.3065 -1.3308
   83MOL0     H10932  -0.744  10.946   0.580 -0.8270 -1.7031  2.5340
   83MOL0     H10933  -0.912  10.960   0.547 -0.7871 -0.3712  0.9522
   83MOL0     H10934  -0.751  11.092   0.772  1.2410  1.1403 -0.5597
   83MOL0     H10935  -0.870  11.202   0.698 -1.8923 -1.4933  2.2586
   83MOL0     H10936  -1.051  11.067   0.748  0.1783  0.6945  1.0784
   83MOL0     H10937  -0.957  11.125   0.879  1.0289 -0.7268  1.6056
   83MOL0     H10938  -0.326  11.108   0.072  0.1835 -0.5604 -1.0797
   83MOL0     H10939  -0.107  11.107  -0.023  0.3465 -0.0276 -1.5723
   83MOL0     H10940   0.223  10.775  -0.194 -0.5790  0.8736  0.8992
   83MOL0     H10941   0.438  10.787  -0.282 -0.4413  0.2783 -0.8819
   83MOL0     H10942   2.262  11.143  -0.006 -1.7101 -1.3699 -0.9951
   83MOL0     H10943   2.473  11.054   0.099 -0.4260 -2.4562 -0.5937
   83MOL0     H10944   2.859  10.700   0.157 -0.4863 -0.4414 -0.5551
   83MOL0     H10945   3.116  10.707   0.242 -0.1935 -1.0729 -1.6281
   83MOL0     H10946   3.271  11.091   0.277 -0.9885 -0.1900 -1.8935
   83MOL0     H10947   3.342  11.082   0.114  1.4319 -0.4334 -0.6622
   83MOL0     H10948   3.516  11.121   0.228 -1.0271  0.7403 -1.2815
   83MOL0     H10949   3.472  11.033   0.374  0.8392 -0.5672 -0.3863
   83MOL0     H10950   3.610  10.930   0.135  0.9419  1.1097  0.4532
   83MOL0     H10951   3.510  10.820   0.236 -0.8253 -0.0713  0.7573
   83MOL0     H10952   3.635  10.873   0.439 -0.3804 -1.1957 -0.2995
   83MOL0     H10953   3.752  10.814   0.323  3.4266  2.0104  1.1306
   83MOL0     H10954   3.919  11.173   0.405  1.3505  0.3133 -1.6049
   83MOL0     H10955   3.138  11.078   0.045 -0.2080  0.0988  0.5636
   83MOL0     H10956   2.919  11.059  -0.056 -0.4396 -0.3478 -1.0376
   84MOL0     O10957   2.352   4.916   3.283 -0.2788 -0.3873 -0.1846
   84MOL0     C10958   2.333   4.804   3.333  1.4318  0.1456  1.0650
   84MOL0     O10959   2.425   4.710   3.356 -0.0131  0.4475  0.2339
   84MOL0     C10960   2.539   4.732   3.290 -0.2152  0.6196 -1.0979
   84MOL0     C10961   2.664   4.750   3.360  0.2329 -0.2167  0.2965
   84MOL0     C10962   2.777   4.780   3.285  0.4522 -0.3411 -0.6727
   84MOL0     C10963   2.772   4.782   3.143 -0.2072 -0.0495 -0.0243
   84MOL0     O10964   2.887   4.810   3.059  0.0747 -0.2917 -0.4074
   84MOL0     C10965   3.017   4.812   3.127  0.2009 -0.6777  0.8569
   84MOL0     C10966   3.132   4.845   3.038 -0.2080  0.6546  0.3636
   84MOL0     C10967   3.139   4.769   2.910  0.1767  0.5712 -0.2316
   84MOL0     C10968   3.182   4.612   2.920  0.6770  0.1302 -0.1426
   84MOL0     C10969   3.194   4.538   2.788 -0.1090  0.4713  0.0011
   84MOL0     C10970   3.162   4.390   2.795 -0.0341  0.1221 -0.8373
   84MOL0     C10971   3.022   4.350   2.853 -0.3303  1.1401  0.1575
   84MOL0     C10972   2.915   4.395   2.755 -0.0139 -0.5365  0.0224
   84MOL0     N10973   2.775   4.374   2.783 -0.7225 -0.2405 -0.0139
   84MOL0     C10974   2.689   4.328   2.686  0.3949  0.6569  0.0991
   84MOL0     C10975   2.569   4.359   2.729 -0.7275  0.1973 -0.0845
   84MOL0     C10976   2.441   4.353   2.649  0.2622  0.5610 -0.2599
   84MOL0     C10977   2.342   4.254   2.706  0.4621 -0.8452 -0.5875
   84MOL0     C10978   2.218   4.256   2.618  0.4940 -0.1687 -1.0399
   84MOL0     C10979   2.098   4.171   2.665 -0.0097  0.7855 -0.0535
   84MOL0     O10980   1.984   4.211   2.586  0.0612 -0.3834  0.1408
   84MOL0     C10981   1.861   4.164   2.619 -0.2932 -0.3958 -0.0451
   84MOL0     C10982   1.750   4.221   2.548  0.5307  0.1239  0.3826
   84MOL0     C10983   1.621   4.175   2.576  0.6012 -0.3732 -0.9147
   84MOL0     C10984   1.596   4.060   2.655  0.1692 -0.1955  0.4727
   84MOL0     C10985   1.462   4.002   2.672 -0.6281  0.3620  0.4053
   84MOL0     O10986   1.379   4.032   2.577  0.3255 -0.1289 -0.0288
   84MOL0     C10987   1.255   3.983   2.571  0.7597  0.0450  0.4490
   84MOL0     C10988   1.194   3.875   2.647 -0.9739 -0.1534 -0.0326
   84MOL0     C10989   1.067   3.825   2.619 -0.0937 -0.4616  0.2175
   84MOL0     C10990   0.983   3.885   2.528  0.0205 -0.1154  0.4781
   84MOL0     O10991   0.845   3.865   2.537 -0.0959 -0.0642 -0.3666
   84MOL0     C10992   0.801   3.752   2.474 -0.4227  0.8669  0.3322
   84MOL0     C10993   0.654   3.717   2.504 -0.4941 -0.8509 -0.5686
   84MOL0     C10994   0.640   3.607   2.611  0.5345  0.3951 -0.3915
   84MOL0     C10995   0.488   3.570   2.630  0.2667 -0.5212 -1.1792
   84MOL0     C10996   0.464   3.437   2.704 -0.2408  0.4437  0.3006
   84MOL0     C10997   0.323   3.404   2.722 -0.2108 -0.7587  1.2629
   84MOL0     C10998   0.260   3.336   2.600  0.2735  0.7713  0.2049
   84MOL0     C10999   0.105   3.320   2.630 -0.7388  0.2763 -0.2951
   84MOL0    Cl11000   0.034   3.269   2.477 -0.2195  0.1172  0.4536
   84MOL0     C11001   1.037   3.993   2.455  1.1973 -0.2691  0.5470
   84MOL0     C11002   1.174   4.033   2.469 -0.9905 -0.0296  0.3850
   84MOL0     O11003   1.439   3.935   2.769  1.0262  0.4991  0.5998
   84MOL0     C11004   1.701   4.002   2.720  0.5638 -0.4839  0.3193
   84MOL0     C11005   1.834   4.059   2.703 -0.4296  0.2201 -0.6824
   84MOL0     N11006   2.579   4.406   2.858 -0.3707 -0.8188 -0.3980
   84MOL0     N11007   2.706   4.418   2.886  0.3804  0.0579 -1.0096
   84MOL0     C11008   2.656   4.756   3.069  0.4929 -0.0781 -0.1710
   84MOL0     C11009   2.547   4.726   3.146  0.7462  0.7899 -0.0299
   84MOL0     C11010   2.190   4.771   3.353 -0.4958 -0.5042 -0.1900
   84MOL0     C11011   2.156   4.642   3.386 -0.2994 -0.5481 -0.0983
   84MOL0     C11012   2.022   4.611   3.425 -0.2645  0.4157 -0.1692
   84MOL0     C11013   1.925   4.709   3.453 -0.4024 -0.4453 -0.0490
   84MOL0     O11014   1.801   4.666   3.489 -0.5057  0.1270 -0.5843
   84MOL0     C11015   1.729   4.776   3.543  0.0582 -0.5750 -0.3051
   84MOL0     C11016   1.596   4.735   3.611 -0.1775  0.1599  1.1145
   84MOL0     C11017   1.531   4.858   3.667 -0.8801  0.8888  0.7276
   84MOL0     C11018   1.401   4.844   3.738  0.3097  0.6751 -0.0794
   84MOL0     C11019   1.400   4.733   3.830  0.2682  0.2629 -0.9221
   84MOL0     C11020   1.405   4.650   3.925 -0.5169 -1.0478  0.4251
   84MOL0     C11021   1.964   4.841   3.415 -0.2761 -0.1946 -0.6985
   84MOL0     C11022   2.094   4.870   3.370 -0.3163  0.2217 -0.1335
   84MOL0     H11023   2.659   4.755   3.468  2.3080 -3.0736  0.6383
   84MOL0     H11024   2.866   4.799   3.345 -0.2493  0.9966 -0.0194
   84MOL0     H11025   3.042   4.714   3.168  1.2054  0.0892  2.1657
   84MOL0     H11026   3.018   4.876   3.216 -0.5980  0.4825  0.0597
   84MOL0     H11027   3.231   4.845   3.085  0.3456  0.0655 -0.7801
   84MOL0     H11028   3.114   4.946   3.002 -0.5017 -0.3546 -2.5789
   84MOL0     H11029   3.215   4.822   2.852  0.4325  0.9139  0.4163
   84MOL0     H11030   3.039   4.775   2.866 -0.6539  0.5755  1.5669
   84MOL0     H11031   3.276   4.602   2.975  1.0474 -0.3549 -0.8362
   84MOL0     H11032   3.106   4.570   2.986 -0.9666  0.2828 -1.8262
   84MOL0     H11033   3.294   4.556   2.748  0.2745  2.8862  1.8320
   84MOL0     H11034   3.117   4.580   2.722 -2.2576 -0.4767  1.7528
   84MOL0     H11035   3.246   4.344   2.848 -1.5628 -1.6703  0.1177
   84MOL0     H11036   3.170   4.349   2.694  0.3319 -1.6159 -0.1252
   84MOL0     H11037   3.029   4.241   2.858  0.6459  1.1771 -0.3354
   84MOL0     H11038   3.013   4.386   2.956  0.3183  1.6728  0.0300
   84MOL0     H11039   2.942   4.352   2.658  0.1492  0.2912 -0.3063
   84MOL0     H11040   2.935   4.503   2.753 -4.6820  0.5393  0.0318
   84MOL0     H11041   2.716   4.284   2.590 -1.2690  1.9322 -1.0029
   84MOL0     H11042   2.464   4.327   2.545  1.7778  1.8320 -0.2955
   84MOL0     H11043   2.396   4.453   2.651  1.8864  1.3217  1.6430
   84MOL0     H11044   2.323   4.293   2.807 -0.3129  0.1393 -1.0992
   84MOL0     H11045   2.382   4.153   2.722 -3.4191 -2.1625  2.4980
   84MOL0     H11046   2.173   4.356   2.619  1.2559  0.3260  2.9875
   84MOL0     H11047   2.247   4.219   2.520  1.3296 -1.7092 -0.2525
   84MOL0     H11048   2.072   4.191   2.770  1.1451  1.8571  0.0505
   84MOL0     H11049   2.114   4.066   2.640 -0.5079  0.8179 -0.5292
   84MOL0     H11050   1.755   4.288   2.463 -1.5667 -1.3473 -1.0243
   84MOL0     H11051   1.532   4.228   2.543  1.0534  1.1368  0.2090
   84MOL0     H11052   1.252   3.816   2.717  1.6105 -1.8388 -3.3272
   84MOL0     H11053   1.017   3.743   2.670 -0.6889  0.9059  1.9179
   84MOL0     H11054   0.864   3.667   2.501 -1.0596 -0.0034 -0.8345
   84MOL0     H11055   0.814   3.762   2.366 -1.3656  2.7920  0.3417
   84MOL0     H11056   0.603   3.683   2.413 -0.3650 -1.1529 -0.5298
   84MOL0     H11057   0.604   3.808   2.539  1.2017  0.0504 -0.3675
   84MOL0     H11058   0.680   3.628   2.710  2.0414  0.6026 -1.0103
   84MOL0     H11059   0.679   3.516   2.566  2.5845  1.5174 -1.0026
   84MOL0     H11060   0.442   3.653   2.685  1.1480 -1.2462  0.7618
   84MOL0     H11061   0.444   3.567   2.530 -2.7846 -2.9432  0.0784
   84MOL0     H11062   0.514   3.442   2.801 -0.4795  1.7540  0.3656
   84MOL0     H11063   0.500   3.349   2.649 -2.5928 -0.6841  0.4457
   84MOL0     H11064   0.265   3.493   2.748 -0.3839 -0.4911  0.0300
   84MOL0     H11065   0.314   3.341   2.811 -1.1733  0.2320  1.8854
   84MOL0     H11066   0.282   3.401   2.514  1.4903 -1.8860 -1.6223
   84MOL0     H11067   0.313   3.241   2.587  1.3805  1.6287 -2.0403
   84MOL0     H11068   0.051   3.408   2.665 -1.3393  0.1612 -0.9161
   84MOL0     H11069   0.097   3.239   2.703  4.5837  0.1187  0.5332
   84MOL0     H11070   0.970   4.035   2.381  1.6157 -2.7352 -1.3098
   84MOL0     H11071   1.212   4.104   2.396 -1.2425 -1.1427 -0.8892
   84MOL0     H11072   1.704   3.911   2.779  1.6400  2.0511  4.5920
   84MOL0     H11073   1.909   4.013   2.766 -0.5356  0.8196 -0.1041
   84MOL0     H11074   2.651   4.771   2.962 -2.5091  0.0733 -0.0830
   84MOL0     H11075   2.451   4.696   3.105  0.4514  2.2145 -0.4106
   84MOL0     H11076   2.235   4.567   3.381  1.4929  1.1280  1.2921
   84MOL0     H11077   2.000   4.505   3.433  3.5179 -0.7057 -2.2116
   84MOL0     H11078   1.709   4.859   3.474 -1.3895 -0.6674 -0.0208
   84MOL0     H11079   1.791   4.829   3.616  2.3125 -0.3415 -2.2772
   84MOL0     H11080   1.525   4.686   3.544 -2.8505  4.4527  0.3933
   84MOL0     H11081   1.622   4.666   3.691 -1.3752 -1.4302  0.1927
   84MOL0     H11082   1.525   4.935   3.590  1.4246  0.4872  0.0578
   84MOL0     H11083   1.598   4.900   3.742  2.0044 -1.1675 -0.4858
   84MOL0     H11084   1.381   4.937   3.791  1.6891 -0.3453  2.4348
   84MOL0     H11085   1.324   4.822   3.664 -1.3496  2.2133  1.1093
   84MOL0     H11086   1.398   4.589   4.013 -1.4198  0.1088  1.1926
   84MOL0     H11087   1.910   4.935   3.421  1.2364  0.6153  1.0964
   84MOL0     H11088   2.110   4.976   3.355  1.8961 -0.0210  0.2283
   85MOL0     O11089   4.840   8.873   4.738  0.3224  0.7158 -0.2163
   85MOL0     C11090   4.873   8.783   4.660  0.4128  0.4442 -0.9059
   85MOL0     O11091   4.785   8.712   4.584 -0.3236  0.3566 -0.1230
   85MOL0     C11092   4.651   8.738   4.571  0.1990 -0.2991 -0.0956
   85MOL0     C11093   4.581   8.857   4.593 -0.4168  0.2694  0.3796
   85MOL0     C11094   4.443   8.867   4.573  0.2390 -0.1112 -0.6259
   85MOL0     C11095   4.372   8.760   4.503  0.7014 -0.9276 -0.6774
   85MOL0     O11096   4.237   8.761   4.467 -0.2090 -0.1047 -0.5476
   85MOL0     C11097   4.139   8.814   4.561 -1.9410 -0.0387  0.3427
   85MOL0     C11098   4.128   8.731   4.687 -0.6114 -0.1188 -0.2524
   85MOL0     C11099   3.988   8.682   4.709  0.3087  0.2687  0.1404
   85MOL0     C11100   3.955   8.639   4.851 -0.1943 -0.3657 -0.2984
   85MOL0     C11101   3.808   8.591   4.863 -0.5324  0.0989 -0.2631
   85MOL0     C11102   3.768   8.552   5.007  0.7007  0.0640 -0.2539
   85MOL0     C11103   3.774   8.660   5.114  0.4349 -0.1757 -0.3182
   85MOL0     C11104   3.665   8.774   5.105 -0.0616  0.0146  0.7188
   85MOL0     N11105   3.676   8.861   5.226 -0.0500  0.3640  0.1560
   85MOL0     C11106   3.640   8.821   5.351  0.2026  0.3193 -0.0028
   85MOL0     C11107   3.712   8.899   5.430 -0.9293  0.3710 -0.2687
   85MOL0     C11108   3.699   8.910   5.581  0.1862 -0.2893 -0.0636
   85MOL0     C11109   3.576   8.984   5.619 -0.0231 -0.3992  0.9168
   85MOL0     C11110   3.567   9.012   5.774 -0.4544 -0.0844  0.1561
   85MOL0     C11111   3.510   8.896   5.854 -0.8532  0.2708  0.0209
   85MOL0     O11112   3.590   8.773   5.877  0.4558 -0.6558 -0.1505
   85MOL0     C11113   3.711   8.774   5.935 -0.1465 -0.6262 -0.0398
   85MOL0     C11114   3.749   8.865   6.033  0.7987  1.5660 -0.5077
   85MOL0     C11115   3.880   8.875   6.076 -0.0199 -0.3003  0.1181
   85MOL0     C11116   3.977   8.792   6.025  0.4200  0.1293 -0.0904
   85MOL0     C11117   4.120   8.808   6.058  0.7038  0.4256  0.2122
   85MOL0     O11118   4.162   8.941   6.069  0.9455  0.4968 -0.1132
   85MOL0     C11119   4.289   8.971   6.095 -0.5558 -0.5431  0.2488
   85MOL0     C11120   4.366   9.041   5.999  0.5405  0.5011  0.1723
   85MOL0     C11121   4.498   9.067   6.028  0.4126  0.5813  0.6870
   85MOL0     C11122   4.560   9.029   6.148 -0.5353 -0.1139  0.6238
   85MOL0     O11123   4.688   9.063   6.156  0.4583 -0.0284 -0.2866
   85MOL0     C11124   4.775   9.026   6.266  0.7111  0.2022  0.5401
   85MOL0     C11125   4.803   8.872   6.261 -0.6566 -0.2840 -0.5799
   85MOL0     C11126   4.861   8.839   6.126 -1.0212  0.0901 -0.5910
   85MOL0     C11127   4.905   8.691   6.116 -0.5025 -0.0496 -0.4715
   85MOL0     C11128   4.985   8.655   5.991 -0.1256 -0.7776 -1.3323
   85MOL0     C11129   5.132   8.699   6.006  0.1706 -0.6612  0.4860
   85MOL0     C11130   5.213   8.698   5.878  0.4770 -0.1296 -0.0117
   85MOL0     C11131   5.300   8.576   5.866 -0.4955  0.6430  0.2068
   85MOL0    Cl11132   5.442   8.575   5.972  0.5687  0.2954 -0.3125
   85MOL0     C11133   4.485   8.959   6.248 -0.0407 -0.4668 -0.0959
   85MOL0     C11134   4.345   8.933   6.219 -0.0802  0.2705  0.8198
   85MOL0     O11135   4.194   8.709   6.069 -0.2189  0.6601  0.6670
   85MOL0     C11136   3.945   8.688   5.935  1.0919 -0.1844  0.3587
   85MOL0     C11137   3.805   8.684   5.894 -0.0032 -0.0076  0.1647
   85MOL0     N11138   3.790   8.987   5.357 -0.4137 -0.3244 -0.1782
   85MOL0     N11139   3.758   8.963   5.237 -0.9715 -0.1108 -0.7456
   85MOL0     C11140   4.437   8.643   4.483 -0.5247  0.1237 -0.2595
   85MOL0     C11141   4.575   8.628   4.517 -0.4355  0.5270 -0.1281
   85MOL0     C11142   5.016   8.761   4.642 -0.3882 -0.3563 -0.3832
   85MOL0     C11143   5.114   8.841   4.698  1.0234  0.4526 -0.3998
   85MOL0     C11144   5.251   8.817   4.687  0.1041 -0.5289 -0.0917
   85MOL0     C11145   5.296   8.708   4.603  0.7383 -0.0273  0.6586
   85MOL0     O11146   5.426   8.679   4.585 -0.2574 -0.3641 -0.1658
   85MOL0     C11147   5.518   8.716   4.689  0.5837 -0.8291 -0.2099
   85MOL0     C11148   5.631   8.617   4.687  0.2793 -0.1664 -1.0801
   85MOL0     C11149   5.704   8.613   4.546 -0.1525  1.1058 -0.1226
   85MOL0     C11150   5.845   8.548   4.554  0.7599 -0.5119  0.5349
   85MOL0     C11151   5.924   8.623   4.657 -0.5343  0.0924 -0.4953
   85MOL0     C11152   5.999   8.694   4.724  0.2874 -0.7807  0.4629
   85MOL0     C11153   5.199   8.631   4.531  0.3053 -0.7132 -0.2911
   85MOL0     C11154   5.062   8.657   4.550  0.0505 -1.2319 -0.6389
   85MOL0     H11155   4.639   8.943   4.624  2.0928 -0.4721 -1.8538
   85MOL0     H11156   4.404   8.958   4.619  2.5264 -0.3148  2.0379
   85MOL0     H11157   4.039   8.821   4.518 -0.8418 -1.0930 -2.6388
   85MOL0     H11158   4.162   8.913   4.602  0.9352 -1.0051  1.3062
   85MOL0     H11159   4.161   8.789   4.775 -0.3911  1.6243 -1.4232
   85MOL0     H11160   4.201   8.650   4.687 -1.2451 -0.7043  0.4770
   85MOL0     H11161   3.967   8.601   4.638 -2.0052  2.7454 -2.2709
   85MOL0     H11162   3.914   8.761   4.695  0.2376  0.7659  2.8256
   85MOL0     H11163   4.031   8.570   4.888  0.4775 -0.1180 -1.1975
   85MOL0     H11164   3.964   8.723   4.920 -0.7784  0.9140 -1.7021
   85MOL0     H11165   3.796   8.497   4.808  1.2144 -0.0909 -0.3732
   85MOL0     H11166   3.738   8.666   4.826 -1.7443 -0.3622  1.0350
   85MOL0     H11167   3.834   8.472   5.043  0.3798 -0.3635 -0.6004
   85MOL0     H11168   3.667   8.510   4.999  0.8725 -0.5706  0.7262
   85MOL0     H11169   3.771   8.614   5.213 -2.1804 -1.6824 -1.0068
   85MOL0     H11170   3.870   8.712   5.113  0.7051 -0.6687 -0.5245
   85MOL0     H11171   3.565   8.730   5.100 -0.6131 -0.0277  5.9429
   85MOL0     H11172   3.674   8.827   5.010 -1.1712  3.0739  2.1989
   85MOL0     H11173   3.561   8.752   5.377  0.9621 -0.4509  0.3093
   85MOL0     H11174   3.791   8.962   5.609  1.3940 -1.9774 -0.7194
   85MOL0     H11175   3.691   8.808   5.621 -0.9848  0.5117  1.8563
   85MOL0     H11176   3.496   8.923   5.578  0.2596  0.3970 -0.9263
   85MOL0     H11177   3.580   9.084   5.575  0.8547  0.5338  2.9609
   85MOL0     H11178   3.655   9.053   5.824  0.5342 -3.3501  1.3502
   85MOL0     H11179   3.486   9.085   5.784 -0.9009 -0.7654  1.7303
   85MOL0     H11180   3.416   8.863   5.810 -0.7109  0.1441 -0.1960
   85MOL0     H11181   3.479   8.926   5.954  2.0007  0.7008  0.8827
   85MOL0     H11182   3.683   8.944   6.067  1.6806  2.7534 -1.4756
   85MOL0     H11183   3.911   8.951   6.148 -2.7500 -0.6301  1.7617
   85MOL0     H11184   4.333   9.056   5.896 -0.8311 -0.7920  0.3826
   85MOL0     H11185   4.542   9.134   5.954 -2.0125  1.4750 -0.0516
   85MOL0     H11186   4.719   9.058   6.354  0.2235  2.9324 -0.6543
   85MOL0     H11187   4.871   9.079   6.265  0.8182  0.0897  1.9001
   85MOL0     H11188   4.720   8.805   6.285  0.5187 -1.5920 -0.0202
   85MOL0     H11189   4.887   8.858   6.330 -0.9364  1.6689  0.2263
   85MOL0     H11190   4.943   8.909   6.114 -1.2381  0.1349 -1.8868
   85MOL0     H11191   4.791   8.865   6.046 -1.2092  1.4872  0.0058
   85MOL0     H11192   4.960   8.664   6.207  0.5553  1.5126 -0.6097
   85MOL0     H11193   4.818   8.626   6.100 -0.0457 -1.0616  0.9266
   85MOL0     H11194   4.934   8.708   5.911  1.5068  1.9212 -0.7317
   85MOL0     H11195   4.984   8.547   5.977 -1.1626 -0.7394 -1.6430
   85MOL0     H11196   5.195   8.646   6.077 -0.2968  0.3028  1.6602
   85MOL0     H11197   5.125   8.802   6.043 -0.7507  0.0136 -1.4348
   85MOL0     H11198   5.146   8.702   5.791  2.0856  0.1682 -1.2898
   85MOL0     H11199   5.271   8.790   5.875  0.0988  0.1429 -3.4213
   85MOL0     H11200   5.340   8.574   5.764  1.6759  0.3631  1.0092
   85MOL0     H11201   5.246   8.485   5.892  0.8488 -0.4920 -0.7892
   85MOL0     H11202   4.527   8.928   6.343 -1.7994 -0.8315  0.6075
   85MOL0     H11203   4.281   8.877   6.286 -0.4561 -0.3675 -0.0407
   85MOL0     H11204   4.025   8.623   5.900  0.4610 -0.0954 -1.3167
   85MOL0     H11205   3.783   8.607   5.820  2.6765  0.2255 -0.9883
   85MOL0     H11206   4.382   8.562   4.437 -1.2749  0.7229 -0.4375
   85MOL0     H11207   4.615   8.535   4.478 -1.6325  0.2944 -0.8641
   85MOL0     H11208   5.066   8.921   4.752  0.8396  0.1994 -0.1842
   85MOL0     H11209   5.312   8.893   4.735 -0.0957  0.8629 -1.9172
   85MOL0     H11210   5.471   8.699   4.786  0.4338  1.0253  0.0748
   85MOL0     H11211   5.557   8.818   4.687 -1.7991  0.2815  2.6343
   85MOL0     H11212   5.692   8.652   4.772  0.0449 -2.0941 -0.0634
   85MOL0     H11213   5.592   8.518   4.713 -2.3679  1.0784  0.0862
   85MOL0     H11214   5.724   8.714   4.507  2.7070  0.3438 -0.8692
   85MOL0     H11215   5.643   8.550   4.482  1.5583 -1.0961  0.3113
   85MOL0     H11216   5.835   8.444   4.585  0.6442 -0.8007 -0.4403
   85MOL0     H11217   5.881   8.537   4.451 -1.1521 -1.3986 -0.0884
   85MOL0     H11218   6.078   8.748   4.771 -0.6946  1.5051 -0.3917
   85MOL0     H11219   5.234   8.554   4.464  6.2789  0.8700  0.4619
   85MOL0     H11220   4.975   8.612   4.502 -1.8183 -1.7098  2.8552
   86MOL0     O11221   5.349  10.877   6.742  0.1214 -0.2706  1.0983
   86MOL0     C11222   5.373  10.996   6.708  0.3329  0.5604 -0.1591
   86MOL0     O11223   5.300  11.103   6.743 -0.1673  0.4500  0.3547
   86MOL0     C11224   5.176  11.094   6.808 -0.7918 -0.0916  0.8086
   86MOL0     C11225   5.149  11.016   6.923 -0.0764  0.5483  0.1613
   86MOL0     C11226   5.030  11.030   6.991 -0.1137  0.0106  0.1472
   86MOL0     C11227   4.914  11.090   6.927 -0.3004 -0.2178 -0.0803
   86MOL0     O11228   4.791  11.088   6.981 -0.0856  0.2695 -0.7568
   86MOL0     C11229   4.757  11.224   7.027 -0.7743 -0.1327 -0.0015
   86MOL0     C11230   4.623  11.281   6.985  0.5656  0.3633 -0.0160
   86MOL0     C11231   4.612  11.329   6.842  0.6098  0.6690 -0.2171
   86MOL0     C11232   4.471  11.339   6.794 -0.3148 -0.5881 -0.5378
   86MOL0     C11233   4.385  11.444   6.875 -0.2924  0.1337 -0.0876
   86MOL0     C11234   4.241  11.401   6.852  0.3979 -0.2781 -0.0339
   86MOL0     C11235   4.142  11.502   6.908 -0.6847  0.1452 -0.3488
   86MOL0     C11236   4.005  11.508   6.830 -0.3287  0.2586  0.7247
   86MOL0     N11237   3.908  11.599   6.892 -0.4544 -1.0127 -0.6530
   86MOL0     C11238   3.844  11.703   6.824  0.3776  0.3919  0.8091
   86MOL0     C11239   3.777  11.785   6.908  0.2390 -0.1621  0.2034
   86MOL0     C11240   3.686  11.907   6.877  0.4603  0.8818  0.4309
   86MOL0     C11241   3.536  11.870   6.879  0.3376 -0.3116  0.6307
   86MOL0     C11242   3.459  11.875   7.016 -0.9499  0.4757 -0.1559
   86MOL0     C11243   3.327  11.803   7.018  0.6626 -0.3640  0.0194
   86MOL0     O11244   3.236  11.875   6.928  0.4794  0.6827  0.1573
   86MOL0     C11245   3.102  11.868   6.974  0.1487  0.1658  0.4757
   86MOL0     C11246   3.028  11.758   7.010 -0.0850  0.5996  1.1066
   86MOL0     C11247   2.895  11.768   7.044 -0.1102  0.4448 -0.3888
   86MOL0     C11248   2.830  11.892   7.027  0.0812  0.5896  0.7066
   86MOL0     C11249   2.682  11.896   7.048  0.1386  0.5048 -0.6011
   86MOL0     O11250   2.618  12.014   7.089  0.5788  0.2424 -0.5088
   86MOL0     C11251   2.480  12.014   7.083 -0.6894  0.6794 -0.0139
   86MOL0     C11252   2.399  11.961   7.186 -0.6413  0.7576 -0.5485
   86MOL0     C11253   2.258  11.977   7.192  0.0728 -0.7156 -0.0103
   86MOL0     C11254   2.189  12.045   7.090  0.6588 -0.7394  0.3265
   86MOL0     O11255   2.053  12.055   7.101  0.1410  0.3279 -0.2492
   86MOL0     C11256   1.988  12.173   7.043  0.0618  0.6036  0.2396
   86MOL0     C11257   1.841  12.165   7.052  0.0931  0.5049 -0.6367
   86MOL0     C11258   1.781  12.157   7.195  0.0174  0.5240  0.4002
   86MOL0     C11259   1.631  12.142   7.188  0.2455  0.1795 -0.4428
   86MOL0     C11260   1.550  12.146   7.313 -0.0916  0.6610  0.2878
   86MOL0     C11261   1.599  12.037   7.416  0.5328 -0.1203 -0.7071
   86MOL0     C11262   1.501  12.024   7.531 -0.1627 -0.7988 -0.3921
   86MOL0     C11263   1.463  12.149   7.609 -0.0154 -1.0420 -0.0758
   86MOL0    Cl11264   1.595  12.240   7.684 -0.0669 -0.0018  0.3231
   86MOL0     C11265   2.273  12.098   6.982 -0.0033 -0.2903 -0.5188
   86MOL0     C11266   2.414  12.095   6.985  0.1003  0.4245 -0.1781
   86MOL0     O11267   2.626  11.784   7.036  0.4693  0.1605 -0.2991
   86MOL0     C11268   2.906  12.008   7.002 -0.0152 -1.0318 -0.1526
   86MOL0     C11269   3.040  11.996   6.968 -0.1916  0.1584 -0.0201
   86MOL0     N11270   3.801  11.728   7.030 -0.2498 -0.2142  0.2459
   86MOL0     N11271   3.879  11.618   7.024  0.9822 -0.5854 -0.1726
   86MOL0     C11272   4.935  11.153   6.808  0.4479 -0.1646 -0.4339
   86MOL0     C11273   5.064  11.158   6.750 -0.1112 -0.3671 -0.6342
   86MOL0     C11274   5.497  11.013   6.618 -0.2357  0.5489 -0.0693
   86MOL0     C11275   5.527  11.136   6.564 -0.6419 -0.5164  0.3498
   86MOL0     C11276   5.633  11.148   6.475 -0.1050 -0.3934  0.1805
   86MOL0     C11277   5.712  11.033   6.437 -0.1114 -0.5832 -0.0765
   86MOL0     O11278   5.821  11.056   6.358  0.2694  0.1952  0.6212
   86MOL0     C11279   5.927  10.961   6.339 -0.2098  0.3417  0.2829
   86MOL0     C11280   5.991  11.014   6.211  0.9619  0.3076 -0.0481
   86MOL0     C11281   6.088  10.910   6.145  0.9685 -0.2229 -0.7302
   86MOL0     C11282   6.142  10.965   6.014 -0.7369  1.1893 -0.8317
   86MOL0     C11283   6.215  11.089   6.038 -0.2738  1.2980 -0.2391
   86MOL0     C11284   6.290  11.181   6.058 -1.1984 -0.0107  0.7366
   86MOL0     C11285   5.677  10.908   6.490  0.5345  0.2065 -0.4170
   86MOL0     C11286   5.577  10.900   6.589  0.4488 -0.2223 -0.1650
   86MOL0     H11287   5.223  10.958   6.976 -3.5304 -2.8435  1.7602
   86MOL0     H11288   5.019  10.980   7.086 -0.7009  2.4289  1.4350
   86MOL0     H11289   4.830  11.299   6.996 -0.0363 -1.2447 -1.0695
   86MOL0     H11290   4.753  11.232   7.136 -2.1902  0.3165 -0.0679
   86MOL0     H11291   4.592  11.360   7.053  0.7032 -0.0695  0.5535
   86MOL0     H11292   4.551  11.202   7.008 -0.6923  2.0766  2.4086
   86MOL0     H11293   4.668  11.258   6.780  2.8852  2.2265 -0.0513
   86MOL0     H11294   4.660  11.427   6.850 -1.1360  1.5798 -0.4163
   86MOL0     H11295   4.469  11.375   6.690 -1.0230 -2.6963 -1.3201
   86MOL0     H11296   4.429  11.238   6.800  3.3053 -2.1124  2.2188
   86MOL0     H11297   4.413  11.545   6.844  0.3653  0.1925  0.6807
   86MOL0     H11298   4.408  11.439   6.981  2.6651 -1.5920 -0.7017
   86MOL0     H11299   4.222  11.301   6.892  0.3047  0.4254  1.7670
   86MOL0     H11300   4.224  11.382   6.746  0.1901 -0.4202  0.0258
   86MOL0     H11301   4.134  11.482   7.015  1.4982 -0.6813 -0.2722
   86MOL0     H11302   4.188  11.600   6.894 -2.6869  1.0717 -0.7825
   86MOL0     H11303   3.964  11.407   6.840 -2.5994  1.1742  1.3210
   86MOL0     H11304   4.022  11.548   6.730 -2.0823  0.3139  0.4269
   86MOL0     H11305   3.836  11.715   6.717  0.0259 -1.2268  0.6251
   86MOL0     H11306   3.715  11.939   6.776 -1.1618 -1.3971 -0.8358
   86MOL0     H11307   3.701  11.992   6.945 -2.6689  1.7053  0.2385
   86MOL0     H11308   3.540  11.772   6.831 -0.6478 -0.5086  0.9436
   86MOL0     H11309   3.489  11.940   6.809 -1.5263 -0.2706  1.8630
   86MOL0     H11310   3.532  11.831   7.084 -1.0167  0.1938 -0.2691
   86MOL0     H11311   3.439  11.980   7.040 -3.6549 -0.4105  1.9639
   86MOL0     H11312   3.294  11.799   7.122  0.6431 -1.2995 -0.0112
   86MOL0     H11313   3.329  11.697   6.992 -1.3878 -0.2309 -0.8825
   86MOL0     H11314   3.075  11.661   7.019  0.1744  0.6378  0.2670
   86MOL0     H11315   2.841  11.676   7.062 -0.6528  0.8331  0.0195
   86MOL0     H11316   2.442  11.893   7.259 -3.5933 -2.0303 -1.1759
   86MOL0     H11317   2.205  11.930   7.274  1.2818  0.1361  1.3002
   86MOL0     H11318   2.005  12.177   6.935 -2.4060  0.5919 -0.2144
   86MOL0     H11319   2.024  12.269   7.081 -1.3512  0.8313  1.0828
   86MOL0     H11320   1.819  12.077   6.991  2.9230  0.0665 -1.1561
   86MOL0     H11321   1.802  12.250   6.995 -1.1582 -0.1610 -0.8220
   86MOL0     H11322   1.803  12.252   7.244  0.5123 -0.7416  2.7695
   86MOL0     H11323   1.828  12.075   7.251 -1.0187  0.9870  2.0015
   86MOL0     H11324   1.594  12.220   7.120 -0.2860  2.3987  2.2246
   86MOL0     H11325   1.612  12.055   7.123 -1.0783  1.2573 -1.5859
   86MOL0     H11326   1.447  12.127   7.282 -0.1191 -2.4377  1.9213
   86MOL0     H11327   1.559  12.245   7.359 -0.1417  0.1730  1.3788
   86MOL0     H11328   1.701  12.059   7.450 -0.1815 -0.6637  2.0061
   86MOL0     H11329   1.605  11.944   7.359 -0.3626  1.7571 -4.1279
   86MOL0     H11330   1.408  11.978   7.494  0.0713 -1.8045  0.2480
   86MOL0     H11331   1.544  11.954   7.603  1.2473  0.2958 -0.1223
   86MOL0     H11332   1.392  12.122   7.687  0.0004 -1.5386 -0.2266
   86MOL0     H11333   1.410  12.212   7.536 -1.0243  0.8604  2.1903
   86MOL0     H11334   2.233  12.169   6.910 -0.6633  0.5524  0.6365
   86MOL0     H11335   2.487  12.136   6.915  1.2884 -1.0109  0.1720
   86MOL0     H11336   2.848  12.097   6.979 -1.6576 -2.4754 -1.9067
   86MOL0     H11337   3.093  12.077   6.920 -1.1315  0.5696 -0.3820
   86MOL0     H11338   4.860  11.191   6.739  1.8706 -1.5948 -2.9255
   86MOL0     H11339   5.081  11.202   6.652 -1.9797  0.2301 -0.7307
   86MOL0     H11340   5.463  11.221   6.587  0.8567  0.5117  0.8580
   86MOL0     H11341   5.669  11.248   6.454 -2.0395  0.3881  0.3669
   86MOL0     H11342   5.890  10.863   6.308  1.0874  0.4182 -1.6234
   86MOL0     H11343   5.995  10.954   6.425  1.1607  1.5340 -0.6710
   86MOL0     H11344   5.915  11.033   6.134 -0.4963 -3.4740  0.2420
   86MOL0     H11345   6.043  11.107   6.237 -1.9015  2.6953 -2.0832
   86MOL0     H11346   6.036  10.814   6.138 -3.1016  1.4912  2.0740
   86MOL0     H11347   6.167  10.908   6.221 -1.0713  2.8347  1.7423
   86MOL0     H11348   6.211  10.891   5.972 -0.4666  0.1504  1.3203
   86MOL0     H11349   6.051  10.982   5.956 -3.9907 -1.2052  3.0632
   86MOL0     H11350   6.362  11.260   6.064  1.7629 -2.6276  4.4230
   86MOL0     H11351   5.728  10.813   6.478 -0.1046 -1.0817  4.6582
   86MOL0     H11352   5.556  10.799   6.622 -1.3043 -0.0863 -0.7774
   87MOL0     O11353   6.706   5.451  11.106  0.2849  0.5715  0.4802
   87MOL0     C11354   6.777   5.446  11.007 -0.8726  0.2575  0.2735
   87MOL0     O11355   6.757   5.516  10.898 -0.5981  0.3322  0.5471
   87MOL0     C11356   6.655   5.609  10.884  0.4688 -0.4866 -0.2615
   87MOL0     C11357   6.575   5.603  10.767 -0.0409 -0.6063  0.1727
   87MOL0     C11358   6.472   5.684  10.746  0.2666  0.1684 -0.4489
   87MOL0     C11359   6.445   5.782  10.839 -0.4904 -0.0613  0.4517
   87MOL0     O11360   6.342   5.868  10.821  0.2320  0.1537  0.1802
   87MOL0     C11361   6.265   5.913  10.928 -0.2595  0.0903 -0.4878
   87MOL0     C11362   6.258   6.073  10.919 -0.4560  0.5506  0.8499
   87MOL0     C11363   6.382   6.143  10.978  0.1870  0.6837  0.5517
   87MOL0     C11364   6.358   6.292  10.954  0.0985  0.7046 -0.1298
   87MOL0     C11365   6.445   6.387  11.030 -0.7986 -0.7344  0.8271
   87MOL0     C11366   6.396   6.535  10.993 -0.4813 -1.0820 -0.3696
   87MOL0     C11367   6.490   6.642  11.047  0.6939  0.9605  0.3229
   87MOL0     C11368   6.413   6.780  11.059 -0.7787  0.6442  0.1807
   87MOL0     N11369   6.440   6.866  10.946  0.0733  0.3391 -0.4138
   87MOL0     C11370   6.334   6.920  10.879  0.3124 -0.9913 -0.0375
   87MOL0     C11371   6.394   7.024  10.813  0.0283 -0.6459  0.1290
   87MOL0     C11372   6.323   7.138  10.744 -0.3793 -0.0854 -0.1926
   87MOL0     C11373   6.193   7.090  10.678 -0.6761  0.0519 -0.1506
   87MOL0     C11374   6.130   7.216  10.614 -0.2519  0.4546  0.2934
   87MOL0     C11375   6.003   7.178  10.540 -0.3841 -0.1900 -0.0370
   87MOL0     O11376   5.921   7.297  10.562 -0.6196 -0.3037 -0.3306
   87MOL0     C11377   5.790   7.294  10.534  0.5138  0.4043  0.7394
   87MOL0     C11378   5.733   7.189  10.459 -0.5842  0.1274 -0.1357
   87MOL0     C11379   5.602   7.193  10.416  0.2716  0.0693  0.4988
   87MOL0     C11380   5.522   7.304  10.446 -1.0586 -0.8548 -0.3577
   87MOL0     C11381   5.381   7.303  10.424 -0.6438  0.4184 -0.6031
   87MOL0     O11382   5.315   7.408  10.468 -0.1187  0.6167  0.1774
   87MOL0     C11383   5.178   7.403  10.475  0.2010  0.6119 -0.3134
   87MOL0     C11384   5.106   7.520  10.461 -0.0646  0.8398  0.3045
   87MOL0     C11385   4.971   7.522  10.466 -0.5022 -0.5343  0.4581
   87MOL0     C11386   4.897   7.413  10.476 -0.0982  0.5980 -0.0874
   87MOL0     O11387   4.760   7.426  10.473 -0.4137 -0.0847 -0.7272
   87MOL0     C11388   4.680   7.361  10.571  0.2561 -0.2493 -0.2307
   87MOL0     C11389   4.529   7.376  10.528 -0.1374  0.2954  0.6250
   87MOL0     C11390   4.431   7.322  10.635 -0.0977 -0.2293  0.1534
   87MOL0     C11391   4.286   7.356  10.598  0.2974 -0.3897  0.1121
   87MOL0     C11392   4.184   7.316  10.710  0.9040  0.0136  0.9272
   87MOL0     C11393   4.048   7.325  10.642  0.0374  0.3664  0.0623
   87MOL0     C11394   3.941   7.240  10.719  0.4696 -0.0135  0.4767
   87MOL0     C11395   3.852   7.169  10.616  0.0043  0.5568  0.0842
   87MOL0    Cl11396   3.730   7.269  10.528 -0.3193 -0.3043 -0.0517
   87MOL0     C11397   4.963   7.292  10.499 -0.0429  0.1269 -0.3229
   87MOL0     C11398   5.103   7.285  10.510 -0.5798  0.0050 -0.1688
   87MOL0     O11399   5.337   7.208  10.366 -0.0254  0.5945  1.4037
   87MOL0     C11400   5.583   7.415  10.513  0.1298  0.5160 -0.0985
   87MOL0     C11401   5.718   7.412  10.549 -0.3651 -0.8186 -0.8002
   87MOL0     N11402   6.526   7.030  10.855 -0.8528  0.4869  0.3233
   87MOL0     N11403   6.558   6.925  10.924 -0.4960 -0.1273 -0.0934
   87MOL0     C11404   6.527   5.796  10.956 -0.5394  0.0695 -0.8181
   87MOL0     C11405   6.639   5.711  10.974  0.3059 -0.2491  0.7334
   87MOL0     C11406   6.880   5.337  10.986  0.6250 -0.4157  0.6359
   87MOL0     C11407   6.963   5.330  10.878  0.0902 -0.4575  0.2496
   87MOL0     C11408   7.043   5.218  10.849  0.1010 -0.2888 -0.5610
   87MOL0     C11409   7.056   5.106  10.943  0.7988 -0.4253 -0.7459
   87MOL0     O11410   7.144   5.007  10.944 -0.0988 -0.7605 -0.0971
   87MOL0     C11411   7.231   5.003  10.824  0.2447  0.3178 -0.4531
   87MOL0     C11412   7.322   4.884  10.845  0.7047 -0.3640  0.5081
   87MOL0     C11413   7.450   4.887  10.765 -0.9191 -0.0583  0.1725
   87MOL0     C11414   7.556   4.808  10.832 -0.5729 -0.2918  0.1190
   87MOL0     C11415   7.697   4.830  10.779 -0.2905  0.4514  0.5337
   87MOL0     C11416   7.812   4.861  10.748  0.1737 -0.4865 -1.0201
   87MOL0     C11417   6.967   5.119  11.055  0.0302 -0.2088  0.5787
   87MOL0     C11418   6.884   5.227  11.073 -0.2078 -0.7691  0.9530
   87MOL0     H11419   6.598   5.513  10.711 -0.8150 -1.5397  1.3171
   87MOL0     H11420   6.418   5.685  10.652 -0.1408 -2.4772 -0.3143
   87MOL0     H11421   6.309   5.873  11.020 -0.5876  2.2583  0.6976
   87MOL0     H11422   6.159   5.888  10.929 -0.7438  1.8769 -1.6218
   87MOL0     H11423   6.173   6.093  10.985 -1.6968 -1.4884 -0.0417
   87MOL0     H11424   6.240   6.097  10.814 -1.1481 -1.1187  0.5609
   87MOL0     H11425   6.467   6.116  10.914 -1.8078 -2.0917 -1.1317
   87MOL0     H11426   6.400   6.108  11.080 -0.9507  0.2045  0.6007
   87MOL0     H11427   6.374   6.313  10.848 -0.1057  1.0263 -0.0980
   87MOL0     H11428   6.256   6.329  10.970 -0.4331  0.4142 -2.5442
   87MOL0     H11429   6.550   6.372  11.002  0.4373  4.2421  1.7485
   87MOL0     H11430   6.426   6.375  11.137 -0.5302 -0.9943  0.8463
   87MOL0     H11431   6.296   6.559  11.029  0.1010  1.4054 -0.1618
   87MOL0     H11432   6.396   6.548  10.884 -2.1020 -1.1281 -0.3954
   87MOL0     H11433   6.524   6.612  11.147  0.7058 -0.8922 -0.1925
   87MOL0     H11434   6.575   6.657  10.981  1.2369  0.8188  0.9765
   87MOL0     H11435   6.448   6.837  11.145  0.0284 -1.0343  1.0214
   87MOL0     H11436   6.305   6.774  11.072 -0.5577 -1.2176  1.6671
   87MOL0     H11437   6.226   6.910  10.889 -0.2665  3.4489  0.4839
   87MOL0     H11438   6.389   7.169  10.662 -0.0456 -1.7374 -0.5828
   87MOL0     H11439   6.313   7.214  10.822 -1.3144  0.9429 -1.2868
   87MOL0     H11440   6.124   7.052  10.754  0.2349 -1.6406 -0.1074
   87MOL0     H11441   6.221   7.016  10.602  0.2895  0.4407 -0.1865
   87MOL0     H11442   6.129   7.283  10.700  1.0202  0.3571  0.4078
   87MOL0     H11443   6.190   7.269  10.539  0.5867  1.4245  1.5887
   87MOL0     H11444   5.946   7.094  10.582 -0.6699 -0.8715 -1.7066
   87MOL0     H11445   6.022   7.153  10.435 -1.4368 -0.6648 -0.1364
   87MOL0     H11446   5.800   7.115  10.417 -0.0091  0.4432  0.2136
   87MOL0     H11447   5.557   7.105  10.371 -0.3557  0.6569 -0.0522
   87MOL0     H11448   5.165   7.610  10.448  3.5572 -1.7168 -3.5202
   87MOL0     H11449   4.925   7.619  10.452 -1.3882 -0.6469  2.2839
   87MOL0     H11450   4.695   7.408  10.668  1.8282 -1.0333 -0.0554
   87MOL0     H11451   4.699   7.254  10.578  1.5833  0.0014  0.3969
   87MOL0     H11452   4.511   7.319  10.437  3.3209  0.1803 -0.1157
   87MOL0     H11453   4.506   7.482  10.509 -0.0739  0.9112  3.4548
   87MOL0     H11454   4.463   7.382  10.720  0.6120  0.1358 -0.3558
   87MOL0     H11455   4.442   7.214  10.650 -1.0714 -0.1616  1.4835
   87MOL0     H11456   4.275   7.464  10.584  0.2410 -0.1590  1.7326
   87MOL0     H11457   4.262   7.308  10.503  1.0154  0.1991 -0.3734
   87MOL0     H11458   4.201   7.375  10.800  1.6774  0.0353  0.7709
   87MOL0     H11459   4.201   7.210  10.733 -2.8937 -1.2330 -1.0302
   87MOL0     H11460   4.048   7.304  10.535  0.9082 -2.2025  0.5121
   87MOL0     H11461   4.023   7.432  10.651  0.8627  0.4598  1.4751
   87MOL0     H11462   3.993   7.162  10.777  1.2280  0.8301  0.9554
   87MOL0     H11463   3.892   7.304  10.792  2.7396  0.5903  1.5540
   87MOL0     H11464   3.806   7.085  10.668  1.0256  0.2636  0.5502
   87MOL0     H11465   3.912   7.118  10.540 -0.2630  0.8569 -0.3327
   87MOL0     H11466   4.898   7.207  10.518 -1.4517  0.9044 -1.4578
   87MOL0     H11467   5.147   7.190  10.539  1.1396  1.1341  1.1254
   87MOL0     H11468   5.534   7.508  10.538  2.1990  2.2183 -1.9814
   87MOL0     H11469   5.780   7.496  10.577 -2.1585  0.1219  0.4640
   87MOL0     H11470   6.503   5.873  11.028  1.3232 -1.8418  2.0378
   87MOL0     H11471   6.693   5.703  11.068  0.9195  1.6983  0.5980
   87MOL0     H11472   6.957   5.419  10.815  2.5599  0.3881  1.0952
   87MOL0     H11473   7.089   5.204  10.751  2.0388 -0.4348  0.3219
   87MOL0     H11474   7.287   5.097  10.814  0.1321  0.3842 -0.4675
   87MOL0     H11475   7.166   4.976  10.740 -1.2932 -1.1709  1.1296
   87MOL0     H11476   7.336   4.878  10.953 -0.4118  2.0022  0.8506
   87MOL0     H11477   7.282   4.793  10.799  2.2325 -0.3642 -0.9506
   87MOL0     H11478   7.494   4.985  10.746 -0.7799 -0.4599 -1.8586
   87MOL0     H11479   7.426   4.835  10.671 -2.2028  1.4688 -0.4029
   87MOL0     H11480   7.563   4.843  10.935  2.0008 -0.9073  0.1946
   87MOL0     H11481   7.531   4.702  10.828  0.3081 -0.4682 -1.0122
   87MOL0     H11482   7.913   4.879  10.719  0.0751  1.5724 -0.1994
   87MOL0     H11483   6.984   5.054  11.140 -0.3213  0.8565  1.4787
   87MOL0     H11484   6.818   5.228  11.160 -1.8916 -0.3672 -0.2659
   88MOL0     O11485   7.926   9.021   8.949  0.1035 -0.4524 -0.1604
   88MOL0     C11486   7.955   9.064   8.836 -0.1365  0.0387 -0.3471
   88MOL0     O11487   7.874   9.136   8.750  0.1580  0.0697  0.5458
   88MOL0     C11488   7.753   9.177   8.795  0.2942  0.6127  0.3853
   88MOL0     C11489   7.724   9.313   8.796 -0.9216  0.6917 -0.0028
   88MOL0     C11490   7.594   9.355   8.816 -0.3338  0.7813 -0.2575
   88MOL0     C11491   7.485   9.269   8.829 -1.0465  0.9845 -0.0473
   88MOL0     O11492   7.360   9.320   8.866  0.1768 -0.0922 -0.1517
   88MOL0     C11493   7.242   9.239   8.869  0.0497 -0.0674 -0.5230
   88MOL0     C11494   7.130   9.339   8.910  0.1933  0.3316  0.1383
   88MOL0     C11495   6.980   9.276   8.926 -0.6901 -0.3040  0.1916
   88MOL0     C11496   6.887   9.395   8.955  0.6005 -0.7395  0.2763
   88MOL0     C11497   6.758   9.346   9.010  0.0649  0.4108 -0.5657
   88MOL0     C11498   6.681   9.437   9.104 -0.1525 -0.7473 -0.5465
   88MOL0     C11499   6.546   9.385   9.166 -0.6014 -0.3566  0.1564
   88MOL0     C11500   6.467   9.481   9.262  0.3862 -0.0036 -0.1627
   88MOL0     N11501   6.366   9.413   9.342 -0.3317  0.2853  0.4046
   88MOL0     C11502   6.249   9.357   9.297  0.9635  0.2627 -0.7184
   88MOL0     C11503   6.187   9.329   9.410 -0.1436  0.2137  0.3372
   88MOL0     C11504   6.063   9.243   9.409  0.1838  0.1234  0.5917
   88MOL0     C11505   5.938   9.301   9.479  0.0416  0.4667  0.1504
   88MOL0     C11506   5.815   9.210   9.455 -0.5161 -0.9150 -0.3538
   88MOL0     C11507   5.679   9.269   9.475 -0.0112  0.0016  0.8558
   88MOL0     O11508   5.595   9.164   9.511  0.8411 -1.0018  0.1008
   88MOL0     C11509   5.473   9.149   9.454 -0.0409 -0.0039  0.7055
   88MOL0     C11510   5.430   9.021   9.467 -0.6803 -0.4192 -0.5750
   88MOL0     C11511   5.306   8.978   9.416  0.5785 -0.3256 -0.2510
   88MOL0     C11512   5.236   9.072   9.335 -0.6043  0.1092  0.1575
   88MOL0     C11513   5.103   9.048   9.282 -0.3471  0.6508 -0.4334
   88MOL0     O11514   5.075   9.111   9.164  0.3453  0.0801  0.3668
   88MOL0     C11515   4.940   9.101   9.115  0.3171 -0.9137  0.0443
   88MOL0     C11516   4.897   9.210   9.042  0.4491  0.2300  0.2582
   88MOL0     C11517   4.761   9.217   8.996 -0.2366  0.0509  0.1565
   88MOL0     C11518   4.668   9.109   9.020  1.0410  0.4041  0.5839
   88MOL0     O11519   4.541   9.097   8.976  0.3860 -0.2499  0.4269
   88MOL0     C11520   4.481   9.213   8.913  0.2633  0.1147 -1.0850
   88MOL0     C11521   4.329   9.186   8.900  0.2331  0.5376 -0.1496
   88MOL0     C11522   4.255   9.288   8.814 -0.5551 -0.3808 -0.0110
   88MOL0     C11523   4.101   9.288   8.808 -1.0556  0.4129  0.2148
   88MOL0     C11524   4.046   9.212   8.684 -0.0854  0.0234 -0.9655
   88MOL0     C11525   3.903   9.213   8.670 -0.1976 -0.6699  0.3295
   88MOL0     C11526   3.849   9.146   8.537  0.0466 -0.3084  0.5100
   88MOL0     C11527   3.808   9.001   8.570 -0.3163  1.1099 -0.4235
   88MOL0    Cl11528   3.951   8.913   8.610  0.0896 -0.0765  0.5002
   88MOL0     C11529   4.715   8.994   9.089 -0.4045  0.2542 -0.6105
   88MOL0     C11530   4.848   8.995   9.131 -0.5746 -0.8497 -0.1114
   88MOL0     O11531   5.018   8.981   9.351  0.5323 -0.4444  1.0917
   88MOL0     C11532   5.281   9.202   9.318 -0.0883  0.1076 -0.2519
   88MOL0     C11533   5.406   9.240   9.375 -0.7776  0.9618 -0.2646
   88MOL0     N11534   6.267   9.348   9.517 -0.3807  0.1723  0.1727
   88MOL0     N11535   6.377   9.400   9.471 -0.4427 -0.8690 -0.2491
   88MOL0     C11536   7.515   9.131   8.824  0.2142  0.0845  0.3883
   88MOL0     C11537   7.647   9.085   8.803 -0.2270  0.0695  1.1613
   88MOL0     C11538   8.084   9.009   8.789 -0.1658 -0.2515 -0.0783
   88MOL0     C11539   8.166   8.942   8.884  0.5812 -0.3268  0.0387
   88MOL0     C11540   8.283   8.886   8.842 -1.6602  0.2586 -0.7087
   88MOL0     C11541   8.336   8.911   8.712  0.3985 -0.4920  0.0269
   88MOL0     O11542   8.457   8.869   8.672  0.1311  0.1160 -1.3096
   88MOL0     C11543   8.498   8.737   8.710  0.0065  0.8241 -0.4925
   88MOL0     C11544   8.613   8.757   8.810  0.7408 -0.1530  0.1529
   88MOL0     C11545   8.731   8.829   8.750  0.6064  0.1407  1.0494
   88MOL0     C11546   8.858   8.845   8.835  0.5128 -0.2971  0.4342
   88MOL0     C11547   8.894   8.727   8.903 -0.5904  0.4615  0.2004
   88MOL0     C11548   8.935   8.624   8.952 -0.4608  0.0186 -0.2853
   88MOL0     C11549   8.262   8.979   8.617  0.7107  0.1619  0.4684
   88MOL0     C11550   8.130   9.026   8.654 -0.0557 -1.0454  0.5336
   88MOL0     H11551   7.811   9.375   8.778  0.3330 -1.1774 -0.6263
   88MOL0     H11552   7.574   9.459   8.840 -2.2203 -0.3571  4.0935
   88MOL0     H11553   7.258   9.156   8.938 -0.0005  1.1376  0.9862
   88MOL0     H11554   7.232   9.200   8.767 -0.1887 -0.7124 -0.2628
   88MOL0     H11555   7.123   9.422   8.838  3.1848 -0.7743 -1.5785
   88MOL0     H11556   7.152   9.382   9.008 -0.9998  3.7219 -0.9163
   88MOL0     H11557   6.978   9.198   9.002  0.9083 -0.3770  0.2059
   88MOL0     H11558   6.946   9.221   8.838 -2.0355  0.2504  0.3489
   88MOL0     H11559   6.934   9.465   9.025  1.9649 -2.1726  0.8442
   88MOL0     H11560   6.878   9.443   8.858 -0.1237 -2.0169 -0.3050
   88MOL0     H11561   6.770   9.265   9.082 -1.3422  1.9406  1.5271
   88MOL0     H11562   6.687   9.322   8.930 -2.6697  4.3929  0.3157
   88MOL0     H11563   6.657   9.526   9.044  0.7953 -0.3713 -0.3818
   88MOL0     H11564   6.743   9.475   9.186 -0.4176 -1.1339 -0.1611
   88MOL0     H11565   6.482   9.352   9.083  0.5118  0.9113 -1.2616
   88MOL0     H11566   6.568   9.292   9.220 -1.2492 -0.0595  0.9536
   88MOL0     H11567   6.414   9.560   9.207  0.4687 -0.4463 -0.8913
   88MOL0     H11568   6.539   9.525   9.331  1.1243 -1.2256 -0.1259
   88MOL0     H11569   6.202   9.338   9.201  0.3293  0.5457 -0.4708
   88MOL0     H11570   6.098   9.154   9.462  1.7615  0.6320  0.4787
   88MOL0     H11571   6.036   9.217   9.306  0.9341 -2.2246  0.9361
   88MOL0     H11572   5.913   9.399   9.437 -1.1465 -0.3117 -1.0844
   88MOL0     H11573   5.952   9.306   9.587 -2.2092 -3.2226  0.7765
   88MOL0     H11574   5.805   9.181   9.350  1.6492 -0.4502 -0.7410
   88MOL0     H11575   5.821   9.114   9.507  1.1330 -1.0033 -0.6702
   88MOL0     H11576   5.644   9.341   9.401 -1.9294 -1.0912  0.6257
   88MOL0     H11577   5.686   9.323   9.571 -1.3219  0.5506  0.6733
   88MOL0     H11578   5.488   8.953   9.528 -0.1737 -0.0169 -0.5990
   88MOL0     H11579   5.284   8.873   9.435  1.0426 -0.4838 -0.5844
   88MOL0     H11580   4.966   9.293   9.030 -0.7477  1.2513  0.3039
   88MOL0     H11581   4.730   9.309   8.948 -0.7237  0.3891  1.1175
   88MOL0     H11582   4.520   9.218   8.811 -0.6779 -1.9151 -1.5970
   88MOL0     H11583   4.502   9.307   8.965 -0.4407 -1.1250  1.6270
   88MOL0     H11584   4.279   9.164   8.995  1.5308  0.1299  0.4593
   88MOL0     H11585   4.316   9.087   8.855 -1.0527  0.8346 -0.4806
   88MOL0     H11586   4.298   9.284   8.713  3.5358 -0.7176  1.5865
   88MOL0     H11587   4.284   9.381   8.863  2.3991 -0.6718 -0.9903
   88MOL0     H11588   4.064   9.244   8.901 -0.3685  0.0012  0.3020
   88MOL0     H11589   4.058   9.387   8.793 -0.7991  0.5929  0.6773
   88MOL0     H11590   4.076   9.107   8.693  0.6659 -0.0202 -3.2854
   88MOL0     H11591   4.093   9.259   8.597 -0.1040  3.2108  0.6011
   88MOL0     H11592   3.873   9.318   8.668 -1.9375 -1.0761  1.9962
   88MOL0     H11593   3.865   9.167   8.762 -1.8492  1.7297  0.9308
   88MOL0     H11594   3.767   9.205   8.495 -0.3860 -1.9543 -1.0557
   88MOL0     H11595   3.925   9.140   8.458  0.1666  1.7192  0.4086
   88MOL0     H11596   3.754   8.968   8.481 -0.0652 -3.7795  0.9652
   88MOL0     H11597   3.740   8.993   8.655  3.0763 -2.4191  2.3077
   88MOL0     H11598   4.650   8.909   9.105 -0.6043  0.6577  0.9434
   88MOL0     H11599   4.888   8.906   9.179  0.7316 -0.6022 -0.7139
   88MOL0     H11600   5.215   9.273   9.267  1.8875  3.8436  1.9624
   88MOL0     H11601   5.451   9.330   9.336 -0.0839  0.1022 -1.5001
   88MOL0     H11602   7.441   9.054   8.841  0.0605 -0.2650 -1.5618
   88MOL0     H11603   7.673   8.980   8.798  0.5407  0.3233 -1.7628
   88MOL0     H11604   8.133   8.927   8.986 -0.6718 -1.1413 -0.4668
   88MOL0     H11605   8.333   8.823   8.914 -1.2439  1.2679 -0.0952
   88MOL0     H11606   8.542   8.684   8.624  2.4030 -1.8861  2.1763
   88MOL0     H11607   8.421   8.673   8.754  1.2888 -2.2359 -2.3157
   88MOL0     H11608   8.578   8.821   8.892  0.2562  1.1094 -0.9900
   88MOL0     H11609   8.646   8.659   8.845 -1.6007 -0.8142  0.7412
   88MOL0     H11610   8.696   8.916   8.693 -0.3309 -0.5075  0.6283
   88MOL0     H11611   8.772   8.767   8.669  0.6184  0.7306  0.5911
   88MOL0     H11612   8.941   8.869   8.768  2.2066 -0.4768  2.4050
   88MOL0     H11613   8.847   8.921   8.914  0.2465  0.8263 -0.6406
   88MOL0     H11614   8.973   8.532   8.992  1.9812  1.0536 -0.0594
   88MOL0     H11615   8.299   8.980   8.515 -2.3321  0.6341 -0.7615
   88MOL0     H11616   8.073   9.088   8.586  1.2690  1.4960  1.5842
   89MOL0     O11617  10.084   2.428   3.618 -0.5249 -0.3247  0.4535
   89MOL0     C11618  10.138   2.349   3.542  0.0723  0.8451 -1.0676
   89MOL0     O11619  10.087   2.298   3.419 -0.1627 -0.1615  0.0765
   89MOL0     C11620   9.984   2.348   3.349 -0.7413 -0.2414  0.7147
   89MOL0     C11621   9.901   2.461   3.373 -0.7389 -0.5419  0.1045
   89MOL0     C11622   9.793   2.483   3.284  0.2313  1.2636 -0.0784
   89MOL0     C11623   9.767   2.400   3.177  0.2561 -0.7538  0.7726
   89MOL0     O11624   9.665   2.442   3.087  0.7531  0.0276  0.5216
   89MOL0     C11625   9.616   2.332   3.009 -0.8525  0.5943  0.1752
   89MOL0     C11626   9.468   2.353   2.969 -1.0245  0.0252 -0.3214
   89MOL0     C11627   9.455   2.460   2.862 -0.2939  0.3442 -0.4221
   89MOL0     C11628   9.308   2.481   2.813  0.1329 -0.3625  0.4017
   89MOL0     C11629   9.294   2.602   2.719  0.1525  0.4710 -0.4435
   89MOL0     C11630   9.163   2.620   2.648  0.8113  0.9291 -0.5145
   89MOL0     C11631   9.049   2.608   2.740  0.3867 -0.8356  0.1338
   89MOL0     C11632   8.917   2.626   2.667 -0.0559  1.0609  0.6016
   89MOL0     N11633   8.801   2.566   2.730 -0.8673  0.3030  0.3524
   89MOL0     C11634   8.685   2.558   2.660 -0.2252  0.6412 -0.2972
   89MOL0     C11635   8.601   2.495   2.745 -0.2309  0.1489 -0.3648
   89MOL0     C11636   8.461   2.453   2.715  0.5576  0.1770 -0.4928
   89MOL0     C11637   8.351   2.540   2.782 -0.0770  0.1931 -0.2519
   89MOL0     C11638   8.218   2.520   2.708  0.5142 -0.8268  0.4472
   89MOL0     C11639   8.116   2.615   2.772 -0.3800  0.1120  0.7346
   89MOL0     O11640   8.096   2.733   2.696  0.4674 -0.3977  0.0465
   89MOL0     C11641   7.988   2.809   2.720  0.0300  0.2680 -0.4535
   89MOL0     C11642   7.898   2.780   2.826 -0.1577 -0.5482  0.1773
   89MOL0     C11643   7.797   2.878   2.858 -1.0206  0.5775 -0.0274
   89MOL0     C11644   7.787   2.996   2.790  0.2050  0.3135  0.1819
   89MOL0     C11645   7.676   3.086   2.819  0.3142  0.4952  0.2355
   89MOL0     O11646   7.602   3.081   2.941  0.4049  0.3445  0.9029
   89MOL0     C11647   7.479   3.143   2.945 -0.2288  0.4447  0.3921
   89MOL0     C11648   7.457   3.202   3.067  0.0149 -0.3246  0.8593
   89MOL0     C11649   7.342   3.280   3.078  0.9753 -0.5117  0.4613
   89MOL0     C11650   7.245   3.289   2.979  1.0222  0.6282 -0.1737
   89MOL0     O11651   7.133   3.363   3.009  0.3020 -0.5393  0.2964
   89MOL0     C11652   7.012   3.287   3.035 -0.7904  0.4180  0.4971
   89MOL0     C11653   6.905   3.337   2.948  0.1229 -0.5163  0.1681
   89MOL0     C11654   6.779   3.274   2.986 -0.1917  0.2300 -0.2052
   89MOL0     C11655   6.681   3.284   2.866  0.4938  0.4640  0.3705
   89MOL0     C11656   6.542   3.238   2.916  0.7931  0.4304 -0.7560
   89MOL0     C11657   6.440   3.294   2.819  0.1605  0.4003 -0.5624
   89MOL0     C11658   6.290   3.280   2.860 -0.2816  0.0135  0.3313
   89MOL0     C11659   6.186   3.297   2.745 -0.3245 -0.4987  0.0999
   89MOL0    Cl11660   6.013   3.305   2.783  0.2043  0.3797  0.0286
   89MOL0     C11661   7.260   3.217   2.864 -0.5956 -0.1700  0.1546
   89MOL0     C11662   7.371   3.137   2.848 -0.3005  0.5326 -0.6687
   89MOL0     O11663   7.655   3.164   2.731 -0.1350  0.4674 -0.1367
   89MOL0     C11664   7.870   3.026   2.676  0.2667  0.3085  1.3028
   89MOL0     C11665   7.972   2.925   2.647  0.3100 -0.5274  0.0645
   89MOL0     N11666   8.671   2.453   2.862  0.2790 -0.5811 -0.6412
   89MOL0     N11667   8.790   2.497   2.844 -0.0878 -0.3723  0.0081
   89MOL0     C11668   9.854   2.295   3.156 -0.6212 -0.2001  0.1636
   89MOL0     C11669   9.957   2.275   3.237  0.1037 -0.1716 -0.1444
   89MOL0     C11670  10.278   2.311   3.573 -1.1211  0.1733  0.0196
   89MOL0     C11671  10.363   2.252   3.476  0.0727  0.7693  0.0213
   89MOL0     C11672  10.491   2.218   3.525 -0.6095  0.4966  0.7178
   89MOL0     C11673  10.523   2.222   3.660  0.1985  0.2738  0.1013
   89MOL0     O11674  10.655   2.187   3.685  0.2626 -0.4874 -0.5144
   89MOL0     C11675  10.690   2.136   3.815  0.0980  0.0844  0.3778
   89MOL0     C11676  10.796   2.035   3.801 -1.0186 -0.1630 -0.6740
   89MOL0     C11677  10.915   2.077   3.708 -0.2921 -0.1486  0.0341
   89MOL0     C11678  11.017   2.157   3.766 -0.5870  0.3239  0.1297
   89MOL0     C11679  10.977   2.298   3.787 -0.0188 -0.3189 -0.0941
   89MOL0     C11680  10.938   2.409   3.814 -0.0282  0.0668  0.2933
   89MOL0     C11681  10.429   2.264   3.754 -0.4542  0.5290  0.0332
   89MOL0     C11682  10.315   2.316   3.707 -0.1181 -0.3317  0.2859
   89MOL0     H11683   9.911   2.508   3.470  3.5594 -1.6499  0.3898
   89MOL0     H11684   9.726   2.565   3.310 -0.5862  0.1593  1.4366
   89MOL0     H11685   9.617   2.240   3.068  1.3320 -0.1844 -0.9813
   89MOL0     H11686   9.687   2.317   2.928  0.6557  0.5969  1.4405
   89MOL0     H11687   9.414   2.388   3.058 -0.9043  0.6329 -0.4784
   89MOL0     H11688   9.423   2.256   2.944  1.6017 -1.2518 -0.3863
   89MOL0     H11689   9.509   2.438   2.769  3.3168  1.9236  1.0846
   89MOL0     H11690   9.492   2.557   2.898 -0.4535 -0.0420  0.8125
   89MOL0     H11691   9.278   2.388   2.763  1.6506 -0.6130 -0.0849
   89MOL0     H11692   9.241   2.495   2.898  0.7039  0.4689  0.7259
   89MOL0     H11693   9.364   2.573   2.640 -1.7241  0.7917 -2.3016
   89MOL0     H11694   9.329   2.693   2.769  0.2285 -0.8511  2.0609
   89MOL0     H11695   9.149   2.544   2.571 -1.2671  0.0006  0.6846
   89MOL0     H11696   9.160   2.717   2.598 -3.1867  0.8454 -0.7444
   89MOL0     H11697   9.047   2.512   2.792 -0.6511 -2.3748 -2.5633
   89MOL0     H11698   9.064   2.681   2.820  1.5269 -1.7938  0.8164
   89MOL0     H11699   8.927   2.589   2.565  0.7994  3.7417 -0.3823
   89MOL0     H11700   8.908   2.734   2.656 -1.6869  0.8310 -0.6336
   89MOL0     H11701   8.655   2.592   2.561 -1.4656 -1.6975 -0.7877
   89MOL0     H11702   8.447   2.351   2.752  1.7563 -0.2936 -1.2685
   89MOL0     H11703   8.447   2.451   2.606 -0.3367  0.5048 -0.3891
   89MOL0     H11704   8.391   2.642   2.792 -1.1235  0.9619 -3.0930
   89MOL0     H11705   8.340   2.505   2.885 -1.5081  0.8347 -0.1630
   89MOL0     H11706   8.224   2.544   2.601 -2.0024  0.8187  0.5989
   89MOL0     H11707   8.195   2.413   2.710  2.0954 -1.2444 -0.9411
   89MOL0     H11708   8.151   2.640   2.872 -1.4050 -0.3923  1.2273
   89MOL0     H11709   8.019   2.568   2.784 -1.7144  2.7330  0.9267
   89MOL0     H11710   7.902   2.688   2.883  2.3805 -0.7177 -0.1390
   89MOL0     H11711   7.721   2.840   2.925  0.6406 -0.3688  1.4093
   89MOL0     H11712   7.537   3.205   3.141  1.6790 -0.8718 -0.8394
   89MOL0     H11713   7.322   3.339   3.167 -3.6032 -1.8619  0.5822
   89MOL0     H11714   6.986   3.281   3.141 -1.5166 -0.0140  0.3070
   89MOL0     H11715   7.016   3.181   3.004  1.1816  0.8094 -0.7491
   89MOL0     H11716   6.930   3.305   2.847 -0.4879 -2.3453  0.5490
   89MOL0     H11717   6.894   3.446   2.942  0.2560 -0.2265  3.3162
   89MOL0     H11718   6.736   3.316   3.078  0.2829  1.5303 -0.5676
   89MOL0     H11719   6.793   3.166   2.998  2.8319  0.6153  0.5648
   89MOL0     H11720   6.670   3.389   2.837  0.2679  1.1273  2.6895
   89MOL0     H11721   6.715   3.227   2.778 -0.7558  0.7535 -0.3328
   89MOL0     H11722   6.518   3.280   3.014 -3.4450 -1.6983 -0.6478
   89MOL0     H11723   6.529   3.130   2.925  1.1696  0.4020 -0.5511
   89MOL0     H11724   6.447   3.246   2.721 -0.2955 -0.4958 -0.1634
   89MOL0     H11725   6.464   3.400   2.807 -1.0704  0.5423 -2.1005
   89MOL0     H11726   6.273   3.182   2.904 -0.9014 -0.3946 -0.7794
   89MOL0     H11727   6.254   3.360   2.927 -2.2923 -0.2400 -0.3751
   89MOL0     H11728   6.195   3.214   2.675 -0.3417 -1.9211  1.7250
   89MOL0     H11729   6.212   3.385   2.685  0.7766 -1.6898 -1.2562
   89MOL0     H11730   7.189   3.216   2.782 -0.6897 -0.8000  0.2423
   89MOL0     H11731   7.374   3.073   2.760  0.9404 -0.5304  0.1197
   89MOL0     H11732   7.858   3.108   2.607  1.0839  0.1556  0.9757
   89MOL0     H11733   8.038   2.947   2.563 -0.0362 -1.4203 -0.4495
   89MOL0     H11734   9.844   2.230   3.069  0.0053  0.6263 -0.5424
   89MOL0     H11735  10.019   2.190   3.210  0.2696 -0.2597  0.5149
   89MOL0     H11736  10.322   2.225   3.380 -0.5008 -0.5321  0.6133
   89MOL0     H11737  10.555   2.173   3.449 -0.3059  2.7975 -0.4773
   89MOL0     H11738  10.605   2.094   3.870 -1.8945  0.5444 -2.1380
   89MOL0     H11739  10.739   2.223   3.859  0.3728  1.6062 -2.6564
   89MOL0     H11740  10.836   2.017   3.901 -0.3494 -0.9349 -1.0633
   89MOL0     H11741  10.761   1.936   3.771  2.3766 -1.7540  0.0306
   89MOL0     H11742  10.888   2.120   3.611  2.0627  2.4335  0.3845
   89MOL0     H11743  10.954   1.980   3.678 -2.4344 -0.1762 -3.1600
   89MOL0     H11744  11.048   2.120   3.865  0.1248 -0.8253 -0.5053
   89MOL0     H11745  11.109   2.149   3.708  0.9126  1.0532  2.2736
   89MOL0     H11746  10.894   2.505   3.831 -2.8562 -0.9728 -0.5631
   89MOL0     H11747  10.451   2.255   3.860  0.2313  4.1448  0.3079
   89MOL0     H11748  10.246   2.366   3.775 -0.6044  0.4923 -0.7916
   90MOL0     O11749   8.050   9.268   9.656  0.4400  0.8612 -0.0066
   90MOL0     C11750   7.972   9.168   9.651  0.4228  0.1529 -0.2401
   90MOL0     O11751   7.839   9.171   9.664  0.5429 -0.1886 -0.2786
   90MOL0     C11752   7.770   9.282   9.694 -0.2519  0.3841  0.5003
   90MOL0     C11753   7.651   9.272   9.768 -0.4485 -0.5049 -0.6920
   90MOL0     C11754   7.573   9.385   9.787 -0.1233 -0.1012  0.0782
   90MOL0     C11755   7.598   9.505   9.739  0.4225 -0.5419 -0.3080
   90MOL0     O11756   7.527   9.621   9.780  0.1278  0.5817  0.3978
   90MOL0     C11757   7.553   9.748   9.713 -0.9426  0.3204 -1.3812
   90MOL0     C11758   7.656   9.828   9.791 -0.6983 -0.5304  0.3165
   90MOL0     C11759   7.620   9.873   9.938  0.7740  0.2114 -0.2040
   90MOL0     C11760   7.513   9.975   9.951  0.9868 -0.5275 -0.3410
   90MOL0     C11761   7.501  10.024  10.095  1.0517 -0.0515  0.2375
   90MOL0     C11762   7.381  10.122  10.114 -0.6252  0.5420 -0.4913
   90MOL0     C11763   7.243  10.053  10.125 -1.1716  1.0148 -0.3672
   90MOL0     C11764   7.134  10.162  10.122 -0.9516 -0.3008  0.2103
   90MOL0     N11765   6.997  10.109  10.093 -0.2472 -1.5072  0.8147
   90MOL0     C11766   6.958  10.019   9.999 -0.0892  0.3391 -0.5203
   90MOL0     C11767   6.831  10.002  10.013  0.6461 -0.4703  0.9224
   90MOL0     C11768   6.750   9.924   9.909  0.1089  0.2698 -0.1599
   90MOL0     C11769   6.605   9.964   9.898 -0.0503  0.3117  0.1241
   90MOL0     C11770   6.531   9.850   9.820 -0.0535 -0.2032 -1.3503
   90MOL0     C11771   6.396   9.909   9.780  0.4327  0.5396 -1.0145
   90MOL0     O11772   6.319   9.810   9.714 -1.0339 -0.6192 -0.3475
   90MOL0     C11773   6.183   9.815   9.691 -0.1628 -0.3061  0.4341
   90MOL0     C11774   6.097   9.926   9.719  0.6877  0.4441 -0.2048
   90MOL0     C11775   5.961   9.919   9.693  0.0084  0.7652 -0.2065
   90MOL0     C11776   5.907   9.804   9.631  0.5018  0.3248  0.0127
   90MOL0     C11777   5.764   9.785   9.597 -0.8113  0.7959 -0.5552
   90MOL0     O11778   5.718   9.658   9.597 -0.0774  0.0325 -0.2200
   90MOL0     C11779   5.594   9.639   9.557 -0.4215  0.4994 -0.6423
   90MOL0     C11780   5.549   9.667   9.434 -0.0210 -1.2573 -1.4745
   90MOL0     C11781   5.420   9.649   9.391 -0.4167  0.6280  0.9685
   90MOL0     C11782   5.325   9.601   9.480 -0.0311 -0.0032  0.2906
   90MOL0     O11783   5.193   9.592   9.453 -0.4000 -0.2657 -0.1298
   90MOL0     C11784   5.167   9.570   9.313  0.5025  0.0096  0.0279
   90MOL0     C11785   5.017   9.551   9.303  0.4380  1.0384  0.0387
   90MOL0     C11786   4.972   9.438   9.392 -0.1206  0.1557  0.3912
   90MOL0     C11787   4.816   9.433   9.379  0.9944  0.0477 -0.2927
   90MOL0     C11788   4.743   9.317   9.449 -0.9619 -0.4324  0.9549
   90MOL0     C11789   4.601   9.292   9.393 -0.3964 -0.0101 -0.0752
   90MOL0     C11790   4.519   9.426   9.401  0.7084 -0.3851  0.0785
   90MOL0     C11791   4.379   9.388   9.456  0.0638 -0.5793 -0.2025
   90MOL0    Cl11792   4.278   9.332   9.319  0.5436 -0.6328  0.1005
   90MOL0     C11793   5.369   9.563   9.604 -0.4728 -0.1617 -0.1026
   90MOL0     C11794   5.502   9.581   9.649 -0.2453 -0.0030  0.9349
   90MOL0     O11795   5.691   9.882   9.580  0.4506  0.5424  0.4188
   90MOL0     C11796   5.995   9.695   9.589 -0.2301 -0.1724  0.7053
   90MOL0     C11797   6.130   9.700   9.619  0.3096 -0.1442 -0.7381
   90MOL0     N11798   6.781  10.088  10.111  0.0817 -0.2316 -0.4023
   90MOL0     N11799   6.885  10.143  10.162  0.1611 -0.6432 -0.6092
   90MOL0     C11800   7.717   9.513   9.664  0.2360  0.7138 -0.5982
   90MOL0     C11801   7.798   9.402   9.640  0.5531 -0.3323  0.7824
   90MOL0     C11802   8.047   9.041   9.642  0.8886  0.1103 -0.7388
   90MOL0     C11803   7.978   8.914   9.641 -0.6303  0.8577  0.1652
   90MOL0     C11804   8.052   8.796   9.623 -0.4828 -0.4274 -0.2764
   90MOL0     C11805   8.192   8.797   9.614 -0.0742  0.3651  0.2518
   90MOL0     O11806   8.256   8.672   9.591  0.2809  0.0718 -0.0795
   90MOL0     C11807   8.393   8.656   9.587 -0.4336 -0.2987 -0.1106
   90MOL0     C11808   8.468   8.649   9.722  0.1979 -0.8066  0.4618
   90MOL0     C11809   8.615   8.631   9.691 -0.0480 -0.0520 -0.1368
   90MOL0     C11810   8.690   8.651   9.829  0.1254 -0.0275  0.1061
   90MOL0     C11811   8.821   8.709   9.818  0.0845  0.9407 -0.1792
   90MOL0     C11812   8.939   8.737   9.814  0.0753 -0.6500  0.1583
   90MOL0     C11813   8.255   8.920   9.621  0.4384  0.1189  0.3575
   90MOL0     C11814   8.186   9.039   9.625 -0.2641  1.0416 -0.3430
   90MOL0     H11815   7.629   9.172   9.801 -1.0703 -0.4644 -0.9748
   90MOL0     H11816   7.483   9.365   9.845  0.7159  1.9759  2.2839
   90MOL0     H11817   7.460   9.805   9.714 -1.8670 -1.0861  0.8244
   90MOL0     H11818   7.584   9.736   9.609 -0.5374  0.6825 -1.3088
   90MOL0     H11819   7.692   9.907   9.725  1.1902 -0.9640  0.7353
   90MOL0     H11820   7.748   9.769   9.800  0.8612  1.7076 -0.0551
   90MOL0     H11821   7.706   9.917   9.991  0.9607 -0.0862 -0.2610
   90MOL0     H11822   7.584   9.784   9.991 -0.9871 -1.5160 -3.9705
   90MOL0     H11823   7.538  10.059   9.885  1.3782  0.7232  1.3202
   90MOL0     H11824   7.417   9.926   9.937  0.0881  0.8666  0.6682
   90MOL0     H11825   7.593  10.081  10.113  0.2213  1.3573  0.2106
   90MOL0     H11826   7.494   9.938  10.162 -0.0098  1.4776  2.1748
   90MOL0     H11827   7.374  10.194  10.033 -0.4569  1.8799  0.6401
   90MOL0     H11828   7.383  10.177  10.209 -1.3290  2.0502 -1.3200
   90MOL0     H11829   7.239   9.983  10.040  0.7852  0.1674  0.1694
   90MOL0     H11830   7.231  10.005  10.222 -1.6623  0.2498 -0.7907
   90MOL0     H11831   7.147  10.224  10.033 -3.0690 -0.9062 -0.5878
   90MOL0     H11832   7.146  10.214  10.218  2.8393 -1.0834  0.3177
   90MOL0     H11833   7.024   9.985   9.920  2.7417  2.3460  0.8123
   90MOL0     H11834   6.753   9.823   9.951 -1.3749  1.1189  2.2504
   90MOL0     H11835   6.799   9.933   9.812  0.1632  0.7249 -0.0924
   90MOL0     H11836   6.604  10.056   9.839  3.6117 -0.1830 -0.9794
   90MOL0     H11837   6.559   9.973   9.996  1.3719  1.2557  0.7343
   90MOL0     H11838   6.590   9.828   9.730  0.7704 -0.4687 -0.7547
   90MOL0     H11839   6.524   9.765   9.888  2.3868  0.0938 -0.6336
   90MOL0     H11840   6.401   9.994   9.711 -1.6764 -0.4108 -2.4546
   90MOL0     H11841   6.354   9.948   9.873  0.4355 -2.0667  0.1580
   90MOL0     H11842   6.132  10.017   9.767  1.4701  1.5491 -2.7269
   90MOL0     H11843   5.906  10.008   9.723  1.6933  1.9225 -0.4556
   90MOL0     H11844   5.623   9.708   9.365  0.5084  1.0126  0.3174
   90MOL0     H11845   5.405   9.686   9.290  0.3928  2.9230  1.6307
   90MOL0     H11846   5.209   9.476   9.276 -0.7380 -0.2777 -0.7446
   90MOL0     H11847   5.198   9.650   9.245 -0.9294  0.7519  0.2089
   90MOL0     H11848   4.989   9.545   9.197  3.8239  1.7234 -1.0567
   90MOL0     H11849   4.966   9.643   9.334 -1.9987  0.3961 -1.7517
   90MOL0     H11850   4.995   9.463   9.496  0.2072  1.8329 -0.0654
   90MOL0     H11851   5.016   9.346   9.351 -2.3767 -0.0203 -1.8811
   90MOL0     H11852   4.777   9.526   9.421 -2.6050 -1.0940 -0.8028
   90MOL0     H11853   4.791   9.423   9.273 -1.2603  2.7846 -0.1460
   90MOL0     H11854   4.744   9.325   9.558 -1.5477 -0.1133  0.9369
   90MOL0     H11855   4.796   9.227   9.415  0.2128  1.2292 -2.0067
   90MOL0     H11856   4.564   9.205   9.447  0.1265  0.1310  0.5205
   90MOL0     H11857   4.606   9.262   9.288  2.6723 -0.7264  0.1688
   90MOL0     H11858   4.569   9.484   9.479  1.9610 -0.3449 -0.7226
   90MOL0     H11859   4.508   9.485   9.309 -2.8988  0.7525  1.1093
   90MOL0     H11860   4.337   9.476   9.506  0.4616 -0.0335 -0.8103
   90MOL0     H11861   4.396   9.304   9.524 -1.8522 -0.8432  0.0275
   90MOL0     H11862   5.292   9.521   9.668 -0.1884 -1.8898 -0.8318
   90MOL0     H11863   5.530   9.560   9.752  3.1434  0.6705  0.2673
   90MOL0     H11864   5.956   9.601   9.550 -0.5427 -0.0022  0.6004
   90MOL0     H11865   6.173   9.603   9.597 -2.6039 -0.8404 -4.4494
   90MOL0     H11866   7.754   9.610   9.632 -0.5653  0.8424 -1.1570
   90MOL0     H11867   7.892   9.419   9.587  0.4188 -2.4187 -0.2311
   90MOL0     H11868   7.870   8.917   9.649 -0.6125  0.4390  0.6478
   90MOL0     H11869   7.999   8.701   9.622 -0.7899 -0.2789  0.8415
   90MOL0     H11870   8.440   8.731   9.523  1.6328 -1.4978 -0.1135
   90MOL0     H11871   8.390   8.552   9.553 -1.1704 -1.0027  1.9822
   90MOL0     H11872   8.451   8.746   9.769  0.2190 -0.6571  0.1626
   90MOL0     H11873   8.424   8.565   9.776 -0.5572 -0.8828 -0.2532
   90MOL0     H11874   8.644   8.713   9.625  0.1811 -0.1486 -0.1610
   90MOL0     H11875   8.637   8.532   9.649 -1.0087 -0.7063  0.8389
   90MOL0     H11876   8.633   8.723   9.889 -0.7570  2.2333 -3.1688
   90MOL0     H11877   8.698   8.556   9.882  2.1129  0.3004  0.4836
   90MOL0     H11878   9.036   8.780   9.824 -0.9233  1.3833  1.8354
   90MOL0     H11879   8.363   8.925   9.611  0.3368  0.9170 -0.6132
   90MOL0     H11880   8.247   9.128   9.636 -0.1584  0.7602  1.8314
   91MOL0     O11881   6.385   5.049   4.212  0.4465 -0.4693  0.3487
   91MOL0     C11882   6.421   5.061   4.327  0.2378 -0.8312 -0.1762
   91MOL0     O11883   6.353   5.066   4.439  0.7769 -0.2867  0.2586
   91MOL0     C11884   6.218   5.034   4.427 -0.1231  0.3478  1.0493
   91MOL0     C11885   6.168   4.906   4.469  0.1959  0.2222 -0.4499
   91MOL0     C11886   6.039   4.874   4.472  0.7168 -0.1150  0.3885
   91MOL0     C11887   5.941   4.960   4.413 -0.4275 -0.8828 -0.0038
   91MOL0     O11888   5.810   4.923   4.409  0.3477 -0.3038 -0.0267
   91MOL0     C11889   5.715   5.019   4.354 -0.4871  0.2699 -0.2886
   91MOL0     C11890   5.577   4.948   4.337 -0.0213  0.2092  0.4944
   91MOL0     C11891   5.479   5.022   4.245 -0.2605  0.2798  0.8493
   91MOL0     C11892   5.344   4.952   4.246  0.0328 -0.9206 -0.0616
   91MOL0     C11893   5.349   4.814   4.179  0.1880 -0.3940  0.2040
   91MOL0     C11894   5.208   4.757   4.144 -0.5553  0.0832  0.0775
   91MOL0     C11895   5.123   4.711   4.263  0.5264 -0.6318 -0.7338
   91MOL0     C11896   4.989   4.661   4.214  0.6586  0.0893 -1.0984
   91MOL0     N11897   4.909   4.784   4.177 -0.0724  0.0286  0.3881
   91MOL0     C11898   4.888   4.818   4.046  0.8823 -0.1795  0.6414
   91MOL0     C11899   4.785   4.907   4.050 -0.7167  0.1339 -0.3846
   91MOL0     C11900   4.707   4.958   3.934  0.0004 -0.0487 -0.3732
   91MOL0     C11901   4.576   4.880   3.922  0.5365  0.2373  0.7183
   91MOL0     C11902   4.457   4.970   3.873  0.2560  0.4739 -0.7442
   91MOL0     C11903   4.334   4.879   3.856 -0.2659 -0.7623 -0.6743
   91MOL0     O11904   4.301   4.822   3.987 -0.0293  0.6358  0.1322
   91MOL0     C11905   4.170   4.780   4.021  0.0835  0.8816  0.4418
   91MOL0     C11906   4.074   4.745   3.923  0.5663 -0.1205 -0.3181
   91MOL0     C11907   3.944   4.712   3.964 -0.0807  0.4989  0.2577
   91MOL0     C11908   3.908   4.702   4.099 -0.9654 -1.1728  0.6431
   91MOL0     C11909   3.770   4.670   4.132  0.2235  0.2308 -0.3415
   91MOL0     O11910   3.688   4.644   4.027 -0.2656  0.0871 -0.6547
   91MOL0     C11911   3.557   4.606   4.056 -0.7315  0.1585 -0.6115
   91MOL0     C11912   3.519   4.471   4.079 -0.0752  0.0958 -0.4262
   91MOL0     C11913   3.384   4.449   4.087  0.6350 -0.8109  0.1309
   91MOL0     C11914   3.292   4.550   4.065  0.2424  1.0972 -0.2137
   91MOL0     O11915   3.156   4.514   4.098  0.0174  0.1479 -0.0609
   91MOL0     C11916   3.056   4.619   4.129 -0.0917  0.2333  0.0914
   91MOL0     C11917   2.917   4.539   4.127  0.0159  0.2857  0.1978
   91MOL0     C11918   2.790   4.625   4.113  0.1554  0.1632 -0.5568
   91MOL0     C11919   2.772   4.706   4.244 -1.7653 -0.1911  0.2937
   91MOL0     C11920   2.633   4.778   4.249  1.0166  0.1533 -0.7105
   91MOL0     C11921   2.514   4.674   4.273  0.0090 -0.2160 -0.1302
   91MOL0     C11922   2.381   4.748   4.275  0.1160  0.7324  0.0419
   91MOL0     C11923   2.258   4.654   4.262 -0.1537  0.0612  0.3936
   91MOL0    Cl11924   2.112   4.763   4.256 -0.2633 -0.3531 -0.5256
   91MOL0     C11925   3.329   4.680   4.044 -0.5149 -0.7148  0.4375
   91MOL0     C11926   3.468   4.703   4.030  0.1096  0.5917  0.7227
   91MOL0     O11927   3.740   4.656   4.249  0.3790  0.2462  0.0264
   91MOL0     C11928   4.007   4.732   4.195  0.0979 -0.4267 -0.0416
   91MOL0     C11929   4.138   4.763   4.153 -0.1872 -0.2354  0.1105
   91MOL0     N11930   4.753   4.930   4.186  0.6739  0.3204  0.3351
   91MOL0     N11931   4.826   4.852   4.259 -0.3076 -0.2367 -0.2338
   91MOL0     C11932   5.987   5.088   4.374 -0.5032 -0.0645  0.1786
   91MOL0     C11933   6.126   5.127   4.391 -0.5351  0.8470  0.1737
   91MOL0     C11934   6.571   5.066   4.356 -0.0340  0.1763  0.8821
   91MOL0     C11935   6.624   5.131   4.464 -0.0540 -0.1823  0.8550
   91MOL0     C11936   6.761   5.128   4.490 -0.2302  0.6295  0.4260
   91MOL0     C11937   6.850   5.081   4.391  0.3396 -1.3050 -0.5928
   91MOL0     O11938   6.985   5.091   4.401 -0.8056 -0.5386  0.3970
   91MOL0     C11939   7.047   5.093   4.522  0.4841  0.1256 -0.0999
   91MOL0     C11940   7.194   5.053   4.509  0.8505 -0.2380  0.4703
   91MOL0     C11941   7.266   5.076   4.641 -0.0576  0.0529 -0.4142
   91MOL0     C11942   7.287   4.944   4.712  0.8426 -0.3207 -0.1440
   91MOL0     C11943   7.334   4.950   4.850 -0.1379  0.3097 -0.6321
   91MOL0     C11944   7.370   4.954   4.965 -0.7791 -0.5696 -0.2734
   91MOL0     C11945   6.805   5.030   4.271  0.5580  0.5943 -0.4862
   91MOL0     C11946   6.663   5.021   4.254 -0.2346  0.0928 -1.2540
   91MOL0     H11947   6.240   4.834   4.505 -0.9257  0.0094  1.5437
   91MOL0     H11948   6.006   4.781   4.518  0.2471  0.5580  1.4406
   91MOL0     H11949   5.762   5.042   4.257  1.1761 -2.4987 -0.2659
   91MOL0     H11950   5.696   5.097   4.428  0.1448  1.4954 -1.3756
   91MOL0     H11951   5.525   4.929   4.431 -2.1257 -1.9200 -0.9910
   91MOL0     H11952   5.613   4.854   4.294  2.9962 -0.1985  3.4761
   91MOL0     H11953   5.514   5.039   4.143 -0.3863 -0.3737  0.6895
   91MOL0     H11954   5.461   5.119   4.292  1.2559  0.0181  2.0458
   91MOL0     H11955   5.301   4.947   4.346  1.1677  0.4785  0.5406
   91MOL0     H11956   5.282   5.013   4.180  0.6166  0.3919  0.5481
   91MOL0     H11957   5.400   4.741   4.243  1.7285  0.7861  0.4017
   91MOL0     H11958   5.413   4.819   4.090  0.6950 -0.5934  0.5475
   91MOL0     H11959   5.234   4.666   4.089 -0.9294  0.9079 -1.5339
   91MOL0     H11960   5.159   4.817   4.067 -1.3790  0.5551  0.9392
   91MOL0     H11961   5.168   4.633   4.324 -1.1674 -2.1800 -1.3586
   91MOL0     H11962   5.106   4.796   4.330  1.0579  0.1715 -1.5970
   91MOL0     H11963   4.942   4.607   4.297  0.6789  1.9150  0.1846
   91MOL0     H11964   5.001   4.601   4.124 -0.5974  0.4800 -1.5522
   91MOL0     H11965   4.940   4.773   3.963  0.3164 -0.5440  0.4714
   91MOL0     H11966   4.770   4.942   3.845  0.9372 -2.6399  0.6612
   91MOL0     H11967   4.690   5.066   3.936 -0.8720 -0.1805 -0.2335
   91MOL0     H11968   4.538   4.835   4.013 -0.8296  0.0441  0.0826
   91MOL0     H11969   4.592   4.799   3.850 -0.0247  2.4520 -2.1022
   91MOL0     H11970   4.419   5.053   3.933 -2.6315  0.4969 -2.3797
   91MOL0     H11971   4.485   5.011   3.776 -2.8777  4.2542 -0.3085
   91MOL0     H11972   4.354   4.806   3.776  1.0107 -0.4035 -0.7063
   91MOL0     H11973   4.253   4.947   3.829 -0.8517  1.0540  4.5524
   91MOL0     H11974   4.083   4.751   3.815 -2.3270 -0.0330 -0.6188
   91MOL0     H11975   3.884   4.686   3.878  1.5948  0.0477 -0.8349
   91MOL0     H11976   3.609   4.412   4.089  1.0472  1.1839 -3.3781
   91MOL0     H11977   3.362   4.345   4.110  2.3233 -1.3787 -0.6417
   91MOL0     H11978   3.048   4.700   4.056  1.4951  0.6605  0.3644
   91MOL0     H11979   3.075   4.668   4.225  1.4068 -0.2162  0.0442
   91MOL0     H11980   2.918   4.472   4.213 -1.4606  0.4482  0.3565
   91MOL0     H11981   2.921   4.471   4.041  2.8982  0.4113  0.1152
   91MOL0     H11982   2.709   4.552   4.112 -1.4122  1.8376 -1.6425
   91MOL0     H11983   2.786   4.683   4.020  0.0213  0.5592 -0.3006
   91MOL0     H11984   2.778   4.637   4.329 -1.9293 -1.4151 -0.6592
   91MOL0     H11985   2.849   4.784   4.242 -2.1928  0.2836 -2.7460
   91MOL0     H11986   2.606   4.816   4.150  1.3912  0.4969 -0.6835
   91MOL0     H11987   2.630   4.857   4.325 -2.5905 -2.6244  2.4648
   91MOL0     H11988   2.536   4.622   4.366  2.7207 -0.8742 -1.0596
   91MOL0     H11989   2.507   4.596   4.196  0.2728  2.8029 -3.5181
   91MOL0     H11990   2.376   4.800   4.371 -0.2500 -0.3822  0.6442
   91MOL0     H11991   2.381   4.822   4.194  2.5299  1.5215  0.6786
   91MOL0     H11992   2.242   4.579   4.340  1.2641  0.4220  1.0639
   91MOL0     H11993   2.280   4.608   4.165 -0.0844  1.1998 -0.1481
   91MOL0     H11994   3.250   4.753   4.030  2.6418  3.1058  1.0005
   91MOL0     H11995   3.512   4.800   4.014  0.9963  0.1285  0.2866
   91MOL0     H11996   3.984   4.738   4.301  1.1544 -0.1217  0.1800
   91MOL0     H11997   4.211   4.793   4.228  0.7859  0.1508 -0.9635
   91MOL0     H11998   5.921   5.161   4.328  0.8497 -0.2864 -2.3059
   91MOL0     H11999   6.153   5.229   4.367 -2.4961  1.1483 -1.0102
   91MOL0     H12000   6.565   5.189   4.533  0.3363 -3.5115  4.2984
   91MOL0     H12001   6.793   5.175   4.582 -1.6500  0.6556  0.9324
   91MOL0     H12002   6.996   5.020   4.586  3.9478 -0.2214  2.5309
   91MOL0     H12003   7.043   5.193   4.568 -0.6086 -0.5170  1.3044
   91MOL0     H12004   7.203   4.953   4.467  2.2747  0.9376 -2.2960
   91MOL0     H12005   7.240   5.119   4.435  0.6824 -1.4951 -0.7842
   91MOL0     H12006   7.219   5.144   4.712  0.6031 -0.0952  0.1821
   91MOL0     H12007   7.363   5.126   4.626 -0.5303  0.8797 -0.7798
   91MOL0     H12008   7.195   4.886   4.695  0.5004  0.2729 -0.3305
   91MOL0     H12009   7.366   4.891   4.659  0.2771 -1.1742 -0.1652
   91MOL0     H12010   7.403   4.952   5.067 -0.6505  0.0714 -0.3012
   91MOL0     H12011   6.878   4.996   4.198  0.9596 -1.5446  0.8371
   91MOL0     H12012   6.609   4.975   4.171 -2.1749 -3.5547  1.7401
   92MOL0     O12013   7.675   6.911   4.917 -0.4947 -0.8319  0.1875
   92MOL0     C12014   7.729   7.017   4.880  0.8836 -1.0205  0.1771
   92MOL0     O12015   7.681   7.138   4.897  0.4199 -0.3211 -0.2147
   92MOL0     C12016   7.545   7.160   4.906 -0.6484  0.1335 -0.7635
   92MOL0     C12017   7.479   7.233   4.805 -0.2404  0.5514 -0.0012
   92MOL0     C12018   7.343   7.265   4.812 -1.2052 -0.0270 -1.0620
   92MOL0     C12019   7.260   7.212   4.913 -0.2261  0.1964 -0.2664
   92MOL0     O12020   7.124   7.232   4.920  0.5554 -0.5560  0.4538
   92MOL0     C12021   7.051   7.246   4.796 -0.0930  0.1907 -0.3929
   92MOL0     C12022   6.902   7.205   4.799  0.8544  0.1196 -0.1661
   92MOL0     C12023   6.820   7.335   4.847  0.2401 -0.1878  0.5146
   92MOL0     C12024   6.714   7.302   4.945  0.2803  0.3723 -0.2481
   92MOL0     C12025   6.594   7.219   4.893 -1.0977 -0.4458  0.9029
   92MOL0     C12026   6.512   7.184   5.014  0.2338 -0.4892 -0.0730
   92MOL0     C12027   6.374   7.134   4.980  0.3832 -0.2452  0.0937
   92MOL0     C12028   6.302   7.097   5.107 -0.3332  0.1715 -0.8390
   92MOL0     N12029   6.162   7.066   5.073  0.3915  0.9331  0.9481
   92MOL0     C12030   6.055   7.151   5.066  0.3650 -0.4459  0.9777
   92MOL0     C12031   5.950   7.067   5.047  0.3496  0.7976 -0.5515
   92MOL0     C12032   5.809   7.118   5.032  1.4523 -0.5074  0.4253
   92MOL0     C12033   5.711   7.039   4.947 -0.6603  1.0062 -0.5682
   92MOL0     C12034   5.571   7.117   4.925  0.0707  0.3820 -0.7529
   92MOL0     C12035   5.489   7.046   4.822 -0.4839 -0.5411  0.4937
   92MOL0     O12036   5.432   6.922   4.866 -0.9438  0.8521 -0.4919
   92MOL0     C12037   5.306   6.888   4.818 -0.5446 -1.0638  0.3040
   92MOL0     C12038   5.262   6.910   4.692  0.0694 -0.7380  0.2065
   92MOL0     C12039   5.129   6.904   4.650  0.4045  0.6010 -1.0684
   92MOL0     C12040   5.028   6.871   4.747 -0.4068  1.2918  0.0410
   92MOL0     C12041   4.885   6.863   4.714  0.1620  0.0013  0.8904
   92MOL0     O12042   4.789   6.816   4.810  0.3878  0.4481 -0.1770
   92MOL0     C12043   4.653   6.814   4.789  0.9614 -0.2166 -0.1600
   92MOL0     C12044   4.572   6.874   4.890 -0.2829  0.8541 -0.2835
   92MOL0     C12045   4.434   6.879   4.874 -0.1657  0.8053  0.4291
   92MOL0     C12046   4.378   6.838   4.742  0.9279 -0.7555 -0.4308
   92MOL0     O12047   4.241   6.852   4.735 -0.5687  0.1631 -0.0794
   92MOL0     C12048   4.178   6.750   4.657  0.0272  0.7165 -0.5382
   92MOL0     C12049   4.024   6.765   4.687 -0.2801  0.9617 -0.5031
   92MOL0     C12050   3.949   6.712   4.566 -0.1553 -0.7833  0.1678
   92MOL0     C12051   3.796   6.703   4.590  0.6461 -0.2377  0.0931
   92MOL0     C12052   3.718   6.834   4.579  0.5279 -0.6613  0.1340
   92MOL0     C12053   3.573   6.810   4.612 -0.3028  0.1108  0.4209
   92MOL0     C12054   3.505   6.957   4.615 -0.0142 -0.1896 -0.1544
   92MOL0     C12055   3.383   6.964   4.703  0.2478 -0.7481  0.6879
   92MOL0    Cl12056   3.434   6.952   4.866 -0.1845 -0.5231  0.8205
   92MOL0     C12057   4.458   6.796   4.643  0.8782 -0.3331  0.1933
   92MOL0     C12058   4.589   6.778   4.663 -1.3946 -0.0908 -0.5799
   92MOL0     O12059   4.854   6.920   4.607 -0.7067 -0.6007  0.0830
   92MOL0     C12060   5.078   6.846   4.876  0.5228  0.5074  0.8042
   92MOL0     C12061   5.208   6.854   4.907 -0.9742 -0.8313 -0.3920
   92MOL0     N12062   5.986   6.931   5.050 -0.2935 -0.4281 -0.6727
   92MOL0     N12063   6.116   6.936   5.057 -0.0454  0.1451  0.0776
   92MOL0     C12064   7.321   7.138   5.017  0.7178  0.0355  0.0668
   92MOL0     C12065   7.459   7.113   5.011 -0.6212 -0.0658 -0.1096
   92MOL0     C12066   7.864   6.997   4.826 -0.4378 -0.5281 -0.4066
   92MOL0     C12067   7.905   6.863   4.799  0.2417  0.2255 -0.3707
   92MOL0     C12068   8.040   6.832   4.761 -0.2016 -0.1090  0.0151
   92MOL0     C12069   8.131   6.946   4.735 -0.4266  0.1226  0.0029
   92MOL0     O12070   8.263   6.926   4.694 -0.2231 -0.3781 -0.0530
   92MOL0     C12071   8.301   6.790   4.679  0.5836  0.1049  0.1317
   92MOL0     C12072   8.443   6.786   4.615  0.0394  0.2614 -0.3037
   92MOL0     C12073   8.459   6.853   4.477 -0.6918  0.2582  0.3713
   92MOL0     C12074   8.463   7.012   4.492 -0.2416  0.3920 -0.1068
   92MOL0     C12075   8.473   7.082   4.360 -0.2425 -0.3366 -0.6121
   92MOL0     C12076   8.475   7.154   4.266 -0.5105  0.0703 -0.4176
   92MOL0     C12077   8.086   7.075   4.751  0.3886  1.2594 -0.5590
   92MOL0     C12078   7.954   7.102   4.795 -0.4388 -0.1014 -0.7614
   92MOL0     H12079   7.539   7.258   4.718  0.4646 -3.4513 -0.8385
   92MOL0     H12080   7.298   7.329   4.737 -2.9589 -1.8834 -1.7016
   92MOL0     H12081   7.096   7.177   4.724  0.6250  0.8963 -0.6293
   92MOL0     H12082   7.075   7.349   4.768  3.5842 -0.6450 -0.7235
   92MOL0     H12083   6.891   7.118   4.864  0.5020  0.0910 -0.2609
   92MOL0     H12084   6.868   7.171   4.701  0.5869  0.2031 -0.1036
   92MOL0     H12085   6.776   7.390   4.763 -1.7890 -2.4878 -0.0305
   92MOL0     H12086   6.890   7.408   4.890  0.2201  2.0616 -2.8251
   92MOL0     H12087   6.758   7.250   5.030 -2.0530 -0.3874  0.5695
   92MOL0     H12088   6.667   7.395   4.978 -1.2555 -0.4539 -0.0092
   92MOL0     H12089   6.634   7.130   4.844 -4.7330 -2.0173  0.5111
   92MOL0     H12090   6.534   7.277   4.823 -2.2032 -0.9467  1.4092
   92MOL0     H12091   6.505   7.277   5.071  2.0892 -0.5023  0.2394
   92MOL0     H12092   6.563   7.116   5.082 -0.0844  2.3543  3.2609
   92MOL0     H12093   6.316   7.207   4.924 -2.8669 -2.1634  0.7286
   92MOL0     H12094   6.381   7.046   4.916 -0.3766 -0.4238  0.2443
   92MOL0     H12095   6.316   7.173   5.184 -2.0189 -1.3714  1.1079
   92MOL0     H12096   6.350   7.006   5.144  1.1432  0.3734 -2.1841
   92MOL0     H12097   6.047   7.257   5.084 -0.2305 -0.7577  2.7369
   92MOL0     H12098   5.815   7.214   4.979 -2.1265 -1.3151 -1.7466
   92MOL0     H12099   5.768   7.135   5.132  0.3135  2.8218 -0.4779
   92MOL0     H12100   5.716   6.941   4.995  4.3577  1.1967 -0.1181
   92MOL0     H12101   5.761   7.014   4.852  1.3528 -1.6198  1.0106
   92MOL0     H12102   5.522   7.123   5.022  0.9726  1.5759 -0.3416
   92MOL0     H12103   5.590   7.221   4.895  1.6799  0.9711  1.9623
   92MOL0     H12104   5.556   7.031   4.737  0.4033  2.4206  0.5609
   92MOL0     H12105   5.404   7.113   4.802  0.0676  1.5548  4.1332
   92MOL0     H12106   5.322   6.946   4.609 -1.5571  1.3593 -0.1498
   92MOL0     H12107   5.105   6.920   4.545 -0.7269  4.4248 -0.4067
   92MOL0     H12108   4.615   6.901   4.986 -2.2934 -0.2503  0.9920
   92MOL0     H12109   4.363   6.917   4.946 -2.1661 -1.8015 -0.0164
   92MOL0     H12110   4.218   6.663   4.710 -3.5474 -0.2284  0.9611
   92MOL0     H12111   4.193   6.758   4.549 -0.9755  0.4358 -0.7123
   92MOL0     H12112   4.006   6.872   4.704  0.3547  1.2365 -1.5019
   92MOL0     H12113   3.998   6.711   4.778 -0.5021  2.7654  0.5640
   92MOL0     H12114   3.987   6.613   4.541 -0.2038 -0.4408 -1.3734
   92MOL0     H12115   3.969   6.783   4.485  2.0078 -0.1023  1.2182
   92MOL0     H12116   3.758   6.641   4.508  0.4515  0.2827 -0.2096
   92MOL0     H12117   3.767   6.650   4.682  0.7535 -1.0510 -0.3277
   92MOL0     H12118   3.741   6.881   4.483  2.7259 -1.0569  0.4234
   92MOL0     H12119   3.766   6.904   4.648 -1.0815 -0.6666  1.3224
   92MOL0     H12120   3.559   6.760   4.709  0.6359 -1.2888 -0.1354
   92MOL0     H12121   3.526   6.743   4.540 -1.3078  0.6997  0.4978
   92MOL0     H12122   3.586   7.026   4.637  0.5816 -0.6068 -0.9861
   92MOL0     H12123   3.471   6.981   4.514 -2.1251 -0.0723  0.5447
   92MOL0     H12124   3.322   6.876   4.678  0.2134  0.0555 -2.4508
   92MOL0     H12125   3.334   7.058   4.677 -0.4343 -0.5042  2.6720
   92MOL0     H12126   4.424   6.775   4.542  1.5361  1.8922 -0.5361
   92MOL0     H12127   4.658   6.724   4.598 -0.4496  0.3819  0.0034
   92MOL0     H12128   4.994   6.821   4.940  0.2437 -1.5944 -0.2915
   92MOL0     H12129   5.243   6.853   5.010 -0.4898  0.9697 -0.5073
   92MOL0     H12130   7.246   7.096   5.083 -0.1096  1.9138  0.4094
   92MOL0     H12131   7.510   7.053   5.085 -1.4075 -0.3232  0.2325
   92MOL0     H12132   7.835   6.783   4.820  1.0526  0.1140  2.2962
   92MOL0     H12133   8.066   6.727   4.762 -1.8302 -0.5547 -1.2202
   92MOL0     H12134   8.231   6.725   4.625 -0.2806  0.4327  0.8267
   92MOL0     H12135   8.326   6.743   4.774  1.4003  1.5877  0.6910
   92MOL0     H12136   8.521   6.821   4.684 -1.2968 -1.9540  2.5343
   92MOL0     H12137   8.455   6.677   4.605  0.2640 -0.0014  2.3318
   92MOL0     H12138   8.382   6.820   4.407  0.9794  0.9698 -1.9163
   92MOL0     H12139   8.548   6.821   4.422 -1.9919 -0.0904 -1.6225
   92MOL0     H12140   8.374   7.058   4.535 -1.2996  1.8379 -3.4376
   92MOL0     H12141   8.551   7.036   4.552  0.3251  1.5669 -1.3402
   92MOL0     H12142   8.479   7.214   4.177 -4.1912  2.7692  1.0056
   92MOL0     H12143   8.157   7.154   4.730  3.2593  0.1025  3.4887
   92MOL0     H12144   7.926   7.207   4.808 -0.1867 -0.2504  1.1778
   93MOL0     O12145  10.974   6.093  11.055 -0.3055 -0.5048  0.3773
   93MOL0     C12146  10.977   6.073  10.933  1.4763 -0.8263 -0.2112
   93MOL0     O12147  10.873   6.049  10.849  0.2670 -0.9865 -0.0893
   93MOL0     C12148  10.744   6.016  10.884  0.1526  0.2513 -0.4099
   93MOL0     C12149  10.650   6.017  10.780 -0.1948 -0.1736 -0.5904
   93MOL0     C12150  10.518   5.983  10.801  0.4182 -0.4135 -0.2419
   93MOL0     C12151  10.472   5.957  10.928 -0.2641  0.1817 -0.1860
   93MOL0     O12152  10.337   5.933  10.953  0.5669 -0.1262 -0.3048
   93MOL0     C12153  10.271   5.831  10.872 -0.2901  0.6133 -0.0104
   93MOL0     C12154  10.120   5.828  10.894 -0.5237  0.0144 -0.7326
   93MOL0     C12155  10.051   5.960  10.859  0.3299  0.2563 -0.2027
   93MOL0     C12156   9.929   5.943  10.763 -0.5033  0.5002  0.1045
   93MOL0     C12157   9.884   6.061  10.666  0.0662  0.1894 -0.1451
   93MOL0     C12158   9.817   6.171  10.755  0.5329 -0.0917  0.2066
   93MOL0     C12159   9.700   6.121  10.848  0.8594 -0.9196  0.3201
   93MOL0     C12160   9.680   6.212  10.964  0.0459 -0.7580  0.2060
   93MOL0     N12161   9.784   6.184  11.072  0.7645 -0.3729 -0.1016
   93MOL0     C12162   9.909   6.238  11.101  0.1660  0.1166  0.4782
   93MOL0     C12163   9.955   6.168  11.204 -0.5042 -0.9449  0.7231
   93MOL0     C12164  10.091   6.178  11.276 -0.0080 -0.6724  1.4167
   93MOL0     C12165  10.213   6.176  11.184  0.1817 -0.2621  0.5823
   93MOL0     C12166  10.344   6.132  11.248  0.6171 -0.3365 -0.1754
   93MOL0     C12167  10.369   6.162  11.396 -0.8430  1.1919  0.2236
   93MOL0     O12168  10.431   6.290  11.409 -0.6028  0.3256 -0.8789
   93MOL0     C12169  10.568   6.311  11.390 -0.3738  0.5456 -0.4439
   93MOL0     C12170  10.598   6.441  11.404 -1.1092 -0.3173  0.1151
   93MOL0     C12171  10.730   6.481  11.386 -1.5348  0.8838 -1.5664
   93MOL0     C12172  10.831   6.391  11.345 -0.3977  0.0214 -0.9802
   93MOL0     C12173  10.964   6.433  11.334  0.2071  0.0913  0.3844
   93MOL0     O12174  11.048   6.337  11.289 -0.2364 -0.7309  0.3114
   93MOL0     C12175  11.169   6.374  11.241  0.7899  0.4626  0.1545
   93MOL0     C12176  11.202   6.478  11.151  0.0060 -0.1866  0.5838
   93MOL0     C12177  11.333   6.474  11.094  0.4659  0.3924 -0.5678
   93MOL0     C12178  11.431   6.377  11.137  0.6797  0.2507 -1.0707
   93MOL0     O12179  11.551   6.347  11.084 -0.1686 -0.3326 -0.0353
   93MOL0     C12180  11.588   6.402  10.955 -0.3041  0.1295 -1.0179
   93MOL0     C12181  11.738   6.411  10.951  0.5730  0.9668  0.3143
   93MOL0     C12182  11.799   6.420  10.811  0.2016  0.6117  0.0068
   93MOL0     C12183  11.950   6.386  10.795  0.2073 -0.0587 -0.4088
   93MOL0     C12184  11.997   6.376  10.655 -0.2548 -0.2661 -0.1130
   93MOL0     C12185  12.153   6.351  10.648 -0.3567 -0.3082 -0.7430
   93MOL0     C12186  12.203   6.404  10.520  0.5434  0.3965  0.3263
   93MOL0     C12187  12.358   6.418  10.505 -0.3244  0.0439 -0.0003
   93MOL0    Cl12188  12.435   6.250  10.522 -0.0316 -0.6138 -0.2577
   93MOL0     C12189  11.394   6.289  11.232  0.0491  0.3615 -0.4549
   93MOL0     C12190  11.263   6.280  11.278 -0.0918 -0.1788  0.3213
   93MOL0     O12191  10.999   6.545  11.362  0.4056  0.1578 -0.0499
   93MOL0     C12192  10.790   6.259  11.319 -0.1347 -0.4806  0.1461
   93MOL0     C12193  10.657   6.219  11.351 -0.5886  0.2578  0.3266
   93MOL0     N12194   9.862   6.082  11.244  0.3592  0.5077 -0.4985
   93MOL0     N12195   9.755   6.088  11.167  0.8434  0.1408 -0.4698
   93MOL0     C12196  10.565   5.953  11.038  0.0131  0.1685  0.6215
   93MOL0     C12197  10.703   5.982  11.017 -0.1867 -0.8728 -1.2452
   93MOL0     C12198  11.114   6.075  10.882 -0.3946  0.2879  0.7369
   93MOL0     C12199  11.137   6.065  10.752  0.2101  0.5330 -0.0624
   93MOL0     C12200  11.266   6.059  10.700 -0.1339 -0.5588 -0.0207
   93MOL0     C12201  11.384   6.061  10.783  0.3329  0.5249 -0.0096
   93MOL0     O12202  11.506   6.044  10.731 -0.3579  0.1737  0.1386
   93MOL0     C12203  11.518   5.975  10.602 -0.0553  0.9342 -0.4673
   93MOL0     C12204  11.650   5.895  10.582  0.4843  0.1313 -1.2126
   93MOL0     C12205  11.785   5.961  10.583  0.7897  1.1882 -1.5137
   93MOL0     C12206  11.896   5.861  10.554  1.0786  0.8594  0.1621
   93MOL0     C12207  12.009   5.934  10.514 -1.2025  0.0498  0.6153
   93MOL0     C12208  12.113   5.989  10.481  0.2103  0.2948  0.4883
   93MOL0     C12209  11.368   6.074  10.921  0.4064 -0.1797  0.0083
   93MOL0     C12210  11.234   6.081  10.965  0.4169  0.4562 -1.6830
   93MOL0     H12211  10.686   6.061  10.688  0.8435  0.8304  0.2661
   93MOL0     H12212  10.450   6.006  10.719  0.5003 -0.3493 -0.2920
   93MOL0     H12213  10.313   5.736  10.907 -0.8011  0.5274  0.3710
   93MOL0     H12214  10.292   5.852  10.767 -3.0711 -1.5344 -1.1243
   93MOL0     H12215  10.099   5.800  10.998 -0.3707 -3.2222 -1.4681
   93MOL0     H12216  10.066   5.754  10.834 -2.3912 -1.3326  2.3777
   93MOL0     H12217  10.123   6.030  10.814  0.9630 -0.0697  0.2798
   93MOL0     H12218  10.016   6.003  10.952 -0.5271 -3.7904  1.5696
   93MOL0     H12219   9.968   5.863  10.700 -2.0192 -2.5048  2.7097
   93MOL0     H12220   9.842   5.901  10.815 -2.4065  1.7928 -1.8635
   93MOL0     H12221   9.805   6.029  10.598  1.6571 -3.9194 -0.3492
   93MOL0     H12222   9.975   6.098  10.620  2.6866 -1.6364  3.1029
   93MOL0     H12223   9.778   6.244  10.683 -0.9218 -0.8867  0.1532
   93MOL0     H12224   9.903   6.214  10.808  0.1990  0.1919  0.5252
   93MOL0     H12225   9.611   6.101  10.789  0.9553 -0.9737  0.1913
   93MOL0     H12226   9.714   6.019  10.886  2.0126 -0.8750  0.0612
   93MOL0     H12227   9.581   6.202  11.010  0.5011 -0.3427  1.3185
   93MOL0     H12228   9.701   6.316  10.936  2.0364 -0.5361  2.1895
   93MOL0     H12229   9.960   6.321  11.052 -2.0462  1.9220  1.0679
   93MOL0     H12230  10.095   6.091  11.342 -1.1912 -1.2109  0.8037
   93MOL0     H12231  10.092   6.270  11.336  2.6302  0.9136 -0.8402
   93MOL0     H12232  10.227   6.270  11.130 -1.3023  0.9907  2.2654
   93MOL0     H12233  10.183   6.109  11.102 -1.8969  4.4937 -3.0231
   93MOL0     H12234  10.341   6.023  11.241 -1.9556 -0.3229 -0.3479
   93MOL0     H12235  10.430   6.170  11.192  0.2268  1.8500  0.6126
   93MOL0     H12236  10.432   6.090  11.448 -0.5639  1.3385  0.0900
   93MOL0     H12237  10.272   6.175  11.446 -2.5024 -2.4904 -1.6359
   93MOL0     H12238  10.535   6.524  11.437  0.5040  0.8803  0.2902
   93MOL0     H12239  10.747   6.586  11.407 -3.2301  1.2684 -1.9598
   93MOL0     H12240  11.122   6.545  11.122 -0.0017  1.0171  3.1054
   93MOL0     H12241  11.349   6.561  11.032  1.0614  1.4123  0.9637
   93MOL0     H12242  11.532   6.494  10.936  0.7615  1.8601  2.9685
   93MOL0     H12243  11.554   6.323  10.888 -1.4043 -1.0897  0.8797
   93MOL0     H12244  11.777   6.319  10.997  1.9363  0.8273 -1.0299
   93MOL0     H12245  11.777   6.492  11.013  0.1397  0.8136  0.7953
   93MOL0     H12246  11.776   6.518  10.768 -2.0580  1.2236  2.3411
   93MOL0     H12247  11.737   6.355  10.749  1.0133 -0.3464  0.1893
   93MOL0     H12248  12.011   6.471  10.825 -0.5552  0.4364 -0.2205
   93MOL0     H12249  11.980   6.299  10.854  1.4021  0.5423 -0.0962
   93MOL0     H12250  11.977   6.475  10.613  1.6079  0.2925  0.2297
   93MOL0     H12251  11.950   6.299  10.593  2.5659 -1.4559 -0.9286
   93MOL0     H12252  12.167   6.243  10.657  2.4714  0.1757  2.0690
   93MOL0     H12253  12.199   6.400  10.734 -1.6157 -0.8874  0.3042
   93MOL0     H12254  12.159   6.340  10.443  2.9112 -0.8073 -0.1175
   93MOL0     H12255  12.162   6.505  10.523 -2.3813 -0.6966  0.2313
   93MOL0     H12256  12.391   6.496  10.575  0.2942  0.5846 -0.8716
   93MOL0     H12257  12.390   6.470  10.414  0.0834 -0.2384 -0.0187
   93MOL0     H12258  11.461   6.208  11.261 -1.2524 -1.1383 -1.4350
   93MOL0     H12259  11.244   6.196  11.343  0.6920 -0.1899  0.5456
   93MOL0     H12260  10.854   6.183  11.274 -0.2716  0.8087 -2.4295
   93MOL0     H12261  10.635   6.113  11.340  2.3290 -0.7200  2.5514
   93MOL0     H12262  10.526   5.935  11.138  0.8861  0.2338  0.9816
   93MOL0     H12263  10.773   5.969  11.099  0.2161  0.3923 -1.3761
   93MOL0     H12264  11.053   6.045  10.685  1.3215 -1.3254 -0.9941
   93MOL0     H12265  11.274   6.063  10.592 -1.6745 -4.5126 -0.4771
   93MOL0     H12266  11.499   6.049  10.525 -0.3243  0.3197 -1.0061
   93MOL0     H12267  11.440   5.898  10.609  0.7470  0.2567  2.3891
   93MOL0     H12268  11.654   5.824  10.665 -2.2443 -1.2597 -2.1247
   93MOL0     H12269  11.638   5.832  10.493  0.7903 -0.6759 -0.6928
   93MOL0     H12270  11.794   6.012  10.679 -1.3426  1.1608 -1.2472
   93MOL0     H12271  11.784   6.037  10.504 -1.6993 -0.3067 -3.0553
   93MOL0     H12272  11.919   5.799  10.641  1.5921 -3.4724 -2.7222
   93MOL0     H12273  11.873   5.789  10.475  0.3030  1.7533 -0.4470
   93MOL0     H12274  12.210   6.031  10.460 -0.1889  0.4202 -1.2975
   93MOL0     H12275  11.456   6.084  10.983 -0.2543  1.6559  0.7183
   93MOL0     H12276  11.234   6.087  11.073 -0.3159 -1.1291 -1.5644
   94MOL0     O12277  11.151   1.969   6.086 -0.1728  0.1612  0.2144
   94MOL0     C12278  11.256   1.981   6.150 -0.8237  0.6177  0.2285
   94MOL0     O12279  11.274   2.050   6.264 -0.0798  0.0309  0.2373
   94MOL0     C12280  11.170   2.105   6.340  0.1111 -0.3409  0.5959
   94MOL0     C12281  11.208   2.170   6.452 -0.6179 -0.2177 -0.7673
   94MOL0     C12282  11.114   2.222   6.540  0.7627 -0.5159  1.0439
   94MOL0     C12283  10.977   2.221   6.510  0.2473  0.4624  0.2780
   94MOL0     O12284  10.891   2.279   6.602 -0.2517  0.3314  0.2398
   94MOL0     C12285  10.750   2.238   6.596  0.0295  0.3289 -0.6601
   94MOL0     C12286  10.696   2.275   6.736  0.1700  0.2029  0.7764
   94MOL0     C12287  10.768   2.208   6.848  0.2582 -0.5686 -0.1466
   94MOL0     C12288  10.675   2.197   6.976 -0.3454 -0.1481  0.8849
   94MOL0     C12289  10.744   2.157   7.104 -0.9327 -0.6265 -0.6310
   94MOL0     C12290  10.641   2.086   7.204  0.3500 -0.1243 -0.7888
   94MOL0     C12291  10.588   1.952   7.141 -0.3656 -0.5522 -0.3042
   94MOL0     C12292  10.526   1.842   7.226  0.1857  0.9236 -0.1105
   94MOL0     N12293  10.427   1.770   7.135  0.1180 -0.6309  0.4110
   94MOL0     C12294  10.455   1.692   7.028 -0.7176  0.1904 -0.1803
   94MOL0     C12295  10.339   1.682   6.962  0.2779 -0.3106 -0.3094
   94MOL0     C12296  10.312   1.627   6.828 -0.1208  0.6272  0.4188
   94MOL0     C12297  10.292   1.476   6.832  0.3389 -0.1607 -0.0616
   94MOL0     C12298  10.411   1.387   6.884 -0.5682  0.5157  0.3397
   94MOL0     C12299  10.551   1.404   6.826  0.1935 -0.3726 -0.0328
   94MOL0     O12300  10.646   1.333   6.900  0.3251 -0.3834 -0.1394
   94MOL0     C12301  10.773   1.333   6.856  0.5245 -0.2034 -0.2485
   94MOL0     C12302  10.838   1.433   6.793  0.0574  0.0621  0.4341
   94MOL0     C12303  10.969   1.423   6.749 -1.1278 -0.4683 -0.7532
   94MOL0     C12304  11.045   1.316   6.789 -0.9608 -0.0582 -0.8255
   94MOL0     C12305  11.197   1.315   6.759  0.5714  0.0340 -0.4153
   94MOL0     O12306  11.259   1.215   6.825 -0.5305  0.1163  0.4494
   94MOL0     C12307  11.391   1.195   6.794 -0.4438  0.0220 -1.1395
   94MOL0     C12308  11.478   1.178   6.902 -0.1297  0.4481 -0.0823
   94MOL0     C12309  11.616   1.153   6.866  0.4734 -0.0590 -1.0681
   94MOL0     C12310  11.660   1.125   6.735  0.0630 -0.5550 -1.2077
   94MOL0     O12311  11.787   1.109   6.724 -0.2593  0.5095 -0.1785
   94MOL0     C12312  11.848   1.105   6.596 -0.4776  0.7199  0.5808
   94MOL0     C12313  12.000   1.115   6.614 -0.9590  0.5961  0.0567
   94MOL0     C12314  12.070   1.117   6.474 -0.5602  0.2678  0.6111
   94MOL0     C12315  12.230   1.116   6.474  0.1496  0.3129  0.3172
   94MOL0     C12316  12.282   1.102   6.328 -0.2365 -0.0802  0.0742
   94MOL0     C12317  12.438   1.108   6.317 -0.4239  0.2005  0.1781
   94MOL0     C12318  12.472   1.082   6.170 -0.5752  0.4654 -0.0687
   94MOL0     C12319  12.618   1.132   6.139 -0.6525 -0.1641  0.3200
   94MOL0    Cl12320  12.648   1.148   5.966  0.3800  0.0438 -0.4338
   94MOL0     C12321  11.562   1.130   6.637 -0.9924 -0.0868  0.5208
   94MOL0     C12322  11.438   1.171   6.664  0.5458 -0.5487  0.1930
   94MOL0     O12323  11.249   1.406   6.700  0.4839  0.1377  0.1881
   94MOL0     C12324  10.983   1.211   6.864  1.0581 -0.4615 -0.1015
   94MOL0     C12325  10.848   1.226   6.900  0.4196  0.3257 -0.3688
   94MOL0     N12326  10.238   1.746   7.033  0.4751 -0.5603 -0.7337
   94MOL0     N12327  10.293   1.808   7.134  0.2243  0.4794  0.4313
   94MOL0     C12328  10.939   2.148   6.393  0.6089 -0.3702  0.8289
   94MOL0     C12329  11.036   2.088   6.312  1.0578 -0.3112  0.7651
   94MOL0     C12330  11.383   1.921   6.087 -0.4218 -0.4950 -0.0126
   94MOL0     C12331  11.506   1.931   6.148  0.9688  0.3342 -0.5681
   94MOL0     C12332  11.612   1.868   6.086 -0.9527  0.1289  0.3057
   94MOL0     C12333  11.609   1.799   5.964  0.7301  0.0014 -0.5735
   94MOL0     O12334  11.720   1.729   5.920  0.2597 -0.3619  0.1861
   94MOL0     C12335  11.700   1.649   5.809  0.4088 -0.4686  0.1800
   94MOL0     C12336  11.815   1.547   5.788  0.2897  0.2640  0.3408
   94MOL0     C12337  11.797   1.457   5.667 -0.5785  0.0163  0.1949
   94MOL0     C12338  11.903   1.342   5.675  0.5547  0.3775  0.0703
   94MOL0     C12339  11.904   1.251   5.562  0.2004 -0.6354  0.2241
   94MOL0     C12340  11.920   1.160   5.479  0.0147  0.0442  0.5379
   94MOL0     C12341  11.483   1.806   5.902 -0.8938  0.9551  0.0065
   94MOL0     C12342  11.379   1.864   5.961 -1.3520  0.6846 -0.1760
   94MOL0     H12343  11.314   2.178   6.474 -0.0905  2.6724 -3.6064
   94MOL0     H12344  11.145   2.274   6.629 -0.5980  1.1339  0.6007
   94MOL0     H12345  10.731   2.133   6.577 -0.3246  0.3093 -0.2210
   94MOL0     H12346  10.693   2.290   6.519 -2.5868 -1.4020 -0.0184
   94MOL0     H12347  10.594   2.234   6.742  0.5276 -0.9034 -0.3109
   94MOL0     H12348  10.698   2.384   6.748  0.9121  0.1822  0.8629
   94MOL0     H12349  10.843   2.283   6.876 -1.3788  0.8224  0.6704
   94MOL0     H12350  10.820   2.116   6.821 -0.6933 -0.8460 -1.0929
   94MOL0     H12351  10.640   2.298   7.000 -0.8740  0.2070 -1.1915
   94MOL0     H12352  10.589   2.132   6.956 -0.3417 -0.5697  2.1663
   94MOL0     H12353  10.790   2.242   7.155 -1.3064 -0.2770 -0.8756
   94MOL0     H12354  10.820   2.085   7.070  0.3436 -0.4755  1.6908
   94MOL0     H12355  10.554   2.150   7.222 -0.7914 -1.7523 -0.3019
   94MOL0     H12356  10.687   2.066   7.301  0.0359  1.7832 -0.2036
   94MOL0     H12357  10.527   1.973   7.053  0.4406  0.7122 -0.5702
   94MOL0     H12358  10.674   1.904   7.095 -0.3288  1.3755 -2.3815
   94MOL0     H12359  10.462   1.878   7.307  1.9965  1.1406  1.2897
   94MOL0     H12360  10.606   1.776   7.262 -0.6299  2.0279  4.2895
   94MOL0     H12361  10.556   1.660   7.005 -0.4457 -1.5449  2.9420
   94MOL0     H12362  10.380   1.656   6.748 -2.3547 -0.2377 -1.9199
   94MOL0     H12363  10.215   1.670   6.802 -0.5024 -0.1970  0.4442
   94MOL0     H12364  10.283   1.430   6.733  0.4106 -2.4817  0.9705
   94MOL0     H12365  10.199   1.452   6.884 -0.4545 -0.8637 -1.7316
   94MOL0     H12366  10.419   1.399   6.993  1.4639 -1.3813  0.4562
   94MOL0     H12367  10.387   1.280   6.879  1.3809 -0.0139  1.3579
   94MOL0     H12368  10.580   1.509   6.815 -0.5949  0.1484  2.2364
   94MOL0     H12369  10.550   1.348   6.732 -0.9005 -1.9044  0.8380
   94MOL0     H12370  10.793   1.525   6.756  1.4200 -0.2491 -2.2963
   94MOL0     H12371  11.024   1.506   6.705 -1.3387  0.2503  0.3134
   94MOL0     H12372  11.447   1.194   7.005 -0.2003  0.5990 -0.1267
   94MOL0     H12373  11.676   1.139   6.955 -1.9864  0.4110  0.7980
   94MOL0     H12374  11.807   1.177   6.525  0.1741 -0.8590 -1.4905
   94MOL0     H12375  11.824   1.010   6.546 -0.9945 -0.6569  3.2533
   94MOL0     H12376  12.024   1.025   6.671 -1.6155  0.9221  0.8749
   94MOL0     H12377  12.031   1.201   6.675 -0.7280  0.1864  0.5195
   94MOL0     H12378  12.042   1.209   6.422  1.8934  1.3379  1.0576
   94MOL0     H12379  12.035   1.028   6.419 -0.7163  0.0554  1.0442
   94MOL0     H12380  12.263   1.217   6.499 -1.9655  1.0546  0.2620
   94MOL0     H12381  12.289   1.044   6.533  2.1575 -2.3723 -4.3909
   94MOL0     H12382  12.244   1.182   6.264  3.0693  2.7297  1.3391
   94MOL0     H12383  12.248   1.004   6.293  1.7878  0.0519 -2.5632
   94MOL0     H12384  12.504   1.039   6.369  1.7756  1.1220 -1.2440
   94MOL0     H12385  12.468   1.208   6.350 -1.4963  1.3387 -2.0414
   94MOL0     H12386  12.476   0.975   6.147  2.6768  0.8078 -1.7911
   94MOL0     H12387  12.399   1.139   6.112 -3.0952  1.1273  3.4572
   94MOL0     H12388  12.701   1.072   6.178  0.0194 -0.8203 -1.9462
   94MOL0     H12389  12.621   1.230   6.187  1.8879  0.3642 -0.7399
   94MOL0     H12390  11.579   1.096   6.535 -0.6242 -0.3352  0.6628
   94MOL0     H12391  11.362   1.170   6.586  0.7014 -0.9307  0.0447
   94MOL0     H12392  11.036   1.123   6.897  1.3697  0.5683  2.3401
   94MOL0     H12393  10.791   1.151   6.954  0.7401 -0.4806 -1.1319
   94MOL0     H12394  10.838   2.134   6.357  0.5931 -2.5518  1.5713
   94MOL0     H12395  10.987   2.032   6.232 -2.1291  0.3215  2.1178
   94MOL0     H12396  11.512   1.983   6.243 -2.7567  2.8961 -1.5299
   94MOL0     H12397  11.710   1.871   6.134 -1.2485  0.7888  0.8767
   94MOL0     H12398  11.701   1.721   5.727  0.6876 -1.8285 -1.0484
   94MOL0     H12399  11.605   1.596   5.820  0.8391 -0.9142  2.3879
   94MOL0     H12400  11.908   1.600   5.769 -0.1205  0.8888  0.0249
   94MOL0     H12401  11.827   1.485   5.878  0.9436  0.1036  0.1470
   94MOL0     H12402  11.818   1.513   5.575  0.7183  0.3461  0.6767
   94MOL0     H12403  11.691   1.428   5.662 -0.9871  1.4194  0.3556
   94MOL0     H12404  12.003   1.387   5.668  0.3168  0.6588 -1.8848
   94MOL0     H12405  11.888   1.287   5.769 -2.0071  0.8658  0.0006
   94MOL0     H12406  11.919   1.088   5.400 -1.1782  0.2214  0.3825
   94MOL0     H12407  11.474   1.758   5.805  1.9322 -0.9396  0.5641
   94MOL0     H12408  11.292   1.863   5.897 -1.9970  2.4241  0.6279
   95MOL0     O12409   3.607   0.409   5.076 -0.7203 -0.6068 -0.2068
   95MOL0     C12410   3.692   0.471   5.004 -0.7598 -0.2600 -0.0883
   95MOL0     O12411   3.653   0.557   4.904  0.0449  0.5183  0.2387
   95MOL0     C12412   3.522   0.583   4.875 -0.1710 -0.3416 -0.2120
   95MOL0     C12413   3.418   0.600   4.965  0.1063  0.7530 -0.1901
   95MOL0     C12414   3.284   0.621   4.925 -0.8103  0.8070  0.3978
   95MOL0     C12415   3.262   0.659   4.791 -0.2287  0.0401 -0.6744
   95MOL0     O12416   3.136   0.706   4.760 -0.0634  0.6311  0.0750
   95MOL0     C12417   3.122   0.752   4.625  0.7318  0.2870  0.0576
   95MOL0     C12418   2.975   0.808   4.604  0.8848 -0.0969  1.2496
   95MOL0     C12419   2.859   0.694   4.604 -0.2515 -0.1212  1.1041
   95MOL0     C12420   2.711   0.754   4.614  0.1688  0.4591 -0.5484
   95MOL0     C12421   2.614   0.638   4.580 -0.2643 -0.3336  0.1415
   95MOL0     C12422   2.469   0.677   4.615 -0.0813  0.1837 -0.4422
   95MOL0     C12423   2.365   0.561   4.566  0.1151 -0.1527 -0.8484
   95MOL0     C12424   2.423   0.418   4.566  0.0175  0.4203  0.1512
   95MOL0     N12425   2.318   0.315   4.550  0.2521 -0.4652 -0.5957
   95MOL0     C12426   2.226   0.330   4.453  0.4212 -0.1310  0.1257
   95MOL0     C12427   2.131   0.240   4.487  0.4758 -0.1590  0.5029
   95MOL0     C12428   1.994   0.220   4.427 -0.4624  0.2845  0.3472
   95MOL0     C12429   1.888   0.287   4.503 -0.6258 -0.0712 -0.2683
   95MOL0     C12430   1.894   0.435   4.498  0.9926 -0.2505 -0.4465
   95MOL0     C12431   1.770   0.487   4.563 -0.9501 -0.3226  0.0479
   95MOL0     O12432   1.659   0.464   4.482  0.3227 -0.2237 -0.4215
   95MOL0     C12433   1.537   0.501   4.544 -0.0022  0.1913 -0.2641
   95MOL0     C12434   1.421   0.482   4.473 -0.5203  0.3625  0.0495
   95MOL0     C12435   1.298   0.516   4.523  0.1208  0.6712 -0.5174
   95MOL0     C12436   1.283   0.565   4.651 -0.2181 -0.2676 -0.1399
   95MOL0     C12437   1.145   0.592   4.706 -0.4752  0.8403  0.6917
   95MOL0     O12438   1.136   0.641   4.831 -0.4690  0.6118 -0.0962
   95MOL0     C12439   1.017   0.684   4.874  0.7561 -0.5944 -0.5687
   95MOL0     C12440   0.957   0.635   4.990 -0.1048 -0.0941 -0.5280
   95MOL0     C12441   0.833   0.693   5.045 -0.3582  0.0288  0.2368
   95MOL0     C12442   0.772   0.790   4.971 -0.4071  0.1099 -0.1858
   95MOL0     O12443   0.653   0.841   4.995 -0.0004  0.1521 -0.3759
   95MOL0     C12444   0.587   0.832   5.121 -0.5991  0.0523 -0.4185
   95MOL0     C12445   0.453   0.887   5.100  0.0593 -0.3532  0.0029
   95MOL0     C12446   0.381   0.912   5.236  0.0536 -0.7263  0.0297
   95MOL0     C12447   0.255   0.998   5.228  0.9784  0.7644 -0.5168
   95MOL0     C12448   0.129   0.915   5.192 -0.3503 -0.0527 -0.5342
   95MOL0     C12449   0.020   1.023   5.198  0.4170  0.2468 -0.2396
   95MOL0     C12450  -0.101   0.971   5.127  1.4070  0.2691  0.4915
   95MOL0     C12451  -0.181   0.864   5.214 -0.1126 -0.2725  0.4965
   95MOL0    Cl12452  -0.301   0.798   5.106  0.0169 -0.0849  0.3346
   95MOL0     C12453   0.831   0.840   4.855  0.1702 -0.4514 -1.0849
   95MOL0     C12454   0.952   0.787   4.811  0.6170  0.3435 -0.5077
   95MOL0     O12455   1.058   0.585   4.621 -0.1355 -0.1717  0.5205
   95MOL0     C12456   1.391   0.592   4.730 -0.0746 -0.0149  0.0426
   95MOL0     C12457   1.518   0.564   4.674 -1.0526 -0.8197  0.7640
   95MOL0     N12458   2.176   0.161   4.588 -0.7968 -0.0142  0.2855
   95MOL0     N12459   2.287   0.214   4.632 -0.2761  0.2065 -0.2413
   95MOL0     C12460   3.364   0.646   4.694  0.0514 -0.1016 -0.1359
   95MOL0     C12461   3.487   0.599   4.740 -0.9863 -0.1120 -0.7909
   95MOL0     C12462   3.838   0.442   5.030  0.3831 -0.6228 -0.0894
   95MOL0     C12463   3.886   0.374   5.145  0.4924  0.8996 -0.4356
   95MOL0     C12464   4.021   0.348   5.165  0.9703  0.2494  0.4538
   95MOL0     C12465   4.113   0.393   5.071 -0.9601 -0.2615 -0.1216
   95MOL0     O12466   4.252   0.375   5.083  0.0565 -0.1655  0.6522
   95MOL0     C12467   4.299   0.289   5.179 -0.4669  0.3952 -0.0371
   95MOL0     C12468   4.451   0.315   5.182  0.4809  0.2935 -0.2819
   95MOL0     C12469   4.533   0.275   5.057  0.7039 -0.7803 -0.2698
   95MOL0     C12470   4.517   0.127   5.020 -0.0021 -0.1347  0.0520
   95MOL0     C12471   4.395   0.107   4.949  0.8272 -0.4020  0.9626
   95MOL0     C12472   4.300   0.106   4.875  0.0743  0.3421  0.0019
   95MOL0     C12473   4.072   0.468   4.961 -0.5455  0.2682 -0.4671
   95MOL0     C12474   3.935   0.491   4.947  0.6590 -0.1541 -0.0402
   95MOL0     H12475   3.433   0.599   5.072  0.9515 -0.5552 -0.2899
   95MOL0     H12476   3.209   0.623   5.004 -1.7574 -2.7907 -0.2045
   95MOL0     H12477   3.113   0.658   4.570 -0.9828 -0.4092  1.4385
   95MOL0     H12478   3.204   0.817   4.595  0.9325 -0.0730 -0.1808
   95MOL0     H12479   2.974   0.855   4.505  0.7046  3.3469  2.7586
   95MOL0     H12480   2.956   0.874   4.689  1.1896 -0.1253  1.3424
   95MOL0     H12481   2.884   0.640   4.696 -0.1386  1.4575  2.0492
   95MOL0     H12482   2.870   0.632   4.515 -3.0790  1.5496 -0.5573
   95MOL0     H12483   2.686   0.800   4.710 -1.7639  2.6070 -1.9844
   95MOL0     H12484   2.706   0.827   4.533 -1.6112  4.0148  2.4645
   95MOL0     H12485   2.641   0.546   4.634  0.0043 -0.6942 -0.5985
   95MOL0     H12486   2.621   0.607   4.476 -1.3871  1.5063 -0.5260
   95MOL0     H12487   2.446   0.772   4.566  0.0931  0.2944 -0.3100
   95MOL0     H12488   2.457   0.681   4.724  1.9494  1.9459 -0.2248
   95MOL0     H12489   2.283   0.555   4.638  2.4323 -1.2130  1.9217
   95MOL0     H12490   2.337   0.579   4.462  2.8766 -0.1175 -1.6904
   95MOL0     H12491   2.470   0.395   4.662  1.7489  1.2235 -0.4564
   95MOL0     H12492   2.503   0.407   4.492  3.0654  0.5161  3.1935
   95MOL0     H12493   2.220   0.411   4.381  1.4322  2.2295  2.5685
   95MOL0     H12494   1.976   0.113   4.419 -1.1454  0.3244  1.2288
   95MOL0     H12495   1.996   0.251   4.322  0.6532 -1.0789 -0.0678
   95MOL0     H12496   1.901   0.251   4.605 -0.6347 -0.1244 -0.2860
   95MOL0     H12497   1.787   0.267   4.467  0.4094  0.9091 -4.2578
   95MOL0     H12498   1.979   0.472   4.556 -1.0077 -0.1760  2.6537
   95MOL0     H12499   1.892   0.479   4.398 -0.8326  0.5152 -0.1053
   95MOL0     H12500   1.781   0.596   4.570  1.5643 -0.6468  2.7054
   95MOL0     H12501   1.764   0.458   4.668  0.6205  0.6143  0.4200
   95MOL0     H12502   1.432   0.445   4.372  1.3618 -1.9091  0.9753
   95MOL0     H12503   1.211   0.500   4.459  1.1220 -1.7606 -1.3756
   95MOL0     H12504   1.009   0.560   5.047  0.7606 -0.9860 -2.4246
   95MOL0     H12505   0.786   0.657   5.136  0.2942 -2.6500 -0.3991
   95MOL0     H12506   0.638   0.896   5.194  0.4920 -1.1659 -0.0715
   95MOL0     H12507   0.587   0.733   5.167 -0.5081 -0.0438 -0.6251
   95MOL0     H12508   0.403   0.811   5.040  2.1836 -2.4469  0.7380
   95MOL0     H12509   0.461   0.976   5.036  2.8089 -0.2436  0.3768
   95MOL0     H12510   0.445   0.970   5.304  0.1307  0.8422 -1.3148
   95MOL0     H12511   0.356   0.818   5.286 -0.1333  0.9504  3.4276
   95MOL0     H12512   0.237   1.033   5.330 -0.0042  1.2539 -0.8415
   95MOL0     H12513   0.265   1.073   5.148 -0.5507 -0.1653 -1.6408
   95MOL0     H12514   0.122   0.828   5.258  2.0110 -0.8159 -1.2118
   95MOL0     H12515   0.135   0.874   5.091  0.7782  2.4757 -1.5888
   95MOL0     H12516   0.053   1.112   5.144  1.3470 -0.9132 -1.6630
   95MOL0     H12517  -0.012   1.043   5.300  1.6021  0.4229  0.1186
   95MOL0     H12518  -0.168   1.050   5.094 -0.8064 -1.7406 -0.1370
   95MOL0     H12519  -0.070   0.907   5.043  2.6894 -0.4759  1.4990
   95MOL0     H12520  -0.248   0.907   5.290 -2.3291 -2.1319 -0.2717
   95MOL0     H12521  -0.108   0.793   5.253  1.7931  0.0658 -2.1937
   95MOL0     H12522   0.780   0.913   4.793 -2.0372 -2.0705 -1.2990
   95MOL0     H12523   1.000   0.838   4.728  0.4797 -1.6891 -1.9015
   95MOL0     H12524   1.385   0.655   4.819 -0.4052  0.5229 -0.3593
   95MOL0     H12525   1.598   0.587   4.743 -0.7276  0.3506  0.0348
   95MOL0     H12526   3.349   0.667   4.588  0.0360  1.4543  0.1502
   95MOL0     H12527   3.572   0.589   4.674  0.3038  0.6607  0.6935
   95MOL0     H12528   3.817   0.332   5.217  1.0425  1.0670  0.1997
   95MOL0     H12529   4.044   0.279   5.246  2.1675 -1.9393 -1.6328
   95MOL0     H12530   4.278   0.185   5.151  1.6974  0.8903 -4.4644
   95MOL0     H12531   4.254   0.318   5.274 -0.5468  0.6866 -0.1600
   95MOL0     H12532   4.466   0.422   5.198 -1.0406  0.7792 -1.7874
   95MOL0     H12533   4.493   0.270   5.273 -0.6649 -0.2759 -0.0187
   95MOL0     H12534   4.641   0.288   5.071  0.9298 -0.5951 -1.9699
   95MOL0     H12535   4.502   0.338   4.973  2.5572 -0.0140 -0.4551
   95MOL0     H12536   4.594   0.096   4.949  0.7691  2.7877 -0.5172
   95MOL0     H12537   4.524   0.058   5.105 -1.3400 -1.0017 -0.5033
   95MOL0     H12538   4.229   0.112   4.795 -0.7822  1.9462  0.8302
   95MOL0     H12539   4.142   0.518   4.896  1.7553  1.1717  2.4738
   95MOL0     H12540   3.903   0.560   4.870  1.4002  0.5993  0.3068
   96MOL0     O12541   3.361   2.582   9.147 -0.1546 -0.2303 -0.4824
   96MOL0     C12542   3.407   2.579   9.034 -0.6178 -0.8435 -0.2685
   96MOL0     O12543   3.366   2.645   8.925 -0.0083 -0.3250  0.4081
   96MOL0     C12544   3.240   2.712   8.926 -0.6339  0.7079 -0.1884
   96MOL0     C12545   3.211   2.802   9.027  0.8946  0.2988 -0.7240
   96MOL0     C12546   3.087   2.861   9.028  0.0262 -0.4561 -0.5120
   96MOL0     C12547   3.008   2.847   8.924  0.1365 -0.5415 -0.3354
   96MOL0     O12548   2.904   2.940   8.921 -0.0147  1.1658  0.3382
   96MOL0     C12549   2.803   2.906   8.827 -0.3088  0.0038  0.6454
   96MOL0     C12550   2.679   2.997   8.867 -0.3925 -0.2101 -0.9724
   96MOL0     C12551   2.569   2.985   8.763  0.1318  0.6238  0.6821
   96MOL0     C12552   2.450   3.082   8.782  0.1361 -0.3691 -0.8779
   96MOL0     C12553   2.360   3.101   8.660  0.4972  0.3254  0.3070
   96MOL0     C12554   2.281   2.979   8.619 -0.1814  0.4753  0.5362
   96MOL0     C12555   2.241   3.000   8.467 -0.7805 -0.2487 -0.0769
   96MOL0     C12556   2.120   2.911   8.411 -0.0287  0.7559 -0.1528
   96MOL0     N12557   1.988   2.957   8.450  0.4074 -0.8186 -0.1823
   96MOL0     C12558   1.889   2.997   8.367 -0.2917 -0.8514  0.9717
   96MOL0     C12559   1.784   3.011   8.442 -0.7375 -0.3422  0.1916
   96MOL0     C12560   1.640   3.038   8.402  0.0379 -0.2698 -0.8641
   96MOL0     C12561   1.637   3.156   8.300  0.3018  0.2692 -0.1777
   96MOL0     C12562   1.496   3.206   8.270 -0.1097  0.0037 -0.9462
   96MOL0     C12563   1.398   3.224   8.390  0.3819  0.3896 -0.1844
   96MOL0     O12564   1.369   3.100   8.458  0.2306  0.6626 -0.0844
   96MOL0     C12565   1.302   3.110   8.579 -0.1067 -0.1881  0.4916
   96MOL0     C12566   1.242   3.227   8.638 -0.1198  0.3582  0.1458
   96MOL0     C12567   1.190   3.221   8.766 -0.9949 -0.3623  0.4466
   96MOL0     C12568   1.159   3.096   8.824  0.4427 -0.6155  0.1656
   96MOL0     C12569   1.077   3.077   8.946 -0.7148 -0.5849 -0.7053
   96MOL0     O12570   1.056   2.950   8.990  0.5780  0.1831  0.2580
   96MOL0     C12571   0.997   2.938   9.111  0.3920 -0.0748 -0.4514
   96MOL0     C12572   0.858   2.948   9.139 -0.5448 -0.5203 -0.0503
   96MOL0     C12573   0.799   2.933   9.264 -0.0405 -0.0955 -0.8532
   96MOL0     C12574   0.876   2.902   9.378  0.1384  0.2933  0.7446
   96MOL0     O12575   0.814   2.903   9.500  0.8073 -0.2435 -0.5142
   96MOL0     C12576   0.890   2.873   9.616 -0.1453  1.1738 -1.0394
   96MOL0     C12577   0.796   2.848   9.731 -0.3349  0.5979  0.3481
   96MOL0     C12578   0.753   2.700   9.719  0.9503  0.5221  0.0271
   96MOL0     C12579   0.657   2.676   9.826  0.0125  0.2441 -0.1747
   96MOL0     C12580   0.585   2.548   9.792  0.2978  0.2269  0.0345
   96MOL0     C12581   0.509   2.508   9.912  0.1652 -0.2379 -0.2712
   96MOL0     C12582   0.450   2.379   9.900  0.4579  0.2690  0.4807
   96MOL0     C12583   0.376   2.349  10.030 -0.0246  0.7097  0.3479
   96MOL0    Cl12584   0.223   2.450  10.044  0.2318  0.0529 -0.2975
   96MOL0     C12585   1.018   2.886   9.349  0.4226 -0.1387 -0.1238
   96MOL0     C12586   1.076   2.910   9.225 -0.1382  0.3228 -0.1552
   96MOL0     O12587   1.045   3.184   9.003  0.1158  0.2538 -0.5466
   96MOL0     C12588   1.218   2.985   8.766  0.1123  0.0267 -0.3287
   96MOL0     C12589   1.290   2.993   8.650 -0.8144 -0.3534 -0.7155
   96MOL0     N12590   1.818   2.974   8.574  0.2862 -0.3012 -0.1357
   96MOL0     N12591   1.941   2.942   8.573  0.1502 -0.2008 -0.7742
   96MOL0     C12592   3.039   2.752   8.826  0.1623  0.2701 -0.0640
   96MOL0     C12593   3.155   2.684   8.820 -0.2506  0.6082 -0.7160
   96MOL0     C12594   3.531   2.508   9.003  0.2791  0.0378 -0.0999
   96MOL0     C12595   3.606   2.471   9.110 -0.0427 -0.4092  1.1600
   96MOL0     C12596   3.736   2.417   9.094  0.1139 -0.1979 -0.8140
   96MOL0     C12597   3.784   2.397   8.970  0.9186 -0.2569  0.9541
   96MOL0     O12598   3.896   2.330   8.962 -0.0350 -0.0246 -0.3779
   96MOL0     C12599   3.957   2.314   8.828  0.5212  1.2394  0.0677
   96MOL0     C12600   4.102   2.267   8.849  1.0102 -0.1180  0.0386
   96MOL0     C12601   4.191   2.361   8.936 -0.3819 -0.5173 -0.1466
   96MOL0     C12602   4.341   2.336   8.947 -0.8702 -0.6098  0.1888
   96MOL0     C12603   4.405   2.346   8.817 -0.2849 -0.5536  0.3938
   96MOL0     C12604   4.449   2.344   8.704 -0.4770  0.7791 -0.5288
   96MOL0     C12605   3.710   2.430   8.851  0.0537  0.0340 -0.4119
   96MOL0     C12606   3.584   2.488   8.870  0.1087  0.5876 -0.2841
   96MOL0     H12607   3.284   2.813   9.106 -0.0328  0.3036  0.1517
   96MOL0     H12608   3.053   2.928   9.107  4.4876 -0.1575  1.5246
   96MOL0     H12609   2.776   2.800   8.835  3.2240 -1.0466  0.4081
   96MOL0     H12610   2.834   2.949   8.731  0.2949  2.6428  1.9354
   96MOL0     H12611   2.703   3.103   8.879  0.4771 -0.6364  1.7797
   96MOL0     H12612   2.653   2.965   8.968  0.2113  1.7671 -0.1383
   96MOL0     H12613   2.529   2.884   8.757  1.2873  0.2110 -0.9205
   96MOL0     H12614   2.609   3.013   8.665 -0.9457 -1.1128 -0.3132
   96MOL0     H12615   2.396   3.039   8.867 -0.0910 -1.8490 -1.7532
   96MOL0     H12616   2.489   3.176   8.822  0.6216 -0.3944 -1.2820
   96MOL0     H12617   2.418   3.135   8.573  0.3975  1.9787  0.8431
   96MOL0     H12618   2.295   3.188   8.675  0.2069 -0.0325  1.1301
   96MOL0     H12619   2.193   2.971   8.684 -3.5129 -0.6310 -3.6387
   96MOL0     H12620   2.341   2.890   8.639 -0.0956  0.8648  2.1545
   96MOL0     H12621   2.203   3.102   8.453 -0.0666  0.0489  0.1096
   96MOL0     H12622   2.338   2.981   8.420 -1.7632 -1.3301 -1.8040
   96MOL0     H12623   2.134   2.807   8.444  0.6624  1.4110  1.7858
   96MOL0     H12624   2.121   2.922   8.303  0.9577 -1.0616 -0.3674
   96MOL0     H12625   1.896   3.020   8.261 -2.7586  0.5957  1.0627
   96MOL0     H12626   1.585   3.048   8.496 -1.5872  2.0371 -1.9749
   96MOL0     H12627   1.610   2.952   8.342 -0.3425  0.1644 -1.3072
   96MOL0     H12628   1.676   3.130   8.202 -0.6340  1.3818 -0.8685
   96MOL0     H12629   1.701   3.236   8.338  2.2330 -1.2513 -0.0786
   96MOL0     H12630   1.509   3.302   8.218  2.6111 -0.4793 -1.3300
   96MOL0     H12631   1.459   3.147   8.186  0.3657 -0.6117 -0.7353
   96MOL0     H12632   1.309   3.269   8.346  0.1885  0.2879  0.0980
   96MOL0     H12633   1.435   3.298   8.461  0.9982 -1.2964  1.3431
   96MOL0     H12634   1.246   3.322   8.587  0.8910 -0.7200 -1.9210
   96MOL0     H12635   1.148   3.312   8.809 -1.2582  0.1642 -0.8757
   96MOL0     H12636   0.805   2.983   9.051  0.0367  1.1642  0.2262
   96MOL0     H12637   0.693   2.952   9.283  0.2578 -1.1957  2.4925
   96MOL0     H12638   0.954   2.961   9.633  0.4659  1.0026 -2.3312
   96MOL0     H12639   0.957   2.787   9.608  1.2120  2.0177  0.4913
   96MOL0     H12640   0.713   2.919   9.726  0.0510  0.9693 -2.6705
   96MOL0     H12641   0.854   2.852   9.824 -0.5841 -2.2592  0.7263
   96MOL0     H12642   0.840   2.633   9.719  0.4494 -0.1542 -1.0175
   96MOL0     H12643   0.710   2.678   9.621 -1.5888  1.5408  0.8454
   96MOL0     H12644   0.703   2.673   9.925 -1.6167  0.3464  0.6301
   96MOL0     H12645   0.577   2.750   9.830  0.6629  1.0646 -1.4961
   96MOL0     H12646   0.658   2.472   9.767  0.7093  0.7981 -0.5292
   96MOL0     H12647   0.517   2.572   9.710 -1.0800 -0.0699  1.0514
   96MOL0     H12648   0.441   2.589   9.936 -0.3379 -0.1279 -1.9261
   96MOL0     H12649   0.590   2.501   9.985 -0.6582  0.7314  0.7523
   96MOL0     H12650   0.378   2.380   9.818  2.0915 -0.2769 -1.0011
   96MOL0     H12651   0.534   2.314   9.876  0.4678  1.0571 -1.8026
   96MOL0     H12652   0.440   2.371  10.117  0.6701  0.8020 -0.1764
   96MOL0     H12653   0.357   2.242  10.036  0.0910  0.6923  0.4015
   96MOL0     H12654   1.083   2.847   9.427  0.2957 -0.4909 -0.1934
   96MOL0     H12655   1.185   2.910   9.220 -0.0213 -1.5460  1.3131
   96MOL0     H12656   1.197   2.887   8.808  0.9148 -0.8931 -1.9730
   96MOL0     H12657   1.329   2.902   8.605  0.9881 -0.5895  1.2031
   96MOL0     H12658   2.976   2.749   8.737 -1.6583 -2.4094  1.1877
   96MOL0     H12659   3.171   2.605   8.748 -3.1129 -1.4593  0.6976
   96MOL0     H12660   3.569   2.473   9.212 -0.2853 -2.6494  1.1737
   96MOL0     H12661   3.803   2.396   9.177  0.6953 -1.8434 -1.6519
   96MOL0     H12662   3.964   2.408   8.772 -0.0103  0.4382 -1.4117
   96MOL0     H12663   3.908   2.237   8.767 -0.1248  0.7193  1.2137
   96MOL0     H12664   4.100   2.166   8.889  1.5649  0.3061  1.1771
   96MOL0     H12665   4.144   2.253   8.749  0.2143 -2.2748 -0.0357
   96MOL0     H12666   4.152   2.344   9.037  0.2147  1.2784  0.4102
   96MOL0     H12667   4.163   2.466   8.933 -1.4943 -0.6717  2.0314
   96MOL0     H12668   4.384   2.411   9.013  0.3363 -1.2441  0.1599
   96MOL0     H12669   4.352   2.234   8.987  0.4225 -1.6715 -2.5751
   96MOL0     H12670   4.485   2.324   8.605 -1.1009  0.9783 -0.8008
   96MOL0     H12671   3.742   2.406   8.750 -0.2806  0.1105 -0.5371
   96MOL0     H12672   3.515   2.511   8.790 -1.7187  0.5818  1.2073
   97MOL0     O12673   1.074   5.470   4.726 -0.2345 -0.1765 -0.0587
   97MOL0     C12674   1.123   5.448   4.837 -0.6159  0.8290  0.3159
   97MOL0     O12675   1.069   5.485   4.960 -0.1381  0.9751  0.0761
   97MOL0     C12676   0.957   5.573   4.955 -0.0927  0.8812 -0.5621
   97MOL0     C12677   0.885   5.550   5.073 -0.2347  0.0418 -0.7420
   97MOL0     C12678   0.773   5.627   5.101 -0.5704  0.4461 -0.3445
   97MOL0     C12679   0.731   5.726   5.008  0.2457  0.6355  0.7329
   97MOL0     O12680   0.618   5.795   5.034 -0.5670  0.0162 -0.1039
   97MOL0     C12681   0.523   5.844   4.931 -0.1872  0.1202 -0.1898
   97MOL0     C12682   0.391   5.846   5.005  0.2625  0.7583  0.2325
   97MOL0     C12683   0.288   5.944   4.934  0.6297 -0.3920 -0.7469
   97MOL0     C12684   0.140   5.958   4.977 -0.6666 -0.8188 -1.0947
   97MOL0     C12685   0.049   5.985   4.855  0.4625 -0.3297  0.4712
   97MOL0     C12686   0.074   6.129   4.811  1.2436  0.2131  0.4746
   97MOL0     C12687  -0.002   6.162   4.674  0.5026  0.7423 -1.3996
   97MOL0     C12688   0.045   6.078   4.556 -0.3165  0.3116 -0.0201
   97MOL0     N12689  -0.014   6.134   4.439 -0.1536  0.2625 -0.2244
   97MOL0     C12690  -0.024   6.264   4.395 -0.8414  0.0114  0.2627
   97MOL0     C12691  -0.109   6.257   4.288 -0.3531 -0.3093 -0.1939
   97MOL0     C12692  -0.192   6.365   4.229 -0.2977  0.1426 -0.6851
   97MOL0     C12693  -0.119   6.435   4.115  0.1440 -0.0028  0.5656
   97MOL0     C12694  -0.207   6.545   4.038 -0.1669  0.4332 -0.4398
   97MOL0     C12695  -0.264   6.654   4.132 -0.2575  0.1690  0.4356
   97MOL0     O12696  -0.370   6.609   4.219  0.0053  0.1546  0.2773
   97MOL0     C12697  -0.488   6.563   4.165 -0.0427 -0.3140  0.7441
   97MOL0     C12698  -0.569   6.483   4.242 -0.6378  0.1097 -0.3025
   97MOL0     C12699  -0.692   6.442   4.199  0.2542  0.8121 -0.0144
   97MOL0     C12700  -0.748   6.499   4.083  0.1365 -0.6382  0.3584
   97MOL0     C12701  -0.887   6.503   4.051  0.0399  0.5262  0.4047
   97MOL0     O12702  -0.971   6.444   4.139 -0.0249  0.1919  0.0091
   97MOL0     C12703  -1.112   6.447   4.123 -0.7744 -0.8228 -0.6689
   97MOL0     C12704  -1.186   6.547   4.061 -0.3461  0.2041 -0.1527
   97MOL0     C12705  -1.328   6.533   4.059 -0.4532 -0.8575  0.2139
   97MOL0     C12706  -1.391   6.416   4.104 -0.9572  0.2330  0.0050
   97MOL0     O12707  -1.519   6.383   4.111  0.0254 -0.2354  0.3350
   97MOL0     C12708  -1.605   6.492   4.163 -1.0562 -0.7033 -0.4476
   97MOL0     C12709  -1.680   6.550   4.042 -0.3209  0.0387 -0.5165
   97MOL0     C12710  -1.734   6.451   3.939 -0.2102  0.0805 -0.6460
   97MOL0     C12711  -1.828   6.353   4.007 -0.3101  0.0696  0.1188
   97MOL0     C12712  -1.971   6.405   4.019 -0.2421  0.5489  1.0703
   97MOL0     C12713  -2.076   6.295   4.041  0.1571 -0.3247 -0.3837
   97MOL0     C12714  -2.136   6.319   4.179 -0.1810 -0.8582 -0.0213
   97MOL0     C12715  -2.240   6.220   4.221  0.1881 -0.3414 -0.9596
   97MOL0    Cl12716  -2.367   6.197   4.101 -0.2763  0.0657  0.3079
   97MOL0     C12717  -1.308   6.308   4.153  0.2862 -0.2983  0.1399
   97MOL0     C12718  -1.170   6.336   4.171 -0.1053  0.5270  0.3291
   97MOL0     O12719  -0.919   6.538   3.936 -0.0640 -0.0589  0.3273
   97MOL0     C12720  -0.664   6.555   3.988 -0.8222 -0.1064  0.1210
   97MOL0     C12721  -0.533   6.586   4.033 -0.9955  0.7527 -0.2370
   97MOL0     N12722  -0.136   6.125   4.263 -0.5848 -0.1251 -0.5444
   97MOL0     N12723  -0.079   6.048   4.351 -0.1658 -0.0394  0.5743
   97MOL0     C12724   0.805   5.748   4.891 -0.4586 -0.0852 -0.3141
   97MOL0     C12725   0.923   5.669   4.859  0.3946 -1.0366  0.3189
   97MOL0     C12726   1.255   5.387   4.833  0.0625 -0.3831  0.0443
   97MOL0     C12727   1.345   5.414   4.938 -0.4655  0.0737 -0.1611
   97MOL0     C12728   1.475   5.362   4.945 -0.2323 -0.3619 -0.1970
   97MOL0     C12729   1.522   5.285   4.827  0.2388 -0.2647  0.3212
   97MOL0     O12730   1.629   5.202   4.811  0.0679 -0.4432  0.0389
   97MOL0     C12731   1.722   5.205   4.910 -0.2376 -0.4885 -0.4026
   97MOL0     C12732   1.819   5.321   4.918  0.3481  0.4273  0.1609
   97MOL0     C12733   1.909   5.297   5.037  0.2039 -0.7620 -0.4321
   97MOL0     C12734   2.026   5.392   5.033  0.3111 -0.6476  0.8199
   97MOL0     C12735   2.090   5.380   5.163 -0.5638 -0.4247  0.4647
   97MOL0     C12736   2.147   5.376   5.271 -0.6257 -0.1803  0.5697
   97MOL0     C12737   1.433   5.266   4.724  0.2443 -0.1044  0.3127
   97MOL0     C12738   1.299   5.301   4.729 -0.0603  0.0251 -0.4459
   97MOL0     H12739   0.925   5.473   5.138 -0.0920 -1.4776 -2.5511
   97MOL0     H12740   0.734   5.612   5.202 -2.9003 -0.1797 -1.2695
   97MOL0     H12741   0.507   5.770   4.853 -1.0772 -1.0977  1.1018
   97MOL0     H12742   0.547   5.934   4.873  0.5774 -0.1816 -0.3558
   97MOL0     H12743   0.405   5.872   5.110 -1.2772  0.0489  0.6510
   97MOL0     H12744   0.349   5.746   5.013  0.6139  0.6898  1.3710
   97MOL0     H12745   0.296   5.916   4.829 -0.5413  2.4437 -1.6748
   97MOL0     H12746   0.323   6.047   4.951 -4.1237  1.4853 -0.7287
   97MOL0     H12747   0.112   5.858   5.012 -0.6233  0.0081  1.5052
   97MOL0     H12748   0.129   6.025   5.063  0.9825  0.5074 -1.8633
   97MOL0     H12749  -0.057   5.981   4.880  0.2949 -1.8161 -0.3769
   97MOL0     H12750   0.073   5.909   4.780  1.9234 -0.1382  0.7023
   97MOL0     H12751   0.179   6.154   4.789  0.6460  0.3903 -2.5415
   97MOL0     H12752   0.038   6.188   4.896  1.6150 -2.0632  2.3031
   97MOL0     H12753  -0.108   6.134   4.684  1.4586 -2.6714  1.5650
   97MOL0     H12754   0.013   6.269   4.657 -1.7329  1.8760  2.4835
   97MOL0     H12755   0.028   5.971   4.572  3.9462 -0.5496 -0.2211
   97MOL0     H12756   0.152   6.089   4.540 -0.4763  0.9812 -0.6756
   97MOL0     H12757   0.016   6.350   4.447  0.0229 -0.4885  0.4253
   97MOL0     H12758  -0.217   6.439   4.306 -1.7825  1.3550 -2.2273
   97MOL0     H12759  -0.287   6.326   4.191  0.0467 -1.4020 -0.0054
   97MOL0     H12760  -0.094   6.362   4.037 -0.8308  1.1438 -0.8828
   97MOL0     H12761  -0.027   6.484   4.146  0.1292  0.6328 -0.3564
   97MOL0     H12762  -0.160   6.598   3.955 -0.3866 -0.7843 -1.3660
   97MOL0     H12763  -0.293   6.487   4.003 -1.4780  0.4374  2.4505
   97MOL0     H12764  -0.296   6.741   4.073  3.7130  0.7146 -1.2725
   97MOL0     H12765  -0.173   6.684   4.184  0.5623 -0.7700 -0.4129
   97MOL0     H12766  -0.536   6.455   4.342  0.6926  0.9767 -0.4730
   97MOL0     H12767  -0.752   6.386   4.269  1.1490  2.0736  1.8523
   97MOL0     H12768  -1.130   6.636   4.035 -0.7019  0.9062  1.3319
   97MOL0     H12769  -1.388   6.620   4.038  1.3514  0.7905  1.5836
   97MOL0     H12770  -1.546   6.568   4.215 -0.9535  0.0845 -1.6896
   97MOL0     H12771  -1.672   6.451   4.240 -0.5908 -1.4160 -0.4155
   97MOL0     H12772  -1.610   6.610   3.983  1.9373 -1.4814  0.4274
   97MOL0     H12773  -1.769   6.602   4.078 -1.4122  0.0542 -3.0535
   97MOL0     H12774  -1.642   6.401   3.906 -0.0349  0.4452 -0.7135
   97MOL0     H12775  -1.778   6.505   3.855  1.5794 -0.9236 -2.3435
   97MOL0     H12776  -1.821   6.259   3.952  3.3546  0.7472 -0.8318
   97MOL0     H12777  -1.793   6.317   4.104  0.6095  3.7976  1.3319
   97MOL0     H12778  -2.006   6.464   3.934 -0.9134  0.9722  1.6288
   97MOL0     H12779  -1.969   6.475   4.104 -1.6058  2.1540 -0.1430
   97MOL0     H12780  -2.042   6.192   4.029  2.9743  0.3194  1.1879
   97MOL0     H12781  -2.147   6.316   3.960  2.3461  2.6495 -1.7306
   97MOL0     H12782  -2.053   6.305   4.249  0.0987  1.4759  0.1900
   97MOL0     H12783  -2.181   6.418   4.190  0.1197 -0.8284  1.0153
   97MOL0     H12784  -2.282   6.246   4.319 -3.3314 -1.4193 -2.0543
   97MOL0     H12785  -2.181   6.128   4.232  0.5449  0.1619  2.4656
   97MOL0     H12786  -1.353   6.217   4.191  2.0519 -0.5963  1.6381
   97MOL0     H12787  -1.103   6.270   4.226  0.7213  1.6881  0.7559
   97MOL0     H12788  -0.682   6.566   3.881  3.1838  2.3013 -0.5301
   97MOL0     H12789  -0.474   6.649   3.966  1.0589  0.7626  1.5008
   97MOL0     H12790   0.776   5.830   4.825  0.1436  0.2215 -0.1990
   97MOL0     H12791   0.978   5.687   4.767 -1.1992  1.2201 -0.2764
   97MOL0     H12792   1.308   5.463   5.028 -2.4131 -1.3894 -0.0782
   97MOL0     H12793   1.546   5.379   5.025 -1.6157  0.8684  0.8265
   97MOL0     H12794   1.785   5.118   4.890 -0.2053 -0.5788  0.0762
   97MOL0     H12795   1.674   5.179   5.005  2.2243 -0.6910  0.8756
   97MOL0     H12796   1.874   5.345   4.826  1.1566  0.8274  0.7330
   97MOL0     H12797   1.762   5.412   4.940  2.3204  1.1749  2.7128
   97MOL0     H12798   1.951   5.196   5.037  0.9231 -0.4984 -2.0301
   97MOL0     H12799   1.849   5.312   5.127 -1.4374  0.8180 -1.7135
   97MOL0     H12800   2.093   5.378   4.948 -0.0814  2.4924 -0.1422
   97MOL0     H12801   1.985   5.493   5.024 -2.5956 -1.7478  0.3841
   97MOL0     H12802   2.197   5.376   5.366  1.0428  0.9914 -0.2534
   97MOL0     H12803   1.466   5.214   4.634  0.5041  1.3659 -0.4816
   97MOL0     H12804   1.233   5.303   4.643  0.6606 -0.2590 -1.0144
   98MOL0     O12805   3.020   0.295   5.623 -0.0681 -0.1466  0.2832
   98MOL0     C12806   3.097   0.233   5.696 -0.3437  0.7339  0.8892
   98MOL0     O12807   3.065   0.177   5.815  1.2528 -0.1578 -0.3979
   98MOL0     C12808   2.930   0.172   5.857  0.1417  0.0519  0.2701
   98MOL0     C12809   2.874   0.291   5.899  0.0291  0.3790 -0.3896
   98MOL0     C12810   2.734   0.290   5.927  0.2105  0.5863 -0.2009
   98MOL0     C12811   2.656   0.173   5.926  0.0470 -0.6304  0.4593
   98MOL0     O12812   2.531   0.164   5.969 -0.3394 -0.1391 -0.1001
   98MOL0     C12813   2.454   0.279   5.992  0.3651 -0.0134 -0.2242
   98MOL0     C12814   2.314   0.232   5.971 -0.2442 -0.0973 -0.2114
   98MOL0     C12815   2.210   0.342   5.999  0.0914 -0.0936 -0.1317
   98MOL0     C12816   2.074   0.269   5.977  0.3428  0.1895  0.0473
   98MOL0     C12817   1.955   0.350   6.032  0.0259  0.3580 -0.9802
   98MOL0     C12818   1.825   0.268   6.042 -0.5312 -0.7753  0.2069
   98MOL0     C12819   1.777   0.227   5.904  0.4638 -0.1741 -0.0411
   98MOL0     C12820   1.737   0.349   5.814 -0.0462 -0.6419  0.1704
   98MOL0     N12821   1.603   0.397   5.841  0.5172 -0.4553 -0.0133
   98MOL0     C12822   1.578   0.521   5.881  0.6985  0.0905 -0.2379
   98MOL0     C12823   1.447   0.533   5.914 -0.4642 -0.4859 -0.4127
   98MOL0     C12824   1.365   0.654   5.962 -0.6817  0.0884  0.4179
   98MOL0     C12825   1.261   0.674   5.864  0.8463 -0.6626 -0.2742
   98MOL0     C12826   1.169   0.802   5.916  0.6072 -0.1616  0.3506
   98MOL0     C12827   1.066   0.779   6.017 -0.7282  0.3963 -0.5620
   98MOL0     O12828   0.956   0.696   5.968  0.2981 -0.1859 -0.2587
   98MOL0     C12829   0.853   0.674   6.051 -1.2503 -0.6083 -0.4692
   98MOL0     C12830   0.813   0.756   6.168 -0.1576  0.6270 -0.4024
   98MOL0     C12831   0.708   0.704   6.251 -0.5745 -0.3880 -0.6652
   98MOL0     C12832   0.646   0.588   6.226  0.8043  0.1929  0.3479
   98MOL0     C12833   0.536   0.534   6.306 -0.2427 -0.2471  0.2096
   98MOL0     O12834   0.487   0.404   6.278 -0.2590 -0.1763 -0.4344
   98MOL0     C12835   0.407   0.338   6.365  0.0700  0.3426 -0.3636
   98MOL0     C12836   0.289   0.398   6.429  0.1391  0.1513  0.3496
   98MOL0     C12837   0.221   0.343   6.536  0.0902  1.3967  0.0162
   98MOL0     C12838   0.268   0.213   6.572 -0.4912 -0.1049  0.5223
   98MOL0     O12839   0.212   0.157   6.677 -0.3603  0.2343  0.3668
   98MOL0     C12840   0.134   0.041   6.655 -0.2745  0.1671 -0.7442
   98MOL0     C12841   0.032   0.020   6.762  0.7612 -0.1452  0.1030
   98MOL0     C12842  -0.074   0.135   6.775 -0.7280 -0.1272  0.2175
   98MOL0     C12843  -0.160   0.088   6.883  0.6449 -0.3862  0.3509
   98MOL0     C12844  -0.284   0.166   6.901  0.4422  0.4908 -0.1347
   98MOL0     C12845  -0.383   0.093   6.998 -0.1192 -0.6223  0.4943
   98MOL0     C12846  -0.528   0.157   7.014 -0.1854 -0.3852  0.3303
   98MOL0     C12847  -0.599   0.116   7.138  0.0969  0.4483  0.0183
   98MOL0    Cl12848  -0.625  -0.067   7.109  0.0665  0.3405 -0.0451
   98MOL0     C12849   0.368   0.146   6.509  0.8393 -0.6369  0.6414
   98MOL0     C12850   0.437   0.209   6.404  0.8534  0.6350  0.1667
   98MOL0     O12851   0.494   0.595   6.400  0.6710 -0.2437 -0.1395
   98MOL0     C12852   0.678   0.521   6.106 -1.1523  0.8561 -0.3254
   98MOL0     C12853   0.774   0.571   6.016  0.5468  0.6859  0.3575
   98MOL0     N12854   1.395   0.403   5.888 -0.3628  0.3453  0.8864
   98MOL0     N12855   1.488   0.313   5.851 -0.6435 -0.7220 -0.1864
   98MOL0     C12856   2.719   0.060   5.879  0.1729 -0.2535 -0.0309
   98MOL0     C12857   2.852   0.052   5.851 -0.8648 -1.2510  1.4133
   98MOL0     C12858   3.236   0.237   5.676 -0.2265  0.4540  0.1155
   98MOL0     C12859   3.285   0.333   5.583  0.0725  0.3277 -0.2397
   98MOL0     C12860   3.421   0.338   5.548  0.8038  0.2474  0.1095
   98MOL0     C12861   3.514   0.263   5.616 -0.0613  0.3093 -0.8844
   98MOL0     O12862   3.649   0.290   5.589  0.4179 -0.0183 -0.1910
   98MOL0     C12863   3.744   0.258   5.691 -0.1619  0.8494 -0.4714
   98MOL0     C12864   3.859   0.347   5.669 -0.1054  1.1634 -0.0729
   98MOL0     C12865   3.906   0.346   5.524 -0.6049 -0.4618 -0.0474
   98MOL0     C12866   4.040   0.419   5.501 -0.4217 -0.0206  0.3275
   98MOL0     C12867   4.158   0.341   5.557 -0.4896  0.6075  1.0741
   98MOL0     C12868   4.243   0.269   5.612  0.6978 -0.6457  0.5430
   98MOL0     C12869   3.459   0.173   5.716 -0.5793  0.1493 -0.1745
   98MOL0     C12870   3.323   0.158   5.739  0.3596  0.1111 -0.3301
   98MOL0     H12871   2.930   0.383   5.915 -0.9166  0.8826  0.1069
   98MOL0     H12872   2.694   0.388   5.950  1.3633  1.3548 -1.3684
   98MOL0     H12873   2.475   0.358   5.920 -1.1146  0.9168  0.3062
   98MOL0     H12874   2.469   0.309   6.096 -0.1061 -2.4697  0.6206
   98MOL0     H12875   2.297   0.159   6.051 -1.7344  2.8570  2.4038
   98MOL0     H12876   2.306   0.201   5.867 -1.1427  1.8779 -0.7834
   98MOL0     H12877   2.224   0.435   5.942 -1.7263  2.1978  2.8853
   98MOL0     H12878   2.216   0.367   6.105 -3.3289 -0.0280  0.1360
   98MOL0     H12879   2.051   0.259   5.870 -1.8183 -2.2671  0.6534
   98MOL0     H12880   2.076   0.169   6.022  0.3223 -0.1077 -0.5927
   98MOL0     H12881   1.941   0.446   5.981  0.4452  0.9126 -0.0855
   98MOL0     H12882   1.984   0.380   6.133 -0.4685  1.9298 -1.2757
   98MOL0     H12883   1.747   0.329   6.090 -0.1433 -2.6953  3.6174
   98MOL0     H12884   1.842   0.184   6.110 -3.6354 -0.0136  2.1307
   98MOL0     H12885   1.834   0.159   5.840 -1.7496  0.1319 -2.4529
   98MOL0     H12886   1.687   0.166   5.907  0.9109 -0.8979 -0.9628
   98MOL0     H12887   1.719   0.323   5.710  0.6039  1.4529 -0.5277
   98MOL0     H12888   1.807   0.434   5.818 -1.1531  0.3032  0.0944
   98MOL0     H12889   1.643   0.608   5.873  1.6373 -0.6181 -0.4127
   98MOL0     H12890   1.435   0.736   5.973 -1.4291  0.9006 -0.6754
   98MOL0     H12891   1.309   0.628   6.053 -1.2798  0.0431  0.0426
   98MOL0     H12892   1.198   0.586   5.849 -0.1601  0.2939 -1.8874
   98MOL0     H12893   1.297   0.702   5.765 -0.6109 -2.0234 -1.2230
   98MOL0     H12894   1.230   0.890   5.941 -0.7221  1.8420 -2.8320
   98MOL0     H12895   1.108   0.842   5.834  0.6391 -0.1283  0.3430
   98MOL0     H12896   1.040   0.875   6.060  2.0500  0.5167  1.1299
   98MOL0     H12897   1.107   0.722   6.102 -1.4059  1.3211  0.3979
   98MOL0     H12898   0.868   0.845   6.197  1.6589  0.1991 -2.2639
   98MOL0     H12899   0.675   0.757   6.340 -0.9731 -1.1509 -0.3459
   98MOL0     H12900   0.253   0.499   6.410 -0.6000 -0.2486 -0.4210
   98MOL0     H12901   0.142   0.399   6.584 -0.8648  1.7326 -1.8437
   98MOL0     H12902   0.205  -0.043   6.655 -0.0357  0.3480  0.7455
   98MOL0     H12903   0.088   0.051   6.556  1.4805 -0.8812 -1.7267
   98MOL0     H12904   0.089   0.011   6.854 -1.4698  1.0075  1.6987
   98MOL0     H12905  -0.029  -0.071   6.752 -1.9355  1.3566  1.6456
   98MOL0     H12906  -0.134   0.152   6.685 -0.1762 -3.0815 -0.8162
   98MOL0     H12907  -0.027   0.234   6.782 -0.6927 -0.0782 -0.6130
   98MOL0     H12908  -0.185  -0.016   6.864  2.8675 -0.6836 -1.3156
   98MOL0     H12909  -0.108   0.096   6.978 -0.9824  0.2559  1.2345
   98MOL0     H12910  -0.328   0.178   6.802  1.1781  0.2429 -0.4949
   98MOL0     H12911  -0.256   0.266   6.935 -0.0140  0.9963 -1.2000
   98MOL0     H12912  -0.332   0.091   7.094  0.9554  0.2801 -0.0355
   98MOL0     H12913  -0.385  -0.011   6.964  1.0992 -0.7368  0.7411
   98MOL0     H12914  -0.518   0.266   7.018 -2.7460 -0.0151 -1.0844
   98MOL0     H12915  -0.583   0.131   6.923  2.0374 -0.6119 -0.9969
   98MOL0     H12916  -0.694   0.170   7.150  1.2125  2.7109 -0.6965
   98MOL0     H12917  -0.540   0.136   7.228  0.4126  0.1331 -0.1154
   98MOL0     H12918   0.392   0.046   6.544  0.5237 -1.1449 -0.5394
   98MOL0     H12919   0.515   0.153   6.353 -1.5860 -1.0745 -2.0266
   98MOL0     H12920   0.636   0.423   6.085  0.5166 -0.2761  1.3834
   98MOL0     H12921   0.791   0.528   5.918  1.1831 -1.2259  1.2557
   98MOL0     H12922   2.659  -0.030   5.889 -0.1821 -0.1170 -0.8479
   98MOL0     H12923   2.891  -0.045   5.824  1.7339  0.4538 -1.4471
   98MOL0     H12924   3.212   0.403   5.544 -1.8415 -2.6465 -2.5206
   98MOL0     H12925   3.450   0.403   5.467 -1.8312  0.7110 -0.5499
   98MOL0     H12926   3.776   0.155   5.678  2.2770  1.6891 -1.7317
   98MOL0     H12927   3.718   0.268   5.797  2.6620 -0.0277  0.3690
   98MOL0     H12928   3.840   0.451   5.694  0.9812  1.6876 -1.3194
   98MOL0     H12929   3.936   0.302   5.732 -0.2548 -1.2944 -1.5113
   98MOL0     H12930   3.828   0.403   5.472  0.5802  0.7106 -0.5987
   98MOL0     H12931   3.913   0.243   5.487  0.3197 -0.8344  1.1005
   98MOL0     H12932   4.061   0.445   5.397 -1.4708  2.3230  0.6290
   98MOL0     H12933   4.039   0.513   5.558 -3.7636 -0.4133  1.0908
   98MOL0     H12934   4.310   0.200   5.659  0.8630 -0.1198  1.0889
   98MOL0     H12935   3.522   0.122   5.788 -1.9514 -0.3037  0.7496
   98MOL0     H12936   3.290   0.086   5.814  2.3698 -3.1062 -2.2960
   99MOL0     O12937   4.286   6.523   2.234  0.4039 -0.0553  0.6332
   99MOL0     C12938   4.313   6.437   2.320 -0.5900  0.5477 -1.1042
   99MOL0     O12939   4.237   6.328   2.343  0.6445  0.4931  0.2415
   99MOL0     C12940   4.120   6.306   2.273 -0.9247 -0.1954  0.3545
   99MOL0     C12941   4.123   6.232   2.153  0.1356  0.1542 -0.7289
   99MOL0     C12942   4.016   6.222   2.076  0.4122 -0.9531  0.0199
   99MOL0     C12943   3.900   6.295   2.108  0.0118 -0.7108 -0.0569
   99MOL0     O12944   3.792   6.293   2.023 -0.5058  0.1556  0.0700
   99MOL0     C12945   3.694   6.403   2.017  0.0613 -0.4615  0.6025
   99MOL0     C12946   3.587   6.389   1.904 -0.6658 -0.1494  0.3103
   99MOL0     C12947   3.492   6.263   1.918 -0.3218 -0.3610 -0.2707
   99MOL0     C12948   3.388   6.287   2.033  0.1275 -0.8439  0.4372
   99MOL0     C12949   3.247   6.239   2.005 -0.0724 -0.0766  0.8490
   99MOL0     C12950   3.176   6.343   1.901 -0.4658 -0.2828  0.9569
   99MOL0     C12951   3.048   6.280   1.841  0.1394 -0.6142  0.6870
   99MOL0     C12952   2.946   6.375   1.794 -0.7575  0.8182 -0.0962
   99MOL0     N12953   2.832   6.301   1.728 -0.0825  0.3900  0.4078
   99MOL0     C12954   2.722   6.251   1.796 -0.3622  0.9456 -0.1530
   99MOL0     C12955   2.649   6.192   1.703 -0.1265 -0.5821 -0.4663
   99MOL0     C12956   2.528   6.116   1.726  0.3164  0.0703  0.1650
   99MOL0     C12957   2.539   5.968   1.675 -0.1195 -0.1450 -0.5687
   99MOL0     C12958   2.592   5.890   1.800 -0.8923 -0.0647  0.8208
   99MOL0     C12959   2.745   5.902   1.835  0.0259  0.7030 -0.2558
   99MOL0     O12960   2.799   5.783   1.886 -0.2269  0.0254  0.3527
   99MOL0     C12961   2.937   5.771   1.912  0.5445  0.4554 -0.7356
   99MOL0     C12962   3.037   5.869   1.889 -0.8953  0.6610 -0.2734
   99MOL0     C12963   3.175   5.849   1.907  0.6114  0.3020  0.0363
   99MOL0     C12964   3.221   5.726   1.943  0.2703 -0.1457 -0.6657
   99MOL0     C12965   3.371   5.707   1.955 -0.0540  0.7910  0.2493
   99MOL0     O12966   3.452   5.817   1.941 -0.1046 -0.5110  0.5848
   99MOL0     C12967   3.582   5.792   1.925 -1.0347 -0.2986  0.2720
   99MOL0     C12968   3.665   5.862   2.005 -0.4466  0.0133 -0.3371
   99MOL0     C12969   3.808   5.849   2.012  0.8019 -0.0480  0.0551
   99MOL0     C12970   3.872   5.751   1.930 -0.4529 -0.1324 -0.5995
   99MOL0     O12971   4.010   5.749   1.945 -0.4464 -0.9542  0.1795
   99MOL0     C12972   4.080   5.624   1.928  0.6215 -0.3032 -0.5885
   99MOL0     C12973   4.224   5.638   1.923  0.0965 -0.0351 -0.1359
   99MOL0     C12974   4.280   5.685   1.793 -0.4152 -0.3933  0.2734
   99MOL0     C12975   4.431   5.659   1.797  0.0370  0.8311  0.2971
   99MOL0     C12976   4.524   5.720   1.910  0.7606 -0.1725  0.3994
   99MOL0     C12977   4.529   5.873   1.910  0.4836 -0.1375 -0.1846
   99MOL0     C12978   4.668   5.923   1.930  0.1688 -0.1291  0.2893
   99MOL0     C12979   4.732   5.883   2.062  0.2317  0.7070  0.2100
   99MOL0    Cl12980   4.872   5.976   2.111  0.3543  0.3398 -0.6454
   99MOL0     C12981   3.781   5.667   1.853  0.0713  0.1904  0.4219
   99MOL0     C12982   3.644   5.687   1.845 -0.3234 -0.2168  0.2850
   99MOL0     O12983   3.408   5.594   1.968 -0.3405 -0.6548  0.1694
   99MOL0     C12984   3.125   5.625   1.977 -0.0298  0.4679  0.6550
   99MOL0     C12985   2.989   5.647   1.954 -0.2966  0.8978  0.0525
   99MOL0     N12986   2.714   6.205   1.577  0.4919  0.9260 -0.4930
   99MOL0     N12987   2.824   6.276   1.595 -0.1656  0.0569  0.0698
   99MOL0     C12988   3.900   6.377   2.216 -0.8179 -0.0476  0.1259
   99MOL0     C12989   4.009   6.378   2.305 -0.1095  0.1891  0.8803
   99MOL0     C12990   4.420   6.467   2.410  0.1205 -1.0784 -1.2210
   99MOL0     C12991   4.450   6.395   2.529 -0.0067 -1.3844 -0.1149
   99MOL0     C12992   4.558   6.427   2.605  0.1644 -0.5622  0.0345
   99MOL0     C12993   4.632   6.539   2.588  0.1017 -0.1556 -0.3577
   99MOL0     O12994   4.745   6.550   2.672  0.4773 -0.1665  0.1424
   99MOL0     C12995   4.802   6.684   2.682  0.3773 -0.2542  0.1904
   99MOL0     C12996   4.885   6.713   2.816  0.1046 -0.5466  0.9838
   99MOL0     C12997   4.782   6.708   2.931 -0.1942  0.0982  0.0546
   99MOL0     C12998   4.852   6.718   3.069  1.0270 -0.7296 -0.4120
   99MOL0     C12999   4.957   6.821   3.083 -0.2222  0.3169 -0.1349
   99MOL0     C13000   5.046   6.903   3.100 -0.0068  0.7788  0.2662
   99MOL0     C13001   4.601   6.625   2.477  0.3966 -0.9887  0.5130
   99MOL0     C13002   4.501   6.583   2.388 -0.0778 -0.2804 -0.7043
   99MOL0     H13003   4.218   6.183   2.135  0.4555 -0.2866  1.7397
   99MOL0     H13004   4.016   6.160   1.987 -1.9895  1.1212 -1.5634
   99MOL0     H13005   3.754   6.490   1.990 -0.5569  0.3146  1.6740
   99MOL0     H13006   3.637   6.407   2.110  1.1549 -0.0540  1.2759
   99MOL0     H13007   3.647   6.380   1.812 -0.6474  2.4123  0.0024
   99MOL0     H13008   3.525   6.479   1.900 -0.2114  0.1321 -1.0513
   99MOL0     H13009   3.551   6.172   1.935  0.3437  0.4384  2.1689
   99MOL0     H13010   3.430   6.256   1.829  1.5117  2.2300 -1.9135
   99MOL0     H13011   3.419   6.235   2.124  1.2718 -1.8259 -0.4793
   99MOL0     H13012   3.382   6.393   2.060 -1.0156 -0.0724 -2.4730
   99MOL0     H13013   3.189   6.232   2.098  1.6617 -1.7850  1.8760
   99MOL0     H13014   3.255   6.137   1.968  1.2743  0.2548  0.1561
   99MOL0     H13015   3.248   6.371   1.824 -0.5684 -2.3608  0.0300
   99MOL0     H13016   3.136   6.434   1.946 -1.4801  0.1193 -0.6412
   99MOL0     H13017   3.075   6.222   1.753  2.3290  1.3659 -0.0603
   99MOL0     H13018   2.997   6.217   1.915  0.4738 -1.7225 -0.0052
   99MOL0     H13019   2.993   6.438   1.718  0.8829  0.4585  0.5866
   99MOL0     H13020   2.908   6.425   1.883  1.1282  1.1309  0.5705
   99MOL0     H13021   2.707   6.248   1.904  0.5614 -5.2211  0.1913
   99MOL0     H13022   2.458   6.168   1.661  2.3902  0.4980 -1.8669
   99MOL0     H13023   2.500   6.124   1.832 -1.6615  3.2870 -0.4852
   99MOL0     H13024   2.595   5.955   1.583  0.3233  1.5159 -0.5530
   99MOL0     H13025   2.441   5.924   1.653  1.2661 -3.6183 -0.4991
   99MOL0     H13026   2.531   5.917   1.887 -1.2124  0.7345  0.3557
   99MOL0     H13027   2.573   5.787   1.768  1.0769 -0.1092 -0.3885
   99MOL0     H13028   2.767   5.979   1.909  3.5249  0.4671 -0.8761
   99MOL0     H13029   2.791   5.921   1.737 -3.0010 -0.9572 -2.1786
   99MOL0     H13030   3.000   5.965   1.856  3.1486  2.1955 -0.8493
   99MOL0     H13031   3.248   5.927   1.887  0.0600  1.1674  1.2455
   99MOL0     H13032   3.610   5.931   2.069 -1.9512 -0.3155 -1.2200
   99MOL0     H13033   3.871   5.911   2.076  2.5171 -2.7304  1.1497
   99MOL0     H13034   4.040   5.591   1.831 -0.7959 -1.4640  0.3469
   99MOL0     H13035   4.057   5.552   2.006 -1.0335  0.2714 -0.5146
   99MOL0     H13036   4.275   5.544   1.944  1.5311  0.6297 -0.5481
   99MOL0     H13037   4.259   5.703   2.004  0.6014 -0.6438  0.1427
   99MOL0     H13038   4.262   5.793   1.792 -4.2060 -0.8479  1.5527
   99MOL0     H13039   4.227   5.638   1.709  0.9729 -0.5905 -0.5091
   99MOL0     H13040   4.449   5.551   1.790 -3.9454  0.1126 -2.4687
   99MOL0     H13041   4.474   5.694   1.703  0.0161 -1.2991 -0.5762
   99MOL0     H13042   4.626   5.688   1.890  0.5343 -0.8716  0.3420
   99MOL0     H13043   4.488   5.681   2.006  0.0286  2.8767  1.4917
   99MOL0     H13044   4.456   5.908   1.983 -2.0599 -0.5595 -2.3409
   99MOL0     H13045   4.490   5.907   1.813  1.2898  0.3175 -0.3557
   99MOL0     H13046   4.725   5.898   1.840 -1.7030 -1.8844 -0.5056
   99MOL0     H13047   4.661   6.032   1.925  2.1707 -0.0171 -2.1626
   99MOL0     H13048   4.764   5.781   2.037 -0.7629  0.2496  0.7140
   99MOL0     H13049   4.654   5.878   2.139  0.5014  0.9193  0.5034
   99MOL0     H13050   3.821   5.589   1.788 -1.3215  0.8115 -1.2572
   99MOL0     H13051   3.574   5.633   1.781  0.9048  1.1193 -2.3460
   99MOL0     H13052   3.161   5.531   2.018 -0.1693  0.2620  0.3116
   99MOL0     H13053   2.923   5.561   1.950  1.9057 -0.8776 -0.2560
   99MOL0     H13054   3.816   6.439   2.246 -1.5862 -0.2317 -1.4972
   99MOL0     H13055   3.998   6.431   2.399  1.8969 -1.3410  2.0684
   99MOL0     H13056   4.383   6.315   2.560 -1.0909  0.0288  1.3386
   99MOL0     H13057   4.585   6.359   2.685  0.0506 -1.3454 -0.5704
   99MOL0     H13058   4.720   6.755   2.684  0.3541 -0.0827 -2.7075
   99MOL0     H13059   4.871   6.708   2.600 -0.7394 -1.3463 -1.1254
   99MOL0     H13060   4.961   6.635   2.825  1.2889  0.7471  2.5025
   99MOL0     H13061   4.923   6.815   2.817 -0.0183 -0.4091 -1.3735
   99MOL0     H13062   4.740   6.607   2.937  0.3223 -0.1044  0.3899
   99MOL0     H13063   4.701   6.780   2.919 -1.2971 -0.8235  1.5327
   99MOL0     H13064   4.779   6.734   3.149  1.7906 -0.4879  0.2470
   99MOL0     H13065   4.895   6.618   3.073 -1.4503 -2.2032 -4.1884
   99MOL0     H13066   5.132   6.963   3.120  0.6810 -1.3010  4.7758
   99MOL0     H13067   4.667   6.704   2.442  0.7744 -2.0031 -1.2169
   99MOL0     H13068   4.497   6.636   2.293  0.9209 -0.7869 -1.0557
  100MOL0     O13069   8.170   1.524   4.117 -0.5758  0.5330  0.0552
  100MOL0     C13070   8.239   1.595   4.043 -0.1181  0.8674  0.0603
  100MOL0     O13071   8.197   1.649   3.924 -0.0254  0.0642 -0.1481
  100MOL0     C13072   8.061   1.656   3.888  0.6819 -0.5777 -0.2752
  100MOL0     C13073   8.021   1.599   3.765 -0.9405  0.1144  0.6201
  100MOL0     C13074   7.897   1.620   3.718  0.1299 -0.4655  0.6476
  100MOL0     C13075   7.807   1.696   3.782  0.7716 -0.3712 -0.0394
  100MOL0     O13076   7.686   1.698   3.732  0.8718  0.4267  0.1576
  100MOL0     C13077   7.619   1.825   3.695  0.5261 -0.5598 -0.9347
  100MOL0     C13078   7.511   1.786   3.597  0.5307  0.0504  0.4932
  100MOL0     C13079   7.439   1.906   3.533  0.3204 -0.0543  0.3671
  100MOL0     C13080   7.312   1.949   3.608  0.1714 -0.2809 -0.9348
  100MOL0     C13081   7.284   2.103   3.596  0.3575 -0.0178  0.0822
  100MOL0     C13082   7.138   2.146   3.559  0.8446 -0.0356 -0.1777
  100MOL0     C13083   7.115   2.297   3.549 -0.0843  0.2468  0.1171
  100MOL0     C13084   6.978   2.343   3.522 -0.5365  0.5269 -0.1146
  100MOL0     N13085   6.867   2.285   3.602  1.3043 -0.3896 -0.2752
  100MOL0     C13086   6.766   2.200   3.562 -0.2836  1.0464  0.6482
  100MOL0     C13087   6.699   2.170   3.672 -0.0959  0.0679 -0.2451
  100MOL0     C13088   6.584   2.075   3.668 -0.2089  0.2063 -0.5872
  100MOL0     C13089   6.450   2.141   3.632  0.8711  0.2769 -0.0158
  100MOL0     C13090   6.343   2.049   3.694  0.2379 -0.0760 -0.9828
  100MOL0     C13091   6.203   2.106   3.664  0.5647 -0.1241  0.3348
  100MOL0     O13092   6.113   2.008   3.707  0.1377  0.2180  0.1501
  100MOL0     C13093   5.980   2.028   3.727 -0.1946 -0.5970 -0.3133
  100MOL0     C13094   5.920   2.150   3.695 -0.3704 -0.0605 -0.2153
  100MOL0     C13095   5.781   2.159   3.718 -0.0985 -0.0457 -0.2165
  100MOL0     C13096   5.705   2.046   3.768  0.1604  0.2667 -0.3109
  100MOL0     C13097   5.569   2.058   3.816 -0.7782 -0.1884  0.0941
  100MOL0     O13098   5.512   2.176   3.780  0.0228 -0.4369  0.6824
  100MOL0     C13099   5.377   2.207   3.805 -0.7497  0.0582 -0.3140
  100MOL0     C13100   5.271   2.116   3.796  0.2014  0.6636  0.1479
  100MOL0     C13101   5.142   2.165   3.816 -0.4686 -0.4317  0.3854
  100MOL0     C13102   5.112   2.297   3.841 -0.6491 -0.0062  0.0146
  100MOL0     O13103   4.986   2.338   3.857 -0.1624 -0.6430 -0.9550
  100MOL0     C13104   4.877   2.274   3.787 -0.3504  0.3475 -0.5280
  100MOL0     C13105   4.739   2.359   3.784 -0.5245  0.0464 -0.0043
  100MOL0     C13106   4.698   2.405   3.920 -0.3579  0.1897  0.4013
  100MOL0     C13107   4.713   2.549   3.939  0.4747 -0.0642  0.2805
  100MOL0     C13108   4.649   2.606   4.071 -0.0467 -0.2779 -0.2467
  100MOL0     C13109   4.494   2.588   4.069  0.4088 -0.2717  0.3045
  100MOL0     C13110   4.434   2.606   4.208 -0.7634 -0.3042 -0.1266
  100MOL0     C13111   4.288   2.563   4.214 -0.3745  0.2735  0.2105
  100MOL0    Cl13112   4.212   2.584   4.376  0.1284  0.1383 -0.1663
  100MOL0     C13113   5.219   2.390   3.834  0.2751  0.5352  0.4680
  100MOL0     C13114   5.349   2.342   3.828  0.2190 -0.3110  0.1199
  100MOL0     O13115   5.507   1.962   3.854  0.0006 -0.0482  0.2573
  100MOL0     C13116   5.770   1.919   3.775  0.2437 -0.1545 -0.3327
  100MOL0     C13117   5.907   1.917   3.756  0.2699  0.3536 -0.8889
  100MOL0     N13118   6.743   2.259   3.776  0.9846  1.0102 -0.1426
  100MOL0     N13119   6.835   2.323   3.731  0.4733 -0.9993  0.0002
  100MOL0     C13120   7.842   1.760   3.900  0.4308  0.0365  0.7207
  100MOL0     C13121   7.971   1.742   3.959  0.4616  0.7015  0.6875
  100MOL0     C13122   8.380   1.600   4.081  0.6690  0.2729 -0.4697
  100MOL0     C13123   8.470   1.697   4.028 -0.7891  1.2090 -1.4388
  100MOL0     C13124   8.601   1.702   4.070 -0.2368 -1.0474  0.6429
  100MOL0     C13125   8.652   1.616   4.165 -1.0396  0.0358 -0.4135
  100MOL0     O13126   8.783   1.638   4.207 -0.3831  0.3572 -0.1420
  100MOL0     C13127   8.835   1.578   4.325 -0.1988 -0.1216 -0.2627
  100MOL0     C13128   8.966   1.651   4.362 -0.2663 -0.8588  0.2963
  100MOL0     C13129   8.948   1.794   4.399 -0.3533 -0.3019 -0.2043
  100MOL0     C13130   9.081   1.868   4.407 -0.2747 -0.1097  0.4165
  100MOL0     C13131   9.149   1.889   4.277  0.0955 -0.7935 -1.3207
  100MOL0     C13132   9.195   1.896   4.171 -0.3027  1.5393  0.6724
  100MOL0     C13133   8.570   1.520   4.215  0.1686 -0.1579 -0.3096
  100MOL0     C13134   8.433   1.508   4.180 -0.3970  0.5257  0.0475
  100MOL0     H13135   8.091   1.547   3.701 -2.5790  1.8327 -2.7965
  100MOL0     H13136   7.863   1.564   3.631  4.3137 -1.1100 -0.8022
  100MOL0     H13137   7.684   1.906   3.662  1.6496 -1.1153 -0.1450
  100MOL0     H13138   7.571   1.853   3.790 -0.1034 -2.1519 -0.7536
  100MOL0     H13139   7.443   1.718   3.648  1.3304 -3.4340 -2.6425
  100MOL0     H13140   7.550   1.728   3.513  1.6365  0.2428  0.8601
  100MOL0     H13141   7.397   1.888   3.433 -2.4603  1.5553  1.1516
  100MOL0     H13142   7.502   1.992   3.512  0.3425 -0.2345 -0.3559
  100MOL0     H13143   7.233   1.885   3.568  1.7905 -1.9184 -1.6754
  100MOL0     H13144   7.331   1.923   3.712 -0.1705 -1.1956 -1.0929
  100MOL0     H13145   7.354   2.141   3.521 -0.2723  1.0506  0.0282
  100MOL0     H13146   7.306   2.145   3.695  1.0452 -2.9522  1.3042
  100MOL0     H13147   7.070   2.115   3.639 -3.4330  0.9224 -3.1203
  100MOL0     H13148   7.106   2.100   3.465 -1.9454 -1.4423  1.3306
  100MOL0     H13149   7.144   2.332   3.648  1.9122 -4.2699  1.3999
  100MOL0     H13150   7.177   2.331   3.465  0.3575  2.9814  1.4289
  100MOL0     H13151   6.964   2.328   3.415  0.0406  2.4960 -0.4973
  100MOL0     H13152   6.982   2.451   3.536  2.5870  0.5176 -0.1322
  100MOL0     H13153   6.751   2.162   3.462 -0.7575  1.0622  0.7064
  100MOL0     H13154   6.584   2.022   3.763 -1.7775 -1.1400 -1.2957
  100MOL0     H13155   6.605   1.998   3.593 -1.0935 -1.9844  1.3153
  100MOL0     H13156   6.428   2.149   3.525  2.9083  0.2599 -0.4817
  100MOL0     H13157   6.439   2.239   3.680  3.5907 -0.1857  1.7665
  100MOL0     H13158   6.349   1.944   3.665  1.2744 -0.7179  1.3489
  100MOL0     H13159   6.353   2.059   3.803 -0.5263  0.9308 -0.9926
  100MOL0     H13160   6.181   2.123   3.558  0.3683 -3.2006 -0.2368
  100MOL0     H13161   6.194   2.198   3.721 -2.0258 -0.9968  1.5276
  100MOL0     H13162   5.966   2.239   3.653 -1.8492  0.1926 -1.3795
  100MOL0     H13163   5.734   2.256   3.703  0.8529  0.1887 -1.9529
  100MOL0     H13164   5.282   2.012   3.765 -1.5281 -0.5115  3.0857
  100MOL0     H13165   5.060   2.094   3.815 -1.6006  0.8368 -1.7259
  100MOL0     H13166   4.843   2.184   3.840 -5.8516  2.7384  0.6741
  100MOL0     H13167   4.906   2.254   3.684  1.6344 -1.8946  0.3480
  100MOL0     H13168   4.659   2.295   3.746  0.0214  0.4177 -1.8923
  100MOL0     H13169   4.742   2.440   3.710  1.3103 -0.4727 -0.5744
  100MOL0     H13170   4.756   2.358   4.000 -0.3417  1.1116  0.9349
  100MOL0     H13171   4.594   2.373   3.933 -0.8005  1.6872  0.6674
  100MOL0     H13172   4.822   2.548   3.933  0.3862 -1.0299 -2.1246
  100MOL0     H13173   4.674   2.598   3.850 -2.2077 -1.0567  0.8183
  100MOL0     H13174   4.670   2.714   4.072  1.9701 -0.6304 -0.5139
  100MOL0     H13175   4.693   2.552   4.155 -0.5964 -1.0596 -0.4575
  100MOL0     H13176   4.483   2.482   4.047  0.4089  0.2851 -2.7710
  100MOL0     H13177   4.446   2.651   3.994  0.7577 -1.5052 -0.9884
  100MOL0     H13178   4.490   2.546   4.281 -2.2198  0.5947  1.8424
  100MOL0     H13179   4.431   2.709   4.246 -1.5971 -0.3737  0.0063
  100MOL0     H13180   4.274   2.461   4.177 -2.9386  0.2258  1.0756
  100MOL0     H13181   4.232   2.627   4.146 -0.1261 -0.2693 -0.5181
  100MOL0     H13182   5.197   2.497   3.835 -0.9888  0.3111 -0.6489
  100MOL0     H13183   5.433   2.409   3.839  1.3517 -2.0856  3.5716
  100MOL0     H13184   5.723   1.828   3.811  0.3056 -0.8307 -1.8716
  100MOL0     H13185   5.959   1.822   3.758 -0.3999 -0.0589  2.0435
  100MOL0     H13186   7.771   1.809   3.966  1.9342  1.8541  1.0849
  100MOL0     H13187   7.990   1.787   4.056 -1.6944  0.9809  1.0475
  100MOL0     H13188   8.429   1.766   3.955 -0.1734  0.8105 -2.1669
  100MOL0     H13189   8.672   1.774   4.029  0.1763 -1.1511  1.1613
  100MOL0     H13190   8.861   1.472   4.330  1.8643  0.3943  1.6014
  100MOL0     H13191   8.757   1.589   4.401 -0.3051  1.5571 -0.5684
  100MOL0     H13192   9.021   1.602   4.443 -0.0838 -2.9079 -0.9986
  100MOL0     H13193   9.030   1.643   4.274  0.1134 -0.6307  0.5490
  100MOL0     H13194   8.905   1.805   4.499 -0.6245  3.4730 -0.6131
  100MOL0     H13195   8.875   1.832   4.328 -0.1417  0.2072 -0.1572
  100MOL0     H13196   9.069   1.965   4.456 -1.8647 -0.8861  1.6431
  100MOL0     H13197   9.138   1.794   4.463  0.7483 -0.7284 -1.3507
  100MOL0     H13198   9.252   1.903   4.080  1.1567  0.0909  1.4182
  100MOL0     H13199   8.622   1.450   4.280 -1.9535 -2.3468 -0.7971
  100MOL0     H13200   8.375   1.425   4.220 -0.5904 -1.4220 -3.8436
  101MOL0     O13201   3.188   9.990  10.331 -0.0050 -0.1803 -0.6498
  101MOL0     C13202   3.263  10.078  10.294  0.1074  0.1017 -0.1897
  101MOL0     O13203   3.244  10.162  10.192  0.1796  0.3521 -0.2612
  101MOL0     C13204   3.117  10.173  10.138 -0.0105  0.2257  0.2259
  101MOL0     C13205   3.003  10.165  10.219  0.3109  0.4885  0.3596
  101MOL0     C13206   2.877  10.166  10.159 -0.5647 -0.4669 -0.9071
  101MOL0     C13207   2.865  10.183  10.018 -0.5134  0.2744 -0.4785
  101MOL0     O13208   2.741  10.203   9.971  0.2047 -0.4944  0.4889
  101MOL0     C13209   2.634  10.121  10.000  0.4503 -0.1492 -0.5811
  101MOL0     C13210   2.519  10.131   9.898 -0.0982  0.1568 -0.4136
  101MOL0     C13211   2.484  10.265   9.838 -0.6456 -0.4723 -0.3897
  101MOL0     C13212   2.490  10.388   9.941  0.2556 -0.4388  0.4004
  101MOL0     C13213   2.427  10.510   9.888  0.2014 -0.5491  0.0085
  101MOL0     C13214   2.423  10.620   9.996  1.0024  0.8539  0.2959
  101MOL0     C13215   2.338  10.734   9.952 -0.2593 -0.2065  0.2737
  101MOL0     C13216   2.286  10.828  10.062  1.2034 -0.2458 -1.2341
  101MOL0     N13217   2.185  10.930  10.022 -0.1229 -0.0033 -0.6947
  101MOL0     C13218   2.122  10.948   9.898  0.5190  0.5098 -0.3044
  101MOL0     C13219   2.016  11.029   9.924 -0.6381  0.0869 -0.3218
  101MOL0     C13220   1.922  11.086   9.831 -0.9697 -0.1347  0.7787
  101MOL0     C13221   1.982  11.155   9.712 -0.3947  1.2428  0.1314
  101MOL0     C13222   2.028  11.297   9.750 -0.3626 -0.0076  0.3005
  101MOL0     C13223   2.106  11.359   9.630  0.4992  0.2712  0.5429
  101MOL0     O13224   2.126  11.503   9.654 -0.2276  0.3546  0.4233
  101MOL0     C13225   2.228  11.553   9.732 -0.4896 -0.7181 -0.0480
  101MOL0     C13226   2.307  11.487   9.831 -0.6031 -0.2489  0.6870
  101MOL0     C13227   2.422  11.549   9.884  0.4018 -0.0822 -0.5535
  101MOL0     C13228   2.447  11.685   9.870  0.5313  0.2509  0.6171
  101MOL0     C13229   2.567  11.751   9.919  0.2797  0.5883  0.1535
  101MOL0     O13230   2.640  11.688  10.015 -0.0985  0.1966 -0.1022
  101MOL0     C13231   2.762  11.731  10.070  1.0591  0.6564  1.4408
  101MOL0     C13232   2.851  11.629  10.090 -0.4528  0.2962  0.2962
  101MOL0     C13233   2.977  11.660  10.145  0.0628 -0.4436  0.3942
  101MOL0     C13234   3.016  11.798  10.157  0.4781  0.9956  0.6664
  101MOL0     O13235   3.124  11.838  10.225 -0.0148 -0.1803  0.1192
  101MOL0     C13236   3.228  11.751  10.263 -0.4220 -0.2997  0.5210
  101MOL0     C13237   3.345  11.834  10.321 -0.4470  0.3169 -0.2379
  101MOL0     C13238   3.462  11.758  10.375  0.0186  0.2379  0.3849
  101MOL0     C13239   3.574  11.850  10.418  0.3997  0.6059  0.7042
  101MOL0     C13240   3.667  11.768  10.510 -0.4770  0.5069  0.6266
  101MOL0     C13241   3.774  11.849  10.579  0.6439 -0.3382  0.6779
  101MOL0     C13242   3.854  11.773  10.689 -0.2680  0.5542  0.2757
  101MOL0     C13243   3.902  11.868  10.793  0.2092  0.1420 -0.2950
  101MOL0    Cl13244   3.981  11.779  10.925 -0.2216  0.1553 -0.3089
  101MOL0     C13245   2.925  11.895  10.128  0.2166  0.5118  0.0232
  101MOL0     C13246   2.795  11.862  10.086 -0.3140  0.6170 -0.9353
  101MOL0     O13247   2.598  11.855   9.861  0.0218  0.0263 -0.2267
  101MOL0     C13248   2.353  11.759   9.786 -0.5103 -0.2755 -0.0406
  101MOL0     C13249   2.252  11.691   9.720  0.4936 -0.0575  0.1572
  101MOL0     N13250   2.023  11.058  10.061 -0.1889  0.6650  0.2582
  101MOL0     N13251   2.120  10.992  10.112  0.0138  0.4714 -0.2664
  101MOL0     C13252   2.985  10.185   9.942  0.3274 -0.0201  0.8878
  101MOL0     C13253   3.114  10.184   9.998  0.2929 -0.2823 -0.4793
  101MOL0     C13254   3.399  10.077  10.347  0.2409 -0.6064 -0.4011
  101MOL0     C13255   3.485  10.182  10.301 -0.3176  0.0162  0.5480
  101MOL0     C13256   3.614  10.180  10.354 -0.7678 -0.2501  0.0278
  101MOL0     C13257   3.662  10.080  10.441 -0.0594 -0.1063 -0.8411
  101MOL0     O13258   3.790  10.057  10.481  0.3681  0.2247  0.0386
  101MOL0     C13259   3.882  10.171  10.459  0.5811  0.0826  0.7806
  101MOL0     C13260   3.995  10.162  10.562  0.6285  0.7685  0.0344
  101MOL0     C13261   4.064  10.021  10.571 -0.2162 -0.1573 -0.1246
  101MOL0     C13262   4.161  10.006  10.683 -0.3677 -0.0953  0.0719
  101MOL0     C13263   4.291  10.077  10.659  0.2393  0.0431  0.8502
  101MOL0     C13264   4.388  10.148  10.649  0.4280 -0.6085 -0.2969
  101MOL0     C13265   3.576   9.978  10.485 -0.1244  0.8320 -0.1061
  101MOL0     C13266   3.444   9.977  10.440 -0.1556  0.2035  0.7084
  101MOL0     H13267   3.000  10.150  10.327  0.8633 -0.2985  0.2705
  101MOL0     H13268   2.788  10.182  10.220  1.4578  1.4210  1.8403
  101MOL0     H13269   2.595  10.148  10.098  1.2252  3.1380 -1.0607
  101MOL0     H13270   2.675  10.020   9.990  2.7978  0.9350 -3.5290
  101MOL0     H13271   2.438  10.089   9.959  1.8303 -0.9462  1.5303
  101MOL0     H13272   2.522  10.064   9.812 -0.3833 -1.7917  1.0219
  101MOL0     H13273   2.384  10.264   9.793 -0.9741 -1.0990  0.3245
  101MOL0     H13274   2.557  10.279   9.758 -0.4147 -1.0126 -0.2819
  101MOL0     H13275   2.452  10.366  10.041  0.5455  2.3411  1.2103
  101MOL0     H13276   2.597  10.410   9.956  0.7262 -2.7711  0.8320
  101MOL0     H13277   2.328  10.484   9.850  0.0907  1.4134 -1.1961
  101MOL0     H13278   2.484  10.552   9.804 -0.5167 -2.2248 -1.3799
  101MOL0     H13279   2.523  10.649  10.030  1.6436  0.8383 -1.4551
  101MOL0     H13280   2.367  10.572  10.077  0.6510 -1.4187 -1.1972
  101MOL0     H13281   2.397  10.798   9.885  1.4067  0.0355  1.8918
  101MOL0     H13282   2.254  10.690   9.898 -0.9181  2.4439 -1.0379
  101MOL0     H13283   2.375  10.881  10.097  1.2139 -1.5893  0.9737
  101MOL0     H13284   2.253  10.763  10.144 -1.1301  1.9681 -0.2820
  101MOL0     H13285   2.145  10.904   9.802 -1.0614 -1.8868  0.3153
  101MOL0     H13286   1.852  11.153   9.882 -2.3326 -1.4119  0.6339
  101MOL0     H13287   1.855  11.009   9.791 -3.5891  1.3081  2.0941
  101MOL0     H13288   1.902  11.157   9.638 -0.2556 -2.3296 -0.2865
  101MOL0     H13289   2.069  11.097   9.681 -1.6143 -1.8837  2.0241
  101MOL0     H13290   1.948  11.364   9.781 -0.1465  1.0010 -1.2288
  101MOL0     H13291   2.092  11.293   9.839  0.0498  2.3089  0.1722
  101MOL0     H13292   2.060  11.339   9.533  0.7934 -2.3106  0.8698
  101MOL0     H13293   2.205  11.316   9.613 -0.5197 -1.7768 -0.5692
  101MOL0     H13294   2.287  11.381   9.841 -0.9932 -0.2534 -0.0207
  101MOL0     H13295   2.493  11.490   9.941  5.1146  2.2153 -3.4021
  101MOL0     H13296   2.816  11.526  10.095  1.0240 -0.1859  2.5863
  101MOL0     H13297   3.047  11.582  10.174  0.0698 -0.5036  0.2148
  101MOL0     H13298   3.275  11.704  10.176  0.5838  1.4843  0.0384
  101MOL0     H13299   3.199  11.678  10.338  0.3161 -0.7085  0.4204
  101MOL0     H13300   3.311  11.889  10.409  4.3906  2.3626  0.7084
  101MOL0     H13301   3.379  11.920  10.262 -1.2185  0.0274 -1.1282
  101MOL0     H13302   3.504  11.694  10.297 -1.2946  1.8709 -1.7574
  101MOL0     H13303   3.421  11.697  10.456 -1.3858  0.2909 -0.2629
  101MOL0     H13304   3.624  11.897  10.332  0.0899  4.3606  2.4025
  101MOL0     H13305   3.537  11.932  10.480  0.4903  1.0207  0.2150
  101MOL0     H13306   3.717  11.690  10.451 -1.5270 -0.2402  0.7003
  101MOL0     H13307   3.607  11.715  10.584 -1.8445  2.5539  1.0687
  101MOL0     H13308   3.725  11.929  10.636  0.5233  0.4590 -0.5001
  101MOL0     H13309   3.851  11.891  10.515  2.0834  2.9803  4.1672
  101MOL0     H13310   3.788  11.699  10.735 -1.5521 -0.2323 -2.5921
  101MOL0     H13311   3.925  11.709  10.638 -1.2618  0.9833 -1.7458
  101MOL0     H13312   3.819  11.927  10.833  1.0489  0.5323  0.9812
  101MOL0     H13313   3.971  11.945  10.754  0.7795 -0.8584 -1.3072
  101MOL0     H13314   2.951  11.997  10.153 -1.4730  1.1356 -0.5881
  101MOL0     H13315   2.710  11.927  10.070  0.1102  2.2153  2.4746
  101MOL0     H13316   2.376  11.861   9.758  0.9983 -0.3647  0.7538
  101MOL0     H13317   2.182  11.748   9.661  0.0737 -1.0227 -0.2935
  101MOL0     H13318   2.970  10.190   9.835  1.8336  1.7032  0.7156
  101MOL0     H13319   3.198  10.185   9.929  1.3920 -0.8220  0.8059
  101MOL0     H13320   3.455  10.263  10.235  2.9103  0.9721  0.0979
  101MOL0     H13321   3.672  10.267  10.324 -1.7735  0.5726  0.4142
  101MOL0     H13322   3.824  10.264  10.465  0.1317 -0.0802 -0.6114
  101MOL0     H13323   3.923  10.169  10.357  0.2520  2.4192  0.5317
  101MOL0     H13324   4.067  10.230  10.516 -2.4831  2.1425 -3.3049
  101MOL0     H13325   3.960  10.192  10.661  0.5362  2.2028 -0.4114
  101MOL0     H13326   4.118   9.992  10.480 -0.3062 -1.7415  0.2992
  101MOL0     H13327   3.985   9.947  10.583 -0.1412 -0.2081  0.0633
  101MOL0     H13328   4.115  10.055  10.769 -0.5589  1.0298 -0.6512
  101MOL0     H13329   4.182   9.903  10.713 -0.5958 -0.3261 -0.5493
  101MOL0     H13330   4.476  10.201  10.619  2.7260 -4.2567 -0.6826
  101MOL0     H13331   3.614   9.900  10.550 -3.1467 -0.4605  0.2721
  101MOL0     H13332   3.379   9.902  10.484 -0.7025  0.4725  0.3565
  102MOL0     O13333   5.429   5.378   1.354  0.9893  0.0486  0.2940
  102MOL0     C13334   5.387   5.461   1.439 -0.3572 -0.4761  0.4520
  102MOL0     O13335   5.262   5.468   1.487 -0.0577  0.2567 -0.7178
  102MOL0     C13336   5.152   5.396   1.442 -0.4383  0.4386  0.1825
  102MOL0     C13337   5.134   5.336   1.314 -0.0694  0.7416 -0.3377
  102MOL0     C13338   5.011   5.273   1.291  0.6811  0.1002 -0.8521
  102MOL0     C13339   4.907   5.272   1.379  0.1565 -0.2609 -0.6973
  102MOL0     O13340   4.790   5.211   1.353 -0.3812 -0.4210 -0.6452
  102MOL0     C13341   4.796   5.076   1.306  0.0062  0.0274 -0.4781
  102MOL0     C13342   4.839   4.973   1.408 -0.4557  0.2619 -0.2939
  102MOL0     C13343   4.818   4.831   1.358 -0.1042  0.5349  0.6250
  102MOL0     C13344   4.847   4.719   1.461  0.6469 -0.7257  0.4116
  102MOL0     C13345   4.832   4.571   1.422 -0.2283 -0.3729  0.0869
  102MOL0     C13346   4.909   4.476   1.507  0.9301 -0.2088  0.2734
  102MOL0     C13347   4.911   4.513   1.658  0.6091  0.2694 -0.5574
  102MOL0     C13348   4.839   4.411   1.748 -0.6797  0.8504  0.1471
  102MOL0     N13349   4.705   4.396   1.706 -0.0067 -0.3201 -0.0695
  102MOL0     C13350   4.623   4.501   1.715 -0.6033  0.0058  0.4172
  102MOL0     C13351   4.511   4.445   1.679  0.5677 -0.2214 -0.8437
  102MOL0     C13352   4.387   4.525   1.684 -0.3193 -0.2381  0.0899
  102MOL0     C13353   4.260   4.439   1.677  0.0839 -0.6580  0.4274
  102MOL0     C13354   4.137   4.533   1.661  0.1101  0.6667  0.5873
  102MOL0     C13355   4.014   4.445   1.684  0.2720  0.5329  0.0164
  102MOL0     O13356   3.899   4.523   1.716  1.0888  0.0564 -0.6805
  102MOL0     C13357   3.780   4.454   1.743  0.8769 -0.2511 -0.7902
  102MOL0     C13358   3.662   4.525   1.775  1.0236 -0.4388  0.6528
  102MOL0     C13359   3.539   4.461   1.784 -0.1268  0.2360  0.7612
  102MOL0     C13360   3.522   4.322   1.778 -0.7041  0.0059  0.3932
  102MOL0     C13361   3.389   4.250   1.779  0.1414  0.1986 -0.1088
  102MOL0     O13362   3.392   4.117   1.795 -0.6140 -0.3258 -0.3168
  102MOL0     C13363   3.280   4.042   1.769  0.5183 -0.6747 -0.4584
  102MOL0     C13364   3.282   3.949   1.667 -0.8782  1.0826 -0.2988
  102MOL0     C13365   3.178   3.857   1.643 -0.1211  0.2847  0.5185
  102MOL0     C13366   3.063   3.872   1.725 -0.7654  0.6395 -0.0023
  102MOL0     O13367   2.965   3.783   1.697 -0.1185 -0.5245 -0.1721
  102MOL0     C13368   2.839   3.824   1.742  0.1814  0.1080 -0.0708
  102MOL0     C13369   2.740   3.728   1.691  1.0552 -0.7363  0.2003
  102MOL0     C13370   2.599   3.778   1.725 -0.3564  0.1730 -0.0822
  102MOL0     C13371   2.496   3.677   1.668  0.3025  0.1989  0.5538
  102MOL0     C13372   2.355   3.718   1.701  0.6461 -0.3112 -0.5026
  102MOL0     C13373   2.319   3.856   1.638 -0.1038 -0.6648  1.1235
  102MOL0     C13374   2.338   3.864   1.486  0.1104 -0.5742  0.5961
  102MOL0     C13375   2.309   4.005   1.435  0.1254 -0.1888 -0.1523
  102MOL0    Cl13376   2.380   4.041   1.282 -0.0899  0.2755  0.0472
  102MOL0     C13377   3.061   3.957   1.837  0.1493  0.2895 -0.4502
  102MOL0     C13378   3.168   4.040   1.853 -0.1736 -0.0599  0.5324
  102MOL0     O13379   3.287   4.312   1.745  0.3371 -1.1243  0.2010
  102MOL0     C13380   3.641   4.244   1.764  0.1928  0.1922 -0.5960
  102MOL0     C13381   3.760   4.311   1.737 -1.0295 -0.1177  0.7994
  102MOL0     N13382   4.530   4.316   1.637  0.7669 -0.2329 -0.4771
  102MOL0     N13383   4.651   4.288   1.652 -0.5876  0.3098  0.2870
  102MOL0     C13384   4.929   5.336   1.502 -0.6140  1.0015 -0.5469
  102MOL0     C13385   5.051   5.401   1.531  0.2753 -0.2885 -0.3958
  102MOL0     C13386   5.490   5.547   1.510 -0.5226  0.1353  0.5762
  102MOL0     C13387   5.620   5.547   1.456 -0.5920 -1.2402  0.4337
  102MOL0     C13388   5.725   5.625   1.516  0.2577  0.4846  0.2050
  102MOL0     C13389   5.691   5.709   1.623  1.0704 -0.0469  0.5966
  102MOL0     O13390   5.781   5.773   1.701  0.4080 -0.1379 -0.2244
  102MOL0     C13391   5.916   5.778   1.648  0.8458 -0.0418  0.2061
  102MOL0     C13392   6.000   5.829   1.753 -0.5480 -0.0222 -0.3618
  102MOL0     C13393   6.142   5.876   1.707 -0.6276  0.0419  0.2706
  102MOL0     C13394   6.135   5.952   1.572  0.4315 -0.1447  0.8125
  102MOL0     C13395   6.267   6.001   1.541 -0.2890  0.1237  0.0652
  102MOL0     C13396   6.390   6.024   1.535  0.1417 -0.6169 -0.0895
  102MOL0     C13397   5.554   5.719   1.675 -0.4983 -0.3514  0.5721
  102MOL0     C13398   5.463   5.631   1.616 -0.5494 -0.4736  0.3108
  102MOL0     H13399   5.205   5.332   1.233 -1.4541 -1.5087 -1.5476
  102MOL0     H13400   5.007   5.220   1.196  0.4646  0.2979 -0.9534
  102MOL0     H13401   4.861   5.056   1.220  0.9194 -1.8610  0.6021
  102MOL0     H13402   4.693   5.054   1.277  0.5356 -2.9539 -0.3794
  102MOL0     H13403   4.781   4.987   1.500  2.0449  2.1267  1.1379
  102MOL0     H13404   4.946   4.982   1.431 -0.4710 -2.8051  1.5423
  102MOL0     H13405   4.887   4.820   1.273 -0.1531 -1.5129  0.8104
  102MOL0     H13406   4.717   4.817   1.320  0.8175  0.0862 -1.8512
  102MOL0     H13407   4.953   4.733   1.485  0.2766 -0.0346  1.7300
  102MOL0     H13408   4.787   4.734   1.551  1.8136 -0.6514  1.2025
  102MOL0     H13409   4.858   4.558   1.317 -1.3045 -1.0734 -0.1065
  102MOL0     H13410   4.723   4.559   1.425 -0.5274  2.1136  1.2415
  102MOL0     H13411   5.012   4.481   1.470  0.4914 -0.2796 -1.0228
  102MOL0     H13412   4.873   4.375   1.485  0.6510  0.2367 -1.4360
  102MOL0     H13413   5.016   4.515   1.691  0.8296  0.2313 -1.2505
  102MOL0     H13414   4.877   4.615   1.675  0.9607  0.4791 -1.1157
  102MOL0     H13415   4.841   4.457   1.847  0.3940  1.5285 -0.1677
  102MOL0     H13416   4.894   4.317   1.755 -0.8221  0.7136 -0.4853
  102MOL0     H13417   4.643   4.602   1.752  0.7023 -0.2281  0.4227
  102MOL0     H13418   4.383   4.584   1.592  0.0183 -1.4184 -0.7000
  102MOL0     H13419   4.386   4.589   1.773 -0.8740 -0.1222  0.0037
  102MOL0     H13420   4.254   4.367   1.759  1.1466 -1.5913 -0.2812
  102MOL0     H13421   4.266   4.379   1.585 -1.1872  1.4315 -1.1252
  102MOL0     H13422   4.140   4.613   1.736  1.1513  2.2855 -1.1145
  102MOL0     H13423   4.131   4.586   1.566  1.7867 -0.6348 -0.2903
  102MOL0     H13424   4.027   4.374   1.767 -3.7062 -0.9409 -0.4190
  102MOL0     H13425   4.003   4.387   1.592 -1.1839  2.0043 -0.7873
  102MOL0     H13426   3.666   4.633   1.781  1.4873 -0.4410  0.4761
  102MOL0     H13427   3.449   4.522   1.790  0.5061  1.5969 -1.9716
  102MOL0     H13428   3.364   3.946   1.597 -3.1951 -0.0570 -3.1823
  102MOL0     H13429   3.187   3.780   1.567  2.6579  1.4345 -0.4334
  102MOL0     H13430   2.816   3.925   1.709  0.0534  0.2844  0.5500
  102MOL0     H13431   2.833   3.834   1.850  2.5663  0.5031  0.0858
  102MOL0     H13432   2.762   3.628   1.730  0.6283 -0.7357  0.4566
  102MOL0     H13433   2.756   3.721   1.583  1.4461  0.7589  0.1383
  102MOL0     H13434   2.586   3.874   1.673  0.7150 -1.3971 -3.5325
  102MOL0     H13435   2.578   3.790   1.832  0.2219 -0.9482  0.1700
  102MOL0     H13436   2.506   3.671   1.559 -1.3107 -1.5873  0.4488
  102MOL0     H13437   2.517   3.578   1.710 -1.7625 -0.1931  0.7569
  102MOL0     H13438   2.343   3.721   1.810  0.0318  0.0296 -0.5748
  102MOL0     H13439   2.287   3.641   1.664 -0.3242 -0.2965  1.1513
  102MOL0     H13440   2.372   3.939   1.686  0.4530 -0.1653 -0.3014
  102MOL0     H13441   2.212   3.876   1.653  0.2197  1.6765  0.6589
  102MOL0     H13442   2.442   3.834   1.468 -0.0078  0.1488 -1.5259
  102MOL0     H13443   2.274   3.795   1.430 -3.0134  0.2641  2.8567
  102MOL0     H13444   2.350   4.073   1.511 -2.0642 -1.4995  2.3774
  102MOL0     H13445   2.201   4.008   1.421  0.2967 -1.5285 -2.1480
  102MOL0     H13446   2.976   3.973   1.903  0.2126 -2.8044  0.5525
  102MOL0     H13447   3.167   4.122   1.924 -1.3281  1.5547 -1.2595
  102MOL0     H13448   3.628   4.137   1.755 -0.5486  0.2008  0.1651
  102MOL0     H13449   3.841   4.245   1.707 -0.4499  1.7603 -2.1600
  102MOL0     H13450   4.843   5.326   1.568 -1.8648  1.3036 -2.0474
  102MOL0     H13451   5.058   5.476   1.609  2.3375  1.2592 -1.9750
  102MOL0     H13452   5.638   5.498   1.362  1.5510 -0.9873  0.6559
  102MOL0     H13453   5.826   5.609   1.482  0.3205  2.5499 -0.7671
  102MOL0     H13454   5.905   5.849   1.566 -2.1576 -1.2458 -0.5816
  102MOL0     H13455   5.967   5.683   1.628 -0.1609 -1.0555  2.0768
  102MOL0     H13456   5.946   5.908   1.807 -0.2327 -0.4175  0.5482
  102MOL0     H13457   6.016   5.762   1.837  1.6874  1.3813  0.4374
  102MOL0     H13458   6.212   5.793   1.698  1.9295  2.0667  0.4346
  102MOL0     H13459   6.180   5.938   1.789 -2.1395  1.1179  0.1900
  102MOL0     H13460   6.100   5.884   1.493  1.9340 -1.0238  0.8535
  102MOL0     H13461   6.061   6.032   1.573  0.2132 -0.3044 -0.3489
  102MOL0     H13462   6.497   6.029   1.533  0.1638 -1.1307 -0.5828
  102MOL0     H13463   5.521   5.776   1.761  0.8482  2.6250 -0.7542
  102MOL0     H13464   5.358   5.636   1.642 -0.1993  1.6175  1.4888
  103MOL0     O13465   6.135   9.326   0.171  0.1873  0.2959  0.9288
  103MOL0     C13466   6.187   9.250   0.082 -0.4743 -0.3377 -0.4830
  103MOL0     O13467   6.142   9.122   0.052  0.5202 -1.2639  0.6133
  103MOL0     C13468   6.028   9.084   0.123  0.1573  0.2814 -0.2619
  103MOL0     C13469   6.018   8.959   0.182 -0.3837 -0.5458  0.4379
  103MOL0     C13470   5.903   8.922   0.250 -0.0602 -0.7824 -0.1850
  103MOL0     C13471   5.785   9.002   0.247 -0.6143  0.1582 -0.6646
  103MOL0     O13472   5.661   8.971   0.307  0.0502  0.5611  0.4711
  103MOL0     C13473   5.642   8.854   0.395  0.3451 -1.2175  0.3711
  103MOL0     C13474   5.497   8.855   0.457 -0.1417  1.4949  0.9429
  103MOL0     C13475   5.401   8.850   0.338 -0.1190  0.0012 -0.0825
  103MOL0     C13476   5.255   8.883   0.382 -0.0479  0.3385 -0.4642
  103MOL0     C13477   5.231   9.026   0.445  0.6162  0.3439 -0.0653
  103MOL0     C13478   5.096   9.026   0.506 -0.0021  0.5713 -0.7681
  103MOL0     C13479   5.078   9.160   0.575 -0.0767  0.1972 -0.4231
  103MOL0     C13480   4.936   9.192   0.630  0.3807 -0.5022 -0.0022
  103MOL0     N13481   4.873   9.082   0.710 -0.3510 -0.6688 -0.7332
  103MOL0     C13482   4.943   8.994   0.790  0.5518 -0.5544 -1.3647
  103MOL0     C13483   4.850   8.917   0.842  0.3834  0.5850  0.2396
  103MOL0     C13484   4.857   8.811   0.942  0.2557 -0.0364 -0.2669
  103MOL0     C13485   4.751   8.696   0.917  0.2857  0.4901  0.1212
  103MOL0     C13486   4.794   8.616   0.791 -0.3095  0.4867 -0.9378
  103MOL0     C13487   4.684   8.530   0.739 -0.3282  0.2644 -0.0209
  103MOL0     O13488   4.734   8.426   0.664  0.3202 -0.8086 -0.0230
  103MOL0     C13489   4.665   8.355   0.573 -0.8742  0.0316 -0.3714
  103MOL0     C13490   4.732   8.240   0.517 -0.0901 -0.4523 -0.4833
  103MOL0     C13491   4.680   8.159   0.419 -0.7303  0.9186  0.1074
  103MOL0     C13492   4.563   8.193   0.361  0.1068  0.0143  0.6824
  103MOL0     C13493   4.502   8.120   0.244  0.8570  0.7033 -0.3003
  103MOL0     O13494   4.372   8.107   0.249  0.2484  0.3399  0.3935
  103MOL0     C13495   4.294   8.053   0.144  0.0579  0.0718  0.3532
  103MOL0     C13496   4.177   8.123   0.110  0.7363  0.0046  1.5600
  103MOL0     C13497   4.101   8.091  -0.010 -0.3294  0.3789 -0.2132
  103MOL0     C13498   4.141   7.985  -0.100  0.0056 -0.2603  0.0328
  103MOL0     O13499   4.072   7.954  -0.218 -0.3320 -0.0581 -0.3714
  103MOL0     C13500   4.100   7.832  -0.280  0.4646  0.6493  0.0513
  103MOL0     C13501   4.001   7.796  -0.390 -0.2997  0.2015 -0.3689
  103MOL0     C13502   3.871   7.723  -0.334 -0.8141 -0.3328  0.1276
  103MOL0     C13503   3.761   7.702  -0.443  0.6868  0.3668  0.3041
  103MOL0     C13504   3.648   7.604  -0.389 -1.4005 -0.3676 -0.7968
  103MOL0     C13505   3.568   7.566  -0.513 -0.1946 -0.8709 -0.4439
  103MOL0     C13506   3.484   7.444  -0.481 -0.0307  0.5518  0.0860
  103MOL0     C13507   3.344   7.473  -0.418  0.4743  0.5753 -0.5196
  103MOL0    Cl13508   3.260   7.308  -0.385 -0.0887 -0.4491 -0.3305
  103MOL0     C13509   4.261   7.923  -0.072 -1.1144  0.1875  1.5654
  103MOL0     C13510   4.338   7.955   0.051  0.6186 -0.0016  0.0493
  103MOL0     O13511   4.583   8.076   0.159 -0.0298 -0.0854 -0.3430
  103MOL0     C13512   4.495   8.305   0.415 -0.1320  0.4564 -0.1324
  103MOL0     C13513   4.541   8.388   0.520  0.0529 -0.4062 -0.6505
  103MOL0     N13514   4.727   8.954   0.791 -0.1108 -0.3104 -0.4957
  103MOL0     N13515   4.737   9.064   0.730 -0.0227  0.2134 -0.2947
  103MOL0     C13516   5.791   9.109   0.157  0.0685  0.6920  0.4847
  103MOL0     C13517   5.908   9.152   0.101  0.0627 -0.7390 -0.7256
  103MOL0     C13518   6.279   9.313  -0.020 -0.2826  0.0396 -0.0839
  103MOL0     C13519   6.324   9.248  -0.139  0.0233 -0.2373  0.2616
  103MOL0     C13520   6.408   9.310  -0.230 -0.3091  0.1234 -0.0777
  103MOL0     C13521   6.451   9.442  -0.208  0.6960 -0.2259  0.2976
  103MOL0     O13522   6.535   9.513  -0.286  0.0271  0.6588  0.4017
  103MOL0     C13523   6.646   9.441  -0.347  0.4515  0.5893 -0.1896
  103MOL0     C13524   6.739   9.378  -0.243 -0.8398  0.2935 -0.0148
  103MOL0     C13525   6.848   9.279  -0.296 -0.8273  0.2874  1.0076
  103MOL0     C13526   6.789   9.146  -0.332 -0.1342 -0.6475  0.0543
  103MOL0     C13527   6.900   9.062  -0.395  0.1301  0.2878 -0.3591
  103MOL0     C13528   6.970   8.968  -0.429 -0.3883 -0.3554 -0.0664
  103MOL0     C13529   6.408   9.503  -0.089 -0.8293  0.7364  0.4690
  103MOL0     C13530   6.332   9.439   0.005  0.6564 -0.5792  0.7591
  103MOL0     H13531   6.096   8.885   0.194 -2.7662 -3.0103  1.7759
  103MOL0     H13532   5.900   8.826   0.300  1.6864 -1.0572 -0.5392
  103MOL0     H13533   5.719   8.856   0.473  0.2420 -0.4977  0.4605
  103MOL0     H13534   5.670   8.764   0.339 -1.4418 -0.7409 -1.4127
  103MOL0     H13535   5.481   8.944   0.519  0.8345  1.4851  1.2230
  103MOL0     H13536   5.477   8.770   0.523  1.9102  0.3020  0.1232
  103MOL0     H13537   5.396   8.753   0.288 -3.9104  0.3126 -0.5937
  103MOL0     H13538   5.429   8.933   0.272  1.2910 -1.4412 -1.3800
  103MOL0     H13539   5.181   8.875   0.302 -0.5620 -0.2856  0.0626
  103MOL0     H13540   5.232   8.807   0.457 -0.2635  1.0485  0.2090
  103MOL0     H13541   5.231   9.098   0.362  0.3252 -1.1798 -1.4461
  103MOL0     H13542   5.309   9.055   0.516  1.0951  1.4098 -0.9885
  103MOL0     H13543   5.086   8.944   0.579 -0.9712 -0.5956 -2.1560
  103MOL0     H13544   5.015   9.008   0.435 -0.5673  0.6680 -0.1643
  103MOL0     H13545   5.143   9.176   0.662  0.8407  0.3756 -1.1285
  103MOL0     H13546   5.109   9.241   0.509  0.4084  1.6090  1.4374
  103MOL0     H13547   4.865   9.204   0.548 -0.0186 -0.0545  0.4096
  103MOL0     H13548   4.938   9.286   0.685  1.7409 -1.2256  1.2582
  103MOL0     H13549   5.048   8.986   0.816  0.3052 -0.7947 -0.4067
  103MOL0     H13550   4.828   8.851   1.040 -1.6164 -1.0537 -0.3660
  103MOL0     H13551   4.961   8.787   0.967  0.2417  0.7220  0.5731
  103MOL0     H13552   4.653   8.743   0.905 -0.1505 -0.8594 -2.0152
  103MOL0     H13553   4.748   8.626   1.001  0.0013 -0.9291 -1.0403
  103MOL0     H13554   4.827   8.687   0.714  1.0442  1.7486  0.7230
  103MOL0     H13555   4.875   8.546   0.813 -0.9388 -0.3015 -1.0945
  103MOL0     H13556   4.619   8.595   0.679  1.2993  2.0633  0.0417
  103MOL0     H13557   4.632   8.491   0.827  1.7581 -1.6213  0.4631
  103MOL0     H13558   4.831   8.215   0.554  0.4553 -0.2651 -1.7619
  103MOL0     H13559   4.742   8.083   0.373 -2.6810 -0.6069 -0.1147
  103MOL0     H13560   4.138   8.203   0.172 -2.2519  1.1979 -1.5640
  103MOL0     H13561   4.011   8.146  -0.034  1.9822  3.7740 -1.8661
  103MOL0     H13562   4.112   7.750  -0.209  3.8365  1.0050  0.0816
  103MOL0     H13563   4.202   7.844  -0.318  0.3875  0.4814 -0.2161
  103MOL0     H13564   4.059   7.731  -0.456  0.1584  0.6860 -0.4595
  103MOL0     H13565   3.972   7.888  -0.442  2.9587  1.2736 -0.5479
  103MOL0     H13566   3.830   7.778  -0.249  0.2843  0.3160  0.2492
  103MOL0     H13567   3.896   7.627  -0.288 -0.9716 -0.3370  0.2081
  103MOL0     H13568   3.705   7.792  -0.470  1.7558  0.9835  0.1107
  103MOL0     H13569   3.801   7.660  -0.535 -1.9880  0.3661 -0.9409
  103MOL0     H13570   3.585   7.650  -0.312 -1.0382 -1.0974 -0.0607
  103MOL0     H13571   3.688   7.518  -0.335 -1.9104  1.0540  2.0293
  103MOL0     H13572   3.640   7.524  -0.584 -0.4001  0.1832 -1.3053
  103MOL0     H13573   3.510   7.650  -0.552 -1.4236 -1.0712  0.8677
  103MOL0     H13574   3.462   7.387  -0.572 -0.1492  1.2533 -0.3288
  103MOL0     H13575   3.548   7.382  -0.418 -2.5756 -1.9501  0.4142
  103MOL0     H13576   3.281   7.525  -0.491  0.4380  0.5042 -0.5406
  103MOL0     H13577   3.358   7.524  -0.323 -0.0794 -0.2955  0.0498
  103MOL0     H13578   4.310   7.854  -0.140 -2.3645  0.9268 -0.1288
  103MOL0     H13579   4.435   7.908   0.062  0.7768  0.4996  0.9192
  103MOL0     H13580   4.396   8.320   0.374 -1.1402  0.2256  2.1252
  103MOL0     H13581   4.472   8.467   0.548 -1.0908 -1.4107 -0.5269
  103MOL0     H13582   5.707   9.175   0.136 -1.2226 -1.2008 -0.6442
  103MOL0     H13583   5.898   9.245   0.047  0.1519 -0.1661  0.2208
  103MOL0     H13584   6.287   9.152  -0.172  1.1753 -0.6043 -0.0158
  103MOL0     H13585   6.432   9.255  -0.321  0.4763 -4.0212  2.4118
  103MOL0     H13586   6.711   9.511  -0.400  0.5918 -0.5668 -1.6324
  103MOL0     H13587   6.609   9.366  -0.418  2.0919  0.4072 -0.8975
  103MOL0     H13588   6.795   9.459  -0.197 -0.1877 -0.1895  0.0442
  103MOL0     H13589   6.693   9.314  -0.167  1.9804 -1.9534 -0.0339
  103MOL0     H13590   6.938   9.266  -0.235 -1.4988 -1.6154  1.6693
  103MOL0     H13591   6.883   9.324  -0.390  1.2391  0.0302  1.5913
  103MOL0     H13592   6.747   9.105  -0.240 -0.6073  1.3348  0.7660
  103MOL0     H13593   6.705   9.161  -0.400  1.2036  2.2040 -1.1387
  103MOL0     H13594   7.016   8.884  -0.478  1.8000 -1.3226  3.2798
  103MOL0     H13595   6.445   9.603  -0.073  0.2787  0.0594  2.4979
  103MOL0     H13596   6.321   9.485   0.102  1.5286  0.6021  0.3219
  104MOL0     O13597   0.257   5.875   3.865  0.0229 -0.5060 -0.0490
  104MOL0     C13598   0.304   5.843   3.971 -0.4675  0.6383  0.2007
  104MOL0     O13599   0.247   5.766   4.066 -0.3616  0.3350 -0.2086
  104MOL0     C13600   0.108   5.744   4.060  0.1955  0.5942  0.3634
  104MOL0     C13601   0.012   5.839   4.084 -0.3889 -0.1617  0.4414
  104MOL0     C13602  -0.120   5.806   4.075 -0.2963 -0.0654 -0.0400
  104MOL0     C13603  -0.162   5.671   4.045 -0.0210 -0.1236 -0.0057
  104MOL0     O13604  -0.301   5.654   4.030  0.8457  0.4239  0.0697
  104MOL0     C13605  -0.357   5.515   4.008 -0.5698 -0.0438 -0.0207
  104MOL0     C13606  -0.509   5.505   4.037 -0.7553  0.0148 -0.0915
  104MOL0     C13607  -0.593   5.602   3.966  0.0112  0.1113  0.3467
  104MOL0     C13608  -0.739   5.576   3.975  0.6030  0.1324  0.5216
  104MOL0     C13609  -0.811   5.623   4.100 -0.1430  0.5158 -0.0487
  104MOL0     C13610  -0.958   5.620   4.099  0.1173 -0.1874  0.6016
  104MOL0     C13611  -1.016   5.482   4.061 -0.5782 -0.6127 -0.4846
  104MOL0     C13612  -1.163   5.473   4.084 -0.8902  0.1135 -0.3973
  104MOL0     N13613  -1.207   5.346   4.040 -0.4855  0.5268 -0.3253
  104MOL0     C13614  -1.218   5.298   3.907 -0.4742 -0.4900 -0.1230
  104MOL0     C13615  -1.265   5.171   3.925 -0.7605 -0.3129 -0.8609
  104MOL0     C13616  -1.302   5.081   3.815  0.6458 -0.4800  0.3513
  104MOL0     C13617  -1.435   5.115   3.743 -0.1983 -1.0423  0.0205
  104MOL0     C13618  -1.569   5.105   3.823 -0.1542 -1.1219  0.6130
  104MOL0     C13619  -1.595   4.971   3.884  0.1620 -0.2150  0.5212
  104MOL0     O13620  -1.692   4.995   3.992 -0.3896 -0.4241 -0.0571
  104MOL0     C13621  -1.804   4.915   3.992  0.3545  0.6731 -0.1244
  104MOL0     C13622  -1.830   4.835   4.108 -0.1369 -0.0789 -0.0289
  104MOL0     C13623  -1.949   4.752   4.105 -0.3370 -1.0745  0.1989
  104MOL0     C13624  -2.045   4.768   4.000  0.1904 -0.9425  0.3557
  104MOL0     C13625  -2.179   4.710   4.015  0.2975 -0.8204  0.3474
  104MOL0     O13626  -2.273   4.760   3.938 -0.1551  0.0730  0.0534
  104MOL0     C13627  -2.404   4.709   3.943 -0.2580  0.8225 -0.0528
  104MOL0     C13628  -2.467   4.662   4.058 -0.1203 -0.7648 -0.5124
  104MOL0     C13629  -2.600   4.622   4.059  0.8105  0.0644  0.1540
  104MOL0     C13630  -2.661   4.606   3.935 -0.2632 -0.4028  0.4229
  104MOL0     O13631  -2.783   4.547   3.926  0.1692 -0.9088  0.6345
  104MOL0     C13632  -2.894   4.634   3.947  0.5264 -0.1201  0.3453
  104MOL0     C13633  -3.016   4.533   3.941 -0.1686 -0.6159  0.6680
  104MOL0     C13634  -3.134   4.618   3.943  0.5995  0.2376  0.0508
  104MOL0     C13635  -3.269   4.537   3.932 -0.4243  0.8572  0.3308
  104MOL0     C13636  -3.398   4.626   3.937  0.3302  0.5700 -0.1495
  104MOL0     C13637  -3.433   4.687   3.796  0.5240 -0.1251 -0.0729
  104MOL0     C13638  -3.584   4.733   3.789 -0.4576  0.5627  0.4594
  104MOL0     C13639  -3.624   4.744   3.640  0.0251  0.8532 -0.5341
  104MOL0    Cl13640  -3.795   4.805   3.609 -0.4379  0.4899  0.2253
  104MOL0     C13641  -2.592   4.633   3.816 -0.1697  0.3663  0.1849
  104MOL0     C13642  -2.470   4.697   3.822 -1.0498  0.2303 -0.6299
  104MOL0     O13643  -2.197   4.630   4.107 -0.8335  0.0535 -0.1672
  104MOL0     C13644  -2.013   4.851   3.896 -0.3684 -1.1708  0.1806
  104MOL0     C13645  -1.898   4.923   3.892  0.4616  0.1144  0.1342
  104MOL0     N13646  -1.276   5.148   4.062 -0.3456  0.2144  0.0139
  104MOL0     N13647  -1.238   5.252   4.124 -0.2658  0.2390 -0.0279
  104MOL0     C13648  -0.064   5.576   4.018  0.7799  0.8555 -0.0720
  104MOL0     C13649   0.069   5.612   4.036  0.3087  0.1248 -0.8484
  104MOL0     C13650   0.450   5.880   3.989 -0.8954 -0.5924 -0.7594
  104MOL0     C13651   0.516   5.829   4.103  0.6623 -0.0529 -0.2338
  104MOL0     C13652   0.653   5.853   4.128 -0.7194  0.1408 -0.4914
  104MOL0     C13653   0.722   5.943   4.051 -1.1087 -0.1276 -0.0342
  104MOL0     O13654   0.852   5.976   4.090 -0.0637  0.6824 -0.6616
  104MOL0     C13655   0.918   6.093   4.038  0.0197 -0.6514  0.3128
  104MOL0     C13656   0.845   6.228   4.080 -0.3198 -0.4547  0.9322
  104MOL0     C13657   0.843   6.229   4.234  1.0066 -0.9131 -0.4135
  104MOL0     C13658   0.714   6.168   4.298  0.0850 -0.5720  0.0584
  104MOL0     C13659   0.664   6.262   4.393 -0.3484 -0.7621  0.3363
  104MOL0     C13660   0.611   6.333   4.473 -0.8093 -0.3442  0.1031
  104MOL0     C13661   0.655   5.996   3.932  0.3918 -0.3574  0.4715
  104MOL0     C13662   0.525   5.964   3.902 -0.3811  0.0878  0.5457
  104MOL0     H13663   0.029   5.942   4.115 -0.9668  0.0905 -0.0505
  104MOL0     H13664  -0.195   5.881   4.095 -0.7986 -0.4625 -0.4152
  104MOL0     H13665  -0.311   5.435   4.067 -2.1395 -0.4299  0.7264
  104MOL0     H13666  -0.340   5.499   3.901  0.8410  0.8674  0.0379
  104MOL0     H13667  -0.515   5.526   4.144 -0.3487  3.5461 -0.6556
  104MOL0     H13668  -0.536   5.403   4.007  0.8472 -0.2556 -0.7279
  104MOL0     H13669  -0.564   5.587   3.861  1.7190  0.7638  0.6988
  104MOL0     H13670  -0.556   5.700   3.998 -0.8980  0.5301  0.1512
  104MOL0     H13671  -0.782   5.607   3.880  1.8279 -3.1839 -1.2714
  104MOL0     H13672  -0.753   5.467   3.967  1.9913  0.0713 -2.4559
  104MOL0     H13673  -0.780   5.726   4.122  0.6408  0.0944  0.8778
  104MOL0     H13674  -0.770   5.555   4.174  0.8298 -0.0220 -1.0529
  104MOL0     H13675  -0.990   5.685   4.018  0.0094 -4.8158 -3.5110
  104MOL0     H13676  -0.992   5.654   4.197 -0.9442  0.2990  0.0777
  104MOL0     H13677  -0.990   5.458   3.957  2.1170 -2.0696  0.4365
  104MOL0     H13678  -0.964   5.411   4.126  0.4131  1.3980  1.0057
  104MOL0     H13679  -1.220   5.542   4.021 -2.1747  0.0264  0.6148
  104MOL0     H13680  -1.193   5.474   4.189 -0.9009 -1.7261 -0.3523
  104MOL0     H13681  -1.207   5.353   3.814  1.3567 -0.1996  0.2241
  104MOL0     H13682  -1.324   4.979   3.847 -1.2626  0.0394  0.8263
  104MOL0     H13683  -1.227   5.087   3.735 -1.8775  2.2414 -2.0821
  104MOL0     H13684  -1.441   5.041   3.663  0.6493 -2.5570  1.2884
  104MOL0     H13685  -1.434   5.213   3.695 -1.3635 -1.9736 -2.0445
  104MOL0     H13686  -1.573   5.187   3.895  1.4273  0.8053 -1.3409
  104MOL0     H13687  -1.645   5.128   3.747  0.6543  4.1518  1.0617
  104MOL0     H13688  -1.505   4.925   3.927  0.6326  0.6944  0.5569
  104MOL0     H13689  -1.638   4.908   3.807 -0.2260  1.6794 -0.8898
  104MOL0     H13690  -1.757   4.831   4.188  0.4287 -2.0325 -0.5824
  104MOL0     H13691  -1.969   4.699   4.198  1.5429  0.6790  1.6981
  104MOL0     H13692  -2.425   4.688   4.155  0.6753  0.5663 -1.1995
  104MOL0     H13693  -2.661   4.612   4.148 -1.7960  0.6602 -1.4749
  104MOL0     H13694  -2.895   4.707   3.865  1.2570  0.8600  1.1828
  104MOL0     H13695  -2.904   4.691   4.040 -1.7242  0.4618 -0.1949
  104MOL0     H13696  -3.029   4.465   4.026 -2.1676  1.3974  2.0664
  104MOL0     H13697  -3.025   4.475   3.849 -1.0167  0.0063  0.3447
  104MOL0     H13698  -3.138   4.694   3.864 -2.2550  0.7760  0.5868
  104MOL0     H13699  -3.141   4.656   4.045  1.4600  0.8484 -0.1105
  104MOL0     H13700  -3.270   4.483   3.837 -3.1701  0.3107  0.5773
  104MOL0     H13701  -3.285   4.467   4.015  2.8198  0.0173  0.3697
  104MOL0     H13702  -3.385   4.706   4.010 -0.4740  0.9346 -0.3907
  104MOL0     H13703  -3.488   4.572   3.966 -2.6455  3.5969 -2.9072
  104MOL0     H13704  -3.425   4.608   3.721 -0.6124 -0.2169 -0.1110
  104MOL0     H13705  -3.362   4.767   3.776  0.4555  0.2394  1.0803
  104MOL0     H13706  -3.650   4.665   3.843  0.2872 -0.8286 -0.3303
  104MOL0     H13707  -3.597   4.832   3.834  1.7184  0.8584  0.5213
  104MOL0     H13708  -3.614   4.646   3.593  1.9909  0.6995  0.1413
  104MOL0     H13709  -3.559   4.811   3.582  1.5922 -0.7417 -0.7061
  104MOL0     H13710  -2.634   4.603   3.720 -1.0951  0.3592  0.5820
  104MOL0     H13711  -2.408   4.708   3.733  0.1044 -0.5780  0.0551
  104MOL0     H13712  -2.081   4.859   3.811 -1.5067  2.8355  1.2699
  104MOL0     H13713  -1.879   4.987   3.806  0.2064  1.8877  1.3446
  104MOL0     H13714  -0.084   5.472   3.993  1.6335  0.6565  0.0305
  104MOL0     H13715   0.141   5.534   4.014  0.3037  0.1931 -1.1165
  104MOL0     H13716   0.466   5.767   4.176 -1.6856  0.1673 -1.5557
  104MOL0     H13717   0.690   5.826   4.226  2.5301 -1.5791 -2.0515
  104MOL0     H13718   0.926   6.096   3.929  1.8200  0.6778  0.4381
  104MOL0     H13719   1.024   6.094   4.067  0.2316 -2.3801 -0.2933
  104MOL0     H13720   0.910   6.310   4.047  1.0775 -1.5359  0.8907
  104MOL0     H13721   0.743   6.239   4.043 -0.0543 -2.3272 -0.4764
  104MOL0     H13722   0.855   6.334   4.263 -2.4422 -0.6123  0.4156
  104MOL0     H13723   0.926   6.174   4.280  1.7970  0.6160  0.0787
  104MOL0     H13724   0.639   6.137   4.226 -1.2957  1.0022  0.7371
  104MOL0     H13725   0.726   6.073   4.351  2.6587  0.6160  1.8514
  104MOL0     H13726   0.565   6.379   4.558 -0.2923  0.3627 -0.0002
  104MOL0     H13727   0.703   6.077   3.878 -0.5837  0.3577  0.6523
  104MOL0     H13728   0.483   6.012   3.814  0.6654  3.2695  1.6151
  105MOL0     O13729   2.290   5.087   6.882 -0.2580 -0.4397  0.3113
  105MOL0     C13730   2.240   5.009   6.796 -0.7517  0.3057 -0.0707
  105MOL0     O13731   2.314   4.941   6.700  0.2197 -0.7332  0.1927
  105MOL0     C13732   2.443   4.964   6.692 -0.2758  0.5025  0.0186
  105MOL0     C13733   2.532   4.857   6.713  0.6239 -0.7029  0.3188
  105MOL0     C13734   2.673   4.876   6.704 -0.8361 -0.4834 -0.5936
  105MOL0     C13735   2.725   4.998   6.660  0.1315 -0.0852  0.0772
  105MOL0     O13736   2.858   5.034   6.628 -0.0345 -0.4641 -0.0334
  105MOL0     C13737   2.954   4.927   6.657  0.0006  0.1288 -0.1515
  105MOL0     C13738   3.087   4.981   6.613  0.7886 -0.5852 -0.1752
  105MOL0     C13739   3.202   4.899   6.668  1.7745  0.4057  0.4386
  105MOL0     C13740   3.339   4.952   6.628  0.6506  0.1344  0.0050
  105MOL0     C13741   3.455   4.857   6.645 -1.1234 -0.2956 -0.6252
  105MOL0     C13742   3.593   4.925   6.656 -0.2142  0.6692  0.0248
  105MOL0     C13743   3.708   4.826   6.688 -0.4782 -0.3553 -0.7585
  105MOL0     C13744   3.703   4.758   6.831 -0.1751 -0.6875  0.0408
  105MOL0     N13745   3.709   4.843   6.947 -0.7678  0.3151  0.5060
  105MOL0     C13746   3.819   4.900   6.994 -1.0701 -0.4169  1.0782
  105MOL0     C13747   3.786   4.943   7.110 -0.6078 -1.1228 -0.1246
  105MOL0     C13748   3.881   5.005   7.209  0.6197  0.4323  0.1869
  105MOL0     C13749   3.824   5.116   7.296 -0.3810 -0.7654 -0.1554
  105MOL0     C13750   3.857   5.267   7.257  0.4332  0.4321 -0.0738
  105MOL0     C13751   3.746   5.344   7.172 -0.2676  0.4903  0.3390
  105MOL0     O13752   3.621   5.363   7.236  0.6022  1.2505  0.2359
  105MOL0     C13753   3.500   5.293   7.202 -0.0441 -0.5690 -0.9724
  105MOL0     C13754   3.391   5.332   7.276 -0.4076  0.5084 -0.2789
  105MOL0     C13755   3.276   5.254   7.261  0.5955 -0.5812  0.0229
  105MOL0     C13756   3.269   5.149   7.166  0.0294 -0.3029 -0.2367
  105MOL0     C13757   3.141   5.070   7.150 -1.2298 -1.0093 -0.4013
  105MOL0     O13758   3.033   5.119   7.214  0.3488 -0.6184  0.5682
  105MOL0     C13759   2.920   5.064   7.195  0.2914  0.1791 -0.1460
  105MOL0     C13760   2.858   5.045   7.072  0.7215 -1.0855  0.8673
  105MOL0     C13761   2.736   4.978   7.052 -0.9723 -0.6288 -0.3746
  105MOL0     C13762   2.671   4.919   7.164 -0.0352  0.2985  0.9718
  105MOL0     O13763   2.559   4.854   7.149 -0.5306 -0.3302  0.1644
  105MOL0     C13764   2.447   4.935   7.157 -0.4382 -0.0391 -0.7912
  105MOL0     C13765   2.329   4.844   7.179 -0.3977  0.0123  0.7197
  105MOL0     C13766   2.203   4.924   7.210  0.6987  0.2986 -0.8794
  105MOL0     C13767   2.076   4.843   7.203 -0.4025  0.2874  0.1684
  105MOL0     C13768   1.941   4.922   7.203  0.8771  0.4005  0.6572
  105MOL0     C13769   1.831   4.819   7.214  0.2965 -0.3385 -0.4000
  105MOL0     C13770   1.693   4.888   7.220  0.6882  0.6560 -0.0237
  105MOL0     C13771   1.599   4.808   7.121 -0.9283 -0.1740  0.0188
  105MOL0    Cl13772   1.428   4.877   7.143 -0.0248  0.0105 -0.0501
  105MOL0     C13773   2.732   4.923   7.289  0.2836 -1.8774  0.0693
  105MOL0     C13774   2.856   4.991   7.306  0.2216  0.5430  0.0776
  105MOL0     O13775   3.140   4.966   7.087 -0.2757 -0.1634  0.0003
  105MOL0     C13776   3.378   5.127   7.081 -0.4393 -0.0954  0.0757
  105MOL0     C13777   3.493   5.205   7.097  0.9982 -0.5277 -0.1145
  105MOL0     N13778   3.655   4.905   7.134  0.1826  1.0850  0.4052
  105MOL0     N13779   3.600   4.854   7.027 -0.2365 -0.3182 -0.6672
  105MOL0     C13780   2.639   5.102   6.642  0.3997  0.4506  0.0608
  105MOL0     C13781   2.502   5.085   6.657 -0.9986 -0.0953  0.5377
  105MOL0     C13782   2.095   4.994   6.786 -0.1458  0.4352  0.5766
  105MOL0     C13783   2.018   5.086   6.863 -0.4758  0.3340 -0.2419
  105MOL0     C13784   1.878   5.070   6.870 -0.4643  0.4468 -1.1864
  105MOL0     C13785   1.815   4.978   6.790  0.1330 -1.0434  0.4411
  105MOL0     O13786   1.681   4.959   6.781 -0.1345  0.2188 -0.5485
  105MOL0     C13787   1.593   5.063   6.824 -0.3785 -0.1607  0.4304
  105MOL0     C13788   1.515   5.125   6.707  0.5388 -0.7115 -0.2552
  105MOL0     C13789   1.614   5.221   6.636 -0.0622  0.6032  0.3087
  105MOL0     C13790   1.553   5.302   6.521 -0.7507  1.0090 -0.0223
  105MOL0     C13791   1.645   5.402   6.476 -0.6923  0.7296 -0.6171
  105MOL0     C13792   1.729   5.475   6.451 -0.0472  0.5308  0.4813
  105MOL0     C13793   1.892   4.891   6.715 -0.2092 -0.0772  0.5414
  105MOL0     C13794   2.028   4.892   6.708 -1.1012 -0.4463  0.3938
  105MOL0     H13795   2.499   4.754   6.716 -1.7050 -0.1226 -2.1169
  105MOL0     H13796   2.740   4.795   6.730  0.4896  1.1664  1.4292
  105MOL0     H13797   2.941   4.844   6.587 -1.6171  0.6994 -0.5805
  105MOL0     H13798   2.946   4.896   6.762 -0.1955 -0.4480 -0.3373
  105MOL0     H13799   3.102   5.082   6.651 -2.0162  0.2244 -0.9263
  105MOL0     H13800   3.091   4.982   6.503  1.0189  0.0961 -0.1595
  105MOL0     H13801   3.199   4.800   6.620  2.0204  1.2977 -1.5364
  105MOL0     H13802   3.195   4.889   6.776 -2.7974  3.2061  0.6816
  105MOL0     H13803   3.347   4.976   6.522  0.1812 -0.7994 -0.2556
  105MOL0     H13804   3.347   5.039   6.694  0.4927 -0.5417  0.9369
  105MOL0     H13805   3.456   4.785   6.562 -0.6822  0.1292 -0.9874
  105MOL0     H13806   3.432   4.801   6.736 -1.9135  1.3779  0.2547
  105MOL0     H13807   3.585   5.001   6.735 -0.9025 -0.0234  0.6449
  105MOL0     H13808   3.621   4.977   6.564 -2.8000 -0.8047 -1.7137
  105MOL0     H13809   3.702   4.749   6.611 -1.1192  0.2665 -1.3378
  105MOL0     H13810   3.811   4.859   6.672  0.2842 -2.3722 -0.3313
  105MOL0     H13811   3.785   4.685   6.837  1.1262  0.6888 -0.6217
  105MOL0     H13812   3.610   4.703   6.851 -0.3090  0.3526  2.6752
  105MOL0     H13813   3.916   4.906   6.945 -1.2211 -1.3735  0.6383
  105MOL0     H13814   3.969   5.037   7.152  0.2343  0.7893 -0.2209
  105MOL0     H13815   3.906   4.925   7.280 -0.0487 -0.7388 -0.8529
  105MOL0     H13816   3.878   5.112   7.392 -0.9179 -1.6778  0.1209
  105MOL0     H13817   3.719   5.102   7.321 -0.8156  1.5471 -0.5138
  105MOL0     H13818   3.863   5.311   7.357  2.6961  0.3362 -0.1293
  105MOL0     H13819   3.956   5.267   7.211 -0.2528  1.2750 -1.6028
  105MOL0     H13820   3.743   5.303   7.071  1.5975  0.4489  0.2605
  105MOL0     H13821   3.786   5.445   7.157  2.1862 -0.3033  1.0044
  105MOL0     H13822   3.392   5.407   7.354 -0.8025  1.1782 -0.9120
  105MOL0     H13823   3.201   5.271   7.337  1.1828  1.1048  0.2709
  105MOL0     H13824   2.910   5.086   6.986 -0.9508  1.3272  0.9188
  105MOL0     H13825   2.686   4.978   6.956 -0.4168 -0.0801 -0.6702
  105MOL0     H13826   2.441   4.993   7.065 -0.5509 -0.9706 -1.3789
  105MOL0     H13827   2.448   5.006   7.241  0.1989 -0.1387 -0.7099
  105MOL0     H13828   2.351   4.770   7.257  0.2150 -0.7721 -0.1690
  105MOL0     H13829   2.327   4.801   7.079 -1.6330  1.0602  0.2724
  105MOL0     H13830   2.199   5.010   7.142  4.6528  2.2594  1.0287
  105MOL0     H13831   2.201   4.971   7.309 -2.2001 -1.5454  0.0672
  105MOL0     H13832   2.079   4.783   7.112  2.5247  0.0664  0.3196
  105MOL0     H13833   2.069   4.778   7.291 -0.8259  3.3071  2.5521
  105MOL0     H13834   1.929   4.987   7.116 -0.4785  0.5304  0.9226
  105MOL0     H13835   1.954   4.981   7.295 -0.4376  1.3917  0.2347
  105MOL0     H13836   1.841   4.754   7.301 -0.8501  0.0480  0.0455
  105MOL0     H13837   1.851   4.755   7.128  1.5694 -0.5016  0.0016
  105MOL0     H13838   1.659   4.887   7.324  0.5600 -1.1512 -0.0610
  105MOL0     H13839   1.696   4.992   7.184  1.3608  1.2337  1.6478
  105MOL0     H13840   1.618   4.702   7.141  3.6043  0.2729 -0.8613
  105MOL0     H13841   1.624   4.819   7.015 -1.2956 -0.6487 -0.1192
  105MOL0     H13842   2.689   4.887   7.382 -0.9870 -0.0984  0.2090
  105MOL0     H13843   2.903   4.981   7.403 -2.0660 -3.7349  1.0348
  105MOL0     H13844   3.363   5.053   7.003 -3.6203  2.3055 -1.8006
  105MOL0     H13845   3.574   5.179   7.028  1.4784 -2.5444  1.1398
  105MOL0     H13846   2.670   5.203   6.619 -0.0669  0.4100 -0.7631
  105MOL0     H13847   2.444   5.174   6.637  0.9457  0.8604 -1.2475
  105MOL0     H13848   2.066   5.162   6.925  3.2373 -0.9857 -1.2170
  105MOL0     H13849   1.829   5.135   6.942 -1.6194  0.8499 -2.3198
  105MOL0     H13850   1.640   5.146   6.877  0.0780 -0.3702  0.3556
  105MOL0     H13851   1.508   5.019   6.877 -0.6138 -1.5931 -1.0706
  105MOL0     H13852   1.488   5.047   6.635 -0.1964 -2.1075  1.4416
  105MOL0     H13853   1.429   5.180   6.747  0.0377 -0.5805 -1.4805
  105MOL0     H13854   1.695   5.156   6.601 -0.8199 -0.1413 -0.0945
  105MOL0     H13855   1.643   5.292   6.714  0.6157  0.0115  0.6058
  105MOL0     H13856   1.517   5.236   6.442 -0.4027 -1.0360  1.4197
  105MOL0     H13857   1.473   5.356   6.572 -1.2218 -0.8123  1.2919
  105MOL0     H13858   1.815   5.538   6.444 -0.8158  1.5965  0.3709
  105MOL0     H13859   1.844   4.818   6.651  1.0295 -0.9645  0.5830
  105MOL0     H13860   2.082   4.812   6.658 -0.4066 -0.2926  0.8665
  106MOL0     O13861   5.445   2.586  10.250  0.8489  1.2954  0.5122
  106MOL0     C13862   5.472   2.473  10.201  0.0811  0.0645 -0.0746
  106MOL0     O13863   5.380   2.380  10.164  0.4481  0.0946  0.4671
  106MOL0     C13864   5.244   2.391  10.162 -0.0142  0.0056 -0.2338
  106MOL0     C13865   5.172   2.482  10.239 -0.8709  0.5287  0.4071
  106MOL0     C13866   5.038   2.470  10.247 -0.2776  0.2729 -1.0295
  106MOL0     C13867   4.967   2.379  10.174 -0.0554 -0.1353 -0.2025
  106MOL0     O13868   4.831   2.374  10.189  0.1194  0.3388 -0.0649
  106MOL0     C13869   4.759   2.490  10.234  0.5045  0.0446  0.0425
  106MOL0     C13870   4.730   2.483  10.389 -0.2499 -0.5736  0.7390
  106MOL0     C13871   4.652   2.359  10.434  0.6721 -0.5230 -0.2355
  106MOL0     C13872   4.643   2.360  10.588 -0.1426 -0.3807  0.1991
  106MOL0     C13873   4.624   2.214  10.638  0.5966  0.3245  0.3726
  106MOL0     C13874   4.508   2.137  10.570 -0.7399 -0.1883 -0.4308
  106MOL0     C13875   4.469   2.016  10.655 -1.0722 -0.0265 -0.2349
  106MOL0     C13876   4.328   1.953  10.617 -0.2411 -1.0721 -0.2054
  106MOL0     N13877   4.267   1.870  10.720 -0.6577  0.1648  0.5249
  106MOL0     C13878   4.283   1.882  10.856  0.7171  0.5523  0.7350
  106MOL0     C13879   4.209   1.776  10.898  0.3400  0.3029 -0.2004
  106MOL0     C13880   4.175   1.744  11.042 -0.6431  0.3037  1.4913
  106MOL0     C13881   4.072   1.629  11.055  0.3674  0.4901  0.1015
  106MOL0     C13882   3.923   1.682  11.037 -0.2328  0.0643 -0.0275
  106MOL0     C13883   3.817   1.574  11.044  0.0196  0.1941  0.3784
  106MOL0     O13884   3.830   1.471  10.943 -0.1758 -0.1870  0.2204
  106MOL0     C13885   3.722   1.374  10.927  0.1982 -0.0018 -0.4157
  106MOL0     C13886   3.627   1.339  11.020  0.4194 -0.6199 -0.4033
  106MOL0     C13887   3.535   1.236  11.001 -0.4470 -0.2042 -0.2759
  106MOL0     C13888   3.535   1.169  10.879  0.1913  0.8084  0.0718
  106MOL0     C13889   3.439   1.042  10.857 -0.3567 -0.2217 -0.1657
  106MOL0     O13890   3.467   0.967  10.746  0.4664  0.8889 -0.2957
  106MOL0     C13891   3.385   0.868  10.717 -0.4216  0.3434  0.0153
  106MOL0     C13892   3.270   0.892  10.643  0.1834  0.2256 -0.1557
  106MOL0     C13893   3.178   0.789  10.620 -0.5313  0.3274 -0.9924
  106MOL0     C13894   3.203   0.657  10.672 -0.6397 -0.5113  0.1842
  106MOL0     O13895   3.127   0.553  10.655  0.8225 -0.9887  0.7989
  106MOL0     C13896   2.987   0.576  10.614  0.2892  0.4785  0.0671
  106MOL0     C13897   2.922   0.443  10.581  0.2770  0.2033  0.3067
  106MOL0     C13898   2.784   0.460  10.533 -0.5490  0.7588 -0.4971
  106MOL0     C13899   2.717   0.328  10.484  0.2118  0.1189 -0.3525
  106MOL0     C13900   2.591   0.374  10.398  0.1120  0.0877 -0.2644
  106MOL0     C13901   2.489   0.261  10.368  0.5428 -0.2240  0.8717
  106MOL0     C13902   2.553   0.154  10.292  0.0924  0.3236 -0.9048
  106MOL0     C13903   2.452   0.040  10.280  0.8839 -0.4429  1.4481
  106MOL0    Cl13904   2.304   0.064  10.163 -0.2391 -0.1101 -0.0919
  106MOL0     C13905   3.320   0.632  10.738  0.8068 -0.4931 -0.0133
  106MOL0     C13906   3.404   0.742  10.769 -0.5402  0.3338  0.2939
  106MOL0     O13907   3.360   1.018  10.948 -0.3198 -0.3299  0.1689
  106MOL0     C13908   3.624   1.210  10.774 -0.6656  0.0818  0.4885
  106MOL0     C13909   3.725   1.309  10.804  0.0693  0.2038 -0.2517
  106MOL0     N13910   4.151   1.711  10.788  0.5064 -0.2785  0.2488
  106MOL0     N13911   4.178   1.775  10.687  0.2166 -0.0713  0.6716
  106MOL0     C13912   5.042   2.291  10.093  0.7881  0.2740  0.2453
  106MOL0     C13913   5.174   2.290  10.091 -0.3683 -0.8172 -0.7302
  106MOL0     C13914   5.620   2.443  10.190  0.5405 -0.5618  0.1056
  106MOL0     C13915   5.717   2.534  10.233 -0.2557  0.5591 -0.2718
  106MOL0     C13916   5.858   2.518  10.218 -0.4124 -0.1649  0.3082
  106MOL0     C13917   5.902   2.408  10.150 -0.0743  0.6283  0.1650
  106MOL0     O13918   6.035   2.375  10.121  0.3882  0.5978 -0.8520
  106MOL0     C13919   6.140   2.462  10.167 -0.5750 -1.2042  0.1700
  106MOL0     C13920   6.266   2.408  10.106 -0.5334  0.2103  0.1143
  106MOL0     C13921   6.314   2.470   9.977 -0.6900  0.0048  0.9408
  106MOL0     C13922   6.360   2.613   9.999 -1.2837 -0.3045 -0.5522
  106MOL0     C13923   6.491   2.620  10.067 -0.3653  0.0262 -0.0191
  106MOL0     C13924   6.586   2.629  10.144 -0.2819  0.2388  0.3958
  106MOL0     C13925   5.807   2.313  10.109  0.3738 -0.1701  0.0155
  106MOL0     C13926   5.668   2.328  10.130 -0.0145  0.9710 -0.0265
  106MOL0     H13927   5.221   2.562  10.295 -1.1591  1.0068 -0.0139
  106MOL0     H13928   4.989   2.535  10.319  3.7668  3.2455 -0.5913
  106MOL0     H13929   4.657   2.470  10.200  0.3084 -1.4315  1.3955
  106MOL0     H13930   4.807   2.577  10.188  0.9921 -0.7268 -0.9650
  106MOL0     H13931   4.665   2.569  10.403 -1.4091 -1.0178 -1.4403
  106MOL0     H13932   4.819   2.491  10.453  0.0226  1.2860  0.1794
  106MOL0     H13933   4.711   2.279  10.389  1.4811 -0.0657 -0.0146
  106MOL0     H13934   4.552   2.360  10.390  0.8277 -3.3191 -0.8443
  106MOL0     H13935   4.714   2.415  10.650  0.5984  1.1484 -1.9110
  106MOL0     H13936   4.556   2.418  10.622  0.3839  0.8481 -0.5101
  106MOL0     H13937   4.592   2.214  10.743 -1.2966 -0.5490 -0.1718
  106MOL0     H13938   4.721   2.163  10.646 -0.2174 -1.0929  1.8418
  106MOL0     H13939   4.536   2.091  10.475 -2.0474 -0.0453 -0.9046
  106MOL0     H13940   4.423   2.203  10.551  0.1316  1.7584  1.8894
  106MOL0     H13941   4.548   1.944  10.632  0.3930  1.5465 -0.3221
  106MOL0     H13942   4.485   2.032  10.762 -0.2782 -1.3122 -0.1452
  106MOL0     H13943   4.337   1.908  10.518 -1.6518 -1.1363 -0.3114
  106MOL0     H13944   4.256   2.031  10.594  0.7164 -0.2979 -0.6597
  106MOL0     H13945   4.351   1.946  10.912  1.0827  0.4069  0.4546
  106MOL0     H13946   4.142   1.833  11.098 -0.5665  0.5010  1.2274
  106MOL0     H13947   4.275   1.713  11.076 -0.2463 -1.3586 -0.9896
  106MOL0     H13948   4.087   1.578  11.151  2.7039 -0.0376 -0.4811
  106MOL0     H13949   4.092   1.555  10.977  1.6375 -0.8989  1.6447
  106MOL0     H13950   3.892   1.762  11.104  2.4686  1.2644 -0.1071
  106MOL0     H13951   3.911   1.733  10.941 -1.3430 -0.1595 -0.0253
  106MOL0     H13952   3.717   1.616  11.037 -0.7188 -1.4548  0.4887
  106MOL0     H13953   3.811   1.524  11.141  1.1913 -0.5640  0.0869
  106MOL0     H13954   3.609   1.392  11.113 -2.1934 -0.2743 -1.0444
  106MOL0     H13955   3.465   1.205  11.077 -0.3694  0.9146  0.2705
  106MOL0     H13956   3.256   0.995  10.611  2.4290  1.0578  1.2765
  106MOL0     H13957   3.096   0.822  10.557  0.0576 -0.1613 -2.0426
  106MOL0     H13958   2.976   0.641  10.527  0.2024 -0.6916 -0.8165
  106MOL0     H13959   2.938   0.623  10.700  1.5175  3.5777 -0.7898
  106MOL0     H13960   2.921   0.385  10.674 -0.8300 -1.2361 -0.5583
  106MOL0     H13961   2.981   0.391  10.505  2.4601  2.5418  0.2802
  106MOL0     H13962   2.784   0.511  10.436 -2.2096  1.4272 -0.1844
  106MOL0     H13963   2.722   0.520  10.601 -0.6809  1.6983 -1.4222
  106MOL0     H13964   2.786   0.260  10.434 -2.9148 -5.6734  2.1875
  106MOL0     H13965   2.683   0.270  10.571  2.1556  0.9656  1.0620
  106MOL0     H13966   2.618   0.433  10.310 -2.1328  1.4173 -0.1455
  106MOL0     H13967   2.530   0.437  10.463 -0.6039 -1.0934  0.2441
  106MOL0     H13968   2.407   0.302  10.308  0.3202 -0.7859  0.7872
  106MOL0     H13969   2.452   0.219  10.461  0.8384 -1.4076  0.4760
  106MOL0     H13970   2.591   0.191  10.196 -0.3917  0.7560 -0.9325
  106MOL0     H13971   2.635   0.118  10.355  0.7982  2.0800 -0.7716
  106MOL0     H13972   2.409   0.011  10.376 -0.9586 -0.1996  0.7341
  106MOL0     H13973   2.523  -0.032  10.239  1.6244  1.1162 -0.1741
  106MOL0     H13974   3.353   0.530  10.751  0.3315 -0.4512  1.7122
  106MOL0     H13975   3.494   0.724  10.826 -0.6134  2.7713  1.3214
  106MOL0     H13976   3.626   1.156  10.680  2.6355  3.1952 -1.4616
  106MOL0     H13977   3.802   1.343  10.736  0.3466 -0.3359 -0.2134
  106MOL0     H13978   4.989   2.206  10.052 -2.0519  2.0944 -0.1496
  106MOL0     H13979   5.244   2.226  10.037  1.4163  0.8535 -0.4637
  106MOL0     H13980   5.686   2.618  10.295  1.1234  0.3557  0.7362
  106MOL0     H13981   5.922   2.589  10.268 -0.3867  0.7013 -0.9149
  106MOL0     H13982   6.147   2.473  10.276  0.2920  4.6573 -0.1491
  106MOL0     H13983   6.124   2.567  10.138  0.1911 -1.5749 -1.7538
  106MOL0     H13984   6.339   2.419  10.187 -1.0577  1.4716  0.4460
  106MOL0     H13985   6.248   2.303  10.082 -0.4116  0.2226 -0.0330
  106MOL0     H13986   6.226   2.476   9.913  0.4479  0.2036 -0.6686
  106MOL0     H13987   6.393   2.415   9.924 -1.2215  0.4404 -0.3466
  106MOL0     H13988   6.370   2.664   9.903  1.0466 -0.5807 -0.5104
  106MOL0     H13989   6.284   2.673  10.049  2.2199  2.8967  1.3691
  106MOL0     H13990   6.665   2.609  10.214  0.5879 -0.0010 -0.6373
  106MOL0     H13991   5.837   2.232  10.044  1.5985  0.2880 -0.0193
  106MOL0     H13992   5.594   2.257  10.094 -0.2878  1.8158 -1.1893
  107MOL0     O13993   6.193   3.073   5.023 -0.1529  0.1777  0.2299
  107MOL0     C13994   6.231   3.032   4.911  0.6941  0.0841 -0.4845
  107MOL0     O13995   6.254   2.903   4.873 -0.5404 -0.0746 -0.5716
  107MOL0     C13996   6.291   2.811   4.968  0.4901 -0.0742  0.7148
  107MOL0     C13997   6.238   2.681   4.951 -0.6123  0.2131  0.3132
  107MOL0     C13998   6.274   2.580   5.040  0.1545  0.5885  0.1424
  107MOL0     C13999   6.372   2.592   5.147  0.5870  0.0053  0.1931
  107MOL0     O14000   6.401   2.492   5.240  0.1276 -0.1069  0.5406
  107MOL0     C14001   6.336   2.365   5.215 -0.4883 -0.9023 -0.0516
  107MOL0     C14002   6.385   2.295   5.333  0.1327  0.4718  0.3247
  107MOL0     C14003   6.331   2.150   5.323  0.2643 -0.4319  0.4694
  107MOL0     C14004   6.189   2.144   5.366 -1.1637  1.6277 -0.3929
  107MOL0     C14005   6.158   1.985   5.389  0.8985 -0.7221 -0.2072
  107MOL0     C14006   6.012   1.963   5.450 -0.2893 -0.1347  0.0592
  107MOL0     C14007   5.960   1.814   5.439  0.1962  0.1822  0.5595
  107MOL0     C14008   5.914   1.786   5.290  0.6555 -0.3349 -0.3412
  107MOL0     N14009   5.886   1.653   5.266  0.3971 -0.8721  0.0624
  107MOL0     C14010   5.765   1.601   5.308 -0.1719  0.2947 -0.4982
  107MOL0     C14011   5.767   1.475   5.248  0.5924 -0.3752  0.5543
  107MOL0     C14012   5.658   1.374   5.269 -0.4910  0.5575  0.6312
  107MOL0     C14013   5.536   1.386   5.173 -0.1890 -0.1753  0.1873
  107MOL0     C14014   5.560   1.339   5.034 -0.5086  0.1988  0.2023
  107MOL0     C14015   5.440   1.358   4.950  0.1409 -0.7544 -0.5538
  107MOL0     O14016   5.386   1.490   4.964  0.8676  0.1245 -0.1110
  107MOL0     C14017   5.292   1.524   4.868  0.2315 -0.7546  0.1987
  107MOL0     C14018   5.316   1.528   4.725  0.0790 -0.3729 -0.3378
  107MOL0     C14019   5.208   1.565   4.636  0.7773 -0.8437  0.2263
  107MOL0     C14020   5.075   1.580   4.685 -0.1970  0.4166 -0.1530
  107MOL0     C14021   4.958   1.608   4.595 -0.3345  0.4689 -0.2058
  107MOL0     O14022   4.835   1.599   4.657  0.0374 -0.3831 -0.5827
  107MOL0     C14023   4.715   1.617   4.589  0.4528  0.3220  0.5704
  107MOL0     C14024   4.591   1.576   4.654  0.0803  0.6433  0.2945
  107MOL0     C14025   4.472   1.593   4.581  0.2579 -0.4678  0.1548
  107MOL0     C14026   4.470   1.632   4.449  0.2695 -0.1225 -0.1146
  107MOL0     O14027   4.353   1.646   4.378 -0.2922  0.3248 -0.4114
  107MOL0     C14028   4.264   1.535   4.381  0.3937  0.4695  0.1789
  107MOL0     C14029   4.119   1.586   4.422  0.4696 -0.6672 -0.4790
  107MOL0     C14030   4.019   1.480   4.416 -0.4705  0.3416 -0.7176
  107MOL0     C14031   3.871   1.523   4.422 -0.5585  0.6509  0.4582
  107MOL0     C14032   3.765   1.415   4.423  1.1915  0.0264 -0.5663
  107MOL0     C14033   3.622   1.465   4.432 -0.6037  0.3844 -0.1224
  107MOL0     C14034   3.541   1.446   4.303 -0.2999 -0.5715  1.0867
  107MOL0     C14035   3.389   1.422   4.318 -0.5798  0.1130 -0.5413
  107MOL0    Cl14036   3.377   1.253   4.370 -0.2052  0.1159 -0.1573
  107MOL0     C14037   4.586   1.671   4.379  0.2440  0.3295  0.1634
  107MOL0     C14038   4.707   1.674   4.458  0.6231 -0.5927 -0.4063
  107MOL0     O14039   4.983   1.617   4.475  0.9559 -0.2778 -0.0059
  107MOL0     C14040   5.056   1.576   4.824  0.7714  0.5617  0.7968
  107MOL0     C14041   5.157   1.547   4.907 -0.4705  0.0715  0.1002
  107MOL0     N14042   5.878   1.460   5.172  0.0855  0.1049  0.2090
  107MOL0     N14043   5.954   1.565   5.190 -0.3682 -0.5312 -0.3733
  107MOL0     C14044   6.422   2.720   5.159 -0.3786  0.5635 -0.1132
  107MOL0     C14045   6.388   2.823   5.063  0.8806  0.0885 -1.1475
  107MOL0     C14046   6.240   3.145   4.808 -0.0107  0.2964  0.3815
  107MOL0     C14047   6.359   3.178   4.752 -1.3116  0.7792 -0.0021
  107MOL0     C14048   6.365   3.268   4.647 -0.4940 -0.3011 -0.8670
  107MOL0     C14049   6.257   3.327   4.595  0.0796 -0.6567  0.5545
  107MOL0     O14050   6.279   3.409   4.484  0.4843 -0.2346 -0.0481
  107MOL0     C14051   6.161   3.455   4.416 -0.3187  0.0663  0.0295
  107MOL0     C14052   6.218   3.512   4.292 -0.1780  0.5030  0.2543
  107MOL0     C14053   6.299   3.646   4.313 -0.3486  0.2339 -0.4220
  107MOL0     C14054   6.426   3.658   4.217  0.5678 -0.0671 -0.1810
  107MOL0     C14055   6.386   3.707   4.081  0.6843  0.0266 -0.3334
  107MOL0     C14056   6.332   3.730   3.973  0.0267 -0.0063  0.0446
  107MOL0     C14057   6.132   3.310   4.658  0.5574 -0.6311 -0.5716
  107MOL0     C14058   6.125   3.217   4.762 -0.4860 -0.2093 -0.4822
  107MOL0     H14059   6.174   2.655   4.867 -1.0128 -0.6746  0.8695
  107MOL0     H14060   6.222   2.485   5.024 -0.9745  1.6667 -3.6102
  107MOL0     H14061   6.357   2.317   5.119 -2.6229  0.9886 -1.5852
  107MOL0     H14062   6.227   2.371   5.219 -0.9119 -5.5623  0.1990
  107MOL0     H14063   6.349   2.347   5.422 -1.6460 -1.8204  1.0182
  107MOL0     H14064   6.493   2.282   5.344  0.1444  1.8213  2.3331
  107MOL0     H14065   6.395   2.089   5.387  0.8039  1.5738  1.9490
  107MOL0     H14066   6.330   2.112   5.220 -2.4421 -1.0425  0.6435
  107MOL0     H14067   6.170   2.202   5.457 -0.8468 -0.2994  0.9555
  107MOL0     H14068   6.132   2.182   5.282  2.7818  2.3152 -3.0180
  107MOL0     H14069   6.236   1.948   5.456  0.6831  0.8034  0.9158
  107MOL0     H14070   6.172   1.943   5.289  0.4078  1.0954 -1.0808
  107MOL0     H14071   5.952   2.029   5.387  1.8536  1.7127 -0.1858
  107MOL0     H14072   6.007   1.997   5.554  3.3184  1.8622 -0.2543
  107MOL0     H14073   6.038   1.742   5.465  0.0046  0.0129  0.6697
  107MOL0     H14074   5.870   1.803   5.501  0.4250  1.6627  1.2036
  107MOL0     H14075   5.993   1.819   5.222  1.1231  1.6310  1.0724
  107MOL0     H14076   5.818   1.835   5.271  0.8768  0.6643  1.0204
  107MOL0     H14077   5.695   1.641   5.381  2.7384  0.3864  2.4553
  107MOL0     H14078   5.621   1.385   5.371  1.7091  1.4232  1.3931
  107MOL0     H14079   5.716   1.282   5.260 -1.2376 -0.0278  1.6380
  107MOL0     H14080   5.508   1.491   5.179  1.1380  0.2575 -0.9237
  107MOL0     H14081   5.443   1.336   5.202 -0.0527 -1.3408 -1.2688
  107MOL0     H14082   5.643   1.394   4.987 -1.3082  1.7475  0.5218
  107MOL0     H14083   5.588   1.234   5.038  0.4145  0.2302 -2.9568
  107MOL0     H14084   5.363   1.288   4.984 -0.3311  0.8483  1.9946
  107MOL0     H14085   5.465   1.335   4.846 -1.8145 -1.4407 -0.9059
  107MOL0     H14086   5.418   1.509   4.693  0.1880 -1.7322  0.7172
  107MOL0     H14087   5.218   1.580   4.529  1.7981  4.1930  0.7737
  107MOL0     H14088   4.588   1.545   4.758  1.7378  1.6660  0.6894
  107MOL0     H14089   4.372   1.577   4.621 -0.2011  0.2092 -0.6991
  107MOL0     H14090   4.296   1.453   4.445  0.9563  0.4239 -0.1571
  107MOL0     H14091   4.263   1.503   4.276  1.7626  4.0027 -1.0864
  107MOL0     H14092   4.080   1.664   4.356 -0.7138 -0.2455  0.6930
  107MOL0     H14093   4.120   1.628   4.523 -3.5840 -0.7484 -0.2341
  107MOL0     H14094   4.043   1.407   4.494 -0.5574  1.0051 -0.0488
  107MOL0     H14095   4.030   1.430   4.320 -2.4585 -2.9062  0.5483
  107MOL0     H14096   3.842   1.582   4.509 -1.5408  1.5746 -0.4668
  107MOL0     H14097   3.870   1.572   4.325  0.5399  3.1785  1.6352
  107MOL0     H14098   3.780   1.351   4.511 -0.5436  1.3238  0.7448
  107MOL0     H14099   3.765   1.343   4.341 -3.0314 -2.7243  1.4767
  107MOL0     H14100   3.629   1.573   4.444  0.9159  0.2231  0.6749
  107MOL0     H14101   3.574   1.416   4.517  0.2212  2.6324  1.7146
  107MOL0     H14102   3.558   1.537   4.245  5.1349 -2.5730 -1.1433
  107MOL0     H14103   3.583   1.366   4.241 -2.7221 -0.7806 -0.3754
  107MOL0     H14104   3.333   1.441   4.226 -1.2031 -1.1897 -0.4504
  107MOL0     H14105   3.351   1.482   4.401  1.1772 -1.2474  1.3747
  107MOL0     H14106   4.600   1.695   4.274  1.7917 -2.4336 -0.3675
  107MOL0     H14107   4.788   1.733   4.418  0.0084 -0.3778 -1.3783
  107MOL0     H14108   4.960   1.596   4.869 -0.3063 -0.6916 -0.8116
  107MOL0     H14109   5.146   1.544   5.015 -0.0051  0.5640  0.1688
  107MOL0     H14110   6.503   2.735   5.230 -0.3214 -0.2642  0.0108
  107MOL0     H14111   6.445   2.915   5.073 -1.4825  1.5195 -0.0323
  107MOL0     H14112   6.442   3.124   4.796 -3.5028  0.2696  4.0650
  107MOL0     H14113   6.461   3.275   4.596 -0.6627 -0.4545 -1.2090
  107MOL0     H14114   6.115   3.534   4.476 -0.8317 -1.2691  1.4734
  107MOL0     H14115   6.093   3.370   4.403  0.6748 -1.1282  2.0473
  107MOL0     H14116   6.288   3.438   4.253 -1.1490 -0.4238  0.2064
  107MOL0     H14117   6.137   3.523   4.220 -1.3365  0.5915  1.5214
  107MOL0     H14118   6.337   3.649   4.416  0.7743 -1.5354 -0.7203
  107MOL0     H14119   6.235   3.734   4.315  1.1225  1.3336  1.1930
  107MOL0     H14120   6.502   3.720   4.266  0.1202  0.8886 -0.6695
  107MOL0     H14121   6.465   3.559   4.195  0.0585  0.2078 -2.5972
  107MOL0     H14122   6.301   3.759   3.875  0.0835  1.1065  0.3465
  107MOL0     H14123   6.040   3.360   4.631 -0.9273 -2.1253  1.4114
  107MOL0     H14124   6.030   3.194   4.810 -0.9029  1.0786 -0.6671
  108MOL0     O14125  10.524   1.792   5.143  0.2138  0.3823 -0.6908
  108MOL0     C14126  10.567   1.705   5.068  0.3837  0.5646  0.4005
  108MOL0     O14127  10.502   1.646   4.961  0.1240  0.3647 -0.4563
  108MOL0     C14128  10.382   1.691   4.926  0.3511  0.3262  0.4615
  108MOL0     C14129  10.363   1.796   4.839  0.1470  0.5265  0.3173
  108MOL0     C14130  10.235   1.832   4.809  0.8187  0.0281  0.7619
  108MOL0     C14131  10.122   1.768   4.874  0.7388  0.4026  0.6133
  108MOL0     O14132   9.993   1.816   4.866  0.3450  0.6959  0.9169
  108MOL0     C14133   9.901   1.725   4.797 -0.2833 -0.7121  0.3862
  108MOL0     C14134   9.789   1.806   4.748 -0.4413 -0.2094  0.4451
  108MOL0     C14135   9.682   1.811   4.853 -0.2078 -0.5045  0.0096
  108MOL0     C14136   9.598   1.688   4.861 -0.1204  0.7177 -0.0114
  108MOL0     C14137   9.487   1.704   4.962  0.4428 -0.0021 -0.4570
  108MOL0     C14138   9.400   1.581   4.959 -0.1254  0.4733  0.3940
  108MOL0     C14139   9.270   1.578   5.043 -0.6202 -0.1320  1.2082
  108MOL0     C14140   9.166   1.688   5.029  0.4812 -0.1669  1.1055
  108MOL0     N14141   9.032   1.650   5.074  0.7352 -0.1375  0.7279
  108MOL0     C14142   8.987   1.663   5.205 -0.0901 -0.5593 -1.2619
  108MOL0     C14143   8.854   1.637   5.209 -0.9100  0.5963  0.5884
  108MOL0     C14144   8.770   1.646   5.329  0.2162  0.1454  0.9490
  108MOL0     C14145   8.789   1.538   5.431  0.0783 -0.4155  0.1075
  108MOL0     C14146   8.714   1.575   5.558  0.1291 -0.7809 -0.5670
  108MOL0     C14147   8.569   1.519   5.574  0.0830  0.1446 -0.1425
  108MOL0     O14148   8.495   1.578   5.473 -0.0144 -1.0115 -0.8329
  108MOL0     C14149   8.361   1.548   5.462 -0.4598 -0.1489  0.3604
  108MOL0     C14150   8.282   1.644   5.405  0.2990  0.7998  0.6293
  108MOL0     C14151   8.147   1.649   5.393  0.2821 -0.0970 -0.1329
  108MOL0     C14152   8.074   1.536   5.427  0.3399 -0.0538 -0.0547
  108MOL0     C14153   7.930   1.527   5.404  0.0996  0.3717 -0.1998
  108MOL0     O14154   7.871   1.405   5.390 -0.1613 -0.3879 -1.1915
  108MOL0     C14155   7.735   1.398   5.379  0.2134 -0.7909 -0.0295
  108MOL0     C14156   7.660   1.471   5.278 -0.1960  0.1333  0.3595
  108MOL0     C14157   7.527   1.445   5.253  0.6184  0.2154  0.4761
  108MOL0     C14158   7.456   1.359   5.332 -0.1611 -0.8675 -0.4160
  108MOL0     O14159   7.326   1.341   5.314  0.0002 -0.0495  0.2863
  108MOL0     C14160   7.247   1.461   5.300  0.2553  0.6853  0.4076
  108MOL0     C14161   7.112   1.407   5.244  0.0588 -0.4676  0.9468
  108MOL0     C14162   7.019   1.519   5.179 -0.5297  0.6044 -0.7565
  108MOL0     C14163   6.920   1.568   5.287 -0.5366  0.4851 -0.0000
  108MOL0     C14164   6.815   1.468   5.304 -0.2710  0.0767  0.0743
  108MOL0     C14165   6.694   1.528   5.359 -0.2786 -0.1575 -0.5570
  108MOL0     C14166   6.593   1.421   5.386  0.8908  0.4295  0.1454
  108MOL0     C14167   6.462   1.482   5.440 -0.1227  0.2519 -0.2901
  108MOL0    Cl14168   6.369   1.358   5.537 -0.4867 -0.0271  0.7552
  108MOL0     C14169   7.518   1.296   5.432  0.8256 -0.2171 -0.4479
  108MOL0     C14170   7.655   1.314   5.456 -0.2487 -0.1210 -0.0807
  108MOL0     O14171   7.874   1.635   5.416  0.3195 -0.1213  0.0441
  108MOL0     C14172   8.150   1.421   5.480  0.3869 -0.4115 -0.1207
  108MOL0     C14173   8.288   1.434   5.501  0.1809  0.4204  0.0203
  108MOL0     N14174   8.815   1.608   5.078 -0.1002 -0.1370 -0.2594
  108MOL0     N14175   8.919   1.609   5.002 -0.0097 -0.2394 -0.9031
  108MOL0     C14176  10.141   1.661   4.958 -0.7725 -0.4350  0.4767
  108MOL0     C14177  10.272   1.622   4.992  0.0705  0.3861 -0.2527
  108MOL0     C14178  10.707   1.649   5.090  0.5242 -1.1093  0.2285
  108MOL0     C14179  10.765   1.550   5.010  0.2024 -0.4108 -0.3651
  108MOL0     C14180  10.903   1.519   5.018  0.4029  0.5474 -0.7550
  108MOL0     C14181  10.985   1.591   5.105 -0.4069 -0.3009 -0.8008
  108MOL0     O14182  11.123   1.579   5.112 -0.3483 -0.2456 -0.4939
  108MOL0     C14183  11.194   1.460   5.073  0.6145  0.0469  0.2735
  108MOL0     C14184  11.305   1.449   5.177  0.6939  0.3761 -0.3700
  108MOL0     C14185  11.399   1.570   5.170  0.0302 -0.3220 -0.4800
  108MOL0     C14186  11.498   1.563   5.288  0.7084  0.1940  0.0017
  108MOL0     C14187  11.567   1.434   5.291  0.4697 -0.1692 -0.6702
  108MOL0     C14188  11.627   1.334   5.300 -0.7316  0.1667 -0.1809
  108MOL0     C14189  10.929   1.681   5.193  0.0959 -0.2244  0.0732
  108MOL0     C14190  10.790   1.717   5.179 -0.1666  0.4593 -0.4819
  108MOL0     H14191  10.449   1.846   4.795 -0.5124  2.1025  0.7437
  108MOL0     H14192  10.217   1.908   4.734  0.8015 -0.2377  0.4913
  108MOL0     H14193   9.865   1.646   4.863 -1.8827 -0.1202  0.2553
  108MOL0     H14194   9.946   1.673   4.712  0.9422  0.3420  0.3594
  108MOL0     H14195   9.738   1.778   4.656 -0.1591  2.3238 -0.5589
  108MOL0     H14196   9.829   1.906   4.729 -2.2361  0.6849  1.1207
  108MOL0     H14197   9.607   1.885   4.821 -0.4139 -1.5222 -1.9859
  108MOL0     H14198   9.725   1.836   4.950 -1.4342 -1.2248  0.7741
  108MOL0     H14199   9.560   1.671   4.760 -2.5054  2.0907  0.6001
  108MOL0     H14200   9.664   1.602   4.881 -0.6299  0.3860  0.2476
  108MOL0     H14201   9.426   1.792   4.940 -0.3158 -0.4034 -0.0272
  108MOL0     H14202   9.523   1.714   5.065  0.7019 -0.6097 -0.4893
  108MOL0     H14203   9.458   1.496   4.996  0.1675  1.2390  1.7662
  108MOL0     H14204   9.373   1.558   4.855 -0.6732  0.4337  0.5430
  108MOL0     H14205   9.221   1.482   5.023  0.1577 -1.0851  3.4996
  108MOL0     H14206   9.307   1.571   5.146  2.0511 -0.9822  0.2890
  108MOL0     H14207   9.168   1.704   4.921  2.7896  0.9916  1.2485
  108MOL0     H14208   9.200   1.780   5.079 -0.4057  0.0298  1.3725
  108MOL0     H14209   9.047   1.687   5.292 -1.1795  0.1169 -0.6698
  108MOL0     H14210   8.665   1.665   5.303  0.3834  1.9015  1.3767
  108MOL0     H14211   8.797   1.737   5.384  1.2257 -0.3242  1.2567
  108MOL0     H14212   8.895   1.535   5.459  1.1977  0.1335 -3.5049
  108MOL0     H14213   8.753   1.441   5.397 -0.7842  0.5394 -1.8531
  108MOL0     H14214   8.765   1.532   5.645  0.9719  0.1396 -0.5901
  108MOL0     H14215   8.705   1.682   5.580  0.6748 -0.9429  0.5293
  108MOL0     H14216   8.532   1.538   5.675  0.5853 -3.1207  0.7503
  108MOL0     H14217   8.576   1.410   5.564 -0.5198  0.0601  0.3117
  108MOL0     H14218   8.326   1.733   5.361  0.5351  0.8996  1.0596
  108MOL0     H14219   8.098   1.730   5.339 -1.3280 -0.1440  1.1699
  108MOL0     H14220   7.709   1.540   5.210 -1.9182  0.8865 -0.1681
  108MOL0     H14221   7.494   1.494   5.162  2.6941 -2.0664 -1.6758
  108MOL0     H14222   7.295   1.533   5.232  0.2836  0.2377 -0.0536
  108MOL0     H14223   7.234   1.507   5.398 -0.4266  0.0778  0.6084
  108MOL0     H14224   7.063   1.356   5.328 -3.2591  0.2922 -0.3964
  108MOL0     H14225   7.135   1.328   5.172  0.3037  2.3082 -2.2208
  108MOL0     H14226   6.968   1.479   5.091 -0.1459 -1.8755  0.0686
  108MOL0     H14227   7.083   1.599   5.139  3.4170 -1.2250  1.3593
  108MOL0     H14228   6.985   1.603   5.367 -1.9186  4.1767 -0.2870
  108MOL0     H14229   6.872   1.658   5.246 -1.1745  1.0521  1.9034
  108MOL0     H14230   6.855   1.394   5.374 -0.1480 -0.0584 -0.1362
  108MOL0     H14231   6.771   1.429   5.212 -3.0543  2.5871  0.2121
  108MOL0     H14232   6.654   1.607   5.295  0.4835 -0.8998 -1.9831
  108MOL0     H14233   6.716   1.579   5.454 -3.2285  1.9644 -0.8621
  108MOL0     H14234   6.576   1.372   5.289  2.9283  0.9215 -0.5118
  108MOL0     H14235   6.623   1.348   5.461  0.0290  0.4210  0.4927
  108MOL0     H14236   6.423   1.537   5.354  1.8914  1.5490 -0.4200
  108MOL0     H14237   6.489   1.561   5.511  2.1132 -0.2620 -0.5030
  108MOL0     H14238   7.462   1.229   5.495 -1.5315  3.8631  2.2956
  108MOL0     H14239   7.705   1.253   5.530 -3.2358 -0.2120  2.0300
  108MOL0     H14240   8.106   1.324   5.504  2.0241 -0.7890  1.5964
  108MOL0     H14241   8.331   1.345   5.545  0.2451  1.0748  1.3532
  108MOL0     H14242  10.054   1.611   5.001 -0.4228  0.7931  2.7860
  108MOL0     H14243  10.272   1.541   5.065 -0.1209 -0.3565 -1.0569
  108MOL0     H14244  10.699   1.508   4.935  0.5877  1.8279 -2.0662
  108MOL0     H14245  10.953   1.449   4.952  2.4863  0.6322  0.6409
  108MOL0     H14246  11.226   1.476   4.969 -3.9341 -0.5909 -1.4213
  108MOL0     H14247  11.132   1.370   5.074  0.3852  0.1523 -1.5050
  108MOL0     H14248  11.263   1.445   5.278  2.1171 -1.7867  0.2126
  108MOL0     H14249  11.355   1.352   5.169  0.8980 -0.2664  4.9800
  108MOL0     H14250  11.351   1.668   5.160  0.7487 -0.1725 -3.0641
  108MOL0     H14251  11.452   1.567   5.075 -0.4572  0.0272 -0.7638
  108MOL0     H14252  11.564   1.651   5.283 -2.3246  2.6021 -0.9501
  108MOL0     H14253  11.444   1.572   5.382 -0.7291 -1.6534 -0.6034
  108MOL0     H14254  11.673   1.237   5.302 -0.9667  0.0063 -1.5804
  108MOL0     H14255  10.997   1.727   5.265 -0.6531  1.8762 -0.4891
  108MOL0     H14256  10.757   1.806   5.231  0.9365  0.0507  0.9743
  109MOL0     O14257  10.309   3.475   9.720  1.0082  0.3337  0.6412
  109MOL0     C14258  10.335   3.575   9.784 -0.1555  0.9989  0.1917
  109MOL0     O14259  10.462   3.614   9.810 -0.1955  0.1975  0.6255
  109MOL0     C14260  10.580   3.541   9.786  0.8600  0.7929 -0.0676
  109MOL0     C14261  10.579   3.402   9.767  0.6271 -1.1252 -0.4014
  109MOL0     C14262  10.701   3.339   9.743 -0.8324  0.2717  0.4092
  109MOL0     C14263  10.826   3.408   9.728 -0.9759 -0.7555 -0.6505
  109MOL0     O14264  10.945   3.338   9.703  0.0988  0.5221  0.0749
  109MOL0     C14265  11.056   3.410   9.654  0.6193 -0.6768 -0.5875
  109MOL0     C14266  11.161   3.315   9.609 -0.0703 -0.2524  0.5401
  109MOL0     C14267  11.296   3.380   9.597 -0.6304  0.5051 -0.2778
  109MOL0     C14268  11.399   3.270   9.541 -0.1526 -0.9037 -0.0378
  109MOL0     C14269  11.507   3.359   9.471  1.0323  0.7819 -0.1316
  109MOL0     C14270  11.631   3.273   9.457  0.7461  0.7242 -0.4007
  109MOL0     C14271  11.623   3.149   9.365  0.2769 -0.6207 -0.1073
  109MOL0     C14272  11.583   3.182   9.225  0.6597 -1.1198 -0.3175
  109MOL0     N14273  11.663   3.283   9.152  0.3287 -0.5446 -0.0741
  109MOL0     C14274  11.777   3.261   9.084 -0.3366 -0.3243  0.0779
  109MOL0     C14275  11.775   3.362   8.991 -0.0711 -0.3118  0.7313
  109MOL0     C14276  11.866   3.382   8.873  0.0513  0.1935  0.2772
  109MOL0     C14277  12.000   3.439   8.928 -0.4693 -0.5665  0.9311
  109MOL0     C14278  12.105   3.476   8.819 -1.1499 -0.3093  0.5158
  109MOL0     C14279  12.089   3.612   8.751  1.0763  0.7330 -0.0999
  109MOL0     O14280  12.195   3.621   8.660 -0.5301 -0.6688  0.6202
  109MOL0     C14281  12.322   3.652   8.711  0.2148  0.4117  0.4317
  109MOL0     C14282  12.426   3.644   8.624 -0.4319  0.0103  0.1570
  109MOL0     C14283  12.560   3.675   8.661  0.4359  0.9166 -0.5513
  109MOL0     C14284  12.588   3.714   8.785  0.2325 -0.8214 -0.0864
  109MOL0     C14285  12.716   3.769   8.829  0.2847  0.8270 -0.3793
  109MOL0     O14286  12.792   3.831   8.726 -0.2399 -0.2923 -0.4875
  109MOL0     C14287  12.903   3.886   8.773  0.3301 -0.1826 -1.1714
  109MOL0     C14288  13.015   3.801   8.780  0.9511  0.2905  0.8507
  109MOL0     C14289  13.140   3.845   8.824 -0.2850 -0.9604  0.3675
  109MOL0     C14290  13.157   3.976   8.861 -0.8745 -0.2940  0.3149
  109MOL0     O14291  13.268   4.029   8.918 -0.2735  0.6078 -0.5853
  109MOL0     C14292  13.385   4.036   8.841 -0.2712  0.4844 -0.2337
  109MOL0     C14293  13.483   4.107   8.939 -0.9427  0.2017  0.9455
  109MOL0     C14294  13.622   4.134   8.878 -0.0961  0.4259 -0.3271
  109MOL0     C14295  13.698   4.220   8.981 -0.1939 -0.7990 -0.8418
  109MOL0     C14296  13.843   4.231   8.923 -0.4923  0.0255  0.4264
  109MOL0     C14297  13.931   4.316   9.012  0.2723  0.2677 -0.4840
  109MOL0     C14298  14.031   4.240   9.099 -0.5749  0.1125  0.4300
  109MOL0     C14299  14.107   4.339   9.182  0.3924 -0.1542  0.7192
  109MOL0    Cl14300  14.203   4.262   9.310 -0.3815 -0.0453 -0.3066
  109MOL0     C14301  13.048   4.058   8.862 -1.5799  0.1034  0.1360
  109MOL0     C14302  12.922   4.020   8.818  0.8426  0.0589  0.2016
  109MOL0     O14303  12.752   3.752   8.948 -0.3183 -0.5078  0.2608
  109MOL0     C14304  12.477   3.733   8.876 -0.2918 -0.0656 -0.1703
  109MOL0     C14305  12.352   3.691   8.845  0.5236  0.6260 -0.0777
  109MOL0     N14306  11.672   3.446   9.028 -0.4579 -0.4005 -0.0582
  109MOL0     N14307  11.598   3.398   9.121 -0.0777  0.3315 -0.3117
  109MOL0     C14308  10.814   3.546   9.739 -0.9362 -0.4073 -0.8083
  109MOL0     C14309  10.699   3.606   9.761  0.1730  0.1648  0.4108
  109MOL0     C14310  10.216   3.646   9.854  0.6491  0.2205  0.9166
  109MOL0     C14311  10.240   3.758   9.933 -0.4750 -0.9089 -0.2714
  109MOL0     C14312  10.139   3.821  10.010  0.1428 -0.1574 -0.3285
  109MOL0     C14313  10.008   3.772   9.989 -0.5434 -0.4495 -0.4787
  109MOL0     O14314   9.900   3.822  10.059 -0.5694 -0.7102  0.4534
  109MOL0     C14315   9.877   3.957  10.042 -0.5793 -0.0338  0.3269
  109MOL0     C14316   9.739   4.002  10.080 -0.1249  0.3693 -0.2615
  109MOL0     C14317   9.636   3.933   9.986  0.1169 -0.1286 -0.0575
  109MOL0     C14318   9.489   3.927  10.043 -0.2984  0.1785  0.1686
  109MOL0     C14319   9.429   4.064  10.052  0.3761  0.6248  0.8985
  109MOL0     C14320   9.371   4.177  10.056  0.5653 -0.0432  0.4536
  109MOL0     C14321   9.979   3.666   9.909 -0.7535 -0.2536  0.0313
  109MOL0     C14322  10.085   3.600   9.845 -0.1682  0.7278 -0.4478
  109MOL0     H14323  10.487   3.346   9.780 -0.6436  0.8066 -0.8014
  109MOL0     H14324  10.703   3.231   9.744  2.3583  0.2342  0.8185
  109MOL0     H14325  11.095   3.461   9.742  1.9663 -1.1175 -0.8964
  109MOL0     H14326  11.023   3.480   9.577 -2.2067  0.6134  1.6422
  109MOL0     H14327  11.141   3.293   9.504  2.2186  4.1029 -1.0133
  109MOL0     H14328  11.163   3.228   9.677 -1.8427 -0.9020 -0.1645
  109MOL0     H14329  11.327   3.416   9.696 -1.5410 -1.1026  0.6224
  109MOL0     H14330  11.296   3.469   9.534 -1.0096  0.4834 -0.3071
  109MOL0     H14331  11.448   3.212   9.620 -0.3291 -0.3902  0.4596
  109MOL0     H14332  11.354   3.207   9.464  0.1099 -1.0130 -0.1031
  109MOL0     H14333  11.541   3.451   9.520  1.0519  0.7715 -0.1252
  109MOL0     H14334  11.467   3.383   9.372 -1.6544 -1.1399  0.3850
  109MOL0     H14335  11.647   3.241   9.561 -0.7849 -0.3512 -0.4649
  109MOL0     H14336  11.717   3.333   9.424  0.7818  0.9772  0.1458
  109MOL0     H14337  11.721   3.100   9.364 -0.2170 -1.6712  0.7042
  109MOL0     H14338  11.557   3.073   9.405  2.3765 -0.9968  3.0620
  109MOL0     H14339  11.477   3.210   9.225  0.2757 -2.4815  0.2965
  109MOL0     H14340  11.586   3.090   9.166 -0.1568  0.3996 -2.8690
  109MOL0     H14341  11.834   3.169   9.092  2.4261  1.2046 -0.3762
  109MOL0     H14342  11.810   3.457   8.815  0.7362  0.5121  0.0241
  109MOL0     H14343  11.874   3.288   8.816  0.5192  1.4858 -1.9222
  109MOL0     H14344  12.043   3.361   8.992 -0.8563 -1.6302 -0.0770
  109MOL0     H14345  11.986   3.531   8.986 -1.3344 -0.1283  0.0428
  109MOL0     H14346  12.203   3.456   8.862 -0.8784 -0.7414 -0.2795
  109MOL0     H14347  12.087   3.391   8.753 -0.6596 -0.4199  0.5283
  109MOL0     H14348  12.082   3.695   8.821  0.0770  1.6773 -1.2850
  109MOL0     H14349  11.990   3.600   8.704 -0.2410  0.2987  2.5814
  109MOL0     H14350  12.389   3.614   8.526 -0.7255  3.0238 -0.7663
  109MOL0     H14351  12.646   3.660   8.597  0.6258 -0.4033 -0.0268
  109MOL0     H14352  13.014   3.695   8.758  1.6091  0.5781 -0.7109
  109MOL0     H14353  13.220   3.774   8.842 -1.8615 -2.3178  2.5316
  109MOL0     H14354  13.361   4.093   8.751 -0.2426  1.0893  0.1314
  109MOL0     H14355  13.419   3.937   8.810 -1.1099  0.0418  0.2270
  109MOL0     H14356  13.503   4.041   9.024  2.1282  0.1858  0.3183
  109MOL0     H14357  13.439   4.197   8.984 -1.6421 -0.8283  2.4194
  109MOL0     H14358  13.625   4.184   8.781 -3.6167 -0.9030 -1.2527
  109MOL0     H14359  13.674   4.038   8.866 -1.6381 -0.5090  0.1637
  109MOL0     H14360  13.654   4.319   8.996  0.8355 -0.4361 -0.0214
  109MOL0     H14361  13.715   4.178   9.081 -0.4705  2.5715  0.7531
  109MOL0     H14362  13.845   4.271   8.822 -2.9375  1.3910  0.8340
  109MOL0     H14363  13.892   4.134   8.909 -3.7170 -1.6906  0.1842
  109MOL0     H14364  13.876   4.383   9.077  1.0521  0.9194 -0.4757
  109MOL0     H14365  13.993   4.376   8.945  2.4808 -0.4302  0.7907
  109MOL0     H14366  13.969   4.180   9.166 -1.3122 -0.2663 -0.5821
  109MOL0     H14367  14.101   4.184   9.037 -1.5895  0.8109 -1.4102
  109MOL0     H14368  14.054   4.426   9.221  1.6571  0.5255  0.9852
  109MOL0     H14369  14.189   4.380   9.123  0.1857  1.4141  1.4657
  109MOL0     H14370  13.073   4.160   8.891  0.8811  0.6492 -3.2582
  109MOL0     H14371  12.841   4.092   8.813 -2.3602 -3.2740 -0.4775
  109MOL0     H14372  12.492   3.771   8.977 -0.3977 -0.5185  0.0177
  109MOL0     H14373  12.272   3.708   8.917  2.5136  3.2496  1.7196
  109MOL0     H14374  10.906   3.603   9.733 -0.4736 -1.1281 -0.7427
  109MOL0     H14375  10.701   3.714   9.755  1.2542  0.0827 -1.6247
  109MOL0     H14376  10.342   3.796   9.943 -0.0736 -2.2804  1.1312
  109MOL0     H14377  10.157   3.909  10.072 -1.4343  0.1431 -0.2403
  109MOL0     H14378   9.901   3.984   9.938  1.7009 -5.5581 -0.9687
  109MOL0     H14379   9.945   4.013  10.106  1.8959  0.7410 -2.7078
  109MOL0     H14380   9.718   3.965  10.181 -0.9869 -2.1778 -1.2965
  109MOL0     H14381   9.729   4.111  10.073  0.8526  0.3874 -1.6436
  109MOL0     H14382   9.667   3.833   9.954 -0.6160 -1.8311  3.8803
  109MOL0     H14383   9.642   4.001   9.901  0.9781  1.9254  1.5604
  109MOL0     H14384   9.436   3.883   9.957  2.4153  1.0378 -2.0946
  109MOL0     H14385   9.488   3.867  10.134  3.4393 -1.2174 -0.5336
  109MOL0     H14386   9.317   4.270  10.058 -1.7629 -1.3166  0.4985
  109MOL0     H14387   9.875   3.635   9.904 -0.6493 -0.5843 -0.0856
  109MOL0     H14388  10.069   3.513   9.781  1.3242 -0.5593  0.8445
  110MOL0     O14389   6.772   6.519   3.395  0.1568  0.5798  0.1266
  110MOL0     C14390   6.853   6.433   3.415 -0.4483 -0.6622 -0.7197
  110MOL0     O14391   6.843   6.326   3.491  0.2818  0.3567  0.1326
  110MOL0     C14392   6.727   6.320   3.564  0.4465  0.0905 -0.0941
  110MOL0     C14393   6.609   6.290   3.502  0.5818 -0.1161  0.2267
  110MOL0     C14394   6.483   6.285   3.564  0.0912 -0.8910 -0.3814
  110MOL0     C14395   6.483   6.303   3.710  0.3868 -0.6931  0.0231
  110MOL0     O14396   6.363   6.292   3.772  0.1142 -0.5174  0.2049
  110MOL0     C14397   6.338   6.368   3.893 -0.4477  0.2011  0.2555
  110MOL0     C14398   6.195   6.340   3.954 -0.4577  0.8972  0.0652
  110MOL0     C14399   6.077   6.371   3.857  0.5755 -0.1633 -0.1806
  110MOL0     C14400   5.940   6.347   3.926  0.0357 -0.1920  0.1402
  110MOL0     C14401   5.816   6.355   3.839  0.2287  0.0099 -0.9918
  110MOL0     C14402   5.681   6.328   3.912  0.8682 -0.6964  0.4964
  110MOL0     C14403   5.624   6.445   3.995 -0.2936  0.5743  0.6396
  110MOL0     C14404   5.484   6.425   4.045 -0.2622  0.0246 -0.2849
  110MOL0     N14405   5.473   6.489   4.179  0.6828  0.1992  0.0747
  110MOL0     C14406   5.484   6.619   4.212  0.3154 -0.5086 -0.6800
  110MOL0     C14407   5.479   6.625   4.352  0.6351 -0.0715 -1.1282
  110MOL0     C14408   5.486   6.749   4.441  0.0407  0.3225  0.4871
  110MOL0     C14409   5.612   6.762   4.519  0.2588  0.3470  0.0701
  110MOL0     C14410   5.600   6.673   4.647  0.2809  0.2573 -0.6789
  110MOL0     C14411   5.726   6.673   4.728 -0.0047  0.5556  0.3405
  110MOL0     O14412   5.821   6.631   4.637 -0.2197 -0.5376  0.2058
  110MOL0     C14413   5.949   6.671   4.651  0.4373 -0.6966  0.6312
  110MOL0     C14414   6.033   6.679   4.537 -0.0082  0.9311  0.3256
  110MOL0     C14415   6.175   6.710   4.555  0.3637  0.3568  0.6535
  110MOL0     C14416   6.232   6.742   4.682  0.0400 -0.3175  0.1311
  110MOL0     C14417   6.380   6.767   4.707  0.3414  0.0214  0.0122
  110MOL0     O14418   6.461   6.765   4.597 -0.7388 -0.3109  0.2393
  110MOL0     C14419   6.600   6.783   4.604  0.3953  0.3417  0.3481
  110MOL0     C14420   6.677   6.728   4.506  1.2702  0.0259  0.1036
  110MOL0     C14421   6.818   6.731   4.512 -0.1210  0.4654 -0.4921
  110MOL0     C14422   6.888   6.793   4.619 -0.3244  0.7771 -0.4103
  110MOL0     O14423   7.022   6.788   4.628 -1.0134 -0.3362  0.5951
  110MOL0     C14424   7.098   6.856   4.733 -0.1659 -0.9442  0.5783
  110MOL0     C14425   7.253   6.840   4.714 -0.4104  0.7464  0.3474
  110MOL0     C14426   7.299   6.930   4.607 -0.9420 -0.7036 -0.3600
  110MOL0     C14427   7.451   6.939   4.612 -0.8584  0.1587  0.9082
  110MOL0     C14428   7.511   6.995   4.478 -0.1528 -0.2958  0.4956
  110MOL0     C14429   7.661   6.984   4.460 -0.0871 -0.1116 -0.6390
  110MOL0     C14430   7.725   6.849   4.456  0.4595  0.1068  0.2809
  110MOL0     C14431   7.865   6.870   4.424  0.0811 -0.1514 -0.3350
  110MOL0    Cl14432   7.971   6.729   4.457 -0.2982  0.0134  0.1923
  110MOL0     C14433   6.803   6.863   4.715 -0.0190 -0.0401  0.4564
  110MOL0     C14434   6.659   6.863   4.703 -0.4230  0.7772 -0.3850
  110MOL0     O14435   6.419   6.788   4.824  0.5981 -0.0762  0.3463
  110MOL0     C14436   6.142   6.743   4.794 -0.1237  1.1775  0.3037
  110MOL0     C14437   6.004   6.711   4.777 -0.3476  0.4196 -0.3379
  110MOL0     N14438   5.466   6.495   4.397  0.1119 -0.0087 -0.1757
  110MOL0     N14439   5.456   6.418   4.295 -0.6693  0.0706  0.7757
  110MOL0     C14440   6.598   6.347   3.774  0.7364  0.5510  0.2042
  110MOL0     C14441   6.717   6.353   3.706 -0.0155 -0.1420 -0.4917
  110MOL0     C14442   6.973   6.451   3.332 -0.6250 -0.0292  0.4694
  110MOL0     C14443   7.095   6.400   3.365 -0.5951 -0.7313  0.6061
  110MOL0     C14444   7.204   6.408   3.277 -0.0935 -0.5521  0.2195
  110MOL0     C14445   7.197   6.469   3.152 -0.4796 -0.0692  0.4183
  110MOL0     O14446   7.291   6.462   3.060 -0.1119  0.3656  0.2801
  110MOL0     C14447   7.346   6.335   3.026  0.6026  0.1153  0.2650
  110MOL0     C14448   7.480   6.348   2.955 -0.9833  0.1041  0.9535
  110MOL0     C14449   7.463   6.355   2.802  0.0538 -0.6294  0.3340
  110MOL0     C14450   7.463   6.224   2.726 -0.5139  0.0471  0.6035
  110MOL0     C14451   7.592   6.160   2.741  0.1426  0.1827  0.4448
  110MOL0     C14452   7.696   6.101   2.752  0.5696  0.3304  0.2345
  110MOL0     C14453   7.075   6.529   3.117 -0.0546  0.0136 -0.5787
  110MOL0     C14454   6.966   6.512   3.204 -0.3641 -0.3785  0.4495
  110MOL0     H14455   6.609   6.284   3.394  1.4470  1.0681  0.1459
  110MOL0     H14456   6.389   6.263   3.516 -0.7577 -2.0647  1.6682
  110MOL0     H14457   6.368   6.472   3.880  1.4440 -0.5543 -2.3492
  110MOL0     H14458   6.398   6.313   3.966 -2.2343 -2.1268  0.1283
  110MOL0     H14459   6.183   6.377   4.056  0.6657  1.3156  0.0561
  110MOL0     H14460   6.187   6.233   3.975 -1.3148  1.2671  1.7583
  110MOL0     H14461   6.087   6.318   3.762  1.0207  0.8981 -0.7500
  110MOL0     H14462   6.094   6.476   3.832 -0.0947  0.0826  0.3758
  110MOL0     H14463   5.942   6.242   3.957 -2.4195 -0.1058  0.7951
  110MOL0     H14464   5.936   6.412   4.014 -1.2035 -1.1398  0.8202
  110MOL0     H14465   5.832   6.288   3.754  1.7609 -0.7257 -0.1640
  110MOL0     H14466   5.817   6.457   3.799 -3.4983  1.2504  1.6041
  110MOL0     H14467   5.694   6.239   3.974  1.3371 -1.4249 -0.6029
  110MOL0     H14468   5.612   6.305   3.830 -0.4609 -2.6924  2.0583
  110MOL0     H14469   5.690   6.469   4.079 -0.1053  2.3443  0.0242
  110MOL0     H14470   5.623   6.534   3.931  2.3162 -0.6794 -1.3073
  110MOL0     H14471   5.445   6.323   4.050 -0.4444 -0.3551 -4.9999
  110MOL0     H14472   5.412   6.473   3.978 -0.4464  2.3059  1.4208
  110MOL0     H14473   5.501   6.706   4.149  1.3221  1.0141  1.5718
  110MOL0     H14474   5.399   6.753   4.507  0.0320 -0.5317  0.5357
  110MOL0     H14475   5.489   6.840   4.381 -1.0979  1.8486  2.6204
  110MOL0     H14476   5.631   6.866   4.547 -1.4847  0.2637  1.8240
  110MOL0     H14477   5.694   6.730   4.455  1.4654  1.3199  1.0574
  110MOL0     H14478   5.517   6.721   4.700 -0.3951 -0.4585 -1.0743
  110MOL0     H14479   5.583   6.572   4.608 -1.7619  1.3181 -2.8426
  110MOL0     H14480   5.729   6.602   4.811  0.9428 -0.5616 -0.6137
  110MOL0     H14481   5.741   6.776   4.762 -0.3603  0.9289 -0.5991
  110MOL0     H14482   5.992   6.651   4.441 -2.2412 -0.6424  1.6476
  110MOL0     H14483   6.238   6.710   4.467 -1.4237 -0.1673 -0.6901
  110MOL0     H14484   6.631   6.687   4.417 -0.7643  0.1103  1.0844
  110MOL0     H14485   6.877   6.678   4.439  0.9284  0.4816  0.3278
  110MOL0     H14486   7.077   6.808   4.829  0.8471 -0.2044  1.1881
  110MOL0     H14487   7.075   6.963   4.744  0.5693 -0.6801 -0.3090
  110MOL0     H14488   7.285   6.739   4.688  1.1990  0.4162  3.2461
  110MOL0     H14489   7.307   6.866   4.805  4.4923  2.2124 -2.6180
  110MOL0     H14490   7.260   7.029   4.630 -1.4645 -0.8496 -0.6104
  110MOL0     H14491   7.252   6.892   4.516 -2.0067 -2.3817  0.8184
  110MOL0     H14492   7.484   7.004   4.694  0.0496  1.0651 -0.1433
  110MOL0     H14493   7.490   6.839   4.632  1.3810  0.7027 -0.3298
  110MOL0     H14494   7.490   7.102   4.468  1.0699 -0.1841 -1.3769
  110MOL0     H14495   7.470   6.950   4.387 -0.4243  0.4782  0.2264
  110MOL0     H14496   7.710   7.036   4.543 -1.8745 -1.1700  1.1997
  110MOL0     H14497   7.685   7.047   4.374  1.7461 -0.1844 -0.2170
  110MOL0     H14498   7.718   6.799   4.554 -0.1267  2.3214  1.4288
  110MOL0     H14499   7.680   6.793   4.374  1.5309  1.9793 -1.6571
  110MOL0     H14500   7.915   6.951   4.478 -0.9223  0.9666 -1.0196
  110MOL0     H14501   7.874   6.894   4.318  0.7413 -0.7125 -0.4084
  110MOL0     H14502   6.850   6.922   4.792 -0.8385 -1.5487  2.1692
  110MOL0     H14503   6.600   6.923   4.771  1.5847  2.0802  0.2934
  110MOL0     H14504   6.177   6.770   4.893  2.4011  0.2420 -0.2715
  110MOL0     H14505   5.944   6.725   4.866  0.0330  2.3202 -0.3299
  110MOL0     H14506   6.594   6.380   3.877  0.3051  2.9695 -0.5233
  110MOL0     H14507   6.807   6.384   3.759 -0.3899  1.0489 -0.5172
  110MOL0     H14508   7.096   6.343   3.457  0.7303 -0.2717  0.9076
  110MOL0     H14509   7.299   6.372   3.314  0.8952  1.6905  0.0666
  110MOL0     H14510   7.276   6.290   2.956 -0.3081  1.4382  0.2938
  110MOL0     H14511   7.351   6.271   3.115  0.5271 -1.3874 -0.7708
  110MOL0     H14512   7.517   6.446   2.989 -0.1777  0.3700 -0.5902
  110MOL0     H14513   7.548   6.267   2.983 -0.8618 -0.4772 -0.8970
  110MOL0     H14514   7.547   6.409   2.758  0.9311 -1.5026  0.9109
  110MOL0     H14515   7.387   6.425   2.765 -1.1839 -1.5773  1.0091
  110MOL0     H14516   7.390   6.159   2.776 -0.0172  0.7907  2.3927
  110MOL0     H14517   7.434   6.230   2.621  1.1356 -1.9568 -0.0299
  110MOL0     H14518   7.781   6.038   2.766 -0.4846 -1.0168  0.8096
  110MOL0     H14519   7.065   6.585   3.024 -2.6393  0.9534  0.1727
  110MOL0     H14520   6.875   6.565   3.178 -0.0340  0.3637  0.7670
  111MOL0     O14521   4.478   8.754   3.975 -0.9638  0.0860  0.1118
  111MOL0     C14522   4.498   8.823   4.075 -0.2431 -0.4685 -1.0654
  111MOL0     O14523   4.393   8.872   4.157 -0.4785 -0.2069 -0.7189
  111MOL0     C14524   4.268   8.879   4.097  0.1398 -0.4341 -0.5418
  111MOL0     C14525   4.228   8.983   4.011  0.0974  0.7348  0.0402
  111MOL0     C14526   4.094   8.984   3.960  0.8276  0.4644  0.4650
  111MOL0     C14527   4.008   8.884   4.004  0.0347  0.5799 -0.0871
  111MOL0     O14528   3.894   8.849   3.938  0.4243  0.4378  0.1842
  111MOL0     C14529   3.843   8.953   3.860  0.2160 -0.0760  0.1828
  111MOL0     C14530   3.700   8.931   3.808  0.0639 -0.2438 -0.1499
  111MOL0     C14531   3.611   8.939   3.930 -0.0284 -0.1427  0.4457
  111MOL0     C14532   3.464   8.915   3.908 -0.4906  0.0971 -0.0056
  111MOL0     C14533   3.411   8.780   3.867  0.3774  0.1388 -0.3573
  111MOL0     C14534   3.423   8.682   3.982 -0.5737  0.0176 -0.3575
  111MOL0     C14535   3.341   8.558   3.952  0.2061 -0.5525 -0.2447
  111MOL0     C14536   3.199   8.565   4.017  0.3256 -0.3602  0.1930
  111MOL0     N14537   3.121   8.448   3.968 -0.4869 -0.3542 -0.3800
  111MOL0     C14538   3.086   8.411   3.836 -0.0362 -0.0117 -0.5172
  111MOL0     C14539   3.030   8.288   3.848 -0.0448 -0.5446  0.3787
  111MOL0     C14540   2.968   8.198   3.750 -0.0322 -0.0204 -0.3910
  111MOL0     C14541   2.815   8.207   3.740  0.4025  0.4301  0.6944
  111MOL0     C14542   2.767   8.144   3.605  0.3290  0.1636  0.0527
  111MOL0     C14543   2.615   8.140   3.600 -0.6941 -0.7066  0.2301
  111MOL0     O14544   2.562   8.273   3.589 -0.5283 -0.6273 -0.2873
  111MOL0     C14545   2.429   8.294   3.576  0.7742 -0.7094 -0.6242
  111MOL0     C14546   2.384   8.425   3.573 -0.2204 -0.1096  0.2103
  111MOL0     C14547   2.250   8.464   3.579 -0.5695  0.2040  0.3296
  111MOL0     C14548   2.150   8.361   3.580  0.6131  0.6623 -1.0963
  111MOL0     C14549   2.003   8.386   3.600  0.2524  0.2336  0.4660
  111MOL0     O14550   1.920   8.282   3.558  0.1614 -0.5018 -0.7764
  111MOL0     C14551   1.787   8.296   3.572 -0.0426 -0.2464 -0.4713
  111MOL0     C14552   1.724   8.284   3.701 -0.1905 -0.6128  0.0310
  111MOL0     C14553   1.578   8.296   3.702 -0.2799  0.4708  0.3106
  111MOL0     C14554   1.506   8.324   3.578 -0.1032  0.1060  1.2084
  111MOL0     O14555   1.374   8.332   3.597 -0.0926  0.3873  0.4129
  111MOL0     C14556   1.297   8.331   3.475  0.7604  0.8502 -1.0091
  111MOL0     C14557   1.158   8.318   3.514 -0.5958  0.5125  0.3469
  111MOL0     C14558   1.136   8.183   3.588 -0.1025  0.6388 -0.8546
  111MOL0     C14559   0.988   8.179   3.646 -0.1306  0.4058  0.0810
  111MOL0     C14560   0.969   8.275   3.762 -0.2587  0.5970  0.0562
  111MOL0     C14561   0.821   8.289   3.800  0.3946  0.0277  0.4096
  111MOL0     C14562   0.810   8.332   3.940  0.9324 -0.1245  0.3299
  111MOL0     C14563   0.663   8.322   3.992 -0.1863 -0.6477  0.4325
  111MOL0    Cl14564   0.553   8.418   3.891  0.0905 -0.4093  0.0583
  111MOL0     C14565   1.583   8.332   3.462  0.4484 -0.1898  0.7576
  111MOL0     C14566   1.719   8.320   3.455  0.3211 -0.4743  0.2044
  111MOL0     O14567   1.972   8.495   3.636  0.9096 -0.3534 -0.1186
  111MOL0     C14568   2.190   8.230   3.576 -0.6264 -0.1837  0.6396
  111MOL0     C14569   2.329   8.199   3.579 -0.0661 -0.1159 -0.0455
  111MOL0     N14570   3.038   8.255   3.981  0.7897  0.0072 -0.4161
  111MOL0     N14571   3.084   8.351   4.045  0.7101  0.2733 -0.5986
  111MOL0     C14572   4.040   8.796   4.115 -0.6104  0.9233 -0.7797
  111MOL0     C14573   4.179   8.785   4.148  0.6012 -0.4423 -0.0427
  111MOL0     C14574   4.636   8.837   4.128 -0.3849  0.6841 -0.2998
  111MOL0     C14575   4.744   8.772   4.063  1.1554 -0.1377  0.1666
  111MOL0     C14576   4.882   8.779   4.105 -0.1205  0.2763 -0.2813
  111MOL0     C14577   4.921   8.853   4.222  0.5622  0.2652 -0.3641
  111MOL0     O14578   5.040   8.872   4.272 -0.0345 -0.0835  0.8135
  111MOL0     C14579   5.149   8.796   4.198 -0.5988  0.4218  0.2772
  111MOL0     C14580   5.283   8.822   4.252  0.7898 -0.1288 -0.4559
  111MOL0     C14581   5.402   8.750   4.190  0.1633  0.1238 -0.3988
  111MOL0     C14582   5.533   8.782   4.266  0.4889  0.2509  0.4748
  111MOL0     C14583   5.580   8.910   4.219 -0.2316 -0.2980 -0.2794
  111MOL0     C14584   5.632   9.009   4.173 -0.3369  0.3008  0.4068
  111MOL0     C14585   4.820   8.918   4.283 -0.5240  0.0843 -0.0520
  111MOL0     C14586   4.681   8.902   4.248  0.4796 -0.0971 -0.2163
  111MOL0     H14587   4.306   9.051   3.978  0.7708 -1.0230 -2.3479
  111MOL0     H14588   4.076   9.047   3.874  0.6436  1.3527  1.1405
  111MOL0     H14589   3.903   8.966   3.769 -0.7300 -0.1312 -0.4663
  111MOL0     H14590   3.836   9.040   3.925 -1.2036  0.2412 -0.3481
  111MOL0     H14591   3.682   8.838   3.753  3.1679  0.5575 -2.8533
  111MOL0     H14592   3.671   9.004   3.732 -0.2212 -1.6493 -1.4386
  111MOL0     H14593   3.620   9.044   3.960  0.9367  0.1635 -0.8332
  111MOL0     H14594   3.650   8.872   4.009 -2.2317 -2.2834 -0.1559
  111MOL0     H14595   3.409   8.961   3.991  1.6350  2.8473  0.0258
  111MOL0     H14596   3.434   8.979   3.824  0.6291 -1.0064 -1.2867
  111MOL0     H14597   3.469   8.751   3.778 -0.3689  1.9821 -1.5044
  111MOL0     H14598   3.302   8.782   3.856 -0.0023 -1.4017  2.2630
  111MOL0     H14599   3.392   8.732   4.074 -0.2359 -1.1233  0.4013
  111MOL0     H14600   3.525   8.645   3.999 -1.3396 -1.1858  1.9371
  111MOL0     H14601   3.334   8.542   3.844  1.0428 -1.9955 -0.1145
  111MOL0     H14602   3.404   8.479   3.994  4.0240  0.5545 -3.3139
  111MOL0     H14603   3.147   8.656   3.985 -0.0085 -0.6416 -0.0748
  111MOL0     H14604   3.202   8.569   4.126 -0.3602  1.1895  0.1854
  111MOL0     H14605   3.100   8.459   3.740  1.9899 -0.4722 -0.5021
  111MOL0     H14606   3.004   8.096   3.770 -1.1667 -0.1206  1.3011
  111MOL0     H14607   3.009   8.228   3.653  1.0537 -0.6297 -0.1411
  111MOL0     H14608   2.778   8.309   3.752  0.6824  0.6863 -0.4459
  111MOL0     H14609   2.770   8.154   3.824  0.5035  0.0073  0.4856
  111MOL0     H14610   2.803   8.212   3.528 -2.7607  1.4831 -0.3437
  111MOL0     H14611   2.810   8.045   3.585  0.7871  0.1311  1.1196
  111MOL0     H14612   2.582   8.083   3.688  1.3921 -2.5718 -0.1150
  111MOL0     H14613   2.586   8.075   3.517 -0.0868 -0.9615  0.2127
  111MOL0     H14614   2.455   8.506   3.582 -0.7641  0.4668 -0.5427
  111MOL0     H14615   2.234   8.571   3.578  2.6923  0.7909  0.7221
  111MOL0     H14616   1.786   8.261   3.786 -0.8582  1.4897  1.1664
  111MOL0     H14617   1.525   8.280   3.796 -1.8608  0.6187 -0.5247
  111MOL0     H14618   1.317   8.234   3.428  3.0086 -1.0627  3.2040
  111MOL0     H14619   1.303   8.415   3.406 -1.7566  0.0057 -2.3870
  111MOL0     H14620   1.093   8.323   3.426 -3.8069 -0.2978  2.5008
  111MOL0     H14621   1.135   8.403   3.578 -0.3268  2.1756 -1.6378
  111MOL0     H14622   1.216   8.167   3.661  2.7443  3.9444 -2.9730
  111MOL0     H14623   1.148   8.103   3.515 -1.1008  2.1446 -2.7527
  111MOL0     H14624   0.926   8.205   3.559 -1.4273 -2.4061  0.0422
  111MOL0     H14625   0.977   8.076   3.681  0.4576  0.2955 -0.0481
  111MOL0     H14626   1.015   8.372   3.742  3.5114 -1.0229  0.0906
  111MOL0     H14627   1.022   8.232   3.847 -2.2842  1.3265  1.7812
  111MOL0     H14628   0.773   8.191   3.787  2.3623 -0.8545 -0.5466
  111MOL0     H14629   0.776   8.365   3.736  3.3031  3.2268  1.9127
  111MOL0     H14630   0.868   8.262   4.002 -0.1701 -1.7269 -0.3704
  111MOL0     H14631   0.841   8.437   3.944 -0.0220  0.2531 -1.3112
  111MOL0     H14632   0.662   8.369   4.091 -1.5382 -0.9569  0.5880
  111MOL0     H14633   0.629   8.218   4.002  2.5843 -1.9032 -1.9448
  111MOL0     H14634   1.529   8.350   3.369 -0.1638  0.4769  1.2238
  111MOL0     H14635   1.765   8.342   3.359 -1.1294  1.5048 -0.0933
  111MOL0     H14636   2.126   8.143   3.591  3.7325 -4.5397 -2.5087
  111MOL0     H14637   2.360   8.095   3.582  1.3748  0.2351 -1.1817
  111MOL0     H14638   3.973   8.715   4.145  0.1055  0.2875 -0.8470
  111MOL0     H14639   4.210   8.718   4.227  1.8646 -0.4693 -0.5336
  111MOL0     H14640   4.731   8.729   3.964  2.7009  0.1640 -0.1988
  111MOL0     H14641   4.955   8.735   4.038 -0.7839 -0.8150 -0.3138
  111MOL0     H14642   5.145   8.817   4.090  0.3132 -0.1160  0.1268
  111MOL0     H14643   5.141   8.691   4.224  1.8908  0.6331  2.2136
  111MOL0     H14644   5.295   8.930   4.241  5.8102 -0.2679  1.4352
  111MOL0     H14645   5.285   8.800   4.359 -0.9826 -0.9042 -0.5482
  111MOL0     H14646   5.401   8.774   4.083 -0.9223 -1.4012 -0.7622
  111MOL0     H14647   5.373   8.645   4.202 -0.5067  0.2609 -0.7713
  111MOL0     H14648   5.501   8.783   4.371  0.3750  0.3386  0.4398
  111MOL0     H14649   5.610   8.705   4.257 -0.1210 -0.5008  1.5013
  111MOL0     H14650   5.666   9.101   4.129 -0.9502  1.1576  1.6783
  111MOL0     H14651   4.845   8.984   4.365  2.6757  0.8662 -1.5352
  111MOL0     H14652   4.603   8.946   4.310 -0.1172 -0.7139 -0.5103
  112MOL0     O14653   6.931   4.716  10.099  0.3664 -0.5771  0.1428
  112MOL0     C14654   6.947   4.696  10.224  0.3236 -0.1002  0.4006
  112MOL0     O14655   6.848   4.698  10.322 -0.2647  0.1017  0.0536
  112MOL0     C14656   6.730   4.746  10.279  0.2738 -0.7463  0.3623
  112MOL0     C14657   6.646   4.688  10.179 -0.0855 -0.4734 -1.0792
  112MOL0     C14658   6.526   4.749  10.154  0.5465  0.5439 -0.0590
  112MOL0     C14659   6.480   4.859  10.225  0.2826  0.2448  0.2720
  112MOL0     O14660   6.360   4.923  10.195  0.0601  0.4702 -0.3174
  112MOL0     C14661   6.291   4.865  10.096  0.1512 -0.5106  0.2759
  112MOL0     C14662   6.156   4.926  10.094  1.2868 -0.7241  0.3996
  112MOL0     C14663   6.074   4.866   9.979 -1.0260  1.4557 -0.1403
  112MOL0     C14664   5.935   4.917   9.964 -0.5644 -0.0078  0.4881
  112MOL0     C14665   5.848   4.862   9.856 -0.0681  0.3595  0.7852
  112MOL0     C14666   5.727   4.943   9.821  0.9991  0.0525  0.1473
  112MOL0     C14667   5.631   4.962   9.942 -0.9116 -0.0021 -0.0742
  112MOL0     C14668   5.493   5.018   9.901  0.4845  0.0470 -1.3639
  112MOL0     N14669   5.431   4.948   9.790 -0.1418 -0.3244  0.7295
  112MOL0     C14670   5.417   4.809   9.776  0.6388 -0.6043 -0.6253
  112MOL0     C14671   5.337   4.801   9.661  0.5618  0.4236  0.0343
  112MOL0     C14672   5.286   4.668   9.605 -0.5026 -0.0793  0.8484
  112MOL0     C14673   5.170   4.601   9.688  0.1315  0.5813  0.3201
  112MOL0     C14674   5.065   4.692   9.737  0.0409 -0.4733  0.2576
  112MOL0     C14675   4.936   4.614   9.786 -0.2172  0.1392 -0.1436
  112MOL0     O14676   4.853   4.698   9.865 -0.2844  0.0174 -0.1317
  112MOL0     C14677   4.733   4.661   9.923 -0.2644 -0.0236  0.2420
  112MOL0     C14678   4.696   4.528   9.936  0.2701 -0.1901 -0.5949
  112MOL0     C14679   4.566   4.503   9.984 -0.1276  0.5698 -0.4304
  112MOL0     C14680   4.486   4.606  10.037  0.3558 -0.3447 -0.7075
  112MOL0     C14681   4.363   4.580  10.121  0.0604  0.0269 -0.8828
  112MOL0     O14682   4.308   4.455  10.126  0.1862  0.1779  0.1024
  112MOL0     C14683   4.181   4.425  10.171 -0.1820  0.2122 -0.1367
  112MOL0     C14684   4.174   4.355  10.292 -0.2708 -0.1731 -0.3789
  112MOL0     C14685   4.051   4.317  10.341 -0.5939  0.0755  0.0180
  112MOL0     C14686   3.926   4.341  10.260  0.6416 -0.6016  0.1030
  112MOL0     O14687   3.795   4.304  10.285  0.3096  0.0616  0.4977
  112MOL0     C14688   3.775   4.230  10.402  0.5531  0.3676  0.1262
  112MOL0     C14689   3.627   4.206  10.419  0.6281 -0.6010 -0.8099
  112MOL0     C14690   3.595   4.205  10.567  1.2010 -0.1369  0.0575
  112MOL0     C14691   3.444   4.175  10.566 -0.7239  0.8247  0.0314
  112MOL0     C14692   3.393   4.174  10.714  0.0695 -0.7733  0.1985
  112MOL0     C14693   3.428   4.059  10.806  0.5016 -0.0223 -0.2791
  112MOL0     C14694   3.405   4.097  10.959 -0.4246 -0.1520  0.4208
  112MOL0     C14695   3.259   4.124  10.996 -0.5156 -0.3130  0.5046
  112MOL0    Cl14696   3.168   3.981  10.947 -0.3311  0.0575 -0.0701
  112MOL0     C14697   3.935   4.421  10.150 -0.6949  0.4751 -0.8910
  112MOL0     C14698   4.063   4.462  10.100 -0.8736  0.5996 -0.1698
  112MOL0     O14699   4.316   4.681  10.180  0.1454 -0.5134 -0.4335
  112MOL0     C14700   4.523   4.740  10.011 -0.6072  0.7598 -0.5053
  112MOL0     C14701   4.649   4.765   9.956  0.2780  0.5476 -0.3362
  112MOL0     N14702   5.307   4.933   9.609 -0.9146  0.2306 -0.2982
  112MOL0     N14703   5.378   5.012   9.680  0.2452  0.4601 -0.5235
  112MOL0     C14704   6.565   4.910  10.326 -0.5303 -0.1557 -0.2957
  112MOL0     C14705   6.685   4.850  10.359 -0.2891  0.8091  0.8558
  112MOL0     C14706   7.082   4.678  10.277  0.0418 -0.3037 -0.2374
  112MOL0     C14707   7.097   4.652  10.421 -0.6214  0.2443  0.1789
  112MOL0     C14708   7.226   4.643  10.475  0.0479  0.0435 -0.1609
  112MOL0     C14709   7.343   4.659  10.397  0.2444 -0.4767  0.6172
  112MOL0     O14710   7.456   4.656  10.467  0.0944 -0.2025 -0.0196
  112MOL0     C14711   7.586   4.684  10.405 -0.1274 -0.0770 -0.1749
  112MOL0     C14712   7.664   4.560  10.361  0.1873  0.7039  0.5721
  112MOL0     C14713   7.760   4.592  10.247 -0.2372  0.5629 -0.4141
  112MOL0     C14714   7.841   4.463  10.223  0.3321 -0.1310 -0.5445
  112MOL0     C14715   7.762   4.350  10.175  0.8349  0.0082 -0.0890
  112MOL0     C14716   7.714   4.242  10.150  0.2959  0.2551 -0.2835
  112MOL0     C14717   7.330   4.678  10.256  0.8815 -1.3740 -0.6827
  112MOL0     C14718   7.196   4.678  10.195 -0.4671  0.0368 -0.2756
  112MOL0     H14719   6.685   4.600  10.130  1.0816 -0.3059 -0.4833
  112MOL0     H14720   6.460   4.713  10.075 -0.5315  0.7294  0.7285
  112MOL0     H14721   6.270   4.758  10.109 -0.2934 -0.3863  0.6053
  112MOL0     H14722   6.332   4.883   9.996 -1.1462  1.5889  0.0682
  112MOL0     H14723   6.163   5.034  10.076 -1.4364 -0.9167 -3.0203
  112MOL0     H14724   6.093   4.911  10.182 -2.2278  0.5963 -1.6761
  112MOL0     H14725   6.056   4.759   9.986 -1.4443  1.4790 -0.7798
  112MOL0     H14726   6.127   4.883   9.884  1.0017  1.9250  1.0141
  112MOL0     H14727   5.879   4.895  10.056 -1.4145 -2.1277 -0.4734
  112MOL0     H14728   5.942   5.024   9.944  1.1150  0.1818  1.9105
  112MOL0     H14729   5.822   4.757   9.872 -2.0152  0.9089  1.4713
  112MOL0     H14730   5.905   4.862   9.763  1.8608 -2.4683  1.8354
  112MOL0     H14731   5.685   4.895   9.732  0.2442 -1.5544  1.3178
  112MOL0     H14732   5.763   5.043   9.796 -1.0899  1.0632  1.0109
  112MOL0     H14733   5.614   4.864   9.987  0.9546  0.0328  0.7890
  112MOL0     H14734   5.674   5.022  10.022 -0.3340  0.2458 -0.5627
  112MOL0     H14735   5.487   5.127   9.890 -0.3364  0.2051  0.4012
  112MOL0     H14736   5.427   5.005   9.987 -2.0876 -1.1421 -3.3470
  112MOL0     H14737   5.441   4.718   9.830 -1.2648 -0.9808 -0.3417
  112MOL0     H14738   5.373   4.602   9.599 -1.4558 -1.5851  2.5057
  112MOL0     H14739   5.250   4.688   9.504  0.7262 -0.7871  0.2447
  112MOL0     H14740   5.208   4.545   9.774  1.6278  3.8198  1.9544
  112MOL0     H14741   5.135   4.527   9.616  0.4348  0.4566  0.2997
  112MOL0     H14742   5.108   4.758   9.813 -1.5117  0.6889  0.1818
  112MOL0     H14743   5.035   4.765   9.662  0.5254  0.5013  0.9941
  112MOL0     H14744   4.972   4.532   9.849 -2.3917  0.3806  1.5268
  112MOL0     H14745   4.876   4.562   9.711  1.1936 -0.5755 -0.8070
  112MOL0     H14746   4.761   4.448   9.902  1.8142  1.2878 -1.2920
  112MOL0     H14747   4.529   4.404  10.009  1.8000 -0.2406 -0.6437
  112MOL0     H14748   4.268   4.335  10.342  1.1549  3.4726 -1.2477
  112MOL0     H14749   4.047   4.243  10.420 -1.3098 -2.1841 -2.0221
  112MOL0     H14750   3.809   4.290  10.487 -1.3204  0.1082  1.1239
  112MOL0     H14751   3.824   4.132  10.399 -1.4930 -0.7245  0.6472
  112MOL0     H14752   3.598   4.108  10.380 -1.1889  0.0582 -1.1618
  112MOL0     H14753   3.572   4.284  10.367 -0.3840 -0.0637  0.9641
  112MOL0     H14754   3.629   4.297  10.616  3.9166 -1.7609  1.4992
  112MOL0     H14755   3.647   4.124  10.619  0.5597 -0.0755  0.8083
  112MOL0     H14756   3.393   4.243  10.498 -1.3585 -1.2722 -1.7280
  112MOL0     H14757   3.438   4.071  10.532  1.0079  0.6511  0.1319
  112MOL0     H14758   3.290   4.208  10.705  1.5131  3.7314 -1.7624
  112MOL0     H14759   3.439   4.265  10.754 -1.0097  0.7641 -1.9170
  112MOL0     H14760   3.534   4.032  10.805  0.1860 -1.2905 -1.1871
  112MOL0     H14761   3.364   3.971  10.797 -2.2379  1.8603 -0.5036
  112MOL0     H14762   3.429   4.007  11.016 -2.0489 -1.3414 -0.6668
  112MOL0     H14763   3.470   4.178  10.994 -1.2982  1.3041 -1.1616
  112MOL0     H14764   3.225   4.217  10.950 -2.8122 -1.5628 -0.5163
  112MOL0     H14765   3.245   4.146  11.102 -0.7637 -1.1211  0.6459
  112MOL0     H14766   3.840   4.438  10.100 -1.8725 -0.9692  0.7342
  112MOL0     H14767   4.080   4.529  10.017  1.0949  0.9218  0.4330
  112MOL0     H14768   4.457   4.823  10.037  2.3398  2.3211  2.8674
  112MOL0     H14769   4.676   4.865   9.925 -0.2047  1.7594  2.8028
  112MOL0     H14770   6.531   4.987  10.393  2.4584  1.8762 -0.9444
  112MOL0     H14771   6.733   4.894  10.447 -1.6214  2.6853  0.7079
  112MOL0     H14772   7.017   4.638  10.493 -0.1539 -0.7969  0.5058
  112MOL0     H14773   7.234   4.618  10.580 -0.3451  1.1544  0.1476
  112MOL0     H14774   7.653   4.739  10.472  1.5296 -1.0270 -1.0131
  112MOL0     H14775   7.582   4.748  10.316  2.9129  1.3445  0.5557
  112MOL0     H14776   7.712   4.515  10.448 -0.3270 -0.2243  0.3937
  112MOL0     H14777   7.595   4.485  10.321  1.5171 -1.0186  1.3662
  112MOL0     H14778   7.828   4.673  10.275 -2.1558  2.1701 -0.1436
  112MOL0     H14779   7.710   4.618  10.153  0.4910  0.9387 -0.7060
  112MOL0     H14780   7.925   4.473  10.153 -1.6635 -1.4653 -3.3103
  112MOL0     H14781   7.881   4.432  10.320 -2.7004  0.2925  0.9657
  112MOL0     H14782   7.658   4.153  10.128 -1.0269  1.1453 -0.7153
  112MOL0     H14783   7.416   4.684  10.190  1.3597  1.1355  0.0498
  112MOL0     H14784   7.192   4.683  10.087 -2.1041  0.3156 -0.2247
  113MOL0     O14785   1.888   9.863   5.788 -0.0712  0.2462  0.6125
  113MOL0     C14786   1.975   9.784   5.749  0.4830 -0.1647 -0.3454
  113MOL0     O14787   1.949   9.663   5.692  0.5330  0.2034 -0.3494
  113MOL0     C14788   1.821   9.603   5.687 -0.4767  0.4095  0.3141
  113MOL0     C14789   1.700   9.658   5.649  0.4007 -0.5080  0.6158
  113MOL0     C14790   1.588   9.582   5.615 -0.4159 -0.5425 -0.5953
  113MOL0     C14791   1.588   9.441   5.637 -1.3659  0.0275 -0.5032
  113MOL0     O14792   1.482   9.355   5.629 -0.7008  1.2936 -0.1256
  113MOL0     C14793   1.347   9.401   5.626  0.2778 -0.8865 -0.1733
  113MOL0     C14794   1.258   9.278   5.661  0.1178 -0.3192 -0.1822
  113MOL0     C14795   1.111   9.327   5.664 -0.4368  0.3939 -0.2121
  113MOL0     C14796   1.031   9.215   5.726  0.1788 -0.5562  0.2051
  113MOL0     C14797   0.881   9.230   5.697  0.1982 -0.4798 -0.2116
  113MOL0     C14798   0.808   9.099   5.719 -0.9730  0.0919 -0.1620
  113MOL0     C14799   0.654   9.132   5.706  0.4222  0.4157  0.3206
  113MOL0     C14800   0.601   9.222   5.821  0.1611 -0.1605 -0.8236
  113MOL0     N14801   0.461   9.239   5.794 -0.3493 -0.5747 -0.2269
  113MOL0     C14802   0.403   9.302   5.689 -0.1335 -0.0074  0.2076
  113MOL0     C14803   0.270   9.284   5.704  0.7256  0.4181  0.2522
  113MOL0     C14804   0.163   9.333   5.603 -0.3176 -0.1838 -0.6530
  113MOL0     C14805   0.208   9.291   5.459  0.2544 -0.0615  0.1331
  113MOL0     C14806   0.098   9.284   5.351  0.4692  0.1976 -1.0440
  113MOL0     C14807  -0.020   9.198   5.389  0.4647  0.2138 -0.5088
  113MOL0     O14808   0.028   9.068   5.413 -0.5504 -0.2971  0.1702
  113MOL0     C14809  -0.061   8.973   5.432  0.2072 -0.1661 -0.1853
  113MOL0     C14810  -0.200   8.991   5.461  0.8260  0.3459 -0.0445
  113MOL0     C14811  -0.282   8.884   5.490  0.2172  0.1435  1.1914
  113MOL0     C14812  -0.232   8.749   5.479  0.1512 -0.2202  0.3473
  113MOL0     C14813  -0.319   8.634   5.497  0.1152 -0.1806 -0.7553
  113MOL0     O14814  -0.450   8.653   5.524 -0.0586 -0.5477  0.1117
  113MOL0     C14815  -0.526   8.549   5.558 -0.4597 -0.8857 -0.0375
  113MOL0     C14816  -0.644   8.522   5.485 -0.2680 -0.0871 -0.1379
  113MOL0     C14817  -0.726   8.422   5.538 -0.1383  0.2687  0.3999
  113MOL0     C14818  -0.694   8.353   5.653  0.3171 -0.9428 -0.8067
  113MOL0     O14819  -0.787   8.267   5.702  0.4417 -0.1889  0.1715
  113MOL0     C14820  -0.763   8.218   5.836  0.6298  0.2812  0.7319
  113MOL0     C14821  -0.880   8.135   5.878  0.4262 -0.0984 -0.3150
  113MOL0     C14822  -1.007   8.219   5.908 -0.4411 -0.0319 -0.1841
  113MOL0     C14823  -1.137   8.138   5.912  0.5360  0.0392  0.1681
  113MOL0     C14824  -1.161   8.074   6.051 -0.1893 -0.2252 -0.3281
  113MOL0     C14825  -1.278   7.983   6.039  0.5348  0.0784  1.0001
  113MOL0     C14826  -1.420   8.044   6.043 -0.4066 -0.7274 -0.6067
  113MOL0     C14827  -1.525   7.944   6.000 -0.3483 -0.1500  0.0570
  113MOL0    Cl14828  -1.494   7.882   5.827 -0.4431 -0.1542 -0.0590
  113MOL0     C14829  -0.568   8.377   5.712  0.0189  0.5690  0.0727
  113MOL0     C14830  -0.486   8.479   5.674 -0.3153  0.0343  0.0841
  113MOL0     O14831  -0.268   8.523   5.487  0.4769  0.1577 -0.0611
  113MOL0     C14832  -0.098   8.736   5.437  0.3356  0.2484  0.4120
  113MOL0     C14833  -0.015   8.844   5.415  0.5513  0.2575 -0.0023
  113MOL0     N14834   0.247   9.201   5.806  0.3366 -0.1618 -0.1786
  113MOL0     N14835   0.359   9.179   5.868  0.3900  0.7870 -0.4751
  113MOL0     C14836   1.709   9.386   5.683 -0.7032  0.1002  0.5760
  113MOL0     C14837   1.821   9.465   5.709  0.3672 -0.6503  0.0113
  113MOL0     C14838   2.114   9.825   5.770 -1.3326  0.2463  0.2207
  113MOL0     C14839   2.152   9.960   5.802 -0.3008 -0.0346 -0.1144
  113MOL0     C14840   2.284   9.993   5.833  0.2281 -0.2664 -0.2293
  113MOL0     C14841   2.375   9.890   5.841 -0.6748  0.3325  1.1661
  113MOL0     O14842   2.515   9.909   5.865 -0.2399 -0.2224  0.3827
  113MOL0     C14843   2.564  10.038   5.900  0.3483  0.3966  0.9624
  113MOL0     C14844   2.710  10.032   5.923  0.3666  0.5703 -0.2469
  113MOL0     C14845   2.756  10.158   5.996  0.1947 -0.9710 -0.1659
  113MOL0     C14846   2.828  10.249   5.900 -0.3171 -0.8360  1.0456
  113MOL0     C14847   2.752  10.303   5.789  0.0211 -0.4102  0.6260
  113MOL0     C14848   2.674  10.340   5.703 -0.3011 -0.0984  0.4726
  113MOL0     C14849   2.334   9.764   5.809  0.0038  0.7922 -0.3931
  113MOL0     C14850   2.205   9.728   5.772 -1.0861 -0.6422  0.1416
  113MOL0     H14851   1.713   9.763   5.623 -1.1193 -0.4704 -0.0515
  113MOL0     H14852   1.502   9.641   5.583  0.1108  1.6987  1.8179
  113MOL0     H14853   1.326   9.439   5.526  0.8565 -1.1657 -0.4041
  113MOL0     H14854   1.333   9.480   5.700  2.6111 -0.8812  0.3434
  113MOL0     H14855   1.279   9.229   5.756 -3.1397 -0.8975  0.3733
  113MOL0     H14856   1.274   9.197   5.589  1.7859 -0.9184  0.8261
  113MOL0     H14857   1.071   9.347   5.564  0.3333 -1.4296 -0.9177
  113MOL0     H14858   1.089   9.415   5.726 -1.9465  1.4666 -2.1185
  113MOL0     H14859   1.059   9.116   5.688 -1.4313 -1.1415  0.4726
  113MOL0     H14860   1.058   9.212   5.832 -1.0034  0.3799  0.5502
  113MOL0     H14861   0.870   9.256   5.591 -0.0902 -0.3697 -0.1551
  113MOL0     H14862   0.843   9.314   5.755  1.3502 -1.5336  2.2239
  113MOL0     H14863   0.827   9.060   5.819 -1.5920  0.1918 -0.0031
  113MOL0     H14864   0.832   9.031   5.636 -3.4558  0.3296 -1.1719
  113MOL0     H14865   0.624   9.167   5.607 -0.9950 -0.2795  0.4718
  113MOL0     H14866   0.588   9.045   5.717 -1.3362  1.8037  1.2606
  113MOL0     H14867   0.643   9.323   5.827 -0.6230  0.1807 -0.8812
  113MOL0     H14868   0.611   9.166   5.914  0.6218  1.0570 -0.1301
  113MOL0     H14869   0.444   9.354   5.603 -1.8806 -2.3351 -2.1811
  113MOL0     H14870   0.137   9.437   5.622 -1.3745 -0.8341  2.0623
  113MOL0     H14871   0.079   9.265   5.625 -0.1778 -0.5904 -1.3475
  113MOL0     H14872   0.254   9.192   5.461 -0.2683 -0.3500 -1.1970
  113MOL0     H14873   0.285   9.362   5.428 -1.1207  0.5984 -2.0147
  113MOL0     H14874   0.058   9.386   5.345 -3.2194 -1.0172 -0.0721
  113MOL0     H14875   0.142   9.243   5.259  0.0810 -1.0658 -0.6928
  113MOL0     H14876  -0.087   9.196   5.302  0.6875  2.2439 -0.7971
  113MOL0     H14877  -0.078   9.240   5.472 -0.1296 -0.5436 -0.5238
  113MOL0     H14878  -0.251   9.086   5.474  0.4569 -0.0414  1.6628
  113MOL0     H14879  -0.380   8.910   5.529 -0.8675  1.0394 -1.8454
  113MOL0     H14880  -0.669   8.573   5.393 -2.2984  0.7160  0.8092
  113MOL0     H14881  -0.825   8.408   5.496 -0.2412  1.3757  0.2554
  113MOL0     H14882  -0.743   8.307   5.897 -0.9699  0.3095  1.2479
  113MOL0     H14883  -0.672   8.157   5.830  0.4574  0.0562  0.4514
  113MOL0     H14884  -0.856   8.076   5.967 -0.3733 -0.3052 -0.2266
  113MOL0     H14885  -0.906   8.057   5.805  1.3246 -1.3062  0.6143
  113MOL0     H14886  -1.026   8.293   5.829 -2.3294  2.1431  2.1472
  113MOL0     H14887  -0.994   8.283   5.996 -1.3105 -0.7117  0.4506
  113MOL0     H14888  -1.218   8.200   5.872  0.2850  0.1121  0.7853
  113MOL0     H14889  -1.134   8.056   5.839  2.6572 -0.3963  0.7043
  113MOL0     H14890  -1.173   8.141   6.137 -1.5429 -1.2936  0.3445
  113MOL0     H14891  -1.076   8.008   6.075  2.7096  2.4473 -2.4802
  113MOL0     H14892  -1.265   7.912   6.121 -2.4589 -1.1852  0.5113
  113MOL0     H14893  -1.261   7.922   5.949 -0.4937 -1.1012  1.5818
  113MOL0     H14894  -1.431   8.059   6.150  0.1749 -3.6436 -0.0466
  113MOL0     H14895  -1.438   8.129   5.976 -2.8636  0.3615  1.3018
  113MOL0     H14896  -1.616   8.005   5.995  1.7095  3.0283 -2.9186
  113MOL0     H14897  -1.549   7.859   6.065 -1.4917 -1.6308 -2.2000
  113MOL0     H14898  -0.545   8.324   5.805 -0.9114 -0.9357 -0.5153
  113MOL0     H14899  -0.395   8.486   5.733 -1.5818 -0.2571  2.1755
  113MOL0     H14900  -0.063   8.633   5.430 -1.7093 -0.4010 -1.2325
  113MOL0     H14901   0.091   8.831   5.397  0.5996  0.8704 -0.1864
  113MOL0     H14902   1.716   9.278   5.686  0.8493  0.0513 -2.0222
  113MOL0     H14903   1.914   9.415   5.735  0.6037 -0.9185 -1.2624
  113MOL0     H14904   2.076  10.036   5.790 -0.7794 -0.5333 -0.2718
  113MOL0     H14905   2.318  10.095   5.847 -0.4980 -0.4168  3.9259
  113MOL0     H14906   2.510  10.063   5.992 -0.3701 -0.0332  0.6657
  113MOL0     H14907   2.537  10.118   5.831  0.1642 -0.9982 -0.6366
  113MOL0     H14908   2.725   9.948   5.992 -0.0166  0.1607 -0.6520
  113MOL0     H14909   2.767  10.007   5.834  1.2485  1.4874  0.0404
  113MOL0     H14910   2.818  10.120   6.077  2.0842  1.0663 -0.5467
  113MOL0     H14911   2.675  10.219   6.038  0.3025  0.3292 -1.7370
  113MOL0     H14912   2.886  10.326   5.952  1.9712 -0.7862 -1.3478
  113MOL0     H14913   2.908  10.193   5.850 -0.7271 -0.6126  0.1166
  113MOL0     H14914   2.620  10.352   5.611  1.4524  0.9532 -0.4942
  113MOL0     H14915   2.408   9.687   5.824 -1.4523 -0.4609  0.7992
  113MOL0     H14916   2.206   9.626   5.735  0.9188 -0.1817 -1.2069
  114MOL0     O14917   7.771  10.063   9.514 -0.2972 -0.3151 -0.0604
  114MOL0     C14918   7.736   9.968   9.451 -0.5205  0.1133 -0.0039
  114MOL0     O14919   7.617   9.935   9.407  0.5624 -0.2315 -0.2991
  114MOL0     C14920   7.516  10.028   9.380  0.3162  0.4500  0.5083
  114MOL0     C14921   7.535  10.159   9.348 -0.6700 -1.0311 -0.2161
  114MOL0     C14922   7.433  10.246   9.314 -0.5326 -0.5601  0.8131
  114MOL0     C14923   7.299  10.203   9.316 -1.0509 -0.8920 -0.4038
  114MOL0     O14924   7.191  10.284   9.296 -0.5192 -1.1053 -0.5758
  114MOL0     C14925   7.086  10.274   9.388  0.7239  0.0634  0.1153
  114MOL0     C14926   6.975  10.371   9.327  0.7211  0.1594 -0.0795
  114MOL0     C14927   6.922  10.318   9.193 -0.0016 -0.5743 -0.2646
  114MOL0     C14928   6.808  10.412   9.147 -0.1760  0.4402  0.9932
  114MOL0     C14929   6.792  10.413   8.994 -0.0132  0.1843  0.1130
  114MOL0     C14930   6.716  10.535   8.953  0.0346 -0.0416 -1.2238
  114MOL0     C14931   6.716  10.563   8.802 -0.3055 -0.2480  0.0941
  114MOL0     C14932   6.642  10.451   8.729  0.2854 -0.8032  0.8975
  114MOL0     N14933   6.501  10.438   8.767  0.2140 -0.9714  0.2375
  114MOL0     C14934   6.396  10.532   8.765  0.4518  0.1898 -0.5229
  114MOL0     C14935   6.302  10.462   8.840 -0.2664 -0.1987 -0.2318
  114MOL0     C14936   6.160  10.520   8.859 -0.0371  0.6919 -0.2822
  114MOL0     C14937   6.087  10.533   8.725 -0.3681  0.6556  0.5705
  114MOL0     C14938   5.953  10.603   8.738  0.4714  0.4832  0.2117
  114MOL0     C14939   5.851  10.506   8.786 -0.0420  1.3698  0.3169
  114MOL0     O14940   5.740  10.578   8.853 -0.2426  0.7578  0.2608
  114MOL0     C14941   5.612  10.538   8.848 -0.7383  0.5259 -0.7195
  114MOL0     C14942   5.522  10.622   8.905 -0.2030 -0.4014 -0.8718
  114MOL0     C14943   5.386  10.599   8.894  1.0439 -0.4338  0.5832
  114MOL0     C14944   5.329  10.500   8.819  0.1174 -0.2853 -0.3192
  114MOL0     C14945   5.187  10.485   8.815  0.3731  0.3156  0.6191
  114MOL0     O14946   5.113  10.589   8.867  0.2264  0.3868 -0.8390
  114MOL0     C14947   4.979  10.588   8.865  0.7719 -0.1281  0.7494
  114MOL0     C14948   4.897  10.564   8.752 -0.2484  0.4186  0.4213
  114MOL0     C14949   4.761  10.557   8.760 -0.3216 -0.5157  0.5552
  114MOL0     C14950   4.695  10.616   8.870 -0.2269 -0.4631  0.6125
  114MOL0     O14951   4.556  10.640   8.867 -0.1650 -0.1577 -0.1562
  114MOL0     C14952   4.517  10.772   8.904  1.1907 -0.6844 -0.8563
  114MOL0     C14953   4.430  10.745   9.034  0.6402  0.0946 -0.7616
  114MOL0     C14954   4.334  10.861   9.050  0.2892  0.6687 -0.4643
  114MOL0     C14955   4.403  10.990   9.097  0.3877  0.2871 -0.2349
  114MOL0     C14956   4.316  11.120   9.082 -0.1165 -0.2706 -0.1320
  114MOL0     C14957   4.407  11.248   9.075 -0.5856 -0.5379  0.4742
  114MOL0     C14958   4.324  11.372   9.084  0.4283  0.4234 -0.4224
  114MOL0     C14959   4.251  11.403   8.954  0.0467  1.6822  0.2905
  114MOL0    Cl14960   4.191  11.566   8.958 -0.0937 -0.0200  0.1425
  114MOL0     C14961   4.777  10.654   8.979 -0.4610  0.1574 -0.3607
  114MOL0     C14962   4.917  10.635   8.983 -0.1676  0.6647  0.0457
  114MOL0     O14963   5.141  10.379   8.767 -0.2392  0.1055 -0.4214
  114MOL0     C14964   5.424  10.423   8.748  0.4914  0.4768 -0.0658
  114MOL0     C14965   5.562  10.429   8.771 -0.5655  0.3011 -0.0151
  114MOL0     N14966   6.345  10.336   8.879  0.1705  0.0818 -0.3704
  114MOL0     N14967   6.464  10.331   8.841 -0.1618  0.6589  0.1155
  114MOL0     C14968   7.278  10.067   9.342  0.4249 -0.4684 -0.6627
  114MOL0     C14969   7.388   9.976   9.376  0.3797 -0.6687  0.1872
  114MOL0     C14970   7.838   9.858   9.429  0.0075  0.5795  0.5029
  114MOL0     C14971   7.970   9.870   9.469 -0.6092 -0.9548 -0.2580
  114MOL0     C14972   8.059   9.760   9.456 -0.4456  0.1323 -0.4020
  114MOL0     C14973   8.019   9.641   9.396 -0.9245  0.1780 -0.0049
  114MOL0     O14974   8.115   9.544   9.384 -0.3866 -0.2609  0.1541
  114MOL0     C14975   8.185   9.543   9.256  0.7845  0.2934 -0.1640
  114MOL0     C14976   8.319   9.613   9.267 -0.7051  0.3648  0.1518
  114MOL0     C14977   8.402   9.545   9.374  0.4312  0.3901  0.3274
  114MOL0     C14978   8.456   9.405   9.338 -0.6079 -0.5554 -1.2529
  114MOL0     C14979   8.534   9.343   9.451  0.2735 -0.2036 -0.0355
  114MOL0     C14980   8.608   9.303   9.543  0.9308 -0.3000 -0.3632
  114MOL0     C14981   7.888   9.628   9.348  0.6523 -0.0398 -1.3216
  114MOL0     C14982   7.798   9.739   9.368  0.8904  0.7164  0.5585
  114MOL0     H14983   7.632  10.207   9.354 -0.3889 -1.6413  0.3117
  114MOL0     H14984   7.455  10.350   9.292 -2.4285  0.0201  1.4410
  114MOL0     H14985   7.119  10.316   9.483  0.9825 -1.1908  0.5832
  114MOL0     H14986   7.044  10.175   9.405  2.7358 -0.9919 -0.7059
  114MOL0     H14987   7.009  10.474   9.321 -0.3253  0.8107  3.0201
  114MOL0     H14988   6.895  10.384   9.401  2.6083  4.2122  1.5199
  114MOL0     H14989   6.871  10.223   9.209 -2.1224  0.3200 -1.4195
  114MOL0     H14990   7.010  10.315   9.128  0.8235  0.6000  0.7432
  114MOL0     H14991   6.719  10.388   9.206 -0.4986  1.9949  1.1878
  114MOL0     H14992   6.841  10.510   9.184 -0.0604 -0.4390  3.4155
  114MOL0     H14993   6.733  10.326   8.966 -1.1768  0.3879  1.7666
  114MOL0     H14994   6.888  10.409   8.941  0.2067  2.4728  0.2188
  114MOL0     H14995   6.746  10.627   9.004 -4.1993  0.1904  1.2579
  114MOL0     H14996   6.611  10.523   8.981 -0.3484 -0.9301 -2.9199
  114MOL0     H14997   6.661  10.657   8.789 -0.0379 -0.0985  0.0219
  114MOL0     H14998   6.817  10.585   8.765  1.0565 -2.3962  2.2634
  114MOL0     H14999   6.691  10.357   8.756  1.7039 -0.8306 -1.4603
  114MOL0     H15000   6.641  10.475   8.622 -0.9598  0.1903  1.1093
  114MOL0     H15001   6.392  10.621   8.703  0.3268  0.1131 -0.6226
  114MOL0     H15002   6.166  10.619   8.904  0.7304 -0.6584  2.8403
  114MOL0     H15003   6.097  10.463   8.927 -2.3995  2.3954 -0.8972
  114MOL0     H15004   6.067  10.437   8.678 -0.3969  2.0655 -2.5208
  114MOL0     H15005   6.152  10.589   8.657 -3.2489  1.4691 -1.6992
  114MOL0     H15006   5.962  10.690   8.803 -2.0878  1.4644 -0.6329
  114MOL0     H15007   5.927  10.650   8.642  3.9627 -0.1363 -1.1933
  114MOL0     H15008   5.893  10.440   8.863  0.7145 -2.3571 -2.9777
  114MOL0     H15009   5.815  10.443   8.705 -2.1061  1.1677  1.3238
  114MOL0     H15010   5.559  10.711   8.955 -2.3436  1.0440 -1.7178
  114MOL0     H15011   5.318  10.660   8.952  2.1626  1.4881 -0.0280
  114MOL0     H15012   4.945  10.537   8.659  0.8242  3.1103  0.0915
  114MOL0     H15013   4.696  10.532   8.677  0.7511 -0.8925 -0.1901
  114MOL0     H15014   4.449  10.821   8.834  1.4691 -0.1004 -0.7217
  114MOL0     H15015   4.596  10.842   8.932  0.7783 -0.3918 -0.4159
  114MOL0     H15016   4.488  10.741   9.127 -0.0546  2.1528 -0.1639
  114MOL0     H15017   4.370  10.654   9.023 -0.1666  0.5668 -0.3366
  114MOL0     H15018   4.259  10.841   9.127  0.8404  0.6133  0.0649
  114MOL0     H15019   4.286  10.892   8.957  1.5013  1.3149 -0.9009
  114MOL0     H15020   4.443  10.980   9.198 -1.2757 -2.5535  0.2504
  114MOL0     H15021   4.488  11.010   9.030 -1.8359  1.0896 -3.0113
  114MOL0     H15022   4.240  11.117   9.161 -0.5453 -2.0575 -0.5710
  114MOL0     H15023   4.258  11.117   8.990 -1.8700  1.3325  0.8460
  114MOL0     H15024   4.463  11.249   8.981 -0.2591 -0.1510  0.6713
  114MOL0     H15025   4.476  11.256   9.159  1.6150 -0.7577 -1.2353
  114MOL0     H15026   4.255  11.361   9.168  0.7334  4.1188  0.4453
  114MOL0     H15027   4.383  11.462   9.103  1.3168 -0.5152  1.6530
  114MOL0     H15028   4.170  11.330   8.940  1.4159  0.3554 -1.0166
  114MOL0     H15029   4.324  11.385   8.875  1.9794  1.5245  2.0450
  114MOL0     H15030   4.729  10.704   9.062  0.8229 -1.4264  1.4158
  114MOL0     H15031   4.988  10.655   9.063 -0.5447  0.0315  0.5428
  114MOL0     H15032   5.387  10.329   8.707  0.8893 -0.4910  1.6901
  114MOL0     H15033   5.625  10.354   8.725 -0.2703  2.3368 -3.2740
  114MOL0     H15034   7.179  10.024   9.329 -0.6482  1.7423 -0.3268
  114MOL0     H15035   7.371   9.869   9.383 -0.2152 -0.6877 -1.1212
  114MOL0     H15036   7.999   9.969   9.501 -1.4652 -0.5611 -0.6642
  114MOL0     H15037   8.164   9.772   9.480 -0.3849 -1.3193  0.1211
  114MOL0     H15038   8.130   9.583   9.170  1.4411 -0.9635 -1.2025
  114MOL0     H15039   8.202   9.438   9.230  0.1628 -0.0767  0.8698
  114MOL0     H15040   8.368   9.608   9.169 -3.0917 -0.6107 -1.0769
  114MOL0     H15041   8.306   9.719   9.288  3.2426  1.2115 -0.7662
  114MOL0     H15042   8.360   9.540   9.474  2.8215  1.8757  1.5154
  114MOL0     H15043   8.490   9.610   9.387 -0.1549  1.0302  1.1273
  114MOL0     H15044   8.372   9.339   9.315 -0.8436 -0.5424 -0.4605
  114MOL0     H15045   8.520   9.422   9.251  0.5527  1.5841 -0.0784
  114MOL0     H15046   8.676   9.286   9.624  0.1805  2.0151  0.8380
  114MOL0     H15047   7.862   9.528   9.317  0.0378  0.0187 -0.9988
  114MOL0     H15048   7.693   9.726   9.345  0.6226  1.5996  1.2303
  115MOL0     O15049   9.244   5.926  10.367  0.3383 -0.0126 -0.8342
  115MOL0     C15050   9.353   5.867  10.369 -0.0634  0.2465  0.5823
  115MOL0     O15051   9.421   5.830  10.263 -0.4394  0.7615 -0.0704
  115MOL0     C15052   9.361   5.823  10.141  0.9225  0.0147  1.0392
  115MOL0     C15053   9.226   5.777  10.113  0.0612 -0.6472 -0.6379
  115MOL0     C15054   9.174   5.768   9.985 -0.3713 -0.5391 -0.1336
  115MOL0     C15055   9.262   5.765   9.881 -0.3662  0.0479 -0.4341
  115MOL0     O15056   9.203   5.722   9.763 -1.1768  0.5365  0.1204
  115MOL0     C15057   9.271   5.775   9.653  0.7158 -0.6084  0.0737
  115MOL0     C15058   9.182   5.756   9.536 -0.0733 -0.5862 -0.7067
  115MOL0     C15059   9.056   5.840   9.550  0.4236 -0.5594  0.3473
  115MOL0     C15060   8.961   5.835   9.433  0.7365  0.5592  0.3378
  115MOL0     C15061   8.817   5.886   9.471 -0.6818 -0.7862  0.5712
  115MOL0     C15062   8.715   5.870   9.366 -0.3291  0.9202 -0.7113
  115MOL0     C15063   8.571   5.908   9.410  0.4192 -0.1255 -0.1291
  115MOL0     C15064   8.463   5.869   9.306  0.6349  1.1070 -0.3114
  115MOL0     N15065   8.332   5.900   9.355  0.5236  0.8823 -0.2484
  115MOL0     C15066   8.217   5.823   9.334 -0.1290 -0.2381 -0.5706
  115MOL0     C15067   8.122   5.889   9.402  0.7353  0.5376 -0.0739
  115MOL0     C15068   7.983   5.838   9.421 -0.6820 -0.1050 -0.0341
  115MOL0     C15069   7.889   5.950   9.459 -0.1827  0.4114 -0.9505
  115MOL0     C15070   7.888   6.049   9.340 -0.9875 -0.0732 -0.7005
  115MOL0     C15071   7.774   6.150   9.351 -0.9517 -0.2887  0.3760
  115MOL0     O15072   7.640   6.100   9.320 -0.3049 -0.0485 -0.0454
  115MOL0     C15073   7.540   6.187   9.335 -0.0389 -0.3084  1.1107
  115MOL0     C15074   7.417   6.130   9.378  0.9333  0.1985 -0.2845
  115MOL0     C15075   7.298   6.211   9.389  0.0143  0.3093  0.2434
  115MOL0     C15076   7.304   6.348   9.365  0.3974 -0.3592 -0.2714
  115MOL0     C15077   7.178   6.424   9.383  0.3453  0.3595  0.3780
  115MOL0     O15078   7.066   6.356   9.432 -0.1313  0.2983 -1.0338
  115MOL0     C15079   6.938   6.400   9.430 -0.0271 -0.4558 -0.5149
  115MOL0     C15080   6.855   6.344   9.521  0.1522 -0.1143  0.1699
  115MOL0     C15081   6.725   6.376   9.518 -1.0521  0.0146 -0.2667
  115MOL0     C15082   6.672   6.483   9.440  0.4888 -0.7165 -0.1678
  115MOL0     O15083   6.535   6.518   9.444 -0.1601  0.2388  0.0430
  115MOL0     C15084   6.472   6.520   9.566 -0.2126 -0.0909  0.9210
  115MOL0     C15085   6.349   6.604   9.546 -0.2148 -0.0372 -0.1548
  115MOL0     C15086   6.249   6.577   9.661  0.6102 -0.4518 -0.3561
  115MOL0     C15087   6.107   6.646   9.645 -0.0265  0.1024  0.3477
  115MOL0     C15088   6.023   6.620   9.773 -0.5184 -0.3797 -0.3115
  115MOL0     C15089   5.874   6.653   9.762  0.6393  0.6059 -0.6037
  115MOL0     C15090   5.835   6.793   9.718 -0.0953 -0.5496 -0.8005
  115MOL0     C15091   5.697   6.822   9.781  0.3195  0.1350 -0.0840
  115MOL0    Cl15092   5.651   6.996   9.781  0.1850 -0.4259  0.0154
  115MOL0     C15093   6.759   6.534   9.350 -0.3179 -0.5721 -0.4334
  115MOL0     C15094   6.890   6.491   9.339 -0.2982 -0.2245  0.2597
  115MOL0     O15095   7.172   6.548   9.338  0.4391 -0.4440 -0.8173
  115MOL0     C15096   7.425   6.408   9.319 -0.5604  0.2626 -0.2550
  115MOL0     C15097   7.541   6.330   9.301 -0.6742  0.3577 -1.2023
  115MOL0     N15098   8.181   5.997   9.463 -0.4104  0.5791  0.6590
  115MOL0     N15099   8.305   6.004   9.434  0.3833 -0.6137 -0.0193
  115MOL0     C15100   9.394   5.817   9.900  0.5970  0.8051 -0.3102
  115MOL0     C15101   9.442   5.852  10.032 -0.0643 -0.0672 -0.0072
  115MOL0     C15102   9.413   5.841  10.504  0.1505  0.1788 -0.4090
  115MOL0     C15103   9.551   5.806  10.512  0.0687  1.0059 -0.1764
  115MOL0     C15104   9.608   5.777  10.631 -0.4383 -0.8264  0.4271
  115MOL0     C15105   9.529   5.779  10.745 -0.4080  0.8933 -0.0399
  115MOL0     O15106   9.590   5.752  10.865 -0.7006  0.5613 -0.0668
  115MOL0     C15107   9.529   5.721  10.987  0.3373 -0.2521 -0.0720
  115MOL0     C15108   9.641   5.683  11.078  0.2075  0.5049 -0.0547
  115MOL0     C15109   9.607   5.664  11.223  0.2914 -0.8900 -0.0918
  115MOL0     C15110   9.583   5.799  11.294  0.2946 -0.8407  0.6202
  115MOL0     C15111   9.586   5.771  11.434 -0.6791  0.4949 -0.3202
  115MOL0     C15112   9.584   5.734  11.549 -0.1306 -0.4286  0.9254
  115MOL0     C15113   9.394   5.811  10.740  0.7416  0.1936  0.3849
  115MOL0     C15114   9.331   5.847  10.619 -0.7253  0.3792  0.2196
  115MOL0     H15115   9.159   5.761  10.196  0.4319 -1.7955 -0.5465
  115MOL0     H15116   9.074   5.737   9.957 -0.9195 -1.9756  3.0017
  115MOL0     H15117   9.357   5.710   9.634 -1.4466 -2.7882 -3.3068
  115MOL0     H15118   9.292   5.882   9.661 -2.5554  0.3106 -2.0464
  115MOL0     H15119   9.152   5.651   9.539 -3.0690  0.1978  0.1857
  115MOL0     H15120   9.240   5.775   9.445  2.6206  2.4375  1.3981
  115MOL0     H15121   9.089   5.943   9.565  2.9811 -1.3912  0.9524
  115MOL0     H15122   9.005   5.798   9.637  0.8885 -0.8515  0.4800
  115MOL0     H15123   8.993   5.883   9.340 -3.2777  1.7589 -0.6702
  115MOL0     H15124   8.947   5.728   9.420 -0.9321  0.6540  0.9708
  115MOL0     H15125   8.832   5.993   9.484 -0.8936 -0.5503 -1.0213
  115MOL0     H15126   8.783   5.837   9.563 -1.3355 -0.2463  0.6275
  115MOL0     H15127   8.701   5.762   9.358 -2.8761  0.9232  1.7776
  115MOL0     H15128   8.741   5.928   9.278 -1.2880  2.5356  0.0176
  115MOL0     H15129   8.545   5.857   9.503  3.3016 -2.3180 -0.3947
  115MOL0     H15130   8.576   6.015   9.431 -2.4285 -0.0897  0.9200
  115MOL0     H15131   8.455   5.761   9.288 -2.2240  0.8833  1.5481
  115MOL0     H15132   8.489   5.912   9.209  1.5767 -2.0000 -1.5611
  115MOL0     H15133   8.212   5.726   9.286  5.1850 -0.8068 -0.6422
  115MOL0     H15134   7.967   5.753   9.487 -1.4890 -0.8502 -1.1557
  115MOL0     H15135   7.945   5.794   9.328  2.0045 -1.7822 -0.4393
  115MOL0     H15136   7.918   6.003   9.550 -0.7203  0.9067 -1.0648
  115MOL0     H15137   7.787   5.912   9.469 -0.5733  2.0232  4.0474
  115MOL0     H15138   7.980   6.108   9.341  0.5597 -2.3004 -2.7455
  115MOL0     H15139   7.874   6.008   9.240 -0.8574  0.8587 -1.1072
  115MOL0     H15140   7.792   6.224   9.273 -1.7220  1.5707  1.8891
  115MOL0     H15141   7.789   6.196   9.449 -0.6064 -1.8694  1.1127
  115MOL0     H15142   7.398   6.025   9.397 -2.1870  1.3068  4.2053
  115MOL0     H15143   7.202   6.165   9.414 -0.6088  2.1644  1.4175
  115MOL0     H15144   6.892   6.258   9.576  1.8441  0.7863  0.5050
  115MOL0     H15145   6.658   6.317   9.581 -1.3841 -1.2632 -1.7594
  115MOL0     H15146   6.538   6.563   9.641  1.0458  0.7445 -0.6055
  115MOL0     H15147   6.437   6.420   9.593 -2.0201 -0.3281 -1.8716
  115MOL0     H15148   6.292   6.574   9.457  1.1343 -1.7781 -0.4870
  115MOL0     H15149   6.377   6.710   9.547 -1.3134  0.2627  0.1743
  115MOL0     H15150   6.296   6.592   9.758  2.7256 -1.7740 -1.1033
  115MOL0     H15151   6.221   6.472   9.663 -0.6591 -0.1752 -1.7034
  115MOL0     H15152   6.114   6.753   9.622 -0.2769 -0.4547 -2.8954
  115MOL0     H15153   6.049   6.601   9.564 -0.9243 -0.5588  1.3350
  115MOL0     H15154   6.071   6.679   9.851  0.0637 -0.6312 -0.4750
  115MOL0     H15155   6.022   6.517   9.810  3.1616  0.3830  2.4040
  115MOL0     H15156   5.830   6.626   9.859  2.3449  1.7609  0.5554
  115MOL0     H15157   5.820   6.594   9.688  0.4705  1.0055 -0.8005
  115MOL0     H15158   5.911   6.857   9.763  2.3654 -3.3465 -0.7372
  115MOL0     H15159   5.837   6.812   9.610 -0.0436  0.0355 -0.7021
  115MOL0     H15160   5.696   6.788   9.885 -2.4034 -3.2869 -1.0461
  115MOL0     H15161   5.623   6.761   9.728  4.2191 -2.9312 -2.6350
  115MOL0     H15162   6.729   6.619   9.290 -0.7358  0.0005  0.5682
  115MOL0     H15163   6.946   6.531   9.256 -1.2230  1.1071  0.2446
  115MOL0     H15164   7.424   6.508   9.276 -0.3445 -0.7486 -2.7497
  115MOL0     H15165   7.627   6.376   9.252 -0.4304  1.2620  0.0291
  115MOL0     H15166   9.464   5.826   9.818 -0.8244 -1.3294 -1.8359
  115MOL0     H15167   9.540   5.897  10.041 -0.3175  0.5313 -0.2035
  115MOL0     H15168   9.605   5.810  10.418 -1.0693  2.4678 -0.8001
  115MOL0     H15169   9.716   5.770  10.634 -0.0721  1.2699 -3.0517
  115MOL0     H15170   9.449   5.646  10.989  0.6717 -0.6071  0.2187
  115MOL0     H15171   9.468   5.805  11.020  0.6346  0.3884 -1.1120
  115MOL0     H15172   9.672   5.587  11.035 -0.9256 -0.0411  0.2964
  115MOL0     H15173   9.733   5.742  11.077  0.5470  0.0064  0.9110
  115MOL0     H15174   9.695   5.617  11.269  0.6592 -0.2356 -0.1188
  115MOL0     H15175   9.517   5.604  11.237 -0.4343  0.3555  0.6710
  115MOL0     H15176   9.655   5.878  11.273  0.0859 -0.9908 -0.7788
  115MOL0     H15177   9.485   5.839  11.266 -0.3264 -1.3775  1.9149
  115MOL0     H15178   9.582   5.697  11.649  1.3535 -1.1311  0.7258
  115MOL0     H15179   9.342   5.813  10.835 -0.1645 -0.2739 -0.0881
  115MOL0     H15180   9.224   5.860  10.609 -1.1756 -1.4943  1.9702
  116MOL0     O15181   4.971   6.976   8.699 -0.6452 -0.8354  0.0148
  116MOL0     C15182   5.048   7.071   8.706 -0.1772 -0.4292  0.0878
  116MOL0     O15183   5.028   7.197   8.768 -1.3625 -0.1859 -0.4412
  116MOL0     C15184   4.919   7.221   8.838 -0.2280 -0.2945  0.5036
  116MOL0     C15185   4.866   7.347   8.826 -0.2807  0.1202  0.2402
  116MOL0     C15186   4.744   7.376   8.897 -0.1245 -0.2472 -0.6165
  116MOL0     C15187   4.685   7.281   8.984 -0.3892 -0.2372  0.6834
  116MOL0     O15188   4.573   7.324   9.057 -0.3692  0.4995  0.0266
  116MOL0     C15189   4.472   7.237   9.103 -0.8543  0.7415 -0.6728
  116MOL0     C15190   4.361   7.218   9.008  0.4287 -0.0332 -0.0723
  116MOL0     C15191   4.240   7.142   9.068 -0.3387 -0.4171 -0.2662
  116MOL0     C15192   4.129   7.099   8.967 -0.8769  0.9470 -0.8462
  116MOL0     C15193   4.012   7.021   9.032  0.1445  0.9035 -0.1889
  116MOL0     C15194   3.944   6.926   8.940  0.7194 -0.1771  0.4673
  116MOL0     C15195   3.848   6.840   9.024 -0.2675 -0.4393  0.2956
  116MOL0     C15196   3.774   6.740   8.939  0.1722  0.2558 -0.4963
  116MOL0     N15197   3.684   6.652   9.016  0.4320  0.0130  0.7364
  116MOL0     C15198   3.599   6.700   9.111 -0.0829 -0.3705 -0.1911
  116MOL0     C15199   3.546   6.587   9.165  1.0444 -0.1143 -0.0796
  116MOL0     C15200   3.431   6.592   9.276 -0.3482  0.1693 -0.1104
  116MOL0     C15201   3.294   6.581   9.216 -1.1136  0.9595 -0.1201
  116MOL0     C15202   3.234   6.708   9.163 -0.4047 -0.3130  0.1395
  116MOL0     C15203   3.154   6.692   9.031  0.4278 -0.2358  0.2192
  116MOL0     O15204   3.243   6.672   8.919 -0.6431  0.7487 -0.1932
  116MOL0     C15205   3.327   6.774   8.863 -0.4802 -0.5151 -0.4140
  116MOL0     C15206   3.306   6.910   8.894  0.6044 -0.1785 -0.5310
  116MOL0     C15207   3.388   7.010   8.834 -0.2800  0.0370 -0.0551
  116MOL0     C15208   3.492   6.979   8.747 -0.3971 -0.2554 -0.6854
  116MOL0     C15209   3.586   7.078   8.711  0.0751  0.4897  0.4033
  116MOL0     O15210   3.550   7.210   8.747 -0.6438 -0.5188 -0.1376
  116MOL0     C15211   3.652   7.299   8.781  0.6833 -0.4136  0.2650
  116MOL0     C15212   3.772   7.260   8.845  0.6976 -0.3714 -0.3731
  116MOL0     C15213   3.858   7.360   8.886 -0.4095 -0.7787  0.1250
  116MOL0     C15214   3.834   7.490   8.848 -0.4488 -0.3999  0.6681
  116MOL0     O15215   3.935   7.573   8.899  0.5455 -0.3968 -1.0360
  116MOL0     C15216   3.968   7.675   8.805  0.6262  0.0285 -0.0658
  116MOL0     C15217   4.104   7.739   8.846 -0.6517  0.6446 -0.0567
  116MOL0     C15218   4.232   7.644   8.836  0.0589  0.3076  0.6402
  116MOL0     C15219   4.364   7.696   8.901  1.0561 -0.6515 -0.0621
  116MOL0     C15220   4.410   7.820   8.824  0.3084  0.0232  0.3112
  116MOL0     C15221   4.526   7.890   8.892  0.4190 -0.7704 -0.2028
  116MOL0     C15222   4.649   7.789   8.921  0.7218 -0.4002 -0.5262
  116MOL0     C15223   4.760   7.855   8.998  0.7160 -0.0066 -0.6536
  116MOL0    Cl15224   4.841   7.985   8.906  0.3686  0.6253  0.2225
  116MOL0     C15225   3.722   7.526   8.791 -0.1682  0.2270  0.6982
  116MOL0     C15226   3.627   7.430   8.753 -1.3222  0.0181 -0.3004
  116MOL0     O15227   3.689   7.039   8.655 -0.8444 -0.9479  0.1983
  116MOL0     C15228   3.497   6.846   8.707 -0.2449  0.3984 -0.1977
  116MOL0     C15229   3.412   6.743   8.756 -0.1828 -0.3179 -0.3492
  116MOL0     N15230   3.601   6.476   9.094 -0.5090  0.0668  0.0227
  116MOL0     N15231   3.686   6.520   9.014  0.0282  0.2049 -0.1056
  116MOL0     C15232   4.739   7.158   8.988  0.4617  0.0028 -0.6649
  116MOL0     C15233   4.854   7.126   8.924  0.3304  0.1868 -0.2320
  116MOL0     C15234   5.182   7.031   8.642  0.4773  0.5873  0.0914
  116MOL0     C15235   5.209   6.905   8.590  0.2610 -0.4602 -0.2330
  116MOL0     C15236   5.341   6.873   8.534  0.2784  0.1213 -0.7404
  116MOL0     C15237   5.443   6.975   8.538 -0.7527  0.0036  0.6893
  116MOL0     O15238   5.576   6.957   8.502  0.3799  0.0538  0.2510
  116MOL0     C15239   5.609   6.846   8.416  0.6790  0.2639  1.0289
  116MOL0     C15240   5.552   6.845   8.271 -0.1284  0.5606  0.5643
  116MOL0     C15241   5.545   6.992   8.220  0.7866  1.7732 -0.1391
  116MOL0     C15242   5.677   7.064   8.227 -0.6107 -0.1850 -0.2711
  116MOL0     C15243   5.780   6.995   8.149  0.1250 -1.3123  0.3939
  116MOL0     C15244   5.873   6.951   8.086  0.1467 -0.2098  0.1684
  116MOL0     C15245   5.418   7.095   8.605  0.1861 -0.3559  0.1239
  116MOL0     C15246   5.283   7.126   8.650 -0.2154 -0.0784  0.0808
  116MOL0     H15247   4.907   7.426   8.765 -1.7543  0.7613  0.0612
  116MOL0     H15248   4.704   7.476   8.879 -2.1568 -1.4789 -3.6883
  116MOL0     H15249   4.425   7.291   9.186  0.0174  0.2525  0.1638
  116MOL0     H15250   4.518   7.141   9.129  0.2079  1.2840 -0.4788
  116MOL0     H15251   4.394   7.166   8.917 -0.2845 -1.8797  0.6747
  116MOL0     H15252   4.332   7.318   8.975  0.2799 -0.9936 -3.1585
  116MOL0     H15253   4.181   7.192   9.146  0.2080  1.0684 -0.7704
  116MOL0     H15254   4.280   7.053   9.116  0.1752  0.4001  0.8897
  116MOL0     H15255   4.094   7.188   8.914 -0.4244 -0.1410 -3.1089
  116MOL0     H15256   4.174   7.038   8.887 -1.3300 -0.2797 -0.1907
  116MOL0     H15257   3.943   7.089   9.082 -1.8448  0.9519 -2.7541
  116MOL0     H15258   4.058   6.949   9.100  1.6079  1.8401 -0.1387
  116MOL0     H15259   4.018   6.862   8.892  0.4447 -0.7950  0.8680
  116MOL0     H15260   3.885   6.976   8.862  0.0099  0.1796  1.2179
  116MOL0     H15261   3.888   6.789   9.112  2.3525  1.0374  0.0570
  116MOL0     H15262   3.765   6.905   9.053  0.7408  2.1844 -2.1744
  116MOL0     H15263   3.847   6.674   8.891  2.0621  1.6337  0.3460
  116MOL0     H15264   3.713   6.795   8.867 -0.1379  3.6531  2.0963
  116MOL0     H15265   3.590   6.806   9.129 -0.3853 -0.7478  2.1517
  116MOL0     H15266   3.436   6.675   9.347 -1.7315  0.0142  0.1929
  116MOL0     H15267   3.452   6.506   9.338  1.5096 -1.1838 -2.4571
  116MOL0     H15268   3.230   6.555   9.301  1.9929  0.3322  2.2447
  116MOL0     H15269   3.283   6.501   9.142 -1.3073  0.2366  0.6697
  116MOL0     H15270   3.154   6.743   9.229 -0.6328 -0.0187 -0.2901
  116MOL0     H15271   3.308   6.789   9.160 -2.4073  1.5927 -0.0006
  116MOL0     H15272   3.102   6.786   9.009  1.7191  0.8100  1.4254
  116MOL0     H15273   3.076   6.616   9.034 -1.6779  1.7409  3.7119
  116MOL0     H15274   3.234   6.937   8.971  1.7473 -0.4384  0.6632
  116MOL0     H15275   3.361   7.113   8.859 -2.9804 -0.8974  1.3194
  116MOL0     H15276   3.789   7.157   8.876 -2.0787 -0.2480  1.9650
  116MOL0     H15277   3.948   7.342   8.944 -0.8244  1.3638  1.5599
  116MOL0     H15278   3.905   7.765   8.802 -0.7817 -0.9478 -1.6685
  116MOL0     H15279   3.975   7.635   8.703 -0.3178  0.4671 -0.3129
  116MOL0     H15280   4.096   7.775   8.949 -0.3014  2.2106 -0.5591
  116MOL0     H15281   4.114   7.829   8.785 -2.3780  1.4977  0.8513
  116MOL0     H15282   4.256   7.620   8.732  2.8532  3.7005  0.3366
  116MOL0     H15283   4.210   7.553   8.894 -3.6180  0.0715 -0.8565
  116MOL0     H15284   4.354   7.715   9.008 -0.8352  0.4522 -0.3859
  116MOL0     H15285   4.431   7.611   8.898  0.7070 -0.9692  0.7601
  116MOL0     H15286   4.329   7.892   8.810 -0.3957 -0.1403  2.9437
  116MOL0     H15287   4.462   7.786   8.734  0.9390  1.1348  0.2350
  116MOL0     H15288   4.511   7.934   8.991  1.4937 -1.8759  0.4724
  116MOL0     H15289   4.562   7.974   8.832  0.4021  0.0890  0.9334
  116MOL0     H15290   4.619   7.703   8.981 -2.8787 -0.3306 -1.9570
  116MOL0     H15291   4.691   7.744   8.831 -1.5356 -1.4381 -1.1309
  116MOL0     H15292   4.829   7.773   9.018  2.2092  0.6491 -2.7290
  116MOL0     H15293   4.736   7.880   9.101 -0.3935 -1.9014 -0.3990
  116MOL0     H15294   3.699   7.630   8.770 -0.5043  0.1503  0.6745
  116MOL0     H15295   3.536   7.466   8.706 -0.9843 -1.5070 -2.2430
  116MOL0     H15296   3.569   6.819   8.631 -1.2950  2.2409 -1.9403
  116MOL0     H15297   3.424   6.640   8.724  3.3291 -0.8420  2.0441
  116MOL0     H15298   4.691   7.081   9.047  0.1500 -1.4410 -2.6626
  116MOL0     H15299   4.890   7.025   8.938 -0.7786 -0.0871  0.8342
  116MOL0     H15300   5.132   6.829   8.582 -0.2530  0.1558 -1.5364
  116MOL0     H15301   5.353   6.771   8.500 -2.6339 -0.8315  0.7873
  116MOL0     H15302   5.600   6.750   8.468  1.0930 -0.2940  0.1064
  116MOL0     H15303   5.716   6.853   8.395  0.2325 -0.1875 -1.8218
  116MOL0     H15304   5.609   6.781   8.203  1.9051  2.4142  0.4320
  116MOL0     H15305   5.449   6.808   8.277  0.2660 -0.9705 -1.1886
  116MOL0     H15306   5.465   7.047   8.270  0.1898 -0.6309  1.7117
  116MOL0     H15307   5.525   6.984   8.113  1.0422 -0.9602 -0.0367
  116MOL0     H15308   5.668   7.169   8.197  0.6802 -0.5967 -2.2930
  116MOL0     H15309   5.710   7.064   8.332 -3.7110 -1.8455  0.8197
  116MOL0     H15310   5.945   6.912   8.017 -1.9004 -0.1609 -2.1481
  116MOL0     H15311   5.498   7.168   8.613  0.6635 -1.0191  2.1032
  116MOL0     H15312   5.266   7.222   8.696  1.4461 -0.5142  1.7288
  117MOL0     O15313   0.588  10.680   6.168  0.8123 -0.1595  0.3965
  117MOL0     C15314   0.613  10.790   6.119 -0.3093  0.4302  1.5540
  117MOL0     O15315   0.540  10.904   6.124 -0.4168  0.6548 -0.3526
  117MOL0     C15316   0.422  10.915   6.188 -0.7629  0.0380 -0.8447
  117MOL0     C15317   0.318  10.813   6.197 -0.2553 -0.0984  0.3676
  117MOL0     C15318   0.198  10.837   6.271  0.0558 -0.5657  1.3055
  117MOL0     C15319   0.190  10.961   6.334  0.9903  0.0758 -0.3462
  117MOL0     O15320   0.078  11.003   6.416 -0.2338 -0.5791  0.5513
  117MOL0     C15321  -0.054  11.017   6.361 -0.1314 -0.1288  0.6686
  117MOL0     C15322  -0.153  11.065   6.462 -0.1634  0.2979 -0.2784
  117MOL0     C15323  -0.179  10.976   6.583  0.1981  0.1070  0.4745
  117MOL0     C15324  -0.245  10.836   6.558  0.2881 -0.1206 -0.4082
  117MOL0     C15325  -0.379  10.826   6.472 -0.5056  0.5251 -0.1991
  117MOL0     C15326  -0.491  10.912   6.524 -0.3269  0.1376 -0.9299
  117MOL0     C15327  -0.588  10.953   6.421  0.6912 -0.3160 -0.4158
  117MOL0     C15328  -0.679  10.846   6.356 -0.6968  0.1667  1.2329
  117MOL0     N15329  -0.821  10.901   6.349  0.3725  0.1844  0.4578
  117MOL0     C15330  -0.905  10.926   6.461  1.2787  0.8754 -0.4161
  117MOL0     C15331  -1.024  10.967   6.411  0.0418 -0.7636 -0.1295
  117MOL0     C15332  -1.147  11.009   6.486  0.2397 -0.9583 -0.5666
  117MOL0     C15333  -1.222  11.124   6.413  0.0925 -0.0373  1.0117
  117MOL0     C15334  -1.364  11.158   6.470 -0.3186 -0.6213 -0.0791
  117MOL0     C15335  -1.471  11.054   6.437 -0.0631  0.1537  0.3386
  117MOL0     O15336  -1.594  11.095   6.492 -0.1237  0.2476  0.5134
  117MOL0     C15337  -1.704  11.100   6.405 -0.6895 -0.0880  0.1594
  117MOL0     C15338  -1.824  11.060   6.472  0.3732  0.0104  0.4308
  117MOL0     C15339  -1.945  11.063   6.409  0.7778 -0.3998  0.2130
  117MOL0     C15340  -1.958  11.102   6.273 -0.2189  0.0549 -0.1429
  117MOL0     C15341  -2.086  11.098   6.209 -0.2900  0.0737  0.0023
  117MOL0     O15342  -2.183  11.023   6.271  0.1965  0.0408 -0.0693
  117MOL0     C15343  -2.312  11.001   6.206 -0.7412 -0.2374 -0.1533
  117MOL0     C15344  -2.341  10.896   6.119  0.2321  0.6715  0.2907
  117MOL0     C15345  -2.464  10.881   6.059 -0.6113 -0.3632 -0.0982
  117MOL0     C15346  -2.568  10.978   6.066 -0.1248  0.5258 -0.3461
  117MOL0     O15347  -2.683  10.962   6.000 -0.0149 -0.5792 -0.0668
  117MOL0     C15348  -2.806  10.984   6.082 -0.4534 -0.6052 -0.0179
  117MOL0     C15349  -2.931  10.913   6.017  0.2362  0.8269  0.0514
  117MOL0     C15350  -3.061  11.003   6.057 -0.4925 -0.5218  0.4068
  117MOL0     C15351  -3.181  10.928   6.006  0.0798  0.0342  0.6305
  117MOL0     C15352  -3.211  10.799   6.085  0.2294 -0.7241 -0.4024
  117MOL0     C15353  -3.358  10.754   6.089 -0.1221 -0.3343 -0.0230
  117MOL0     C15354  -3.400  10.710   5.948 -0.4846  0.1890  0.2082
  117MOL0     C15355  -3.538  10.642   5.961  0.2637 -0.0423 -0.0307
  117MOL0    Cl15356  -3.590  10.594   5.789 -0.3131 -0.0618  0.3432
  117MOL0     C15357  -2.541  11.082   6.159  0.0638  0.5500  0.7439
  117MOL0     C15358  -2.414  11.097   6.228  0.1053 -0.0957 -0.6982
  117MOL0     O15359  -2.106  11.162   6.103 -0.0284 -0.7313  0.0972
  117MOL0     C15360  -1.836  11.143   6.203 -0.0602 -0.1714 -0.0173
  117MOL0     C15361  -1.711  11.142   6.267 -0.6158  0.5608 -0.2395
  117MOL0     N15362  -1.010  10.986   6.275 -0.1731 -0.0120 -0.0368
  117MOL0     N15363  -0.888  10.948   6.233 -0.5987 -0.0960  0.4854
  117MOL0     C15364   0.280  11.062   6.314  0.0607  0.4449  0.1930
  117MOL0     C15365   0.398  11.039   6.244  1.5883 -0.7682  1.1222
  117MOL0     C15366   0.734  10.792   6.032 -0.2656 -0.1181 -0.2910
  117MOL0     C15367   0.766  10.909   5.961 -0.8185  0.1256 -0.6412
  117MOL0     C15368   0.893  10.922   5.884  0.5703 -1.0990  0.0393
  117MOL0     C15369   0.982  10.811   5.880  0.0789 -0.4408 -0.6176
  117MOL0     O15370   1.101  10.819   5.807  0.3482  0.2376  0.7641
  117MOL0     C15371   1.197  10.721   5.815  0.3258 -0.7104  0.8013
  117MOL0     C15372   1.316  10.764   5.727  0.7187 -0.2459 -1.2583
  117MOL0     C15373   1.413  10.650   5.700  0.6927 -0.2244 -0.5496
  117MOL0     C15374   1.366  10.567   5.582 -0.8625 -0.1698 -0.3345
  117MOL0     C15375   1.422  10.426   5.576  0.5737  0.0690 -0.1672
  117MOL0     C15376   1.480  10.322   5.553  0.2536  0.0901 -0.6778
  117MOL0     C15377   0.950  10.704   5.965 -0.4998  0.2311  0.6115
  117MOL0     C15378   0.828  10.687   6.033  0.1190 -0.1899 -0.3290
  117MOL0     H15379   0.328  10.713   6.157  1.3755 -1.2645  3.3635
  117MOL0     H15380   0.117  10.773   6.303 -0.0477 -0.6084  0.9639
  117MOL0     H15381  -0.086  10.920   6.323  1.4257 -0.0621 -0.8992
  117MOL0     H15382  -0.056  11.072   6.266 -1.3078 -3.1081 -1.1596
  117MOL0     H15383  -0.251  11.078   6.415 -0.0231 -0.1709 -0.7106
  117MOL0     H15384  -0.121  11.161   6.504  2.0704  0.3378 -1.8678
  117MOL0     H15385  -0.240  11.028   6.657 -3.8002 -2.9166 -0.3412
  117MOL0     H15386  -0.078  10.954   6.619  0.7376 -0.7535 -1.4233
  117MOL0     H15387  -0.172  10.767   6.515  0.0521 -2.2638  2.3392
  117MOL0     H15388  -0.276  10.792   6.654 -0.3971 -0.5885 -0.8294
  117MOL0     H15389  -0.421  10.726   6.457 -2.2331  1.0624  0.8753
  117MOL0     H15390  -0.350  10.847   6.368 -2.1053 -0.9308 -0.9756
  117MOL0     H15391  -0.454  11.008   6.563  2.1585  0.3179 -3.4025
  117MOL0     H15392  -0.533  10.868   6.615 -1.3838  1.1716 -0.9001
  117MOL0     H15393  -0.660  11.020   6.470  1.3067 -0.5787  0.8869
  117MOL0     H15394  -0.543  11.015   6.343  0.3947 -1.9623 -1.9656
  117MOL0     H15395  -0.688  10.759   6.422 -1.5648 -0.7377 -0.0408
  117MOL0     H15396  -0.645  10.828   6.254 -0.2028 -1.7568  1.6972
  117MOL0     H15397  -0.880  10.906   6.564 -0.0289 -2.5492 -0.6001
  117MOL0     H15398  -1.109  11.042   6.583 -1.2257  2.2006 -0.9284
  117MOL0     H15399  -1.213  10.925   6.510  0.6589 -0.7925  1.2988
  117MOL0     H15400  -1.241  11.098   6.308  0.2963  0.2071  0.9139
  117MOL0     H15401  -1.162  11.214   6.416 -0.8535  0.7226 -0.8000
  117MOL0     H15402  -1.366  11.168   6.579  2.3771 -0.4424  0.0153
  117MOL0     H15403  -1.402  11.255   6.437 -0.3125  0.3230  2.4515
  117MOL0     H15404  -1.443  10.959   6.482 -0.0385 -1.3748 -2.6862
  117MOL0     H15405  -1.485  11.027   6.332 -2.2591  0.5608  0.4901
  117MOL0     H15406  -1.812  11.028   6.575 -0.1815 -1.0860  0.1764
  117MOL0     H15407  -2.037  11.039   6.461 -0.5400 -1.1500 -2.3368
  117MOL0     H15408  -2.262  10.826   6.095  0.6398  2.2247 -3.7121
  117MOL0     H15409  -2.482  10.793   5.997  2.9354 -1.9761  0.9527
  117MOL0     H15410  -2.822  11.092   6.091  1.9977 -0.1683 -0.0191
  117MOL0     H15411  -2.789  10.939   6.180 -0.4731  0.9072  0.7129
  117MOL0     H15412  -2.944  10.813   6.058  0.2190 -0.1643 -2.2316
  117MOL0     H15413  -2.928  10.913   5.908 -1.3910 -0.8882 -0.0439
  117MOL0     H15414  -3.044  11.091   5.994  0.4824 -1.9279 -1.4427
  117MOL0     H15415  -3.057  11.036   6.161  1.5989  0.3099  0.1139
  117MOL0     H15416  -3.268  10.989   6.030 -0.2290  0.0048 -0.3855
  117MOL0     H15417  -3.177  10.888   5.904  0.2428 -1.6864  1.2679
  117MOL0     H15418  -3.175  10.811   6.187  1.3894  3.2193 -1.0828
  117MOL0     H15419  -3.155  10.714   6.044  1.9744  0.4249 -0.5148
  117MOL0     H15420  -3.411  10.841   6.128  0.8858 -1.1785  3.5566
  117MOL0     H15421  -3.377  10.668   6.154 -3.3657  0.5958  0.3887
  117MOL0     H15422  -3.389  10.793   5.878  1.7375  0.9910  1.4108
  117MOL0     H15423  -3.324  10.633   5.929 -1.3157 -0.5904 -0.0231
  117MOL0     H15424  -3.615  10.705   6.004 -1.0666 -1.6684  0.0709
  117MOL0     H15425  -3.530  10.551   6.022 -3.2292 -0.4207  0.0324
  117MOL0     H15426  -2.620  11.156   6.164  0.3422  0.9078  0.0336
  117MOL0     H15427  -2.396  11.186   6.286  1.9378 -0.1197 -1.1642
  117MOL0     H15428  -1.830  11.158   6.096 -0.3637  1.2726  0.1532
  117MOL0     H15429  -1.624  11.170   6.208  0.9911 -2.4878  0.4888
  117MOL0     H15430   0.265  11.163   6.351  0.5335  1.0778 -1.2580
  117MOL0     H15431   0.467  11.122   6.234  1.1981 -0.4724  0.7783
  117MOL0     H15432   0.702  10.996   5.973 -2.5774 -0.4367 -4.4338
  117MOL0     H15433   0.920  11.010   5.826  1.0856 -2.4642 -1.8928
  117MOL0     H15434   1.166  10.624   5.776  1.9909 -0.1462 -2.2153
  117MOL0     H15435   1.225  10.702   5.919 -0.7918 -0.5694  1.1352
  117MOL0     H15436   1.270  10.793   5.632  0.8255  1.3020 -0.8706
  117MOL0     H15437   1.371  10.853   5.759  0.9501 -0.2916 -1.5268
  117MOL0     H15438   1.426  10.604   5.798  1.3877  1.7514  0.3566
  117MOL0     H15439   1.511  10.697   5.682 -0.6343  4.4948  2.6444
  117MOL0     H15440   1.257  10.574   5.584 -0.8593 -0.0385 -0.5698
  117MOL0     H15441   1.395  10.616   5.488 -0.5960  2.7679  1.1692
  117MOL0     H15442   1.536  10.231   5.550 -0.7530 -0.6076  0.6828
  117MOL0     H15443   1.014  10.616   5.968 -0.5547  0.1516 -0.2853
  117MOL0     H15444   0.798  10.598   6.088 -1.3672  1.3747  1.5428
  118MOL0     O15445   5.233   3.281   7.372 -0.2289  0.5423 -0.3923
  118MOL0     C15446   5.331   3.357   7.392  0.9558  0.5976  0.2790
  118MOL0     O15447   5.320   3.494   7.422  0.3627  0.3356 -0.2516
  118MOL0     C15448   5.203   3.565   7.444 -0.2017  1.0787 -0.0605
  118MOL0     C15449   5.075   3.524   7.403  0.5244 -0.2933 -0.3753
  118MOL0     C15450   4.964   3.606   7.420 -0.4384 -0.0933 -0.1998
  118MOL0     C15451   4.973   3.728   7.485 -0.7040 -0.6118  0.3736
  118MOL0     O15452   4.860   3.804   7.498 -0.2796  1.1005 -0.6810
  118MOL0     C15453   4.811   3.833   7.631 -0.4561  0.1284 -1.0128
  118MOL0     C15454   4.717   3.731   7.697 -0.3752 -0.7551 -0.2049
  118MOL0     C15455   4.679   3.755   7.846 -0.0111 -0.0400 -0.0607
  118MOL0     C15456   4.627   3.894   7.883 -0.5737  0.6791 -0.3352
  118MOL0     C15457   4.541   3.920   8.003 -0.6345 -0.1514 -0.6646
  118MOL0     C15458   4.402   3.867   7.977  0.7423 -0.6636 -0.2348
  118MOL0     C15459   4.302   3.903   8.090 -0.2049  1.4621  0.1691
  118MOL0     C15460   4.167   3.831   8.066  0.8843  0.0162 -0.1337
  118MOL0     N15461   4.104   3.863   7.939 -0.2234  0.9067 -0.3885
  118MOL0     C15462   4.012   3.962   7.928  0.1159 -0.0790 -0.2253
  118MOL0     C15463   3.956   3.939   7.807 -1.2524  0.0388 -0.3346
  118MOL0     C15464   3.832   3.994   7.750 -0.0875  0.1861 -0.4078
  118MOL0     C15465   3.734   3.887   7.706  0.0804 -0.0819 -0.0329
  118MOL0     C15466   3.601   3.936   7.663  0.5189 -1.0086 -0.3330
  118MOL0     C15467   3.522   4.004   7.770 -0.8342  0.2782 -0.9024
  118MOL0     O15468   3.509   3.913   7.886 -0.2651  0.1907 -0.3985
  118MOL0     C15469   3.386   3.870   7.920 -0.3732 -0.1227 -0.3548
  118MOL0     C15470   3.357   3.739   7.930  0.3630 -0.5460 -0.3810
  118MOL0     C15471   3.230   3.695   7.956  0.4285 -0.0704  0.2657
  118MOL0     C15472   3.127   3.784   7.986 -0.0950 -0.5627 -0.4867
  118MOL0     C15473   2.997   3.738   8.034 -0.1154  0.4298 -0.3789
  118MOL0     O15474   2.980   3.606   8.038 -0.6759 -0.1095  0.4117
  118MOL0     C15475   2.854   3.562   8.077 -1.1200  0.5557  0.8594
  118MOL0     C15476   2.824   3.559   8.210 -0.3072  0.6447 -0.8723
  118MOL0     C15477   2.697   3.518   8.262  0.3032 -0.1148 -0.7173
  118MOL0     C15478   2.600   3.469   8.174 -0.4397  0.1400  0.5988
  118MOL0     O15479   2.475   3.421   8.206  0.2521  0.3007 -0.2170
  118MOL0     C15480   2.429   3.438   8.342  0.8377 -0.0019  0.0155
  118MOL0     C15481   2.276   3.404   8.352  0.0564 -0.7969 -0.6547
  118MOL0     C15482   2.229   3.437   8.492 -0.0162  0.0041  0.4955
  118MOL0     C15483   2.086   3.401   8.492  0.8876  0.9582 -0.4824
  118MOL0     C15484   2.029   3.391   8.636 -0.0309  0.5329 -0.2724
  118MOL0     C15485   1.883   3.362   8.631  0.3782 -0.0279 -0.2241
  118MOL0     C15486   1.832   3.366   8.773  0.6689 -0.8296  0.6604
  118MOL0     C15487   1.686   3.328   8.788 -0.3187  0.3564  0.0019
  118MOL0    Cl15488   1.584   3.444   8.697  0.3645  0.3529 -0.3479
  118MOL0     C15489   2.640   3.459   8.036 -0.1337 -0.7652 -0.1796
  118MOL0     C15490   2.765   3.506   7.993  0.6096 -0.6073 -0.7724
  118MOL0     O15491   2.914   3.829   8.067 -0.3801  0.2052 -0.4205
  118MOL0     C15492   3.162   3.924   7.990  0.0513  1.0749 -0.5841
  118MOL0     C15493   3.288   3.961   7.956  0.2991  0.3599 -0.0046
  118MOL0     N15494   4.034   3.841   7.743  0.6483 -0.3626  0.1762
  118MOL0     N15495   4.124   3.795   7.822  0.1280  0.5967 -0.2609
  118MOL0     C15496   5.097   3.770   7.536 -0.2106  0.2518 -0.3113
  118MOL0     C15497   5.213   3.686   7.509  0.2234 -0.2140 -0.5331
  118MOL0     C15498   5.465   3.304   7.369 -0.3391 -0.2665 -0.0221
  118MOL0     C15499   5.496   3.166   7.334  0.1103 -0.7622  0.5066
  118MOL0     C15500   5.627   3.122   7.328  0.2904  0.1750 -0.1203
  118MOL0     C15501   5.729   3.215   7.341  0.2628 -0.0499  0.5750
  118MOL0     O15502   5.857   3.176   7.323 -0.3896  0.1595 -0.4964
  118MOL0     C15503   5.958   3.237   7.407  0.6669 -0.1068 -0.7926
  118MOL0     C15504   6.067   3.133   7.415  0.4173 -0.2321  0.2843
  118MOL0     C15505   6.144   3.120   7.281  0.4232  0.3299  0.2195
  118MOL0     C15506   6.239   2.999   7.274 -0.5490  0.0707 -1.3539
  118MOL0     C15507   6.341   2.986   7.386 -0.0554  0.1862  0.3020
  118MOL0     C15508   6.421   2.967   7.472 -0.4686  0.3344  0.1868
  118MOL0     C15509   5.702   3.344   7.368 -0.4201 -0.0353 -0.7024
  118MOL0     C15510   5.573   3.394   7.394 -0.4094  0.5662  0.8225
  118MOL0     H15511   5.060   3.429   7.352  0.9409 -0.7326  0.2880
  118MOL0     H15512   4.874   3.559   7.379  0.9423 -2.2680 -0.8999
  118MOL0     H15513   4.741   3.917   7.630 -3.5071 -2.2443 -0.9114
  118MOL0     H15514   4.898   3.869   7.687 -0.4146  0.1361 -1.0818
  118MOL0     H15515   4.764   3.632   7.691 -0.4944 -0.7263 -4.3247
  118MOL0     H15516   4.624   3.716   7.643  0.6783  1.0009 -2.6727
  118MOL0     H15517   4.759   3.729   7.916 -0.0755  1.0642  0.4404
  118MOL0     H15518   4.596   3.688   7.868 -0.2057  1.0243  2.9977
  118MOL0     H15519   4.723   3.943   7.905  0.2099 -0.8491 -0.2103
  118MOL0     H15520   4.582   3.938   7.794 -0.0253 -0.1885 -1.0656
  118MOL0     H15521   4.528   4.027   8.026  0.0899  0.1197 -1.4672
  118MOL0     H15522   4.583   3.862   8.086  3.0568  0.9844 -1.5677
  118MOL0     H15523   4.417   3.761   7.958  1.3972 -0.7716  0.7794
  118MOL0     H15524   4.364   3.916   7.887  0.5890  0.0107  0.1869
  118MOL0     H15525   4.353   3.877   8.183 -2.2809 -0.2076  0.9247
  118MOL0     H15526   4.286   4.011   8.095 -3.8872  1.0408  0.3231
  118MOL0     H15527   4.110   3.879   8.145  2.1339  3.0155 -0.9392
  118MOL0     H15528   4.158   3.726   8.096  0.4573  0.8050  2.6955
  118MOL0     H15529   3.983   4.031   8.006  2.1008 -0.0324  0.5444
  118MOL0     H15530   3.863   4.043   7.657 -1.2154  0.0516 -0.8588
  118MOL0     H15531   3.782   4.057   7.824 -0.6897 -1.0515  0.2528
  118MOL0     H15532   3.728   3.814   7.787 -1.9487  2.3550  2.2129
  118MOL0     H15533   3.778   3.835   7.620 -2.7312  0.3875 -1.8824
  118MOL0     H15534   3.624   3.999   7.577  2.3052 -0.1887  0.6903
  118MOL0     H15535   3.540   3.852   7.628 -0.4180 -0.4081 -0.1768
  118MOL0     H15536   3.421   4.025   7.734 -1.2698 -0.2202 -0.0183
  118MOL0     H15537   3.572   4.096   7.800 -1.3925  1.0515 -2.2737
  118MOL0     H15538   3.440   3.673   7.906  0.9581  0.3454 -0.8546
  118MOL0     H15539   3.218   3.587   7.949 -0.6007  0.0731 -0.2354
  118MOL0     H15540   2.902   3.595   8.276 -2.5284 -2.2075  3.8422
  118MOL0     H15541   2.676   3.522   8.369  1.3398 -0.9776 -0.4515
  118MOL0     H15542   2.440   3.539   8.382  0.5284 -0.6325  1.7999
  118MOL0     H15543   2.477   3.368   8.412 -1.5944 -0.6603  1.1163
  118MOL0     H15544   2.267   3.295   8.345 -0.0064 -1.1915  3.3178
  118MOL0     H15545   2.221   3.446   8.268 -0.0689 -2.6980 -1.5786
  118MOL0     H15546   2.246   3.543   8.514 -2.8611  1.1937 -2.2908
  118MOL0     H15547   2.280   3.377   8.568  0.4558 -0.6455 -0.3283
  118MOL0     H15548   2.022   3.470   8.437 -4.2360 -3.1446 -0.4725
  118MOL0     H15549   2.079   3.298   8.457 -0.2635  0.6034  0.7119
  118MOL0     H15550   2.042   3.487   8.688  1.1173  0.0400  0.3886
  118MOL0     H15551   2.081   3.308   8.684  0.1150 -0.1704 -1.5903
  118MOL0     H15552   1.879   3.261   8.589  1.6719 -0.6148  0.9477
  118MOL0     H15553   1.828   3.437   8.574 -0.6323 -1.8663 -1.7605
  118MOL0     H15554   1.890   3.293   8.830 -1.8828 -0.9421  3.3834
  118MOL0     H15555   1.844   3.459   8.830 -0.0032 -0.4865  0.2407
  118MOL0     H15556   1.644   3.338   8.889  0.3749 -3.3009  0.7810
  118MOL0     H15557   1.669   3.227   8.750 -1.7443  0.0940  1.2139
  118MOL0     H15558   2.560   3.424   7.971 -0.6843  1.5771 -0.8524
  118MOL0     H15559   2.782   3.495   7.886 -2.1300  1.4637 -1.5122
  118MOL0     H15560   3.087   3.991   8.031  1.3305  1.7156  0.8355
  118MOL0     H15561   3.297   4.068   7.974  1.1889  0.3286 -0.2075
  118MOL0     H15562   5.101   3.862   7.594 -1.4108  0.1705 -0.0727
  118MOL0     H15563   5.315   3.709   7.539  0.0175 -1.3865  1.2288
  118MOL0     H15564   5.408   3.103   7.324  1.0825 -2.8229  3.5844
  118MOL0     H15565   5.651   3.021   7.297  1.7565  0.1442  1.0057
  118MOL0     H15566   5.926   3.273   7.505  1.7484  3.5630 -1.6546
  118MOL0     H15567   5.997   3.322   7.351 -1.0457  0.1794 -1.6219
  118MOL0     H15568   6.144   3.170   7.484  1.4506 -0.8727 -0.4834
  118MOL0     H15569   6.024   3.040   7.450  0.1207 -0.3649 -0.4110
  118MOL0     H15570   6.209   3.208   7.280 -0.5497  1.0794  1.0078
  118MOL0     H15571   6.075   3.108   7.198 -0.5646 -4.2330  1.4102
  118MOL0     H15572   6.175   2.911   7.285  2.4899 -2.0970  1.0668
  118MOL0     H15573   6.284   2.992   7.175 -0.6203  0.0095 -1.3823
  118MOL0     H15574   6.501   2.947   7.541  1.2115 -0.5466 -1.9070
  118MOL0     H15575   5.784   3.410   7.392  0.3114 -1.1734  0.0136
  118MOL0     H15576   5.556   3.491   7.439  0.4631  0.5590  1.1982
  119MOL0     O15577   8.958   6.016   1.393  0.7403 -0.0667 -0.5013
  119MOL0     C15578   8.983   6.044   1.282 -0.1494  0.2949  0.4583
  119MOL0     O15579   8.889   6.064   1.182  0.4127 -0.6303 -0.1427
  119MOL0     C15580   8.757   6.040   1.210 -0.1232  0.8105  0.8915
  119MOL0     C15581   8.678   6.138   1.272  0.0563 -0.0278 -0.1581
  119MOL0     C15582   8.542   6.111   1.308  0.1455 -0.8167 -0.8108
  119MOL0     C15583   8.493   5.982   1.289 -0.2166  0.5454 -0.1312
  119MOL0     O15584   8.367   5.942   1.315  0.3402  0.3175 -0.6764
  119MOL0     C15585   8.268   6.044   1.340  0.3360 -0.0295 -0.4888
  119MOL0     C15586   8.130   5.984   1.334 -0.2540 -0.3550  0.6559
  119MOL0     C15587   8.026   6.095   1.357  0.1693  0.2032  0.0561
  119MOL0     C15588   7.891   6.027   1.337  1.0144  0.0882 -0.3526
  119MOL0     C15589   7.783   6.120   1.366  0.2609 -0.1334 -0.0838
  119MOL0     C15590   7.739   6.137   1.514  0.8300  0.4075  0.4914
  119MOL0     C15591   7.646   6.247   1.523  0.4127  0.6588 -0.2204
  119MOL0     C15592   7.511   6.202   1.464  0.1736 -0.2612 -0.5408
  119MOL0     N15593   7.400   6.287   1.504  0.9124 -0.6536  0.1503
  119MOL0     C15594   7.355   6.313   1.632  0.8206 -0.5069  0.4065
  119MOL0     C15595   7.238   6.374   1.619 -0.2459  0.1595  0.0566
  119MOL0     C15596   7.156   6.440   1.731  0.2110 -0.5566  0.0956
  119MOL0     C15597   7.031   6.362   1.777  0.1112 -0.4064  0.5525
  119MOL0     C15598   6.915   6.371   1.675  0.1757 -0.0440 -0.3471
  119MOL0     C15599   6.786   6.299   1.738  0.2778 -0.6121  0.8339
  119MOL0     O15600   6.712   6.383   1.830  0.7848 -0.1907  0.4431
  119MOL0     C15601   6.588   6.351   1.861 -0.0791  0.5975  0.7158
  119MOL0     C15602   6.506   6.251   1.817 -0.1743  0.5702  0.3453
  119MOL0     C15603   6.370   6.228   1.859  0.4660  0.1515  0.7479
  119MOL0     C15604   6.303   6.335   1.934  0.2682  0.2496  0.0762
  119MOL0     C15605   6.157   6.337   1.960 -0.1834 -0.9995  0.3124
  119MOL0     O15606   6.091   6.220   1.929  0.3089 -0.5185  0.2836
  119MOL0     C15607   5.962   6.194   1.968  0.3266  0.0877  0.3865
  119MOL0     C15608   5.942   6.071   2.027 -0.3782  0.0570 -0.7440
  119MOL0     C15609   5.814   6.023   2.046  0.1219 -1.1868 -0.3320
  119MOL0     C15610   5.704   6.113   2.038 -0.0169  0.1044 -0.8423
  119MOL0     O15611   5.578   6.077   2.078 -0.5579  0.2135  0.2167
  119MOL0     C15612   5.465   6.167   2.056  0.7073  0.3703  0.3965
  119MOL0     C15613   5.342   6.100   2.111  0.8845  0.7462  0.4745
  119MOL0     C15614   5.245   6.061   1.997 -0.7194  0.1883  0.3279
  119MOL0     C15615   5.305   5.947   1.909  0.1306  0.6730 -0.1124
  119MOL0     C15616   5.204   5.905   1.798  0.1928 -0.0503  0.2887
  119MOL0     C15617   5.101   5.802   1.850 -1.1906  0.4440  0.1691
  119MOL0     C15618   5.005   5.757   1.745 -0.0887 -0.2603  0.4607
  119MOL0     C15619   4.904   5.647   1.784  0.5495 -0.1720  0.3135
  119MOL0    Cl15620   4.773   5.627   1.659  0.4118 -0.3667  0.0294
  119MOL0     C15621   5.727   6.238   1.974  0.0522 -0.2826 -0.0282
  119MOL0     C15622   5.851   6.272   1.926  0.1973  0.3359 -0.1346
  119MOL0     O15623   6.110   6.430   2.025  0.1557  0.0500 -0.6324
  119MOL0     C15624   6.394   6.439   1.980  0.2762  0.4369 -0.7732
  119MOL0     C15625   6.530   6.435   1.952 -0.0113 -0.9858  0.5013
  119MOL0     N15626   7.202   6.383   1.485  0.3404  0.0620  0.6662
  119MOL0     N15627   7.299   6.324   1.418 -0.1749 -0.6689 -0.5207
  119MOL0     C15628   8.575   5.883   1.231 -0.3958  0.8612 -0.2590
  119MOL0     C15629   8.709   5.911   1.191  0.8361  0.0372 -0.2640
  119MOL0     C15630   9.127   6.062   1.245 -0.7271 -0.3292 -0.2052
  119MOL0     C15631   9.224   6.098   1.345  0.4097  0.2208 -0.7004
  119MOL0     C15632   9.358   6.131   1.316 -0.0649 -1.0560  0.3396
  119MOL0     C15633   9.395   6.120   1.185  0.1280 -0.0212  0.0286
  119MOL0     O15634   9.523   6.146   1.161 -0.0657 -0.6206  0.1872
  119MOL0     C15635   9.584   6.094   1.038 -0.4115  0.1626  0.5020
  119MOL0     C15636   9.735   6.121   1.037 -0.3468 -0.3608  0.2290
  119MOL0     C15637   9.805   6.079   0.903  0.1029 -0.2147 -0.1780
  119MOL0     C15638   9.961   6.085   0.914 -0.1620  0.2756  0.0359
  119MOL0     C15639  10.035   5.963   0.958 -0.5975 -0.1487 -0.5874
  119MOL0     C15640  10.114   5.867   0.984 -0.1194  0.2924  0.6152
  119MOL0     C15641   9.309   6.072   1.089  0.0509  0.0053  0.2676
  119MOL0     C15642   9.174   6.045   1.116  0.1412  0.1532 -0.0304
  119MOL0     H15643   8.718   6.236   1.294 -0.7200  0.2734 -0.0460
  119MOL0     H15644   8.489   6.186   1.365  2.3942 -0.1764  0.5560
  119MOL0     H15645   8.276   6.120   1.262  0.8208 -0.1086 -0.5203
  119MOL0     H15646   8.281   6.090   1.439  0.7086 -0.7847 -0.1757
  119MOL0     H15647   8.125   5.904   1.409  0.7583 -1.7891 -0.7347
  119MOL0     H15648   8.115   5.941   1.234  1.7312 -0.7014  0.4675
  119MOL0     H15649   8.039   6.172   1.281 -0.0447 -0.8458 -1.0802
  119MOL0     H15650   8.040   6.137   1.457  0.5883  1.3115 -0.4533
  119MOL0     H15651   7.882   5.991   1.234  0.3044  0.1272 -0.3109
  119MOL0     H15652   7.878   5.949   1.413 -2.3384  1.4617  0.6922
  119MOL0     H15653   7.696   6.092   1.307 -0.5186  0.1064  0.9370
  119MOL0     H15654   7.817   6.221   1.343 -0.0924 -0.1845 -0.8420
  119MOL0     H15655   7.819   6.157   1.585  2.4201  2.5063 -1.7511
  119MOL0     H15656   7.689   6.044   1.543 -1.6307  0.2787 -3.4893
  119MOL0     H15657   7.630   6.266   1.629  0.6912 -2.1360  0.4128
  119MOL0     H15658   7.688   6.333   1.470 -0.2843 -0.8099 -3.4634
  119MOL0     H15659   7.497   6.099   1.498  1.7005  0.2585  1.9461
  119MOL0     H15660   7.519   6.196   1.355 -3.0455  0.3131 -0.9016
  119MOL0     H15661   7.394   6.277   1.727 -0.7334 -3.9201 -0.0731
  119MOL0     H15662   7.133   6.542   1.699  2.2681  0.2406  0.9290
  119MOL0     H15663   7.231   6.460   1.808  0.4980  0.4795 -0.4284
  119MOL0     H15664   7.001   6.406   1.872  0.4981  0.6830  0.1885
  119MOL0     H15665   7.058   6.258   1.800  2.5647 -0.7975 -3.1871
  119MOL0     H15666   6.906   6.479   1.657  1.5587  0.5787  2.1878
  119MOL0     H15667   6.938   6.329   1.577  0.3842  0.2026 -0.4039
  119MOL0     H15668   6.814   6.200   1.776  2.9165 -0.3770 -0.2691
  119MOL0     H15669   6.722   6.293   1.650  2.0465  3.7889 -1.0223
  119MOL0     H15670   6.555   6.187   1.744 -0.9925  0.7874 -0.4046
  119MOL0     H15671   6.322   6.141   1.816  1.4903 -0.6754  1.2440
  119MOL0     H15672   6.028   6.010   2.055 -1.0702 -1.1748 -1.2084
  119MOL0     H15673   5.792   5.922   2.079 -1.7938 -0.2584  1.4255
  119MOL0     H15674   5.453   6.190   1.950  0.1829  0.0373  0.3761
  119MOL0     H15675   5.468   6.262   2.110 -1.2246  1.1900 -0.8155
  119MOL0     H15676   5.292   6.176   2.170 -0.4170 -0.0200  0.3975
  119MOL0     H15677   5.356   6.017   2.181 -1.4820  0.3351  0.5411
  119MOL0     H15678   5.223   6.144   1.929 -0.7601 -0.1747 -0.1087
  119MOL0     H15679   5.150   6.039   2.045 -0.4954 -1.0672  0.2464
  119MOL0     H15680   5.409   5.970   1.881 -0.6384  1.8586 -2.2006
  119MOL0     H15681   5.322   5.863   1.977  1.3109  1.7030  0.9041
  119MOL0     H15682   5.256   5.846   1.721 -0.1388  0.0968 -0.0483
  119MOL0     H15683   5.158   5.993   1.753 -0.7084 -1.6763 -2.1647
  119MOL0     H15684   5.047   5.851   1.932  1.2810  1.5915  1.2215
  119MOL0     H15685   5.145   5.715   1.899 -0.3081 -1.4133 -3.5554
  119MOL0     H15686   4.947   5.847   1.721  0.5325 -0.0819 -0.4482
  119MOL0     H15687   5.061   5.732   1.654  2.5722  1.0193  1.6291
  119MOL0     H15688   4.858   5.666   1.882  0.4095  0.5470  0.1090
  119MOL0     H15689   4.953   5.550   1.795 -1.5571 -1.1249  2.0257
  119MOL0     H15690   5.645   6.304   1.948  1.0118 -0.1095 -3.0103
  119MOL0     H15691   5.872   6.363   1.869  1.2491  0.1806 -0.0120
  119MOL0     H15692   6.349   6.505   2.054 -0.7768 -1.4010  0.3076
  119MOL0     H15693   6.586   6.511   2.006 -0.8274 -0.3231  0.4286
  119MOL0     H15694   8.544   5.780   1.225 -1.4528  1.1945 -0.9306
  119MOL0     H15695   8.779   5.839   1.149 -0.8214 -2.1162  0.4372
  119MOL0     H15696   9.182   6.098   1.445 -2.1970 -1.1743 -1.7068
  119MOL0     H15697   9.413   6.191   1.388  0.2962  2.0280 -2.2811
  119MOL0     H15698   9.528   6.154   0.966 -0.0570  1.0394  0.9456
  119MOL0     H15699   9.566   5.987   1.023  0.9068 -0.2826  1.8389
  119MOL0     H15700   9.756   6.227   1.048 -0.9880 -0.0994 -0.8981
  119MOL0     H15701   9.778   6.064   1.120  1.4756  0.7396  0.0939
  119MOL0     H15702   9.777   6.152   0.827  1.7596  1.5977  0.8506
  119MOL0     H15703   9.768   5.982   0.868  0.2664 -1.2401  2.3150
  119MOL0     H15704  10.003   6.115   0.817  3.0237 -0.9931  0.8930
  119MOL0     H15705   9.995   6.174   0.967 -1.0769  0.2555  0.6831
  119MOL0     H15706  10.171   5.776   0.984  0.1865  0.4148 -1.8602
  119MOL0     H15707   9.331   6.063   0.983  1.8139  3.3608  0.2173
  119MOL0     H15708   9.109   6.012   1.036  1.0431 -0.3555 -0.5717
  120MOL0     O15709   3.256  11.046   6.938  0.0633 -0.0853 -0.1241
  120MOL0     C15710   3.327  11.078   7.026  0.1231 -0.7339 -0.4928
  120MOL0     O15711   3.288  11.153   7.141 -0.3914  0.4496 -0.3675
  120MOL0     C15712   3.157  11.186   7.147  0.2241 -0.8327  0.9188
  120MOL0     C15713   3.096  11.282   7.051 -0.3729 -0.0520 -0.0147
  120MOL0     C15714   2.959  11.318   7.061 -0.4101  0.9408  0.6589
  120MOL0     C15715   2.875  11.247   7.147  1.0956 -0.3722  0.3331
  120MOL0     O15716   2.739  11.257   7.154  0.8244 -0.0782 -0.4984
  120MOL0     C15717   2.652  11.331   7.073  0.3132 -0.1654 -0.2070
  120MOL0     C15718   2.625  11.476   7.120 -0.0821 -0.5471 -0.5069
  120MOL0     C15719   2.470  11.515   7.123 -0.2018  0.0258  0.5005
  120MOL0     C15720   2.403  11.547   6.988  0.7101  0.0910 -0.1115
  120MOL0     C15721   2.249  11.544   7.003 -0.2390  0.2100 -0.6511
  120MOL0     C15722   2.187  11.630   7.114 -0.1491 -0.6165  0.3926
  120MOL0     C15723   2.043  11.657   7.071  0.8192 -0.2674  0.9316
  120MOL0     C15724   1.959  11.708   7.179  0.5520 -0.7814  0.0373
  120MOL0     N15725   1.815  11.694   7.164  0.1282 -0.2647  0.4159
  120MOL0     C15726   1.722  11.779   7.106 -0.2849 -0.2946 -0.3286
  120MOL0     C15727   1.600  11.721   7.118  1.1158  0.2533 -0.9385
  120MOL0     C15728   1.454  11.773   7.096  0.0361 -1.0534 -0.3431
  120MOL0     C15729   1.437  11.850   6.962 -0.4743  0.3181  0.0017
  120MOL0     C15730   1.459  11.755   6.845 -0.7157 -0.0249 -0.2068
  120MOL0     C15731   1.603  11.721   6.815 -0.1433 -0.5267 -0.9992
  120MOL0     O15732   1.677  11.839   6.791 -0.4086  0.4772  0.1819
  120MOL0     C15733   1.809  11.827   6.759 -0.4911 -0.3850  0.3310
  120MOL0     C15734   1.869  11.951   6.711  0.2470 -0.4514 -0.2743
  120MOL0     C15735   2.004  11.961   6.675  0.4675 -0.1154  0.3700
  120MOL0     C15736   2.087  11.849   6.682  0.1663  0.1716 -0.5724
  120MOL0     C15737   2.233  11.856   6.653 -0.3395 -0.2107 -0.2438
  120MOL0     O15738   2.279  11.986   6.640  0.3499 -0.1041 -0.0599
  120MOL0     C15739   2.415  12.011   6.633  1.5388  0.2541 -0.6433
  120MOL0     C15740   2.511  11.945   6.711 -0.2191  0.5958 -0.2343
  120MOL0     C15741   2.645  11.972   6.688 -0.8961 -0.6233  0.1347
  120MOL0     C15742   2.692  12.069   6.594 -0.3561 -0.1725 -0.4013
  120MOL0     O15743   2.826  12.079   6.552 -0.5470  0.3063  0.1272
  120MOL0     C15744   2.876  12.186   6.474 -0.6365  0.8763  0.6650
  120MOL0     C15745   3.024  12.205   6.464  0.1382  0.1701 -0.4767
  120MOL0     C15746   3.093  12.232   6.604  0.3728  0.6546  0.1924
  120MOL0     C15747   3.247  12.238   6.572  0.4682  0.4524 -0.6591
  120MOL0     C15748   3.313  12.270   6.710  1.1586 -1.1837  0.4041
  120MOL0     C15749   3.459  12.300   6.675 -0.6289  0.1962  0.0954
  120MOL0     C15750   3.514  12.380   6.795 -0.7108 -0.2117  0.1180
  120MOL0     C15751   3.667  12.395   6.798 -0.2416  0.5075  0.3119
  120MOL0    Cl15752   3.735  12.233   6.816  0.3258 -0.0019 -0.1714
  120MOL0     C15753   2.593  12.145   6.525 -0.8956 -0.0422 -0.2115
  120MOL0     C15754   2.458  12.123   6.556  0.6136 -0.6290 -0.3823
  120MOL0     O15755   2.303  11.753   6.646 -0.6404 -0.1166  0.2780
  120MOL0     C15756   2.028  11.728   6.721 -0.0952  0.2737 -0.6121
  120MOL0     C15757   1.895  11.719   6.763 -0.4797  0.5098 -0.1616
  120MOL0     N15758   1.617  11.598   7.182  0.0684 -0.1501  0.5110
  120MOL0     N15759   1.745  11.587   7.210 -0.6369  0.8113  0.2411
  120MOL0     C15760   2.929  11.152   7.225 -0.2672 -0.0559 -0.7914
  120MOL0     C15761   3.063  11.121   7.226 -0.1942 -0.3336  0.1834
  120MOL0     C15762   3.470  11.045   7.012 -0.4480 -0.4254  0.8008
  120MOL0     C15763   3.531  11.031   6.887  0.1413 -0.3836 -0.5673
  120MOL0     C15764   3.664  10.993   6.874  0.1676 -0.4144  0.7675
  120MOL0     C15765   3.742  10.948   6.973 -0.5105 -0.2020 -0.0550
  120MOL0     O15766   3.872  10.915   6.951 -0.3705  0.8778 -0.2312
  120MOL0     C15767   3.948  10.841   7.047  0.3249 -0.5715 -0.0258
  120MOL0     C15768   4.073  10.786   6.984 -0.4199  0.2020  0.3015
  120MOL0     C15769   4.184  10.739   7.080 -1.0021  0.0472  1.0286
  120MOL0     C15770   4.319  10.711   7.001  0.4915 -0.6341 -0.1445
  120MOL0     C15771   4.388  10.829   6.946 -0.0671  0.2249 -0.1473
  120MOL0     C15772   4.447  10.913   6.897 -0.2209 -0.1636  0.9801
  120MOL0     C15773   3.682  10.969   7.101 -0.6679 -1.4332  0.2270
  120MOL0     C15774   3.549  11.021   7.120 -0.6732 -0.6446  0.6837
  120MOL0     H15775   3.167  11.334   6.988  1.6950 -2.1318  0.4499
  120MOL0     H15776   2.915  11.389   6.991 -1.4084 -1.0121 -0.7846
  120MOL0     H15777   2.557  11.278   7.080  1.3794 -2.3254 -1.2000
  120MOL0     H15778   2.697  11.333   6.973  1.1489 -0.8876  0.1432
  120MOL0     H15779   2.680  11.542   7.053  0.3980  0.9600  1.2900
  120MOL0     H15780   2.670  11.484   7.220 -4.0815  1.3109  1.4225
  120MOL0     H15781   2.465  11.597   7.194 -2.8307 -0.6098  1.1529
  120MOL0     H15782   2.416  11.442   7.184 -1.1260  1.3871  1.3367
  120MOL0     H15783   2.430  11.644   6.946 -1.2826  0.1308 -1.4547
  120MOL0     H15784   2.438  11.477   6.911  2.1890 -1.2588  1.6857
  120MOL0     H15785   2.213  11.444   7.028  0.8062  0.0957  0.4896
  120MOL0     H15786   2.204  11.555   6.904  0.4588  2.1610 -0.7985
  120MOL0     H15787   2.237  11.727   7.125  1.3271 -1.4479  1.2676
  120MOL0     H15788   2.188  11.582   7.212  3.3555  1.0375  1.3095
  120MOL0     H15789   2.049  11.730   6.990  1.3743 -0.1147  1.1079
  120MOL0     H15790   1.989  11.569   7.034 -3.5321  3.2687 -2.2408
  120MOL0     H15791   1.975  11.816   7.185 -1.8745 -0.4286  1.2702
  120MOL0     H15792   1.994  11.661   7.272 -1.6858  1.9222  2.4500
  120MOL0     H15793   1.749  11.876   7.066  0.6822  0.8117  2.7124
  120MOL0     H15794   1.436  11.851   7.170  1.3765  0.4644 -1.5620
  120MOL0     H15795   1.386  11.687   7.096 -0.9835 -0.2789  1.1658
  120MOL0     H15796   1.508  11.933   6.950  1.4399 -0.9461  1.7747
  120MOL0     H15797   1.335  11.884   6.941 -0.5763 -0.7513 -1.3833
  120MOL0     H15798   1.410  11.661   6.871 -1.1133  0.1129 -0.4377
  120MOL0     H15799   1.416  11.789   6.750 -0.1241 -0.2694 -0.5691
  120MOL0     H15800   1.596  11.650   6.732 -1.5760  1.4052 -2.6326
  120MOL0     H15801   1.641  11.656   6.894  1.2013 -0.0858 -1.2547
  120MOL0     H15802   1.795  12.029   6.694  0.9424  0.3963  0.4771
  120MOL0     H15803   2.044  12.057   6.645 -0.4773  0.9179  2.2662
  120MOL0     H15804   2.473  11.875   6.785  1.8567  0.3550  0.6591
  120MOL0     H15805   2.716  11.915   6.747 -0.0108 -0.7760 -1.0425
  120MOL0     H15806   2.832  12.274   6.522  0.4077  1.4852  0.5419
  120MOL0     H15807   2.850  12.184   6.368  1.8642  0.9362 -0.0110
  120MOL0     H15808   3.045  12.299   6.411  0.9796  0.4243  0.2715
  120MOL0     H15809   3.073  12.120   6.415 -1.9124 -3.3224  3.0061
  120MOL0     H15810   3.075  12.153   6.677  1.3588  1.3580  1.2198
  120MOL0     H15811   3.065  12.329   6.647  1.8615  1.2051 -0.0201
  120MOL0     H15812   3.285  12.140   6.541  2.3981  1.1187 -0.5216
  120MOL0     H15813   3.269  12.319   6.503  0.1263  0.4776 -0.7398
  120MOL0     H15814   3.299  12.186   6.779 -2.8760 -0.6530  0.4862
  120MOL0     H15815   3.261  12.362   6.737  0.3762 -1.4017 -0.2940
  120MOL0     H15816   3.472  12.349   6.578 -1.0302  0.8090  0.3473
  120MOL0     H15817   3.524  12.211   6.678  3.1333  2.7115  3.1820
  120MOL0     H15818   3.477  12.483   6.789  1.1251  0.5162  0.5448
  120MOL0     H15819   3.481  12.325   6.884 -1.2166  0.6779  0.4979
  120MOL0     H15820   3.700  12.461   6.879  0.9514 -0.8687  0.9777
  120MOL0     H15821   3.706  12.433   6.703 -0.4990 -0.7683 -0.3176
  120MOL0     H15822   2.631  12.225   6.463 -0.3560  0.3564  0.6069
  120MOL0     H15823   2.379  12.182   6.509  0.5580  0.1934  0.7200
  120MOL0     H15824   2.076  11.631   6.727 -3.1385 -1.5732 -2.9018
  120MOL0     H15825   1.859  11.622   6.794 -3.3165  1.3458 -0.5980
  120MOL0     H15826   2.862  11.097   7.290 -0.5138 -0.0932 -1.0798
  120MOL0     H15827   3.097  11.036   7.286  1.8637 -0.9394 -1.6968
  120MOL0     H15828   3.474  11.065   6.802 -1.5746  0.8230  0.9758
  120MOL0     H15829   3.713  10.993   6.777 -1.6499 -1.0583 -0.1961
  120MOL0     H15830   3.887  10.754   7.071  1.4461 -1.1788  0.7413
  120MOL0     H15831   3.967  10.898   7.139 -0.7186 -1.7174  0.9317
  120MOL0     H15832   4.043  10.696   6.930  3.6244 -1.1331  0.0158
  120MOL0     H15833   4.109  10.867   6.921  0.9740  0.0074  0.8178
  120MOL0     H15834   4.151  10.645   7.125  0.0375 -0.6744  0.3358
  120MOL0     H15835   4.207  10.827   7.141  1.5645  3.4056 -4.0261
  120MOL0     H15836   4.388  10.668   7.074  0.8294  1.2315  0.6772
  120MOL0     H15837   4.315  10.636   6.921  2.1677 -1.4042  0.4433
  120MOL0     H15838   4.500  10.994   6.852  0.3261 -0.8310  0.3918
  120MOL0     H15839   3.748  10.955   7.186 -1.9378  2.5502  2.1054
  120MOL0     H15840   3.511  11.034   7.220  0.4279 -0.5356  1.1046
  121MOL0     O15841  10.319   7.632   9.834 -0.6091  0.2018  0.7465
  121MOL0     C15842  10.385   7.734   9.832 -0.6609  0.0434 -0.4493
  121MOL0     O15843  10.333   7.859   9.807 -0.7874 -0.4557  0.6861
  121MOL0     C15844  10.202   7.890   9.793  0.0586 -0.0146 -0.6784
  121MOL0     C15845  10.094   7.816   9.849  0.0281 -0.6938  0.3972
  121MOL0     C15846   9.965   7.857   9.820  0.4665 -0.6755  0.0898
  121MOL0     C15847   9.934   7.965   9.739 -0.2677 -0.6256 -0.4913
  121MOL0     O15848   9.801   8.003   9.706 -0.6394 -1.0051  0.1725
  121MOL0     C15849   9.698   7.931   9.759  0.1328 -0.4331 -0.7602
  121MOL0     C15850   9.563   7.978   9.697 -0.0135  0.4610 -0.0359
  121MOL0     C15851   9.469   8.044   9.799 -0.0300  0.1435  0.4380
  121MOL0     C15852   9.331   8.076   9.736  0.0591 -0.5486  0.2791
  121MOL0     C15853   9.213   8.044   9.831 -0.2074 -0.2125 -0.3997
  121MOL0     C15854   9.200   8.116   9.971 -0.1881 -0.2740  0.7825
  121MOL0     C15855   9.203   8.273   9.976  0.3511 -0.5554  0.0579
  121MOL0     C15856   9.091   8.340   9.883 -0.4735 -0.4264  0.0888
  121MOL0     N15857   8.955   8.294   9.917  0.0764  0.2271  0.6822
  121MOL0     C15858   8.889   8.302  10.043 -0.6355  0.2894  0.0685
  121MOL0     C15859   8.761   8.277  10.002  0.5724  1.0163  0.0479
  121MOL0     C15860   8.652   8.251  10.096  0.1484  0.0116  0.8945
  121MOL0     C15861   8.511   8.304  10.047 -0.3260  0.1728  0.3148
  121MOL0     C15862   8.402   8.300  10.157 -0.1997 -0.4014  0.6611
  121MOL0     C15863   8.259   8.311  10.101 -0.2115 -0.0091 -0.5433
  121MOL0     O15864   8.164   8.263  10.200  0.1143 -0.0135 -0.6255
  121MOL0     C15865   8.029   8.258  10.174  1.4710 -0.2569 -0.2400
  121MOL0     C15866   7.942   8.213  10.275 -0.0411 -0.4391 -0.3149
  121MOL0     C15867   7.807   8.209  10.249 -0.1098 -0.4382  0.2329
  121MOL0     C15868   7.757   8.241  10.127  0.3213  0.2991 -0.5879
  121MOL0     C15869   7.607   8.242  10.105 -0.6233  0.3226  0.2441
  121MOL0     O15870   7.531   8.245  10.219  1.0313  0.7950  0.7512
  121MOL0     C15871   7.392   8.256  10.220 -0.6558  0.1030  0.0095
  121MOL0     C15872   7.302   8.198  10.126  0.0207  0.2987 -1.1094
  121MOL0     C15873   7.161   8.213  10.134  0.3636  1.3288  0.0883
  121MOL0     C15874   7.111   8.297  10.229  0.8250 -0.8056 -0.2826
  121MOL0     O15875   6.975   8.322  10.264 -0.4028  0.3417  0.2663
  121MOL0     C15876   6.875   8.248  10.183 -0.4986  0.6386  0.2445
  121MOL0     C15877   6.736   8.294  10.225  0.1628  0.1768  0.0006
  121MOL0     C15878   6.630   8.252  10.126  0.2230 -0.1233  0.6854
  121MOL0     C15879   6.492   8.290  10.179 -0.0385  0.1465  0.4947
  121MOL0     C15880   6.380   8.302  10.079  0.0652  0.5344  0.3967
  121MOL0     C15881   6.240   8.301  10.142 -0.3762  0.4362  0.5748
  121MOL0     C15882   6.216   8.410  10.246  0.1877  0.4313  0.1989
  121MOL0     C15883   6.068   8.416  10.285  0.4574 -0.2750 -0.1121
  121MOL0    Cl15884   5.999   8.257  10.340  0.1657 -0.1615 -0.0934
  121MOL0     C15885   7.204   8.360  10.328  0.2378  0.3445  0.2471
  121MOL0     C15886   7.341   8.338  10.319  0.8050 -0.0977  0.3116
  121MOL0     O15887   7.563   8.277   9.992 -0.1361 -0.0608  0.1938
  121MOL0     C15888   7.839   8.281  10.021 -0.6484  0.2322 -0.3318
  121MOL0     C15889   7.975   8.285  10.049 -0.1522  0.7160 -0.0870
  121MOL0     N15890   8.758   8.247   9.867 -0.2466 -0.7016 -0.4234
  121MOL0     N15891   8.874   8.251   9.813 -0.8183 -0.0194 -1.0353
  121MOL0     C15892  10.049   8.039   9.693 -0.3481 -0.6232  0.9009
  121MOL0     C15893  10.177   8.006   9.729  0.2020  0.3746 -0.1901
  121MOL0     C15894  10.525   7.722   9.870 -0.3454  0.3106 -0.7956
  121MOL0     C15895  10.583   7.605   9.889 -0.4333 -0.3488 -0.6658
  121MOL0     C15896  10.724   7.591   9.912  0.4304  1.0069 -0.0084
  121MOL0     C15897  10.806   7.708   9.918 -0.6636  0.5261  0.2469
  121MOL0     O15898  10.948   7.703   9.926  0.4016 -0.4263 -0.0310
  121MOL0     C15899  11.031   7.589   9.948 -0.4333 -1.0631 -0.4633
  121MOL0     C15900  11.188   7.625   9.964 -0.3748 -0.5280  0.0801
  121MOL0     C15901  11.239   7.655   9.823 -0.1883 -0.4280 -0.4056
  121MOL0     C15902  11.269   7.536   9.732 -0.6675 -0.1866  0.8115
  121MOL0     C15903  11.375   7.580   9.636  0.3275  0.0054  0.4352
  121MOL0     C15904  11.469   7.622   9.566 -0.0127 -0.4633 -0.0211
  121MOL0     C15905  10.743   7.834   9.924  1.1665  0.3442  0.7993
  121MOL0     C15906  10.603   7.843   9.900  0.5751 -0.1762  0.3575
  121MOL0     H15907  10.103   7.725   9.908  1.1155 -1.3394 -0.7143
  121MOL0     H15908   9.884   7.810   9.875  0.3186 -0.2699  0.2197
  121MOL0     H15909   9.702   7.936   9.868 -0.3886 -1.1704 -0.6978
  121MOL0     H15910   9.712   7.825   9.735  0.2136 -0.8313  0.9154
  121MOL0     H15911   9.503   7.891   9.668 -0.3824  0.5478  0.4391
  121MOL0     H15912   9.570   8.054   9.619 -0.6386 -0.2931 -0.8453
  121MOL0     H15913   9.520   8.133   9.837 -1.0042  1.4011 -1.0412
  121MOL0     H15914   9.453   7.974   9.881 -1.8256 -0.0154 -0.0056
  121MOL0     H15915   9.330   8.183   9.713 -2.4078 -0.7680 -0.9370
  121MOL0     H15916   9.315   8.025   9.641 -1.3594  2.8085 -1.4507
  121MOL0     H15917   9.205   7.938   9.857 -0.6461 -0.5708 -1.8831
  121MOL0     H15918   9.128   8.077   9.770  1.4290  0.2042 -2.5659
  121MOL0     H15919   9.289   8.097  10.032  0.2071  7.8061  4.0659
  121MOL0     H15920   9.110   8.086  10.025  0.5409 -0.0618  2.1639
  121MOL0     H15921   9.190   8.307  10.079 -5.8023 -3.7275  0.7630
  121MOL0     H15922   9.297   8.302   9.927  0.2720 -1.6186 -0.7561
  121MOL0     H15923   9.109   8.307   9.781 -0.6526  0.2611 -0.1726
  121MOL0     H15924   9.085   8.449   9.888 -3.8439 -0.5010  0.2001
  121MOL0     H15925   8.937   8.319  10.139  1.8736 -1.1440 -0.8335
  121MOL0     H15926   8.669   8.303  10.191  1.1817  1.1755  0.0897
  121MOL0     H15927   8.649   8.144  10.118 -0.0248 -0.1248  0.2200
  121MOL0     H15928   8.486   8.251   9.955  1.2808 -0.3118  0.1249
  121MOL0     H15929   8.516   8.410  10.019  3.2345 -0.2640 -1.1459
  121MOL0     H15930   8.411   8.208  10.216  2.0820  1.3947  3.4383
  121MOL0     H15931   8.419   8.378  10.232  1.3143 -1.0841  1.0842
  121MOL0     H15932   8.251   8.244  10.015 -0.1733  0.1390 -0.6633
  121MOL0     H15933   8.240   8.416  10.077 -1.0928  0.2362  1.0553
  121MOL0     H15934   7.985   8.194  10.372 -0.9880  2.2572  0.7302
  121MOL0     H15935   7.742   8.176  10.330  3.7560 -0.8666  3.5030
  121MOL0     H15936   7.350   8.132  10.055 -0.9113 -1.6976  0.0460
  121MOL0     H15937   7.096   8.146  10.078 -0.8619  1.2158  1.6050
  121MOL0     H15938   6.877   8.139  10.194  0.8238  0.6271  0.0760
  121MOL0     H15939   6.883   8.282  10.079 -1.1712 -0.0887 -0.0632
  121MOL0     H15940   6.739   8.403  10.220  2.5220  0.1372 -4.9145
  121MOL0     H15941   6.719   8.261  10.328  1.3471  2.2970  0.9418
  121MOL0     H15942   6.639   8.144  10.110 -2.7521 -0.1953 -1.2636
  121MOL0     H15943   6.633   8.302  10.029 -1.1725 -3.3519 -1.1944
  121MOL0     H15944   6.458   8.228  10.262 -1.3911  0.0998 -0.0687
  121MOL0     H15945   6.500   8.394  10.215 -0.9075  0.6065 -0.5822
  121MOL0     H15946   6.393   8.217  10.011  0.1846 -0.5079  1.6899
  121MOL0     H15947   6.396   8.388  10.014  3.0996  0.2274  0.6086
  121MOL0     H15948   6.223   8.200  10.180 -1.6440  0.2672 -0.3501
  121MOL0     H15949   6.171   8.315  10.058 -0.0587 -0.0725  0.2232
  121MOL0     H15950   6.277   8.388  10.334  0.1224  0.5050  0.2631
  121MOL0     H15951   6.239   8.503  10.192 -0.5029  0.4437 -0.0796
  121MOL0     H15952   6.011   8.457  10.201  4.3296  1.7576 -2.0006
  121MOL0     H15953   6.051   8.491  10.363 -2.0013  0.3993 -1.1829
  121MOL0     H15954   7.159   8.424  10.404 -1.8879  0.0070 -0.6608
  121MOL0     H15955   7.402   8.391  10.392 -0.7628 -0.2994  1.8202
  121MOL0     H15956   7.800   8.309   9.923  2.6996 -1.3692 -2.3249
  121MOL0     H15957   8.036   8.310   9.963 -1.6756  1.8185 -0.8974
  121MOL0     H15958  10.035   8.121   9.624  0.6266 -0.8897  0.3702
  121MOL0     H15959  10.262   8.061   9.688  3.1496 -3.1783  0.6097
  121MOL0     H15960  10.525   7.514   9.874 -1.5042  0.3501 -0.9252
  121MOL0     H15961  10.768   7.492   9.919  1.0502  0.8521 -3.7427
  121MOL0     H15962  11.026   7.533   9.853 -1.8908 -0.4037 -0.8089
  121MOL0     H15963  10.995   7.525  10.029  0.4437 -0.2009  0.6425
  121MOL0     H15964  11.201   7.720  10.015  0.1740 -0.5072 -0.0992
  121MOL0     H15965  11.250   7.551  10.015 -0.6117  0.6037  2.1004
  121MOL0     H15966  11.337   7.703   9.836 -0.4778 -0.5223  2.8784
  121MOL0     H15967  11.173   7.727   9.774 -0.1710 -0.1066  0.0353
  121MOL0     H15968  11.289   7.448   9.794 -0.3747 -1.3318 -0.8424
  121MOL0     H15969  11.185   7.499   9.672  1.6390 -2.5962 -1.2131
  121MOL0     H15970  11.553   7.651   9.506  0.9988 -1.0403  1.0570
  121MOL0     H15971  10.796   7.924   9.950  0.4203  0.5151  1.8097
  121MOL0     H15972  10.558   7.941   9.914 -1.0825 -0.2185 -3.4557
  122MOL0     O15973   8.881   2.261   9.045 -0.2610 -0.5601  0.0777
  122MOL0     C15974   8.789   2.341   9.052  0.4781  0.1967  0.4589
  122MOL0     O15975   8.787   2.464   9.100 -0.2054 -0.1829 -0.3791
  122MOL0     C15976   8.906   2.522   9.149 -0.0742  0.0872 -0.1351
  122MOL0     C15977   8.965   2.624   9.073  0.5096  0.9768  0.0524
  122MOL0     C15978   9.090   2.681   9.122  0.4562 -0.5606 -0.8944
  122MOL0     C15979   9.150   2.625   9.240 -1.1893 -0.1001 -0.9525
  122MOL0     O15980   9.275   2.673   9.273 -0.1514  0.2726  0.1030
  122MOL0     C15981   9.291   2.689   9.419 -0.5332  0.6987 -0.1484
  122MOL0     C15982   9.383   2.808   9.441  0.3966 -0.4568 -0.2625
  122MOL0     C15983   9.511   2.820   9.357  0.8361  0.2411 -0.1241
  122MOL0     C15984   9.577   2.954   9.369 -0.3281 -0.2151  0.5205
  122MOL0     C15985   9.695   2.957   9.258 -0.3142 -0.2717  0.2487
  122MOL0     C15986   9.648   2.975   9.113  0.2892  0.2151  0.8900
  122MOL0     C15987   9.557   3.092   9.083 -0.4220 -0.2895 -0.1149
  122MOL0     C15988   9.594   3.227   9.155 -0.3542  0.1822  0.3424
  122MOL0     N15989   9.487   3.327   9.131 -0.0914  0.2072 -0.4994
  122MOL0     C15990   9.479   3.425   9.034 -0.6192 -0.0702 -0.1802
  122MOL0     C15991   9.361   3.486   9.058  0.1326 -0.5926  0.5312
  122MOL0     C15992   9.301   3.580   8.968 -0.3169 -0.4181 -0.5892
  122MOL0     C15993   9.203   3.504   8.875 -0.8096 -0.8385 -0.2137
  122MOL0     C15994   9.071   3.477   8.950 -0.4076  0.0495 -0.4906
  122MOL0     C15995   8.976   3.399   8.864  0.4765  0.5981 -0.1969
  122MOL0     O15996   8.943   3.452   8.734  0.7233  0.5340  0.2468
  122MOL0     C15997   8.856   3.558   8.720 -0.4507  0.3729 -0.0899
  122MOL0     C15998   8.729   3.579   8.780 -0.3348 -1.0520 -0.7340
  122MOL0     C15999   8.654   3.697   8.760  0.1895 -0.2127  0.1524
  122MOL0     C16000   8.696   3.787   8.664 -0.4530  0.1269 -0.2301
  122MOL0     C16001   8.603   3.889   8.631  0.5810 -0.2292  0.3785
  122MOL0     O16002   8.473   3.875   8.684 -0.5084 -0.0355 -0.0314
  122MOL0     C16003   8.372   3.968   8.676  0.0359 -0.5192 -0.7635
  122MOL0     C16004   8.355   4.059   8.570  0.1097  0.3171 -0.7537
  122MOL0     C16005   8.243   4.144   8.575 -0.5578 -0.9088 -0.2599
  122MOL0     C16006   8.154   4.154   8.681 -0.1142  1.1068  0.1915
  122MOL0     O16007   8.050   4.238   8.659  0.1754 -0.4733 -0.4494
  122MOL0     C16008   7.954   4.254   8.770  0.0299 -0.6184 -0.0709
  122MOL0     C16009   7.845   4.349   8.716 -0.4691 -0.5056  0.9520
  122MOL0     C16010   7.734   4.358   8.822 -0.4852 -0.4145  0.3382
  122MOL0     C16011   7.629   4.251   8.807  0.0099  0.9733 -0.1840
  122MOL0     C16012   7.508   4.253   8.903  0.6554 -0.3917  0.3746
  122MOL0     C16013   7.425   4.131   8.867  0.1209  0.4391 -0.5756
  122MOL0     C16014   7.321   4.113   8.976  0.2251  0.1329 -0.3003
  122MOL0     C16015   7.227   4.010   8.905  0.2180  0.1636  0.5846
  122MOL0    Cl16016   7.090   3.986   9.026  0.0188 -0.3628  0.3633
  122MOL0     C16017   8.172   4.046   8.782  0.0511 -0.7989 -0.2931
  122MOL0     C16018   8.277   3.960   8.779 -0.2847 -0.1082 -0.3937
  122MOL0     O16019   8.642   3.979   8.556 -0.2055  0.2429 -0.5099
  122MOL0     C16020   8.817   3.765   8.598 -0.0768 -0.2084  0.2191
  122MOL0     C16021   8.899   3.655   8.631  0.1464  0.6154 -0.2194
  122MOL0     N16022   9.301   3.431   9.175  0.5321  0.2323  0.5538
  122MOL0     N16023   9.379   3.338   9.212  0.1681  0.7477  0.3050
  122MOL0     C16024   9.075   2.532   9.321 -0.1582 -0.6543  0.0106
  122MOL0     C16025   8.958   2.479   9.274  0.0584 -0.3497 -0.4919
  122MOL0     C16026   8.651   2.295   9.018 -0.7610 -0.8519 -0.3392
  122MOL0     C16027   8.539   2.372   9.054  0.6987 -1.1240 -0.2101
  122MOL0     C16028   8.412   2.324   9.027 -0.3241  0.0419  0.2836
  122MOL0     C16029   8.399   2.203   8.956  0.7808  0.7379  0.9898
  122MOL0     O16030   8.274   2.148   8.940  0.4694 -0.1484  0.0649
  122MOL0     C16031   8.206   2.101   9.056 -0.2345  0.6434 -0.3581
  122MOL0     C16032   8.274   1.976   9.116 -1.4721  0.0783 -0.6265
  122MOL0     C16033   8.279   1.846   9.031 -0.0424 -0.4223 -0.2762
  122MOL0     C16034   8.143   1.795   8.975  0.3079  0.7410  0.3271
  122MOL0     C16035   8.155   1.653   8.931 -0.5545  0.7825 -0.1107
  122MOL0     C16036   8.172   1.541   8.896  0.3741  0.2957  0.5963
  122MOL0     C16037   8.509   2.124   8.921  0.0685  0.4216 -0.0535
  122MOL0     C16038   8.635   2.171   8.962 -1.0577 -0.5041 -0.0193
  122MOL0     H16039   8.913   2.656   8.983  1.4797  2.4630 -0.0171
  122MOL0     H16040   9.138   2.768   9.078 -2.4060  1.2132 -0.7478
  122MOL0     H16041   9.341   2.605   9.469 -0.8458  1.0285  0.7327
  122MOL0     H16042   9.195   2.703   9.470 -1.3218 -1.2438 -0.9683
  122MOL0     H16043   9.413   2.808   9.546  2.5617  0.5554 -0.8179
  122MOL0     H16044   9.328   2.901   9.425  1.5628  0.3837  0.4411
  122MOL0     H16045   9.485   2.793   9.255 -1.5309 -0.8788  0.7215
  122MOL0     H16046   9.582   2.744   9.391  0.0209 -1.5218 -2.1694
  122MOL0     H16047   9.505   3.031   9.340  0.5832  0.2526 -0.5546
  122MOL0     H16048   9.609   2.974   9.472  2.0822 -0.2397 -0.1523
  122MOL0     H16049   9.758   2.868   9.253 -1.8762 -1.3681 -0.6004
  122MOL0     H16050   9.753   3.046   9.284  0.4365 -1.2364  2.0993
  122MOL0     H16051   9.600   2.885   9.073  1.0017  0.9275 -1.7876
  122MOL0     H16052   9.737   2.986   9.050 -0.8615  0.1130 -0.8094
  122MOL0     H16053   9.531   3.101   8.977 -2.0078  3.1610  0.4529
  122MOL0     H16054   9.467   3.058   9.135 -0.5836  0.0354 -0.1777
  122MOL0     H16055   9.694   3.265   9.132  0.3327 -0.7865  1.6362
  122MOL0     H16056   9.589   3.205   9.262 -2.4049  2.1193  0.7159
  122MOL0     H16057   9.543   3.430   8.946 -1.0260  0.0115 -0.4719
  122MOL0     H16058   9.379   3.630   8.910  0.0840  2.1260  1.9329
  122MOL0     H16059   9.251   3.661   9.020  0.1536 -0.7528  0.4041
  122MOL0     H16060   9.243   3.416   8.824  0.1399 -1.6566  1.8391
  122MOL0     H16061   9.162   3.563   8.792 -1.4588 -0.2040  0.5426
  122MOL0     H16062   9.079   3.420   9.043 -2.8318  1.9069  0.9831
  122MOL0     H16063   9.018   3.568   8.980 -1.6126  0.1363 -2.7328
  122MOL0     H16064   8.888   3.387   8.927  2.2939 -0.8216  2.2071
  122MOL0     H16065   9.017   3.298   8.857 -1.1807 -0.0361 -1.3178
  122MOL0     H16066   8.685   3.508   8.849 -0.6432 -1.2803 -1.1614
  122MOL0     H16067   8.563   3.683   8.819  2.5197 -3.1672  3.4634
  122MOL0     H16068   8.416   4.068   8.481 -0.9550  2.7697 -1.3137
  122MOL0     H16069   8.220   4.208   8.490 -1.5503 -0.4214  0.3498
  122MOL0     H16070   7.997   4.294   8.863  1.7052 -4.1585  0.8271
  122MOL0     H16071   7.911   4.162   8.810  0.3365  0.6694  3.6803
  122MOL0     H16072   7.801   4.302   8.628  2.1897 -0.4432 -0.5091
  122MOL0     H16073   7.875   4.449   8.685 -0.6198 -1.2101 -1.7373
  122MOL0     H16074   7.684   4.455   8.816 -0.6784 -0.4790  0.8412
  122MOL0     H16075   7.770   4.360   8.926 -0.1335 -0.1805  0.2171
  122MOL0     H16076   7.594   4.242   8.704  1.2141 -2.0527 -0.4216
  122MOL0     H16077   7.684   4.160   8.833  1.0519  2.1178  1.9136
  122MOL0     H16078   7.450   4.345   8.889  0.3802 -0.0781  2.9401
  122MOL0     H16079   7.543   4.240   9.006  0.4585  1.5589  0.7238
  122MOL0     H16080   7.481   4.037   8.868 -0.6571 -0.0321 -0.1977
  122MOL0     H16081   7.388   4.137   8.764 -1.1579  0.5865 -0.1198
  122MOL0     H16082   7.368   4.082   9.069  0.5323  3.2720  0.6979
  122MOL0     H16083   7.262   4.201   9.004 -0.1875 -0.2545  0.0687
  122MOL0     H16084   7.259   3.907   8.888 -5.7053 -1.6532 -2.5223
  122MOL0     H16085   7.193   4.059   8.813  0.6931  0.2701  0.4636
  122MOL0     H16086   8.102   4.040   8.865 -0.0820  2.7093 -0.0069
  122MOL0     H16087   8.290   3.884   8.855  0.0701  1.0951  0.7940
  122MOL0     H16088   8.854   3.841   8.531 -1.5150 -0.7419 -1.2242
  122MOL0     H16089   8.999   3.650   8.590  0.4825 -0.3461  0.6785
  122MOL0     H16090   9.107   2.486   9.413  4.2067 -0.5742 -1.2468
  122MOL0     H16091   8.907   2.409   9.338 -0.6303 -0.5436 -1.2306
  122MOL0     H16092   8.540   2.466   9.107 -2.1727 -2.2405  2.1522
  122MOL0     H16093   8.323   2.379   9.059  1.1507  1.3475  2.4069
  122MOL0     H16094   8.105   2.067   9.032  0.3326  0.2624 -2.3982
  122MOL0     H16095   8.198   2.183   9.128 -0.1117  0.3505 -0.0073
  122MOL0     H16096   8.379   2.001   9.135 -1.3186 -1.0107  0.0524
  122MOL0     H16097   8.221   1.949   9.208 -1.9693  2.3702 -0.1837
  122MOL0     H16098   8.325   1.767   9.090  2.0599 -0.3719 -1.7421
  122MOL0     H16099   8.337   1.856   8.939 -1.3480 -0.7350 -1.1696
  122MOL0     H16100   8.060   1.810   9.045 -2.6646  2.0094 -3.1440
  122MOL0     H16101   8.120   1.860   8.890 -0.8420 -1.2400 -0.9461
  122MOL0     H16102   8.193   1.445   8.853 -0.1182  1.5947 -2.9106
  122MOL0     H16103   8.491   2.024   8.883 -0.0050 -0.2403  1.6560
  122MOL0     H16104   8.717   2.101   8.962 -0.0599  0.6392 -0.0792
  123MOL0     O16105  11.001  10.214   8.719 -0.1761  0.3843 -1.3595
  123MOL0     C16106  10.953  10.169   8.619 -0.1949  0.2029  0.4426
  123MOL0     O16107  11.024  10.129   8.507 -0.1117  0.5304 -0.1242
  123MOL0     C16108  11.159  10.148   8.503 -0.0685 -0.2373  0.0633
  123MOL0     C16109  11.250  10.073   8.571  0.2997 -0.6285  0.1492
  123MOL0     C16110  11.384  10.081   8.537 -1.0816 -0.5176  0.1569
  123MOL0     C16111  11.437  10.172   8.444  0.2777 -0.8384  0.1978
  123MOL0     O16112  11.577  10.174   8.417  0.6743  0.2108 -0.2373
  123MOL0     C16113  11.639  10.261   8.329 -0.3227 -1.8044 -0.3941
  123MOL0     C16114  11.662  10.398   8.396  0.0163 -0.2253  0.1388
  123MOL0     C16115  11.789  10.419   8.479 -0.8898  0.1877 -0.2955
  123MOL0     C16116  11.927  10.399   8.413  0.1607 -1.1075 -0.3344
  123MOL0     C16117  12.045  10.451   8.506 -0.6332 -0.4498 -0.2918
  123MOL0     C16118  12.163  10.452   8.415 -0.1381 -0.3088 -0.6934
  123MOL0     C16119  12.284  10.517   8.493  0.3236 -0.1797  0.3305
  123MOL0     C16120  12.261  10.659   8.544 -0.2427 -1.0581  0.0540
  123MOL0     N16121  12.248  10.755   8.431  0.7611 -0.7826 -1.1601
  123MOL0     C16122  12.165  10.866   8.443  0.0581 -0.2216  0.7300
  123MOL0     C16123  12.146  10.912   8.314 -0.5023 -0.0527 -0.4185
  123MOL0     C16124  12.045  11.013   8.274  0.0175 -0.8610  0.4315
  123MOL0     C16125  11.943  10.955   8.183  0.5591 -0.4659  0.1733
  123MOL0     C16126  11.838  10.889   8.264  0.6407  0.3768  0.6799
  123MOL0     C16127  11.721  10.830   8.180 -0.1451  0.0680  0.1254
  123MOL0     O16128  11.615  10.766   8.267 -1.4059  0.3134 -0.0257
  123MOL0     C16129  11.519  10.692   8.198 -0.5744  0.5912  0.3703
  123MOL0     C16130  11.419  10.632   8.277 -0.0137 -0.6618  0.3471
  123MOL0     C16131  11.322  10.555   8.219  0.0878 -0.1289 -0.6631
  123MOL0     C16132  11.318  10.532   8.082  0.6369  0.4217  0.1849
  123MOL0     C16133  11.210  10.458   8.020 -0.2588 -0.8301  0.5947
  123MOL0     O16134  11.114  10.397   8.097 -0.3568  0.6251 -0.2667
  123MOL0     C16135  11.029  10.291   8.050 -0.3801 -0.4501 -1.0013
  123MOL0     C16136  10.913  10.274   8.127 -0.6322  1.1512  0.0172
  123MOL0     C16137  10.816  10.168   8.089 -0.2524 -0.4446  0.1268
  123MOL0     C16138  10.847  10.073   7.983  0.1456 -0.2096 -0.8917
  123MOL0     O16139  10.749   9.973   7.980 -0.2835 -0.2480 -0.0907
  123MOL0     C16140  10.767   9.865   7.887 -0.3380  0.6997  0.3904
  123MOL0     C16141  10.626   9.806   7.883 -0.4666 -0.3703 -0.3085
  123MOL0     C16142  10.611   9.698   7.770  0.2582  0.0727  0.6878
  123MOL0     C16143  10.472   9.633   7.778  0.7640 -0.8071  0.0138
  123MOL0     C16144  10.443   9.526   7.685  0.1352  0.4377 -0.0170
  123MOL0     C16145  10.547   9.404   7.690  0.0891  0.1903 -0.6699
  123MOL0     C16146  10.486   9.291   7.617 -0.6876  0.2710  0.0914
  123MOL0     C16147  10.564   9.165   7.644 -0.2833  0.3974 -0.7506
  123MOL0    Cl16148  10.724   9.186   7.565  0.3047  0.2299  0.1036
  123MOL0     C16149  10.966  10.096   7.908  0.3779  0.3598  0.3775
  123MOL0     C16150  11.052  10.201   7.939  0.8053  0.3487 -0.1015
  123MOL0     O16151  11.210  10.461   7.897  0.6720 -0.6893  0.2315
  123MOL0     C16152  11.423  10.584   8.001 -0.4005  0.2667 -0.6727
  123MOL0     C16153  11.514  10.670   8.056 -0.1328 -0.0045 -0.7035
  123MOL0     N16154  12.222  10.831   8.232  0.7422  0.2232 -0.7403
  123MOL0     N16155  12.293  10.746   8.305  0.1447 -0.6244  0.3462
  123MOL0     C16156  11.343  10.250   8.376 -0.5826 -0.2900 -0.8254
  123MOL0     C16157  11.208  10.243   8.412 -0.1351  0.0643  0.2593
  123MOL0     C16158  10.804  10.164   8.617  0.6542 -0.1544  0.2336
  123MOL0     C16159  10.733  10.131   8.494  0.3097  0.6892  0.1270
  123MOL0     C16160  10.592  10.140   8.487  0.5483  0.9853  0.0725
  123MOL0     C16161  10.518  10.174   8.598  0.0379 -0.0711 -0.3235
  123MOL0     O16162  10.379  10.198   8.589 -0.5753 -0.2689 -0.4517
  123MOL0     C16163  10.302  10.072   8.585 -0.1131  0.1963 -0.4278
  123MOL0     C16164  10.296   9.999   8.724 -0.0356 -0.5656 -0.1174
  123MOL0     C16165  10.184  10.049   8.817  0.6457  0.2656 -0.2696
  123MOL0     C16166  10.215   9.994   8.965 -0.0176  0.2512  0.6690
  123MOL0     C16167  10.302  10.084   9.048 -0.2253 -1.1053 -0.3640
  123MOL0     C16168  10.374  10.157   9.113 -0.0325 -0.5469  0.7648
  123MOL0     C16169  10.587  10.202   8.716 -0.0503  0.3601 -0.1407
  123MOL0     C16170  10.727  10.197   8.728  0.0894 -0.3816 -0.4913
  123MOL0     H16171  11.209   9.996   8.636 -1.3846  1.4345  1.6873
  123MOL0     H16172  11.448  10.006   8.582 -2.0743 -2.1533 -1.0539
  123MOL0     H16173  11.581  10.272   8.237  0.5959  0.9693 -0.7285
  123MOL0     H16174  11.735  10.222   8.291  1.1262  0.3234  0.8492
  123MOL0     H16175  11.578  10.442   8.451  1.5730  3.5392 -0.1971
  123MOL0     H16176  11.661  10.470   8.313 -0.3094  0.1708  0.4761
  123MOL0     H16177  11.782  10.340   8.554  0.3727 -0.3629 -0.7339
  123MOL0     H16178  11.792  10.519   8.525  0.4966 -0.5141  1.2302
  123MOL0     H16179  11.942  10.296   8.381 -1.8153 -1.7146  0.5830
  123MOL0     H16180  11.923  10.455   8.319 -0.2051  0.9132  0.8186
  123MOL0     H16181  12.067  10.379   8.585  0.9661  0.1769 -0.1339
  123MOL0     H16182  12.023  10.549   8.549  3.5256  1.0609 -1.1820
  123MOL0     H16183  12.141  10.510   8.325 -0.5782 -0.3871 -0.6383
  123MOL0     H16184  12.190  10.349   8.388 -0.8651 -0.8715  0.6092
  123MOL0     H16185  12.305  10.464   8.587  0.2903 -0.3333  0.2512
  123MOL0     H16186  12.379  10.512   8.438  2.3892 -2.8128  3.7099
  123MOL0     H16187  12.353  10.693   8.593  0.8105 -1.7516 -1.3554
  123MOL0     H16188  12.177  10.683   8.609  1.0442  1.1962  1.0269
  123MOL0     H16189  12.127  10.906   8.536  1.4510  1.8270  0.4823
  123MOL0     H16190  12.086  11.097   8.217 -0.1019 -1.5210 -0.6571
  123MOL0     H16191  12.009  11.058   8.367  0.2880  1.1529 -0.3888
  123MOL0     H16192  11.997  10.879   8.126  1.0175 -0.7152  0.9192
  123MOL0     H16193  11.896  11.031   8.120  0.3833 -2.7230 -2.6051
  123MOL0     H16194  11.875  10.806   8.325 -2.4411 -1.7121 -0.0770
  123MOL0     H16195  11.792  10.960   8.334 -2.4313 -0.3168 -0.4657
  123MOL0     H16196  11.759  10.760   8.104 -2.8830 -1.0246 -0.3622
  123MOL0     H16197  11.671  10.915   8.131  2.5939  1.0002 -1.2449
  123MOL0     H16198  11.418  10.647   8.384 -0.3426 -0.4402  0.3147
  123MOL0     H16199  11.239  10.530   8.285  1.1429  2.9674  2.1184
  123MOL0     H16200  10.902  10.336   8.216 -0.1625 -0.3165  1.1494
  123MOL0     H16201  10.744  10.140   8.165  0.3281 -2.0138  0.1355
  123MOL0     H16202  10.844   9.795   7.921  0.9495  1.3281 -1.0908
  123MOL0     H16203  10.793   9.880   7.782  1.3361 -4.2482 -0.1729
  123MOL0     H16204  10.558   9.889   7.865  0.6562  0.7089  0.2293
  123MOL0     H16205  10.606   9.759   7.980  0.8061 -0.2063  0.0605
  123MOL0     H16206  10.697   9.631   7.776  1.9838  1.9936 -1.0339
  123MOL0     H16207  10.613   9.740   7.669  2.4319  0.6576  0.9263
  123MOL0     H16208  10.449   9.589   7.875 -1.4363 -0.8145 -0.4738
  123MOL0     H16209  10.390   9.701   7.755  1.8491 -0.1470 -2.1522
  123MOL0     H16210  10.427   9.561   7.583  0.6119 -1.1039 -0.6454
  123MOL0     H16211  10.351   9.479   7.720  1.5591 -3.5534 -1.1167
  123MOL0     H16212  10.570   9.383   7.795 -1.2707 -2.4870 -0.8064
  123MOL0     H16213  10.641   9.432   7.644  0.3638 -0.5534 -0.5667
  123MOL0     H16214  10.392   9.265   7.666  0.1556  0.2126  1.7559
  123MOL0     H16215  10.478   9.304   7.509  0.3801 -0.8898 -0.1628
  123MOL0     H16216  10.500   9.085   7.606 -2.1356  1.5839 -0.2372
  123MOL0     H16217  10.556   9.141   7.751 -1.0149  0.1102 -0.8628
  123MOL0     H16218  10.982  10.034   7.821  0.6649  1.5953 -0.4831
  123MOL0     H16219  11.144  10.219   7.885  1.7215 -0.4538  1.1321
  123MOL0     H16220  11.439  10.563   7.896 -0.1554  2.1152 -1.0537
  123MOL0     H16221  11.588  10.721   7.996 -0.5989  1.7456  0.1595
  123MOL0     H16222  11.375  10.321   8.300 -0.2944 -0.6079 -1.0074
  123MOL0     H16223  11.143  10.296   8.344  2.0041  0.7970 -1.3179
  123MOL0     H16224  10.790  10.110   8.405  1.5819  0.9057  0.8692
  123MOL0     H16225  10.534  10.125   8.397 -0.7971 -1.3800  1.2408
  123MOL0     H16226  10.346  10.001   8.515 -1.0355 -1.6378  0.7668
  123MOL0     H16227  10.201  10.093   8.547 -1.1052 -2.2486  0.6534
  123MOL0     H16228  10.280   9.891   8.715  2.5173 -1.0356  0.1376
  123MOL0     H16229  10.389  10.012   8.780  0.7586  0.6043 -1.6164
  123MOL0     H16230  10.083  10.016   8.790 -0.3024 -1.0924  4.2046
  123MOL0     H16231  10.186  10.158   8.808  2.7093  0.2692 -0.1889
  123MOL0     H16232  10.127   9.977   9.026 -0.7039  0.8075 -0.1446
  123MOL0     H16233  10.266   9.897   8.961  0.7196  0.6698 -0.5979
  123MOL0     H16234  10.434  10.227   9.168  2.9226 -2.2832 -0.0395
  123MOL0     H16235  10.535  10.228   8.808  0.7838  0.0072  0.4508
  123MOL0     H16236  10.774  10.214   8.824 -0.3540  0.7315 -0.4625
  124MOL0     O16237   8.229   2.884   0.676  0.6826 -0.2796  0.2238
  124MOL0     C16238   8.303   2.786   0.681  0.3927  0.1744 -0.1012
  124MOL0     O16239   8.267   2.658   0.717  0.2310 -0.7374  0.5244
  124MOL0     C16240   8.144   2.622   0.759  1.0568  0.0496 -0.4297
  124MOL0     C16241   8.154   2.509   0.837 -0.2952 -0.2965 -1.6489
  124MOL0     C16242   8.048   2.457   0.905 -0.5718 -0.2327  0.1819
  124MOL0     C16243   7.917   2.505   0.879 -0.1392  0.1661 -0.4217
  124MOL0     O16244   7.810   2.446   0.942 -0.2806 -0.0263 -0.3107
  124MOL0     C16245   7.815   2.322   1.012  0.8989 -0.8455  0.0701
  124MOL0     C16246   7.672   2.277   1.064  0.5704 -0.0688 -0.5042
  124MOL0     C16247   7.701   2.191   1.186  1.0504 -0.0071 -0.4551
  124MOL0     C16248   7.572   2.096   1.199  0.1338 -0.5502  0.4993
  124MOL0     C16249   7.570   1.995   1.314 -0.6495 -0.6878 -0.1742
  124MOL0     C16250   7.437   1.929   1.319  0.6572 -0.6846 -0.3008
  124MOL0     C16251   7.432   1.818   1.419  0.1645  0.9122  0.2753
  124MOL0     C16252   7.295   1.803   1.486 -0.4328 -0.1478 -0.3998
  124MOL0     N16253   7.184   1.781   1.393  0.0426 -0.4812  0.3435
  124MOL0     C16254   7.129   1.665   1.368  0.5940 -0.3379  0.2347
  124MOL0     C16255   7.018   1.687   1.299 -0.0792  0.1731  0.7434
  124MOL0     C16256   6.927   1.572   1.264  0.0745  0.1238  0.9417
  124MOL0     C16257   6.857   1.512   1.381  0.2826  0.4645  0.4073
  124MOL0     C16258   6.770   1.396   1.335 -0.4589  0.2509  0.4375
  124MOL0     C16259   6.652   1.458   1.266 -0.3767 -0.2983  0.5224
  124MOL0     O16260   6.543   1.364   1.276  0.2168  0.7840  0.3090
  124MOL0     C16261   6.421   1.394   1.228 -0.3502 -0.3688 -0.9865
  124MOL0     C16262   6.385   1.507   1.150 -0.1965  0.0371  0.1956
  124MOL0     C16263   6.251   1.512   1.101  0.1713 -1.0018 -0.2290
  124MOL0     C16264   6.156   1.407   1.126 -0.2293 -0.4150 -0.5741
  124MOL0     C16265   6.019   1.416   1.083  0.4060  1.2975  0.4071
  124MOL0     O16266   5.927   1.320   1.130 -0.3875 -0.2049  0.3432
  124MOL0     C16267   5.798   1.313   1.086 -0.3216  0.8405 -0.2489
  124MOL0     C16268   5.703   1.305   1.186  0.2604 -0.3906 -0.1718
  124MOL0     C16269   5.567   1.290   1.158 -0.0860 -0.7450  0.7492
  124MOL0     C16270   5.525   1.289   1.026  0.7486  0.3910 -0.8521
  124MOL0     O16271   5.394   1.266   1.010  0.0096 -0.2677  0.3996
  124MOL0     C16272   5.350   1.173   0.912  0.5649 -0.0717  0.3517
  124MOL0     C16273   5.201   1.139   0.932 -0.0409 -0.5074 -0.0103
  124MOL0     C16274   5.171   1.060   1.052  0.4596 -0.0405  0.8719
  124MOL0     C16275   5.020   1.023   1.058  0.0789 -0.3972  0.1733
  124MOL0     C16276   4.975   0.956   1.188  0.0597  0.6654  0.4086
  124MOL0     C16277   4.830   0.938   1.209  1.5643 -0.6758 -0.0966
  124MOL0     C16278   4.795   0.858   1.345  0.2149 -0.2842  0.6809
  124MOL0     C16279   4.652   0.846   1.389 -0.1493  1.1941 -0.0486
  124MOL0    Cl16280   4.538   0.761   1.286  0.2022 -0.1347  0.2887
  124MOL0     C16281   5.626   1.284   0.926  0.9748 -0.0148 -0.2900
  124MOL0     C16282   5.760   1.294   0.952 -0.3739 -0.3458 -0.3905
  124MOL0     O16283   5.993   1.514   1.015  0.6479  0.2317 -0.0859
  124MOL0     C16284   6.201   1.300   1.209  0.4013  0.3295 -0.3962
  124MOL0     C16285   6.328   1.293   1.245 -0.3410  0.8487 -0.6763
  124MOL0     N16286   6.995   1.823   1.290 -1.4884  0.0713 -0.4802
  124MOL0     N16287   7.106   1.883   1.344  0.1213  0.4226  0.2383
  124MOL0     C16288   7.902   2.607   0.796 -0.0020 -0.3630  0.0942
  124MOL0     C16289   8.020   2.669   0.732  0.1282 -0.3373 -0.2617
  124MOL0     C16290   8.438   2.811   0.648 -0.3028  0.0685 -0.2518
  124MOL0     C16291   8.478   2.919   0.574 -0.5215  0.0341  0.4366
  124MOL0     C16292   8.615   2.953   0.566 -0.0375 -0.1587 -0.1097
  124MOL0     C16293   8.712   2.867   0.617 -0.0009  0.0471 -0.7257
  124MOL0     O16294   8.844   2.904   0.612  0.1195 -1.0414  0.4610
  124MOL0     C16295   8.949   2.812   0.623 -0.3318  0.3819 -0.2549
  124MOL0     C16296   9.083   2.872   0.597  0.7992  0.2312  0.3008
  124MOL0     C16297   9.115   2.975   0.705  0.2190  0.7108  0.1306
  124MOL0     C16298   9.241   3.053   0.689  0.1343  0.3244 -0.1722
  124MOL0     C16299   9.219   3.147   0.580 -0.5480 -0.0054 -0.9929
  124MOL0     C16300   9.201   3.219   0.490  0.4190  0.6081 -0.1113
  124MOL0     C16301   8.670   2.753   0.686 -0.5534  0.3231 -0.0385
  124MOL0     C16302   8.536   2.723   0.699  0.9038  0.1546  0.2565
  124MOL0     H16303   8.252   2.470   0.858 -1.7402 -3.1043  0.5005
  124MOL0     H16304   8.056   2.376   0.976  1.6825 -0.5997 -0.4315
  124MOL0     H16305   7.886   2.330   1.095  1.9002 -0.5632 -0.7902
  124MOL0     H16306   7.852   2.243   0.946 -0.7404 -2.1696  0.6583
  124MOL0     H16307   7.618   2.221   0.987 -2.2321  1.2049  0.4037
  124MOL0     H16308   7.607   2.357   1.100  1.3723 -0.0531  0.9837
  124MOL0     H16309   7.712   2.254   1.274 -0.9284  2.4101 -1.8221
  124MOL0     H16310   7.790   2.128   1.171  1.5147 -0.0137  1.9589
  124MOL0     H16311   7.486   2.161   1.217 -2.8353 -4.2555  1.0164
  124MOL0     H16312   7.553   2.047   1.103 -1.7996  2.9115 -1.0645
  124MOL0     H16313   7.594   2.054   1.403  0.2669 -0.4270 -0.5727
  124MOL0     H16314   7.648   1.921   1.296  1.5345  2.0236 -3.0589
  124MOL0     H16315   7.402   1.891   1.222 -0.7111  0.8081 -0.4350
  124MOL0     H16316   7.360   2.004   1.340  0.4842 -1.3567  1.6011
  124MOL0     H16317   7.448   1.718   1.378  0.9414 -0.2150  3.1072
  124MOL0     H16318   7.503   1.843   1.498  2.6983  8.8415 -3.4763
  124MOL0     H16319   7.278   1.890   1.550 -0.9381  0.8362 -1.8538
  124MOL0     H16320   7.305   1.719   1.556  0.5473 -0.7865 -1.2799
  124MOL0     H16321   7.159   1.569   1.408  1.9859 -0.1985 -0.3942
  124MOL0     H16322   6.967   1.487   1.209 -1.2802 -0.2208  0.4457
  124MOL0     H16323   6.851   1.614   1.197  1.5852  0.4072 -0.6526
  124MOL0     H16324   6.800   1.588   1.435 -0.6358  0.2188 -0.1866
  124MOL0     H16325   6.933   1.472   1.449  1.4752  1.1501 -0.4853
  124MOL0     H16326   6.812   1.324   1.265  1.6901  2.5943 -0.8866
  124MOL0     H16327   6.737   1.346   1.427  2.3042 -0.5341  1.1074
  124MOL0     H16328   6.679   1.464   1.160  3.8710 -2.0827  1.2675
  124MOL0     H16329   6.626   1.557   1.303 -1.8866 -1.3688  2.5033
  124MOL0     H16330   6.464   1.578   1.124  2.8079 -3.3099 -0.6253
  124MOL0     H16331   6.237   1.602   1.042 -0.7912 -0.1359  1.2500
  124MOL0     H16332   5.732   1.315   1.291  0.6186 -0.6829 -0.2393
  124MOL0     H16333   5.502   1.277   1.244 -1.0087  0.3777  0.2632
  124MOL0     H16334   5.406   1.081   0.934  1.6895  0.2092 -1.1282
  124MOL0     H16335   5.359   1.213   0.810 -2.2907  2.7790  1.0792
  124MOL0     H16336   5.170   1.089   0.840  1.9308  0.1083 -1.0807
  124MOL0     H16337   5.144   1.232   0.935 -3.5299 -2.4965  3.5617
  124MOL0     H16338   5.190   1.125   1.138  1.6252  2.8191 -1.3746
  124MOL0     H16339   5.238   0.974   1.060  2.3172  1.2424 -0.1851
  124MOL0     H16340   4.967   1.118   1.067 -2.1985 -1.8232  4.3153
  124MOL0     H16341   4.986   0.974   0.966  0.5097  0.8748 -0.6990
  124MOL0     H16342   5.018   1.005   1.276  1.2450 -0.8215  0.7013
  124MOL0     H16343   5.014   0.854   1.191 -0.8753  0.3197  1.7873
  124MOL0     H16344   4.803   0.878   1.122  2.1924 -0.8537 -0.1704
  124MOL0     H16345   4.774   1.032   1.219  0.0100 -1.7449  2.1319
  124MOL0     H16346   4.835   0.757   1.338  0.4391 -0.0737 -2.2829
  124MOL0     H16347   4.851   0.902   1.428  2.0019  0.6336 -0.9484
  124MOL0     H16348   4.620   0.950   1.405 -0.7075  1.0414 -0.1641
  124MOL0     H16349   4.642   0.810   1.491  1.0176  4.0203  1.1857
  124MOL0     H16350   5.601   1.287   0.821 -0.2503  1.2238  0.0056
  124MOL0     H16351   5.835   1.292   0.874 -0.1629  3.2841 -0.4424
  124MOL0     H16352   6.133   1.225   1.249  0.0510  1.2492  0.7906
  124MOL0     H16353   6.359   1.203   1.297 -0.0520  1.1518 -0.3251
  124MOL0     H16354   7.805   2.643   0.764  0.9841 -1.0129 -4.1869
  124MOL0     H16355   8.006   2.760   0.675 -1.6389 -0.4771 -0.1152
  124MOL0     H16356   8.410   2.994   0.535 -0.4532 -0.3290 -0.4031
  124MOL0     H16357   8.647   3.051   0.534 -0.2959  0.2430  0.8328
  124MOL0     H16358   8.923   2.723   0.565  0.4806  0.8950 -1.4487
  124MOL0     H16359   8.956   2.772   0.724 -1.1379  1.2049  0.1366
  124MOL0     H16360   9.162   2.797   0.586 -0.2337 -0.8827  0.3220
  124MOL0     H16361   9.076   2.924   0.501 -2.5612 -0.6246 -0.0464
  124MOL0     H16362   9.104   2.924   0.802  0.0471 -2.7870 -1.5684
  124MOL0     H16363   9.031   3.045   0.712 -2.6093 -2.3438 -0.3182
  124MOL0     H16364   9.261   3.103   0.784 -0.6526 -2.5002  1.6011
  124MOL0     H16365   9.320   2.980   0.668 -1.1562 -1.2072  0.1547
  124MOL0     H16366   9.185   3.283   0.406  1.1917  1.1685  0.1576
  124MOL0     H16367   8.734   2.682   0.737 -2.5817 -1.3665  0.3172
  124MOL0     H16368   8.510   2.639   0.763  1.5099 -0.5634 -0.4096
  125MOL0     O16369   8.518   1.822   2.583  0.2232 -0.0877  0.0724
  125MOL0     C16370   8.538   1.913   2.669  0.2351  0.2524 -0.0655
  125MOL0     O16371   8.438   1.975   2.748 -0.7032  0.0788 -0.2938
  125MOL0     C16372   8.315   1.929   2.735  0.1142  0.7440  0.6500
  125MOL0     C16373   8.224   2.003   2.657 -0.0732 -1.0366 -0.4491
  125MOL0     C16374   8.091   1.958   2.641  0.6642  0.3062  0.8864
  125MOL0     C16375   8.057   1.832   2.692 -0.5267  0.6163 -0.0568
  125MOL0     O16376   7.945   1.778   2.646  0.3477 -0.0198  0.4774
  125MOL0     C16377   7.882   1.675   2.719 -0.3058 -0.0235 -0.0040
  125MOL0     C16378   7.779   1.610   2.642 -0.1238 -0.4545  0.3254
  125MOL0     C16379   7.637   1.671   2.634 -0.4774  0.1703 -0.0430
  125MOL0     C16380   7.539   1.566   2.582 -0.3529  0.4480  0.1003
  125MOL0     C16381   7.399   1.614   2.615 -0.2433 -0.4090  0.4202
  125MOL0     C16382   7.299   1.493   2.608 -0.1218 -0.6588  0.0312
  125MOL0     C16383   7.168   1.545   2.662  0.2120  0.3887  0.8038
  125MOL0     C16384   7.050   1.447   2.636 -0.4775  0.3598 -0.4300
  125MOL0     N16385   6.931   1.500   2.707  0.0094  0.5658 -0.8564
  125MOL0     C16386   6.864   1.612   2.672 -0.1058  0.0262 -0.0454
  125MOL0     C16387   6.794   1.656   2.785 -0.7471  0.2478 -0.0268
  125MOL0     C16388   6.699   1.769   2.800  0.2035 -0.3919  0.4738
  125MOL0     C16389   6.555   1.718   2.806 -0.0017 -0.1775 -0.9085
  125MOL0     C16390   6.472   1.792   2.911  0.1864 -0.2678 -0.7806
  125MOL0     C16391   6.416   1.924   2.845  0.1120  0.2332 -0.5744
  125MOL0     O16392   6.325   1.901   2.737 -0.1453  0.3229 -0.2576
  125MOL0     C16393   6.188   1.924   2.759 -0.7980 -0.2323 -0.3504
  125MOL0     C16394   6.121   2.038   2.705 -0.9813  1.0992 -0.9590
  125MOL0     C16395   5.992   2.071   2.752  0.5236 -0.5468  0.1024
  125MOL0     C16396   5.921   1.978   2.833 -0.0573  0.0015  0.0262
  125MOL0     C16397   5.780   1.995   2.872 -0.1520  0.2573  0.1229
  125MOL0     O16398   5.716   2.085   2.789  0.0554 -0.2918  0.0060
  125MOL0     C16399   5.597   2.138   2.821  0.0321  0.4018  0.0658
  125MOL0     C16400   5.556   2.159   2.956 -0.5328  0.1098  0.0256
  125MOL0     C16401   5.436   2.222   2.986  0.2273 -0.1248  1.7354
  125MOL0     C16402   5.344   2.259   2.873 -1.1280 -0.1434  0.1916
  125MOL0     O16403   5.238   2.335   2.891  1.1316  0.2502  0.2731
  125MOL0     C16404   5.141   2.275   2.990  0.2433 -0.1729 -0.4177
  125MOL0     C16405   5.004   2.301   2.925 -0.4557 -0.3990  0.4537
  125MOL0     C16406   4.966   2.446   2.903  0.1221 -0.1095  0.0990
  125MOL0     C16407   4.888   2.456   2.766 -0.1626  0.5345  0.0451
  125MOL0     C16408   4.844   2.603   2.743  0.1673 -0.4691 -1.6113
  125MOL0     C16409   4.767   2.633   2.610  0.6052  0.3495  0.1346
  125MOL0     C16410   4.649   2.530   2.587 -0.1807 -0.8526 -0.1052
  125MOL0     C16411   4.553   2.573   2.472  0.0991 -0.6160  0.0968
  125MOL0    Cl16412   4.458   2.425   2.421  0.0981 -0.5340 -0.0589
  125MOL0     C16413   5.386   2.224   2.741 -0.1395  0.5029 -0.0599
  125MOL0     C16414   5.508   2.165   2.716 -0.0689  0.0783  0.3126
  125MOL0     O16415   5.731   1.936   2.965  0.4223  0.1591  0.3083
  125MOL0     C16416   5.986   1.857   2.865 -0.3011  0.4031 -0.2550
  125MOL0     C16417   6.117   1.832   2.833  0.1203  0.6199  0.5188
  125MOL0     N16418   6.803   1.553   2.880  0.2632  0.2132  0.1935
  125MOL0     N16419   6.894   1.470   2.835  0.1418 -0.0902 -0.2389
  125MOL0     C16420   8.146   1.751   2.766 -0.7268 -0.2177  1.6485
  125MOL0     C16421   8.278   1.801   2.788 -0.4895  0.0214  0.3458
  125MOL0     C16422   8.674   1.965   2.669  0.2487 -0.2397  0.7882
  125MOL0     C16423   8.704   2.102   2.691  0.1230  0.5140 -0.1424
  125MOL0     C16424   8.842   2.144   2.671  0.7464  0.4615 -0.4305
  125MOL0     C16425   8.947   2.058   2.643  0.5900 -0.5761  0.0293
  125MOL0     O16426   9.075   2.114   2.617  0.0670  0.8792  1.4573
  125MOL0     C16427   9.169   2.035   2.552  0.0831 -0.2570  0.9136
  125MOL0     C16428   9.303   2.111   2.544 -0.2092 -0.3464  0.1339
  125MOL0     C16429   9.369   2.119   2.688 -0.4058 -0.3982  1.2639
  125MOL0     C16430   9.458   2.008   2.725  0.0865  0.1106  0.1441
  125MOL0     C16431   9.569   1.995   2.627 -0.3846 -0.0453 -1.2238
  125MOL0     C16432   9.669   1.959   2.559 -0.0174  0.5970  0.2040
  125MOL0     C16433   8.919   1.923   2.621 -0.2906  0.3872  0.4564
  125MOL0     C16434   8.785   1.881   2.631 -0.4117  0.5069  0.2553
  125MOL0     H16435   8.252   2.101   2.620  0.4157 -1.0143 -0.0369
  125MOL0     H16436   8.018   2.014   2.583 -0.8506 -3.5237 -1.3187
  125MOL0     H16437   7.830   1.719   2.804 -0.0617  0.4750 -0.1114
  125MOL0     H16438   7.953   1.597   2.749 -0.4460 -0.1432  0.0203
  125MOL0     H16439   7.769   1.515   2.696 -0.9684 -0.1148  0.7741
  125MOL0     H16440   7.814   1.592   2.540 -0.8693  1.5299 -0.3274
  125MOL0     H16441   7.636   1.758   2.568 -3.0053  0.9665  0.9253
  125MOL0     H16442   7.610   1.696   2.737  2.7965 -1.8237  1.4624
  125MOL0     H16443   7.553   1.548   2.475 -0.2249 -1.6176  0.4279
  125MOL0     H16444   7.554   1.468   2.627 -0.8088  0.3019 -0.0543
  125MOL0     H16445   7.359   1.690   2.547 -4.8118 -0.9780  2.0748
  125MOL0     H16446   7.406   1.659   2.715 -0.1229 -0.7639  0.5723
  125MOL0     H16447   7.337   1.407   2.665  1.6628 -0.4154 -0.7023
  125MOL0     H16448   7.289   1.461   2.503 -0.1238 -0.5383 -0.0056
  125MOL0     H16449   7.175   1.555   2.771 -1.5923 -0.7543  1.0658
  125MOL0     H16450   7.145   1.645   2.623  1.6165  1.1022  1.7459
  125MOL0     H16451   7.076   1.354   2.686  1.5409  0.2246 -1.6428
  125MOL0     H16452   7.035   1.423   2.530 -0.3297  3.0962 -1.1447
  125MOL0     H16453   6.868   1.679   2.586  0.8576 -0.4835 -0.4134
  125MOL0     H16454   6.700   1.825   2.706 -0.6415 -1.0376  0.0657
  125MOL0     H16455   6.724   1.837   2.883 -1.2278  1.0281 -0.2014
  125MOL0     H16456   6.543   1.614   2.835 -0.6949  0.6476  2.1525
  125MOL0     H16457   6.502   1.715   2.711 -0.4571 -0.0504 -0.6646
  125MOL0     H16458   6.388   1.737   2.955 -0.0610  2.0317  1.9090
  125MOL0     H16459   6.533   1.818   2.998  0.4463 -0.5391 -0.8821
  125MOL0     H16460   6.499   1.979   2.799  1.2832 -0.4037  0.7087
  125MOL0     H16461   6.369   1.984   2.924  0.0549 -0.9154  0.3043
  125MOL0     H16462   6.157   2.095   2.620 -1.0488 -2.3646 -3.5209
  125MOL0     H16463   5.940   2.165   2.735  1.3535  0.5936  3.1895
  125MOL0     H16464   5.620   2.141   3.042 -3.7106  1.9010  3.0177
  125MOL0     H16465   5.394   2.241   3.085 -3.6192  0.9870  0.0720
  125MOL0     H16466   5.141   2.329   3.086 -1.2801  0.4253 -0.7224
  125MOL0     H16467   5.154   2.170   3.015  2.7996  0.0463 -0.6110
  125MOL0     H16468   4.923   2.257   2.984 -0.4905  0.8493  1.3768
  125MOL0     H16469   5.009   2.243   2.832  0.7930 -1.2710  1.0263
  125MOL0     H16470   5.060   2.501   2.893  0.5966 -0.7153  0.9856
  125MOL0     H16471   4.908   2.489   2.985  2.1739  0.6545  1.2249
  125MOL0     H16472   4.955   2.428   2.684  1.7103  1.9305  1.0042
  125MOL0     H16473   4.802   2.389   2.758  0.0775  0.2594 -0.2934
  125MOL0     H16474   4.928   2.673   2.753 -0.6166  0.5708 -2.1258
  125MOL0     H16475   4.777   2.631   2.825 -0.0104 -0.2950 -1.8153
  125MOL0     H16476   4.831   2.609   2.524  2.7715 -2.4689  2.3716
  125MOL0     H16477   4.724   2.734   2.604  1.3856  0.6221 -1.8189
  125MOL0     H16478   4.684   2.428   2.571  2.1816 -0.3925  1.6966
  125MOL0     H16479   4.590   2.519   2.679 -1.0958 -0.0733 -0.5773
  125MOL0     H16480   4.606   2.608   2.383 -0.4958 -0.8965 -0.3705
  125MOL0     H16481   4.486   2.650   2.510  0.6025 -1.0589  2.0317
  125MOL0     H16482   5.322   2.241   2.656  0.4180 -0.7525 -0.7643
  125MOL0     H16483   5.547   2.139   2.618  0.2056  1.5592  0.0045
  125MOL0     H16484   5.937   1.789   2.935 -1.2242 -0.2484 -1.4850
  125MOL0     H16485   6.168   1.738   2.849 -2.9002 -1.2690 -0.2478
  125MOL0     H16486   8.132   1.651   2.807 -0.7814 -0.1530  1.7880
  125MOL0     H16487   8.364   1.756   2.837 -0.7556  0.7360  1.5097
  125MOL0     H16488   8.621   2.166   2.718 -0.9855 -2.0342  3.2180
  125MOL0     H16489   8.851   2.252   2.673 -1.9399  0.8052 -1.9573
  125MOL0     H16490   9.144   2.010   2.448  1.6245 -2.2478  0.9563
  125MOL0     H16491   9.196   1.946   2.610 -2.2775 -1.5220  0.1915
  125MOL0     H16492   9.363   2.056   2.471 -2.4173 -0.3614 -1.8088
  125MOL0     H16493   9.288   2.210   2.500  0.9467 -0.5032 -0.6697
  125MOL0     H16494   9.295   2.125   2.769  1.1437  0.5552  2.6660
  125MOL0     H16495   9.437   2.204   2.682 -0.0872 -0.7440 -0.3312
  125MOL0     H16496   9.502   2.033   2.821 -0.2561  2.5712 -0.2674
  125MOL0     H16497   9.418   1.906   2.727 -1.9999  0.8746  2.7277
  125MOL0     H16498   9.771   1.942   2.530 -0.2603 -1.5686  0.4707
  125MOL0     H16499   9.000   1.852   2.602  1.0041  2.0380 -0.5061
  125MOL0     H16500   8.750   1.778   2.626 -0.0133  0.3919 -0.2397
  126MOL0     O16501   0.698   4.767   0.858  0.6068  0.1438 -0.5144
  126MOL0     C16502   0.698   4.887   0.830  0.3089 -0.8512 -0.3431
  126MOL0     O16503   0.589   4.964   0.795  0.2455  0.5867 -0.7474
  126MOL0     C16504   0.459   4.903   0.806  0.3458 -1.4598  0.2575
  126MOL0     C16505   0.353   4.977   0.871 -0.4296  0.6814  0.2638
  126MOL0     C16506   0.224   4.931   0.879  0.0647  0.5753  0.0618
  126MOL0     C16507   0.194   4.807   0.835  0.5279  0.3135  0.5020
  126MOL0     O16508   0.072   4.746   0.852  0.1884 -0.1201  0.1139
  126MOL0     C16509  -0.047   4.809   0.896  0.1593 -0.0435  0.1507
  126MOL0     C16510  -0.158   4.716   0.846 -0.1643 -0.2966 -0.8674
  126MOL0     C16511  -0.289   4.765   0.909  0.6588  0.4018 -0.1910
  126MOL0     C16512  -0.395   4.645   0.889 -0.3447  0.6388  0.1424
  126MOL0     C16513  -0.538   4.706   0.916  0.3019  0.0086 -0.1842
  126MOL0     C16514  -0.659   4.603   0.895 -0.1231  0.0925 -0.7944
  126MOL0     C16515  -0.784   4.677   0.930  0.1836 -0.1378  0.0420
  126MOL0     C16516  -0.852   4.774   0.828 -0.1358  0.3583 -0.6129
  126MOL0     N16517  -0.971   4.828   0.889 -0.0124  0.8824  0.1620
  126MOL0     C16518  -1.068   4.767   0.967  0.3084  0.3864  0.7047
  126MOL0     C16519  -1.149   4.862   1.016  0.0815 -0.3179 -0.5450
  126MOL0     C16520  -1.268   4.826   1.104  0.0566  0.1212  0.2556
  126MOL0     C16521  -1.403   4.902   1.065  0.2692 -0.1359 -0.9089
  126MOL0     C16522  -1.508   4.876   1.172  0.3593 -0.4659 -0.3219
  126MOL0     C16523  -1.653   4.911   1.116  1.1462  0.0861  0.0495
  126MOL0     O16524  -1.751   4.883   1.213 -0.0999  0.3291 -0.1478
  126MOL0     C16525  -1.885   4.916   1.200  0.6108 -0.2248  0.0435
  126MOL0     C16526  -1.938   5.005   1.101  0.2281 -0.2185 -0.2443
  126MOL0     C16527  -2.074   5.037   1.083  0.1852 -1.0707  0.4522
  126MOL0     C16528  -2.166   5.000   1.184 -0.3297  0.3668 -0.1027
  126MOL0     C16529  -2.309   5.040   1.172  0.1939  0.7157  0.1910
  126MOL0     O16530  -2.390   5.001   1.263  0.1758 -0.2477 -0.2643
  126MOL0     C16531  -2.528   5.030   1.275 -0.5112 -0.2083  0.3819
  126MOL0     C16532  -2.612   5.027   1.163 -0.2886  0.0353  1.2019
  126MOL0     C16533  -2.747   5.076   1.176  0.1257  0.1028 -0.0677
  126MOL0     C16534  -2.797   5.108   1.302  1.3868  0.3227  0.5955
  126MOL0     O16535  -2.921   5.154   1.307 -0.3899  0.1548 -0.0767
  126MOL0     C16536  -2.978   5.171   1.434  1.1943 -0.6117 -0.0942
  126MOL0     C16537  -3.132   5.186   1.434  0.3993  0.6964  0.0593
  126MOL0     C16538  -3.205   5.135   1.556  0.3776 -0.3685 -0.8336
  126MOL0     C16539  -3.354   5.181   1.575 -1.1332 -0.8417  0.2793
  126MOL0     C16540  -3.410   5.116   1.708  0.2201 -0.9045  0.6577
  126MOL0     C16541  -3.564   5.117   1.707 -0.2652 -0.5875  0.7761
  126MOL0     C16542  -3.633   5.031   1.822 -0.6010 -0.7190 -0.2324
  126MOL0     C16543  -3.784   5.048   1.821 -0.2339  0.1004  0.5011
  126MOL0    Cl16544  -3.868   5.008   1.671  0.0923 -0.1278  0.1588
  126MOL0     C16545  -2.709   5.105   1.413  0.0714 -0.0978 -0.6044
  126MOL0     C16546  -2.577   5.060   1.400  0.3214 -0.0271  0.5276
  126MOL0     O16547  -2.335   5.093   1.074  0.7618  0.1821  0.3750
  126MOL0     C16548  -2.115   4.930   1.297 -0.6277  0.1626 -0.9409
  126MOL0     C16549  -1.974   4.884   1.311  0.9863  0.4695  0.0553
  126MOL0     N16550  -1.110   4.982   0.965 -0.1632 -0.5174 -0.7851
  126MOL0     N16551  -1.010   4.954   0.885 -0.4778  0.2603  0.0961
  126MOL0     C16552   0.291   4.729   0.774 -0.1314 -0.1188 -0.9234
  126MOL0     C16553   0.420   4.781   0.754  0.0226 -0.5794  0.5125
  126MOL0     C16554   0.826   4.953   0.828 -0.0922  0.5414  0.1920
  126MOL0     C16555   0.828   5.092   0.815 -0.2877  0.1991  0.2510
  126MOL0     C16556   0.948   5.159   0.809 -0.6877 -0.3701 -0.5682
  126MOL0     C16557   1.067   5.091   0.825  0.1536 -1.0278  1.0286
  126MOL0     O16558   1.187   5.147   0.814 -0.4591 -0.1905 -0.8072
  126MOL0     C16559   1.187   5.294   0.822 -0.8041  0.6625 -0.3983
  126MOL0     C16560   1.327   5.345   0.845 -0.5976  0.1840 -0.1806
  126MOL0     C16561   1.423   5.314   0.724  0.6467 -1.2170  0.1196
  126MOL0     C16562   1.567   5.362   0.737  0.5315 -0.0106 -0.2046
  126MOL0     C16563   1.570   5.510   0.773  0.8449  0.5216  0.1410
  126MOL0     C16564   1.566   5.628   0.812  1.0479 -0.0116 -0.3625
  126MOL0     C16565   1.068   4.954   0.857  0.1948  0.8145 -0.3437
  126MOL0     C16566   0.947   4.875   0.844 -0.1005 -0.0158  0.0104
  126MOL0     H16567   0.382   5.072   0.913  0.8488  0.5277 -0.2179
  126MOL0     H16568   0.150   4.989   0.932 -1.1188  1.0069 -1.9797
  126MOL0     H16569  -0.057   4.908   0.851 -1.3325  0.5039  1.5948
  126MOL0     H16570  -0.064   4.826   1.002  0.8327  0.4356  0.1859
  126MOL0     H16571  -0.139   4.618   0.893 -0.8262  0.7200  1.7093
  126MOL0     H16572  -0.153   4.726   0.738  1.1602  1.9436 -0.6569
  126MOL0     H16573  -0.331   4.840   0.842  1.8960  0.5920 -0.7749
  126MOL0     H16574  -0.282   4.798   1.013  0.4185  0.3409 -0.1542
  126MOL0     H16575  -0.390   4.582   0.799  0.6260  0.4779  0.2962
  126MOL0     H16576  -0.385   4.572   0.969 -0.8274  0.0611 -0.3169
  126MOL0     H16577  -0.546   4.795   0.852 -0.2213  1.1945  1.4721
  126MOL0     H16578  -0.545   4.745   1.018  1.4783  0.0285 -0.1006
  126MOL0     H16579  -0.653   4.515   0.959 -1.5988  0.5540  0.0265
  126MOL0     H16580  -0.654   4.572   0.790 -0.9129 -0.3802 -0.6980
  126MOL0     H16581  -0.849   4.589   0.930 -0.1745  0.1285  0.0788
  126MOL0     H16582  -0.784   4.714   1.033 -0.8596  0.8633 -0.2987
  126MOL0     H16583  -0.876   4.724   0.733  0.8525  1.0156 -1.2280
  126MOL0     H16584  -0.778   4.851   0.805 -1.1402  1.5986  0.2545
  126MOL0     H16585  -1.065   4.662   0.993 -0.7393  0.4417  1.0935
  126MOL0     H16586  -1.242   4.862   1.204 -0.3518 -1.1414  0.8312
  126MOL0     H16587  -1.280   4.718   1.105 -0.3774  0.1701  1.5757
  126MOL0     H16588  -1.440   4.853   0.974  0.1014  1.2718 -1.6184
  126MOL0     H16589  -1.386   5.007   1.039 -0.7773  0.0590 -0.8460
  126MOL0     H16590  -1.506   4.771   1.201  0.0159 -0.7242 -1.2073
  126MOL0     H16591  -1.494   4.942   1.258 -1.8527  0.3728 -0.5152
  126MOL0     H16592  -1.678   4.857   1.025  0.9345  0.1375  0.0779
  126MOL0     H16593  -1.649   5.020   1.102  1.2446  0.2317  1.1188
  126MOL0     H16594  -1.870   5.046   1.027  0.7045  1.2822  0.9703
  126MOL0     H16595  -2.113   5.106   1.009  2.2652  0.5276  0.7330
  126MOL0     H16596  -2.564   5.009   1.067  2.1375 -4.0023  2.9246
  126MOL0     H16597  -2.808   5.095   1.087  0.8217  2.6423 -0.0949
  126MOL0     H16598  -2.931   5.256   1.484 -0.2778  0.7979 -1.0297
  126MOL0     H16599  -2.961   5.081   1.495 -1.3865 -2.4199 -1.8106
  126MOL0     H16600  -3.180   5.141   1.346  1.8027  2.4596 -1.6995
  126MOL0     H16601  -3.163   5.290   1.422 -1.3948 -0.0333 -2.6288
  126MOL0     H16602  -3.139   5.155   1.640  1.8299 -4.6816 -0.7162
  126MOL0     H16603  -3.216   5.026   1.554 -0.7643 -0.4371  2.7110
  126MOL0     H16604  -3.364   5.287   1.597  1.8582 -0.7195  1.6258
  126MOL0     H16605  -3.405   5.138   1.488  1.6461 -3.4318 -0.2450
  126MOL0     H16606  -3.378   5.171   1.798  1.0599  1.7367 -1.1346
  126MOL0     H16607  -3.374   5.012   1.708 -0.9407 -1.3320 -0.7815
  126MOL0     H16608  -3.593   5.075   1.610 -0.4035 -0.8668  0.9378
  126MOL0     H16609  -3.603   5.219   1.711 -0.7802 -0.4452 -3.2069
  126MOL0     H16610  -3.615   4.926   1.796 -3.1345 -1.0939 -0.7740
  126MOL0     H16611  -3.604   5.058   1.924 -3.4124 -0.4577  0.5767
  126MOL0     H16612  -3.809   5.152   1.842  1.1331  0.3237  1.1147
  126MOL0     H16613  -3.813   4.982   1.904  0.3931 -1.1936 -0.2798
  126MOL0     H16614  -2.750   5.137   1.508  0.9522 -1.6522  0.3390
  126MOL0     H16615  -2.521   5.058   1.493  2.9790 -0.5833 -0.9567
  126MOL0     H16616  -2.193   4.917   1.371  0.0776  2.5217  0.3258
  126MOL0     H16617  -1.936   4.823   1.392  2.8723  0.0352 -1.1139
  126MOL0     H16618   0.258   4.630   0.745  1.2155 -1.0338  0.5213
  126MOL0     H16619   0.491   4.714   0.708 -0.0190 -1.3095  1.4601
  126MOL0     H16620   0.737   5.149   0.797 -0.1031 -0.2108 -2.4792
  126MOL0     H16621   0.940   5.266   0.793 -1.7681 -0.6360 -2.0298
  126MOL0     H16622   1.120   5.331   0.900 -0.0040 -1.1350  1.2204
  126MOL0     H16623   1.157   5.322   0.720  0.8479 -3.2259 -2.1599
  126MOL0     H16624   1.317   5.454   0.849  2.4647  0.5550 -0.2190
  126MOL0     H16625   1.374   5.307   0.936 -1.0226  0.9392  0.3645
  126MOL0     H16626   1.373   5.364   0.641  1.0966 -1.4863 -0.3222
  126MOL0     H16627   1.433   5.208   0.697  2.7912 -1.8136  2.8285
  126MOL0     H16628   1.623   5.303   0.810  3.6240 -1.2341 -3.2891
  126MOL0     H16629   1.621   5.344   0.643  1.5532  1.9412 -0.0446
  126MOL0     H16630   1.575   5.732   0.835  2.2340 -0.2201  0.2080
  126MOL0     H16631   1.165   4.911   0.880 -0.0280  0.0533 -0.7839
  126MOL0     H16632   0.936   4.770   0.867 -1.0774 -0.0405 -0.4988
  127MOL0     O16633  10.535  10.939   2.805  0.7446 -0.5903 -0.2137
  127MOL0     C16634  10.610  11.007   2.730  0.8435 -0.5497  0.0620
  127MOL0     O16635  10.679  11.120   2.771 -0.0601 -0.3011  0.0574
  127MOL0     C16636  10.647  11.177   2.887  0.7110 -0.0966  0.3950
  127MOL0     C16637  10.549  11.280   2.882  0.5209 -0.1989  0.2270
  127MOL0     C16638  10.517  11.344   3.001 -0.3934  1.0947  0.6691
  127MOL0     C16639  10.593  11.327   3.114  0.4186  0.6044  0.1328
  127MOL0     O16640  10.561  11.408   3.215  0.5826 -0.2871  0.6829
  127MOL0     C16641  10.620  11.389   3.345 -0.4221  0.1513  0.0168
  127MOL0     C16642  10.548  11.476   3.441 -0.3288  0.0181  0.5488
  127MOL0     C16643  10.563  11.419   3.584 -0.7681 -0.0710  0.7585
  127MOL0     C16644  10.568  11.517   3.701  0.5274  0.0619  0.3569
  127MOL0     C16645  10.445  11.602   3.720 -0.7816 -0.3274  1.4213
  127MOL0     C16646  10.318  11.526   3.758 -0.3294  0.1982  0.2685
  127MOL0     C16647  10.214  11.624   3.803 -0.0917  0.0365 -0.7602
  127MOL0     C16648  10.089  11.552   3.860  0.2955  0.2063 -0.7582
  127MOL0     N16649   9.988  11.651   3.875  0.7601 -1.0721  0.0873
  127MOL0     C16650   9.875  11.667   3.803  0.3299 -0.3517  0.0194
  127MOL0     C16651   9.821  11.784   3.853  0.5133 -0.1439 -0.1015
  127MOL0     C16652   9.702  11.843   3.792 -0.8246  0.4133 -0.4914
  127MOL0     C16653   9.632  11.950   3.876  0.2213 -0.8594  0.2834
  127MOL0     C16654   9.590  11.892   4.016 -0.5940 -0.0636  0.3749
  127MOL0     C16655   9.470  11.803   4.016  0.4403 -0.3656  0.0716
  127MOL0     O16656   9.358  11.890   4.001 -0.4804  0.4744  0.7090
  127MOL0     C16657   9.230  11.852   3.969 -0.2688  0.3853 -0.2113
  127MOL0     C16658   9.136  11.952   3.943  0.2044  0.4040  0.2494
  127MOL0     C16659   9.001  11.925   3.926 -0.3679 -0.5692  0.8511
  127MOL0     C16660   8.953  11.794   3.908 -0.3525  0.2807 -0.2808
  127MOL0     C16661   8.815  11.774   3.880 -1.2986  0.4762 -0.9106
  127MOL0     O16662   8.745  11.880   3.837  0.6887 -0.5435  0.6078
  127MOL0     C16663   8.607  11.870   3.844  0.5731 -0.0854 -0.3873
  127MOL0     C16664   8.547  11.867   3.963  0.1582 -0.0890  0.1446
  127MOL0     C16665   8.411  11.850   3.986 -0.0656 -0.9701 -0.0580
  127MOL0     C16666   8.334  11.859   3.873 -0.9748 -0.3428  0.5744
  127MOL0     O16667   8.195  11.852   3.881 -0.4789  0.3179 -0.2165
  127MOL0     C16668   8.148  11.914   3.999 -0.0220 -0.0696 -0.7243
  127MOL0     C16669   8.008  11.961   3.976  0.4698 -0.8733  0.1312
  127MOL0     C16670   7.943  12.004   4.103  0.8836  0.3132 -0.2705
  127MOL0     C16671   7.809  12.075   4.062 -0.5613  0.1274 -0.0722
  127MOL0     C16672   7.721  12.061   4.184 -1.2355  0.7517  0.5103
  127MOL0     C16673   7.594  12.137   4.153  0.1717 -1.0261  0.6627
  127MOL0     C16674   7.506  12.122   4.274 -0.0213 -0.6484  0.5797
  127MOL0     C16675   7.381  12.212   4.256 -0.1692  0.2665  0.0364
  127MOL0    Cl16676   7.290  12.137   4.122  0.1773 -0.1193 -0.2747
  127MOL0     C16677   8.394  11.859   3.740  1.1736  0.4076 -0.6109
  127MOL0     C16678   8.538  11.859   3.723  0.0951  1.1542 -0.3241
  127MOL0     O16679   8.774  11.660   3.897 -0.4462 -0.0055 -0.7023
  127MOL0     C16680   9.053  11.693   3.918 -0.5611  0.1334 -0.0710
  127MOL0     C16681   9.189  11.715   3.953 -0.3674 -0.0957  0.0653
  127MOL0     N16682   9.906  11.836   3.943  0.0306  0.1729 -0.4447
  127MOL0     N16683  10.001  11.752   3.967 -0.1615 -0.1476 -0.5495
  127MOL0     C16684  10.684  11.224   3.121  0.3893 -0.1783  0.5734
  127MOL0     C16685  10.718  11.146   3.005 -0.5012 -0.2822  0.5132
  127MOL0     C16686  10.627  10.962   2.592 -0.1852 -0.1620 -1.2067
  127MOL0     C16687  10.551  10.855   2.546 -0.5005 -0.6586 -0.0340
  127MOL0     C16688  10.563  10.816   2.417 -0.5109  0.7345 -0.3742
  127MOL0     C16689  10.641  10.888   2.325  0.1632 -0.3160  0.3459
  127MOL0     O16690  10.645  10.853   2.190 -0.3278  0.5114 -1.6917
  127MOL0     C16691  10.594  10.947   2.099  0.1522 -0.3051  0.5202
  127MOL0     C16692  10.709  11.011   2.014  0.4303 -0.0319  0.6398
  127MOL0     C16693  10.772  10.899   1.928 -0.6324 -0.9412 -0.2309
  127MOL0     C16694  10.914  10.870   1.984 -1.1671  0.3750  0.1851
  127MOL0     C16695  11.009  10.975   1.955  0.0049  0.2321  0.2661
  127MOL0     C16696  11.083  11.070   1.925  0.2561 -0.9195 -0.9627
  127MOL0     C16697  10.705  11.005   2.373 -1.4237 -0.5301  0.0137
  127MOL0     C16698  10.698  11.042   2.509 -0.3584 -0.2913 -0.0794
  127MOL0     H16699  10.477  11.291   2.801 -1.9530  0.4859  2.3708
  127MOL0     H16700  10.436  11.415   3.013 -1.3630  0.0652  0.3340
  127MOL0     H16701  10.726  11.415   3.343 -0.7623  1.5521 -1.4970
  127MOL0     H16702  10.591  11.286   3.371 -2.3280  0.2569 -1.4379
  127MOL0     H16703  10.442  11.482   3.417  0.0641  2.7421 -0.9225
  127MOL0     H16704  10.584  11.579   3.432 -0.1747 -0.1418 -1.0496
  127MOL0     H16705  10.662  11.374   3.593  0.6403  2.4667 -0.8168
  127MOL0     H16706  10.481  11.346   3.593 -1.8928  1.0527 -0.0243
  127MOL0     H16707  10.591  11.458   3.790  2.2884  1.8120  1.1265
  127MOL0     H16708  10.655  11.581   3.683  1.1141 -0.7069  0.4198
  127MOL0     H16709  10.429  11.666   3.634  0.6362  0.0719  1.4197
  127MOL0     H16710  10.472  11.662   3.808  2.6106 -0.0631  0.3630
  127MOL0     H16711  10.352  11.466   3.843  0.1524  1.3122  0.8868
  127MOL0     H16712  10.277  11.464   3.677 -0.7055 -1.1752  1.4695
  127MOL0     H16713  10.251  11.689   3.883 -1.4421 -0.0668 -0.0182
  127MOL0     H16714  10.174  11.684   3.721  1.2643 -0.7161 -2.0369
  127MOL0     H16715  10.114  11.505   3.955  0.6571  0.4618 -0.7243
  127MOL0     H16716  10.056  11.479   3.786  3.1936  0.6729 -2.6629
  127MOL0     H16717   9.831  11.602   3.728 -1.1038  0.7936 -0.1776
  127MOL0     H16718   9.636  11.759   3.767  1.7992 -2.5218  1.6463
  127MOL0     H16719   9.735  11.894   3.701 -0.7514  0.6305 -0.3428
  127MOL0     H16720   9.542  11.986   3.827  0.4769 -0.7719 -0.1217
  127MOL0     H16721   9.706  12.029   3.894  0.4765 -1.1421  0.4891
  127MOL0     H16722   9.663  11.822   4.058 -1.2021 -1.1641 -0.3525
  127MOL0     H16723   9.567  11.977   4.081 -0.8876  3.7832 -4.2159
  127MOL0     H16724   9.473  11.738   4.104  1.9627  1.8063  1.7390
  127MOL0     H16725   9.465  11.729   3.936 -1.9863 -0.7986  0.5399
  127MOL0     H16726   9.168  12.056   3.944  0.9313  0.1807  1.5865
  127MOL0     H16727   8.930  12.007   3.936 -1.1307 -0.9783 -0.8337
  127MOL0     H16728   8.612  11.869   4.049  0.7777 -1.0055 -0.2887
  127MOL0     H16729   8.376  11.848   4.089 -1.1065 -1.4180 -0.4092
  127MOL0     H16730   8.201  12.006   4.028 -0.4382  0.4601 -1.6112
  127MOL0     H16731   8.144  11.843   4.081  1.8102  0.2404 -0.3222
  127MOL0     H16732   7.947  11.888   3.922  1.0831 -0.4032 -1.2429
  127MOL0     H16733   8.010  12.042   3.902  0.4992 -2.8753 -2.1627
  127MOL0     H16734   8.006  12.073   4.161  2.7379 -0.7208 -0.9845
  127MOL0     H16735   7.933  11.908   4.155  0.3414  0.7204  0.4019
  127MOL0     H16736   7.833  12.179   4.037  0.9806 -0.2370 -0.1865
  127MOL0     H16737   7.755  12.027   3.980 -0.4417  0.0690 -0.1161
  127MOL0     H16738   7.775  12.093   4.274  1.5973 -0.5545 -0.5970
  127MOL0     H16739   7.697  11.955   4.193  0.3991 -0.0917 -3.1787
  127MOL0     H16740   7.552  12.090   4.063  4.0314 -3.0652 -0.2930
  127MOL0     H16741   7.623  12.241   4.137 -2.3031 -0.5206 -1.1254
  127MOL0     H16742   7.488  12.016   4.299 -0.7296 -1.0357 -1.3536
  127MOL0     H16743   7.562  12.166   4.357 -1.2111  0.0517  1.0462
  127MOL0     H16744   7.407  12.316   4.233 -1.5292  0.3794 -1.1369
  127MOL0     H16745   7.331  12.219   4.354  0.7101 -1.1799  0.6200
  127MOL0     H16746   8.336  11.855   3.648  0.6769 -3.2099 -0.2888
  127MOL0     H16747   8.590  11.877   3.629  0.2343  1.6776 -0.1493
  127MOL0     H16748   9.015  11.591   3.921 -0.1708 -0.1878 -2.9027
  127MOL0     H16749   9.254  11.629   3.967 -0.8523 -0.3087  1.1124
  127MOL0     H16750  10.737  11.206   3.214 -0.2115  0.4947  1.0583
  127MOL0     H16751  10.797  11.073   3.019 -0.5083 -0.6013 -0.9331
  127MOL0     H16752  10.488  10.800   2.615 -2.1910  0.4240 -0.6359
  127MOL0     H16753  10.502  10.735   2.377  1.6650 -0.8506 -0.7092
  127MOL0     H16754  10.549  11.035   2.144  2.9666  0.7640  1.4827
  127MOL0     H16755  10.528  10.894   2.030  0.4826  0.8330 -0.6874
  127MOL0     H16756  10.663  11.086   1.950 -3.0451 -2.6171 -0.1796
  127MOL0     H16757  10.785  11.068   2.067  0.0092  0.9028  0.2477
  127MOL0     H16758  10.774  10.922   1.821  2.2213  1.0379  0.1378
  127MOL0     H16759  10.712  10.808   1.928 -0.2813 -1.2529 -2.9855
  127MOL0     H16760  10.910  10.850   2.092  2.7612 -2.0223  0.0660
  127MOL0     H16761  10.961  10.784   1.936  1.4750  2.7662 -1.8570
  127MOL0     H16762  11.143  11.150   1.886 -1.5774 -0.4983 -3.1421
  127MOL0     H16763  10.767  11.068   2.312  0.3365 -1.4851  0.7407
  127MOL0     H16764  10.740  11.137   2.541  2.8979 -1.0702 -1.5828
  128MOL0     O16765   7.165   5.477   6.588 -0.1118  0.1104 -0.3778
  128MOL0     C16766   7.143   5.410   6.492 -0.6743  0.4163  1.2041
  128MOL0     O16767   7.240   5.335   6.423 -0.2952  0.1635 -0.5001
  128MOL0     C16768   7.375   5.330   6.450  0.4983  0.5491 -1.3431
  128MOL0     C16769   7.450   5.419   6.522  0.5938  0.2800 -0.1981
  128MOL0     C16770   7.585   5.391   6.530 -1.2265  0.5470  0.2022
  128MOL0     C16771   7.652   5.292   6.460  0.4001 -0.6271 -0.1923
  128MOL0     O16772   7.786   5.299   6.436  0.1604 -0.1516 -0.1620
  128MOL0     C16773   7.863   5.278   6.560  0.1735 -0.3621 -0.0898
  128MOL0     C16774   8.004   5.263   6.531 -0.4630  0.4205 -0.5846
  128MOL0     C16775   8.070   5.405   6.508  0.2043  0.5375  0.2981
  128MOL0     C16776   8.210   5.369   6.476  0.4699  0.1164 -0.1189
  128MOL0     C16777   8.293   5.492   6.469 -0.1927 -0.2797 -0.8832
  128MOL0     C16778   8.448   5.471   6.479  1.1293 -0.1969 -0.2276
  128MOL0     C16779   8.506   5.415   6.608  0.2763 -0.0761  0.8700
  128MOL0     C16780   8.500   5.491   6.737 -0.3006 -0.4430  0.9489
  128MOL0     N16781   8.369   5.489   6.802  0.6638 -0.2487 -0.1965
  128MOL0     C16782   8.296   5.373   6.841 -0.3290 -0.1057 -0.1699
  128MOL0     C16783   8.190   5.426   6.910  0.5018 -0.1605 -0.2795
  128MOL0     C16784   8.061   5.354   6.957 -0.3871  0.1417  0.4814
  128MOL0     C16785   8.087   5.197   6.974  0.5171 -0.5526  0.2917
  128MOL0     C16786   7.967   5.130   7.045  0.0174 -0.8003 -0.2912
  128MOL0     C16787   7.982   4.991   7.094 -1.0816  0.2199 -0.2678
  128MOL0     O16788   7.862   4.957   7.169  0.1397 -0.3818  0.8645
  128MOL0     C16789   7.744   4.917   7.115 -0.6264 -0.3530  0.2958
  128MOL0     C16790   7.712   4.914   6.980  0.9262  0.4645  0.9497
  128MOL0     C16791   7.581   4.878   6.942 -0.3837  0.1145 -0.5134
  128MOL0     C16792   7.483   4.839   7.046 -0.1659  0.5429  0.5947
  128MOL0     C16793   7.351   4.790   7.019  0.4139 -0.3618  0.2856
  128MOL0     O16794   7.252   4.781   7.123  0.0350 -0.2222  0.5612
  128MOL0     C16795   7.121   4.784   7.081 -0.0604 -0.3227 -0.9762
  128MOL0     C16796   7.050   4.902   7.076  0.9786  0.0791 -0.4241
  128MOL0     C16797   6.916   4.888   7.031 -0.4639 -0.7047 -0.3717
  128MOL0     C16798   6.853   4.766   6.998 -0.4306  0.2682  0.0650
  128MOL0     O16799   6.719   4.748   6.954 -0.4312  0.3458 -0.3289
  128MOL0     C16800   6.627   4.866   6.962  0.1038  0.8204 -0.4490
  128MOL0     C16801   6.485   4.838   6.929 -0.0330  0.1573 -0.4345
  128MOL0     C16802   6.409   4.964   6.891 -0.2024  0.1844  0.3429
  128MOL0     C16803   6.307   4.940   6.781 -0.7781  0.2001 -0.2460
  128MOL0     C16804   6.243   5.072   6.740 -0.3727 -0.5570  0.3352
  128MOL0     C16805   6.156   5.065   6.616 -0.0747  0.3924  0.4442
  128MOL0     C16806   6.101   5.205   6.557 -0.1989  0.2150 -0.2514
  128MOL0     C16807   5.999   5.197   6.448  0.3667  0.4920 -0.1332
  128MOL0    Cl16808   5.851   5.108   6.476  0.0882 -0.5486 -0.2459
  128MOL0     C16809   6.933   4.653   7.000  0.5051  0.8350  0.0850
  128MOL0     C16810   7.059   4.662   7.054  0.0878 -0.2790  0.0493
  128MOL0     O16811   7.331   4.755   6.899  0.5273  0.5085 -0.4857
  128MOL0     C16812   7.515   4.844   7.183 -0.9593  0.5505  0.4889
  128MOL0     C16813   7.650   4.880   7.213  0.3316  0.6579 -0.8248
  128MOL0     N16814   8.195   5.567   6.909 -0.7983 -0.4219 -0.2440
  128MOL0     N16815   8.298   5.600   6.844 -0.9457 -0.3474  0.6116
  128MOL0     C16816   7.574   5.214   6.373  1.0779 -0.8035 -0.1406
  128MOL0     C16817   7.436   5.224   6.380  0.1233  0.3630 -0.0860
  128MOL0     C16818   6.998   5.404   6.437  0.2301 -0.2361  0.2904
  128MOL0     C16819   6.896   5.456   6.516 -0.1267 -0.1916 -0.2259
  128MOL0     C16820   6.762   5.463   6.461 -0.8936 -0.1855  0.4327
  128MOL0     C16821   6.731   5.409   6.331 -0.8616 -0.3362 -0.9693
  128MOL0     O16822   6.603   5.420   6.273 -0.0672  0.6704  0.2675
  128MOL0     C16823   6.491   5.488   6.342 -0.8106 -0.3431  0.1775
  128MOL0     C16824   6.374   5.513   6.239  0.1588  0.0819 -0.1785
  128MOL0     C16825   6.315   5.378   6.199 -0.0621 -0.2912 -0.4305
  128MOL0     C16826   6.189   5.411   6.119  0.6825 -0.1091  0.7571
  128MOL0     C16827   6.066   5.445   6.193 -0.1874 -0.6498  0.1821
  128MOL0     C16828   5.956   5.475   6.243  0.3855  0.1995  0.1959
  128MOL0     C16829   6.838   5.345   6.269 -0.1926  0.0805  0.2688
  128MOL0     C16830   6.973   5.346   6.313  0.1562 -0.4547  0.2956
  128MOL0     H16831   7.404   5.492   6.589  0.7673 -0.1691  0.4131
  128MOL0     H16832   7.649   5.462   6.581  0.3746 -0.6355 -0.0844
  128MOL0     H16833   7.826   5.185   6.606 -1.3395  0.7479  1.0415
  128MOL0     H16834   7.850   5.362   6.629 -1.0817 -0.2582 -0.4311
  128MOL0     H16835   8.018   5.193   6.448  2.0248 -1.6486  1.4172
  128MOL0     H16836   8.061   5.212   6.609 -0.2130  2.4726  0.6292
  128MOL0     H16837   8.060   5.461   6.601  1.1408  0.8684  0.2061
  128MOL0     H16838   8.033   5.461   6.422  0.7935  0.8860  0.2695
  128MOL0     H16839   8.253   5.299   6.548  1.9995  0.8186 -0.3260
  128MOL0     H16840   8.216   5.327   6.375  0.0549  3.3229 -1.5960
  128MOL0     H16841   8.251   5.565   6.538 -3.0244  0.1825 -2.9232
  128MOL0     H16842   8.281   5.522   6.364  0.8831  0.6830 -0.7573
  128MOL0     H16843   8.503   5.563   6.455 -0.7290  0.9227 -0.3549
  128MOL0     H16844   8.476   5.399   6.401 -0.8961  0.9596 -2.1324
  128MOL0     H16845   8.466   5.314   6.622 -0.7423 -0.0707 -1.5047
  128MOL0     H16846   8.610   5.394   6.582 -0.9428 -4.3429 -1.6107
  128MOL0     H16847   8.514   5.597   6.715 -2.6923 -0.2528  0.0233
  128MOL0     H16848   8.575   5.454   6.808 -0.1085  1.1515  1.6064
  128MOL0     H16849   8.312   5.267   6.824 -1.8360 -0.2350 -1.0090
  128MOL0     H16850   7.996   5.374   6.871  0.4382 -0.8124 -0.4002
  128MOL0     H16851   8.023   5.402   7.048 -0.5723 -1.4966  1.3042
  128MOL0     H16852   8.175   5.177   7.036  1.1073  0.0712 -0.3201
  128MOL0     H16853   8.097   5.163   6.870  1.0450  1.7694 -0.4677
  128MOL0     H16854   7.945   5.182   7.139 -2.5236  0.2248 -1.3682
  128MOL0     H16855   7.880   5.142   6.980  0.4322 -2.8071 -1.3005
  128MOL0     H16856   8.072   4.985   7.155 -0.2400  3.6498 -0.9621
  128MOL0     H16857   8.000   4.921   7.012 -0.2354 -0.6953  0.6729
  128MOL0     H16858   7.781   4.958   6.908  0.9477 -1.8293 -0.5520
  128MOL0     H16859   7.548   4.875   6.838  0.4556  0.1489 -0.7891
  128MOL0     H16860   7.087   4.999   7.107 -1.1566  0.2189  2.0933
  128MOL0     H16861   6.851   4.975   7.024 -0.3743 -0.6797 -0.9936
  128MOL0     H16862   6.669   4.937   6.891  1.5586  1.9588  1.4509
  128MOL0     H16863   6.621   4.914   7.060 -0.0316  1.9467 -0.9947
  128MOL0     H16864   6.442   4.775   7.008  0.9272  1.3574  1.1145
  128MOL0     H16865   6.491   4.780   6.837 -0.3745  0.8035 -0.8665
  128MOL0     H16866   6.482   5.038   6.857 -0.3464  0.2084  0.0862
  128MOL0     H16867   6.365   5.007   6.982 -0.2485  1.4399 -0.2571
  128MOL0     H16868   6.345   4.890   6.692 -1.2574 -1.5855  0.5210
  128MOL0     H16869   6.226   4.880   6.824 -1.6876  0.6273 -1.2897
  128MOL0     H16870   6.319   5.149   6.726 -1.2391  0.2547 -0.0278
  128MOL0     H16871   6.170   5.111   6.812 -1.3679 -0.1578 -0.8596
  128MOL0     H16872   6.080   4.991   6.642  0.7818 -0.5124  0.4083
  128MOL0     H16873   6.221   5.022   6.540 -0.3806  0.4299  0.1595
  128MOL0     H16874   6.068   5.264   6.643  1.2215  1.0914 -0.2848
  128MOL0     H16875   6.185   5.258   6.512  1.2881 -2.4656 -0.8022
  128MOL0     H16876   6.054   5.155   6.363 -1.7603  0.4610 -1.5805
  128MOL0     H16877   5.967   5.299   6.422 -1.1181  0.2325  0.6019
  128MOL0     H16878   6.879   4.561   6.976 -2.2846  2.5531 -0.6949
  128MOL0     H16879   7.110   4.572   7.086 -2.1019 -1.6989 -0.1960
  128MOL0     H16880   7.439   4.832   7.260 -2.0006  0.5313 -0.5149
  128MOL0     H16881   7.680   4.894   7.316  2.4191 -0.1976 -1.2708
  128MOL0     H16882   7.624   5.141   6.310 -1.8475 -1.8438 -1.4743
  128MOL0     H16883   7.380   5.166   6.308  2.0961 -1.3862 -0.3308
  128MOL0     H16884   6.907   5.499   6.615  0.1630 -0.9474  0.0738
  128MOL0     H16885   6.677   5.490   6.522  0.7641  3.2009  1.5270
  128MOL0     H16886   6.530   5.586   6.372 -1.7523  0.0664  0.0996
  128MOL0     H16887   6.453   5.429   6.425 -2.3838  0.2973 -0.0544
  128MOL0     H16888   6.296   5.573   6.288 -0.2862  1.0672 -1.9996
  128MOL0     H16889   6.407   5.559   6.145 -0.5182 -1.3668 -1.1638
  128MOL0     H16890   6.290   5.324   6.291 -2.0438  0.8571 -0.2342
  128MOL0     H16891   6.397   5.323   6.153 -0.7881 -1.4685 -0.3541
  128MOL0     H16892   6.199   5.504   6.061  0.8643 -2.0149 -2.5152
  128MOL0     H16893   6.161   5.327   6.055 -2.0335  1.7555 -0.7355
  128MOL0     H16894   5.867   5.513   6.290  0.0468 -0.0350 -0.2444
  128MOL0     H16895   6.806   5.298   6.176  2.5065  3.8421 -2.8653
  128MOL0     H16896   7.059   5.299   6.267  1.0132  0.3642  1.0300
  129MOL0     O16897   8.500  10.093   2.286 -0.6910 -0.3589  0.2176
  129MOL0     C16898   8.568  10.005   2.335  0.3207 -0.4336 -0.7973
  129MOL0     O16899   8.523   9.911   2.425 -0.4062  0.2955 -0.3237
  129MOL0     C16900   8.404   9.930   2.481  0.0169  0.1913  0.3115
  129MOL0     C16901   8.357  10.050   2.541  0.8202 -0.2340  0.4000
  129MOL0     C16902   8.229  10.052   2.593  0.0432 -0.6000  0.2848
  129MOL0     C16903   8.140   9.955   2.581 -0.1545  0.1854  0.2706
  129MOL0     O16904   8.015   9.979   2.628 -0.3857 -0.2265 -0.6738
  129MOL0     C16905   7.979   9.903   2.742  0.2083 -0.0668 -0.4329
  129MOL0     C16906   7.838   9.944   2.796 -0.2264 -0.0737 -0.5303
  129MOL0     C16907   7.727   9.869   2.719 -0.4012  0.5574 -0.6586
  129MOL0     C16908   7.593   9.890   2.786 -0.0860  0.2170  0.2418
  129MOL0     C16909   7.473   9.823   2.702 -0.1360  0.5870  0.5036
  129MOL0     C16910   7.343   9.844   2.773  0.4387 -0.1821  0.0366
  129MOL0     C16911   7.227   9.782   2.685  0.6348  0.0839 -0.2420
  129MOL0     C16912   7.084   9.787   2.750 -0.8108 -0.6347  0.1577
  129MOL0     N16913   7.084   9.687   2.852 -0.5257  0.4699  0.6287
  129MOL0     C16914   7.024   9.558   2.846  1.4266 -0.2287 -0.8857
  129MOL0     C16915   7.025   9.512   2.975 -1.2690  0.3650 -0.1488
  129MOL0     C16916   6.951   9.396   3.029 -0.2798 -0.5287 -0.2020
  129MOL0     C16917   6.807   9.442   3.050 -0.2915  0.7851  0.1756
  129MOL0     C16918   6.707   9.321   3.066  0.2419 -0.4761 -0.0069
  129MOL0     C16919   6.568   9.381   3.099 -0.5911 -0.1262 -0.8852
  129MOL0     O16920   6.472   9.292   3.039 -0.0732 -0.1444 -0.5036
  129MOL0     C16921   6.340   9.336   3.038  0.0485  0.5771 -0.5446
  129MOL0     C16922   6.248   9.256   2.974  0.2027  0.0305 -0.1333
  129MOL0     C16923   6.111   9.290   2.980 -0.1313  0.5216  0.2345
  129MOL0     C16924   6.058   9.401   3.034  0.4894 -0.6708 -0.4360
  129MOL0     C16925   5.914   9.431   3.030 -0.4885  0.7049  0.3223
  129MOL0     O16926   5.830   9.334   2.967 -0.2125 -0.7036  0.3933
  129MOL0     C16927   5.690   9.353   2.965  0.7463 -0.2656 -0.1764
  129MOL0     C16928   5.628   9.475   2.947 -0.1573  0.0600 -0.2339
  129MOL0     C16929   5.491   9.480   2.947 -0.1179 -0.4436 -0.8423
  129MOL0     C16930   5.414   9.365   2.960 -0.6463 -0.1245  0.0395
  129MOL0     O16931   5.279   9.366   2.964  0.9402  0.2527 -0.1856
  129MOL0     C16932   5.222   9.448   2.853 -0.1472 -0.1673 -0.4844
  129MOL0     C16933   5.175   9.585   2.907 -0.0059  0.1373 -0.6968
  129MOL0     C16934   5.069   9.562   3.019 -0.3452 -0.2247  0.5679
  129MOL0     C16935   5.036   9.694   3.074 -0.5493 -0.8981  0.0237
  129MOL0     C16936   4.911   9.692   3.168  0.4330  0.3337  0.3006
  129MOL0     C16937   4.891   9.826   3.231  0.2050  0.2207  0.7973
  129MOL0     C16938   5.011   9.867   3.326 -0.5169  0.4554 -0.0790
  129MOL0     C16939   4.968   9.987   3.410 -0.4771 -0.1551 -0.0815
  129MOL0    Cl16940   5.098  10.063   3.521  0.5136  0.2857  0.1488
  129MOL0     C16941   5.475   9.245   2.984 -0.0050 -0.1511  0.1431
  129MOL0     C16942   5.617   9.241   2.981  0.4301  0.2696 -0.1417
  129MOL0     O16943   5.869   9.521   3.093  0.3044 -0.2437  0.0562
  129MOL0     C16944   6.160   9.488   3.094  0.2998  0.1848  0.1289
  129MOL0     C16945   6.294   9.456   3.098  0.5739  0.2530 -0.5216
  129MOL0     N16946   7.093   9.605   3.054 -0.3914  0.1312  0.4657
  129MOL0     N16947   7.130   9.699   2.976 -0.1786  0.3915 -0.2584
  129MOL0     C16948   8.186   9.837   2.514  0.0669 -0.5737  0.3183
  129MOL0     C16949   8.321   9.825   2.469  0.8033  0.9052 -0.1230
  129MOL0     C16950   8.710  10.005   2.311  0.0327  0.4899  0.8018
  129MOL0     C16951   8.790   9.903   2.371  0.1671 -0.3202  0.0875
  129MOL0     C16952   8.927   9.898   2.354  0.1471 -0.0853  0.1152
  129MOL0     C16953   8.994   9.989   2.277 -0.1708 -0.3762  0.1190
  129MOL0     O16954   9.127   9.961   2.273 -0.5671  0.7248 -0.3651
  129MOL0     C16955   9.214  10.077   2.261  0.3258  0.4491  0.5787
  129MOL0     C16956   9.320  10.055   2.152  0.1384  0.1925  0.3548
  129MOL0     C16957   9.426   9.976   2.226  0.9748 -0.5095 -0.2990
  129MOL0     C16958   9.538   9.934   2.134 -0.0243  0.4883 -0.1073
  129MOL0     C16959   9.492   9.820   2.051  0.0292  0.7081 -0.2111
  129MOL0     C16960   9.461   9.711   2.000 -0.8049 -0.8725  0.1110
  129MOL0     C16961   8.921  10.086   2.208 -0.2276 -0.7977  0.0243
  129MOL0     C16962   8.780  10.098   2.228 -0.1339  0.8727  0.9177
  129MOL0     H16963   8.408  10.146   2.545 -0.2646  0.3472  0.6926
  129MOL0     H16964   8.189  10.148   2.623 -0.1735  1.4319 -5.3266
  129MOL0     H16965   8.047   9.927   2.824  1.3528  0.8626 -1.6129
  129MOL0     H16966   7.990   9.795   2.726  2.0486 -0.0643  0.4844
  129MOL0     H16967   7.816  10.050   2.783  2.2534  0.3198 -2.0289
  129MOL0     H16968   7.834   9.915   2.902  2.4136  0.8358 -0.0973
  129MOL0     H16969   7.751   9.762   2.718 -0.1440  0.5712  1.1395
  129MOL0     H16970   7.732   9.909   2.618 -0.6863  0.2990 -0.7762
  129MOL0     H16971   7.604   9.832   2.878  0.4443  1.1070  0.7531
  129MOL0     H16972   7.578   9.993   2.820  1.1300  0.0708  1.2947
  129MOL0     H16973   7.494   9.717   2.684 -2.1570  0.5659 -2.5939
  129MOL0     H16974   7.469   9.864   2.601  1.8181 -3.0155 -1.2462
  129MOL0     H16975   7.340   9.952   2.789  2.2564  0.0447 -0.9305
  129MOL0     H16976   7.341   9.794   2.870 -0.6984  0.8651  0.5909
  129MOL0     H16977   7.230   9.831   2.587  1.7396 -0.3245 -0.4234
  129MOL0     H16978   7.245   9.679   2.653 -0.6018  0.1362 -1.1779
  129MOL0     H16979   6.993   9.764   2.695  0.5279  1.3571 -3.1662
  129MOL0     H16980   7.077   9.889   2.790  4.4001  0.2057 -0.3982
  129MOL0     H16981   6.984   9.510   2.757  4.0206  2.8830 -4.0118
  129MOL0     H16982   6.993   9.372   3.127 -0.7879  2.1173  0.7483
  129MOL0     H16983   6.961   9.314   2.957 -1.3383 -1.4886  0.6936
  129MOL0     H16984   6.769   9.502   2.967  1.8888  0.8744 -0.8224
  129MOL0     H16985   6.791   9.498   3.143 -2.8348 -1.0865  0.9712
  129MOL0     H16986   6.702   9.283   2.964 -1.7704  2.1991 -1.0216
  129MOL0     H16987   6.730   9.254   3.149 -1.0337  0.7871  1.4312
  129MOL0     H16988   6.565   9.482   3.055  4.2780  0.3325 -0.8037
  129MOL0     H16989   6.546   9.396   3.205  0.1426 -3.6904 -0.1077
  129MOL0     H16990   6.289   9.168   2.924  0.3494  0.7209 -1.2634
  129MOL0     H16991   6.046   9.218   2.930 -0.6471  0.7996  0.5003
  129MOL0     H16992   5.694   9.560   2.934 -1.2059  1.4902  2.7118
  129MOL0     H16993   5.441   9.576   2.953 -0.2219 -0.5861  2.6020
  129MOL0     H16994   5.132   9.407   2.808  1.0825 -1.9343 -1.4104
  129MOL0     H16995   5.293   9.456   2.771 -2.9932  0.8856 -3.0307
  129MOL0     H16996   5.115   9.633   2.829 -0.8865  0.2939  0.0541
  129MOL0     H16997   5.248   9.661   2.932  0.7330 -0.7018 -0.2509
  129MOL0     H16998   5.105   9.502   3.104 -0.3798  0.7215  1.2702
  129MOL0     H16999   4.984   9.522   2.964  0.2726 -2.4182  1.1110
  129MOL0     H17000   5.127   9.717   3.131  1.2847 -0.1934 -2.9580
  129MOL0     H17001   5.033   9.771   2.997 -0.1701 -0.8807  0.0218
  129MOL0     H17002   4.916   9.616   3.247 -1.5190 -1.1188 -0.9118
  129MOL0     H17003   4.820   9.677   3.110  0.4098  2.4532 -0.2817
  129MOL0     H17004   4.798   9.822   3.287 -0.6936 -1.4740 -0.7035
  129MOL0     H17005   4.898   9.907   3.158  2.5815 -0.6266 -0.0261
  129MOL0     H17006   5.037   9.781   3.388  1.2751  0.4763 -0.7425
  129MOL0     H17007   5.097   9.885   3.261 -3.1233  0.1184 -3.9897
  129MOL0     H17008   4.882   9.958   3.470  0.5520 -1.1491  0.9740
  129MOL0     H17009   4.931  10.069   3.347 -0.4030 -0.0665 -0.0103
  129MOL0     H17010   5.413   9.157   2.989 -1.1280  0.5272 -1.3569
  129MOL0     H17011   5.674   9.149   2.980 -1.5874 -1.0960  1.3113
  129MOL0     H17012   6.108   9.578   3.126 -2.8055 -0.0026 -3.6817
  129MOL0     H17013   6.362   9.521   3.153  2.2738 -1.6874 -0.2016
  129MOL0     H17014   8.112   9.759   2.501 -0.3205 -0.0635 -0.6468
  129MOL0     H17015   8.344   9.735   2.413  2.4032  1.3045 -0.1728
  129MOL0     H17016   8.747   9.832   2.440 -0.4933 -1.2603 -1.2518
  129MOL0     H17017   8.978   9.816   2.404  3.2773  0.5434 -1.8185
  129MOL0     H17018   9.266  10.095   2.355  1.5019 -1.4227  0.3501
  129MOL0     H17019   9.166  10.174   2.245  2.5239  1.4055 -0.9162
  129MOL0     H17020   9.284   9.994   2.068 -0.3108  1.4499 -0.3979
  129MOL0     H17021   9.357  10.151   2.112 -1.8713  2.0003  2.5808
  129MOL0     H17022   9.385   9.888   2.277  0.8383 -0.3640 -0.1566
  129MOL0     H17023   9.465  10.044   2.303 -1.2444 -2.2976  2.6487
  129MOL0     H17024   9.566  10.010   2.060  2.8775 -0.3550 -0.0234
  129MOL0     H17025   9.628   9.906   2.190  0.6246  0.7804 -0.9833
  129MOL0     H17026   9.447   9.626   1.937 -1.2469 -1.1057  0.5154
  129MOL0     H17027   8.971  10.156   2.141 -0.1399 -0.8508  0.0332
  129MOL0     H17028   8.727  10.172   2.170 -0.3532  2.3733  2.9174
  130MOL0     O17029   3.439   5.200   9.624 -0.4308  0.1218 -0.0252
  130MOL0     C17030   3.318   5.213   9.651 -0.3183  0.2642  0.0544
  130MOL0     O17031   3.224   5.307   9.597 -0.1630 -0.5093  0.1244
  130MOL0     C17032   3.279   5.359   9.477  1.2060 -0.4793 -0.3576
  130MOL0     C17033   3.346   5.477   9.473 -0.6725  0.2506 -0.0981
  130MOL0     C17034   3.402   5.526   9.353 -0.1794 -0.3584 -0.1861
  130MOL0     C17035   3.406   5.443   9.234 -0.2900  0.5570  0.2121
  130MOL0     O17036   3.477   5.452   9.121  0.1412  0.0228 -0.6985
  130MOL0     C17037   3.546   5.569   9.096 -0.0239  0.1518  0.3509
  130MOL0     C17038   3.469   5.664   9.013  0.1355 -0.6410 -0.7261
  130MOL0     C17039   3.459   5.809   9.080 -0.7018  0.3679 -0.5403
  130MOL0     C17040   3.416   5.927   8.980  0.3503  0.3430  0.8497
  130MOL0     C17041   3.394   6.061   9.053 -0.6916  0.1587  0.0508
  130MOL0     C17042   3.291   6.070   9.167  0.3958  0.2671  0.7495
  130MOL0     C17043   3.248   6.213   9.199 -0.0789 -0.0023  0.1316
  130MOL0     C17044   3.151   6.233   9.317  0.2010  0.1616 -0.8734
  130MOL0     N17045   3.014   6.198   9.278  0.3334  0.4774 -0.1140
  130MOL0     C17046   2.950   6.086   9.331 -0.8023 -0.2033  0.1250
  130MOL0     C17047   2.832   6.084   9.260  0.1491 -0.4452  0.4368
  130MOL0     C17048   2.729   5.986   9.278  0.6616  0.1133  0.3145
  130MOL0     C17049   2.612   6.047   9.365  0.3997 -0.4026 -0.2069
  130MOL0     C17050   2.523   5.942   9.430 -0.3239  0.0819 -0.2972
  130MOL0     C17051   2.400   5.995   9.504  0.6245  0.0308 -0.6756
  130MOL0     O17052   2.338   5.888   9.578 -0.3614 -0.7850 -0.0696
  130MOL0     C17053   2.256   5.797   9.516 -0.1725  0.2608 -1.2522
  130MOL0     C17054   2.212   5.692   9.600 -0.4323  0.3657  0.1556
  130MOL0     C17055   2.143   5.585   9.543  0.8579 -0.2484 -0.1122
  130MOL0     C17056   2.102   5.585   9.411 -0.1323  0.5867  1.6648
  130MOL0     C17057   2.018   5.472   9.367 -0.4110  0.4101  0.5367
  130MOL0     O17058   1.979   5.378   9.461 -0.9162 -0.4937  0.4674
  130MOL0     C17059   1.906   5.267   9.426 -0.5664 -0.2698 -0.2877
  130MOL0     C17060   1.927   5.173   9.529  0.0669  0.2133 -0.4083
  130MOL0     C17061   1.877   5.050   9.519 -0.5340  0.1868  0.2502
  130MOL0     C17062   1.812   5.015   9.404  0.1341  0.4346 -0.2851
  130MOL0     O17063   1.758   4.890   9.395 -0.3435 -0.0225  0.6942
  130MOL0     C17064   1.716   4.822   9.512  0.0785 -0.1377  0.3771
  130MOL0     C17065   1.618   4.712   9.473 -0.7590  0.6666  0.1888
  130MOL0     C17066   1.605   4.603   9.581  0.1878  0.6882  0.2214
  130MOL0     C17067   1.483   4.511   9.560  0.2845 -0.6405 -0.2231
  130MOL0     C17068   1.455   4.416   9.678 -0.6698  0.1552  0.6344
  130MOL0     C17069   1.427   4.496   9.811  0.5149 -0.0427  0.8891
  130MOL0     C17070   1.341   4.402   9.900 -0.5778 -0.0373 -0.2446
  130MOL0     C17071   1.283   4.467  10.025  0.1144  0.6225  0.4464
  130MOL0    Cl17072   1.396   4.572  10.105  0.5018 -0.5300 -0.0205
  130MOL0     C17073   1.798   5.106   9.302 -0.1414 -1.0619  0.9852
  130MOL0     C17074   1.837   5.239   9.316 -0.2231 -0.0526  1.0779
  130MOL0     O17075   1.997   5.464   9.245  0.3409  0.2712  0.0335
  130MOL0     C17076   2.142   5.688   9.328  0.5285 -0.3645  0.1846
  130MOL0     C17077   2.221   5.791   9.381  0.0678  0.7589 -0.0578
  130MOL0     N17078   2.832   6.188   9.166  0.2382  0.3075 -0.6023
  130MOL0     N17079   2.928   6.261   9.187  0.1849 -0.1871  0.1945
  130MOL0     C17080   3.329   5.326   9.240 -0.4927 -0.6541 -0.3619
  130MOL0     C17081   3.257   5.293   9.361 -0.2107 -0.6555  0.0079
  130MOL0     C17082   3.263   5.126   9.751  0.4696  0.0887 -0.4072
  130MOL0     C17083   3.129   5.120   9.776 -0.6377  0.6179 -0.7706
  130MOL0     C17084   3.077   5.031   9.865  0.2561 -0.6107 -0.3021
  130MOL0     C17085   3.158   4.949   9.949  0.5795  0.8103  0.1578
  130MOL0     O17086   3.104   4.869  10.048 -0.3884 -0.4904 -0.4867
  130MOL0     C17087   2.968   4.890  10.089 -0.7591  0.1853 -0.0114
  130MOL0     C17088   2.935   4.825  10.226  0.8226  0.5840 -0.7730
  130MOL0     C17089   2.785   4.805  10.229 -0.5192 -0.2656 -0.5174
  130MOL0     C17090   2.725   4.798  10.375  0.5287 -0.0023 -0.2639
  130MOL0     C17091   2.572   4.804  10.374  0.8371 -1.1645 -0.2128
  130MOL0     C17092   2.448   4.817  10.373 -0.4880  0.1229  0.5811
  130MOL0     C17093   3.291   4.950   9.912  0.1573  0.8076  0.7886
  130MOL0     C17094   3.341   5.028   9.806 -0.8523  0.2535  0.5743
  130MOL0     H17095   3.347   5.528   9.569 -2.3077 -0.5272  0.3650
  130MOL0     H17096   3.448   5.624   9.359 -0.8967  0.4029 -4.2731
  130MOL0     H17097   3.633   5.547   9.034  0.4346  2.2305  0.1671
  130MOL0     H17098   3.591   5.612   9.187 -1.3248  0.6624  0.7712
  130MOL0     H17099   3.369   5.624   8.996  0.8841 -2.1987 -1.7425
  130MOL0     H17100   3.514   5.666   8.913 -1.1332 -2.1075 -1.3631
  130MOL0     H17101   3.547   5.841   9.137  0.2267  0.8203 -2.1637
  130MOL0     H17102   3.381   5.801   9.156 -0.2067  0.4355 -0.0192
  130MOL0     H17103   3.492   5.931   8.901  0.1017 -0.7918  0.5199
  130MOL0     H17104   3.326   5.901   8.922 -1.2773  0.5341  3.1756
  130MOL0     H17105   3.380   6.136   8.975  1.0077  0.2814 -0.1712
  130MOL0     H17106   3.488   6.082   9.105  0.2884 -0.0932 -1.5347
  130MOL0     H17107   3.330   6.017   9.255  0.4046 -0.5741  0.2448
  130MOL0     H17108   3.197   6.026   9.132 -0.0455  1.9466 -0.2763
  130MOL0     H17109   3.338   6.269   9.227  0.2884 -0.9292  0.8580
  130MOL0     H17110   3.201   6.248   9.106  0.9474 -0.6646 -0.6637
  130MOL0     H17111   3.155   6.337   9.350  1.4267 -0.0743 -0.2233
  130MOL0     H17112   3.186   6.170   9.399  1.1945 -1.7497 -2.6544
  130MOL0     H17113   2.973   6.029   9.421 -0.5337 -1.3961 -0.6721
  130MOL0     H17114   2.775   5.900   9.326 -2.3961 -1.8910 -0.0450
  130MOL0     H17115   2.691   5.946   9.184 -2.2706 -0.3932  1.6044
  130MOL0     H17116   2.541   6.112   9.314 -0.8761 -1.6438 -0.0885
  130MOL0     H17117   2.652   6.109   9.446 -1.0430  0.5394 -0.1722
  130MOL0     H17118   2.512   5.861   9.357  3.5645 -1.8117  0.9217
  130MOL0     H17119   2.581   5.897   9.511 -0.1449  0.1493 -0.3876
  130MOL0     H17120   2.340   6.040   9.425  2.7996  0.9725 -1.8779
  130MOL0     H17121   2.425   6.073   9.577 -0.9920  0.0531 -0.1021
  130MOL0     H17122   2.260   5.687   9.697 -0.0392 -2.2311 -0.1060
  130MOL0     H17123   2.107   5.505   9.607 -0.3951  0.1367 -0.3097
  130MOL0     H17124   1.993   5.199   9.611  1.8076 -0.3833 -1.5700
  130MOL0     H17125   1.894   4.979   9.599  0.9884  0.4512  0.2019
  130MOL0     H17126   1.675   4.887   9.589 -0.9769 -3.1218  2.5200
  130MOL0     H17127   1.801   4.776   9.564 -0.5473  1.2700  2.7787
  130MOL0     H17128   1.644   4.664   9.378  0.4592 -0.1629  0.9078
  130MOL0     H17129   1.517   4.752   9.462 -1.3700 -0.8681 -0.0168
  130MOL0     H17130   1.594   4.651   9.678 -1.8475  0.6534  0.0468
  130MOL0     H17131   1.691   4.536   9.580 -2.1909 -2.5681 -0.1105
  130MOL0     H17132   1.393   4.572   9.555  0.5652 -0.0277  1.6610
  130MOL0     H17133   1.493   4.440   9.477 -0.5131 -3.2915  1.7923
  130MOL0     H17134   1.538   4.347   9.687 -1.6560 -1.2317 -0.5072
  130MOL0     H17135   1.365   4.356   9.658  0.7855 -2.0049  0.3148
  130MOL0     H17136   1.364   4.585   9.801  2.1945  1.0855 -0.0076
  130MOL0     H17137   1.517   4.536   9.858  0.1802  0.7174  0.9040
  130MOL0     H17138   1.257   4.370   9.838 -0.3339  1.7970 -1.5945
  130MOL0     H17139   1.403   4.321   9.939 -2.0638  0.1189  2.7281
  130MOL0     H17140   1.260   4.389  10.099  1.9709  0.1852  0.5997
  130MOL0     H17141   1.186   4.515  10.006  0.0637  0.1489 -0.5556
  130MOL0     H17142   1.749   5.095   9.206  0.8801  1.3296  0.0996
  130MOL0     H17143   1.824   5.313   9.237 -0.5795 -1.5764 -0.3436
  130MOL0     H17144   2.107   5.704   9.227  0.6540  0.3943  0.2568
  130MOL0     H17145   2.236   5.879   9.321 -1.8058  2.5390  1.8994
  130MOL0     H17146   3.324   5.257   9.157  5.0864  0.6628 -2.2358
  130MOL0     H17147   3.198   5.203   9.377 -0.2099 -0.6825 -0.1405
  130MOL0     H17148   3.064   5.158   9.699  0.9395  1.8602 -1.5419
  130MOL0     H17149   2.970   5.045   9.874  0.3788  2.3828 -2.0890
  130MOL0     H17150   2.899   4.851  10.014 -2.6977 -0.8498  2.1724
  130MOL0     H17151   2.943   4.996  10.086 -1.7303  0.0321  1.6533
  130MOL0     H17152   2.991   4.733  10.243 -0.3181  0.2472  1.7428
  130MOL0     H17153   2.954   4.897  10.307 -1.3952 -1.0745  1.3848
  130MOL0     H17154   2.755   4.718  10.170 -2.0536 -1.6234  2.1003
  130MOL0     H17155   2.728   4.889  10.188 -1.5190  0.4158  2.0630
  130MOL0     H17156   2.761   4.709  10.427  1.8464 -0.8542 -2.4987
  130MOL0     H17157   2.754   4.885  10.434 -1.0157  1.8792 -2.1080
  130MOL0     H17158   2.342   4.826  10.363 -0.7532 -0.4488  2.5006
  130MOL0     H17159   3.366   4.889   9.960 -3.0187 -3.1921  1.1127
  130MOL0     H17160   3.445   5.008   9.785 -0.6488  0.7919  1.0312
  131MOL0     O17161   3.504   6.615   2.111  0.0596  0.2460  0.9149
  131MOL0     C17162   3.477   6.736   2.087  0.2090 -0.3285 -0.2630
  131MOL0     O17163   3.541   6.838   2.144  1.2422  0.1839  0.2478
  131MOL0     C17164   3.658   6.823   2.216 -0.4568 -0.0746  1.0479
  131MOL0     C17165   3.761   6.742   2.172  0.7508  0.8203 -0.7449
  131MOL0     C17166   3.877   6.744   2.246  0.4244 -0.7267 -0.2867
  131MOL0     C17167   3.893   6.828   2.360  0.4879 -0.3260  0.2874
  131MOL0     O17168   4.004   6.841   2.445  0.3893  0.4905 -0.3075
  131MOL0     C17169   4.122   6.771   2.400 -0.5710  0.4616 -0.6860
  131MOL0     C17170   4.234   6.803   2.498  0.1369 -0.1333  0.7250
  131MOL0     C17171   4.198   6.736   2.639 -0.4118 -0.4200 -0.7414
  131MOL0     C17172   4.298   6.783   2.746  0.2627 -0.4049  0.8985
  131MOL0     C17173   4.275   6.701   2.876 -0.4957 -0.4573 -0.2817
  131MOL0     C17174   4.358   6.762   2.992 -0.0255  0.5227  0.6453
  131MOL0     C17175   4.290   6.890   3.041 -0.2233 -0.0878  0.3601
  131MOL0     C17176   4.383   7.002   3.076  0.4589 -0.8061  0.0358
  131MOL0     N17177   4.440   6.970   3.205 -0.2977  0.9061  0.4249
  131MOL0     C17178   4.400   7.011   3.325  0.2679  0.0757  0.3568
  131MOL0     C17179   4.486   6.964   3.421 -0.8673 -0.1409  0.4766
  131MOL0     C17180   4.491   6.976   3.565  0.5135 -0.1200  0.9487
  131MOL0     C17181   4.505   7.121   3.616 -0.0017 -0.1465 -1.0365
  131MOL0     C17182   4.476   7.133   3.767  1.0317 -0.4946 -0.0937
  131MOL0     C17183   4.324   7.151   3.795 -0.4546  0.2123  0.1919
  131MOL0     O17184   4.258   7.025   3.808 -0.1862 -0.2546  0.4782
  131MOL0     C17185   4.122   7.027   3.798 -0.1029 -0.0528 -0.3489
  131MOL0     C17186   4.040   7.140   3.842  0.4988 -0.1027  0.2645
  131MOL0     C17187   3.903   7.131   3.813 -0.4055 -0.3464  0.6771
  131MOL0     C17188   3.852   7.015   3.750  0.1876 -0.1400 -1.3370
  131MOL0     C17189   3.708   7.015   3.704 -0.1129  0.1960 -0.2825
  131MOL0     O17190   3.644   6.896   3.690  0.1226  0.6950  0.0962
  131MOL0     C17191   3.534   6.895   3.609 -0.2920 -0.7138 -0.1821
  131MOL0     C17192   3.407   6.914   3.661  0.3743 -0.4746 -1.0662
  131MOL0     C17193   3.290   6.912   3.581 -1.0034 -0.3541 -0.1217
  131MOL0     C17194   3.306   6.880   3.448  0.0795 -0.2956  1.1721
  131MOL0     O17195   3.200   6.903   3.374  0.3538  0.5427  0.4879
  131MOL0     C17196   3.196   6.845   3.239  0.1351 -0.0966  0.5481
  131MOL0     C17197   3.046   6.817   3.190  0.1362  0.6281 -0.2369
  131MOL0     C17198   2.957   6.935   3.208  0.3991 -0.4278  0.7577
  131MOL0     C17199   2.816   6.916   3.144 -0.2943  0.0657  0.6869
  131MOL0     C17200   2.733   7.044   3.135 -0.0585  0.1392 -0.2776
  131MOL0     C17201   2.583   7.023   3.134  0.3283 -0.0556  0.0544
  131MOL0     C17202   2.512   7.146   3.088 -0.0057 -0.3011 -0.3160
  131MOL0     C17203   2.371   7.141   3.134  1.0018 -0.2150 -1.0841
  131MOL0    Cl17204   2.267   7.031   3.038  0.0392  0.0317  0.2737
  131MOL0     C17205   3.433   6.843   3.397 -0.0076 -1.5244  0.1985
  131MOL0     C17206   3.550   6.857   3.477  0.2419  1.5783 -0.5059
  131MOL0     O17207   3.666   7.119   3.667 -0.1592 -0.2076  0.0849
  131MOL0     C17208   3.937   6.907   3.716  1.0794  0.7070  0.0841
  131MOL0     C17209   4.071   6.917   3.743  0.9097 -0.3170 -0.5203
  131MOL0     N17210   4.587   6.892   3.352 -0.3960  0.1033 -0.3447
  131MOL0     N17211   4.559   6.901   3.224 -0.7445  0.8227 -0.2823
  131MOL0     C17212   3.790   6.907   2.391  0.1776 -1.0529  0.0907
  131MOL0     C17213   3.673   6.909   2.319 -0.0788 -0.1572 -0.1923
  131MOL0     C17214   3.364   6.770   1.989 -0.1245  0.6620  0.3220
  131MOL0     C17215   3.364   6.902   1.943 -0.3715 -0.2414  0.2916
  131MOL0     C17216   3.264   6.952   1.853 -0.0297 -0.5975 -0.8166
  131MOL0     C17217   3.187   6.853   1.796 -0.1581 -0.1205 -0.3388
  131MOL0     O17218   3.099   6.907   1.699 -1.2039 -0.0104 -0.2305
  131MOL0     C17219   3.035   6.816   1.613 -0.5144 -0.0646 -0.3560
  131MOL0     C17220   2.927   6.887   1.526  0.1570  0.6244  0.1851
  131MOL0     C17221   2.946   7.028   1.477 -0.2275 -0.0853 -0.2605
  131MOL0     C17222   2.835   7.068   1.377 -0.9137 -0.5933  0.5800
  131MOL0     C17223   2.708   7.104   1.435  0.5161 -0.3999  0.0482
  131MOL0     C17224   2.598   7.120   1.483  0.4761 -0.6264 -0.3140
  131MOL0     C17225   3.194   6.722   1.833 -0.4509  0.2518 -0.4969
  131MOL0     C17226   3.282   6.678   1.935  0.7124  0.7171  0.4179
  131MOL0     H17227   3.753   6.671   2.089 -0.4477 -1.6897  1.3671
  131MOL0     H17228   3.951   6.668   2.223  2.9980  1.0835  1.2866
  131MOL0     H17229   4.150   6.792   2.296  1.6177  2.2773  0.1956
  131MOL0     H17230   4.104   6.663   2.402  1.5632  0.0809  0.6924
  131MOL0     H17231   4.235   6.911   2.510  2.2608 -0.0273  0.0443
  131MOL0     H17232   4.329   6.770   2.454  1.6680  0.9180  3.0428
  131MOL0     H17233   4.215   6.629   2.620 -1.5022 -0.5295 -1.1724
  131MOL0     H17234   4.099   6.752   2.683  0.5376 -1.2469  1.8646
  131MOL0     H17235   4.395   6.782   2.695  0.8296  2.2532  1.7698
  131MOL0     H17236   4.275   6.889   2.763  1.7015  0.2825 -0.9929
  131MOL0     H17237   4.317   6.603   2.852 -1.4668  0.0236 -4.7584
  131MOL0     H17238   4.169   6.693   2.901 -0.0087 -1.4759  1.6419
  131MOL0     H17239   4.459   6.783   2.954  1.3559 -1.8058  2.7336
  131MOL0     H17240   4.361   6.693   3.077 -1.0952  0.7462  0.8795
  131MOL0     H17241   4.218   6.926   2.966  2.6192  0.9939 -2.0637
  131MOL0     H17242   4.226   6.878   3.129 -1.2658  2.5414  0.0605
  131MOL0     H17243   4.316   7.087   3.087 -0.9754 -1.8482 -0.2700
  131MOL0     H17244   4.472   7.010   3.013  2.2769 -0.9736  2.4502
  131MOL0     H17245   4.318   7.076   3.353  1.9832  0.7322  4.6072
  131MOL0     H17246   4.572   6.910   3.595  0.7222  0.4722  1.7389
  131MOL0     H17247   4.394   6.939   3.600  0.7465 -1.9064 -0.2129
  131MOL0     H17248   4.435   7.194   3.573 -0.0029  0.9527  0.7249
  131MOL0     H17249   4.610   7.142   3.594  0.4787 -0.8768  0.4273
  131MOL0     H17250   4.520   7.047   3.818 -3.3521 -3.4382 -0.7978
  131MOL0     H17251   4.529   7.221   3.805 -1.8519  1.2321  0.2955
  131MOL0     H17252   4.283   7.204   3.709  0.3122  0.8839  0.2261
  131MOL0     H17253   4.302   7.204   3.888 -0.0179 -1.7922  1.5208
  131MOL0     H17254   4.088   7.228   3.882  1.7098 -0.8682  0.5839
  131MOL0     H17255   3.836   7.209   3.846 -0.4288 -0.0459 -0.0713
  131MOL0     H17256   3.401   6.929   3.768 -2.3774 -2.2501 -0.8688
  131MOL0     H17257   3.196   6.939   3.628 -0.0848  1.9719  0.5267
  131MOL0     H17258   3.252   6.751   3.231  1.3245  0.6956 -1.1826
  131MOL0     H17259   3.243   6.924   3.180 -1.7617  0.4994 -0.2162
  131MOL0     H17260   3.004   6.740   3.255  1.8651 -2.2793 -2.2909
  131MOL0     H17261   3.050   6.785   3.085  3.3704  0.4914 -0.1752
  131MOL0     H17262   3.008   7.010   3.147 -3.2252  1.7066  0.0589
  131MOL0     H17263   2.956   6.957   3.315 -1.7499  0.1061  0.6732
  131MOL0     H17264   2.820   6.868   3.046 -1.1555 -0.4260  0.8851
  131MOL0     H17265   2.755   6.852   3.207  0.1890  0.0859  1.1819
  131MOL0     H17266   2.766   7.090   3.041  1.2303  1.3550  0.7239
  131MOL0     H17267   2.754   7.114   3.216  1.1818  0.3375 -0.7447
  131MOL0     H17268   2.546   6.981   3.228  2.4488 -3.0238 -0.3051
  131MOL0     H17269   2.561   6.950   3.055 -0.8837  1.7737 -1.4015
  131MOL0     H17270   2.554   7.242   3.119 -2.0454  0.6485 -0.3468
  131MOL0     H17271   2.507   7.149   2.979  1.2584  1.2323 -0.3720
  131MOL0     H17272   2.328   7.241   3.121  2.0260  0.5428  0.8574
  131MOL0     H17273   2.355   7.109   3.238 -2.6012  1.9847 -0.7682
  131MOL0     H17274   3.440   6.813   3.293 -0.1039 -1.7063  0.2450
  131MOL0     H17275   3.651   6.839   3.443  0.3786 -0.1978  0.6980
  131MOL0     H17276   3.891   6.819   3.672 -1.7651  0.0691  3.7890
  131MOL0     H17277   4.141   6.842   3.707  1.2214  0.3447 -1.3305
  131MOL0     H17278   3.809   6.974   2.474  2.0101 -0.9100 -0.3907
  131MOL0     H17279   3.595   6.981   2.338  0.5554  0.7781 -0.9968
  131MOL0     H17280   3.440   6.976   1.969 -0.7064  0.6909 -1.2651
  131MOL0     H17281   3.268   7.060   1.845 -4.7097 -0.1279  0.0777
  131MOL0     H17282   2.984   6.738   1.671 -1.5281  0.4653 -0.5188
  131MOL0     H17283   3.114   6.776   1.549 -0.9451  0.6926 -1.3803
  131MOL0     H17284   2.915   6.821   1.439  0.8097 -0.6575  1.0417
  131MOL0     H17285   2.839   6.895   1.589  1.4094  0.2276  2.0520
  131MOL0     H17286   3.050   7.029   1.445  0.7490 -2.9772  2.2688
  131MOL0     H17287   2.932   7.092   1.565 -0.4080  0.8282 -0.9298
  131MOL0     H17288   2.868   7.155   1.320 -2.7319 -1.6728 -2.3362
  131MOL0     H17289   2.827   6.982   1.310 -0.7912 -1.5309  1.7221
  131MOL0     H17290   2.504   7.119   1.535  0.3219 -1.8682 -0.5961
  131MOL0     H17291   3.134   6.651   1.776 -0.2354 -1.2060  0.9977
  131MOL0     H17292   3.289   6.579   1.979  0.0340  0.7900  0.7082
  132MOL0     O17293   9.190   1.137   3.487  0.0970 -1.0477  0.0674
  132MOL0     C17294   9.213   1.137   3.607  0.5558 -0.2487 -0.9818
  132MOL0     O17295   9.121   1.127   3.700  0.4507  0.0415 -0.0819
  132MOL0     C17296   8.985   1.131   3.666 -0.1299  0.1314  0.4840
  132MOL0     C17297   8.911   1.013   3.671 -0.2232  0.1000 -0.4989
  132MOL0     C17298   8.778   0.998   3.636 -0.2003 -0.2248 -0.1353
  132MOL0     C17299   8.709   1.108   3.584  0.0911  0.8117  0.3888
  132MOL0     O17300   8.595   1.106   3.517 -0.3522  0.5960 -0.2923
  132MOL0     C17301   8.483   1.048   3.581  0.1080 -0.1758 -0.1180
  132MOL0     C17302   8.399   0.967   3.479  0.3634 -0.2601 -0.4320
  132MOL0     C17303   8.318   1.062   3.383 -0.4284 -0.1321  0.5112
  132MOL0     C17304   8.194   1.127   3.459 -0.6409 -0.4289 -0.2596
  132MOL0     C17305   8.114   1.215   3.368  0.0593 -0.1936  0.2235
  132MOL0     C17306   8.019   1.301   3.454 -0.4070  1.0143 -0.8717
  132MOL0     C17307   7.916   1.376   3.370 -0.5657 -0.3371  0.3754
  132MOL0     C17308   7.980   1.486   3.290  0.1836 -0.3035  0.0158
  132MOL0     N17309   7.880   1.595   3.263 -0.1857 -0.1807  0.1850
  132MOL0     C17310   7.802   1.603   3.150 -0.4721  0.3007  0.6395
  132MOL0     C17311   7.735   1.715   3.165 -0.2134 -0.2748  0.5688
  132MOL0     C17312   7.642   1.784   3.072 -0.6801 -0.7693  0.0587
  132MOL0     C17313   7.705   1.912   3.018 -0.1739 -0.1282  0.7226
  132MOL0     C17314   7.598   2.008   2.960  0.7099  0.1026 -0.4752
  132MOL0     C17315   7.563   1.989   2.812  0.7955  0.6696  0.8624
  132MOL0     O17316   7.492   2.094   2.742  0.0535  0.5350 -0.9204
  132MOL0     C17317   7.358   2.110   2.759 -0.4437 -0.3108  0.3934
  132MOL0     C17318   7.308   2.232   2.717 -0.2568 -0.0422 -0.8751
  132MOL0     C17319   7.168   2.253   2.723  0.7164  0.5509  0.0029
  132MOL0     C17320   7.081   2.159   2.787 -0.2933  0.7612 -1.0708
  132MOL0     C17321   6.933   2.193   2.793 -0.0906 -0.0535 -1.3903
  132MOL0     O17322   6.884   2.306   2.740 -0.3124  0.2344 -0.4868
  132MOL0     C17323   6.745   2.334   2.739 -0.8232  0.1144  0.1774
  132MOL0     C17324   6.703   2.449   2.777 -0.6522  0.0530 -0.3143
  132MOL0     C17325   6.571   2.485   2.770 -0.0732  0.2654 -0.0223
  132MOL0     C17326   6.480   2.407   2.714 -0.2259  0.3447  0.8398
  132MOL0     O17327   6.354   2.453   2.717 -0.0014  0.3251 -0.4103
  132MOL0     C17328   6.255   2.400   2.629  0.3792 -0.1420  0.2297
  132MOL0     C17329   6.134   2.489   2.636  0.1549 -0.7972  0.2364
  132MOL0     C17330   6.064   2.468   2.771  0.6624  0.3533 -0.0385
  132MOL0     C17331   5.952   2.567   2.795 -0.2184 -0.2489 -0.6406
  132MOL0     C17332   5.830   2.547   2.714  0.4221 -0.9986 -0.2514
  132MOL0     C17333   5.701   2.567   2.803  0.2419 -0.0811  0.6247
  132MOL0     C17334   5.577   2.575   2.721  0.2177 -0.2231  1.1183
  132MOL0     C17335   5.466   2.595   2.815 -0.3577  0.2467 -0.3898
  132MOL0    Cl17336   5.459   2.753   2.894 -0.2371  0.0116  0.5623
  132MOL0     C17337   6.519   2.283   2.661 -0.2154 -0.3043 -0.3285
  132MOL0     C17338   6.648   2.246   2.678 -0.4350 -0.5510  0.6120
  132MOL0     O17339   6.862   2.107   2.851  0.6197 -0.4805 -0.1070
  132MOL0     C17340   7.142   2.031   2.829  0.5366 -0.7103 -0.5536
  132MOL0     C17341   7.273   2.011   2.804  0.6406 -0.1582  0.2703
  132MOL0     N17342   7.764   1.777   3.278 -0.2026 -0.1665  0.5772
  132MOL0     N17343   7.850   1.702   3.341  0.4192  0.5166  0.1056
  132MOL0     C17344   8.776   1.227   3.577  0.6155  0.2003 -0.1137
  132MOL0     C17345   8.913   1.240   3.617  0.2958 -0.7261 -0.5810
  132MOL0     C17346   9.361   1.139   3.646  0.7949 -1.3146 -0.1858
  132MOL0     C17347   9.399   1.128   3.778  0.6685 -0.0876  0.2161
  132MOL0     C17348   9.533   1.134   3.808  0.5064  0.0295 -0.4429
  132MOL0     C17349   9.632   1.154   3.718 -0.3832  0.7985  0.6365
  132MOL0     O17350   9.765   1.152   3.764  0.5105 -0.1027 -0.1561
  132MOL0     C17351   9.865   1.172   3.665 -0.0989  0.0618  0.0698
  132MOL0     C17352  10.016   1.149   3.716  0.2682  0.1291  0.1507
  132MOL0     C17353  10.109   1.243   3.637  0.1240  0.3754  0.7348
  132MOL0     C17354  10.256   1.234   3.684 -0.4485  0.5604  0.5609
  132MOL0     C17355  10.333   1.355   3.648 -0.4512  0.6690 -0.3084
  132MOL0     C17356  10.395   1.452   3.625 -0.1531 -0.2043  0.1186
  132MOL0     C17357   9.593   1.170   3.585  0.6186  0.6624 -0.5439
  132MOL0     C17358   9.458   1.144   3.549  0.3573 -0.1941 -0.1118
  132MOL0     H17359   8.969   0.931   3.712 -1.3721 -0.6930 -0.4358
  132MOL0     H17360   8.725   0.906   3.659 -1.4256  0.7871  1.2268
  132MOL0     H17361   8.424   1.133   3.618  1.2381  0.2402  0.7853
  132MOL0     H17362   8.509   0.982   3.663  0.1731 -1.0808 -0.8552
  132MOL0     H17363   8.328   0.907   3.535 -0.1184  1.6572  1.1395
  132MOL0     H17364   8.473   0.913   3.420 -0.8823 -0.5251 -1.8282
  132MOL0     H17365   8.287   1.012   3.291  1.6898 -0.6463  0.0169
  132MOL0     H17366   8.395   1.134   3.353  2.6299 -4.2593 -2.7454
  132MOL0     H17367   8.129   1.049   3.499  0.4645 -0.8408  0.8350
  132MOL0     H17368   8.219   1.182   3.550 -0.9828  0.5702 -0.7571
  132MOL0     H17369   8.057   1.151   3.301  0.7452 -1.2728  0.6462
  132MOL0     H17370   8.176   1.277   3.303 -0.1692 -0.3058 -0.1010
  132MOL0     H17371   8.069   1.361   3.531  1.4061 -2.8461  1.2871
  132MOL0     H17372   7.964   1.223   3.507  0.5524 -0.0609 -1.4101
  132MOL0     H17373   7.872   1.311   3.294 -1.3459  0.1195  0.4317
  132MOL0     H17374   7.834   1.401   3.437 -2.1628 -1.3446 -1.1257
  132MOL0     H17375   8.023   1.446   3.197 -0.3749 -0.2276 -0.2796
  132MOL0     H17376   8.058   1.541   3.344 -1.5862  2.6521 -0.2539
  132MOL0     H17377   7.789   1.530   3.071 -0.8028 -2.2683  2.9274
  132MOL0     H17378   7.549   1.802   3.127 -0.7254 -0.6985 -0.0418
  132MOL0     H17379   7.613   1.729   2.982  3.5915  0.3501 -2.2374
  132MOL0     H17380   7.774   1.875   2.942 -2.0795 -2.2482 -0.0831
  132MOL0     H17381   7.758   1.968   3.095 -1.6348 -1.0423  2.4735
  132MOL0     H17382   7.501   1.999   3.010  0.5604  0.5151 -0.6833
  132MOL0     H17383   7.631   2.110   2.979  1.5398  0.0989 -1.8256
  132MOL0     H17384   7.511   1.894   2.797  0.8052  0.5765  1.4103
  132MOL0     H17385   7.655   1.969   2.756 -1.6554 -2.0925 -2.6636
  132MOL0     H17386   7.370   2.307   2.670 -1.4346 -0.5450 -3.3928
  132MOL0     H17387   7.136   2.351   2.688 -1.1449  0.4986  1.3974
  132MOL0     H17388   6.779   2.520   2.808 -0.1006 -0.5165 -0.3518
  132MOL0     H17389   6.531   2.576   2.815 -1.2812  0.0570 -0.6168
  132MOL0     H17390   6.241   2.298   2.666  1.5461  0.5327  2.7393
  132MOL0     H17391   6.297   2.413   2.529 -0.1954  1.6245  0.1945
  132MOL0     H17392   6.070   2.456   2.553  0.2103 -1.4955  0.4630
  132MOL0     H17393   6.160   2.593   2.615 -3.4950  0.3275  0.7486
  132MOL0     H17394   6.143   2.481   2.845  0.6210 -0.2680  0.1168
  132MOL0     H17395   6.024   2.366   2.776  0.2196  0.3401 -2.5172
  132MOL0     H17396   5.940   2.539   2.900  1.2632 -4.7454 -1.4477
  132MOL0     H17397   6.007   2.662   2.791  4.8614 -2.6360  2.5159
  132MOL0     H17398   5.837   2.446   2.671  1.1400 -0.8072 -0.5979
  132MOL0     H17399   5.824   2.615   2.629 -3.0202 -0.3299  0.3724
  132MOL0     H17400   5.717   2.661   2.857 -0.4231 -0.0871  0.8504
  132MOL0     H17401   5.697   2.481   2.870  0.2416 -2.0837 -1.8179
  132MOL0     H17402   5.583   2.656   2.648  1.4810 -2.4658 -1.4638
  132MOL0     H17403   5.561   2.478   2.672  0.4424 -0.5502  1.6806
  132MOL0     H17404   5.455   2.512   2.885  1.8164 -0.3162 -0.6731
  132MOL0     H17405   5.383   2.594   2.743 -0.2001  1.0688 -0.5992
  132MOL0     H17406   6.445   2.226   2.605  1.3969 -0.9740 -1.8931
  132MOL0     H17407   6.684   2.153   2.636 -1.2502 -1.2540  1.4184
  132MOL0     H17408   7.081   1.956   2.878 -1.4529  0.6548 -0.7805
  132MOL0     H17409   7.323   1.919   2.830  1.4293  0.4057  0.7949
  132MOL0     H17410   8.720   1.311   3.538  0.7847  0.7122  0.7330
  132MOL0     H17411   8.963   1.335   3.600 -0.9397  0.2668  1.0294
  132MOL0     H17412   9.323   1.124   3.855 -1.7129  0.4445 -1.9797
  132MOL0     H17413   9.556   1.128   3.914  2.4919  0.1909 -0.8304
  132MOL0     H17414   9.847   1.275   3.632 -2.8308 -0.5454 -0.6270
  132MOL0     H17415   9.864   1.098   3.585 -2.0589 -0.3661  0.4256
  132MOL0     H17416  10.020   1.180   3.821  1.6689  0.7765 -0.0624
  132MOL0     H17417  10.041   1.042   3.707 -2.4055 -0.4158 -2.4622
  132MOL0     H17418  10.079   1.344   3.664  0.4090  1.1295 -1.5033
  132MOL0     H17419  10.100   1.231   3.528 -2.8326  1.4054  0.7658
  132MOL0     H17420  10.263   1.217   3.792  2.1166 -1.8636  0.1331
  132MOL0     H17421  10.297   1.146   3.634 -1.1375  1.0372 -0.8975
  132MOL0     H17422  10.444   1.535   3.578 -1.9021  0.1934 -1.0991
  132MOL0     H17423   9.659   1.198   3.503  3.0783 -0.8854  0.7944
  132MOL0     H17424   9.428   1.145   3.445 -0.9417 -1.1618  0.2329
  133MOL0     O17425   6.796   9.300   5.535 -0.2064 -0.2604  0.3958
  133MOL0     C17426   6.727   9.381   5.471 -0.1479  0.1103 -0.0920
  133MOL0     O17427   6.623   9.458   5.522 -0.1746  0.6514 -0.1304
  133MOL0     C17428   6.573   9.444   5.647 -0.6415 -0.6676 -0.5405
  133MOL0     C17429   6.632   9.381   5.754 -0.1223  0.5353  1.1360
  133MOL0     C17430   6.572   9.370   5.873  0.3049  0.1338  0.3321
  133MOL0     C17431   6.462   9.441   5.906 -0.4650 -0.1974  0.0231
  133MOL0     O17432   6.408   9.429   6.035 -0.2488 -0.0790  0.1235
  133MOL0     C17433   6.266   9.422   6.063 -0.7573 -0.6112 -0.9762
  133MOL0     C17434   6.263   9.427   6.215 -0.4525  0.4276  0.1420
  133MOL0     C17435   6.141   9.372   6.277  0.1138  0.0314 -0.6145
  133MOL0     C17436   6.008   9.425   6.232  0.6215  0.2648  0.3266
  133MOL0     C17437   5.889   9.360   6.297 -0.4548 -0.0570  0.0506
  133MOL0     C17438   5.877   9.354   6.455 -0.3157 -0.0860  1.4489
  133MOL0     C17439   5.747   9.295   6.498  0.3443  0.4992 -0.5773
  133MOL0     C17440   5.621   9.370   6.456  0.7073  0.0497  0.3334
  133MOL0     N17441   5.636   9.513   6.505 -0.0078  1.3619 -0.5116
  133MOL0     C17442   5.605   9.556   6.631 -0.1472  0.1985 -0.1253
  133MOL0     C17443   5.653   9.685   6.627  0.2827 -0.3098  0.7112
  133MOL0     C17444   5.632   9.783   6.735  0.1042 -0.5879  0.2777
  133MOL0     C17445   5.522   9.890   6.706  0.4592 -1.2953 -0.3449
  133MOL0     C17446   5.493   9.968   6.825  0.5664 -0.5782 -0.6037
  133MOL0     C17447   5.408  10.099   6.798  0.0689  0.1613  0.3966
  133MOL0     O17448   5.281  10.041   6.743 -0.2498  0.1440 -0.4874
  133MOL0     C17449   5.175  10.117   6.718  0.3208 -0.4573  0.1801
  133MOL0     C17450   5.167  10.249   6.770 -0.1547  0.2608  0.5295
  133MOL0     C17451   5.055  10.326   6.742 -0.3593  0.4110  0.3097
  133MOL0     C17452   4.955  10.266   6.663  0.1411 -0.0610 -0.2194
  133MOL0     C17453   4.820  10.336   6.627 -1.0287  0.8777  0.1176
  133MOL0     O17454   4.797  10.450   6.695 -0.5555 -0.4814 -0.5678
  133MOL0     C17455   4.665  10.508   6.683 -0.9065 -0.4865  0.8366
  133MOL0     C17456   4.568  10.443   6.758 -0.1167  0.7748 -0.3485
  133MOL0     C17457   4.446  10.494   6.751  0.8780 -0.4685  0.3443
  133MOL0     C17458   4.408  10.602   6.670  1.3075 -0.2105 -0.0401
  133MOL0     O17459   4.278  10.645   6.661 -0.4175 -0.8555  0.0151
  133MOL0     C17460   4.240  10.736   6.550 -0.4219  0.3497 -1.0883
  133MOL0     C17461   4.084  10.702   6.540  0.1511 -0.7950  0.2436
  133MOL0     C17462   4.001  10.821   6.489  0.2495  0.5016 -0.0403
  133MOL0     C17463   3.854  10.769   6.465 -0.3512  1.0093 -0.4378
  133MOL0     C17464   3.761  10.884   6.453  0.1247 -0.5314 -0.5842
  133MOL0     C17465   3.621  10.844   6.457 -0.0655 -0.1751 -0.5069
  133MOL0     C17466   3.523  10.956   6.440  0.3183 -0.3461 -0.9579
  133MOL0     C17467   3.381  10.901   6.427  0.1210 -0.2627  0.3927
  133MOL0    Cl17468   3.371  10.820   6.261  0.5066 -0.0314 -0.2825
  133MOL0     C17469   4.510  10.675   6.607 -0.3028  1.1143 -0.0856
  133MOL0     C17470   4.639  10.625   6.611  0.6673 -0.0952 -0.0612
  133MOL0     O17471   4.752  10.294   6.537  0.7423 -0.1766  0.3720
  133MOL0     C17472   4.966  10.144   6.611 -0.2613  0.4744 -0.2217
  133MOL0     C17473   5.076  10.070   6.631 -0.4986 -0.1100  0.7059
  133MOL0     N17474   5.719   9.709   6.505  0.4265  0.0700 -0.6106
  133MOL0     N17475   5.702   9.603   6.434  0.5080 -0.5613  0.1018
  133MOL0     C17476   6.402   9.519   5.802 -0.3080 -0.3626 -0.9698
  133MOL0     C17477   6.461   9.520   5.673 -0.0059  0.9454  0.2612
  133MOL0     C17478   6.739   9.383   5.325  1.3441  0.0497 -0.2313
  133MOL0     C17479   6.657   9.472   5.249 -0.1965  0.0754 -0.3126
  133MOL0     C17480   6.663   9.478   5.115  0.3438  0.2227 -0.0035
  133MOL0     C17481   6.748   9.392   5.046 -0.5100  0.3998  0.6909
  133MOL0     O17482   6.740   9.389   4.907 -0.0613  0.2781 -0.0624
  133MOL0     C17483   6.849   9.346   4.824  0.4677 -0.0997 -0.1107
  133MOL0     C17484   6.974   9.435   4.831  1.7056 -0.0356  0.4160
  133MOL0     C17485   6.955   9.570   4.758  0.0664 -0.4746 -0.4564
  133MOL0     C17486   7.077   9.660   4.756 -0.2083 -0.2260 -0.5691
  133MOL0     C17487   7.039   9.794   4.700  0.0015  0.0812 -0.4989
  133MOL0     C17488   7.018   9.908   4.665 -0.2124  0.2024 -0.5028
  133MOL0     C17489   6.834   9.306   5.118 -0.2022  0.0625  0.3056
  133MOL0     C17490   6.826   9.294   5.256  0.6857 -0.0327 -0.3626
  133MOL0     H17491   6.719   9.318   5.739 -1.5505 -1.2178 -0.2906
  133MOL0     H17492   6.626   9.335   5.960  0.8628  2.5949  1.0660
  133MOL0     H17493   6.220   9.328   6.031  2.2294 -1.8973 -1.8425
  133MOL0     H17494   6.207   9.506   6.024 -0.0073  0.6471  0.4858
  133MOL0     H17495   6.274   9.534   6.239 -2.0431  1.7249 -3.9332
  133MOL0     H17496   6.347   9.366   6.249 -0.4595  0.1140 -0.3930
  133MOL0     H17497   6.156   9.392   6.383 -0.4902  1.3627 -0.7619
  133MOL0     H17498   6.131   9.263   6.270 -0.5678  0.0456  0.0191
  133MOL0     H17499   6.013   9.534   6.235  0.1974  0.2636  1.9461
  133MOL0     H17500   5.990   9.402   6.127 -2.5767 -1.0898  1.0386
  133MOL0     H17501   5.897   9.256   6.263  0.7451  0.3244 -0.9140
  133MOL0     H17502   5.797   9.401   6.255 -1.6772 -3.0384 -0.4307
  133MOL0     H17503   5.903   9.453   6.493  0.8204  0.5108 -0.7245
  133MOL0     H17504   5.961   9.293   6.490  0.4352 -1.6602 -2.5764
  133MOL0     H17505   5.742   9.195   6.452  0.8157  1.3658 -2.6376
  133MOL0     H17506   5.749   9.277   6.606 -0.6669 -0.1602 -0.6511
  133MOL0     H17507   5.524   9.323   6.479  0.4917 -0.2995 -1.1843
  133MOL0     H17508   5.614   9.368   6.347 -1.5073 -0.2800  0.4328
  133MOL0     H17509   5.560   9.493   6.707 -1.0128  0.1819 -0.6306
  133MOL0     H17510   5.724   9.838   6.753 -0.4119  0.5094 -0.3494
  133MOL0     H17511   5.593   9.724   6.819 -4.2279 -0.6232 -1.4632
  133MOL0     H17512   5.431   9.839   6.671 -1.1078  2.4738 -2.3465
  133MOL0     H17513   5.545   9.959   6.625  2.0312 -1.3980 -0.0228
  133MOL0     H17514   5.439   9.905   6.896  0.9527 -1.5498 -1.1413
  133MOL0     H17515   5.582   9.996   6.882  1.0301  0.2728 -1.7002
  133MOL0     H17516   5.467  10.172   6.740  0.1895  0.1415  0.4955
  133MOL0     H17517   5.395  10.143   6.897  1.0879  1.3755  0.0348
  133MOL0     H17518   5.238  10.301   6.833  0.8449 -1.7941  1.1766
  133MOL0     H17519   5.045  10.424   6.786  1.1107  0.2795  0.9769
  133MOL0     H17520   4.584  10.359   6.826 -0.8220  1.5555  0.8105
  133MOL0     H17521   4.372  10.440   6.809 -0.6955  1.6738  0.4337
  133MOL0     H17522   4.287  10.701   6.458  0.8567 -0.6584 -0.0886
  133MOL0     H17523   4.261  10.838   6.584 -3.3612  1.4356 -2.2253
  133MOL0     H17524   4.052  10.682   6.642  0.1326  0.4044  0.4902
  133MOL0     H17525   4.071  10.617   6.472 -2.0433 -0.0868 -0.3121
  133MOL0     H17526   4.033  10.864   6.394 -3.0527 -0.7085 -1.8519
  133MOL0     H17527   4.005  10.896   6.569 -1.7692  1.5642 -0.8690
  133MOL0     H17528   3.859  10.720   6.368 -5.0960 -2.1383  0.5739
  133MOL0     H17529   3.818  10.707   6.548 -2.6266  2.7973  0.0467
  133MOL0     H17530   3.793  10.933   6.361  0.6319 -0.7806 -0.5442
  133MOL0     H17531   3.776  10.948   6.541 -0.5951  0.2174 -0.9910
  133MOL0     H17532   3.590  10.798   6.551 -2.0756  1.5325 -0.2634
  133MOL0     H17533   3.600  10.777   6.373 -4.5742  2.6024 -1.9740
  133MOL0     H17534   3.524  11.020   6.528  2.1083  1.1384 -2.0016
  133MOL0     H17535   3.543  11.017   6.352  2.5226  1.4804  0.7078
  133MOL0     H17536   3.303  10.978   6.434 -0.5521 -0.9667  0.9160
  133MOL0     H17537   3.374  10.826   6.507 -1.8973 -2.5464 -1.7489
  133MOL0     H17538   4.502  10.769   6.552  1.5895  0.8475 -0.9233
  133MOL0     H17539   4.720  10.680   6.564 -0.1470 -0.5659 -2.1188
  133MOL0     H17540   4.888  10.087   6.560 -0.2190 -1.1421  1.3974
  133MOL0     H17541   5.086   9.968   6.594 -0.2110 -0.5791  2.0276
  133MOL0     H17542   6.314   9.580   5.819 -0.3543 -0.0005 -2.4307
  133MOL0     H17543   6.420   9.583   5.594  0.1067  1.1916  0.3980
  133MOL0     H17544   6.587   9.542   5.294 -0.5600  0.8473 -1.9747
  133MOL0     H17545   6.587   9.537   5.064 -0.8482  0.1257  1.5731
  133MOL0     H17546   6.818   9.351   4.719  0.8044 -1.7631 -0.3013
  133MOL0     H17547   6.887   9.246   4.844  1.4214  0.6548  2.2266
  133MOL0     H17548   6.983   9.456   4.938 -4.9668 -2.8172  2.0627
  133MOL0     H17549   7.063   9.385   4.792  1.8687 -0.2043  0.9903
  133MOL0     H17550   6.879   9.635   4.802  1.4044  0.4494  0.6007
  133MOL0     H17551   6.930   9.554   4.653 -0.6960  0.9982 -0.5176
  133MOL0     H17552   7.105   9.656   4.861  1.7997 -2.4330 -1.0830
  133MOL0     H17553   7.153   9.606   4.698 -1.2609 -2.1973 -0.2089
  133MOL0     H17554   6.996  10.011   4.644  0.4113 -0.2386 -3.8040
  133MOL0     H17555   6.901   9.232   5.075  0.5623  0.9305 -0.0315
  133MOL0     H17556   6.886   9.222   5.311  0.2079  0.7486  1.2112
  134MOL0     O17557   9.035   4.334   6.782 -0.9137  0.1399 -0.0096
  134MOL0     C17558   9.075   4.335   6.668 -0.4792 -0.7019  0.5556
  134MOL0     O17559   8.999   4.327   6.552 -0.0552  0.2367 -0.2550
  134MOL0     C17560   8.861   4.326   6.554  0.3626 -0.6284  1.2057
  134MOL0     C17561   8.787   4.435   6.503 -0.0146 -0.0102  0.0065
  134MOL0     C17562   8.650   4.427   6.488 -0.4927 -0.2390  0.8917
  134MOL0     C17563   8.576   4.317   6.538 -0.2269 -0.5837  0.3520
  134MOL0     O17564   8.443   4.309   6.527 -0.1238 -0.6598 -0.6622
  134MOL0     C17565   8.365   4.405   6.450 -0.4555 -0.4708  0.4714
  134MOL0     C17566   8.217   4.383   6.466  0.2895  0.1610 -0.0913
  134MOL0     C17567   8.167   4.261   6.393 -0.0977 -0.5103 -0.2873
  134MOL0     C17568   8.130   4.142   6.480 -0.0532  0.2230 -0.2665
  134MOL0     C17569   8.083   4.018   6.404  0.2334  0.2948 -0.1512
  134MOL0     C17570   8.047   3.912   6.512 -0.3422  0.2012  0.6347
  134MOL0     C17571   8.087   3.773   6.468 -0.0443 -0.3021  0.3326
  134MOL0     C17572   8.085   3.680   6.590  1.6340  0.3285  1.4117
  134MOL0     N17573   7.956   3.667   6.661  0.8244  0.8896 -0.5300
  134MOL0     C17574   7.927   3.704   6.791  0.3624  0.4809 -0.9699
  134MOL0     C17575   7.799   3.659   6.820 -0.4206  0.6772 -0.5110
  134MOL0     C17576   7.726   3.651   6.953  0.2195 -0.0200 -0.5432
  134MOL0     C17577   7.747   3.780   7.049  0.7405  0.0775  0.0876
  134MOL0     C17578   7.673   3.900   6.993  0.2736 -0.5266 -0.3953
  134MOL0     C17579   7.667   4.017   7.089  0.4461  0.5855  0.5579
  134MOL0     O17580   7.575   3.992   7.202  0.3714 -0.6413  0.0649
  134MOL0     C17581   7.440   4.015   7.189  0.6907  0.2142 -0.5491
  134MOL0     C17582   7.363   4.006   7.304  0.2361 -0.3319 -0.1356
  134MOL0     C17583   7.227   4.022   7.304  0.4724 -0.4321 -0.7422
  134MOL0     C17584   7.156   4.065   7.182 -0.5653  0.4814  0.0796
  134MOL0     C17585   7.026   4.122   7.191  0.8464  0.6954 -0.7308
  134MOL0     O17586   6.960   4.170   7.080 -0.5957  0.1416  0.3472
  134MOL0     C17587   6.832   4.193   7.097  0.5541  0.6886  0.1167
  134MOL0     C17588   6.793   4.307   7.158  0.0714 -0.1446  0.7712
  134MOL0     C17589   6.664   4.354   7.143  0.1721  0.1773  0.2075
  134MOL0     C17590   6.567   4.284   7.073 -0.1495 -0.3684 -0.5272
  134MOL0     O17591   6.431   4.330   7.086  0.3656  0.1004 -0.0618
  134MOL0     C17592   6.327   4.310   6.988  1.0255  0.0333 -0.2257
  134MOL0     C17593   6.245   4.440   6.982 -0.6259  0.5664 -0.1310
  134MOL0     C17594   6.121   4.413   6.890  0.1955 -0.7942 -0.5242
  134MOL0     C17595   6.035   4.539   6.892  0.4177  0.1311 -0.1533
  134MOL0     C17596   5.896   4.510   6.830  0.4071  0.5781  0.4591
  134MOL0     C17597   5.807   4.642   6.820  0.1051  0.1155  0.0177
  134MOL0     C17598   5.675   4.592   6.759 -0.9350 -0.1733  0.0847
  134MOL0     C17599   5.566   4.701   6.778  0.0511 -0.2423 -0.2084
  134MOL0    Cl17600   5.522   4.713   6.954 -0.0334  0.0320 -0.1802
  134MOL0     C17601   6.604   4.162   7.018 -0.4110 -0.9066 -1.2287
  134MOL0     C17602   6.740   4.118   7.027 -0.1445 -0.0756  0.4213
  134MOL0     O17603   6.986   4.139   7.307  0.0190 -0.0560  0.4584
  134MOL0     C17604   7.238   4.089   7.068 -0.5147  0.6330  0.2887
  134MOL0     C17605   7.371   4.043   7.070  0.2919  0.5978  0.0852
  134MOL0     N17606   7.749   3.613   6.700 -0.0110 -0.1721 -0.4398
  134MOL0     N17607   7.844   3.613   6.612 -0.1989  0.5248  0.2776
  134MOL0     C17608   8.646   4.220   6.605  0.0856 -0.4100 -0.0024
  134MOL0     C17609   8.787   4.222   6.610 -0.4668 -0.1770  0.1807
  134MOL0     C17610   9.227   4.333   6.646 -0.6934 -0.0757 -0.1963
  134MOL0     C17611   9.285   4.294   6.523 -0.1323  0.6009 -0.1789
  134MOL0     C17612   9.426   4.267   6.510  0.0636  0.8660 -0.0998
  134MOL0     C17613   9.509   4.273   6.626 -0.5646 -0.4467 -1.2237
  134MOL0     O17614   9.640   4.242   6.600 -1.2326  0.1899  1.2721
  134MOL0     C17615   9.733   4.236   6.712  0.4094 -0.4922  0.4553
  134MOL0     C17616   9.853   4.157   6.654 -0.0237  0.7619 -0.1796
  134MOL0     C17617   9.984   4.198   6.741 -0.0460  0.4090 -0.1494
  134MOL0     C17618  10.112   4.109   6.731  0.1845 -0.1540  0.0344
  134MOL0     C17619  10.092   3.973   6.773  0.4966  0.5900 -0.1947
  134MOL0     C17620  10.073   3.858   6.798 -0.1742  0.6696 -0.0940
  134MOL0     C17621   9.451   4.308   6.749 -1.0962 -0.0325 -0.3528
  134MOL0     C17622   9.315   4.341   6.756 -1.2783  0.4630 -0.4124
  134MOL0     H17623   8.839   4.527   6.475  0.1154 -0.3332 -0.8243
  134MOL0     H17624   8.597   4.510   6.442  1.9155  0.1696 -1.3936
  134MOL0     H17625   8.400   4.398   6.346  1.5575 -0.5303  1.1087
  134MOL0     H17626   8.387   4.507   6.482  2.0339  0.5566 -3.6438
  134MOL0     H17627   8.160   4.464   6.420 -0.7215 -0.1827  0.5198
  134MOL0     H17628   8.194   4.397   6.572  0.1997  0.3093 -0.1307
  134MOL0     H17629   8.246   4.229   6.325  0.4992  0.0186  0.1432
  134MOL0     H17630   8.077   4.286   6.337  0.2642  0.1672 -0.5842
  134MOL0     H17631   8.219   4.133   6.542 -0.9368 -0.2868  0.9429
  134MOL0     H17632   8.054   4.181   6.548 -1.1475 -2.1164 -0.0813
  134MOL0     H17633   8.162   3.981   6.337 -0.5551  0.0773 -0.9725
  134MOL0     H17634   8.003   4.047   6.337 -0.6757 -0.0766  0.7405
  134MOL0     H17635   7.941   3.923   6.537  0.0615  1.3628  1.9859
  134MOL0     H17636   8.103   3.937   6.603 -1.1780  0.6037  1.0555
  134MOL0     H17637   8.030   3.733   6.383  1.8464 -4.4490  0.7856
  134MOL0     H17638   8.186   3.778   6.421 -0.6682 -2.1723 -1.3559
  134MOL0     H17639   8.164   3.713   6.658  0.9713  0.5599  2.0885
  134MOL0     H17640   8.110   3.589   6.536 -2.6358 -0.2259  0.0196
  134MOL0     H17641   7.996   3.743   6.865  0.5542 -2.2098  0.3774
  134MOL0     H17642   7.761   3.566   7.013  1.3375  0.5141 -0.4144
  134MOL0     H17643   7.617   3.635   6.950  0.1213  0.5816 -0.3706
  134MOL0     H17644   7.854   3.802   7.048  1.0825 -1.3445  1.0414
  134MOL0     H17645   7.732   3.755   7.154  0.0052 -0.5284 -0.1453
  134MOL0     H17646   7.720   3.938   6.902  1.9801 -1.1173  0.1963
  134MOL0     H17647   7.570   3.880   6.962  0.6994 -1.8933 -1.0216
  134MOL0     H17648   7.638   4.104   7.029  0.2263 -0.0364 -0.2557
  134MOL0     H17649   7.768   4.042   7.122  1.9654 -0.5183 -2.8364
  134MOL0     H17650   7.424   3.982   7.391 -0.0841 -2.1485 -0.3613
  134MOL0     H17651   7.168   4.025   7.396 -3.1900  1.5931 -2.9182
  134MOL0     H17652   6.869   4.373   7.196  1.3721 -1.3246  0.3151
  134MOL0     H17653   6.628   4.448   7.186 -1.2373 -0.5270  0.6310
  134MOL0     H17654   6.253   4.233   7.013 -2.3037  2.0646 -2.8904
  134MOL0     H17655   6.369   4.290   6.890  3.1864  1.1176  0.4179
  134MOL0     H17656   6.300   4.530   6.953 -1.3502  0.2977 -2.5081
  134MOL0     H17657   6.210   4.449   7.086 -3.4467 -0.9591 -0.8518
  134MOL0     H17658   6.064   4.325   6.921  0.7963 -1.1341 -0.3481
  134MOL0     H17659   6.160   4.391   6.790  0.7004 -1.5617 -0.1649
  134MOL0     H17660   6.017   4.568   6.996 -0.9880  0.5504 -0.4920
  134MOL0     H17661   6.074   4.618   6.826  0.7634 -1.4697 -1.9444
  134MOL0     H17662   5.836   4.435   6.882  0.5651  1.8323  2.5704
  134MOL0     H17663   5.918   4.476   6.729  1.8710 -1.3204  1.3462
  134MOL0     H17664   5.837   4.717   6.747  0.5722  0.7458  0.8532
  134MOL0     H17665   5.797   4.685   6.920  0.1260 -1.4135  0.7126
  134MOL0     H17666   5.690   4.582   6.651  2.2465  1.2752  0.2832
  134MOL0     H17667   5.639   4.499   6.805 -1.0939  0.3462  1.0435
  134MOL0     H17668   5.478   4.669   6.721  0.6860 -1.1458 -0.7083
  134MOL0     H17669   5.603   4.797   6.742 -0.5538  0.2580  0.4540
  134MOL0     H17670   6.530   4.098   6.971  0.3261 -2.8918  0.1802
  134MOL0     H17671   6.768   4.026   6.978 -1.1207  0.1075 -0.5244
  134MOL0     H17672   7.194   4.137   6.981 -0.5923 -1.0826 -0.6741
  134MOL0     H17673   7.408   4.049   6.968  0.2341  1.3595  0.1030
  134MOL0     H17674   8.592   4.135   6.645 -3.1023  0.6159 -1.8247
  134MOL0     H17675   8.843   4.151   6.670  0.2012  0.8247  0.7727
  134MOL0     H17676   9.218   4.271   6.441 -1.1385 -0.0537  0.8057
  134MOL0     H17677   9.466   4.242   6.412  0.1754 -0.0837  0.1846
  134MOL0     H17678   9.705   4.189   6.806  2.0624 -3.2264 -0.3087
  134MOL0     H17679   9.772   4.336   6.736  0.4337 -0.2735 -0.4660
  134MOL0     H17680   9.835   4.052   6.675  1.6031  0.1721 -1.5127
  134MOL0     H17681   9.864   4.156   6.546 -1.4561  1.2895 -0.3479
  134MOL0     H17682   9.961   4.190   6.848  0.0810  2.1584  0.0473
  134MOL0     H17683  10.018   4.301   6.722  2.0072  0.0723  1.2936
  134MOL0     H17684  10.157   4.121   6.631  0.4760  2.2898  0.3817
  134MOL0     H17685  10.197   4.152   6.785  1.2817  0.6707 -2.1724
  134MOL0     H17686  10.037   3.762   6.831  0.7069  0.8038  1.3171
  134MOL0     H17687   9.509   4.301   6.840  2.4915 -2.3829 -2.5823
  134MOL0     H17688   9.279   4.352   6.857 -3.6661  0.6017 -1.2331
  135MOL0     O17689   0.626   4.346   9.923 -0.3397 -0.0641 -0.1386
  135MOL0     C17690   0.646   4.248   9.995 -0.0780  0.1770  1.0513
  135MOL0     O17691   0.559   4.184  10.082 -0.5487  0.6445  0.4253
  135MOL0     C17692   0.437   4.225  10.117  0.4417 -0.4089  0.1855
  135MOL0     C17693   0.368   4.351  10.090  0.3050  0.1642  0.5297
  135MOL0     C17694   0.240   4.369  10.124 -0.4196  0.5206 -0.0274
  135MOL0     C17695   0.174   4.262  10.196 -0.8165 -0.7317  1.1398
  135MOL0     O17696   0.037   4.276  10.219 -0.2078 -0.1620 -0.3281
  135MOL0     C17697  -0.037   4.406  10.225 -1.0961  0.2898  0.2005
  135MOL0     C17698  -0.171   4.369  10.291 -0.5714  0.4728 -0.3482
  135MOL0     C17699  -0.148   4.290  10.416  0.0803  0.5843  0.4441
  135MOL0     C17700  -0.286   4.267  10.475  0.0209  0.2861  0.1363
  135MOL0     C17701  -0.274   4.164  10.597 -0.5189 -0.3404 -0.1107
  135MOL0     C17702  -0.168   4.203  10.704  0.3615  0.1151  0.8696
  135MOL0     C17703  -0.179   4.120  10.817 -0.3497  1.1050 -0.2296
  135MOL0     C17704  -0.254   4.172  10.937  0.6770  0.2560 -0.2709
  135MOL0     N17705  -0.199   4.298  10.989 -0.0141  0.1248 -0.6204
  135MOL0     C17706  -0.073   4.311  11.046 -0.4433  0.4416  0.4799
  135MOL0     C17707  -0.073   4.419  11.125 -0.2593  0.1876 -0.2328
  135MOL0     C17708   0.027   4.489  11.215  0.1791 -0.4346  0.2000
  135MOL0     C17709   0.170   4.469  11.167  0.2892  0.6886 -0.1027
  135MOL0     C17710   0.269   4.533  11.266  0.3486  0.2983  0.2015
  135MOL0     C17711   0.413   4.513  11.204  0.5538 -0.9342 -0.5535
  135MOL0     O17712   0.512   4.550  11.303  0.0010  0.2122 -0.4509
  135MOL0     C17713   0.632   4.602  11.269  0.3004 -0.0567 -0.3679
  135MOL0     C17714   0.711   4.676  11.360  0.3586 -0.4724 -0.3838
  135MOL0     C17715   0.833   4.721  11.323  0.3907 -0.2099  0.1100
  135MOL0     C17716   0.893   4.691  11.202 -1.1157  0.8455  1.0217
  135MOL0     C17717   1.025   4.742  11.158 -0.3335  0.1221  0.4594
  135MOL0     O17718   1.073   4.700  11.044  0.3288 -0.6260 -0.2630
  135MOL0     C17719   1.183   4.764  10.985  0.1318  0.1343  0.0330
  135MOL0     C17720   1.313   4.787  11.039  0.3667 -0.2955 -0.3586
  135MOL0     C17721   1.411   4.853  10.966  0.6668 -0.1903  0.0913
  135MOL0     C17722   1.379   4.888  10.834 -0.5179  0.1088 -0.5645
  135MOL0     O17723   1.472   4.948  10.756 -0.4426  0.4670  0.7146
  135MOL0     C17724   1.563   5.034  10.813  0.4193 -0.5671 -0.1245
  135MOL0     C17725   1.619   5.127  10.707 -0.4092 -0.0998 -0.1642
  135MOL0     C17726   1.714   5.063  10.616 -0.6738 -0.0217 -0.2013
  135MOL0     C17727   1.776   5.155  10.513 -0.0184  0.2205  0.1717
  135MOL0     C17728   1.824   5.063  10.393 -0.0207 -0.3624 -0.5957
  135MOL0     C17729   1.910   4.937  10.422  0.6195  0.1758  0.6293
  135MOL0     C17730   1.987   4.908  10.282 -0.5428 -0.6809 -0.0566
  135MOL0     C17731   2.049   4.769  10.298 -0.1704 -0.0341 -0.0738
  135MOL0    Cl17732   2.130   4.725  10.152 -0.1812  0.2942 -0.0231
  135MOL0     C17733   1.260   4.856  10.776  0.5287  0.9602 -0.1461
  135MOL0     C17734   1.167   4.798  10.853  1.0088  0.0041  0.5540
  135MOL0     O17735   1.079   4.833  11.221  0.1670  0.4252  0.6296
  135MOL0     C17736   0.814   4.616  11.102 -0.3913 -0.1518 -1.0123
  135MOL0     C17737   0.691   4.569  11.139  0.1493 -0.4349  0.7673
  135MOL0     N17738  -0.199   4.484  11.099  0.9797  0.1249 -0.3228
  135MOL0     N17739  -0.270   4.411  11.024  0.2859  0.7839  0.6044
  135MOL0     C17740   0.234   4.142  10.220 -0.4503  0.5206 -0.2010
  135MOL0     C17741   0.362   4.126  10.179 -0.0971  0.4814 -0.5135
  135MOL0     C17742   0.776   4.180   9.970 -0.5420  0.0947 -0.5792
  135MOL0     C17743   0.886   4.246   9.903 -0.2094 -0.3694 -0.1088
  135MOL0     C17744   1.009   4.181   9.878  0.1775 -0.2769 -0.3003
  135MOL0     C17745   1.033   4.051   9.924  0.5888 -0.2529 -0.4256
  135MOL0     O17746   1.145   3.971   9.902 -0.1177  0.0892 -0.2119
  135MOL0     C17747   1.263   4.045   9.859 -0.9508  0.2303 -0.0437
  135MOL0     C17748   1.377   3.950   9.831 -0.1010 -0.8713 -0.2492
  135MOL0     C17749   1.505   4.016   9.773  0.8304 -0.1385  1.0499
  135MOL0     C17750   1.585   3.917   9.679  0.0654  0.5482 -0.3880
  135MOL0     C17751   1.675   4.002   9.598 -0.8508 -0.1916 -0.3323
  135MOL0     C17752   1.759   4.073   9.561 -0.6143 -0.1438 -0.2367
  135MOL0     C17753   0.929   3.988   9.995 -0.0061  0.0069 -0.2505
  135MOL0     C17754   0.801   4.050  10.013  0.1209 -0.6242 -0.1662
  135MOL0     H17755   0.422   4.431  10.042 -0.8323  2.1044  2.3166
  135MOL0     H17756   0.210   4.464  10.081  0.0463  0.8856  0.4380
  135MOL0     H17757  -0.037   4.465  10.132 -0.0706  2.0361  1.2493
  135MOL0     H17758   0.016   4.475  10.292  0.7220 -0.5390 -0.2964
  135MOL0     H17759  -0.232   4.305  10.227 -1.6372 -1.6954  2.6224
  135MOL0     H17760  -0.227   4.458  10.323  2.8137  2.6060  0.1049
  135MOL0     H17761  -0.088   4.352  10.483 -0.0506  0.8737  0.2917
  135MOL0     H17762  -0.102   4.193  10.394 -0.0982  0.5814  0.0815
  135MOL0     H17763  -0.310   4.371  10.501  0.0594  0.4341 -0.3979
  135MOL0     H17764  -0.357   4.226  10.402 -0.2872  0.3290  0.4052
  135MOL0     H17765  -0.249   4.069  10.548  2.7810  0.7331 -0.7712
  135MOL0     H17766  -0.369   4.157  10.651 -0.0067 -0.4991  0.7825
  135MOL0     H17767  -0.182   4.309  10.727  0.5650  0.8084 -1.8112
  135MOL0     H17768  -0.069   4.199  10.658 -0.4153  4.4837 -1.7353
  135MOL0     H17769  -0.220   4.023  10.784 -1.4534  0.2995  3.0497
  135MOL0     H17770  -0.075   4.105  10.848  0.4722  1.5564 -2.6084
  135MOL0     H17771  -0.256   4.100  11.019  0.9871  0.8245  0.2379
  135MOL0     H17772  -0.353   4.204  10.902  0.8363  0.4514 -0.5407
  135MOL0     H17773   0.017   4.253  11.028 -0.2768  1.2740 -1.8279
  135MOL0     H17774   0.011   4.442  11.313 -4.8830  2.2973  1.0244
  135MOL0     H17775  -0.001   4.594  11.226  2.8806  0.1948  2.0732
  135MOL0     H17776   0.197   4.497  11.064  0.2928 -0.9780 -0.5813
  135MOL0     H17777   0.198   4.364  11.171  1.3817  0.9820  0.2406
  135MOL0     H17778   0.258   4.639  11.290 -1.0459  0.3020 -0.3409
  135MOL0     H17779   0.262   4.477  11.360 -0.0067  2.1559  1.3326
  135MOL0     H17780   0.423   4.586  11.123 -0.3672  3.6655  3.0476
  135MOL0     H17781   0.427   4.415  11.157  1.1400 -0.1156 -2.1770
  135MOL0     H17782   0.683   4.717  11.457 -0.3147  1.0956 -1.1956
  135MOL0     H17783   0.894   4.778  11.393  0.4984 -2.0791  1.6194
  135MOL0     H17784   1.319   4.758  11.144 -0.2715 -0.7135 -0.4348
  135MOL0     H17785   1.504   4.886  11.011  0.9411 -0.5410 -0.2104
  135MOL0     H17786   1.635   4.970  10.865 -2.1923 -2.4367  1.4122
  135MOL0     H17787   1.511   5.090  10.891  0.0473  1.5601 -1.8118
  135MOL0     H17788   1.673   5.209  10.756  1.6218 -0.7516 -1.2200
  135MOL0     H17789   1.540   5.180  10.651 -0.4307 -0.5847 -0.6041
  135MOL0     H17790   1.652   4.992  10.560 -4.6411  0.4102  3.1625
  135MOL0     H17791   1.792   5.013  10.675  0.4129  1.8724  0.0312
  135MOL0     H17792   1.700   5.223  10.473  1.8706  2.7198  0.5368
  135MOL0     H17793   1.858   5.211  10.560 -0.6231 -0.5950  2.3123
  135MOL0     H17794   1.875   5.125  10.318 -2.6915  0.0313 -2.2031
  135MOL0     H17795   1.737   5.023  10.341  0.1836 -2.0812  0.3144
  135MOL0     H17796   1.851   4.848  10.447 -0.5868  0.5238 -0.8589
  135MOL0     H17797   1.971   4.959  10.510  1.6260 -3.2072  0.9149
  135MOL0     H17798   1.908   4.901  10.207  0.2036  0.0917 -0.9446
  135MOL0     H17799   2.063   4.985  10.269 -0.3330 -0.3150  2.7380
  135MOL0     H17800   1.968   4.698  10.320  0.9530 -1.3663 -0.1394
  135MOL0     H17801   2.120   4.760  10.381  0.1168 -0.9778 -0.4114
  135MOL0     H17802   1.229   4.876  10.674 -2.4564  0.0937  0.5075
  135MOL0     H17803   1.069   4.787  10.808  2.1343 -0.6932 -1.9630
  135MOL0     H17804   0.860   4.598  11.005  0.3476  4.9847 -1.9329
  135MOL0     H17805   0.642   4.507  11.065 -0.0262  1.0186 -0.3550
  135MOL0     H17806   0.179   4.056  10.256 -0.2100  0.6316  0.4469
  135MOL0     H17807   0.411   4.030  10.189  1.5276  1.2241 -0.9411
  135MOL0     H17808   0.881   4.354   9.890 -1.2368 -0.3506  0.3200
  135MOL0     H17809   1.082   4.242   9.826 -1.6207 -0.0381 -2.6988
  135MOL0     H17810   1.293   4.113   9.940 -1.3031  0.4930 -0.1308
  135MOL0     H17811   1.246   4.090   9.761 -1.4372 -2.1384 -1.1047
  135MOL0     H17812   1.409   3.917   9.931  0.9694 -0.1810 -0.3572
  135MOL0     H17813   1.344   3.869   9.765  1.9830 -1.3676 -0.7243
  135MOL0     H17814   1.565   4.041   9.861  0.0286  0.6747  1.3887
  135MOL0     H17815   1.471   4.110   9.728 -0.2925  1.2599  4.4849
  135MOL0     H17816   1.641   3.846   9.741 -0.5048 -0.1724 -0.6744
  135MOL0     H17817   1.511   3.861   9.619 -2.0367  2.6243  0.1022
  135MOL0     H17818   1.838   4.139   9.534 -1.8478  1.7373  0.5616
  135MOL0     H17819   0.944   3.885  10.028 -0.5726 -0.1428 -0.4455
  135MOL0     H17820   0.736   3.986  10.073 -1.0977  3.2431  3.0309
  136MOL0     O17821   3.785   9.380   2.841  0.3982 -0.3725  0.0249
  136MOL0     C17822   3.796   9.304   2.741  0.0544  0.0434 -0.0833
  136MOL0     O17823   3.694   9.275   2.657  0.4321 -0.0330 -0.1103
  136MOL0     C17824   3.580   9.354   2.642  0.3813 -0.3213  1.3603
  136MOL0     C17825   3.455   9.288   2.618 -0.2516 -0.2220 -1.3998
  136MOL0     C17826   3.330   9.355   2.608  0.1661 -0.2180 -0.1726
  136MOL0     C17827   3.335   9.496   2.626  0.5497 -0.8015 -0.0504
  136MOL0     O17828   3.222   9.568   2.617  0.5165  0.0660  0.5048
  136MOL0     C17829   3.133   9.540   2.509 -0.7073 -0.2850 -0.6631
  136MOL0     C17830   3.021   9.638   2.498 -1.0787 -0.0848  0.2705
  136MOL0     C17831   2.958   9.629   2.355  0.2264  0.4933  0.4961
  136MOL0     C17832   2.819   9.707   2.347  0.1733 -0.2925 -0.3413
  136MOL0     C17833   2.844   9.860   2.323 -0.0203  0.6723  0.5423
  136MOL0     C17834   2.720   9.948   2.324  1.1671  0.4246 -0.3304
  136MOL0     C17835   2.753  10.088   2.301 -0.0930 -0.3385  0.0317
  136MOL0     C17836   2.630  10.175   2.306  0.0167 -0.5916  0.5528
  136MOL0     N17837   2.657  10.322   2.342 -0.9950 -0.0574 -0.2353
  136MOL0     C17838   2.635  10.435   2.271  0.2027  0.6381  0.0258
  136MOL0     C17839   2.664  10.534   2.363  0.2556  0.1829  0.3864
  136MOL0     C17840   2.655  10.683   2.346 -0.2856 -0.6790  0.1081
  136MOL0     C17841   2.531  10.716   2.268  0.6277  0.5489 -0.4162
  136MOL0     C17842   2.496  10.866   2.249 -0.2406 -0.4055 -0.0231
  136MOL0     C17843   2.371  10.884   2.154 -0.3665 -0.1794 -0.0845
  136MOL0     O17844   2.272  10.780   2.151 -0.2525 -0.3805 -0.5411
  136MOL0     C17845   2.180  10.762   2.256  0.6173  0.0632 -0.1610
  136MOL0     C17846   2.109  10.634   2.264  0.6200  0.5379  0.6888
  136MOL0     C17847   2.024  10.601   2.368 -0.6682  0.4469 -0.0129
  136MOL0     C17848   1.998  10.692   2.464 -0.7149 -0.1821 -0.3121
  136MOL0     C17849   1.909  10.651   2.572 -0.5499 -0.2953  0.0154
  136MOL0     O17850   1.908  10.521   2.619  0.5162  0.1036  0.3064
  136MOL0     C17851   1.797  10.464   2.670  0.3371 -0.6501 -1.0845
  136MOL0     C17852   1.665  10.518   2.676 -0.1005 -0.4260  0.3256
  136MOL0     C17853   1.559  10.456   2.738 -0.7924 -0.1703 -1.3785
  136MOL0     C17854   1.578  10.325   2.788  0.6838  0.4695 -0.2514
  136MOL0     O17855   1.471  10.258   2.832  0.0852 -0.1398 -0.3089
  136MOL0     C17856   1.395  10.204   2.720  0.2792 -0.4897 -0.1775
  136MOL0     C17857   1.266  10.149   2.785  0.2340 -0.1275 -0.0674
  136MOL0     C17858   1.189  10.268   2.855  0.6993  0.1258  0.1866
  136MOL0     C17859   1.046  10.213   2.890  0.1836 -0.5670  0.3346
  136MOL0     C17860   0.949  10.317   2.946  0.2920 -0.0490  1.1996
  136MOL0     C17861   0.812  10.252   2.983  0.1138  0.6522  0.0626
  136MOL0     C17862   0.738  10.320   3.102 -0.0620 -0.3119 -0.0543
  136MOL0     C17863   0.615  10.230   3.130  0.3403 -0.0325  0.1034
  136MOL0    Cl17864   0.504  10.251   2.991  0.0177 -0.2866 -0.3807
  136MOL0     C17865   1.702  10.263   2.773 -0.2329  0.2483  0.3377
  136MOL0     C17866   1.808  10.328   2.715 -0.3559 -0.0066  0.4408
  136MOL0     O17867   1.834  10.739   2.608  1.0811 -0.0767  0.2217
  136MOL0     C17868   2.070  10.813   2.469  0.1867 -0.5701  0.3083
  136MOL0     C17869   2.155  10.852   2.363 -0.5431 -0.2819  0.0760
  136MOL0     N17870   2.694  10.479   2.484  0.1260 -0.7047  0.2103
  136MOL0     N17871   2.699  10.351   2.467 -0.2435  0.1252 -0.4801
  136MOL0     C17872   3.456   9.563   2.643  0.2885 -0.2192  0.3098
  136MOL0     C17873   3.575   9.498   2.649 -0.2023  0.1934 -0.3343
  136MOL0     C17874   3.923   9.218   2.741  0.0241 -0.4204  0.2036
  136MOL0     C17875   4.008   9.216   2.850 -1.0710  0.2585  0.1432
  136MOL0     C17876   4.123   9.129   2.851  0.2234 -0.3180  0.7605
  136MOL0     C17877   4.159   9.057   2.737 -0.0552 -0.8620 -1.1206
  136MOL0     O17878   4.273   8.986   2.714 -0.1822 -0.0174  0.0529
  136MOL0     C17879   4.373   8.982   2.814 -0.5852 -0.4111 -0.4356
  136MOL0     C17880   4.491   9.073   2.777  0.8227 -0.5340 -0.0905
  136MOL0     C17881   4.616   9.025   2.847 -0.9728  0.2400 -0.3278
  136MOL0     C17882   4.714   9.143   2.876 -0.0492 -0.0498  0.0537
  136MOL0     C17883   4.837   9.076   2.933 -0.2303  0.1237  0.1672
  136MOL0     C17884   4.929   9.001   2.965  0.4103 -0.1186 -0.3250
  136MOL0     C17885   4.070   9.067   2.629  1.0577  0.6089  0.3917
  136MOL0     C17886   3.951   9.147   2.626 -0.3214 -0.0789  0.3676
  136MOL0     H17887   3.460   9.179   2.612 -0.2625 -0.2314 -1.2221
  136MOL0     H17888   3.242   9.295   2.587  0.0260  0.0619 -0.3917
  136MOL0     H17889   3.092   9.439   2.508 -0.0367 -0.5631 -0.3245
  136MOL0     H17890   3.200   9.542   2.422 -0.5904 -1.6058 -0.6186
  136MOL0     H17891   3.062   9.738   2.511  1.0813 -0.7173 -1.1732
  136MOL0     H17892   2.939   9.621   2.569  0.7069 -0.2035  2.3872
  136MOL0     H17893   2.940   9.524   2.332 -1.0407  0.5386  1.1470
  136MOL0     H17894   3.026   9.671   2.280 -0.5846  0.4642 -0.2737
  136MOL0     H17895   2.767   9.670   2.259 -4.8241  2.1122  1.2324
  136MOL0     H17896   2.752   9.674   2.426  1.7392 -2.1581  0.2936
  136MOL0     H17897   2.883   9.868   2.222 -2.1721 -2.2021 -0.6648
  136MOL0     H17898   2.920   9.905   2.387  0.2016 -0.4688  1.1002
  136MOL0     H17899   2.668   9.942   2.420 -0.4296 -1.7602 -1.2575
  136MOL0     H17900   2.654   9.916   2.243  0.9201 -0.6552  0.2882
  136MOL0     H17901   2.822  10.124   2.379 -2.5941 -0.1344  2.2797
  136MOL0     H17902   2.799  10.099   2.202  2.1556  0.1436  1.0495
  136MOL0     H17903   2.565  10.139   2.386 -0.1975  1.0598  1.1744
  136MOL0     H17904   2.579  10.169   2.210 -1.7658  1.2632  1.3041
  136MOL0     H17905   2.617  10.459   2.167  0.9682  1.6938  0.1136
  136MOL0     H17906   2.744  10.731   2.305 -0.7293  0.5870  0.5769
  136MOL0     H17907   2.642  10.731   2.443 -1.5266  0.8439 -0.7617
  136MOL0     H17908   2.446  10.672   2.322  0.2996 -0.2885 -1.5747
  136MOL0     H17909   2.534  10.665   2.171 -0.0488 -1.4598  0.5636
  136MOL0     H17910   2.486  10.908   2.350  0.5996 -0.7410  0.2069
  136MOL0     H17911   2.578  10.916   2.196 -1.5421 -0.1865 -1.9409
  136MOL0     H17912   2.407  10.881   2.050  0.4718 -1.8781  0.2191
  136MOL0     H17913   2.329  10.982   2.179  0.1570  0.5994 -1.9812
  136MOL0     H17914   2.127  10.569   2.179  0.4875 -0.4648  1.4202
  136MOL0     H17915   1.976  10.504   2.377  1.0756 -0.3115  2.0313
  136MOL0     H17916   1.649  10.614   2.628 -1.3159  0.3143  2.0852
  136MOL0     H17917   1.462  10.505   2.742 -0.2065  0.9656  0.1106
  136MOL0     H17918   1.439  10.114   2.678  3.2322  0.6574  0.2259
  136MOL0     H17919   1.379  10.268   2.633  2.3456 -3.4758 -2.9559
  136MOL0     H17920   1.285  10.062   2.849 -1.0707 -1.4117 -1.3693
  136MOL0     H17921   1.207  10.106   2.704  2.1506 -0.7075 -1.2327
  136MOL0     H17922   1.180  10.354   2.789  0.5164 -0.6771 -0.8665
  136MOL0     H17923   1.238  10.306   2.945  0.8335 -0.7368  0.4882
  136MOL0     H17924   0.992  10.165   2.807 -3.5528  2.3267  0.8140
  136MOL0     H17925   1.053  10.141   2.972  0.0493 -2.2763 -1.0705
  136MOL0     H17926   0.939  10.404   2.881  0.5543 -0.3756  0.7148
  136MOL0     H17927   0.987  10.350   3.043  3.7493 -1.0797  0.3328
  136MOL0     H17928   0.853  10.162   3.030  1.4714  1.5474  0.6783
  136MOL0     H17929   0.761  10.236   2.888  0.6975 -0.2822 -0.1129
  136MOL0     H17930   0.796  10.303   3.193  0.8875  0.2480 -0.5416
  136MOL0     H17931   0.704  10.421   3.079 -1.6894 -0.5472  1.1122
  136MOL0     H17932   0.555  10.265   3.215 -1.5469  0.6318 -1.4222
  136MOL0     H17933   0.654  10.128   3.133  1.9536  0.4839 -1.6384
  136MOL0     H17934   1.712  10.168   2.824 -5.0558 -1.2216 -0.9471
  136MOL0     H17935   1.905  10.280   2.706 -0.8894 -0.9494 -0.5159
  136MOL0     H17936   2.060  10.875   2.557 -3.9253 -1.9070  0.9828
  136MOL0     H17937   2.195  10.952   2.362  2.0822 -1.2163 -2.4957
  136MOL0     H17938   3.448   9.671   2.649  0.8059 -0.1000 -0.8757
  136MOL0     H17939   3.667   9.553   2.664  0.0682 -0.2053 -0.5051
  136MOL0     H17940   3.987   9.263   2.945 -0.3686 -0.1542  0.5144
  136MOL0     H17941   4.193   9.146   2.933 -0.8790  3.0801  1.1477
  136MOL0     H17942   4.400   8.876   2.816 -2.9553 -1.0654  1.0778
  136MOL0     H17943   4.332   9.005   2.912 -0.4366 -0.3988 -0.3769
  136MOL0     H17944   4.505   9.071   2.668 -2.1450 -1.0474 -0.5684
  136MOL0     H17945   4.473   9.178   2.802 -1.2132 -0.4909 -1.4438
  136MOL0     H17946   4.659   8.942   2.789  0.9506  0.5573  0.5715
  136MOL0     H17947   4.590   8.980   2.943  0.4859  3.5972  1.8359
  136MOL0     H17948   4.735   9.194   2.782  0.0700  0.0141  0.1139
  136MOL0     H17949   4.667   9.221   2.937 -1.8253 -1.8095  1.0323
  136MOL0     H17950   5.007   8.930   2.987  0.6902 -0.1525 -1.3754
  136MOL0     H17951   4.094   9.009   2.541 -2.7737 -1.5103  0.5127
  136MOL0     H17952   3.886   9.151   2.540 -2.0338 -3.5525  1.3045
  137MOL0     O17953   4.905   6.244   5.011  0.8938 -0.1049 -0.1124
  137MOL0     C17954   4.931   6.351   4.962 -0.7375 -0.3716 -0.4490
  137MOL0     O17955   4.870   6.396   4.846 -0.9080  0.1542 -0.8003
  137MOL0     C17956   4.729   6.388   4.825 -0.7774  0.3052 -0.8926
  137MOL0     C17957   4.640   6.332   4.914 -0.6421  0.3962  1.0723
  137MOL0     C17958   4.499   6.320   4.874 -0.7955  0.0500 -0.0252
  137MOL0     C17959   4.454   6.387   4.758 -0.8920  0.0628 -0.8640
  137MOL0     O17960   4.321   6.389   4.728 -0.3845 -0.0646 -0.1097
  137MOL0     C17961   4.214   6.329   4.806 -0.6276  0.1398  0.0683
  137MOL0     C17962   4.164   6.199   4.742  0.3469 -0.6520 -0.3520
  137MOL0     C17963   4.028   6.153   4.799  0.5952  0.3379 -0.1677
  137MOL0     C17964   4.036   6.136   4.954  0.6320 -0.0072  0.0975
  137MOL0     C17965   3.907   6.078   5.008 -0.0437  0.2348  0.0803
  137MOL0     C17966   3.795   6.173   4.992  0.3355 -0.2503  0.1216
  137MOL0     C17967   3.666   6.104   5.034 -0.4168 -0.3912  0.6557
  137MOL0     C17968   3.537   6.182   5.023 -0.0912  0.1722  1.1197
  137MOL0     N17969   3.508   6.225   4.886  0.7066  0.1775  0.3891
  137MOL0     C17970   3.532   6.340   4.812 -0.2167  0.5220  0.5998
  137MOL0     C17971   3.478   6.321   4.693  0.8530 -0.5209  0.3919
  137MOL0     C17972   3.481   6.426   4.584 -0.2259 -0.5432 -0.4767
  137MOL0     C17973   3.349   6.517   4.592  0.1791  0.0336 -0.0816
  137MOL0     C17974   3.221   6.444   4.583 -0.6042 -0.0592  0.0398
  137MOL0     C17975   3.103   6.534   4.541 -0.3234 -0.3689  0.5130
  137MOL0     O17976   2.998   6.445   4.503 -0.9061  0.0971 -0.4456
  137MOL0     C17977   2.872   6.498   4.518 -0.5677 -0.1380  0.2761
  137MOL0     C17978   2.826   6.626   4.525 -0.4004  0.3389  0.4167
  137MOL0     C17979   2.693   6.662   4.532  0.7287  0.8573  0.1907
  137MOL0     C17980   2.592   6.567   4.544  0.3757  0.6150 -0.2770
  137MOL0     C17981   2.453   6.599   4.554 -0.1459  0.5194  0.0264
  137MOL0     O17982   2.359   6.514   4.502 -0.2407 -0.0333 -0.4470
  137MOL0     C17983   2.221   6.531   4.516  0.2531  0.0267 -0.5395
  137MOL0     C17984   2.147   6.628   4.596 -0.2853 -0.3337 -0.1797
  137MOL0     C17985   2.004   6.640   4.588 -0.4035 -0.1111  0.1222
  137MOL0     C17986   1.929   6.565   4.504  0.2305 -0.1589  0.2897
  137MOL0     O17987   1.795   6.566   4.505 -0.3108  0.0389 -0.3191
  137MOL0     C17988   1.751   6.700   4.489  0.0778  0.4409  0.7378
  137MOL0     C17989   1.617   6.685   4.433  0.5757  0.4102 -0.7426
  137MOL0     C17990   1.518   6.641   4.541 -0.0137  0.2310  0.4366
  137MOL0     C17991   1.377   6.612   4.487 -0.3058 -0.6928  0.7121
  137MOL0     C17992   1.290   6.556   4.604  0.8098 -0.5257 -0.4696
  137MOL0     C17993   1.140   6.555   4.566 -0.0716 -0.6763  0.3169
  137MOL0     C17994   1.056   6.488   4.666  0.5893  0.5809 -0.2300
  137MOL0     C17995   0.907   6.466   4.621 -0.0249 -0.2299 -0.0681
  137MOL0    Cl17996   0.826   6.619   4.654  0.0203  0.5671  0.4661
  137MOL0     C17997   2.002   6.468   4.422  0.3551 -0.5167 -1.2282
  137MOL0     C17998   2.145   6.457   4.426  0.3053  0.2136 -0.4215
  137MOL0     O17999   2.436   6.708   4.594  0.5219 -0.1686 -0.1271
  137MOL0     C18000   2.632   6.430   4.556  0.6288 -0.3242  0.9387
  137MOL0     C18001   2.773   6.403   4.542  1.0487  0.9693  1.3490
  137MOL0     N18002   3.405   6.205   4.691  0.8390 -0.1367 -0.1476
  137MOL0     N18003   3.427   6.139   4.802 -0.3577 -0.3026  0.2097
  137MOL0     C18004   4.548   6.442   4.679 -0.3926 -0.3723 -0.1420
  137MOL0     C18005   4.686   6.442   4.706 -0.1934 -0.4163  0.3385
  137MOL0     C18006   5.062   6.397   5.002 -0.5068  0.3578  0.3205
  137MOL0     C18007   5.117   6.373   5.131  1.3325 -0.5714 -0.8012
  137MOL0     C18008   5.250   6.406   5.165  0.6790 -0.3148  0.5718
  137MOL0     C18009   5.323   6.487   5.078  0.4135  0.5352  0.5831
  137MOL0     O18010   5.442   6.526   5.129 -0.1015  0.6904 -0.5938
  137MOL0     C18011   5.511   6.615   5.041 -0.4525 -0.1650 -0.4965
  137MOL0     C18012   5.635   6.665   5.122 -0.0007  0.5288 -0.0723
  137MOL0     C18013   5.592   6.787   5.205 -0.5022  0.0457  0.3458
  137MOL0     C18014   5.711   6.836   5.289 -0.9728  0.3025 -0.3723
  137MOL0     C18015   5.707   6.753   5.412 -0.3946 -0.2059  0.0282
  137MOL0     C18016   5.708   6.678   5.512 -0.2173  0.5644 -0.8549
  137MOL0     C18017   5.268   6.525   4.954 -0.1584  0.2675 -0.2530
  137MOL0     C18018   5.142   6.476   4.916  0.0773 -0.8433 -0.5553
  137MOL0     H18019   4.664   6.276   5.004 -1.7603  1.0219  1.7796
  137MOL0     H18020   4.445   6.259   4.945  0.3161 -0.9888 -0.0418
  137MOL0     H18021   4.130   6.400   4.807  0.4432  1.5338 -1.8962
  137MOL0     H18022   4.238   6.317   4.912  0.2578  0.8298 -0.0398
  137MOL0     H18023   4.238   6.120   4.762 -0.1958 -0.5055  2.6353
  137MOL0     H18024   4.154   6.222   4.636 -3.4349 -1.0297 -0.2109
  137MOL0     H18025   3.990   6.065   4.746 -1.8758  2.1294 -1.6280
  137MOL0     H18026   3.950   6.226   4.774  0.8358  0.5806 -0.2139
  137MOL0     H18027   4.112   6.063   4.982 -1.2661 -2.0462  0.1793
  137MOL0     H18028   4.076   6.220   5.012  1.1703  0.1853 -0.5377
  137MOL0     H18029   3.911   6.050   5.114  0.1229  0.3667  0.1113
  137MOL0     H18030   3.884   5.989   4.950 -0.7365  1.4838 -1.6405
  137MOL0     H18031   3.777   6.222   4.896 -0.7875  1.9740  1.3838
  137MOL0     H18032   3.804   6.258   5.060 -0.7304  0.2684 -0.3606
  137MOL0     H18033   3.664   6.012   4.974 -0.7612 -0.2438  0.4414
  137MOL0     H18034   3.671   6.078   5.140 -1.8622  0.8912  1.0756
  137MOL0     H18035   3.553   6.268   5.089  1.3108  1.0915 -0.3569
  137MOL0     H18036   3.450   6.125   5.057 -0.8685  1.6689  1.7359
  137MOL0     H18037   3.582   6.434   4.832 -3.2739  2.2041  1.0195
  137MOL0     H18038   3.485   6.367   4.492  0.7753 -4.4433  1.8365
  137MOL0     H18039   3.570   6.491   4.580 -0.5423 -0.0425  0.3278
  137MOL0     H18040   3.351   6.596   4.517 -1.4123 -0.8681 -1.1159
  137MOL0     H18041   3.356   6.561   4.692  1.7468 -1.9398  0.7495
  137MOL0     H18042   3.236   6.368   4.505 -0.8875  2.0586 -2.2135
  137MOL0     H18043   3.196   6.395   4.677 -0.9892  1.7220  0.8908
  137MOL0     H18044   3.135   6.597   4.458 -0.7420  0.8284  1.2438
  137MOL0     H18045   3.079   6.593   4.629 -0.6739  2.4352 -1.3428
  137MOL0     H18046   2.899   6.707   4.525 -1.6832  1.5443 -0.4813
  137MOL0     H18047   2.673   6.769   4.534 -1.8922  0.4409 -0.1844
  137MOL0     H18048   2.197   6.696   4.664  2.1863 -1.4150 -0.7651
  137MOL0     H18049   1.962   6.705   4.664  0.3154  0.0556  0.3835
  137MOL0     H18050   1.814   6.768   4.430 -2.5745  1.7562 -0.7554
  137MOL0     H18051   1.747   6.744   4.588  0.8755 -1.6181  1.7510
  137MOL0     H18052   1.616   6.614   4.350 -1.6306 -1.4372  0.7663
  137MOL0     H18053   1.587   6.785   4.398 -3.3635  0.2750  1.6622
  137MOL0     H18054   1.513   6.728   4.608 -0.6589  0.8331 -0.3693
  137MOL0     H18055   1.558   6.549   4.583  2.0953 -0.2739 -2.3917
  137MOL0     H18056   1.336   6.701   4.439 -2.5520 -1.9890  0.0628
  137MOL0     H18057   1.389   6.545   4.401 -0.5180  1.3324 -0.9794
  137MOL0     H18058   1.294   6.626   4.688  1.8506  0.8176 -1.5812
  137MOL0     H18059   1.329   6.460   4.639  1.7281 -0.0795 -0.2291
  137MOL0     H18060   1.126   6.496   4.474 -2.1345 -1.4081  1.0534
  137MOL0     H18061   1.104   6.655   4.539 -0.5559 -1.6918 -3.4573
  137MOL0     H18062   1.105   6.393   4.692  0.7664  0.3611 -1.3266
  137MOL0     H18063   1.060   6.550   4.756 -2.5091  1.1577 -0.3508
  137MOL0     H18064   0.844   6.398   4.678 -0.9427 -1.3289 -2.2777
  137MOL0     H18065   0.906   6.434   4.517 -0.7804 -0.4482  0.0014
  137MOL0     H18066   1.944   6.395   4.365 -2.1816 -0.7280  1.3506
  137MOL0     H18067   2.180   6.378   4.361  2.4046  0.2972  0.5207
  137MOL0     H18068   2.558   6.352   4.572  0.0833 -0.6060 -2.2999
  137MOL0     H18069   2.796   6.297   4.540 -0.4892  0.6038 -0.8552
  137MOL0     H18070   4.524   6.505   4.594  1.8270  2.2050  0.9820
  137MOL0     H18071   4.756   6.481   4.634  0.0387 -1.7724 -0.2106
  137MOL0     H18072   5.048   6.332   5.205 -0.5919  0.6684 -1.8355
  137MOL0     H18073   5.275   6.393   5.270 -0.8820 -0.0871  0.9882
  137MOL0     H18074   5.455   6.708   5.027  2.9482  2.4713  1.7956
  137MOL0     H18075   5.539   6.572   4.945 -0.7197  1.6058 -1.4197
  137MOL0     H18076   5.668   6.577   5.178 -0.0756 -1.7361 -3.3020
  137MOL0     H18077   5.717   6.694   5.057  0.6140 -1.0200 -0.0182
  137MOL0     H18078   5.508   6.766   5.272 -0.1684  1.0536  1.1078
  137MOL0     H18079   5.559   6.870   5.142  3.6613  2.0382  0.3717
  137MOL0     H18080   5.807   6.835   5.237 -1.1168  0.7016 -0.6514
  137MOL0     H18081   5.693   6.940   5.319 -0.8948 -0.0286  0.9112
  137MOL0     H18082   5.712   6.602   5.588 -1.4710  0.5138 -0.8229
  137MOL0     H18083   5.319   6.590   4.884 -0.5080  0.2304 -0.5427
  137MOL0     H18084   5.102   6.512   4.822 -3.2302  0.9538  1.3504
  138MOL0     O18085   0.171   4.224   1.376 -0.2490  0.2623  0.1920
  138MOL0     C18086   0.262   4.204   1.463  0.3320  0.2760 -0.2501
  138MOL0     O18087   0.245   4.195   1.601 -0.8275  0.0557  0.0072
  138MOL0     C18088   0.120   4.221   1.654 -0.7471  0.8745  0.6238
  138MOL0     C18089   0.008   4.155   1.605  0.1904  1.1159  0.0921
  138MOL0     C18090  -0.112   4.181   1.667  0.4456  1.0038 -0.3687
  138MOL0     C18091  -0.125   4.254   1.781  0.3601 -0.3661 -0.1699
  138MOL0     O18092  -0.246   4.283   1.847 -0.5770  0.7545 -0.1039
  138MOL0     C18093  -0.375   4.252   1.790  0.4432 -0.1520 -0.2301
  138MOL0     C18094  -0.488   4.233   1.891  0.5578 -0.2337  0.4235
  138MOL0     C18095  -0.608   4.158   1.817 -0.0835  0.4565 -0.5244
  138MOL0     C18096  -0.728   4.136   1.919 -0.1421  0.7289  0.5545
  138MOL0     C18097  -0.850   4.067   1.844 -1.1308  1.0254 -0.4848
  138MOL0     C18098  -0.891   4.144   1.717  0.0257  0.0271  0.1089
  138MOL0     C18099  -1.032   4.117   1.678 -0.7151 -0.6958 -0.3705
  138MOL0     C18100  -1.060   4.184   1.546 -0.2233  0.1380  0.5155
  138MOL0     N18101  -1.202   4.162   1.509 -0.1417  0.0898 -0.6007
  138MOL0     C18102  -1.258   4.055   1.434  1.0228  1.2255 -0.6837
  138MOL0     C18103  -1.389   4.079   1.414  0.1697 -0.1031  0.8113
  138MOL0     C18104  -1.488   3.997   1.339  0.0192  0.3355  0.1101
  138MOL0     C18105  -1.482   4.029   1.186  0.6072 -0.2189 -0.0870
  138MOL0     C18106  -1.559   4.159   1.155 -0.8452  0.0200  0.4433
  138MOL0     C18107  -1.713   4.137   1.126  0.4402 -0.3137 -0.3253
  138MOL0     O18108  -1.776   4.265   1.128  0.5543  0.2775  0.1448
  138MOL0     C18109  -1.909   4.284   1.106 -1.1273 -0.5451 -0.6693
  138MOL0     C18110  -1.936   4.408   1.058 -0.7344 -0.2331  0.4092
  138MOL0     C18111  -2.070   4.448   1.028 -0.2696  0.0916 -0.6881
  138MOL0     C18112  -2.172   4.357   1.042  0.1360 -0.3699  0.0347
  138MOL0     C18113  -2.315   4.398   1.025  0.0787  0.5165 -0.3515
  138MOL0     O18114  -2.333   4.532   0.996 -0.2561 -0.0183 -0.3834
  138MOL0     C18115  -2.457   4.577   0.962 -0.7028  0.5450 -0.0327
  138MOL0     C18116  -2.489   4.604   0.827 -0.3334 -0.2121 -0.1053
  138MOL0     C18117  -2.607   4.647   0.790 -0.6269 -0.6022 -0.4013
  138MOL0     C18118  -2.710   4.664   0.881  1.2827 -0.3695  0.2617
  138MOL0     O18119  -2.830   4.719   0.831 -0.5913  1.0974 -0.2523
  138MOL0     C18120  -2.933   4.767   0.915  0.2392  0.4571 -0.6598
  138MOL0     C18121  -3.035   4.834   0.827 -0.6428 -0.6839 -0.0418
  138MOL0     C18122  -3.172   4.849   0.889  0.2230 -0.6695 -0.2606
  138MOL0     C18123  -3.273   4.929   0.797 -0.2922  0.2496  0.6998
  138MOL0     C18124  -3.416   4.894   0.851 -0.3994  0.1364  0.1698
  138MOL0     C18125  -3.530   4.976   0.784 -0.6485 -0.0264  0.0827
  138MOL0     C18126  -3.662   4.960   0.869  0.0088  0.0594  0.5856
  138MOL0     C18127  -3.737   5.096   0.882  0.6273 -0.4054  0.5242
  138MOL0    Cl18128  -3.787   5.175   0.722  0.0348  0.0004  0.0968
  138MOL0     C18129  -2.687   4.614   1.006  0.0742  0.8817  0.9632
  138MOL0     C18130  -2.561   4.576   1.057 -0.1509 -0.0280  1.3236
  138MOL0     O18131  -2.404   4.314   1.031  0.1061 -0.1732  0.4578
  138MOL0     C18132  -2.142   4.225   1.076 -0.3887 -0.3133  0.2162
  138MOL0     C18133  -2.010   4.190   1.099 -0.3468 -0.2333  0.0240
  138MOL0     N18134  -1.418   4.195   1.483 -0.3334  0.1362 -0.2939
  138MOL0     N18135  -1.305   4.243   1.539  0.2798  0.2969 -0.1803
  138MOL0     C18136  -0.012   4.309   1.841  0.0542  0.4309  0.4222
  138MOL0     C18137   0.110   4.298   1.772 -0.6542  0.2777  0.5228
  138MOL0     C18138   0.394   4.168   1.401 -0.1778 -0.3422  0.1425
  138MOL0     C18139   0.510   4.187   1.480 -0.2456 -0.5834  0.0438
  138MOL0     C18140   0.634   4.174   1.421  0.6504 -0.3066 -0.1445
  138MOL0     C18141   0.649   4.125   1.291  0.6259 -0.7943 -0.2073
  138MOL0     O18142   0.771   4.115   1.236 -0.1335  0.2519  0.1861
  138MOL0     C18143   0.804   4.247   1.173 -0.7735  0.0229  0.4605
  138MOL0     C18144   0.932   4.230   1.098  0.1749  0.7440  0.5028
  138MOL0     C18145   1.045   4.250   1.202  0.4793 -0.2948  0.3058
  138MOL0     C18146   1.173   4.205   1.139  0.1394  0.2783  0.5063
  138MOL0     C18147   1.285   4.277   1.192  0.3809 -1.0931  0.0679
  138MOL0     C18148   1.384   4.332   1.229  0.1783 -0.1300  0.4592
  138MOL0     C18149   0.530   4.084   1.223  0.8423  0.5377  0.1066
  138MOL0     C18150   0.409   4.118   1.276 -0.1157  0.5504  0.8825
  138MOL0     H18151   0.019   4.102   1.512 -0.1816  2.2252 -0.6067
  138MOL0     H18152  -0.195   4.125   1.623 -0.1332  1.2919  0.3433
  138MOL0     H18153  -0.356   4.157   1.740 -1.5853 -1.4178  1.2674
  138MOL0     H18154  -0.406   4.316   1.707 -2.7772 -2.3641 -0.8898
  138MOL0     H18155  -0.523   4.330   1.927 -1.4223 -0.4663 -0.7341
  138MOL0     H18156  -0.454   4.168   1.972 -0.5839  0.8305  1.8171
  138MOL0     H18157  -0.580   4.058   1.782 -1.8084 -0.2292 -0.0762
  138MOL0     H18158  -0.646   4.208   1.728 -2.3496  2.4059  1.3830
  138MOL0     H18159  -0.697   4.064   1.995 -0.5900  0.6235  0.6375
  138MOL0     H18160  -0.775   4.224   1.964 -0.9897 -0.3129  1.7363
  138MOL0     H18161  -0.936   4.043   1.907  0.6408 -0.6064  1.4775
  138MOL0     H18162  -0.816   3.967   1.814  2.1538  0.6718  3.5436
  138MOL0     H18163  -0.830   4.105   1.635 -2.3421 -1.4956 -1.0449
  138MOL0     H18164  -0.891   4.251   1.740  0.0751 -0.2415  1.4102
  138MOL0     H18165  -1.040   4.008   1.676 -1.1032 -0.8039  2.5211
  138MOL0     H18166  -1.092   4.159   1.759  1.6224  2.3747 -0.0484
  138MOL0     H18167  -0.995   4.136   1.472  0.7945  0.3181  1.2735
  138MOL0     H18168  -1.047   4.293   1.555  0.1864  0.3412 -1.8878
  138MOL0     H18169  -1.208   3.966   1.398 -1.5038 -0.9564  0.8791
  138MOL0     H18170  -1.592   4.007   1.370  0.3519  0.0988  1.3304
  138MOL0     H18171  -1.466   3.890   1.349 -0.4727  0.4353  2.7822
  138MOL0     H18172  -1.526   3.945   1.133 -0.3573  0.1493  0.1126
  138MOL0     H18173  -1.380   4.049   1.152  0.7714 -1.4769 -0.3938
  138MOL0     H18174  -1.528   4.240   1.222  1.6513 -1.9708  1.8690
  138MOL0     H18175  -1.520   4.198   1.060 -3.9674  2.5412  0.0389
  138MOL0     H18176  -1.767   4.061   1.183 -0.5706  1.1893  0.7994
  138MOL0     H18177  -1.723   4.087   1.029  0.5812 -2.2596  0.6084
  138MOL0     H18178  -1.859   4.484   1.052 -0.0776 -0.8983  0.2305
  138MOL0     H18179  -2.090   4.553   1.008 -1.5232 -0.2976 -1.5443
  138MOL0     H18180  -2.417   4.589   0.747 -0.6478 -2.1091 -0.0847
  138MOL0     H18181  -2.626   4.673   0.686  1.6123  1.9919 -0.2738
  138MOL0     H18182  -2.893   4.835   0.991 -0.8592  0.2098  0.1773
  138MOL0     H18183  -2.985   4.688   0.971  1.3912  0.9922  1.2716
  138MOL0     H18184  -3.029   4.774   0.736  1.6089 -0.8465  0.1611
  138MOL0     H18185  -2.998   4.933   0.802 -2.5221  0.3049  0.8717
  138MOL0     H18186  -3.173   4.902   0.985 -1.9668 -1.5549  0.2741
  138MOL0     H18187  -3.198   4.744   0.906  1.7932 -0.8306  1.4988
  138MOL0     H18188  -3.247   5.033   0.815 -0.4176  0.2792  0.7042
  138MOL0     H18189  -3.268   4.894   0.693 -1.3548  1.2646  0.2856
  138MOL0     H18190  -3.411   4.899   0.960  2.2569  2.0822  0.0371
  138MOL0     H18191  -3.437   4.789   0.829 -2.5949 -0.0599  2.6742
  138MOL0     H18192  -3.542   4.941   0.681 -1.9109  0.3980  0.0611
  138MOL0     H18193  -3.504   5.082   0.780  1.4411 -0.5535 -2.3213
  138MOL0     H18194  -3.732   4.890   0.825 -0.6269 -0.3330  2.1559
  138MOL0     H18195  -3.655   4.929   0.973 -2.3979  1.9484  1.4001
  138MOL0     H18196  -3.686   5.174   0.938 -1.5179  0.0276  1.9891
  138MOL0     H18197  -3.822   5.078   0.948 -0.6786 -4.7579 -1.9143
  138MOL0     H18198  -2.761   4.621   1.085 -0.6128  1.7971  0.2674
  138MOL0     H18199  -2.538   4.538   1.156 -0.4626 -2.1748  0.6297
  138MOL0     H18200  -2.209   4.140   1.076  0.4314 -1.0013 -1.3477
  138MOL0     H18201  -1.989   4.086   1.124  2.1144 -0.2121 -1.6312
  138MOL0     H18202  -0.017   4.363   1.935 -2.3409  0.2029  0.4970
  138MOL0     H18203   0.194   4.354   1.812 -1.5603  0.6482  1.9960
  138MOL0     H18204   0.488   4.217   1.582  0.5056  2.6689 -0.6565
  138MOL0     H18205   0.729   4.195   1.471  2.1484 -1.3860 -2.3598
  138MOL0     H18206   0.824   4.319   1.253  0.7620 -0.2427  0.3436
  138MOL0     H18207   0.726   4.297   1.114  2.4112  0.0278 -4.3048
  138MOL0     H18208   0.932   4.129   1.057 -0.9621  1.1962 -0.7118
  138MOL0     H18209   0.927   4.297   1.011 -1.6733 -1.2257 -1.0289
  138MOL0     H18210   1.040   4.199   1.298  2.2703 -0.2302  0.4749
  138MOL0     H18211   1.047   4.356   1.230 -1.8745 -0.4128  1.0676
  138MOL0     H18212   1.185   4.097   1.150 -2.3831 -0.3137 -1.5119
  138MOL0     H18213   1.168   4.236   1.034  0.1494 -1.6495 -0.0909
  138MOL0     H18214   1.482   4.353   1.266 -0.0457  0.1744  0.8944
  138MOL0     H18215   0.530   4.040   1.124  1.0442  0.8392 -0.0322
  138MOL0     H18216   0.316   4.087   1.228  1.3549 -3.7208  0.4130
  139MOL0     O18217   4.820   8.558   7.315  0.9387 -0.4728 -0.1329
  139MOL0     C18218   4.794   8.463   7.386  0.1956  0.3195  0.2892
  139MOL0     O18219   4.886   8.367   7.429  0.1520 -0.0205 -0.1323
  139MOL0     C18220   5.025   8.372   7.403 -0.0399 -0.6023 -0.1176
  139MOL0     C18221   5.118   8.319   7.490 -0.2169  0.8980 -0.3881
  139MOL0     C18222   5.256   8.315   7.461 -0.2216 -0.2385  0.0406
  139MOL0     C18223   5.296   8.375   7.341  0.1597  0.3958 -0.0052
  139MOL0     O18224   5.428   8.376   7.291  0.2470 -0.4954 -0.2099
  139MOL0     C18225   5.529   8.304   7.367  1.6101 -0.2990 -0.0183
  139MOL0     C18226   5.651   8.310   7.283  0.2392  0.1006  0.4613
  139MOL0     C18227   5.760   8.261   7.375 -0.3235  0.2223  0.4275
  139MOL0     C18228   5.899   8.262   7.312 -0.0661  0.2735  0.6279
  139MOL0     C18229   6.005   8.224   7.421 -0.7478 -0.0452  0.0315
  139MOL0     C18230   6.141   8.204   7.362 -0.1679  0.5558 -0.7349
  139MOL0     C18231   6.196   8.068   7.401 -0.0330  0.1156 -0.3257
  139MOL0     C18232   6.332   8.034   7.326  0.4586 -0.4953  0.0618
  139MOL0     N18233   6.389   7.913   7.379  0.4274 -0.1777  0.4395
  139MOL0     C18234   6.467   7.897   7.495 -0.3814  0.4879 -0.0632
  139MOL0     C18235   6.483   7.760   7.505  0.0129 -0.2981 -0.6680
  139MOL0     C18236   6.539   7.679   7.623  0.3200  0.0154 -0.6156
  139MOL0     C18237   6.568   7.764   7.747  0.2319  0.1040 -0.1675
  139MOL0     C18238   6.568   7.692   7.884  0.7185  0.6111 -0.5690
  139MOL0     C18239   6.445   7.730   7.964 -0.0596  0.2528  0.6470
  139MOL0     O18240   6.323   7.677   7.899 -0.1126 -0.1677 -0.1681
  139MOL0     C18241   6.198   7.718   7.943 -0.0059 -0.0979 -0.6451
  139MOL0     C18242   6.098   7.723   7.854 -0.2315 -1.0090 -0.0329
  139MOL0     C18243   5.967   7.738   7.887  0.3445  0.6089 -0.1033
  139MOL0     C18244   5.931   7.778   8.019 -1.1811 -0.3677 -0.6021
  139MOL0     C18245   5.789   7.794   8.055  0.1417 -1.1587  0.8674
  139MOL0     O18246   5.766   7.839   8.173  0.1575  0.6800 -0.0627
  139MOL0     C18247   5.634   7.843   8.204 -0.0603 -0.4291 -1.0301
  139MOL0     C18248   5.574   7.728   8.260  0.2727  0.3797  0.4579
  139MOL0     C18249   5.439   7.734   8.291  0.5062 -0.1831 -0.4634
  139MOL0     C18250   5.362   7.850   8.280 -0.3934 -0.4345  0.1171
  139MOL0     O18251   5.239   7.863   8.332  0.1338  0.3258 -0.3734
  139MOL0     C18252   5.174   7.993   8.350  0.0514 -0.6791 -0.2096
  139MOL0     C18253   5.043   7.997   8.430  0.0287 -0.0330  0.6451
  139MOL0     C18254   4.999   8.144   8.454  0.3344 -0.5284  0.1407
  139MOL0     C18255   4.864   8.153   8.536 -0.2735  0.3256  0.4092
  139MOL0     C18256   4.741   8.092   8.469  0.0988 -0.7661 -0.3842
  139MOL0     C18257   4.620   8.121   8.561  0.6761 -0.2505 -0.1547
  139MOL0     C18258   4.500   8.042   8.509  0.4381 -0.2566  0.8835
  139MOL0     C18259   4.361   8.091   8.544  0.5073 -0.2552  0.7303
  139MOL0    Cl18260   4.249   7.967   8.500 -0.2276  0.0637  0.0295
  139MOL0     C18261   5.422   7.959   8.210 -0.0273 -0.5665 -0.7614
  139MOL0     C18262   5.553   7.953   8.173 -0.2909  0.0261 -0.2425
  139MOL0     O18263   5.700   7.769   7.967 -0.7148 -0.1338 -0.8412
  139MOL0     C18264   6.034   7.800   8.113 -0.5036  0.0737 -0.1984
  139MOL0     C18265   6.165   7.753   8.074 -0.7580 -0.2721 -0.0076
  139MOL0     N18266   6.435   7.706   7.390  1.1594  0.8287 -0.2283
  139MOL0     N18267   6.382   7.788   7.313  0.2871  0.0239  0.4054
  139MOL0     C18268   5.204   8.424   7.253  0.4291 -0.1933 -0.4831
  139MOL0     C18269   5.063   8.412   7.276 -0.9236 -0.3545 -0.9785
  139MOL0     C18270   4.662   8.457   7.437 -0.4696 -0.6467  0.7842
  139MOL0     C18271   4.610   8.366   7.531 -0.2948  0.5037 -0.0193
  139MOL0     C18272   4.479   8.364   7.581 -0.2723 -0.3064 -0.5737
  139MOL0     C18273   4.387   8.455   7.527 -0.4569  0.1133  0.4872
  139MOL0     O18274   4.266   8.466   7.591  0.7975  0.3127  0.1212
  139MOL0     C18275   4.173   8.569   7.545  0.2857 -0.3685  0.6448
  139MOL0     C18276   4.057   8.557   7.642 -0.4122 -0.1598 -0.0504
  139MOL0     C18277   3.962   8.438   7.615  0.8671  0.7999 -0.5529
  139MOL0     C18278   3.831   8.440   7.706 -0.7277  0.9245 -0.4844
  139MOL0     C18279   3.870   8.434   7.850  0.4621  0.3326 -0.5023
  139MOL0     C18280   3.882   8.456   7.966  0.3336 -0.3429  0.7589
  139MOL0     C18281   4.428   8.545   7.428 -0.2511  0.3057  0.2655
  139MOL0     C18282   4.556   8.542   7.386 -0.6853  0.9661 -0.3880
  139MOL0     H18283   5.085   8.274   7.583  0.8622  2.7703  0.9661
  139MOL0     H18284   5.326   8.274   7.533  0.0468  0.4499  0.1801
  139MOL0     H18285   5.492   8.202   7.379  0.1732 -0.0220 -1.7554
  139MOL0     H18286   5.533   8.352   7.465  2.1425 -2.5456  1.1228
  139MOL0     H18287   5.678   8.411   7.251  0.6214  0.7630  2.7121
  139MOL0     H18288   5.642   8.253   7.191  3.2861 -0.6870  0.5311
  139MOL0     H18289   5.736   8.162   7.416 -0.6012 -0.7054 -1.8476
  139MOL0     H18290   5.781   8.341   7.447 -0.2778  0.9563 -0.4017
  139MOL0     H18291   5.901   8.180   7.239  1.3049  1.5067 -0.7906
  139MOL0     H18292   5.925   8.359   7.269  1.0414 -1.0614 -1.9073
  139MOL0     H18293   5.974   8.137   7.479  0.9940 -0.7668 -0.0613
  139MOL0     H18294   6.031   8.310   7.483  1.8616  2.5888 -4.1806
  139MOL0     H18295   6.209   8.285   7.389 -1.2577  1.0987  0.4981
  139MOL0     H18296   6.129   8.204   7.253 -1.1431 -0.6280 -0.6430
  139MOL0     H18297   6.219   8.068   7.508 -0.6068 -2.5698 -0.1320
  139MOL0     H18298   6.117   7.995   7.381  0.1074  0.0934 -0.7965
  139MOL0     H18299   6.400   8.117   7.345  1.3444 -1.0957 -0.4119
  139MOL0     H18300   6.320   8.029   7.217 -0.6575  0.0691  0.1388
  139MOL0     H18301   6.512   7.972   7.559 -0.8271 -0.0001  0.8481
  139MOL0     H18302   6.625   7.624   7.584  1.5806  0.6114  1.1494
  139MOL0     H18303   6.458   7.614   7.658  0.4117 -0.3247 -1.0314
  139MOL0     H18304   6.497   7.847   7.752  1.2953  1.0635 -0.5498
  139MOL0     H18305   6.674   7.776   7.722  0.9721 -4.3495  0.0646
  139MOL0     H18306   6.570   7.584   7.866  1.6637  0.6606 -0.7717
  139MOL0     H18307   6.655   7.713   7.947 -1.2025  2.3963  1.6956
  139MOL0     H18308   6.444   7.839   7.974  1.0164  0.3330  0.0252
  139MOL0     H18309   6.443   7.690   8.065 -0.9562  3.2694  1.9490
  139MOL0     H18310   6.134   7.704   7.754  1.0947  1.4980 -0.1049
  139MOL0     H18311   5.896   7.739   7.805 -1.0677 -1.0619  1.0358
  139MOL0     H18312   5.633   7.639   8.278 -1.1843 -0.2562  2.6204
  139MOL0     H18313   5.393   7.652   8.346 -0.4116  0.6654  0.0908
  139MOL0     H18314   5.154   8.024   8.247 -0.8879 -2.5596 -0.6332
  139MOL0     H18315   5.240   8.062   8.404 -1.2587 -0.8785  1.7471
  139MOL0     H18316   5.060   7.947   8.526  2.2147 -6.2168 -2.4964
  139MOL0     H18317   4.962   7.941   8.383 -0.6040 -0.4010  2.0963
  139MOL0     H18318   4.981   8.192   8.357  0.2674  0.2097  0.5087
  139MOL0     H18319   5.078   8.199   8.507 -0.8707  0.7889  0.6329
  139MOL0     H18320   4.893   8.107   8.631  1.7139 -0.9734 -0.7679
  139MOL0     H18321   4.849   8.260   8.558 -0.2891 -0.1101  2.7664
  139MOL0     H18322   4.756   7.986   8.446  1.6062 -0.4456 -1.0285
  139MOL0     H18323   4.723   8.141   8.373 -1.6413  0.7323  0.6458
  139MOL0     H18324   4.604   8.229   8.551  2.7704  0.2234  1.0118
  139MOL0     H18325   4.647   8.098   8.664  1.2948 -1.5929 -0.5925
  139MOL0     H18326   4.484   8.037   8.401 -0.7883  3.4359  0.7660
  139MOL0     H18327   4.500   7.938   8.543 -2.0399 -0.2525  1.1164
  139MOL0     H18328   4.337   8.178   8.482  2.5119  1.7739  2.6447
  139MOL0     H18329   4.352   8.125   8.647 -2.1950 -0.4834  0.6562
  139MOL0     H18330   5.364   8.048   8.189 -1.2336 -0.9731  0.6609
  139MOL0     H18331   5.603   8.037   8.124 -0.6757 -0.9976 -2.5264
  139MOL0     H18332   6.019   7.837   8.214 -0.2844 -0.0984 -0.1025
  139MOL0     H18333   6.252   7.744   8.138 -0.1597  1.0878 -0.5917
  139MOL0     H18334   5.231   8.454   7.152  2.4144 -0.3184 -0.0161
  139MOL0     H18335   4.978   8.433   7.211 -2.7742 -0.6901  1.2116
  139MOL0     H18336   4.684   8.289   7.553  1.4635  1.7307 -1.3113
  139MOL0     H18337   4.449   8.297   7.660  0.1229  0.6107  0.3747
  139MOL0     H18338   4.138   8.578   7.441 -2.5340  0.9312  1.5825
  139MOL0     H18339   4.230   8.659   7.569 -1.1056  1.8962 -3.4277
  139MOL0     H18340   4.090   8.571   7.745 -3.3861  2.9107  0.6643
  139MOL0     H18341   3.994   8.646   7.627 -0.9078 -0.4179  0.4841
  139MOL0     H18342   4.018   8.344   7.620 -2.9862 -1.9853 -3.7439
  139MOL0     H18343   3.928   8.438   7.511 -2.7843 -5.1913  0.1449
  139MOL0     H18344   3.772   8.529   7.685 -1.6407  0.0806 -1.6646
  139MOL0     H18345   3.763   8.359   7.676 -0.4875  0.4390  0.2618
  139MOL0     H18346   3.888   8.477   8.071 -0.8131  2.4717  0.3480
  139MOL0     H18347   4.378   8.623   7.373  2.2606  1.2842 -0.8019
  139MOL0     H18348   4.571   8.631   7.325  2.1793  2.7310  2.6099
  140MOL0     O18349   1.328   9.581  10.004 -0.5454 -0.3267  0.5165
  140MOL0     C18350   1.216   9.597  10.050 -1.0744 -0.1719  0.4149
  140MOL0     O18351   1.179   9.574  10.179  0.2719  0.4021  0.1195
  140MOL0     C18352   1.294   9.566  10.257 -0.1228 -1.1721  0.6427
  140MOL0     C18353   1.367   9.687  10.285 -0.1226 -0.3138  0.4751
  140MOL0     C18354   1.479   9.684  10.368  0.4791 -0.0371 -0.5783
  140MOL0     C18355   1.528   9.558  10.417 -0.4367  0.3828  1.2797
  140MOL0     O18356   1.649   9.563  10.476  0.5401  0.2631  0.4021
  140MOL0     C18357   1.725   9.440  10.504  0.0230 -0.8816 -0.0405
  140MOL0     C18358   1.851   9.461  10.586 -0.5890  0.3104 -0.3414
  140MOL0     C18359   1.940   9.571  10.533  0.5538  0.4186 -0.1472
  140MOL0     C18360   2.053   9.607  10.623  0.4663  0.7476  0.2387
  140MOL0     C18361   2.142   9.713  10.558 -0.1821  0.2518  0.4473
  140MOL0     C18362   2.253   9.754  10.651 -0.4969 -0.2273 -0.5911
  140MOL0     C18363   2.357   9.638  10.683 -0.8948 -0.5527 -0.5822
  140MOL0     C18364   2.481   9.687  10.769  0.6836  0.0639 -0.4796
  140MOL0     N18365   2.575   9.575  10.779  0.1400 -0.1556 -0.6047
  140MOL0     C18366   2.701   9.591  10.823  0.1297  0.3155 -0.5924
  140MOL0     C18367   2.760   9.468  10.834 -0.4869 -0.1933  0.7256
  140MOL0     C18368   2.894   9.411  10.880  0.3227 -0.6863 -0.2580
  140MOL0     C18369   3.005   9.458  10.793  0.7758  0.0743  0.4759
  140MOL0     C18370   2.993   9.436  10.651  0.1203  0.2336  0.1588
  140MOL0     C18371   2.994   9.288  10.598 -0.3656  0.0685 -0.6715
  140MOL0     O18372   2.969   9.284  10.455 -0.1602 -0.1140  0.9368
  140MOL0     C18373   2.851   9.332  10.401 -0.0635 -0.3658 -0.7488
  140MOL0     C18374   2.856   9.359  10.269 -0.2520  0.6542  0.4687
  140MOL0     C18375   2.747   9.425  10.205  1.5363 -0.4461 -0.6186
  140MOL0     C18376   2.618   9.428  10.269 -0.8656 -0.2026 -0.4794
  140MOL0     C18377   2.501   9.493  10.197  0.2100  0.4720  0.0920
  140MOL0     O18378   2.513   9.519  10.067  0.2405 -0.1343  0.2026
  140MOL0     C18379   2.400   9.567   9.999 -1.1179  0.2177  0.5019
  140MOL0     C18380   2.322   9.485   9.919  0.2614 -0.7151  0.4698
  140MOL0     C18381   2.223   9.542   9.845  0.1397 -0.1793 -0.0293
  140MOL0     C18382   2.184   9.679   9.846 -0.2356  0.8146  0.5447
  140MOL0     O18383   2.086   9.735   9.769  0.2157 -0.3291  0.0483
  140MOL0     C18384   2.006   9.650   9.689 -0.7817 -0.9737  0.1958
  140MOL0     C18385   1.902   9.732   9.614  0.3793  0.4151  0.0858
  140MOL0     C18386   1.791   9.775   9.715  0.0794 -0.2683  0.2969
  140MOL0     C18387   1.677   9.828   9.623  1.1574  0.8346  0.5097
  140MOL0     C18388   1.583   9.912   9.714  0.0653 -1.3481  0.2290
  140MOL0     C18389   1.483   9.825   9.803  0.8259 -0.5412 -0.2376
  140MOL0     C18390   1.357   9.898   9.859  0.1522 -0.2905 -0.7129
  140MOL0     C18391   1.394  10.029   9.934  0.1283  0.3700  0.6865
  140MOL0    Cl18392   1.426   9.986  10.102  0.0646  0.0019 -0.0409
  140MOL0     C18393   2.269   9.757   9.926  0.3197  0.2334 -0.0051
  140MOL0     C18394   2.375   9.701  10.000 -0.3250 -0.5936 -0.1555
  140MOL0     O18395   2.399   9.519  10.268  0.0153  0.6032  0.3107
  140MOL0     C18396   2.616   9.399  10.406 -0.1524 -0.1927  0.1216
  140MOL0     C18397   2.733   9.349  10.472  0.0386 -0.3930  0.4694
  140MOL0     N18398   2.662   9.369  10.803  1.3520  0.4696  0.0662
  140MOL0     N18399   2.550   9.435  10.767 -0.0860  0.3683 -0.2219
  140MOL0     C18400   1.453   9.445  10.393  0.0803  0.0237  0.1259
  140MOL0     C18401   1.334   9.444  10.311 -0.3340 -0.0563  1.1318
  140MOL0     C18402   1.109   9.636   9.961 -0.4975  0.8311 -0.4555
  140MOL0     C18403   1.120   9.670   9.825  0.7712  0.2199  0.6582
  140MOL0     C18404   1.005   9.701   9.749  0.2547 -0.5306 -0.0532
  140MOL0     C18405   0.877   9.698   9.814  0.5620 -0.1792 -1.0224
  140MOL0     O18406   0.755   9.722   9.757  0.4459 -0.9444  1.4271
  140MOL0     C18407   0.749   9.735   9.610  0.7345  0.2875 -0.5578
  140MOL0     C18408   0.605   9.695   9.573 -0.1486  0.6175  0.1069
  140MOL0     C18409   0.567   9.729   9.419 -1.1609  0.5236  0.2761
  140MOL0     C18410   0.518   9.869   9.406  0.6956 -0.5248 -1.0992
  140MOL0     C18411   0.460   9.898   9.274 -0.7089  0.2788  0.3127
  140MOL0     C18412   0.441   9.926   9.153 -1.0487 -0.3628  0.4618
  140MOL0     C18413   0.870   9.677   9.949  0.3632  0.1348 -0.3269
  140MOL0     C18414   0.981   9.644  10.023  0.2544  0.0924  0.0580
  140MOL0     H18415   1.325   9.772  10.233  1.5674 -0.4037 -1.1680
  140MOL0     H18416   1.543   9.767  10.395 -0.4474  0.5048 -0.0195
  140MOL0     H18417   1.751   9.387  10.411  1.6672 -0.6199  0.2325
  140MOL0     H18418   1.662   9.372  10.562  2.8544 -1.3279  2.7556
  140MOL0     H18419   1.905   9.366  10.595 -0.7661  0.1901 -0.5286
  140MOL0     H18420   1.812   9.481  10.687  4.3956  1.1288  1.6946
  140MOL0     H18421   1.874   9.659  10.531 -2.0207 -1.2826  2.4566
  140MOL0     H18422   1.981   9.547  10.435  2.0904  1.9266  0.0907
  140MOL0     H18423   2.021   9.614  10.727  1.2132 -0.9837  0.6132
  140MOL0     H18424   2.128   9.528  10.624  3.3158  3.2032 -1.0160
  140MOL0     H18425   2.080   9.796  10.524  0.0284  0.9515  1.7033
  140MOL0     H18426   2.186   9.673  10.466  0.2998  0.4525  0.5849
  140MOL0     H18427   2.217   9.786  10.749  2.9340 -2.9879  1.8388
  140MOL0     H18428   2.304   9.841  10.610 -0.8310 -0.9169 -2.5681
  140MOL0     H18429   2.314   9.550  10.734  1.1311 -0.9290  0.6082
  140MOL0     H18430   2.382   9.609  10.581 -1.0711  0.0177 -0.7894
  140MOL0     H18431   2.458   9.714  10.872 -0.2808 -0.2731 -0.5956
  140MOL0     H18432   2.530   9.772  10.721 -0.1844  0.2222 -1.1149
  140MOL0     H18433   2.745   9.684  10.855 -0.2919  0.4952 -0.5254
  140MOL0     H18434   2.886   9.303  10.888  0.4561 -0.7251 -0.6421
  140MOL0     H18435   2.904   9.457  10.979  0.7410  0.8464 -0.9682
  140MOL0     H18436   3.094   9.406  10.829  1.6846  0.2049 -1.4870
  140MOL0     H18437   3.012   9.565  10.813  1.5162  0.4461 -1.5210
  140MOL0     H18438   2.917   9.490  10.595  2.3112 -0.3975 -3.7666
  140MOL0     H18439   3.085   9.476  10.608 -0.5332  0.8644 -0.6720
  140MOL0     H18440   2.916   9.241  10.658  1.3303 -0.6072  1.1282
  140MOL0     H18441   3.091   9.246  10.626  0.6912  1.1355 -2.5768
  140MOL0     H18442   2.941   9.335  10.206 -2.9277  0.2956 -3.3535
  140MOL0     H18443   2.745   9.455  10.100  0.5325  1.2584 -0.1485
  140MOL0     H18444   2.333   9.379   9.897 -0.6006 -0.4305 -1.5293
  140MOL0     H18445   2.160   9.477   9.785 -2.4259  0.9234  1.2938
  140MOL0     H18446   1.968   9.565   9.746 -2.0270 -0.5318  0.0597
  140MOL0     H18447   2.078   9.604   9.621 -1.8720 -1.9586 -0.3205
  140MOL0     H18448   1.860   9.673   9.532 -0.6152 -2.0796  2.2558
  140MOL0     H18449   1.959   9.814   9.567  1.7808 -0.0321  0.9506
  140MOL0     H18450   1.824   9.853   9.784  0.5646  2.8328 -3.1602
  140MOL0     H18451   1.753   9.693   9.777 -0.8669 -0.2874 -0.2940
  140MOL0     H18452   1.724   9.891   9.548 -0.8656  0.6330 -1.0236
  140MOL0     H18453   1.617   9.756   9.567 -1.4885  3.1068  0.1722
  140MOL0     H18454   1.515   9.964   9.646  0.7344  1.3043  1.4875
  140MOL0     H18455   1.648   9.981   9.768  2.3154 -2.5365 -0.8039
  140MOL0     H18456   1.542   9.787   9.888  1.4456  0.0675 -0.3892
  140MOL0     H18457   1.446   9.743   9.741 -2.8801  0.4717  0.4044
  140MOL0     H18458   1.281   9.916   9.782 -0.2449 -3.8499 -1.3366
  140MOL0     H18459   1.308   9.835   9.934 -2.7786  0.8556 -1.4858
  140MOL0     H18460   1.310  10.096   9.918  0.5989  0.9559  0.6317
  140MOL0     H18461   1.483  10.072   9.888  0.0899  1.3544  1.4940
  140MOL0     H18462   2.245   9.863   9.933  1.0862  0.8105 -3.9476
  140MOL0     H18463   2.436   9.774  10.052 -2.3021  2.4388 -1.7195
  140MOL0     H18464   2.521   9.413  10.458 -1.1722  0.9457 -1.9243
  140MOL0     H18465   2.737   9.316  10.575  0.2876  0.1590  0.6373
  140MOL0     H18466   1.490   9.351  10.435  0.1013  0.1836  0.4710
  140MOL0     H18467   1.273   9.360  10.280  0.5852 -0.0763 -0.7796
  140MOL0     H18468   1.212   9.671   9.768  0.0911 -1.3032 -0.5447
  140MOL0     H18469   1.010   9.720   9.642 -2.3301 -1.2026 -0.3745
  140MOL0     H18470   0.808   9.666   9.549  0.4540 -0.9375  0.5103
  140MOL0     H18471   0.753   9.840   9.579 -2.1697  0.6981  0.1639
  140MOL0     H18472   0.585   9.589   9.589 -2.2709  0.9587 -0.0929
  140MOL0     H18473   0.544   9.743   9.650 -1.1429  1.2310 -1.0423
  140MOL0     H18474   0.492   9.660   9.381 -1.8603  2.4519 -2.0711
  140MOL0     H18475   0.658   9.715   9.359 -0.4361  1.0749  1.2087
  140MOL0     H18476   0.429   9.883   9.468 -1.7359  0.6052 -4.5422
  140MOL0     H18477   0.596   9.943   9.427  0.8150  0.2672 -3.9316
  140MOL0     H18478   0.425   9.950   9.050 -0.1047 -0.6657  0.2293
  140MOL0     H18479   0.774   9.684   9.999  0.3782  0.9090 -0.4062
  140MOL0     H18480   0.953   9.619  10.125 -0.0659  0.6708  0.1203
  141MOL0     O18481   6.811   5.402   5.919  0.0598  0.1493 -0.7681
  141MOL0     C18482   6.854   5.516   5.926 -0.0806  0.1095 -0.5263
  141MOL0     O18483   6.771   5.632   5.930 -0.6795  0.4541 -0.2520
  141MOL0     C18484   6.632   5.639   5.923 -0.3183 -0.4523  0.1094
  141MOL0     C18485   6.552   5.532   5.905 -0.1860  0.3672 -0.6788
  141MOL0     C18486   6.414   5.559   5.877 -0.3412  0.0273  0.3466
  141MOL0     C18487   6.366   5.693   5.865 -0.0582 -0.1510  0.2418
  141MOL0     O18488   6.237   5.709   5.827 -0.1254  0.2946 -0.9349
  141MOL0     C18489   6.145   5.796   5.902 -0.2274  0.1008 -0.2184
  141MOL0     C18490   6.040   5.847   5.808  0.9344  0.1716 -0.7216
  141MOL0     C18491   5.922   5.926   5.886 -0.0055 -0.4493 -0.2176
  141MOL0     C18492   5.824   5.817   5.939 -0.1748 -0.4513 -0.8723
  141MOL0     C18493   5.702   5.878   5.990  1.1430  0.3333  0.1044
  141MOL0     C18494   5.595   5.891   5.868  0.1117 -0.1431 -1.2146
  141MOL0     C18495   5.467   5.961   5.917  0.3400  0.9050 -0.3647
  141MOL0     C18496   5.369   5.998   5.804 -0.5181 -0.3052 -0.0949
  141MOL0     N18497   5.231   6.038   5.852 -0.1531  0.7675  0.3603
  141MOL0     C18498   5.177   6.160   5.842 -0.1934  0.2997 -0.1779
  141MOL0     C18499   5.057   6.155   5.891  0.1285 -0.8397 -0.7891
  141MOL0     C18500   4.949   6.258   5.896 -0.6684  0.6939 -0.1346
  141MOL0     C18501   4.900   6.300   5.754  0.0902  0.6195 -0.0210
  141MOL0     C18502   4.789   6.209   5.688 -0.1751 -0.0285  0.1933
  141MOL0     C18503   4.677   6.178   5.781 -0.5223 -0.1887  0.2855
  141MOL0     O18504   4.582   6.144   5.693 -0.4599  0.3340  0.0779
  141MOL0     C18505   4.468   6.090   5.727 -0.3030  0.2391  0.1281
  141MOL0     C18506   4.446   6.021   5.849  0.3137 -0.3043 -0.0877
  141MOL0     C18507   4.328   5.957   5.873  0.7768  0.3740 -0.4448
  141MOL0     C18508   4.228   5.949   5.772  0.2038 -0.2155 -0.3612
  141MOL0     C18509   4.103   5.875   5.803  0.0871 -0.3548  0.2999
  141MOL0     O18510   4.002   5.898   5.723  0.4467  0.3546  0.5301
  141MOL0     C18511   3.881   5.830   5.743  0.0406 -0.7372  1.0091
  141MOL0     C18512   3.875   5.689   5.718  0.0380 -0.6333 -0.7755
  141MOL0     C18513   3.746   5.629   5.720 -0.7761  0.4555  0.0780
  141MOL0     C18514   3.633   5.703   5.746  0.4856  0.6535 -0.4735
  141MOL0     O18515   3.498   5.650   5.748 -0.8842  0.1380 -0.1707
  141MOL0     C18516   3.476   5.509   5.739  0.4034 -0.1602  0.8052
  141MOL0     C18517   3.324   5.481   5.725 -0.1826 -0.8616  0.0696
  141MOL0     C18518   3.266   5.544   5.590 -0.8154 -0.3938 -0.5128
  141MOL0     C18519   3.113   5.520   5.574 -0.3814 -0.2008 -0.7621
  141MOL0     C18520   3.066   5.379   5.547 -0.6021 -0.1799  0.4035
  141MOL0     C18521   2.911   5.372   5.517 -1.2122  0.6043 -0.2112
  141MOL0     C18522   2.873   5.231   5.466 -0.4087 -0.8923 -0.4350
  141MOL0     C18523   2.721   5.212   5.453  0.2352 -0.0443  0.0738
  141MOL0    Cl18524   2.638   5.341   5.356 -0.1277  0.0001  0.1632
  141MOL0     C18525   3.644   5.841   5.776  0.2610 -0.1093  0.6972
  141MOL0     C18526   3.766   5.900   5.776 -0.1689 -0.4609 -0.4308
  141MOL0     O18527   4.103   5.787   5.892  0.7476 -0.3748  0.1050
  141MOL0     C18528   4.244   6.026   5.655  0.1164  0.8172 -0.0554
  141MOL0     C18529   4.360   6.092   5.639 -0.3432  0.0713 -0.1288
  141MOL0     N18530   5.032   6.018   5.917 -0.1418  0.0707 -0.2047
  141MOL0     N18531   5.139   5.950   5.904 -0.0292 -0.0989 -0.5883
  141MOL0     C18532   6.454   5.801   5.883 -0.3971  0.7000  0.8460
  141MOL0     C18533   6.589   5.771   5.918  0.0945  0.0002 -0.3733
  141MOL0     C18534   6.993   5.529   5.962 -0.4212  0.1120  0.1763
  141MOL0     C18535   7.054   5.649   5.952  0.2054 -0.4421 -0.4421
  141MOL0     C18536   7.183   5.669   5.997 -0.1377  0.2059  0.2819
  141MOL0     C18537   7.262   5.564   6.034  0.4589  0.0536 -0.2944
  141MOL0     O18538   7.393   5.601   6.061 -0.1361 -0.2033  0.1694
  141MOL0     C18539   7.467   5.513   6.141  0.4993  0.2714  0.2798
  141MOL0     C18540   7.581   5.585   6.222 -0.1077 -0.2046 -0.1242
  141MOL0     C18541   7.624   5.718   6.154 -0.4011  0.0035  0.0711
  141MOL0     C18542   7.767   5.762   6.208  0.4068  0.2815 -0.2561
  141MOL0     C18543   7.877   5.725   6.125 -0.4084 -0.0323 -0.3751
  141MOL0     C18544   7.968   5.687   6.050 -0.4033  0.7953  0.2859
  141MOL0     C18545   7.206   5.437   6.041  0.3726 -0.0728  0.0675
  141MOL0     C18546   7.069   5.425   6.018 -0.5811 -0.2141 -0.4889
  141MOL0     H18547   6.575   5.427   5.912 -2.2224 -0.2045 -1.8510
  141MOL0     H18548   6.341   5.481   5.859 -0.3906  0.5329 -1.9715
  141MOL0     H18549   6.197   5.888   5.930 -2.4717  1.1863  0.6504
  141MOL0     H18550   6.108   5.746   5.992  1.2948  1.6045  1.3070
  141MOL0     H18551   5.990   5.767   5.752 -1.7563  1.4779 -0.3551
  141MOL0     H18552   6.073   5.922   5.736 -1.6356  1.6521 -0.4783
  141MOL0     H18553   5.864   5.995   5.823 -2.2570  0.9571  3.1070
  141MOL0     H18554   5.957   5.990   5.967 -2.4227 -0.6007  1.0587
  141MOL0     H18555   5.816   5.739   5.862  1.7163  0.3204 -1.9131
  141MOL0     H18556   5.872   5.770   6.026  0.2831  2.8889  0.8339
  141MOL0     H18557   5.712   5.972   6.044  0.3089  0.1803  0.5342
  141MOL0     H18558   5.650   5.807   6.055  0.5513 -0.3976 -1.1302
  141MOL0     H18559   5.579   5.791   5.826  0.0910 -0.6366 -0.0575
  141MOL0     H18560   5.645   5.958   5.797 -0.2896  1.1613 -0.3172
  141MOL0     H18561   5.428   5.887   5.987  0.8692  0.5223 -0.4665
  141MOL0     H18562   5.501   6.045   5.978  1.4489 -0.6337  1.2311
  141MOL0     H18563   5.361   5.915   5.733 -1.3106 -0.4791  0.1934
  141MOL0     H18564   5.413   6.082   5.749  0.6320 -0.7354  0.1193
  141MOL0     H18565   5.217   6.254   5.806  0.2195 -0.2795 -1.2701
  141MOL0     H18566   4.995   6.341   5.951  0.6036 -0.7793  1.1181
  141MOL0     H18567   4.868   6.212   5.954  3.0075 -2.8660  2.7964
  141MOL0     H18568   4.982   6.322   5.686 -0.6326 -0.1076 -1.1659
  141MOL0     H18569   4.849   6.396   5.770  0.5307  0.8829 -0.1931
  141MOL0     H18570   4.756   6.260   5.597 -1.1773 -1.7121 -0.4120
  141MOL0     H18571   4.833   6.116   5.651  0.2510  0.3169 -0.1764
  141MOL0     H18572   4.655   6.266   5.841  0.6466 -0.9102  1.8349
  141MOL0     H18573   4.715   6.099   5.847  0.0686  1.4308  1.9797
  141MOL0     H18574   4.528   6.037   5.918 -0.2267  1.6518  0.1422
  141MOL0     H18575   4.307   5.908   5.968 -0.8051 -0.1290 -1.0285
  141MOL0     H18576   3.967   5.633   5.701  0.3261  0.1702 -1.9892
  141MOL0     H18577   3.743   5.524   5.693  0.6974  0.7733 -1.5591
  141MOL0     H18578   3.504   5.466   5.836  1.1406  0.2988  0.8100
  141MOL0     H18579   3.528   5.455   5.660 -3.0600  1.2218 -2.7464
  141MOL0     H18580   3.284   5.516   5.821 -0.5812  1.3120 -0.8164
  141MOL0     H18581   3.311   5.373   5.728  0.3139 -0.9158  0.2923
  141MOL0     H18582   3.324   5.508   5.504  0.5903  2.5827 -0.9340
  141MOL0     H18583   3.291   5.650   5.598  0.0303 -0.6394  0.1826
  141MOL0     H18584   3.076   5.559   5.670  1.4512  3.6660 -1.4154
  141MOL0     H18585   3.079   5.591   5.499  0.8453  1.8436  0.4938
  141MOL0     H18586   3.085   5.326   5.641 -3.2030  4.5325  4.0899
  141MOL0     H18587   3.128   5.349   5.463  0.2110  0.2959  0.8253
  141MOL0     H18588   2.890   5.442   5.435  0.5122  1.4919  0.0715
  141MOL0     H18589   2.865   5.393   5.614  0.8670 -0.1685  1.0095
  141MOL0     H18590   2.912   5.218   5.364 -2.2747  1.6657 -1.5924
  141MOL0     H18591   2.922   5.169   5.541  0.2691  2.5584  2.2405
  141MOL0     H18592   2.674   5.211   5.552 -0.5520  2.0681 -0.2229
  141MOL0     H18593   2.701   5.110   5.420  2.5050 -0.8663  1.0530
  141MOL0     H18594   3.560   5.908   5.787  0.5244  0.1750  1.0191
  141MOL0     H18595   3.777   6.004   5.808 -0.6403 -0.4524 -0.2977
  141MOL0     H18596   4.171   6.027   5.575  0.6932 -2.5986 -0.7870
  141MOL0     H18597   4.388   6.143   5.548 -0.6832 -2.6852 -1.9127
  141MOL0     H18598   6.432   5.906   5.865  3.8866  1.9477  1.5817
  141MOL0     H18599   6.657   5.855   5.928 -0.3204  0.4328 -1.0655
  141MOL0     H18600   6.996   5.731   5.910  0.8812  0.1037 -0.3323
  141MOL0     H18601   7.216   5.772   6.007 -1.7455  0.6650  1.1272
  141MOL0     H18602   7.506   5.437   6.073 -5.0041 -1.3026 -1.6368
  141MOL0     H18603   7.402   5.455   6.206  0.3459  0.5600  0.3861
  141MOL0     H18604   7.545   5.612   6.321  0.2182  0.1565 -0.1050
  141MOL0     H18605   7.664   5.514   6.219 -0.1368 -0.2222 -2.3434
  141MOL0     H18606   7.546   5.792   6.172 -1.8674 -0.7010 -2.7835
  141MOL0     H18607   7.625   5.691   6.048 -0.5259 -1.6654  0.4577
  141MOL0     H18608   7.766   5.870   6.225  3.1530  0.0308  2.2110
  141MOL0     H18609   7.793   5.718   6.304  2.4205  0.3210 -0.7517
  141MOL0     H18610   8.050   5.659   5.987 -0.8426 -1.9383  0.8265
  141MOL0     H18611   7.269   5.353   6.071  0.5740 -0.3239 -1.0083
  141MOL0     H18612   7.021   5.330   6.037  2.4677 -1.8696 -0.4928
  142MOL0     O18613   6.479   1.943   6.586 -0.7042  0.3839 -0.2014
  142MOL0     C18614   6.541   1.990   6.489  0.8744 -1.1037 -0.6730
  142MOL0     O18615   6.505   1.977   6.356  0.3311  0.6063  0.5760
  142MOL0     C18616   6.389   1.911   6.327 -0.5036 -0.3535  0.0354
  142MOL0     C18617   6.283   1.986   6.351  0.2229 -0.9184 -0.8986
  142MOL0     C18618   6.154   1.940   6.311 -0.5139 -0.5776  0.5181
  142MOL0     C18619   6.130   1.811   6.261 -0.0586 -0.5587 -0.4474
  142MOL0     O18620   5.993   1.777   6.248 -0.1827  0.1863  0.0980
  142MOL0     C18621   5.966   1.663   6.176  0.7405 -0.1962 -0.0214
  142MOL0     C18622   5.816   1.653   6.148 -0.0695  0.7791 -0.4628
  142MOL0     C18623   5.770   1.756   6.054  0.3292 -0.0345  0.1989
  142MOL0     C18624   5.619   1.757   6.041  1.0203 -0.2710  0.0203
  142MOL0     C18625   5.554   1.871   5.950  0.1741 -0.1971 -0.1433
  142MOL0     C18626   5.403   1.890   5.948  0.3300 -0.6987 -0.0437
  142MOL0     C18627   5.334   1.752   5.931  0.5506  0.5253 -0.1330
  142MOL0     C18628   5.182   1.765   5.896  0.5975 -0.8827 -0.3164
  142MOL0     N18629   5.156   1.829   5.764  0.3214  0.1383 -0.1839
  142MOL0     C18630   5.152   1.758   5.647 -0.1333  0.2460 -0.0667
  142MOL0     C18631   5.120   1.852   5.559  0.4819  0.6838  0.9188
  142MOL0     C18632   5.109   1.836   5.408 -0.5305 -0.0698  0.5587
  142MOL0     C18633   5.235   1.767   5.350  0.2218 -0.3072  0.3168
  142MOL0     C18634   5.216   1.704   5.203  0.0003  0.5792 -0.3605
  142MOL0     C18635   5.221   1.818   5.099 -0.8228 -0.3999 -0.1301
  142MOL0     O18636   5.351   1.891   5.101  0.4577  0.3469  0.6834
  142MOL0     C18637   5.443   1.846   5.012  0.4393  0.4352 -0.8069
  142MOL0     C18638   5.424   1.863   4.874  0.3587  0.6183  0.3775
  142MOL0     C18639   5.515   1.816   4.784 -0.3696  0.2978  0.1257
  142MOL0     C18640   5.635   1.753   4.831  0.2168  0.2197 -0.0794
  142MOL0     C18641   5.721   1.694   4.738 -0.0624  0.0603  0.8491
  142MOL0     O18642   5.831   1.639   4.792  0.2737  0.0824 -0.2855
  142MOL0     C18643   5.897   1.529   4.744  0.3806 -1.5489 -0.6315
  142MOL0     C18644   6.030   1.523   4.779 -0.3233  0.2764 -0.4430
  142MOL0     C18645   6.121   1.434   4.726  1.0934 -0.5659  0.5817
  142MOL0     C18646   6.070   1.328   4.649  0.8651 -0.2655  0.1088
  142MOL0     O18647   6.158   1.234   4.597  0.3562 -0.2923 -0.5792
  142MOL0     C18648   6.281   1.277   4.546  0.7518  0.5598 -0.0428
  142MOL0     C18649   6.336   1.157   4.466  0.5830  0.4673 -0.7431
  142MOL0     C18650   6.459   1.205   4.383  0.5384  0.2830 -0.3218
  142MOL0     C18651   6.521   1.085   4.318 -0.0181  0.1478  0.5789
  142MOL0     C18652   6.651   1.120   4.235  1.0849  0.1877  0.8779
  142MOL0     C18653   6.715   0.996   4.159  0.6661  0.3774 -0.4233
  142MOL0     C18654   6.845   1.025   4.097 -0.1873 -0.3435  0.2540
  142MOL0     C18655   6.952   1.063   4.191  0.0976  0.8058 -0.2063
  142MOL0    Cl18656   6.964   0.965   4.336 -0.2423 -0.1716 -0.3157
  142MOL0     C18657   5.932   1.328   4.622 -0.3913  0.8287 -0.0042
  142MOL0     C18658   5.845   1.427   4.657 -0.3321 -0.9669  0.9765
  142MOL0     O18659   5.695   1.687   4.621 -0.3521 -0.3049  0.5976
  142MOL0     C18660   5.657   1.743   4.971  0.2401  0.2306  0.0894
  142MOL0     C18661   5.561   1.787   5.061 -0.5261 -0.5632 -0.0362
  142MOL0     N18662   5.100   1.976   5.616 -0.2095 -0.0565  0.5825
  142MOL0     N18663   5.124   1.964   5.741  0.0613 -0.0746  0.0823
  142MOL0     C18664   6.248   1.732   6.239  0.2416 -0.4106  0.5211
  142MOL0     C18665   6.374   1.786   6.266  0.0256  0.1659 -0.1371
  142MOL0     C18666   6.668   2.062   6.504  0.6576  0.0509  0.5190
  142MOL0     C18667   6.720   2.068   6.634 -0.1366 -0.1618  0.1331
  142MOL0     C18668   6.844   2.126   6.663  0.2424 -0.8783  0.0494
  142MOL0     C18669   6.924   2.173   6.558  0.0776 -1.0192  0.1278
  142MOL0     O18670   7.049   2.227   6.595  0.1271 -0.2606  0.1641
  142MOL0     C18671   7.153   2.248   6.504 -0.6674 -0.8388  0.6661
  142MOL0     C18672   7.263   2.338   6.572 -0.6231 -0.3116 -0.6549
  142MOL0     C18673   7.406   2.284   6.564 -0.3262  0.1596  0.5132
  142MOL0     C18674   7.439   2.175   6.660  0.7972  0.1541 -0.3017
  142MOL0     C18675   7.466   2.206   6.792  0.7389 -0.5196  0.0299
  142MOL0     C18676   7.496   2.227   6.910  0.4517  0.8405  0.1291
  142MOL0     C18677   6.877   2.160   6.426 -0.7991  0.1209  0.8491
  142MOL0     C18678   6.753   2.103   6.395 -0.5578  0.4396 -0.3575
  142MOL0     H18679   6.297   2.085   6.393 -0.8820 -0.3342 -1.8413
  142MOL0     H18680   6.069   2.004   6.330  0.6387  1.9600 -2.1173
  142MOL0     H18681   6.002   1.585   6.244  0.6159  0.1900  0.4936
  142MOL0     H18682   6.013   1.662   6.077 -0.7081  2.1777 -0.8179
  142MOL0     H18683   5.751   1.652   6.236  0.8555  1.9427  0.2671
  142MOL0     H18684   5.809   1.553   6.105  4.5205  0.6049 -1.2790
  142MOL0     H18685   5.813   1.736   5.955 -1.5337 -1.2742 -0.4100
  142MOL0     H18686   5.798   1.856   6.087 -2.0456 -0.1131  2.6998
  142MOL0     H18687   5.590   1.660   6.001  0.8306  0.8207 -2.7204
  142MOL0     H18688   5.567   1.759   6.137 -0.2554  0.7332 -0.6428
  142MOL0     H18689   5.586   1.844   5.849 -2.4051 -0.6742 -0.9023
  142MOL0     H18690   5.598   1.967   5.981 -0.5037  0.0491  0.0819
  142MOL0     H18691   5.378   1.946   5.858  0.6152  1.0222  0.8883
  142MOL0     H18692   5.368   1.929   6.045  1.9505 -3.4461  1.7831
  142MOL0     H18693   5.377   1.688   5.853  0.7731  1.3572 -0.7111
  142MOL0     H18694   5.346   1.695   6.023 -1.7595  0.1325 -0.0059
  142MOL0     H18695   5.126   1.822   5.971  1.7716  1.6174 -1.2188
  142MOL0     H18696   5.150   1.660   5.903  0.1551 -0.6904  0.7888
  142MOL0     H18697   5.165   1.653   5.627 -2.5928 -0.6572  2.3507
  142MOL0     H18698   5.101   1.937   5.367  0.6815 -0.4398 -0.6321
  142MOL0     H18699   5.022   1.778   5.376 -0.3284  0.1324 -0.3968
  142MOL0     H18700   5.276   1.695   5.422  0.8688 -0.5094 -0.2419
  142MOL0     H18701   5.320   1.835   5.343  0.0576 -0.0505  0.8385
  142MOL0     H18702   5.299   1.636   5.181 -1.2410 -1.4661  0.8957
  142MOL0     H18703   5.125   1.644   5.194  1.8846 -2.2960 -1.6152
  142MOL0     H18704   5.149   1.893   5.133  2.1424  1.5141  2.4377
  142MOL0     H18705   5.200   1.785   4.997 -0.7316  2.8280 -1.2878
  142MOL0     H18706   5.337   1.920   4.843  0.3232  0.5940  0.4319
  142MOL0     H18707   5.502   1.830   4.677  2.0175 -0.3678 -0.3098
  142MOL0     H18708   6.055   1.594   4.857 -0.3729  1.8326 -1.7996
  142MOL0     H18709   6.225   1.450   4.752  0.6279  1.7935  1.2684
  142MOL0     H18710   6.350   1.314   4.623  1.0525  1.6231 -0.7976
  142MOL0     H18711   6.264   1.358   4.474 -0.3944 -0.9065 -1.5022
  142MOL0     H18712   6.248   1.138   4.403 -0.8518  1.5673  0.8429
  142MOL0     H18713   6.363   1.068   4.524 -0.7528  0.1270 -0.6197
  142MOL0     H18714   6.539   1.238   4.450 -0.1080 -2.6131  2.0904
  142MOL0     H18715   6.424   1.279   4.310 -2.2220  1.1999  1.7673
  142MOL0     H18716   6.555   1.007   4.386 -0.7857  1.6741  2.8133
  142MOL0     H18717   6.439   1.042   4.260  1.2965 -1.7364  0.0216
  142MOL0     H18718   6.731   1.153   4.303  1.1109  0.3193  0.7846
  142MOL0     H18719   6.631   1.202   4.166  0.8356  0.0820  0.8235
  142MOL0     H18720   6.640   0.959   4.089 -0.2001 -0.4944  0.9290
  142MOL0     H18721   6.733   0.917   4.233  1.4886  1.2275  0.3173
  142MOL0     H18722   6.876   0.934   4.045  0.4167 -0.3187  0.5609
  142MOL0     H18723   6.826   1.103   4.022  1.1988  0.0325  0.2602
  142MOL0     H18724   6.917   1.161   4.224 -0.6778  0.2380  0.7300
  142MOL0     H18725   7.048   1.068   4.139  1.5047  0.0759  2.1730
  142MOL0     H18726   5.903   1.242   4.562 -3.9305  0.6199  1.7213
  142MOL0     H18727   5.741   1.421   4.625  0.3064  0.7882 -1.8369
  142MOL0     H18728   5.756   1.708   4.999 -0.1421 -2.4717 -1.6010
  142MOL0     H18729   5.569   1.764   5.167 -2.2956  0.0401  0.2631
  142MOL0     H18730   6.233   1.627   6.213  0.4583  0.4076 -3.6135
  142MOL0     H18731   6.463   1.727   6.245 -0.3891 -1.5224  2.4491
  142MOL0     H18732   6.659   2.042   6.720  0.4050 -0.1104  0.5417
  142MOL0     H18733   6.876   2.129   6.767 -1.4037 -1.2690  0.6044
  142MOL0     H18734   7.127   2.296   6.409 -3.5862  1.1163  2.3043
  142MOL0     H18735   7.198   2.155   6.469  2.4034  0.8052 -0.1326
  142MOL0     H18736   7.278   2.422   6.505  2.4333 -0.8085 -0.7687
  142MOL0     H18737   7.241   2.365   6.676  0.9777 -1.0007 -0.0977
  142MOL0     H18738   7.477   2.366   6.578 -1.4927  1.5444 -1.3229
  142MOL0     H18739   7.429   2.253   6.462  1.6539  1.0949  0.6141
  142MOL0     H18740   7.355   2.105   6.658 -0.5217  1.6471  0.1645
  142MOL0     H18741   7.528   2.124   6.623  2.2491  0.1790  2.8355
  142MOL0     H18742   7.508   2.243   7.016 -1.5613 -2.6488  1.0459
  142MOL0     H18743   6.939   2.195   6.344  1.0885 -0.6390  1.9197
  142MOL0     H18744   6.729   2.095   6.289  1.1350  2.4342 -0.9476
  143MOL0     O18745   4.580   6.145   9.229 -0.7151  0.3517  0.4300
  143MOL0     C18746   4.560   6.170   9.110  0.0129  0.4569  0.2745
  143MOL0     O18747   4.499   6.084   9.021  0.4357  0.7822 -0.5838
  143MOL0     C18748   4.438   5.961   9.046 -0.5420 -0.4977  0.7909
  143MOL0     C18749   4.360   5.917   8.943 -0.0511 -0.2628 -0.9795
  143MOL0     C18750   4.305   5.789   8.937  0.8354  0.5662  0.0772
  143MOL0     C18751   4.316   5.702   9.043 -0.2168  0.0779 -0.0712
  143MOL0     O18752   4.257   5.579   9.034  0.2004  0.4226  1.0774
  143MOL0     C18753   4.116   5.575   9.055  1.0368  0.5869  0.2220
  143MOL0     C18754   4.081   5.441   9.113  0.2159 -0.1385  0.5050
  143MOL0     C18755   3.929   5.419   9.129  0.5373 -0.1072 -0.2983
  143MOL0     C18756   3.904   5.284   9.195 -0.4806 -0.0070 -1.0809
  143MOL0     C18757   3.756   5.239   9.204  0.0991 -0.0614  0.6978
  143MOL0     C18758   3.742   5.155   9.329  1.9163  0.9884 -0.6591
  143MOL0     C18759   3.597   5.112   9.360 -0.0734  0.2611  0.4484
  143MOL0     C18760   3.547   4.995   9.268  0.0684 -0.5517 -0.3499
  143MOL0     N18761   3.399   4.962   9.303 -0.1937  0.4104  0.3384
  143MOL0     C18762   3.350   4.929   9.426 -0.0399 -0.6030 -0.7794
  143MOL0     C18763   3.219   4.919   9.416 -0.6114 -0.3196  0.7406
  143MOL0     C18764   3.111   4.885   9.528  0.2378  1.9894  0.4689
  143MOL0     C18765   3.034   4.757   9.490 -0.0102  0.1768  0.5248
  143MOL0     C18766   3.038   4.644   9.589 -0.3543 -0.2340  0.0740
  143MOL0     C18767   2.939   4.534   9.545  0.8083  0.7688  0.2967
  143MOL0     O18768   2.944   4.418   9.637  0.6838 -0.4710 -0.4061
  143MOL0     C18769   2.854   4.314   9.636 -0.8277 -0.3271  0.0669
  143MOL0     C18770   2.737   4.301   9.562 -0.1875 -0.4855 -0.3967
  143MOL0     C18771   2.654   4.197   9.572  0.4681  0.5989 -0.0922
  143MOL0     C18772   2.697   4.088   9.650 -0.2509  1.1503  0.5157
  143MOL0     C18773   2.616   3.965   9.669 -0.4337 -0.2499 -0.6952
  143MOL0     O18774   2.659   3.869   9.759  0.5370 -0.1005 -0.5133
  143MOL0     C18775   2.579   3.765   9.794 -0.7291  0.0164 -0.2696
  143MOL0     C18776   2.634   3.639   9.792  0.5823  0.3511  0.4389
  143MOL0     C18777   2.564   3.533   9.837  0.6391 -0.3911  0.0813
  143MOL0     C18778   2.433   3.547   9.890 -0.6606  0.8865 -0.3545
  143MOL0     O18779   2.372   3.432   9.938  0.3294  0.8674 -0.2048
  143MOL0     C18780   2.252   3.439  10.028 -0.0596  0.9200  0.7343
  143MOL0     C18781   2.233   3.302  10.095  0.0161 -0.6025 -0.0208
  143MOL0     C18782   2.097   3.304  10.177 -1.3323 -0.3129  0.3705
  143MOL0     C18783   1.975   3.282  10.080 -0.2691  0.6297  0.0610
  143MOL0     C18784   1.838   3.313  10.139  1.2583  0.7938 -0.4517
  143MOL0     C18785   1.770   3.214  10.229  0.7298 -0.4608  0.0487
  143MOL0     C18786   1.637   3.270  10.278  0.3973  0.4615 -0.6280
  143MOL0     C18787   1.603   3.180  10.393 -0.1891 -0.5009  0.5392
  143MOL0    Cl18788   1.437   3.177  10.417 -0.5833  0.5362  0.0461
  143MOL0     C18789   2.381   3.672   9.895  0.3625  0.0725 -0.3558
  143MOL0     C18790   2.456   3.781   9.856  0.1841  0.0143 -0.3201
  143MOL0     O18791   2.512   3.952   9.600  0.0318  0.4288  0.1280
  143MOL0     C18792   2.818   4.094   9.725 -1.1610  0.2575 -0.5074
  143MOL0     C18793   2.888   4.210   9.718 -0.4686  0.7442  0.7534
  143MOL0     N18794   3.195   4.924   9.281  0.1843 -0.3031  0.3875
  143MOL0     N18795   3.302   4.948   9.208  0.6459 -0.0135  0.3627
  143MOL0     C18796   4.394   5.743   9.151 -0.1022  0.5211  0.0002
  143MOL0     C18797   4.456   5.870   9.152  0.3953  0.2190  0.4934
  143MOL0     C18798   4.593   6.310   9.072  0.5432 -0.1490  0.2313
  143MOL0     C18799   4.570   6.352   8.946  0.4582 -0.2354  0.2100
  143MOL0     C18800   4.609   6.475   8.886  0.5622 -0.2371 -0.0803
  143MOL0     C18801   4.676   6.570   8.967  0.1111 -0.0610  0.5898
  143MOL0     O18802   4.708   6.703   8.930 -0.1699  0.8640  0.4107
  143MOL0     C18803   4.723   6.738   8.793 -0.5993  0.0198 -0.4465
  143MOL0     C18804   4.836   6.656   8.729  0.3808  0.1584 -0.3339
  143MOL0     C18805   4.861   6.691   8.580 -0.1922  0.6568  0.0451
  143MOL0     C18806   4.745   6.659   8.489  0.4605  0.1538  0.2008
  143MOL0     C18807   4.701   6.524   8.497  0.3145  0.2614 -0.0544
  143MOL0     C18808   4.697   6.406   8.504 -0.3222 -0.2385 -0.0610
  143MOL0     C18809   4.705   6.529   9.096 -0.1403  0.1120 -0.4382
  143MOL0     C18810   4.679   6.403   9.151  0.3557  0.8219  0.8606
  143MOL0     H18811   4.335   5.985   8.861  1.4462  0.2718 -1.0278
  143MOL0     H18812   4.239   5.766   8.854  0.2547  2.4329 -0.0296
  143MOL0     H18813   4.066   5.592   8.960 -1.0882  0.9674  1.3577
  143MOL0     H18814   4.092   5.657   9.124  3.1043  2.4127 -1.0770
  143MOL0     H18815   4.133   5.423   9.207 -3.0160 -2.7280  2.0001
  143MOL0     H18816   4.121   5.370   9.040 -0.2010  0.3682 -0.2346
  143MOL0     H18817   3.890   5.415   9.027  2.8620 -1.4894 -1.2258
  143MOL0     H18818   3.895   5.495   9.199 -0.2194 -0.3261 -0.4222
  143MOL0     H18819   3.950   5.209   9.130  2.7438  2.5173 -1.9234
  143MOL0     H18820   3.965   5.274   9.286  0.0797  2.4648 -1.1220
  143MOL0     H18821   3.731   5.184   9.112  0.6396 -1.0342  1.1197
  143MOL0     H18822   3.684   5.321   9.214  1.3393  0.9141  1.7298
  143MOL0     H18823   3.777   5.224   9.406 -0.3673  0.2075  1.1768
  143MOL0     H18824   3.799   5.062   9.325 -1.6478 -1.3938 -0.2951
  143MOL0     H18825   3.592   5.083   9.465  1.3237 -0.1267  0.4350
  143MOL0     H18826   3.534   5.200   9.342  1.2224  1.0876 -0.2510
  143MOL0     H18827   3.604   4.902   9.274  1.6234  0.3907 -0.1211
  143MOL0     H18828   3.547   5.031   9.165  2.0486 -1.8354 -0.8577
  143MOL0     H18829   3.410   4.925   9.516 -1.2024 -0.6289  0.0264
  143MOL0     H18830   3.038   4.964   9.549  0.8023  2.3750  1.0138
  143MOL0     H18831   3.170   4.873   9.619  0.6483 -0.0710 -0.0111
  143MOL0     H18832   3.070   4.718   9.394  0.7208  0.9952  0.4572
  143MOL0     H18833   2.934   4.790   9.459  0.6811  3.3908  1.3658
  143MOL0     H18834   3.136   4.597   9.603 -0.8005 -1.9918 -2.1624
  143MOL0     H18835   3.001   4.696   9.678  0.5684  1.9223 -0.7369
  143MOL0     H18836   2.969   4.505   9.444 -0.7814  0.8285 -0.2117
  143MOL0     H18837   2.836   4.569   9.545 -0.1789 -1.8507  1.2825
  143MOL0     H18838   2.705   4.380   9.494 -0.1815 -1.3163 -1.3871
  143MOL0     H18839   2.554   4.192   9.530 -0.0554 -0.8690  1.2184
  143MOL0     H18840   2.723   3.613   9.737  1.2044  0.1826  1.5021
  143MOL0     H18841   2.608   3.434   9.835 -1.7134 -1.6539  3.0259
  143MOL0     H18842   2.163   3.457   9.967 -0.0612  0.1277  0.4977
  143MOL0     H18843   2.275   3.516  10.102 -0.0801 -0.2918  2.0422
  143MOL0     H18844   2.321   3.284  10.156  1.0011  0.0724 -1.1813
  143MOL0     H18845   2.226   3.223  10.020  5.0770 -0.6663 -0.7549
  143MOL0     H18846   2.094   3.398  10.234 -2.6507  2.3904 -3.7349
  143MOL0     H18847   2.108   3.217  10.242  0.5237 -1.0175 -0.8290
  143MOL0     H18848   1.993   3.336   9.987  0.7376 -1.6910 -1.1686
  143MOL0     H18849   1.978   3.176  10.054  0.1871  1.1465 -2.2055
  143MOL0     H18850   1.767   3.316  10.057  0.0042 -3.1026  0.2591
  143MOL0     H18851   1.838   3.408  10.193 -3.4335  0.0359  1.3753
  143MOL0     H18852   1.837   3.206  10.315  1.9118 -0.2240 -0.8041
  143MOL0     H18853   1.750   3.121  10.175 -1.2701  1.1519 -2.2468
  143MOL0     H18854   1.646   3.370  10.322 -4.8439  1.5586 -1.3760
  143MOL0     H18855   1.564   3.277  10.197  0.1682  1.1243 -0.3751
  143MOL0     H18856   1.645   3.223  10.484 -0.0471 -1.5935  1.0097
  143MOL0     H18857   1.638   3.078  10.374  0.4379 -0.1240 -0.4352
  143MOL0     H18858   2.279   3.687   9.930  0.1384 -0.8260 -0.6061
  143MOL0     H18859   2.398   3.872   9.855 -2.6216 -1.6264 -2.6525
  143MOL0     H18860   2.846   4.012   9.792  0.2474 -0.4135 -1.8596
  143MOL0     H18861   2.986   4.215   9.764  0.7709  1.2838 -1.7768
  143MOL0     H18862   4.404   5.680   9.239  1.5348  0.7957  0.0400
  143MOL0     H18863   4.521   5.889   9.238  2.3474 -1.8548 -0.4296
  143MOL0     H18864   4.519   6.284   8.879  0.9094 -0.6177  0.2481
  143MOL0     H18865   4.595   6.514   8.786  1.0242  1.8057  0.6080
  143MOL0     H18866   4.753   6.842   8.788 -0.1327  0.0001  1.4393
  143MOL0     H18867   4.626   6.734   8.741 -0.7428  0.1906 -0.1916
  143MOL0     H18868   4.932   6.683   8.775  2.2006 -0.4389 -3.4910
  143MOL0     H18869   4.824   6.548   8.724 -0.9478  0.3237 -4.2702
  143MOL0     H18870   4.949   6.635   8.548 -1.2270  0.6591 -3.1006
  143MOL0     H18871   4.900   6.793   8.572  2.6204 -0.3119  0.0612
  143MOL0     H18872   4.662   6.723   8.518  0.6271  1.0717 -1.2327
  143MOL0     H18873   4.776   6.692   8.389 -0.2288 -2.0940 -0.8061
  143MOL0     H18874   4.690   6.299   8.497 -0.5952 -0.3480  1.6157
  143MOL0     H18875   4.758   6.602   9.156  2.4153 -1.4382 -0.7123
  143MOL0     H18876   4.722   6.367   9.244  2.1233 -0.9186 -0.5292
  144MOL0     O18877   5.099   9.880  10.526  0.9003 -0.8565 -0.1694
  144MOL0     C18878   5.154   9.878  10.421  0.3162 -0.0821 -0.1305
  144MOL0     O18879   5.085   9.886  10.308  0.0458 -0.6422 -0.1441
  144MOL0     C18880   4.947   9.901  10.298 -0.0363 -0.0195  0.2283
  144MOL0     C18881   4.867   9.986  10.388  0.3279 -0.2667  0.0328
  144MOL0     C18882   4.731   9.997  10.356  0.3512 -0.6416 -0.4299
  144MOL0     C18883   4.665   9.916  10.267 -0.3627  0.2778  0.2233
  144MOL0     O18884   4.526   9.902  10.253  0.5651 -0.0164  0.0774
  144MOL0     C18885   4.431   9.955  10.339 -0.2489  0.5629  1.0968
  144MOL0     C18886   4.372  10.076  10.270  0.6898  0.1133 -0.0061
  144MOL0     C18887   4.246  10.043  10.183  0.1015  0.6120 -1.1221
  144MOL0     C18888   4.262   9.938  10.076  0.5291 -0.5342  0.9094
  144MOL0     C18889   4.133   9.893  10.018  1.0775 -1.2024  0.4517
  144MOL0     C18890   4.148   9.798   9.893 -0.2626  0.9222  0.1544
  144MOL0     C18891   4.014   9.757   9.841  0.1996  0.2037 -0.4294
  144MOL0     C18892   4.027   9.656   9.729 -0.2104 -0.4540  0.7340
  144MOL0     N18893   3.891   9.647   9.678  0.2204 -0.0310 -0.0797
  144MOL0     C18894   3.823   9.746   9.618  0.1126 -0.3785 -0.5370
  144MOL0     C18895   3.696   9.693   9.609 -0.2021 -0.0619  0.0757
  144MOL0     C18896   3.574   9.760   9.546 -0.6012  0.1233 -0.6986
  144MOL0     C18897   3.607   9.900   9.494 -0.0447 -0.0122  1.0071
  144MOL0     C18898   3.614  10.022   9.598  0.5682  0.7944  0.1676
  144MOL0     C18899   3.691  10.141   9.535 -0.3946 -0.0688  0.0653
  144MOL0     O18900   3.828  10.105   9.507  0.2158  0.4526  0.5616
  144MOL0     C18901   3.937  10.129   9.592  0.4714 -0.0660  0.2194
  144MOL0     C18902   4.059  10.099   9.532 -0.6314  0.2440  0.0754
  144MOL0     C18903   4.184  10.122   9.594 -0.2617 -0.9346 -0.2700
  144MOL0     C18904   4.189  10.183   9.721 -0.1384  0.5582  0.7944
  144MOL0     C18905   4.312  10.214   9.788  0.4067  0.0705  0.0403
  144MOL0     O18906   4.422  10.208   9.713 -0.8534  0.4634  0.5282
  144MOL0     C18907   4.549  10.195   9.768  0.1616  0.2339 -0.8441
  144MOL0     C18908   4.588  10.150   9.897 -0.2505  0.2740 -0.0977
  144MOL0     C18909   4.718  10.168   9.943 -0.9555  0.3206  0.4867
  144MOL0     C18910   4.821  10.218   9.859  0.5561  0.2705  0.2034
  144MOL0     O18911   4.956  10.214   9.890  0.1143 -0.7331  0.0207
  144MOL0     C18912   4.991  10.109   9.981 -0.3923  0.0889  0.4367
  144MOL0     C18913   5.140  10.106   9.988  0.9685 -1.1887  0.3703
  144MOL0     C18914   5.195  10.228  10.057  0.2817  0.6611 -0.1162
  144MOL0     C18915   5.350  10.228  10.044  0.3897 -0.9125  0.5011
  144MOL0     C18916   5.394  10.365  10.092 -1.0736 -1.5944  0.2715
  144MOL0     C18917   5.548  10.391  10.083  0.4213 -0.0758 -0.4595
  144MOL0     C18918   5.627  10.271  10.029 -0.0700  0.6249 -0.6363
  144MOL0     C18919   5.774  10.298   9.999 -0.2510 -0.3750  0.7202
  144MOL0    Cl18920   5.854  10.144   9.981  0.4612  0.2338  0.1508
  144MOL0     C18921   4.787  10.240   9.727  0.6137 -0.3476 -0.7119
  144MOL0     C18922   4.652  10.244   9.689 -0.5655  0.4296 -0.0387
  144MOL0     O18923   4.305  10.254   9.902  0.4474 -0.6688 -0.0355
  144MOL0     C18924   4.068  10.220   9.783  0.4526  0.9531  0.7685
  144MOL0     C18925   3.939  10.188   9.723 -0.0635 -0.2021 -0.0027
  144MOL0     N18926   3.694   9.563   9.655  0.0298  0.7291 -0.0340
  144MOL0     N18927   3.811   9.533   9.695  0.5216  0.1414 -0.3313
  144MOL0     C18928   4.745   9.845  10.177  0.0951  0.2912  0.3181
  144MOL0     C18929   4.885   9.845  10.188 -1.1640  1.0637 -0.3779
  144MOL0     C18930   5.302   9.875  10.417  0.1361  0.1189 -0.5891
  144MOL0     C18931   5.363   9.909  10.294 -0.2141 -0.3593 -0.0091
  144MOL0     C18932   5.502   9.915  10.276  0.6535  0.2841  0.8929
  144MOL0     C18933   5.587   9.894  10.389 -0.3036 -0.6980  0.1999
  144MOL0     O18934   5.725   9.908  10.384 -0.2283 -1.1009 -0.0568
  144MOL0     C18935   5.788   9.923  10.253  0.7261 -0.2304  0.3176
  144MOL0     C18936   5.941   9.936  10.274  0.9065  0.0578 -0.1951
  144MOL0     C18937   5.981  10.071  10.334  0.4793  0.2342  0.6246
  144MOL0     C18938   6.132  10.096  10.327  0.2763  0.4034  0.2887
  144MOL0     C18939   6.162  10.166  10.195  0.2956  1.0482 -0.4993
  144MOL0     C18940   6.181  10.213  10.087  0.6407  0.5851 -0.7543
  144MOL0     C18941   5.528   9.860  10.515 -0.2134  0.0441 -0.1463
  144MOL0     C18942   5.387   9.852  10.531 -0.1784 -0.2768 -0.1088
  144MOL0     H18943   4.904  10.053  10.465  2.5588 -1.1307 -0.2186
  144MOL0     H18944   4.676  10.077  10.404  1.6169  0.3685 -0.5960
  144MOL0     H18945   4.476   9.982  10.434 -0.2475  1.5489  0.8258
  144MOL0     H18946   4.351   9.882  10.356 -0.9546  0.3791 -2.2245
  144MOL0     H18947   4.441  10.137  10.211  0.6829 -0.2682 -0.4170
  144MOL0     H18948   4.327  10.142  10.345 -1.1465  0.9369 -1.7298
  144MOL0     H18949   4.212  10.137  10.139  1.7882  0.0232 -3.9328
  144MOL0     H18950   4.170  10.007  10.254 -0.4245 -0.4429 -2.1767
  144MOL0     H18951   4.325   9.978   9.995 -0.7208 -0.6892 -0.1798
  144MOL0     H18952   4.308   9.850  10.121 -0.2027 -0.8188  1.1048
  144MOL0     H18953   4.072   9.979   9.992  0.5761 -1.3029  1.2682
  144MOL0     H18954   4.082   9.836  10.097 -0.4193 -1.2042 -0.4721
  144MOL0     H18955   4.206   9.707   9.912  0.2683  1.0188 -0.9437
  144MOL0     H18956   4.205   9.855   9.819 -1.7130  1.2011 -0.7808
  144MOL0     H18957   3.957   9.705   9.919  3.2342 -2.1417  0.4097
  144MOL0     H18958   3.965   9.851   9.815 -1.1908 -0.4942 -0.4112
  144MOL0     H18959   4.059   9.556   9.758  0.9234 -0.8285 -1.5888
  144MOL0     H18960   4.087   9.691   9.644 -0.1459  0.8664  1.2965
  144MOL0     H18961   3.855   9.845   9.587  0.2628  0.0841  1.0083
  144MOL0     H18962   3.500   9.759   9.626  2.0405  0.5982  1.9503
  144MOL0     H18963   3.543   9.695   9.464  1.2574 -2.6104  0.6429
  144MOL0     H18964   3.528   9.924   9.422 -2.3080 -2.3892  2.5072
  144MOL0     H18965   3.700   9.880   9.440 -0.1361 -2.3393  1.5807
  144MOL0     H18966   3.518  10.056   9.638 -0.9384 -3.8939  1.1663
  144MOL0     H18967   3.670   9.981   9.683 -1.1836  3.0233  2.5956
  144MOL0     H18968   3.693  10.224   9.606  0.1229 -1.1686  1.3926
  144MOL0     H18969   3.647  10.182   9.444 -2.6707 -1.4167  0.4675
  144MOL0     H18970   4.074  10.050   9.437  2.2684  1.9043 -0.4422
  144MOL0     H18971   4.276  10.098   9.542  1.4517  1.0147  1.6690
  144MOL0     H18972   4.511  10.117   9.965 -1.3280  1.3084 -0.7706
  144MOL0     H18973   4.728  10.136  10.046 -1.7708  0.6972  0.6961
  144MOL0     H18974   4.954  10.014   9.940  0.7425  0.5730 -1.9324
  144MOL0     H18975   4.950  10.133  10.079  0.4466 -2.0689  1.3802
  144MOL0     H18976   5.182  10.106   9.887  2.4673  2.2362  0.8498
  144MOL0     H18977   5.181  10.016  10.034  1.5561 -0.2658  1.7419
  144MOL0     H18978   5.167  10.215  10.162  0.3209  0.5762 -0.1166
  144MOL0     H18979   5.151  10.314  10.004 -2.0363 -1.1238 -1.3089
  144MOL0     H18980   5.393  10.147  10.103  0.9633 -0.2639  0.9883
  144MOL0     H18981   5.384  10.217   9.941  1.2618 -1.8948  0.8747
  144MOL0     H18982   5.363  10.396  10.192 -1.1312  1.9278 -0.7242
  144MOL0     H18983   5.346  10.431  10.019  1.8634  2.2802  1.4848
  144MOL0     H18984   5.582  10.401  10.187  0.4118 -1.4841 -0.3083
  144MOL0     H18985   5.565  10.488  10.034  1.1101  1.8277  3.1903
  144MOL0     H18986   5.624  10.196  10.109  1.1672  0.8448 -0.3563
  144MOL0     H18987   5.576  10.236   9.939 -2.3694  1.3009  0.3468
  144MOL0     H18988   5.821  10.363  10.073  1.2755  1.1865 -1.4962
  144MOL0     H18989   5.787  10.352   9.905  1.0215 -2.6187 -0.4746
  144MOL0     H18990   4.859  10.270   9.651 -0.5088 -0.4837 -1.8669
  144MOL0     H18991   4.621  10.261   9.587 -1.1033  1.7527  0.3212
  144MOL0     H18992   4.068  10.265   9.882  4.1753 -0.8266  1.7376
  144MOL0     H18993   3.850  10.209   9.780 -0.2431 -0.4672 -0.1817
  144MOL0     H18994   4.691   9.780  10.109  0.1970  1.2585 -0.7270
  144MOL0     H18995   4.945   9.785  10.120 -0.9991 -2.3723  2.4925
  144MOL0     H18996   5.302   9.919  10.204  0.4711 -0.4864 -0.4963
  144MOL0     H18997   5.535   9.951  10.179 -2.3399  1.9815  0.3530
  144MOL0     H18998   5.749  10.007  10.194 -0.6941 -0.1851  1.2870
  144MOL0     H18999   5.784   9.832  10.193 -1.1099 -1.3402  2.0194
  144MOL0     H19000   5.971   9.847  10.330 -2.0929 -1.1994 -0.3815
  144MOL0     H19001   5.986   9.946  10.175  0.4495 -0.0979 -0.4229
  144MOL0     H19002   5.951  10.083  10.438  2.3603  2.3966  0.9842
  144MOL0     H19003   5.939  10.151  10.272 -1.3884 -0.9626  0.2481
  144MOL0     H19004   6.151  10.172  10.404 -0.3041  1.0129 -0.1572
  144MOL0     H19005   6.194  10.008  10.343 -2.4404 -1.3506  2.0599
  144MOL0     H19006   6.183  10.261   9.991 -1.3479  1.0463 -0.6207
  144MOL0     H19007   5.602   9.829  10.588  2.0004  2.1062 -1.3432
  144MOL0     H19008   5.343   9.822  10.626 -0.6636  1.1168  0.1253
  145MOL0     O19009   0.453   2.415   1.610 -0.4412 -0.4071 -0.2608
  145MOL0     C19010   0.510   2.327   1.550 -0.3540  0.0271  0.7117
  145MOL0     O19011   0.447   2.228   1.477  0.4576 -1.0561  0.0388
  145MOL0     C19012   0.308   2.205   1.486 -0.6285  0.7637 -0.0633
  145MOL0     C19013   0.256   2.123   1.386  0.4330  0.4931 -0.0481
  145MOL0     C19014   0.115   2.088   1.382  0.2765  0.3189  1.5248
  145MOL0     C19015   0.030   2.135   1.477 -0.5792  0.2823 -1.1585
  145MOL0     O19016  -0.103   2.087   1.487 -0.2746 -0.3156 -0.3213
  145MOL0     C19017  -0.165   2.068   1.368  0.0281 -0.0372 -0.6519
  145MOL0     C19018  -0.315   2.067   1.385  0.1804 -0.0880 -0.6967
  145MOL0     C19019  -0.385   2.078   1.249 -0.9267  0.5736 -0.6764
  145MOL0     C19020  -0.536   2.036   1.266  0.0404 -0.6315  0.3933
  145MOL0     C19021  -0.626   2.100   1.150 -0.1362 -0.5094  0.1653
  145MOL0     C19022  -0.773   2.041   1.155  0.1760 -0.1975  0.2182
  145MOL0     C19023  -0.864   2.109   1.261 -0.1688 -0.1019  0.3732
  145MOL0     C19024  -0.975   2.018   1.319 -0.5026  0.0070 -0.3577
  145MOL0     N19025  -1.083   1.993   1.221  0.0221 -0.4717 -0.0268
  145MOL0     C19026  -1.174   2.094   1.186 -0.6625  0.4188  0.2616
  145MOL0     C19027  -1.273   2.035   1.111 -1.1354 -0.5805 -0.0875
  145MOL0     C19028  -1.384   2.109   1.049  0.3658  0.2501  0.9182
  145MOL0     C19029  -1.493   2.021   0.979 -0.6091  0.1765  0.3580
  145MOL0     C19030  -1.612   2.092   0.933 -0.1773  0.0862 -0.1520
  145MOL0     C19031  -1.705   1.991   0.861  0.0621  0.3927 -0.0400
  145MOL0     O19032  -1.815   2.066   0.817 -0.1468 -0.3263  0.2633
  145MOL0     C19033  -1.939   2.010   0.795  0.0013 -0.1986 -0.0649
  145MOL0     C19034  -2.054   2.087   0.823  0.0048  0.2557 -0.3435
  145MOL0     C19035  -2.184   2.046   0.800 -0.0842  0.3121 -0.6830
  145MOL0     C19036  -2.202   1.915   0.733  0.0963 -0.8080 -1.0311
  145MOL0     C19037  -2.337   1.865   0.704 -0.1088  0.0373  0.3951
  145MOL0     O19038  -2.349   1.736   0.670 -0.2699 -0.1993 -0.3142
  145MOL0     C19039  -2.467   1.680   0.640 -0.4098 -0.3439 -0.1898
  145MOL0     C19040  -2.504   1.630   0.512 -0.7966  0.9537  0.6695
  145MOL0     C19041  -2.634   1.573   0.493  0.0169  0.2061 -0.1697
  145MOL0     C19042  -2.720   1.567   0.604 -0.5584  0.4217  0.8718
  145MOL0     O19043  -2.842   1.505   0.594  0.3133 -0.3199 -0.0555
  145MOL0     C19044  -2.959   1.578   0.622 -0.8667  0.6636 -0.0926
  145MOL0     C19045  -3.062   1.477   0.632  0.4426  0.3584 -0.5822
  145MOL0     C19046  -3.195   1.547   0.647 -0.5021  0.9671  0.2489
  145MOL0     C19047  -3.314   1.460   0.607  0.4319  0.4520 -0.1083
  145MOL0     C19048  -3.348   1.354   0.711 -0.3644  0.1994 -0.3296
  145MOL0     C19049  -3.488   1.307   0.691  0.0248 -0.2459 -0.0307
  145MOL0     C19050  -3.536   1.223   0.805 -0.1351 -0.3698  0.0092
  145MOL0     C19051  -3.652   1.277   0.883  0.1147 -0.5053  0.1214
  145MOL0    Cl19052  -3.795   1.282   0.779  0.1970  0.2940 -0.1693
  145MOL0     C19053  -2.678   1.593   0.735 -0.4574 -1.0671  0.4977
  145MOL0     C19054  -2.553   1.655   0.747 -0.3851 -0.9303 -0.4905
  145MOL0     O19055  -2.430   1.941   0.717 -0.2744 -1.6058 -0.7638
  145MOL0     C19056  -2.093   1.834   0.718 -0.0053 -0.2745  0.0515
  145MOL0     C19057  -1.959   1.881   0.740  0.4754  0.2269  0.2233
  145MOL0     N19058  -1.233   1.906   1.087 -0.1211  0.7261  0.5915
  145MOL0     N19059  -1.124   1.882   1.152 -0.4317 -0.5585 -0.4797
  145MOL0     C19060   0.091   2.210   1.589 -0.2259 -0.4762 -0.2348
  145MOL0     C19061   0.224   2.244   1.594  0.6649  0.2708 -0.5831
  145MOL0     C19062   0.656   2.348   1.529  0.4931  0.4819 -0.2753
  145MOL0     C19063   0.715   2.290   1.415 -0.6902  0.3187 -1.1820
  145MOL0     C19064   0.858   2.306   1.383 -0.4540  0.7654  0.9113
  145MOL0     C19065   0.936   2.378   1.476 -0.8454 -0.9649 -0.7511
  145MOL0     O19066   1.067   2.415   1.457 -0.0977 -0.4012 -0.1366
  145MOL0     C19067   1.147   2.319   1.389 -0.9142 -0.0215 -0.8891
  145MOL0     C19068   1.275   2.392   1.386 -0.8261  0.0078  0.4700
  145MOL0     C19069   1.407   2.309   1.326 -0.1697 -0.8256  0.3964
  145MOL0     C19070   1.406   2.306   1.169  1.0047 -0.2737 -1.1213
  145MOL0     C19071   1.463   2.437   1.122 -0.6331 -0.1386 -0.8726
  145MOL0     C19072   1.514   2.539   1.085 -0.0458  0.4218  0.0343
  145MOL0     C19073   0.870   2.444   1.588 -0.3073  0.1417 -0.3284
  145MOL0     C19074   0.735   2.428   1.615 -0.2791  0.2085 -0.2300
  145MOL0     H19075   0.306   2.072   1.305 -2.2180 -2.4937  0.0270
  145MOL0     H19076   0.078   2.019   1.307  0.7117  2.5096 -0.8563
  145MOL0     H19077  -0.148   1.969   1.325  2.5986  1.1028 -2.5367
  145MOL0     H19078  -0.137   2.151   1.302 -0.8844 -0.4959 -1.6647
  145MOL0     H19079  -0.339   2.146   1.456  1.5224  0.4275 -0.7798
  145MOL0     H19080  -0.358   1.979   1.434 -5.4094  1.2082 -2.6269
  145MOL0     H19081  -0.336   2.012   1.177 -1.7171 -2.0183  1.0100
  145MOL0     H19082  -0.374   2.181   1.212  1.3078  1.4764  2.1925
  145MOL0     H19083  -0.548   1.928   1.271 -3.8261 -0.3057  1.2582
  145MOL0     H19084  -0.571   2.073   1.363 -1.2336  0.7964 -0.5543
  145MOL0     H19085  -0.568   2.066   1.063  1.2153 -0.2724  0.9545
  145MOL0     H19086  -0.624   2.208   1.138 -0.3478 -0.5309 -0.0842
  145MOL0     H19087  -0.756   1.941   1.195 -1.5206  0.1893  2.0615
  145MOL0     H19088  -0.824   2.040   1.059 -1.2401 -0.5956  0.9520
  145MOL0     H19089  -0.797   2.146   1.340 -1.4485  0.5578  1.1808
  145MOL0     H19090  -0.911   2.198   1.218 -0.3938  0.5593  1.8890
  145MOL0     H19091  -1.005   2.045   1.421  1.2051  5.5597 -0.9902
  145MOL0     H19092  -0.928   1.919   1.321  0.4945  0.4786  0.7767
  145MOL0     H19093  -1.174   2.198   1.218 -2.5539 -0.1582  2.3798
  145MOL0     H19094  -1.351   2.178   0.971 -2.2301 -0.5340 -1.0315
  145MOL0     H19095  -1.434   2.169   1.125 -0.6971 -1.5289  1.6907
  145MOL0     H19096  -1.522   1.934   1.039  0.0922  0.5158  1.2117
  145MOL0     H19097  -1.457   1.985   0.883 -0.2324 -3.8587  1.8001
  145MOL0     H19098  -1.657   2.138   1.021  2.4070  0.5014  1.0380
  145MOL0     H19099  -1.591   2.175   0.864  3.0594 -2.0959 -2.0969
  145MOL0     H19100  -1.742   1.899   0.910 -0.9506 -0.8949 -2.9800
  145MOL0     H19101  -1.663   1.948   0.770 -5.5723  3.1059 -4.6121
  145MOL0     H19102  -2.034   2.189   0.851 -0.8148  0.2149  0.4262
  145MOL0     H19103  -2.272   2.109   0.815 -1.0347 -1.4852  2.1342
  145MOL0     H19104  -2.439   1.635   0.426 -3.0641 -0.0136 -1.2279
  145MOL0     H19105  -2.668   1.536   0.397 -0.1168 -0.2549  0.0544
  145MOL0     H19106  -2.967   1.626   0.523 -3.0469 -0.1640 -0.3781
  145MOL0     H19107  -2.951   1.655   0.699 -2.7393  2.4545 -1.5707
  145MOL0     H19108  -3.039   1.402   0.709 -1.5472  0.5475  0.2593
  145MOL0     H19109  -3.057   1.416   0.541  0.3816 -3.1152  1.5379
  145MOL0     H19110  -3.200   1.640   0.589 -0.8559  2.3796  2.4094
  145MOL0     H19111  -3.205   1.580   0.751  0.8008  3.8130 -0.4506
  145MOL0     H19112  -3.397   1.527   0.585  0.9733  0.8450 -0.9682
  145MOL0     H19113  -3.295   1.409   0.512 -0.2774 -0.5756  0.2754
  145MOL0     H19114  -3.338   1.399   0.810 -2.1530  0.4373 -0.2144
  145MOL0     H19115  -3.278   1.270   0.707 -3.0553 -2.6304  4.0187
  145MOL0     H19116  -3.486   1.259   0.593 -3.1800 -0.7429  0.0557
  145MOL0     H19117  -3.548   1.398   0.684  3.1857  1.9283 -1.0465
  145MOL0     H19118  -3.567   1.137   0.744 -1.1830  2.0436 -3.1129
  145MOL0     H19119  -3.449   1.200   0.867  0.6465  0.5798 -0.7057
  145MOL0     H19120  -3.632   1.382   0.907  1.4507 -0.1187 -2.3337
  145MOL0     H19121  -3.652   1.220   0.977  2.0971  1.2027  1.2234
  145MOL0     H19122  -2.736   1.555   0.819 -0.4903  0.4201  1.1736
  145MOL0     H19123  -2.519   1.681   0.847  0.2409 -2.2623 -0.3373
  145MOL0     H19124  -2.110   1.732   0.684 -1.8964  0.3620 -1.0657
  145MOL0     H19125  -1.873   1.817   0.721  1.9948  2.2781 -0.0708
  145MOL0     H19126   0.014   2.233   1.662 -0.7137 -1.4336 -0.4347
  145MOL0     H19127   0.260   2.319   1.664 -0.2212  0.1523  0.0084
  145MOL0     H19128   0.648   2.230   1.353 -1.2386 -0.5711  0.2259
  145MOL0     H19129   0.909   2.249   1.306 -0.0769  1.6482  0.5001
  145MOL0     H19130   1.106   2.295   1.290  0.7455 -0.4225 -1.5145
  145MOL0     H19131   1.156   2.227   1.447  2.1459 -0.9466 -2.6197
  145MOL0     H19132   1.255   2.475   1.318 -2.7446  0.9386  2.0798
  145MOL0     H19133   1.295   2.417   1.491 -2.9736 -2.0817  1.4648
  145MOL0     H19134   1.430   2.210   1.366  3.3081 -1.2485 -2.2299
  145MOL0     H19135   1.497   2.367   1.350 -0.0162 -0.1235 -1.7094
  145MOL0     H19136   1.461   2.220   1.131  0.2485 -1.3380  0.1114
  145MOL0     H19137   1.305   2.296   1.128  0.4026  0.8707  0.0124
  145MOL0     H19138   1.555   2.627   1.041  0.9292  1.3835  2.7011
  145MOL0     H19139   0.926   2.514   1.649 -0.4156 -2.0136  2.4146
  145MOL0     H19140   0.681   2.464   1.702 -2.0203  0.6815 -1.4454
  146MOL0     O19141  10.109   2.933   6.220 -0.1865 -0.4278 -0.1142
  146MOL0     C19142  10.021   2.983   6.149  0.3406  0.1578  0.1032
  146MOL0     O19143  10.049   3.047   6.032 -0.6509 -0.7799  0.4048
  146MOL0     C19144  10.184   3.049   5.995 -0.1470  0.4743  0.7508
  146MOL0     C19145  10.268   3.160   6.018  0.6674  0.2210 -0.1692
  146MOL0     C19146  10.400   3.154   5.969  0.2959  0.2878 -0.0305
  146MOL0     C19147  10.449   3.040   5.906 -0.1055  0.3313  0.5412
  146MOL0     O19148  10.583   3.036   5.864  0.8344  0.2897  0.2558
  146MOL0     C19149  10.638   2.928   5.786 -0.4012  0.5878 -0.0362
  146MOL0     C19150  10.788   2.955   5.738 -0.0181 -0.4786 -0.0507
  146MOL0     C19151  10.853   2.824   5.717  0.1523  0.0457 -0.1786
  146MOL0     C19152  10.995   2.859   5.671  0.1955 -0.6191 -0.4704
  146MOL0     C19153  11.078   2.729   5.675 -0.1239 -0.1360  0.4767
  146MOL0     C19154  11.229   2.752   5.638  0.1438 -0.6246 -0.5441
  146MOL0     C19155  11.316   2.634   5.649 -0.0666  0.1509 -0.8513
  146MOL0     C19156  11.445   2.651   5.573 -0.5631  0.4256 -0.1042
  146MOL0     N19157  11.525   2.537   5.551 -0.9212  0.8532 -0.7061
  146MOL0     C19158  11.494   2.455   5.451  0.2582  1.2155  0.0640
  146MOL0     C19159  11.610   2.377   5.435  0.3605  0.5810  0.2559
  146MOL0     C19160  11.636   2.274   5.324  0.0156  0.5108 -0.2996
  146MOL0     C19161  11.514   2.187   5.298  0.0882 -0.6420 -0.2171
  146MOL0     C19162  11.550   2.092   5.189 -0.3154 -0.1867 -0.5482
  146MOL0     C19163  11.417   2.035   5.149 -0.1794  0.8036  0.4834
  146MOL0     O19164  11.336   2.130   5.074 -0.4989 -0.7855 -0.2256
  146MOL0     C19165  11.216   2.094   5.024  0.3120 -0.1426  0.4034
  146MOL0     C19166  11.147   2.198   4.967 -0.6915  0.1267  0.4616
  146MOL0     C19167  11.018   2.174   4.927  0.7435 -0.1192  0.8932
  146MOL0     C19168  10.949   2.047   4.934  0.0579 -0.6323  0.7577
  146MOL0     C19169  10.810   2.029   4.880 -0.2532  0.4094  0.3535
  146MOL0     O19170  10.745   2.132   4.814  0.1251 -0.1259  1.1110
  146MOL0     C19171  10.618   2.115   4.765 -0.0434  1.1548 -0.1169
  146MOL0     C19172  10.592   2.017   4.663  0.5685  0.5410  0.9013
  146MOL0     C19173  10.475   2.018   4.596  0.2853 -0.9556 -0.3806
  146MOL0     C19174  10.376   2.113   4.628  0.7681  0.3517  0.5000
  146MOL0     O19175  10.263   2.110   4.551  0.4112 -0.2478  0.2175
  146MOL0     C19176  10.140   2.142   4.611 -0.0781 -0.5160  0.1678
  146MOL0     C19177  10.027   2.120   4.506 -0.4810 -0.5239 -0.5831
  146MOL0     C19178   9.989   1.974   4.479  0.6313 -0.2084  0.1045
  146MOL0     C19179   9.849   1.964   4.408  0.5901  0.1357  0.4663
  146MOL0     C19180   9.811   1.826   4.369 -0.7737 -0.7465 -0.3806
  146MOL0     C19181   9.660   1.809   4.321  0.3442 -1.2972  0.0718
  146MOL0     C19182   9.656   1.818   4.167 -0.5489 -0.0743  0.2118
  146MOL0     C19183   9.742   1.711   4.104  0.0415  0.2972 -0.2353
  146MOL0    Cl19184   9.693   1.555   4.169  0.0188  0.5141 -0.1754
  146MOL0     C19185  10.394   2.208   4.732  0.4198  0.8457 -0.3717
  146MOL0     C19186  10.519   2.205   4.801  0.9168  0.1912  0.1193
  146MOL0     O19187  10.765   1.923   4.910  0.1117  0.9052  0.5093
  146MOL0     C19188  11.023   1.942   4.986 -1.1290  0.5021 -0.0813
  146MOL0     C19189  11.155   1.969   5.029 -0.0659  0.0467 -0.3795
  146MOL0     N19190  11.709   2.427   5.517 -0.1718 -0.2503 -0.1583
  146MOL0     N19191  11.648   2.509   5.598 -0.5172 -0.2154 -0.4195
  146MOL0     C19192  10.372   2.926   5.892 -0.2074 -0.3900 -0.4146
  146MOL0     C19193  10.239   2.933   5.928 -0.5645 -0.5103  0.3673
  146MOL0     C19194   9.881   2.975   6.196  0.1351 -0.0657  0.0413
  146MOL0     C19195   9.784   3.010   6.101  0.8449 -0.3074 -1.0300
  146MOL0     C19196   9.653   2.994   6.135  0.0827  0.4742 -0.2546
  146MOL0     C19197   9.615   2.927   6.248 -0.1052 -0.2464  0.5339
  146MOL0     O19198   9.485   2.898   6.266  0.8704 -0.1257 -0.3427
  146MOL0     C19199   9.414   2.902   6.392 -0.2025  0.4011  0.5768
  146MOL0     C19200   9.379   3.043   6.425 -0.3075 -0.1500  0.3795
  146MOL0     C19201   9.254   3.097   6.348 -0.3725  0.1521 -0.2284
  146MOL0     C19202   9.126   3.047   6.408  0.4658  0.5969 -0.6674
  146MOL0     C19203   9.013   3.043   6.315 -0.2514 -0.9563  0.1325
  146MOL0     C19204   8.907   3.038   6.260 -0.6664 -0.3258 -0.4325
  146MOL0     C19205   9.712   2.902   6.346 -0.4667  0.8241  0.4615
  146MOL0     C19206   9.849   2.923   6.320  0.1476 -1.2351  0.0724
  146MOL0     H19207  10.225   3.255   6.052 -0.5960 -0.6631  0.8078
  146MOL0     H19208  10.456   3.246   5.981  1.3994 -0.4217  0.5060
  146MOL0     H19209  10.571   2.916   5.701 -1.1949 -1.1912  0.7879
  146MOL0     H19210  10.637   2.835   5.844  2.4788 -0.3605 -1.2888
  146MOL0     H19211  10.835   3.017   5.814  1.0083  2.1210 -2.5960
  146MOL0     H19212  10.790   3.013   5.644  0.7770  0.7920  0.7179
  146MOL0     H19213  10.798   2.763   5.644 -2.1821  0.0831  1.4422
  146MOL0     H19214  10.866   2.759   5.804  0.8361  0.6012  0.1462
  146MOL0     H19215  10.992   2.892   5.567 -1.2533  1.0987  0.0902
  146MOL0     H19216  11.042   2.931   5.739 -0.3435 -1.2946  0.6451
  146MOL0     H19217  11.040   2.660   5.599 -2.7178  0.8360  0.7945
  146MOL0     H19218  11.066   2.679   5.771 -0.7272 -1.6691 -0.3656
  146MOL0     H19219  11.259   2.831   5.708  0.3253  0.0986 -1.4243
  146MOL0     H19220  11.245   2.786   5.536  1.6051 -1.8321 -0.7554
  146MOL0     H19221  11.345   2.615   5.752  1.4491  0.9764 -1.1090
  146MOL0     H19222  11.263   2.554   5.596  0.2668 -0.2686 -0.5546
  146MOL0     H19223  11.509   2.723   5.626  0.0521 -0.1022 -0.1151
  146MOL0     H19224  11.419   2.697   5.477 -2.3306  1.5846  0.8643
  146MOL0     H19225  11.406   2.448   5.388  0.8572  1.9959 -0.8904
  146MOL0     H19226  11.726   2.216   5.345  0.3071  1.3326  0.7961
  146MOL0     H19227  11.649   2.333   5.232  0.5567 -1.5029 -1.5781
  146MOL0     H19228  11.426   2.250   5.279 -0.2527 -0.3938  1.9176
  146MOL0     H19229  11.476   2.126   5.381 -4.2063  2.0857  0.1769
  146MOL0     H19230  11.599   2.140   5.104  1.6037  1.4333  1.3404
  146MOL0     H19231  11.617   2.012   5.221 -1.5063 -0.2751  2.0070
  146MOL0     H19232  11.367   1.981   5.230 -1.4455  0.6234 -0.3872
  146MOL0     H19233  11.448   1.958   5.078  0.2766  1.2895  0.1491
  146MOL0     H19234  11.183   2.300   4.966  0.0752 -0.0392 -3.0932
  146MOL0     H19235  10.971   2.268   4.899  1.2645 -0.2852 -0.6269
  146MOL0     H19236  10.663   1.937   4.645 -0.1347  0.2834 -0.9503
  146MOL0     H19237  10.458   1.946   4.517 -1.5174 -0.7458 -0.2289
  146MOL0     H19238  10.134   2.241   4.656  0.7600  1.2685 -3.3151
  146MOL0     H19239  10.124   2.072   4.694  0.3927 -0.2145  0.5153
  146MOL0     H19240  10.058   2.177   4.418 -2.3091  1.5406  0.0244
  146MOL0     H19241   9.937   2.172   4.540  0.7051  1.2052  0.1054
  146MOL0     H19242   9.979   1.923   4.576 -0.6191 -0.6736 -0.2541
  146MOL0     H19243  10.059   1.930   4.407 -0.8184 -0.9783 -0.8875
  146MOL0     H19244   9.771   2.002   4.474 -2.1103  0.5803 -2.6890
  146MOL0     H19245   9.846   2.029   4.319 -2.5805  1.6875  1.5468
  146MOL0     H19246   9.837   1.763   4.454  1.0786 -1.2335 -1.2643
  146MOL0     H19247   9.882   1.782   4.299  0.7101 -0.1403  0.6964
  146MOL0     H19248   9.599   1.892   4.358 -0.6635 -2.0529  0.1420
  146MOL0     H19249   9.617   1.720   4.369  0.6682 -1.2277  0.5045
  146MOL0     H19250   9.564   1.807   4.109  0.3487 -0.0627 -1.2581
  146MOL0     H19251   9.696   1.916   4.140 -1.3278  0.6968  1.6849
  146MOL0     H19252   9.851   1.718   4.114 -0.0555 -0.7737  2.7298
  146MOL0     H19253   9.715   1.719   3.999 -2.2734  1.7629  0.4038
  146MOL0     H19254  10.318   2.282   4.757 -0.2366  0.4095 -1.0254
  146MOL0     H19255  10.542   2.294   4.859 -1.3615  1.1548 -0.3588
  146MOL0     H19256  10.973   1.845   4.981 -2.7832  1.2457  1.0523
  146MOL0     H19257  11.200   1.882   5.076 -0.0492  0.1992 -0.1164
  146MOL0     H19258  10.399   2.837   5.837  1.4707  0.5037 -1.0868
  146MOL0     H19259  10.184   2.843   5.905  1.7354 -1.3477 -2.6063
  146MOL0     H19260   9.805   3.041   5.999 -2.9596 -0.8765 -2.1178
  146MOL0     H19261   9.573   3.032   6.071 -1.5574 -0.8358  0.9492
  146MOL0     H19262   9.469   2.868   6.480 -0.6095  1.0792  1.1005
  146MOL0     H19263   9.330   2.832   6.387  0.1295  0.0605 -0.5970
  146MOL0     H19264   9.364   3.054   6.532 -1.0121  1.2584  0.1624
  146MOL0     H19265   9.465   3.109   6.413  0.1874 -0.1252  3.3388
  146MOL0     H19266   9.260   3.062   6.244  2.1068 -0.6881  0.1368
  146MOL0     H19267   9.248   3.206   6.348  3.6697  0.5010 -0.7930
  146MOL0     H19268   9.142   2.942   6.438 -0.2065  0.5655 -0.4072
  146MOL0     H19269   9.093   3.112   6.489 -0.9710  1.1395 -1.6551
  146MOL0     H19270   8.823   3.026   6.195 -0.0526 -1.0094 -1.1248
  146MOL0     H19271   9.683   2.848   6.435 -1.3332 -0.9770 -0.8537
  146MOL0     H19272   9.924   2.895   6.393  0.3824 -1.3053 -0.1937
  147MOL0     O19273   3.604   1.227   3.687 -0.0447 -0.1210 -0.3015
  147MOL0     C19274   3.529   1.127   3.694 -0.4780 -1.2589 -1.3123
  147MOL0     O19275   3.548   1.020   3.781  1.1894 -0.0383 -0.1625
  147MOL0     C19276   3.663   1.029   3.861  0.5662  0.4725  0.3090
  147MOL0     C19277   3.789   1.014   3.814 -0.0523  0.2658  0.4759
  147MOL0     C19278   3.903   1.039   3.893  0.2673 -0.1543 -0.5706
  147MOL0     C19279   3.888   1.092   4.026  0.2040 -0.0719  0.7134
  147MOL0     O19280   3.984   1.111   4.123  0.3633 -0.3701 -0.1031
  147MOL0     C19281   4.118   1.093   4.077 -1.3516 -0.6386  0.3711
  147MOL0     C19282   4.201   1.160   4.194 -0.0436  0.4205  1.5128
  147MOL0     C19283   4.354   1.134   4.183 -0.3994 -0.1780 -0.1260
  147MOL0     C19284   4.426   1.219   4.284 -0.3371 -0.7513  0.6073
  147MOL0     C19285   4.574   1.198   4.275 -0.3075  0.6961 -0.2596
  147MOL0     C19286   4.633   1.318   4.344  0.3360  0.4265  0.9115
  147MOL0     C19287   4.785   1.293   4.367  0.7146 -0.1923  0.2408
  147MOL0     C19288   4.823   1.232   4.502 -0.5168 -0.5100 -0.9095
  147MOL0     N19289   4.967   1.196   4.497  0.5993  0.5799  0.1648
  147MOL0     C19290   5.071   1.269   4.531 -0.3726  0.1401 -0.4593
  147MOL0     C19291   5.175   1.197   4.486  0.0635  0.7617  0.5460
  147MOL0     C19292   5.327   1.241   4.494  0.4340 -0.0920  0.4583
  147MOL0     C19293   5.423   1.154   4.426  0.0300  0.2322  0.6366
  147MOL0     C19294   5.434   1.176   4.277  0.0270 -0.8799  1.6925
  147MOL0     C19295   5.314   1.205   4.192  0.1865  0.5048  0.1805
  147MOL0     O19296   5.258   1.337   4.228 -0.4338 -0.2150  0.1682
  147MOL0     C19297   5.131   1.376   4.184  0.2099  0.3043 -0.4411
  147MOL0     C19298   5.044   1.294   4.108  0.5813 -0.1850  0.2920
  147MOL0     C19299   4.924   1.338   4.062  0.1324  0.1226 -0.4265
  147MOL0     C19300   4.892   1.475   4.077  0.4931  0.3687  0.5379
  147MOL0     C19301   4.764   1.539   4.020  0.1822 -0.5925 -0.7889
  147MOL0     O19302   4.668   1.447   4.015  1.2605  0.1674 -0.1312
  147MOL0     C19303   4.535   1.481   3.995 -0.2285  0.2501 -0.3567
  147MOL0     C19304   4.457   1.383   3.947  0.8575  0.4068  0.2557
  147MOL0     C19305   4.318   1.371   3.941 -0.3012 -0.5705  0.3703
  147MOL0     C19306   4.249   1.490   3.972 -0.4395  0.5798 -0.8331
  147MOL0     O19307   4.111   1.503   3.944  0.2020 -0.0171 -0.2264
  147MOL0     C19308   4.031   1.390   3.916  0.1245 -0.2754  0.3502
  147MOL0     C19309   3.909   1.452   3.862  0.1570  0.5033  0.2849
  147MOL0     C19310   3.826   1.484   3.981  0.3228 -0.4526 -0.3362
  147MOL0     C19311   3.701   1.570   3.944  0.3835 -0.2215  0.0768
  147MOL0     C19312   3.595   1.513   3.848 -0.2734 -1.2056  0.3388
  147MOL0     C19313   3.496   1.415   3.925 -0.8303 -0.3049  0.3265
  147MOL0     C19314   3.358   1.397   3.865 -0.2120 -0.1002 -0.1740
  147MOL0     C19315   3.282   1.277   3.931  0.1010  0.5561 -0.5506
  147MOL0    Cl19316   3.121   1.253   3.864  0.0216 -0.3370 -0.0795
  147MOL0     C19317   4.326   1.605   4.010  0.3657 -0.1140 -0.2498
  147MOL0     C19318   4.469   1.597   4.029  0.7931 -0.0064 -0.3506
  147MOL0     O19319   4.758   1.662   3.988  0.3583  0.5538 -0.0499
  147MOL0     C19320   4.977   1.558   4.157  0.2309  0.1188 -0.7291
  147MOL0     C19321   5.101   1.513   4.205  0.3448  0.4673 -0.0503
  147MOL0     N19322   5.131   1.077   4.438 -0.9528 -0.4501 -0.6606
  147MOL0     N19323   5.010   1.070   4.442  0.8099  0.1036 -0.0751
  147MOL0     C19324   3.758   1.110   4.067 -0.0728  0.3154  0.0192
  147MOL0     C19325   3.646   1.080   3.990 -0.0499 -0.4930  0.2841
  147MOL0     C19326   3.411   1.115   3.609 -0.5296  0.5742 -0.1643
  147MOL0     C19327   3.361   1.221   3.535  0.5355 -0.3297 -0.1299
  147MOL0     C19328   3.245   1.209   3.453  0.5777  0.1437 -0.0378
  147MOL0     C19329   3.184   1.087   3.429 -0.4371  0.0865 -0.4071
  147MOL0     O19330   3.075   1.068   3.348 -0.4383 -0.5208 -0.2632
  147MOL0     C19331   2.979   1.171   3.319 -0.5987  0.1787  0.1303
  147MOL0     C19332   2.881   1.181   3.420 -0.5614  0.5296  0.3439
  147MOL0     C19333   2.787   1.302   3.396  0.2269  0.3909 -0.5311
  147MOL0     C19334   2.668   1.292   3.483  0.3799  0.0419  0.0003
  147MOL0     C19335   2.561   1.202   3.434 -0.3361 -0.8841  1.4879
  147MOL0     C19336   2.483   1.116   3.388  0.3970 -0.2497 -0.4450
  147MOL0     C19337   3.238   0.980   3.503 -0.1355  0.6592 -0.1385
  147MOL0     C19338   3.343   0.994   3.589 -0.8343  0.4264 -0.2675
  147MOL0     H19339   3.790   0.965   3.718  0.0327  0.7772  0.2118
  147MOL0     H19340   4.001   1.016   3.851  1.2650  1.2911  0.8217
  147MOL0     H19341   4.144   1.150   3.987 -0.0428  2.0453  2.3031
  147MOL0     H19342   4.150   0.989   4.069 -0.8862 -0.5443  0.9735
  147MOL0     H19343   4.160   1.107   4.281 -2.0947 -2.0215 -0.7671
  147MOL0     H19344   4.181   1.267   4.204 -1.0376  0.3473  0.5758
  147MOL0     H19345   4.377   1.157   4.078 -1.1709 -1.0163 -0.4977
  147MOL0     H19346   4.375   1.029   4.201 -2.8759 -0.2145  3.4702
  147MOL0     H19347   4.403   1.326   4.283  3.8422  0.3436 -0.9785
  147MOL0     H19348   4.393   1.189   4.385 -2.6250  1.5032  0.6275
  147MOL0     H19349   4.602   1.204   4.169 -1.1263  4.2019 -0.4136
  147MOL0     H19350   4.605   1.102   4.317 -0.6158  0.0112 -1.5362
  147MOL0     H19351   4.582   1.326   4.441  3.0549  0.9405  2.3977
  147MOL0     H19352   4.609   1.404   4.280 -1.4114 -0.6116  0.0936
  147MOL0     H19353   4.824   1.235   4.283 -1.3338 -0.6228 -0.4668
  147MOL0     H19354   4.833   1.391   4.362  1.3980 -0.3738  2.2467
  147MOL0     H19355   4.767   1.138   4.511  0.7057 -1.0500  2.2221
  147MOL0     H19356   4.803   1.302   4.583  1.5036  1.4203 -1.9686
  147MOL0     H19357   5.078   1.359   4.591 -1.3179 -1.3551  2.0240
  147MOL0     H19358   5.351   1.238   4.601  1.0389 -1.0555  0.3061
  147MOL0     H19359   5.342   1.344   4.461 -1.0092 -0.2723 -0.8756
  147MOL0     H19360   5.399   1.049   4.442  0.1690  0.1961  0.6085
  147MOL0     H19361   5.529   1.164   4.449  0.1498 -0.4041  0.3693
  147MOL0     H19362   5.508   1.254   4.255  0.1786 -1.3996  0.2345
  147MOL0     H19363   5.475   1.084   4.235  0.4968 -0.7099  1.7750
  147MOL0     H19364   5.237   1.130   4.212  0.5914  0.1071  0.2741
  147MOL0     H19365   5.345   1.203   4.088  1.4627 -1.5362  0.5398
  147MOL0     H19366   5.074   1.191   4.087  1.0026 -0.6370  2.8141
  147MOL0     H19367   4.859   1.274   4.003  1.3838  0.7658 -2.6486
  147MOL0     H19368   4.511   1.293   3.917  0.1171  0.0609 -0.0641
  147MOL0     H19369   4.271   1.281   3.903  1.2907 -0.4135 -2.2515
  147MOL0     H19370   4.010   1.333   4.007  1.4731  1.1036  1.5681
  147MOL0     H19371   4.078   1.342   3.830 -2.4702 -1.9260 -0.2502
  147MOL0     H19372   3.860   1.392   3.785  1.7784  1.3671 -1.5020
  147MOL0     H19373   3.924   1.546   3.808 -1.6477  1.3154  1.1364
  147MOL0     H19374   3.879   1.551   4.049 -0.4618  0.8644 -0.9646
  147MOL0     H19375   3.805   1.388   4.029  0.8308 -0.6048 -0.4164
  147MOL0     H19376   3.647   1.598   4.035 -1.5135  1.1636 -1.3904
  147MOL0     H19377   3.738   1.664   3.902 -2.2694  0.3767 -1.1307
  147MOL0     H19378   3.649   1.484   3.758  0.9593  1.9261 -0.0608
  147MOL0     H19379   3.543   1.606   3.824  0.7751 -0.4412  0.9171
  147MOL0     H19380   3.473   1.460   4.022 -1.8661 -0.2707  0.0838
  147MOL0     H19381   3.547   1.319   3.930  1.0419  0.2055 -4.2235
  147MOL0     H19382   3.294   1.480   3.896  0.4860  1.3846 -2.4238
  147MOL0     H19383   3.352   1.396   3.755 -1.3981  1.0223 -0.1475
  147MOL0     H19384   3.255   1.307   4.033 -2.5390  0.8449 -1.2576
  147MOL0     H19385   3.346   1.189   3.931  0.2669  0.6723  0.0045
  147MOL0     H19386   4.268   1.692   4.037  1.1623 -0.0012  1.2012
  147MOL0     H19387   4.519   1.684   4.071 -0.5180 -0.5039  2.4946
  147MOL0     H19388   4.955   1.664   4.156  1.1102  0.3042 -0.9018
  147MOL0     H19389   5.172   1.574   4.261 -2.5174  0.8778  3.5117
  147MOL0     H19390   3.756   1.157   4.165  0.9008 -1.2096  0.8072
  147MOL0     H19391   3.550   1.116   4.027 -0.4108 -1.7595  0.6228
  147MOL0     H19392   3.408   1.316   3.559  0.2227  0.0344 -0.9379
  147MOL0     H19393   3.212   1.295   3.396  1.2426 -1.0638 -2.3865
  147MOL0     H19394   2.935   1.135   3.225  1.9777 -4.1148  0.2771
  147MOL0     H19395   3.016   1.272   3.300 -0.1131 -0.0222 -0.0138
  147MOL0     H19396   2.827   1.086   3.420 -0.8896  0.7136 -0.1581
  147MOL0     H19397   2.938   1.199   3.512  1.3793 -0.0024 -0.6981
  147MOL0     H19398   2.759   1.302   3.290  0.3017 -0.6848 -0.5567
  147MOL0     H19399   2.848   1.391   3.416 -0.5063  0.8228 -0.1766
  147MOL0     H19400   2.698   1.258   3.582 -1.1300  0.6655  0.7189
  147MOL0     H19401   2.622   1.391   3.496  1.7983  1.0633 -2.2122
  147MOL0     H19402   2.412   1.040   3.360 -1.1390  0.9296  0.0735
  147MOL0     H19403   3.190   0.883   3.503 -0.4612  0.8157  0.4878
  147MOL0     H19404   3.373   0.908   3.648  0.2096 -0.6707 -2.3147
  148MOL0     O19405   3.891   7.613  10.446  0.4482  0.0836  0.4830
  148MOL0     C19406   3.922   7.716  10.384  0.4054 -0.9219 -0.7748
  148MOL0     O19407   3.843   7.776  10.288  0.9080  0.3098  0.1241
  148MOL0     C19408   3.712   7.726  10.275 -0.9467 -0.1415 -0.2977
  148MOL0     C19409   3.652   7.708  10.151 -0.5278  0.0027 -0.1306
  148MOL0     C19410   3.520   7.657  10.141  0.2933  1.1612  0.1594
  148MOL0     C19411   3.437   7.633  10.253 -1.1717  0.0578  0.2878
  148MOL0     O19412   3.317   7.580  10.223 -0.0218 -0.0145  0.2653
  148MOL0     C19413   3.263   7.486  10.317  0.3376  0.1168  0.4162
  148MOL0     C19414   3.146   7.550  10.399  1.2554 -0.3424  0.0115
  148MOL0     C19415   3.018   7.593  10.321  0.1251 -0.4889  0.4347
  148MOL0     C19416   2.925   7.669  10.420 -0.2075 -0.0589  0.1534
  148MOL0     C19417   2.790   7.690  10.341  0.3004 -1.0335 -0.0158
  148MOL0     C19418   2.695   7.786  10.408  1.1347 -0.0721 -0.1917
  148MOL0     C19419   2.573   7.793  10.325  0.1668 -0.4996  0.4086
  148MOL0     C19420   2.492   7.913  10.363  0.8713  0.2085 -0.0732
  148MOL0     N19421   2.358   7.912  10.298 -0.5424 -0.6859  0.2328
  148MOL0     C19422   2.306   7.988  10.193  0.8543 -0.2110 -0.1585
  148MOL0     C19423   2.171   7.953  10.177 -0.6254 -0.6638 -0.1928
  148MOL0     C19424   2.070   8.014  10.088  1.2015 -0.9443  0.1887
  148MOL0     C19425   2.024   8.156  10.127 -0.5833  0.1203 -0.9767
  148MOL0     C19426   1.962   8.160  10.270 -0.3870 -0.6896 -0.2659
  148MOL0     C19427   1.928   8.292  10.316  0.3042 -0.4162  0.5058
  148MOL0     O19428   1.834   8.356  10.228 -0.6929 -0.1814 -0.6041
  148MOL0     C19429   1.713   8.379  10.273  0.6022 -0.2207 -0.1978
  148MOL0     C19430   1.598   8.338  10.206  0.0121 -0.9104 -0.4186
  148MOL0     C19431   1.469   8.361  10.257  0.1044 -0.2605 -0.1881
  148MOL0     C19432   1.454   8.427  10.381 -0.2123 -0.7809 -1.0621
  148MOL0     C19433   1.316   8.432  10.442 -0.6722 -0.5676 -0.9182
  148MOL0     O19434   1.215   8.390  10.365 -0.1652 -0.1298 -0.0267
  148MOL0     C19435   1.086   8.418  10.413  0.6483  0.2345 -0.4914
  148MOL0     C19436   0.994   8.312  10.408 -0.4801  0.7922  1.3919
  148MOL0     C19437   0.856   8.323  10.441  0.1702  0.2059  0.4511
  148MOL0     C19438   0.805   8.441  10.473  0.4262  0.6024  0.2344
  148MOL0     O19439   0.682   8.475  10.515 -0.2797 -0.2388 -0.1621
  148MOL0     C19440   0.590   8.372  10.541 -0.0618  0.2327  0.3781
  148MOL0     C19441   0.469   8.427  10.611 -0.3512 -0.2708  0.6551
  148MOL0     C19442   0.379   8.310  10.638  0.0977 -0.1371 -0.8524
  148MOL0     C19443   0.244   8.354  10.710  0.4907 -0.2120  1.0917
  148MOL0     C19444   0.156   8.224  10.713  0.4259  0.1487 -0.0641
  148MOL0     C19445  -0.003   8.233  10.728  0.1674 -0.3816 -0.2654
  148MOL0     C19446  -0.065   8.090  10.732 -0.2304 -0.6190  0.5209
  148MOL0     C19447  -0.212   8.075  10.762  0.4063  0.2193  0.1834
  148MOL0    Cl19448  -0.241   8.169  10.902  0.3054 -0.3105 -0.3404
  148MOL0     C19449   0.891   8.555  10.467  0.3532  0.7047 -0.0850
  148MOL0     C19450   1.029   8.542  10.434 -0.0808 -0.1520 -0.6393
  148MOL0     O19451   1.310   8.460  10.564  0.5449  0.3663  0.3609
  148MOL0     C19452   1.570   8.463  10.446  0.5440 -0.4978  0.4672
  148MOL0     C19453   1.701   8.439  10.400 -0.2537 -0.1029  0.1372
  148MOL0     N19454   2.144   7.854  10.270  0.0753 -0.7021 -0.5601
  148MOL0     N19455   2.252   7.835  10.341 -0.0430  0.1849 -0.5955
  148MOL0     C19456   3.494   7.663  10.374  0.7760 -0.8993 -0.2884
  148MOL0     C19457   3.628   7.710  10.388  0.4927 -0.5550 -0.0937
  148MOL0     C19458   4.057   7.767  10.394  0.1087  0.8648 -0.3434
  148MOL0     C19459   4.141   7.717  10.492  0.6147 -0.1192 -0.3085
  148MOL0     C19460   4.271   7.771  10.499 -0.1824  0.4072 -0.1970
  148MOL0     C19461   4.317   7.863  10.401 -0.6106 -0.2536  0.9061
  148MOL0     O19462   4.438   7.917  10.402 -1.5074 -0.0516  0.3903
  148MOL0     C19463   4.547   7.840  10.451 -1.0481 -0.0344 -0.1515
  148MOL0     C19464   4.676   7.902  10.398  0.4840 -0.2344  0.6910
  148MOL0     C19465   4.715   8.036  10.470  0.1540  0.5948 -0.8913
  148MOL0     C19466   4.761   8.026  10.618  0.0645 -0.3345 -0.7167
  148MOL0     C19467   4.877   7.939  10.625 -0.4589 -0.3058  0.3679
  148MOL0     C19468   4.983   7.881  10.639 -0.8828  0.5778  0.5139
  148MOL0     C19469   4.232   7.914  10.299  0.3072  0.2331  0.1860
  148MOL0     C19470   4.103   7.862  10.295  0.4808  0.8819 -0.1689
  148MOL0     H19471   3.720   7.702  10.066  0.5427 -0.1884  0.7212
  148MOL0     H19472   3.483   7.645  10.039  1.2496  1.8283 -0.2868
  148MOL0     H19473   3.339   7.444  10.384  1.4945  1.6999  0.1552
  148MOL0     H19474   3.215   7.406  10.262  2.7474  1.4873 -4.1911
  148MOL0     H19475   3.186   7.638  10.451 -0.1227 -0.8665  2.0606
  148MOL0     H19476   3.117   7.478  10.476 -0.3660 -0.0015 -0.2504
  148MOL0     H19477   2.963   7.504  10.289  2.0038 -1.8219  0.7700
  148MOL0     H19478   3.048   7.650  10.232 -2.6534 -2.9032 -2.2647
  148MOL0     H19479   2.889   7.616  10.509 -0.6325  1.5282  0.9642
  148MOL0     H19480   2.975   7.764  10.440 -2.7437  1.9886 -2.2306
  148MOL0     H19481   2.736   7.598  10.317 -3.0902  0.8585 -0.3398
  148MOL0     H19482   2.812   7.721  10.238 -1.4562  0.3059 -0.0390
  148MOL0     H19483   2.738   7.886  10.415 -4.2401  2.6724 -1.3076
  148MOL0     H19484   2.671   7.756  10.511 -0.6239 -0.2218 -0.6222
  148MOL0     H19485   2.596   7.801  10.219 -0.3650  0.2983  0.3491
  148MOL0     H19486   2.517   7.700  10.343 -0.4668 -0.3996 -0.9854
  148MOL0     H19487   2.542   8.007  10.338  0.8475  0.7924  1.8896
  148MOL0     H19488   2.486   7.922  10.472  1.0830  0.8263 -0.1099
  148MOL0     H19489   2.369   8.065  10.148  0.1920 -0.1860 -1.0617
  148MOL0     H19490   1.991   7.938  10.084  1.7329 -1.7948  3.1436
  148MOL0     H19491   2.109   8.023   9.986  1.8737 -1.4029  0.3959
  148MOL0     H19492   1.945   8.193  10.060 -2.2174 -0.9852  0.2589
  148MOL0     H19493   2.111   8.222  10.121 -1.0027  0.5539 -2.8905
  148MOL0     H19494   1.883   8.086  10.277  1.0299 -2.1482  1.1917
  148MOL0     H19495   2.027   8.110  10.342  0.3817 -0.3041 -0.6774
  148MOL0     H19496   2.020   8.351  10.321 -0.0622  0.0697  2.1112
  148MOL0     H19497   1.890   8.287  10.418  2.0875  1.1332  1.3175
  148MOL0     H19498   1.616   8.301  10.106  1.0435 -0.8787 -0.2484
  148MOL0     H19499   1.388   8.329  10.192 -0.4605 -1.5076  1.0715
  148MOL0     H19500   1.026   8.210  10.389 -2.0507  0.6638 -1.0461
  148MOL0     H19501   0.793   8.236  10.450  0.3513  0.1546  1.2862
  148MOL0     H19502   0.647   8.299  10.600 -0.4405 -1.3700 -1.1462
  148MOL0     H19503   0.563   8.324  10.447  2.4154 -0.9895  0.2007
  148MOL0     H19504   0.427   8.506  10.547 -3.0799 -1.0529  1.3526
  148MOL0     H19505   0.498   8.474  10.705  1.2840  1.0385 -0.4338
  148MOL0     H19506   0.428   8.240  10.706 -0.9135 -1.3190 -1.3166
  148MOL0     H19507   0.343   8.257  10.549  1.6754 -0.9283 -1.0628
  148MOL0     H19508   0.251   8.393  10.812 -0.4565  1.0345  0.7011
  148MOL0     H19509   0.198   8.425  10.641  1.0632 -1.3948 -0.5773
  148MOL0     H19510   0.188   8.167  10.801  1.8382 -0.0189 -0.6719
  148MOL0     H19511   0.165   8.169  10.619 -0.6857  0.9264 -0.6539
  148MOL0     H19512  -0.051   8.288  10.647  0.3543 -0.9399 -0.7633
  148MOL0     H19513  -0.029   8.293  10.815 -2.3385 -0.4079 -0.9203
  148MOL0     H19514  -0.053   8.036  10.637 -1.5374 -0.2601  0.1281
  148MOL0     H19515  -0.004   8.039  10.806 -0.2113  1.9571  2.3825
  148MOL0     H19516  -0.237   7.969  10.764  3.9093 -0.7396  0.8272
  148MOL0     H19517  -0.269   8.122  10.682 -1.2186  2.0120  2.2573
  148MOL0     H19518   0.839   8.648  10.485 -3.5207 -1.3578  0.6058
  148MOL0     H19519   1.102   8.621  10.421  2.4832 -1.5425  3.5522
  148MOL0     H19520   1.555   8.513  10.542 -2.3189  0.6258 -0.4435
  148MOL0     H19521   1.787   8.479  10.453  0.3628  3.1301 -2.9531
  148MOL0     H19522   3.431   7.648  10.461 -1.9668  2.8804 -1.3428
  148MOL0     H19523   3.678   7.738  10.480  2.6451  1.3837 -1.7622
  148MOL0     H19524   4.105   7.649  10.569 -0.1934  1.7015  0.9882
  148MOL0     H19525   4.334   7.751  10.585 -0.4042  0.0641 -0.1134
  148MOL0     H19526   4.552   7.738  10.412  2.5337  1.1085 -3.2415
  148MOL0     H19527   4.545   7.836  10.561  4.8176 -0.5465  0.2522
  148MOL0     H19528   4.760   7.833  10.411  2.6665  2.3021  0.6249
  148MOL0     H19529   4.673   7.925  10.291  1.8404 -0.9057  0.4882
  148MOL0     H19530   4.631   8.105  10.482 -2.2458 -2.6169  4.6177
  148MOL0     H19531   4.783   8.092  10.405 -2.1312  1.3849 -2.7326
  148MOL0     H19532   4.781   8.127  10.656  0.0641 -0.8097  0.6186
  148MOL0     H19533   4.687   7.985  10.688  0.8359 -1.9297 -0.8058
  148MOL0     H19534   5.078   7.841  10.671 -0.1866  2.2444  0.6182
  148MOL0     H19535   4.269   7.988  10.229 -0.6108 -0.1576 -0.7381
  148MOL0     H19536   4.043   7.899  10.213 -2.5866 -2.5900  0.1876
  149MOL0     O19537   0.604   4.856   7.825  0.0747 -1.1390  0.6925
  149MOL0     C19538   0.707   4.809   7.866  1.3590  0.0731  0.4747
  149MOL0     O19539   0.708   4.716   7.968  0.2974  0.3097 -0.4324
  149MOL0     C19540   0.596   4.656   8.018  0.3196  1.2534 -0.2212
  149MOL0     C19541   0.475   4.627   7.955 -0.8400  0.1212 -0.2215
  149MOL0     C19542   0.376   4.562   8.021 -0.4689  0.2311 -0.2580
  149MOL0     C19543   0.393   4.512   8.154 -0.2565  0.1232  0.4549
  149MOL0     O19544   0.287   4.444   8.212  0.2313 -0.0251  0.7898
  149MOL0     C19545   0.315   4.370   8.334 -0.4564 -0.0906  0.7986
  149MOL0     C19546   0.192   4.293   8.361 -0.0016 -0.2433 -0.2212
  149MOL0     C19547   0.201   4.206   8.486 -0.0551  0.1278  0.4039
  149MOL0     C19548   0.059   4.142   8.516 -0.5694  0.5570  0.4856
  149MOL0     C19549   0.076   4.067   8.650  0.7527  0.6174  0.2266
  149MOL0     C19550  -0.026   3.948   8.664 -0.8387 -0.8073  0.1789
  149MOL0     C19551  -0.169   3.967   8.718  0.4486  0.2589  0.4206
  149MOL0     C19552  -0.173   3.997   8.864  0.2490 -0.3625 -0.1014
  149MOL0     N19553  -0.304   3.966   8.909 -0.3577  0.0457  0.2439
  149MOL0     C19554  -0.414   4.046   8.909  0.5659 -0.2825 -0.1750
  149MOL0     C19555  -0.521   3.966   8.943 -0.6187  0.2376 -0.1761
  149MOL0     C19556  -0.661   4.016   8.971 -0.2528  0.5248 -0.1838
  149MOL0     C19557  -0.756   3.907   8.914 -0.0475  0.0445 -0.0811
  149MOL0     C19558  -0.889   3.972   8.887  0.0464 -0.3049  0.3292
  149MOL0     C19559  -0.995   3.877   8.833  0.2717  0.1745  0.0276
  149MOL0     O19560  -1.110   3.958   8.818 -0.1080 -0.0172  0.0921
  149MOL0     C19561  -1.210   3.887   8.757 -0.1719 -0.2622  0.1982
  149MOL0     C19562  -1.326   3.966   8.744 -0.4971 -0.2696 -0.0577
  149MOL0     C19563  -1.444   3.910   8.681 -0.0002 -0.5023 -0.0357
  149MOL0     C19564  -1.451   3.774   8.639  0.4418 -0.1547  0.1260
  149MOL0     C19565  -1.573   3.712   8.584 -0.1326  0.0870 -0.7122
  149MOL0     O19566  -1.576   3.576   8.595 -0.1547 -0.6363  0.2565
  149MOL0     C19567  -1.685   3.509   8.551  1.2301  0.1874  0.3458
  149MOL0     C19568  -1.818   3.550   8.548  0.2536 -0.4505 -0.3685
  149MOL0     C19569  -1.915   3.472   8.492  0.3776  0.1161 -0.8780
  149MOL0     C19570  -1.894   3.346   8.449 -0.5776 -0.0361  0.2013
  149MOL0     O19571  -1.990   3.265   8.396 -0.3075 -0.5848 -0.4529
  149MOL0     C19572  -2.115   3.260   8.450  0.0765  0.0730 -0.5459
  149MOL0     C19573  -2.187   3.135   8.417 -0.2713  0.2627 -0.5156
  149MOL0     C19574  -2.328   3.128   8.487  0.7925 -0.4155 -0.4175
  149MOL0     C19575  -2.431   3.235   8.440  0.2640  0.0486 -0.2443
  149MOL0     C19576  -2.460   3.247   8.291 -0.4999 -0.0808 -0.4289
  149MOL0     C19577  -2.498   3.128   8.216  0.3196  0.4278  1.1167
  149MOL0     C19578  -2.583   3.165   8.103 -0.5512  0.1958  0.4703
  149MOL0     C19579  -2.584   3.052   7.990 -0.0576 -0.3979  0.8006
  149MOL0    Cl19580  -2.673   2.907   8.062  0.2017 -0.6403  0.4054
  149MOL0     C19581  -1.765   3.299   8.452  0.9589 -0.0270  0.0457
  149MOL0     C19582  -1.664   3.377   8.514 -0.1099 -1.0931  0.3418
  149MOL0     O19583  -1.662   3.773   8.528  0.6299  0.0744 -0.4099
  149MOL0     C19584  -1.333   3.701   8.656 -0.2847  0.6015 -0.6234
  149MOL0     C19585  -1.219   3.752   8.720  0.5464  0.5045 -0.0092
  149MOL0     N19586  -0.477   3.837   8.957  0.0500 -0.4863 -0.0562
  149MOL0     N19587  -0.348   3.841   8.929 -0.0953  0.0297 -0.2002
  149MOL0     C19588   0.519   4.542   8.218  0.1056  0.0427 -0.3414
  149MOL0     C19589   0.618   4.606   8.144  0.2623 -0.5055  0.2667
  149MOL0     C19590   0.837   4.861   7.811  0.0952  0.0969  0.0032
  149MOL0     C19591   0.840   4.955   7.711 -0.5831 -0.4273 -0.6347
  149MOL0     C19592   0.961   5.024   7.677 -0.1730 -0.1139  0.1667
  149MOL0     C19593   1.084   4.991   7.730  0.5061  0.5202 -0.2683
  149MOL0     O19594   1.195   5.065   7.690 -0.2652  0.5639 -0.1012
  149MOL0     C19595   1.324   5.033   7.751 -0.8778 -0.2792  0.5342
  149MOL0     C19596   1.343   5.084   7.895 -0.9312  0.7713  0.1772
  149MOL0     C19597   1.322   5.232   7.922 -0.5575 -0.1606 -0.8483
  149MOL0     C19598   1.394   5.325   7.824 -0.3467  0.0316 -0.2602
  149MOL0     C19599   1.539   5.325   7.828  0.3599  0.5402 -0.2761
  149MOL0     C19600   1.654   5.336   7.846  0.3363 -0.5341 -0.7138
  149MOL0     C19601   1.076   4.894   7.836  0.2761 -0.6787 -0.0874
  149MOL0     C19602   0.957   4.832   7.869  0.2788  0.0986 -0.1666
  149MOL0     H19603   0.452   4.656   7.853  1.0431  3.9274  0.2711
  149MOL0     H19604   0.275   4.549   7.983 -1.8211  0.8214  2.8639
  149MOL0     H19605   0.321   4.447   8.411  3.2929 -0.9993  1.5890
  149MOL0     H19606   0.404   4.306   8.333  1.1324  1.9439 -1.3454
  149MOL0     H19607   0.158   4.238   8.272  1.8523  2.2962 -2.7007
  149MOL0     H19608   0.120   4.373   8.384  1.0957  0.6109  0.3207
  149MOL0     H19609   0.233   4.267   8.571  0.1761 -1.0648  1.1919
  149MOL0     H19610   0.270   4.121   8.479  0.0155  0.2817 -1.0384
  149MOL0     H19611  -0.023   4.213   8.523 -1.0362  0.1831 -0.9250
  149MOL0     H19612   0.043   4.066   8.439 -1.0774 -1.6996  2.7061
  149MOL0     H19613   0.070   4.137   8.735 -0.5017 -0.1876  0.8263
  149MOL0     H19614   0.177   4.027   8.660 -0.2287 -1.6951  1.9379
  149MOL0     H19615   0.025   3.874   8.728  0.8987  0.6110  0.5241
  149MOL0     H19616  -0.045   3.908   8.564 -1.9481  3.1414 -1.3524
  149MOL0     H19617  -0.234   4.036   8.663  0.1984  1.1997  1.8334
  149MOL0     H19618  -0.216   3.871   8.695  0.9083  0.4220 -1.4122
  149MOL0     H19619  -0.154   4.105   8.867  0.5076 -0.3222 -2.2710
  149MOL0     H19620  -0.100   3.943   8.926 -0.6474 -0.0403  1.2792
  149MOL0     H19621  -0.427   4.153   8.892 -2.5899 -0.5076  0.1813
  149MOL0     H19622  -0.676   4.109   8.916 -0.8768 -0.1066 -1.1195
  149MOL0     H19623  -0.667   4.028   9.079 -0.8219 -0.3503 -0.1116
  149MOL0     H19624  -0.779   3.822   8.978 -0.9983 -0.0788 -0.5638
  149MOL0     H19625  -0.714   3.881   8.817 -1.0378 -0.0160 -0.5122
  149MOL0     H19626  -0.925   4.013   8.982  0.4722 -2.4668  1.4986
  149MOL0     H19627  -0.887   4.061   8.824  0.9109 -1.3730 -1.1957
  149MOL0     H19628  -0.994   3.794   8.905  0.3007 -0.3503 -0.5629
  149MOL0     H19629  -0.964   3.838   8.735 -0.6332 -0.8625  0.1317
  149MOL0     H19630  -1.321   4.071   8.768  1.7550 -0.6092  1.3369
  149MOL0     H19631  -1.534   3.968   8.668 -0.4864 -1.1396  0.4536
  149MOL0     H19632  -1.847   3.644   8.593 -1.6811 -0.9810 -0.4329
  149MOL0     H19633  -2.017   3.510   8.490  1.3093  3.1074  1.6568
  149MOL0     H19634  -2.171   3.339   8.400 -0.4714  0.3540  0.4801
  149MOL0     H19635  -2.109   3.276   8.558 -1.2050 -0.5624 -0.3681
  149MOL0     H19636  -2.120   3.055   8.449 -0.2695  1.0202  1.4874
  149MOL0     H19637  -2.203   3.122   8.309 -0.8217 -0.7810 -0.3258
  149MOL0     H19638  -2.321   3.140   8.595 -1.6609  1.5597 -0.3729
  149MOL0     H19639  -2.379   3.036   8.458 -2.9572  1.5598 -0.6145
  149MOL0     H19640  -2.530   3.227   8.486  0.1776  3.8940  0.5852
  149MOL0     H19641  -2.398   3.333   8.477  3.8058 -1.2668  0.5178
  149MOL0     H19642  -2.373   3.297   8.247 -0.2501 -0.0715  0.0620
  149MOL0     H19643  -2.549   3.310   8.285 -2.0099 -2.2488 -2.8992
  149MOL0     H19644  -2.553   3.062   8.284  1.9691 -3.1003 -0.7047
  149MOL0     H19645  -2.411   3.079   8.172  0.2160  0.9212  0.3444
  149MOL0     H19646  -2.684   3.172   8.144 -0.8248 -1.4027  0.1294
  149MOL0     H19647  -2.543   3.257   8.059  1.8941 -0.2677  1.5316
  149MOL0     H19648  -2.480   3.026   7.969  0.1734  0.3000  1.0660
  149MOL0     H19649  -2.619   3.089   7.893  3.1982 -0.8249 -0.6718
  149MOL0     H19650  -1.752   3.201   8.407  0.1383  0.3152 -0.9879
  149MOL0     H19651  -1.558   3.351   8.519 -0.0197 -0.8909 -0.3648
  149MOL0     H19652  -1.331   3.597   8.624 -1.0717  0.8108 -1.4152
  149MOL0     H19653  -1.139   3.679   8.730 -2.8990 -3.5930  0.8204
  149MOL0     H19654   0.537   4.513   8.321 -0.2333  0.0958 -0.2661
  149MOL0     H19655   0.710   4.621   8.199  1.0153  1.8024 -1.4742
  149MOL0     H19656   0.745   4.979   7.665 -0.8894  1.3715  0.8329
  149MOL0     H19657   0.948   5.103   7.603 -1.2814 -1.9452 -1.7178
  149MOL0     H19658   1.406   5.068   7.687 -1.0753  0.8279  0.8668
  149MOL0     H19659   1.345   4.927   7.764 -1.9767 -0.3835  1.6392
  149MOL0     H19660   1.273   5.037   7.964 -1.1201  0.0451 -0.4912
  149MOL0     H19661   1.445   5.065   7.929 -0.4758  1.0444 -0.9909
  149MOL0     H19662   1.351   5.257   8.024  0.9804 -1.8975 -0.8028
  149MOL0     H19663   1.216   5.258   7.917 -0.8313 -0.2648  2.2709
  149MOL0     H19664   1.366   5.290   7.725 -2.4037 -1.7728  0.8580
  149MOL0     H19665   1.353   5.424   7.844 -1.1543 -0.4786  0.7047
  149MOL0     H19666   1.755   5.350   7.879  0.4903 -0.1649 -1.3286
  149MOL0     H19667   1.171   4.864   7.879  0.3408 -1.4506 -0.7391
  149MOL0     H19668   0.953   4.762   7.953  0.5104  0.0083 -0.2314
  150MOL0     O19669   9.719   9.775   8.894 -0.2102 -0.2320 -0.4047
  150MOL0     C19670   9.669   9.755   8.782  0.3837  0.3737 -0.1385
  150MOL0     O19671   9.544   9.733   8.753 -1.0893 -0.2703 -0.3453
  150MOL0     C19672   9.440   9.758   8.843 -0.7558  0.5032 -0.2672
  150MOL0     C19673   9.424   9.865   8.932 -0.9006  0.1550 -0.7943
  150MOL0     C19674   9.315   9.873   9.020 -0.3716  1.0094 -1.2291
  150MOL0     C19675   9.208   9.771   9.006  0.7487 -0.4525  0.2934
  150MOL0     O19676   9.096   9.760   9.084 -0.1473  0.5133 -0.0918
  150MOL0     C19677   9.070   9.874   9.157  0.2589  1.1006 -0.6684
  150MOL0     C19678   8.938   9.871   9.231 -0.3696  0.2089 -1.2175
  150MOL0     C19679   8.961   9.768   9.350  0.8402  0.3152 -0.0572
  150MOL0     C19680   8.817   9.705   9.402 -0.0653 -0.3211  0.7126
  150MOL0     C19681   8.835   9.625   9.531 -0.9108 -0.3617  0.1752
  150MOL0     C19682   8.928   9.507   9.505 -1.0655  0.1882 -0.4196
  150MOL0     C19683   8.949   9.424   9.626 -0.1133 -0.3105 -0.6219
  150MOL0     C19684   9.033   9.493   9.737  0.0017  0.7143  0.5134
  150MOL0     N19685   9.173   9.500   9.700 -0.5778  0.6585  0.3191
  150MOL0     C19686   9.255   9.391   9.701 -0.5492  0.3072 -0.1379
  150MOL0     C19687   9.381   9.445   9.669 -0.0915  1.2010  0.3078
  150MOL0     C19688   9.504   9.358   9.663  0.6568  0.2311  1.3674
  150MOL0     C19689   9.612   9.397   9.765 -0.0216  0.1312  0.0824
  150MOL0     C19690   9.743   9.317   9.727  0.6202 -0.5043  0.2510
  150MOL0     C19691   9.858   9.341   9.838 -0.4455  0.9458  1.1832
  150MOL0     O19692   9.966   9.246   9.810  0.5402 -0.9002  0.3222
  150MOL0     C19693  10.076   9.256   9.886  0.3694  0.1154  0.0804
  150MOL0     C19694  10.089   9.338   9.994 -0.6676 -0.4012  0.3888
  150MOL0     C19695  10.213   9.344  10.059 -0.2142 -0.0493 -0.1513
  150MOL0     C19696  10.327   9.283  10.012  0.4721  0.4123  0.0763
  150MOL0     C19697  10.458   9.283  10.072  0.3936  0.0147  0.2109
  150MOL0     O19698  10.563   9.243   9.991  0.5291  0.1792  0.1813
  150MOL0     C19699  10.677   9.228  10.053 -0.2839 -0.1011  0.3951
  150MOL0     C19700  10.710   9.117  10.128 -0.0436 -0.3216  0.7083
  150MOL0     C19701  10.835   9.108  10.190  0.3005  0.2410 -0.7410
  150MOL0     C19702  10.932   9.212  10.171  0.0739  0.4498  0.5673
  150MOL0     O19703  11.049   9.227  10.238  0.1132 -0.0428 -0.4358
  150MOL0     C19704  11.139   9.111  10.219  0.1342  0.1693  0.4100
  150MOL0     C19705  11.225   9.127  10.095 -0.2250 -0.4511  1.0533
  150MOL0     C19706  11.346   9.216  10.113  0.3963  0.1828  0.2348
  150MOL0     C19707  11.406   9.234   9.970 -0.4401  0.6459  0.5043
  150MOL0     C19708  11.550   9.281   9.975  0.1777  0.2519  0.3120
  150MOL0     C19709  11.610   9.336   9.848 -0.6522  0.5646 -0.2052
  150MOL0     C19710  11.545   9.460   9.792  0.4932 -0.0740 -0.1508
  150MOL0     C19711  11.536   9.578   9.882 -0.1072 -0.3157  0.1562
  150MOL0    Cl19712  11.693   9.618   9.963 -0.6150 -0.1913  0.3169
  150MOL0     C19713  10.899   9.325  10.099  0.4725 -0.1673 -0.8704
  150MOL0     C19714  10.776   9.336  10.042  0.0959  0.2753 -0.7227
  150MOL0     O19715  10.464   9.333  10.188 -0.4388  0.0933  0.1162
  150MOL0     C19716  10.306   9.197   9.897  0.1760  0.1290 -0.2518
  150MOL0     C19717  10.180   9.184   9.839  0.2236  0.7724  0.0559
  150MOL0     N19718   9.374   9.581   9.649 -0.2290 -0.5203 -0.2008
  150MOL0     N19719   9.247   9.606   9.663 -0.2027  0.6866 -0.0702
  150MOL0     C19720   9.226   9.670   8.915 -0.6974  0.6126 -0.1002
  150MOL0     C19721   9.342   9.655   8.835 -0.8817 -0.2426  0.0247
  150MOL0     C19722   9.762   9.753   8.670 -0.1763 -0.2314  0.0307
  150MOL0     C19723   9.891   9.801   8.682 -0.5645  0.7504 -0.5854
  150MOL0     C19724   9.981   9.796   8.578  0.5964  0.6552 -0.5456
  150MOL0     C19725   9.943   9.757   8.450 -0.8104  0.4606 -0.1899
  150MOL0     O19726  10.047   9.755   8.361  0.2918 -0.4371  0.3103
  150MOL0     C19727  10.018   9.708   8.227 -0.1308 -0.4452  0.3015
  150MOL0     C19728  10.160   9.720   8.158  1.1207 -0.6068  0.0697
  150MOL0     C19729  10.220   9.863   8.151  0.0520  1.0433  0.3169
  150MOL0     C19730  10.354   9.857   8.088  0.5203  0.2769 -0.0766
  150MOL0     C19731  10.416   9.985   8.068  0.3894  0.0818 -0.5037
  150MOL0     C19732  10.454  10.102   8.054  0.0752  0.4896 -0.3750
  150MOL0     C19733   9.810   9.718   8.436 -0.6457 -0.2346  0.2411
  150MOL0     C19734   9.719   9.710   8.543  0.4999  0.1168 -0.1408
  150MOL0     H19735   9.503   9.938   8.949 -0.0084 -0.6802 -1.2648
  150MOL0     H19736   9.308   9.961   9.083  0.8223 -0.0757  0.4966
  150MOL0     H19737   9.062   9.971   9.107 -2.2437  2.7558  2.5348
  150MOL0     H19738   9.148   9.885   9.233  0.2365  0.4865 -0.5504
  150MOL0     H19739   8.848   9.849   9.174  0.0160 -1.4730 -1.2298
  150MOL0     H19740   8.927   9.971   9.274 -0.1594 -0.3445  0.1749
  150MOL0     H19741   9.034   9.805   9.423 -0.7123  2.5596  0.4619
  150MOL0     H19742   9.002   9.678   9.303  1.7105  0.9952 -0.6259
  150MOL0     H19743   8.771   9.800   9.427  1.4660  1.6614 -3.0934
  150MOL0     H19744   8.782   9.645   9.317  1.4385  1.8668 -1.6274
  150MOL0     H19745   8.733   9.593   9.554 -1.1063 -1.0775 -1.5548
  150MOL0     H19746   8.883   9.691   9.604  1.4510 -0.6694 -1.0112
  150MOL0     H19747   9.027   9.544   9.478  1.0347 -1.0631  4.4489
  150MOL0     H19748   8.889   9.440   9.428 -0.2696 -1.5281  0.6061
  150MOL0     H19749   8.851   9.389   9.658 -0.5497  1.3565 -0.0106
  150MOL0     H19750   9.006   9.338   9.589 -0.8651 -0.1542 -2.2368
  150MOL0     H19751   9.019   9.430   9.826 -1.9065 -2.2907 -1.6988
  150MOL0     H19752   9.006   9.598   9.751  0.7217  1.0417 -0.4879
  150MOL0     H19753   9.229   9.286   9.709 -3.0327  0.9338  1.1657
  150MOL0     H19754   9.542   9.365   9.561 -0.4854  2.1481  1.0267
  150MOL0     H19755   9.471   9.259   9.697  3.6735 -1.7480 -0.9123
  150MOL0     H19756   9.578   9.372   9.866  2.8831  0.0352  1.1282
  150MOL0     H19757   9.626   9.505   9.765 -1.3857  0.3369  0.2729
  150MOL0     H19758   9.716   9.211   9.733 -0.2347 -0.2143  2.2651
  150MOL0     H19759   9.771   9.342   9.624 -1.7562  3.1348  0.3349
  150MOL0     H19760   9.811   9.325   9.935 -0.4353 -0.1992  1.0148
  150MOL0     H19761   9.897   9.442   9.825  0.1566  0.3060 -5.5772
  150MOL0     H19762  10.003   9.398  10.023  0.5418  0.5875  2.0711
  150MOL0     H19763  10.209   9.407  10.147  1.6494  0.9094 -0.6873
  150MOL0     H19764  10.648   9.028  10.126  1.1399 -1.1716  0.2988
  150MOL0     H19765  10.852   9.018  10.249  0.1675 -1.0098 -2.5455
  150MOL0     H19766  11.087   9.015  10.219  2.2704 -1.0879 -1.7628
  150MOL0     H19767  11.202   9.124  10.308 -1.4084 -0.1068  1.5837
  150MOL0     H19768  11.174   9.140   9.999 -1.7502 -0.6224  1.8059
  150MOL0     H19769  11.250   9.021  10.089 -0.3789 -0.4764  0.8481
  150MOL0     H19770  11.414   9.177  10.190  0.9082  0.2979 -0.1547
  150MOL0     H19771  11.317   9.310  10.160  1.0761  0.6700 -0.3038
  150MOL0     H19772  11.405   9.135   9.922 -2.5280  1.4595 -1.2447
  150MOL0     H19773  11.350   9.305   9.909  0.1954  1.4883  0.8883
  150MOL0     H19774  11.606   9.190  10.000 -1.2922 -0.5967  0.6492
  150MOL0     H19775  11.562   9.347  10.061  2.3805  0.1149  0.1629
  150MOL0     H19776  11.599   9.259   9.770  1.6002 -0.0592  0.0314
  150MOL0     H19777  11.716   9.343   9.873 -1.0345  0.0826  1.7125
  150MOL0     H19778  11.607   9.486   9.705  2.7878 -1.0246  1.0998
  150MOL0     H19779  11.443   9.430   9.767 -0.2418  1.4771  0.8441
  150MOL0     H19780  11.468   9.564   9.966 -0.9158 -0.7728 -0.5604
  150MOL0     H19781  11.504   9.667   9.828  1.7989  0.8147  0.7935
  150MOL0     H19782  10.969   9.409  10.098  0.5493  0.1741  4.4893
  150MOL0     H19783  10.757   9.416   9.971  0.5548  1.8666  0.8686
  150MOL0     H19784  10.390   9.145   9.851  0.1278  0.9995 -1.3795
  150MOL0     H19785  10.172   9.125   9.748  1.6094 -1.2604  1.1482
  150MOL0     H19786   9.147   9.595   8.917  2.4245 -3.3024 -3.9804
  150MOL0     H19787   9.360   9.584   8.755 -0.1633  0.4055 -0.4017
  150MOL0     H19788   9.941   9.830   8.774  1.0932 -1.4319 -0.7091
  150MOL0     H19789  10.084   9.830   8.590  1.8922 -2.5909 -1.3522
  150MOL0     H19790   9.941   9.756   8.166  1.8684 -2.4913 -4.3227
  150MOL0     H19791   9.982   9.605   8.241  2.0528 -1.2412  0.4809
  150MOL0     H19792  10.217   9.663   8.232 -0.3176 -0.4560  1.3468
  150MOL0     H19793  10.160   9.670   8.060 -2.1450  0.4409 -0.6181
  150MOL0     H19794  10.228   9.912   8.248  1.0810  1.9739 -0.1990
  150MOL0     H19795  10.152   9.918   8.085 -1.8816 -0.9654  0.5353
  150MOL0     H19796  10.417   9.788   8.146  1.1095 -0.4047 -1.4712
  150MOL0     H19797  10.341   9.800   7.995 -1.2569  0.5477 -0.0342
  150MOL0     H19798  10.480  10.206   8.052  0.1977  0.4585 -2.7801
  150MOL0     H19799   9.774   9.689   8.338 -3.0046  1.6156  0.4597
  150MOL0     H19800   9.619   9.681   8.511  1.1053 -4.0983  1.0995
  151MOL0     O19801   8.263   6.780  10.130  0.1903 -0.2801  0.0528
  151MOL0     C19802   8.377   6.739  10.106  0.0557  0.3230  0.6030
  151MOL0     O19803   8.421   6.607  10.151  0.0798  0.3644 -0.2923
  151MOL0     C19804   8.333   6.503  10.191  0.1205 -0.0607 -0.6189
  151MOL0     C19805   8.386   6.408  10.282  0.4563  0.6797  0.2699
  151MOL0     C19806   8.316   6.296  10.324  0.0196  0.5342 -0.3652
  151MOL0     C19807   8.181   6.266  10.278 -0.3785 -0.0108 -0.3911
  151MOL0     O19808   8.102   6.153  10.309 -0.2270 -0.1807 -0.8742
  151MOL0     C19809   7.959   6.171  10.305  0.5372 -0.6950 -0.4373
  151MOL0     C19810   7.888   6.064  10.389  0.1715  0.5486  0.0548
  151MOL0     C19811   7.743   6.087  10.385  0.3791  0.1003  0.3314
  151MOL0     C19812   7.653   6.007  10.485  0.0486  0.7162  0.1719
  151MOL0     C19813   7.506   6.045  10.469  0.5213 -0.6116 -0.2389
  151MOL0     C19814   7.415   5.947  10.556  0.0379 -0.3155  0.3297
  151MOL0     C19815   7.430   5.797  10.526  0.0380  0.3806 -0.6010
  151MOL0     C19816   7.405   5.758  10.384  0.3440 -0.1238 -0.0798
  151MOL0     N19817   7.274   5.796  10.339  0.1426 -0.1452  0.5377
  151MOL0     C19818   7.244   5.870  10.227 -0.3011 -0.7035  0.9931
  151MOL0     C19819   7.108   5.881  10.229  0.3872 -0.1304  0.2288
  151MOL0     C19820   7.023   5.953  10.127  0.4802  0.6492  0.0393
  151MOL0     C19821   6.877   5.979  10.179 -0.1788 -0.0780  0.3998
  151MOL0     C19822   6.828   6.094  10.102  0.6821 -0.4233  0.4045
  151MOL0     C19823   6.672   6.112  10.109 -0.5785 -0.3996  0.3139
  151MOL0     O19824   6.614   6.028  10.009 -0.4676 -0.1936  0.2806
  151MOL0     C19825   6.549   6.093   9.905  1.1149  0.1125 -0.3410
  151MOL0     C19826   6.426   6.161   9.935 -0.3547 -0.5108  0.3106
  151MOL0     C19827   6.333   6.191   9.830  0.0707  1.4077 -0.6568
  151MOL0     C19828   6.359   6.157   9.702  0.4376  0.0489  0.6568
  151MOL0     C19829   6.255   6.176   9.598  0.3165 -0.0363 -0.5069
  151MOL0     O19830   6.123   6.200   9.639  1.2827  0.2931 -0.2109
  151MOL0     C19831   6.016   6.223   9.547 -0.6571  1.3999  0.0198
  151MOL0     C19832   6.018   6.179   9.417 -0.5389  0.0996  0.1509
  151MOL0     C19833   5.911   6.194   9.335 -0.9916  0.1670 -0.2907
  151MOL0     C19834   5.801   6.264   9.380  0.4827 -0.0052  1.0068
  151MOL0     O19835   5.695   6.284   9.292  0.1435 -0.2148 -1.4410
  151MOL0     C19836   5.564   6.271   9.343 -0.4760 -0.2049  0.1311
  151MOL0     C19837   5.476   6.220   9.232 -0.3694 -0.5420 -0.1829
  151MOL0     C19838   5.482   6.291   9.097  1.3691  0.3071 -0.0745
  151MOL0     C19839   5.429   6.178   9.001  0.0731 -0.3270 -0.4499
  151MOL0     C19840   5.415   6.230   8.861  0.7899  0.6133 -0.5303
  151MOL0     C19841   5.284   6.304   8.830  0.3689 -0.2079  1.0141
  151MOL0     C19842   5.288   6.375   8.693 -0.1436 -0.0573 -0.1419
  151MOL0     C19843   5.155   6.440   8.653  0.7653  0.1837  0.1644
  151MOL0    Cl19844   5.029   6.315   8.650 -0.0935  0.0565 -0.5412
  151MOL0     C19845   5.794   6.300   9.512 -0.8659 -0.4582 -0.4864
  151MOL0     C19846   5.898   6.273   9.595 -0.2473 -0.9944  0.2352
  151MOL0     O19847   6.298   6.170   9.478  0.4108 -0.0194 -0.2992
  151MOL0     C19848   6.485   6.098   9.662 -0.5553  0.0164  0.1099
  151MOL0     C19849   6.577   6.066   9.765  0.0468 -0.4797 -0.8378
  151MOL0     N19850   7.061   5.831  10.350  0.7076  0.3818  0.1128
  151MOL0     N19851   7.155   5.776  10.403 -0.3967 -0.0315 -0.2463
  151MOL0     C19852   8.128   6.367  10.191  0.1216 -0.0352  0.4408
  151MOL0     C19853   8.194   6.481  10.151  0.0446 -0.8698 -0.8520
  151MOL0     C19854   8.477   6.828  10.040 -0.6855  0.6503 -0.2487
  151MOL0     C19855   8.613   6.799  10.029 -0.1029  0.0914  0.1164
  151MOL0     C19856   8.703   6.878   9.961 -0.3721  0.1846  1.0542
  151MOL0     C19857   8.660   6.997   9.896  0.4543  0.1996 -0.5693
  151MOL0     O19858   8.738   7.071   9.808 -0.3722  0.3840 -0.5115
  151MOL0     C19859   8.859   7.009   9.759  1.1602  0.2955  0.7217
  151MOL0     C19860   8.927   7.084   9.648 -0.2814  0.8437  0.0162
  151MOL0     C19861   9.068   7.020   9.627 -0.1100 -0.0209  0.4193
  151MOL0     C19862   9.128   7.106   9.511 -0.1011 -0.1816 -0.2752
  151MOL0     C19863   9.262   7.047   9.479  0.4947  0.1507 -0.4887
  151MOL0     C19864   9.369   6.989   9.444 -0.3241  0.5385  0.4306
  151MOL0     C19865   8.523   7.036   9.912 -0.0652 -0.4805  0.2399
  151MOL0     C19866   8.435   6.954   9.983  0.2037  0.0069 -0.5242
  151MOL0     H19867   8.488   6.426  10.315 -0.1845 -0.4317  3.2302
  151MOL0     H19868   8.368   6.225  10.387  0.3201  1.5421  0.5463
  151MOL0     H19869   7.912   6.180  10.207  0.2973 -0.2289 -0.2844
  151MOL0     H19870   7.936   6.271  10.344  0.8515 -0.5122 -0.7172
  151MOL0     H19871   7.919   6.077  10.493 -4.3081 -0.5181  1.7639
  151MOL0     H19872   7.911   5.963  10.353  0.6357 -0.6095  3.2886
  151MOL0     H19873   7.703   6.082  10.283  0.4383  0.6596  0.2757
  151MOL0     H19874   7.726   6.194  10.401  0.0511  0.3448 -1.4450
  151MOL0     H19875   7.683   5.902  10.476  0.7730  0.9121  0.2619
  151MOL0     H19876   7.685   6.036  10.586 -3.1260  1.9966  0.9255
  151MOL0     H19877   7.483   6.043  10.362 -0.4077 -1.0676 -0.0340
  151MOL0     H19878   7.487   6.145  10.510 -0.4120 -0.6194 -0.6472
  151MOL0     H19879   7.310   5.971  10.540  0.9288  2.2370 -2.7804
  151MOL0     H19880   7.442   5.951  10.662 -1.3231 -1.4097  0.7423
  151MOL0     H19881   7.531   5.765  10.552  1.9964  4.6079 -2.1937
  151MOL0     H19882   7.349   5.745  10.579  1.0742 -2.3422 -1.5060
  151MOL0     H19883   7.397   5.649  10.393  3.1624 -0.3945 -0.1723
  151MOL0     H19884   7.495   5.785  10.329 -0.2994 -0.7192 -1.4640
  151MOL0     H19885   7.317   5.900  10.152 -2.4817 -0.6728 -1.2523
  151MOL0     H19886   7.036   5.890  10.039  0.4784  0.0616  0.4554
  151MOL0     H19887   7.079   6.046  10.113  0.5956  0.3030 -2.0514
  151MOL0     H19888   6.875   6.008  10.285 -1.0312 -1.1401  0.6994
  151MOL0     H19889   6.816   5.888  10.170  1.5850 -1.0984 -4.1219
  151MOL0     H19890   6.885   6.184  10.129  2.2287 -1.6473  1.3938
  151MOL0     H19891   6.847   6.084   9.995 -0.7816 -0.2884  0.1146
  151MOL0     H19892   6.649   6.216  10.084  0.0817 -0.5105 -0.8006
  151MOL0     H19893   6.629   6.087  10.206  0.0140 -0.3422  0.5925
  151MOL0     H19894   6.393   6.168  10.038  1.0135  1.5327  0.6729
  151MOL0     H19895   6.237   6.231   9.861 -1.0911 -1.0725 -0.8507
  151MOL0     H19896   6.104   6.141   9.363 -0.4159  2.9887 -1.9225
  151MOL0     H19897   5.912   6.139   9.241 -1.3984  1.0224 -0.8061
  151MOL0     H19898   5.535   6.368   9.384  2.8114  0.3990  1.3742
  151MOL0     H19899   5.553   6.196   9.422 -1.1860 -0.2379  0.0036
  151MOL0     H19900   5.372   6.223   9.264  0.2859  1.6090  2.1652
  151MOL0     H19901   5.508   6.117   9.217  0.3882 -0.3241 -0.1372
  151MOL0     H19902   5.581   6.327   9.068  0.9117  0.4272 -1.5685
  151MOL0     H19903   5.426   6.385   9.095  1.4607  0.3578 -1.8137
  151MOL0     H19904   5.506   6.100   8.994  0.8015  0.5036 -2.5075
  151MOL0     H19905   5.334   6.131   9.029 -0.8921  0.1907 -2.6579
  151MOL0     H19906   5.428   6.153   8.784  1.1730  0.9380 -0.7933
  151MOL0     H19907   5.492   6.306   8.843 -0.3341  2.3590  1.5589
  151MOL0     H19908   5.257   6.388   8.894 -0.0162  1.9298 -1.7678
  151MOL0     H19909   5.204   6.231   8.812  1.0046 -0.3275 -1.9206
  151MOL0     H19910   5.363   6.455   8.696 -0.4738  0.3012 -1.1567
  151MOL0     H19911   5.313   6.326   8.598  0.9123  0.4586 -0.1490
  151MOL0     H19912   5.161   6.490   8.556  2.6108  1.8504  1.0621
  151MOL0     H19913   5.126   6.509   8.733 -1.6993 -1.5326  0.8584
  151MOL0     H19914   5.704   6.338   9.559  1.6612  2.5629  2.3778
  151MOL0     H19915   5.888   6.295   9.700  3.2982 -1.6596  0.8331
  151MOL0     H19916   6.508   6.068   9.561 -0.4100 -0.7066  0.3514
  151MOL0     H19917   6.669   6.010   9.746 -0.0717 -0.3465 -1.8765
  151MOL0     H19918   8.029   6.358  10.149 -0.5225  0.9480  1.6770
  151MOL0     H19919   8.140   6.548  10.084 -0.0492 -1.2268 -1.1414
  151MOL0     H19920   8.637   6.699  10.065  3.0170  0.4224 -0.7565
  151MOL0     H19921   8.805   6.842   9.956 -0.8698 -1.3107  1.3050
  151MOL0     H19922   8.842   6.904   9.732  0.6229  0.6094 -0.2115
  151MOL0     H19923   8.920   7.000   9.849  2.2109 -0.0181 -0.0060
  151MOL0     H19924   8.873   7.078   9.553 -0.6159  2.7720  0.0399
  151MOL0     H19925   8.933   7.190   9.676  0.9425  0.8382 -0.1852
  151MOL0     H19926   9.070   6.919   9.586  1.5353 -0.6559  1.9237
  151MOL0     H19927   9.125   7.017   9.720 -0.8036 -1.3167  0.8169
  151MOL0     H19928   9.072   7.100   9.417  1.0929 -0.1830 -1.0048
  151MOL0     H19929   9.140   7.208   9.548  0.6302 -0.9887  1.8830
  151MOL0     H19930   9.454   6.940   9.402 -1.5283 -0.1848 -1.2914
  151MOL0     H19931   8.484   7.126   9.867 -0.0160 -0.1751  0.7982
  151MOL0     H19932   8.341   6.998  10.018  1.8193  2.4946  1.0365
  152MOL0     O19933   6.209   0.780   3.605 -0.1586 -0.6910 -0.2348
  152MOL0     C19934   6.172   0.670   3.652 -0.0890 -0.3537 -0.6766
  152MOL0     O19935   6.054   0.636   3.707 -0.2315 -0.3082  0.0884
  152MOL0     C19936   5.959   0.732   3.728 -0.5979 -0.4545  0.7450
  152MOL0     C19937   5.992   0.856   3.780  0.8167 -0.1574  0.7938
  152MOL0     C19938   5.893   0.953   3.809  0.4264  0.2243 -0.2097
  152MOL0     C19939   5.762   0.930   3.785 -0.6163  0.7492 -0.0953
  152MOL0     O19940   5.671   1.030   3.811 -0.9413 -0.1030 -0.1115
  152MOL0     C19941   5.532   0.998   3.813 -0.2062 -0.2317  0.4694
  152MOL0     C19942   5.448   1.120   3.794  0.7175  0.4101  0.1681
  152MOL0     C19943   5.307   1.106   3.759  0.1961  0.1017 -0.3704
  152MOL0     C19944   5.247   1.235   3.712  0.2131 -0.3946  0.4834
  152MOL0     C19945   5.100   1.219   3.688 -0.3657  0.2414  0.3994
  152MOL0     C19946   5.035   1.354   3.670 -0.6201 -0.3468  0.0413
  152MOL0     C19947   4.889   1.328   3.635  0.5015 -0.5972  0.3622
  152MOL0     C19948   4.817   1.462   3.635 -0.3245  0.6778 -0.1256
  152MOL0     N19949   4.682   1.469   3.585  0.7887  0.6232  1.4890
  152MOL0     C19950   4.591   1.560   3.649 -0.4397  0.4391  0.6837
  152MOL0     C19951   4.493   1.566   3.558 -0.1890  0.6528  0.1293
  152MOL0     C19952   4.372   1.654   3.569 -0.9306  0.1991  0.8866
  152MOL0     C19953   4.239   1.578   3.557 -0.4332 -0.6299 -0.1517
  152MOL0     C19954   4.123   1.687   3.564  0.8926  0.3376 -0.2336
  152MOL0     C19955   3.986   1.634   3.519  0.0856 -0.1070 -0.2400
  152MOL0     O19956   3.890   1.717   3.569 -0.0513  0.2203 -0.6067
  152MOL0     C19957   3.760   1.678   3.555 -0.6006 -0.0710  0.8747
  152MOL0     C19958   3.667   1.757   3.617  0.8762  0.2272  0.0624
  152MOL0     C19959   3.531   1.737   3.610 -0.1715  0.2080  0.0670
  152MOL0     C19960   3.477   1.624   3.538 -0.6556  0.4665 -0.2384
  152MOL0     C19961   3.331   1.597   3.530 -0.8424 -0.6351 -1.1351
  152MOL0     O19962   3.258   1.642   3.637 -0.9848 -0.4211 -0.1577
  152MOL0     C19963   3.121   1.646   3.639 -0.4037  0.3472 -0.7465
  152MOL0     C19964   3.060   1.765   3.615 -1.6494 -0.9579  0.0289
  152MOL0     C19965   2.924   1.781   3.628  0.2301  0.3012 -0.0587
  152MOL0     C19966   2.842   1.677   3.669 -0.2513 -0.2537  0.1796
  152MOL0     O19967   2.703   1.678   3.678  0.1804  0.0793  0.4708
  152MOL0     C19968   2.640   1.803   3.647 -0.1825 -0.0112  0.6319
  152MOL0     C19969   2.492   1.780   3.673  0.2125  0.8311  0.4406
  152MOL0     C19970   2.425   1.674   3.577 -0.4867 -0.6333  0.4154
  152MOL0     C19971   2.287   1.637   3.626  0.0656 -0.4451 -0.3626
  152MOL0     C19972   2.228   1.537   3.528  0.3712  0.3511  0.7697
  152MOL0     C19973   2.120   1.445   3.595 -0.2713 -0.1166  0.0504
  152MOL0     C19974   1.991   1.519   3.637  0.3219 -0.4370 -0.1094
  152MOL0     C19975   1.865   1.438   3.668 -0.7693 -0.0374  0.8671
  152MOL0    Cl19976   1.897   1.324   3.800  0.0486 -0.1046  0.2682
  152MOL0     C19977   2.910   1.557   3.696 -0.1564 -0.4321  0.1198
  152MOL0     C19978   3.040   1.548   3.685 -0.7787  0.4339 -0.9179
  152MOL0     O19979   3.291   1.558   3.422 -0.7977 -0.0025 -0.3726
  152MOL0     C19980   3.566   1.539   3.476 -0.4713  0.4818  0.3737
  152MOL0     C19981   3.711   1.567   3.473  0.4296  0.7122 -1.0712
  152MOL0     N19982   4.526   1.492   3.444  0.8069  0.3817 -0.6662
  152MOL0     N19983   4.642   1.441   3.457  0.4772  0.4583 -1.5005
  152MOL0     C19984   5.729   0.812   3.715  0.3896 -0.5220  0.0205
  152MOL0     C19985   5.828   0.709   3.695  0.0930  0.3022  0.0644
  152MOL0     C19986   6.275   0.556   3.633  0.6010  0.0252 -0.6440
  152MOL0     C19987   6.302   0.459   3.735 -0.4583  0.5033  0.5881
  152MOL0     C19988   6.414   0.374   3.723  0.5728 -0.6293 -0.1594
  152MOL0     C19989   6.503   0.384   3.621  0.0007 -0.5820  0.6212
  152MOL0     O19990   6.618   0.314   3.632  0.1991  0.7942  0.4086
  152MOL0     C19991   6.734   0.347   3.549  0.3189  0.8368 -0.1973
  152MOL0     C19992   6.855   0.264   3.580 -0.9250  0.5010 -0.1497
  152MOL0     C19993   6.973   0.289   3.485  0.2654 -0.5884 -0.2554
  152MOL0     C19994   7.098   0.227   3.526  0.2469  1.2091 -0.6035
  152MOL0     C19995   7.155   0.302   3.637  0.2301  0.0116  0.1014
  152MOL0     C19996   7.224   0.344   3.729  0.5077 -0.2146 -0.2936
  152MOL0     C19997   6.482   0.486   3.530  0.1254  0.2100 -0.1057
  152MOL0     C19998   6.369   0.569   3.533 -0.1253  0.0184  0.7843
  152MOL0     H19999   6.093   0.872   3.814  1.0185 -0.3013  0.2669
  152MOL0     H20000   5.925   1.046   3.855  1.7432 -0.4086  0.2323
  152MOL0     H20001   5.502   0.948   3.905  0.6286  0.6290  1.2357
  152MOL0     H20002   5.504   0.951   3.718 -0.1731  0.4310  0.1183
  152MOL0     H20003   5.496   1.170   3.710  0.5656  1.7506  0.8558
  152MOL0     H20004   5.463   1.181   3.884  0.9983  1.7779 -0.7812
  152MOL0     H20005   5.253   1.066   3.845 -1.8508  1.5043 -0.9246
  152MOL0     H20006   5.286   1.031   3.682  1.6455 -1.8405  1.0296
  152MOL0     H20007   5.261   1.312   3.788  0.5084  1.3298 -1.2253
  152MOL0     H20008   5.299   1.279   3.626  0.1389  0.2730  0.7735
  152MOL0     H20009   5.056   1.179   3.779 -0.5556 -1.2834 -0.3380
  152MOL0     H20010   5.076   1.151   3.605 -0.8666  1.5293 -0.5499
  152MOL0     H20011   5.094   1.395   3.587  1.6880 -0.1225  1.6940
  152MOL0     H20012   5.048   1.416   3.759 -0.5330 -2.1353  1.3215
  152MOL0     H20013   4.872   1.284   3.536  0.1422 -1.2606  0.7072
  152MOL0     H20014   4.836   1.256   3.699  0.7758 -1.7363 -0.6480
  152MOL0     H20015   4.877   1.540   3.586  0.2192  0.4885  0.2335
  152MOL0     H20016   4.817   1.492   3.740  0.7619  1.9160 -0.4505
  152MOL0     H20017   4.596   1.611   3.745  3.8527  0.8360  0.4654
  152MOL0     H20018   4.373   1.725   3.486 -0.6158  1.7001  2.1320
  152MOL0     H20019   4.381   1.718   3.657 -0.4989  0.3035  0.7688
  152MOL0     H20020   4.223   1.504   3.636  1.4032  1.1122  1.9926
  152MOL0     H20021   4.235   1.527   3.460  1.1212 -2.4149  0.6609
  152MOL0     H20022   4.118   1.730   3.665 -0.8405 -1.5099  0.5471
  152MOL0     H20023   4.142   1.768   3.494 -0.7038  0.0067 -1.0890
  152MOL0     H20024   3.967   1.544   3.578 -1.1478 -0.8046 -1.6352
  152MOL0     H20025   3.978   1.605   3.414 -2.3124 -1.7936  0.3467
  152MOL0     H20026   3.706   1.843   3.670 -0.8298  0.7911  0.4821
  152MOL0     H20027   3.467   1.812   3.656 -0.9566 -0.1474 -0.4202
  152MOL0     H20028   3.122   1.852   3.597  0.3873 -1.9239  1.8767
  152MOL0     H20029   2.880   1.878   3.605 -0.9156 -0.2686 -0.3378
  152MOL0     H20030   2.644   1.826   3.540 -2.1716 -0.0959  0.5095
  152MOL0     H20031   2.672   1.884   3.712  0.3149  2.1331 -2.1100
  152MOL0     H20032   2.434   1.872   3.663  0.7693  1.2601  1.0754
  152MOL0     H20033   2.486   1.742   3.776  0.9622  0.2745  0.2877
  152MOL0     H20034   2.490   1.586   3.578  5.0529  2.7057 -3.7715
  152MOL0     H20035   2.427   1.710   3.474  1.1647 -1.9110 -0.0413
  152MOL0     H20036   2.300   1.601   3.729  0.9311  3.1937  0.9602
  152MOL0     H20037   2.227   1.728   3.636  1.6420  0.4758  1.6260
  152MOL0     H20038   2.297   1.458   3.496  0.0160  0.3496 -0.0259
  152MOL0     H20039   2.189   1.581   3.436  1.9989 -0.1737 -0.2206
  152MOL0     H20040   2.169   1.378   3.666 -0.4335  1.3752  1.6270
  152MOL0     H20041   2.091   1.386   3.507  0.6954  0.5285 -0.7176
  152MOL0     H20042   2.007   1.588   3.720  0.2725 -1.7712  1.0472
  152MOL0     H20043   1.957   1.587   3.558  0.1999 -1.2914 -0.8142
  152MOL0     H20044   1.825   1.380   3.584  1.5471 -0.0962 -0.2859
  152MOL0     H20045   1.789   1.513   3.691  1.0571  2.5145 -0.7406
  152MOL0     H20046   2.860   1.465   3.723  1.1652 -1.5257 -0.9677
  152MOL0     H20047   3.081   1.451   3.711 -0.8346  0.4321 -0.8352
  152MOL0     H20048   3.537   1.445   3.429 -1.6593  0.7026  0.6400
  152MOL0     H20049   3.777   1.501   3.418  0.6601 -0.1582  0.1963
  152MOL0     H20050   5.627   0.782   3.693  0.8698 -3.7810  1.5631
  152MOL0     H20051   5.798   0.613   3.652 -4.2168  2.6008 -2.8742
  152MOL0     H20052   6.243   0.455   3.825  1.7037  2.9938  2.2727
  152MOL0     H20053   6.426   0.292   3.793 -3.1924 -0.5970  0.6963
  152MOL0     H20054   6.764   0.451   3.565  1.0270  0.3232  2.2591
  152MOL0     H20055   6.707   0.333   3.444  0.8779  3.1392 -0.7086
  152MOL0     H20056   6.885   0.299   3.679 -0.6869 -0.6743  0.2059
  152MOL0     H20057   6.838   0.156   3.585 -0.0548  0.3978  1.1101
  152MOL0     H20058   7.000   0.395   3.492  0.5166 -0.7516  1.7283
  152MOL0     H20059   6.954   0.279   3.377  1.1561  0.8698 -0.5817
  152MOL0     H20060   7.082   0.124   3.560 -1.3021  2.0314  1.3676
  152MOL0     H20061   7.163   0.234   3.439  0.5243 -0.4749 -0.5638
  152MOL0     H20062   7.302   0.369   3.799 -0.3688  1.3805  0.1510
  152MOL0     H20063   6.554   0.508   3.452  2.0618  1.5001  1.9501
  152MOL0     H20064   6.366   0.649   3.460 -0.3254 -1.2729 -0.6908
  153MOL0     O20065  11.092   6.630   9.237 -0.1919 -0.0714  0.9482
  153MOL0     C20066  11.116   6.506   9.237  0.4634  0.2405 -0.0624
  153MOL0     O20067  11.026   6.411   9.248  0.6217  0.2539 -0.2052
  153MOL0     C20068  10.893   6.440   9.262 -0.1068 -0.2443 -0.6051
  153MOL0     C20069  10.792   6.379   9.184  0.4970 -0.4700  0.0430
  153MOL0     C20070  10.655   6.392   9.209  0.7240  0.1734  0.0015
  153MOL0     C20071  10.610   6.483   9.302  0.3523  0.1188  0.9588
  153MOL0     O20072  10.474   6.497   9.298  0.4049 -0.7357  0.4722
  153MOL0     C20073  10.414   6.560   9.411 -0.0615  0.0242 -0.2065
  153MOL0     C20074  10.262   6.551   9.412 -0.7314  0.8773  0.7363
  153MOL0     C20075  10.219   6.569   9.560  1.4664 -1.2734  0.8600
  153MOL0     C20076  10.085   6.511   9.604  1.1927 -0.4637  0.1382
  153MOL0     C20077  10.042   6.574   9.744  0.0514 -0.3428 -0.7727
  153MOL0     C20078   9.950   6.479   9.817 -0.3722  0.2513  0.1965
  153MOL0     C20079   9.860   6.541   9.917  0.1305 -0.7350 -0.2739
  153MOL0     C20080   9.735   6.606   9.851 -0.4855  0.7319  0.1152
  153MOL0     N20081   9.656   6.679   9.954 -0.5769  0.0624  0.2132
  153MOL0     C20082   9.535   6.642  10.012 -0.8962 -0.1595  0.4374
  153MOL0     C20083   9.512   6.754  10.089  0.7755 -0.0818  0.1955
  153MOL0     C20084   9.416   6.781  10.206 -0.2324 -0.3151  0.0625
  153MOL0     C20085   9.486   6.787  10.342  0.1164 -0.2548 -0.3425
  153MOL0     C20086   9.398   6.821  10.459 -0.0916  0.0187  0.0334
  153MOL0     C20087   9.308   6.951  10.445  0.1548 -1.0158  0.1732
  153MOL0     O20088   9.273   6.999  10.572  0.0842  0.2904 -0.2803
  153MOL0     C20089   9.165   6.949  10.639  0.6346  0.0363 -0.5669
  153MOL0     C20090   9.137   7.015  10.762 -0.6173 -0.6713  0.2273
  153MOL0     C20091   9.040   6.963  10.850  0.6860 -1.0819 -0.2598
  153MOL0     C20092   8.972   6.848  10.816 -0.0672  0.7211 -0.3627
  153MOL0     C20093   8.856   6.799  10.909 -0.0725  0.4331  0.3993
  153MOL0     O20094   8.791   6.896  10.989 -0.3175  0.0385 -0.0744
  153MOL0     C20095   8.661   6.875  11.010  0.2611  0.1707  0.9337
  153MOL0     C20096   8.562   6.841  10.910 -0.7486  0.0464  0.6196
  153MOL0     C20097   8.431   6.823  10.944  0.6191 -0.1200  1.1110
  153MOL0     C20098   8.387   6.839  11.075 -0.2543 -0.0975  0.2289
  153MOL0     O20099   8.255   6.814  11.097  0.0046 -0.0702  0.4541
  153MOL0     C20100   8.180   6.906  11.174  0.1714  0.5906 -0.3231
  153MOL0     C20101   8.061   6.840  11.249 -0.2043 -0.3420 -0.9905
  153MOL0     C20102   7.964   6.759  11.158 -0.0393 -0.8526  0.1093
  153MOL0     C20103   7.843   6.700  11.234  0.2380  1.1965 -0.1636
  153MOL0     C20104   7.741   6.632  11.136  0.3032  0.0065 -0.0514
  153MOL0     C20105   7.694   6.731  11.030  1.2827  0.3888  0.3933
  153MOL0     C20106   7.595   6.650  10.946  0.0095  0.2187 -0.0776
  153MOL0     C20107   7.526   6.750  10.865 -0.4065 -0.3804 -0.2995
  153MOL0    Cl20108   7.412   6.686  10.760 -0.3056 -0.4712 -0.3504
  153MOL0     C20109   8.487   6.883  11.171  0.7160  0.5738 -0.1452
  153MOL0     C20110   8.621   6.889  11.136  0.4255 -0.3126 -0.2519
  153MOL0     O20111   8.815   6.689  10.882 -0.1168  0.3280 -0.8004
  153MOL0     C20112   9.006   6.779  10.698 -0.0676 -0.3999 -0.0123
  153MOL0     C20113   9.098   6.832  10.611 -0.4401 -0.5289  0.1341
  153MOL0     N20114   9.610   6.852  10.070 -0.6111  0.2270 -0.2966
  153MOL0     N20115   9.698   6.802   9.997 -0.6527  0.6834  0.1180
  153MOL0     C20116  10.707   6.560   9.373 -0.1829 -0.1030  0.0640
  153MOL0     C20117  10.841   6.528   9.361  0.0994  0.4314  0.0670
  153MOL0     C20118  11.259   6.463   9.231  0.3186  0.1165 -0.0713
  153MOL0     C20119  11.362   6.564   9.213  0.2492  0.1164 -0.5134
  153MOL0     C20120  11.494   6.523   9.190  0.1456 -0.6451 -0.0200
  153MOL0     C20121  11.533   6.386   9.209  0.5335 -0.0585  0.4783
  153MOL0     O20122  11.662   6.337   9.194 -0.5154 -0.3090  0.5242
  153MOL0     C20123  11.764   6.426   9.147  0.5790  0.7748 -0.0896
  153MOL0     C20124  11.893   6.333   9.127 -0.7098  0.3381  0.5738
  153MOL0     C20125  12.020   6.420   9.101  1.1202  0.9027 -0.0967
  153MOL0     C20126  12.156   6.351   9.134 -0.0597  0.4076  0.2297
  153MOL0     C20127  12.273   6.443   9.144  0.8742  0.2990  0.7908
  153MOL0     C20128  12.374   6.517   9.148 -0.1286 -0.0361 -0.8519
  153MOL0     C20129  11.436   6.287   9.240  0.7002  0.7297 -0.6269
  153MOL0     C20130  11.301   6.331   9.252 -0.4987  0.1621  0.0977
  153MOL0     H20131  10.824   6.311   9.107  0.9536  1.1626 -1.2560
  153MOL0     H20132  10.575   6.332   9.166 -1.8555  4.1680 -1.3450
  153MOL0     H20133  10.443   6.664   9.427 -1.6032  0.8980 -2.5422
  153MOL0     H20134  10.448   6.512   9.503 -0.4573 -0.9335 -0.5509
  153MOL0     H20135  10.233   6.452   9.377  2.6079  0.0412  0.0064
  153MOL0     H20136  10.220   6.623   9.341 -0.6768 -1.6693 -2.0745
  153MOL0     H20137  10.226   6.676   9.582  3.9073 -0.5212 -2.6503
  153MOL0     H20138  10.286   6.518   9.630  0.1790 -2.3831  1.3228
  153MOL0     H20139  10.008   6.533   9.530  0.2150  1.8900  1.7654
  153MOL0     H20140  10.097   6.403   9.620  0.2840 -0.5609  0.2025
  153MOL0     H20141   9.991   6.668   9.720  2.2439  0.6100 -2.0156
  153MOL0     H20142  10.132   6.590   9.804  0.2325  3.3007 -1.7539
  153MOL0     H20143  10.004   6.397   9.865  0.3489  0.7779  0.2994
  153MOL0     H20144   9.887   6.422   9.748 -0.3917 -0.8149  1.0744
  153MOL0     H20145   9.817   6.456   9.971 -2.3598  0.4213 -0.2838
  153MOL0     H20146   9.906   6.622   9.974 -2.0660  0.7268 -0.4514
  153MOL0     H20147   9.678   6.527   9.800  1.0553 -1.4058  1.4978
  153MOL0     H20148   9.764   6.671   9.768 -1.2027 -0.4485 -1.1088
  153MOL0     H20149   9.476   6.550  10.006 -0.9352 -0.1227  0.2637
  153MOL0     H20150   9.347   6.697  10.205 -0.1742 -0.3593 -1.2077
  153MOL0     H20151   9.364   6.873  10.177 -3.5142 -1.6365  1.2259
  153MOL0     H20152   9.557   6.870  10.329  1.2865 -1.5458 -2.8463
  153MOL0     H20153   9.545   6.696  10.351 -1.5005 -1.7822 -3.5397
  153MOL0     H20154   9.327   6.738  10.464 -0.7948  0.2669 -3.4428
  153MOL0     H20155   9.466   6.828  10.545  0.7287  1.6366 -0.7039
  153MOL0     H20156   9.217   6.932  10.387  0.0933  0.7143 -0.3614
  153MOL0     H20157   9.367   7.025  10.390  0.8658 -1.0838  0.8205
  153MOL0     H20158   9.191   7.108  10.773  0.3396 -0.4935 -4.0077
  153MOL0     H20159   9.005   7.010  10.941 -1.8683 -1.9174 -0.7499
  153MOL0     H20160   8.577   6.821  10.805 -2.9368  2.2210 -0.1911
  153MOL0     H20161   8.364   6.797  10.863 -0.7918  2.3219  1.3888
  153MOL0     H20162   8.144   6.986  11.109  2.0071  0.9256 -0.9945
  153MOL0     H20163   8.245   6.950  11.251  2.3698 -2.9530  0.0475
  153MOL0     H20164   8.005   6.918  11.302  3.2076  1.3843  0.4031
  153MOL0     H20165   8.093   6.773  11.329 -0.8976  1.3490  0.7991
  153MOL0     H20166   8.033   6.690  11.110  0.0699 -2.0697  1.9194
  153MOL0     H20167   7.926   6.831  11.085  1.8227  1.2019  1.0650
  153MOL0     H20168   7.875   6.621  11.302  2.7489  2.7301  0.5850
  153MOL0     H20169   7.791   6.777  11.291 -0.1674  0.3828  0.5902
  153MOL0     H20170   7.660   6.603  11.204  0.9988 -1.4273  0.1847
  153MOL0     H20171   7.790   6.550  11.084 -0.9719 -0.2415 -0.9059
  153MOL0     H20172   7.774   6.780  10.976  1.3433  1.2436  1.2318
  153MOL0     H20173   7.646   6.815  11.080 -3.4937 -0.8821 -1.4990
  153MOL0     H20174   7.656   6.594  10.875  0.7819  0.1756  0.6028
  153MOL0     H20175   7.532   6.597  11.018 -1.3796  0.6151 -0.9577
  153MOL0     H20176   7.610   6.796  10.812  1.6505  1.0728  3.8054
  153MOL0     H20177   7.481   6.824  10.932  2.3042  0.1464  1.0719
  153MOL0     H20178   8.450   6.904  11.271 -1.1273 -1.3601 -0.3564
  153MOL0     H20179   8.687   6.915  11.218  0.2116  2.1939 -0.7911
  153MOL0     H20180   8.960   6.686  10.666 -0.9707  0.8032 -2.4150
  153MOL0     H20181   9.132   6.767  10.530  0.3776  1.1665 -0.9432
  153MOL0     H20182  10.694   6.641   9.444  0.8326  2.6615 -2.7197
  153MOL0     H20183  10.915   6.588   9.414  0.1834  0.1279  0.2951
  153MOL0     H20184  11.341   6.670   9.222  3.0796  0.7166 -0.0317
  153MOL0     H20185  11.569   6.598   9.168  0.6875 -1.3009 -0.4339
  153MOL0     H20186  11.784   6.506   9.219  4.1295 -2.1496  2.5388
  153MOL0     H20187  11.721   6.464   9.054  2.2206  1.0563 -0.7588
  153MOL0     H20188  11.916   6.276   9.216  1.2590 -0.1080 -0.1764
  153MOL0     H20189  11.873   6.265   9.044  0.2530 -0.0284  0.6352
  153MOL0     H20190  12.016   6.504   9.172 -0.5136  2.7127 -2.1930
  153MOL0     H20191  12.015   6.461   9.000  0.2700  0.6845 -0.1490
  153MOL0     H20192  12.158   6.312   9.236  0.2734 -0.8897 -0.2515
  153MOL0     H20193  12.176   6.268   9.066 -0.7225  0.7950 -0.4514
  153MOL0     H20194  12.467   6.566   9.168  0.0140  0.0652 -1.7200
  153MOL0     H20195  11.444   6.181   9.260 -2.1417  0.6467  0.4982
  153MOL0     H20196  11.226   6.256   9.273 -0.7343  0.2910 -0.2674
  154MOL0     O20197   9.042   3.753   5.821 -0.3626  0.0752 -0.6973
  154MOL0     C20198   8.989   3.854   5.769 -0.2862 -0.9678 -0.9893
  154MOL0     O20199   8.854   3.875   5.750 -0.0786  0.1065 -0.2918
  154MOL0     C20200   8.759   3.777   5.769 -0.2043  0.9567 -0.4885
  154MOL0     C20201   8.636   3.815   5.714  0.4352  0.2524  0.4335
  154MOL0     C20202   8.525   3.733   5.717 -0.8783 -0.2355 -0.6739
  154MOL0     C20203   8.540   3.605   5.767  0.1413 -0.0943  0.6014
  154MOL0     O20204   8.428   3.528   5.749  0.5349  0.0825 -0.3078
  154MOL0     C20205   8.445   3.390   5.791 -0.5550  0.1351 -0.5691
  154MOL0     C20206   8.320   3.312   5.733  0.2838 -0.2780  0.0296
  154MOL0     C20207   8.186   3.349   5.810  0.6831 -0.0906 -0.9276
  154MOL0     C20208   8.063   3.277   5.763  0.3131  0.4037  0.0077
  154MOL0     C20209   7.936   3.324   5.835  0.2582 -0.7044  0.4389
  154MOL0     C20210   7.824   3.242   5.793  0.1360 -0.1998 -0.2608
  154MOL0     C20211   7.717   3.272   5.897  0.5721 -0.4154  0.2255
  154MOL0     C20212   7.594   3.182   5.877 -0.2308 -1.2149  0.0887
  154MOL0     N20213   7.490   3.195   5.980  0.7234  0.7278 -0.2733
  154MOL0     C20214   7.404   3.084   6.009 -0.1756 -0.3186 -1.3228
  154MOL0     C20215   7.337   3.128   6.114  0.1916  0.3078  0.4272
  154MOL0     C20216   7.239   3.054   6.192  0.0532 -0.6622 -0.0692
  154MOL0     C20217   7.089   3.096   6.155 -0.6237  0.4611 -0.1244
  154MOL0     C20218   6.993   2.979   6.181 -0.4377  0.9204 -0.5026
  154MOL0     C20219   6.859   3.005   6.105 -0.2020 -0.0157 -0.0198
  154MOL0     O20220   6.756   2.916   6.159 -0.8617 -0.2438  0.0168
  154MOL0     C20221   6.634   2.908   6.093  0.3325 -0.9812 -0.9458
  154MOL0     C20222   6.602   3.003   5.985 -0.3975  0.7725 -0.6115
  154MOL0     C20223   6.476   3.006   5.928 -0.1569 -0.2780  0.1163
  154MOL0     C20224   6.385   2.911   5.967  0.5222  0.6075  0.0751
  154MOL0     C20225   6.256   2.898   5.896 -0.2195  0.3420 -0.8577
  154MOL0     O20226   6.144   2.855   5.959  0.7427  0.2001  0.2586
  154MOL0     C20227   6.039   2.793   5.903 -0.1311 -1.2225 -0.2327
  154MOL0     C20228   5.966   2.711   5.997  1.1411  0.0149  0.7222
  154MOL0     C20229   5.848   2.651   5.946 -0.4997 -0.5661 -0.4935
  154MOL0     C20230   5.800   2.659   5.815 -0.0645  0.8029  0.6009
  154MOL0     O20231   5.681   2.594   5.789 -0.0423 -0.3065  0.1379
  154MOL0     C20232   5.628   2.592   5.650 -0.0075  0.2727 -0.5714
  154MOL0     C20233   5.512   2.494   5.644  0.7683 -0.0395  0.5571
  154MOL0     C20234   5.452   2.462   5.506  0.1345  0.0333  0.3657
  154MOL0     C20235   5.335   2.361   5.510  0.1017  0.6983  0.0508
  154MOL0     C20236   5.296   2.343   5.365  1.2124  0.3837  0.1309
  154MOL0     C20237   5.206   2.221   5.348  0.9402 -0.1005 -0.1210
  154MOL0     C20238   5.146   2.197   5.205 -1.0187  0.4461  0.2229
  154MOL0     C20239   5.076   2.323   5.157  0.6903  0.2558  0.6469
  154MOL0    Cl20240   4.966   2.272   5.028  0.1974  0.2695  0.1038
  154MOL0     C20241   5.873   2.737   5.726 -1.0049 -0.7405  0.2694
  154MOL0     C20242   5.991   2.810   5.771  0.0776  0.5928  0.0308
  154MOL0     O20243   6.257   2.936   5.780  0.0844  0.5304 -0.3192
  154MOL0     C20244   6.412   2.824   6.077  0.5834 -0.4033 -0.0372
  154MOL0     C20245   6.530   2.824   6.141  0.1140  0.4358 -0.3202
  154MOL0     N20246   7.371   3.256   6.135  0.5291 -0.4027  0.1021
  154MOL0     N20247   7.467   3.299   6.059  0.2701  0.3025  0.4049
  154MOL0     C20248   8.657   3.564   5.830 -0.6372 -0.7287  0.7451
  154MOL0     C20249   8.769   3.651   5.832 -0.0870  0.5843  0.2548
  154MOL0     C20250   9.076   3.966   5.723 -0.0364  0.0072 -0.8685
  154MOL0     C20251   9.040   4.066   5.638 -0.2051  0.4239 -0.1172
  154MOL0     C20252   9.130   4.167   5.602 -0.8997 -0.1013 -0.8075
  154MOL0     C20253   9.260   4.180   5.642 -0.0939  0.5219 -0.4707
  154MOL0     O20254   9.345   4.283   5.609  0.6121  0.1628  0.6128
  154MOL0     C20255   9.463   4.295   5.681  0.0843  0.0667 -0.3150
  154MOL0     C20256   9.532   4.420   5.627 -0.2073  0.2186 -0.2922
  154MOL0     C20257   9.664   4.455   5.681  0.3032 -0.1125  0.0638
  154MOL0     C20258   9.777   4.362   5.639  0.6564 -0.0898 -0.0999
  154MOL0     C20259   9.773   4.248   5.736 -0.0112  0.4809  0.1531
  154MOL0     C20260   9.789   4.147   5.796  0.5018  0.1691  0.3960
  154MOL0     C20261   9.294   4.076   5.735  0.1690  0.2879  0.3521
  154MOL0     C20262   9.205   3.974   5.775 -1.2134 -1.1604 -0.4949
  154MOL0     H20263   8.628   3.918   5.683  1.4804  0.7372  1.6958
  154MOL0     H20264   8.429   3.766   5.679 -0.2923  1.1836 -0.9699
  154MOL0     H20265   8.442   3.388   5.901 -0.8508  1.1654 -0.5398
  154MOL0     H20266   8.536   3.350   5.746  1.2458  2.0845  1.1201
  154MOL0     H20267   8.346   3.206   5.746 -1.1308 -0.5702  0.6672
  154MOL0     H20268   8.304   3.330   5.626  0.2929 -2.1146 -0.3233
  154MOL0     H20269   8.172   3.457   5.797  0.1944  0.6640  4.0174
  154MOL0     H20270   8.212   3.331   5.914  0.3337  0.6529 -0.7012
  154MOL0     H20271   8.047   3.302   5.657  2.6417  1.0382 -0.2552
  154MOL0     H20272   8.081   3.170   5.779 -5.0505 -0.9300 -0.9061
  154MOL0     H20273   7.911   3.429   5.820 -1.3860 -0.8550  1.8984
  154MOL0     H20274   7.954   3.311   5.942 -2.0554  2.7849  1.3974
  154MOL0     H20275   7.863   3.140   5.797  0.7014  0.0351  0.2369
  154MOL0     H20276   7.785   3.265   5.693  1.1997  0.8604 -0.4505
  154MOL0     H20277   7.749   3.248   5.999 -1.1557  0.1204  0.9167
  154MOL0     H20278   7.681   3.375   5.890 -0.1844 -0.7592 -1.6638
  154MOL0     H20279   7.617   3.075   5.879 -1.1020 -1.4074  1.1263
  154MOL0     H20280   7.543   3.200   5.782  0.1325 -1.2385 -0.1097
  154MOL0     H20281   7.398   2.988   5.958 -3.0392 -1.1295  0.3538
  154MOL0     H20282   7.249   3.080   6.298 -1.8365 -0.4547  0.0940
  154MOL0     H20283   7.246   2.945   6.190 -0.0337 -0.7406  1.6875
  154MOL0     H20284   7.082   3.125   6.050  1.5786 -0.5769 -0.6152
  154MOL0     H20285   7.059   3.186   6.209  2.5916  2.5818 -1.5758
  154MOL0     H20286   7.032   2.879   6.160 -0.7762  0.2913  1.6349
  154MOL0     H20287   6.975   2.976   6.288  0.4783 -0.8196 -0.3501
  154MOL0     H20288   6.872   2.991   5.998 -1.6787  1.5376 -0.4547
  154MOL0     H20289   6.848   3.111   6.129 -0.4290  0.2814 -1.4048
  154MOL0     H20290   6.674   3.075   5.948 -0.9756  3.1196  2.4001
  154MOL0     H20291   6.452   3.087   5.860  1.0018 -0.1887 -0.2056
  154MOL0     H20292   5.990   2.701   6.102 -3.0339 -0.8774  1.7428
  154MOL0     H20293   5.787   2.603   6.022 -0.8483  0.2519 -0.2545
  154MOL0     H20294   5.705   2.562   5.579 -0.6961 -0.4512 -1.0337
  154MOL0     H20295   5.586   2.689   5.622 -3.3689 -0.4655  1.3029
  154MOL0     H20296   5.435   2.533   5.711  2.3932  2.0587  1.3089
  154MOL0     H20297   5.551   2.403   5.691  2.5354 -0.8667 -2.2248
  154MOL0     H20298   5.530   2.418   5.442 -0.2438 -0.5023  0.2647
  154MOL0     H20299   5.427   2.556   5.458 -3.2160  1.2942  4.0591
  154MOL0     H20300   5.364   2.267   5.558 -1.9024 -0.0293 -0.0704
  154MOL0     H20301   5.257   2.403   5.574 -2.4463 -0.9527 -1.7734
  154MOL0     H20302   5.384   2.326   5.303 -0.6216  2.0879 -3.2468
  154MOL0     H20303   5.252   2.433   5.321 -3.7718 -0.5972  2.4421
  154MOL0     H20304   5.122   2.227   5.418  1.2577  0.4684  0.2107
  154MOL0     H20305   5.260   2.127   5.365  1.4371  0.3291  0.7497
  154MOL0     H20306   5.225   2.176   5.132  1.0016  1.6493  1.9139
  154MOL0     H20307   5.075   2.115   5.217  0.0236 -0.1767  3.0446
  154MOL0     H20308   5.151   2.398   5.132 -0.9121  1.3156 -1.2656
  154MOL0     H20309   5.013   2.368   5.234  0.3902  0.8819  0.0396
  154MOL0     H20310   5.847   2.749   5.621  4.3094  1.8130 -1.0768
  154MOL0     H20311   6.036   2.871   5.693  2.7443 -0.3647  0.7032
  154MOL0     H20312   6.332   2.759   6.112  0.9572 -1.2091 -0.6432
  154MOL0     H20313   6.546   2.767   6.232 -1.8114  0.3946  0.0383
  154MOL0     H20314   8.657   3.462   5.869  0.5595 -1.5903 -1.3610
  154MOL0     H20315   8.864   3.611   5.866  1.1333  3.3797  0.3671
  154MOL0     H20316   8.942   4.078   5.594 -0.8055 -1.5161  0.6217
  154MOL0     H20317   9.103   4.244   5.531  1.7831  3.2603  1.5023
  154MOL0     H20318   9.533   4.214   5.661 -0.8757 -0.6402 -0.9041
  154MOL0     H20319   9.449   4.303   5.789  1.1721  0.3554 -0.1810
  154MOL0     H20320   9.533   4.397   5.520  0.9203  0.3394 -0.3163
  154MOL0     H20321   9.470   4.510   5.640  0.0974  0.5092 -0.8211
  154MOL0     H20322   9.652   4.462   5.789  0.9438  0.5922  0.0953
  154MOL0     H20323   9.676   4.556   5.642 -0.2632  0.2168  0.7302
  154MOL0     H20324   9.751   4.324   5.540 -0.4128  2.9559 -1.1150
  154MOL0     H20325   9.873   4.412   5.628 -1.6332  4.2203 -3.9912
  154MOL0     H20326   9.782   4.058   5.856 -3.2525  1.9788  3.0481
  154MOL0     H20327   9.389   4.077   5.787 -0.4814 -0.8519  1.6403
  154MOL0     H20328   9.245   3.905   5.848  1.5780  0.3215 -0.4651
  155MOL0     O20329   5.819   2.359   9.302 -0.3918 -0.1268 -0.2378
  155MOL0     C20330   5.772   2.414   9.199  0.5873  0.1897 -0.4835
  155MOL0     O20331   5.834   2.490   9.114 -0.2608  0.2223  0.0469
  155MOL0     C20332   5.977   2.497   9.111  0.1187 -0.3102  0.1602
  155MOL0     C20333   6.036   2.502   8.977 -0.0140  0.0346 -0.2513
  155MOL0     C20334   6.177   2.473   8.980 -0.4292 -0.4586 -0.3284
  155MOL0     C20335   6.261   2.491   9.091  0.2727  0.2252  0.1297
  155MOL0     O20336   6.400   2.490   9.079  0.0189  0.0854 -0.7332
  155MOL0     C20337   6.477   2.541   9.187 -0.2361  0.5972 -0.4400
  155MOL0     C20338   6.630   2.500   9.163 -0.2224  0.2298  0.2051
  155MOL0     C20339   6.626   2.345   9.188  0.3228  0.9534  0.2855
  155MOL0     C20340   6.764   2.277   9.159 -0.8434  0.0740  0.1049
  155MOL0     C20341   6.757   2.118   9.148 -0.1944 -0.6973  0.2396
  155MOL0     C20342   6.670   2.045   9.256 -1.2146  0.3539 -0.0525
  155MOL0     C20343   6.653   1.895   9.216  0.5318 -0.9680 -0.2750
  155MOL0     C20344   6.565   1.817   9.315 -0.1738 -0.1187 -0.6673
  155MOL0     N20345   6.425   1.848   9.289 -0.2349 -0.4562  0.0801
  155MOL0     C20346   6.320   1.906   9.360  0.1854  0.2821  0.2006
  155MOL0     C20347   6.205   1.894   9.291  0.1436  0.7411 -0.4474
  155MOL0     C20348   6.071   1.942   9.343 -0.2043 -0.3575  0.4925
  155MOL0     C20349   5.953   1.895   9.256  0.3731  0.2732 -0.6232
  155MOL0     C20350   5.830   1.964   9.313  0.5666 -1.0059 -0.0909
  155MOL0     C20351   5.701   1.914   9.255 -1.2592 -0.2097 -0.3090
  155MOL0     O20352   5.589   1.961   9.327 -0.2367 -0.0534  0.0938
  155MOL0     C20353   5.464   1.948   9.269 -0.3377  0.0400 -0.9217
  155MOL0     C20354   5.431   1.924   9.137  0.5842 -0.4275  0.8535
  155MOL0     C20355   5.298   1.923   9.082 -0.3227  0.3797  0.5400
  155MOL0     C20356   5.190   1.947   9.164  0.4511 -0.5040 -0.3240
  155MOL0     C20357   5.049   1.950   9.121 -0.2465 -0.0432 -0.8686
  155MOL0     O20358   5.036   1.914   8.998  0.1641  0.2561  0.3511
  155MOL0     C20359   4.908   1.906   8.943 -0.7609 -0.5795 -0.0801
  155MOL0     C20360   4.843   2.017   8.887  0.1160  0.0493 -0.8630
  155MOL0     C20361   4.713   2.008   8.843 -0.8055 -0.2674  0.0327
  155MOL0     C20362   4.653   1.887   8.831  0.6872 -0.0074  1.0072
  155MOL0     O20363   4.533   1.885   8.768 -0.0810  1.1115 -0.3550
  155MOL0     C20364   4.429   1.789   8.817 -0.2288  0.2922  0.1882
  155MOL0     C20365   4.366   1.820   8.951  0.1653  0.8253  0.5195
  155MOL0     C20366   4.458   1.817   9.070 -0.7008  0.1129  0.1758
  155MOL0     C20367   4.379   1.837   9.205  1.0089  0.2403  0.0171
  155MOL0     C20368   4.475   1.867   9.315 -0.1719 -0.8121 -0.4394
  155MOL0     C20369   4.408   1.900   9.449 -0.0907 -0.3603  0.1641
  155MOL0     C20370   4.508   1.919   9.563  0.4412  0.1070 -0.6924
  155MOL0     C20371   4.441   1.979   9.684 -0.1587 -0.5174 -0.1163
  155MOL0    Cl20372   4.302   1.897   9.752 -0.3823 -0.2977 -0.0935
  155MOL0     C20373   4.718   1.771   8.870  0.6085  0.0616  0.2475
  155MOL0     C20374   4.849   1.783   8.915  0.1666  0.5821 -0.4859
  155MOL0     O20375   4.966   1.996   9.194  0.6689 -1.5034  0.5423
  155MOL0     C20376   5.222   1.976   9.306 -0.9972  0.3338  0.1515
  155MOL0     C20377   5.363   1.977   9.364  1.0223  0.4094 -0.0560
  155MOL0     N20378   6.238   1.815   9.177  0.1811 -0.3901 -0.6918
  155MOL0     N20379   6.366   1.797   9.174  0.0385 -0.4803 -0.3995
  155MOL0     C20380   6.196   2.506   9.210  0.4358  0.2522  0.2020
  155MOL0     C20381   6.055   2.510   9.218  0.5201  0.0949  0.1999
  155MOL0     C20382   5.628   2.381   9.162 -0.0785 -0.4732 -0.5861
  155MOL0     C20383   5.538   2.305   9.233  0.4673  0.3367  0.2219
  155MOL0     C20384   5.400   2.300   9.198 -0.2060  1.1752  0.1840
  155MOL0     C20385   5.347   2.380   9.098  0.4310  1.1356  0.2479
  155MOL0     O20386   5.211   2.368   9.079 -0.1228  0.7199  0.1996
  155MOL0     C20387   5.138   2.494   9.072 -0.0685  0.7353 -0.6857
  155MOL0     C20388   5.086   2.478   8.934  0.7792  0.1889 -0.3833
  155MOL0     C20389   4.973   2.584   8.904  0.4767  0.4022  0.6298
  155MOL0     C20390   4.842   2.579   8.988  0.5019  0.2873 -0.7873
  155MOL0     C20391   4.763   2.453   8.990  0.3901  0.8690  0.0747
  155MOL0     C20392   4.698   2.347   8.977  0.2066 -0.4055 -0.1054
  155MOL0     C20393   5.437   2.462   9.031 -0.4299 -0.1475 -0.2321
  155MOL0     C20394   5.571   2.458   9.057 -0.4018  0.8030 -0.2639
  155MOL0     H20395   5.969   2.509   8.892 -1.0977 -0.6758  0.5176
  155MOL0     H20396   6.232   2.464   8.887 -0.1838  3.1217 -0.6701
  155MOL0     H20397   6.451   2.498   9.284  0.6960  2.6341  0.7800
  155MOL0     H20398   6.465   2.650   9.197  0.2978  0.8422 -2.0520
  155MOL0     H20399   6.700   2.555   9.226 -2.5040  1.7436  1.5931
  155MOL0     H20400   6.669   2.513   9.062  2.2902  2.1507  1.3188
  155MOL0     H20401   6.551   2.300   9.123 -0.6276 -0.7972  2.4475
  155MOL0     H20402   6.610   2.323   9.294  2.5504 -3.8471 -0.0865
  155MOL0     H20403   6.820   2.317   9.073  0.2319  1.1632  1.2552
  155MOL0     H20404   6.828   2.312   9.241 -2.2490  0.8343  0.9169
  155MOL0     H20405   6.861   2.087   9.157 -0.0236  0.2235  1.8033
  155MOL0     H20406   6.714   2.095   9.050  3.1082  0.2871 -1.5717
  155MOL0     H20407   6.578   2.101   9.272 -0.9598  0.2287  2.1296
  155MOL0     H20408   6.721   2.045   9.353  1.3127 -2.3317 -1.2121
  155MOL0     H20409   6.603   1.894   9.119 -1.9001  0.1080  0.8837
  155MOL0     H20410   6.747   1.839   9.209  1.1548  0.2235 -2.1631
  155MOL0     H20411   6.587   1.836   9.421 -0.2663  0.5342 -0.7595
  155MOL0     H20412   6.581   1.711   9.297 -2.4469 -0.3884 -1.4606
  155MOL0     H20413   6.319   1.951   9.458 -1.4976 -0.2642  0.4732
  155MOL0     H20414   6.083   2.050   9.354  1.0786 -0.5647  1.3804
  155MOL0     H20415   6.069   1.889   9.438  0.1282  0.4062  0.9346
  155MOL0     H20416   5.946   1.786   9.259  1.2670  0.1944 -1.2044
  155MOL0     H20417   5.968   1.913   9.149 -0.5368  1.8952 -0.5164
  155MOL0     H20418   5.829   1.952   9.422  0.9843 -4.0520 -0.3565
  155MOL0     H20419   5.831   2.070   9.285 -0.8402 -1.3151 -1.4630
  155MOL0     H20420   5.715   1.806   9.250  0.7954  0.0759 -2.6048
  155MOL0     H20421   5.703   1.944   9.150 -0.0125  0.2901 -0.1634
  155MOL0     H20422   5.500   1.892   9.059 -0.6629 -2.8336  0.6517
  155MOL0     H20423   5.276   1.887   8.982 -2.7286  1.0843  0.7672
  155MOL0     H20424   4.891   2.115   8.894 -1.0080  0.7659 -2.5619
  155MOL0     H20425   4.658   2.089   8.796 -2.5129 -1.7556 -0.6354
  155MOL0     H20426   4.461   1.685   8.810 -1.6778 -0.0504 -2.5701
  155MOL0     H20427   4.339   1.787   8.754 -0.6856 -1.1880  0.8460
  155MOL0     H20428   4.287   1.747   8.969  1.7647 -1.0131  0.4224
  155MOL0     H20429   4.318   1.918   8.943 -0.0578  0.6517 -0.3322
  155MOL0     H20430   4.534   1.895   9.077  0.8732 -1.4205  0.9293
  155MOL0     H20431   4.510   1.722   9.079 -0.9580  0.1760  3.3793
  155MOL0     H20432   4.315   1.923   9.187  2.2533  1.3841  0.8093
  155MOL0     H20433   4.323   1.746   9.226  0.9374  0.2008 -0.3427
  155MOL0     H20434   4.522   1.961   9.287 -0.6787  0.1636  1.7837
  155MOL0     H20435   4.549   1.787   9.325 -0.4844 -1.0311  0.1954
  155MOL0     H20436   4.333   1.825   9.475 -1.0032  0.3380 -0.4029
  155MOL0     H20437   4.352   1.992   9.432  1.2849  0.5707  0.4833
  155MOL0     H20438   4.544   1.817   9.580 -1.2963 -0.6038 -1.0650
  155MOL0     H20439   4.591   1.985   9.535  1.1549 -0.1943  0.6098
  155MOL0     H20440   4.409   2.080   9.657 -0.0940 -0.7382 -1.0357
  155MOL0     H20441   4.515   1.987   9.765  0.0262 -0.5567 -0.2821
  155MOL0     H20442   4.682   1.674   8.838 -0.7130 -0.0891  2.0562
  155MOL0     H20443   4.899   1.689   8.937  0.5391  0.3678 -2.1266
  155MOL0     H20444   5.134   1.992   9.368 -1.7869  0.5263 -0.9670
  155MOL0     H20445   5.380   1.988   9.471 -0.1130  0.0099  0.1805
  155MOL0     H20446   6.254   2.526   9.299  0.1166  2.9949 -0.0959
  155MOL0     H20447   6.020   2.521   9.321 -2.1746 -0.0390 -0.6281
  155MOL0     H20448   5.566   2.257   9.326 -1.5235  0.7043  1.0599
  155MOL0     H20449   5.335   2.229   9.247  3.8243 -2.0606  1.4613
  155MOL0     H20450   5.201   2.583   9.070 -0.0095  0.7030 -0.3390
  155MOL0     H20451   5.061   2.497   9.149  0.3439 -0.2725 -0.2202
  155MOL0     H20452   5.170   2.496   8.866  0.2128  0.9439 -0.8980
  155MOL0     H20453   5.047   2.378   8.917  0.2404  0.0951  1.1834
  155MOL0     H20454   4.934   2.582   8.802 -0.0784  0.5854  0.8357
  155MOL0     H20455   5.002   2.688   8.924 -0.4654  1.1230 -1.3890
  155MOL0     H20456   4.862   2.589   9.095  1.5828  0.6985 -1.0115
  155MOL0     H20457   4.771   2.654   8.953 -2.0805 -0.3806  2.5706
  155MOL0     H20458   4.663   2.247   8.964  0.5943 -0.4608 -0.7758
  155MOL0     H20459   5.399   2.520   8.947 -1.5017 -1.2527 -0.5261
  155MOL0     H20460   5.635   2.521   8.995  0.1567  0.9430  0.4327
  156MOL0     O20461   2.165   2.207   6.407 -0.6400 -0.1167 -0.3304
  156MOL0     C20462   2.224   2.133   6.491 -0.3822  0.0748 -0.2935
  156MOL0     O20463   2.153   2.051   6.572 -0.2568 -0.8814 -0.3727
  156MOL0     C20464   2.015   2.065   6.590  0.9919 -0.4614 -0.0858
  156MOL0     C20465   1.956   2.109   6.718 -0.7404 -0.5857 -0.0342
  156MOL0     C20466   1.818   2.098   6.734 -0.1860 -0.1113 -0.2317
  156MOL0     C20467   1.742   2.047   6.630  0.5460 -0.2125  0.2056
  156MOL0     O20468   1.605   2.031   6.649 -0.0789  0.0955 -0.0516
  156MOL0     C20469   1.548   2.042   6.782  0.5434 -0.4978  0.1169
  156MOL0     C20470   1.397   2.006   6.756 -0.3383  0.2833 -0.7257
  156MOL0     C20471   1.321   2.010   6.892  0.6263  0.4153  0.1579
  156MOL0     C20472   1.180   1.948   6.856 -0.1652  0.3089 -0.3966
  156MOL0     C20473   1.101   2.070   6.809  0.3591 -0.4587  0.3689
  156MOL0     C20474   0.958   2.034   6.751  0.4295  0.3075 -0.5419
  156MOL0     C20475   0.882   1.944   6.844  0.6956 -0.7470 -0.4571
  156MOL0     C20476   0.734   1.927   6.785 -0.1502  0.5736  0.5001
  156MOL0     N20477   0.675   1.820   6.850 -0.4048 -0.4584  0.2369
  156MOL0     C20478   0.637   1.818   6.986  0.4966 -0.1990  0.6206
  156MOL0     C20479   0.552   1.716   6.990  0.2926  0.6436  0.3589
  156MOL0     C20480   0.482   1.664   7.110 -0.4972 -0.3223 -0.3807
  156MOL0     C20481   0.324   1.658   7.098  0.1548 -0.2865  0.0575
  156MOL0     C20482   0.263   1.544   7.023  0.1433  0.4104  0.5102
  156MOL0     C20483   0.114   1.510   7.038 -0.1614 -0.1471  0.3440
  156MOL0     O20484   0.084   1.492   7.178 -0.1665 -0.1386 -0.3706
  156MOL0     C20485  -0.048   1.486   7.213  0.5484  0.7109  0.0305
  156MOL0     C20486  -0.082   1.465   7.349  0.4508  0.7571 -0.4802
  156MOL0     C20487  -0.221   1.455   7.384 -0.6707  0.4208 -0.3071
  156MOL0     C20488  -0.328   1.477   7.289 -0.6858 -0.7422  0.7109
  156MOL0     C20489  -0.473   1.502   7.332 -0.4274  0.4774 -0.9979
  156MOL0     O20490  -0.501   1.460   7.457 -0.5933 -0.6239  0.4474
  156MOL0     C20491  -0.631   1.492   7.512 -0.3730  0.3151  0.1949
  156MOL0     C20492  -0.756   1.465   7.450  0.5739 -0.5991 -0.6134
  156MOL0     C20493  -0.881   1.490   7.519 -0.0556 -0.6782 -1.0650
  156MOL0     C20494  -0.885   1.522   7.657 -0.1424 -0.5068 -0.2584
  156MOL0     O20495  -1.002   1.540   7.727  0.1328  0.2404  0.0126
  156MOL0     C20496  -1.129   1.511   7.663 -0.2267 -0.4450  0.2414
  156MOL0     C20497  -1.241   1.498   7.765 -0.4638  0.4694 -0.8531
  156MOL0     C20498  -1.376   1.465   7.710 -1.0162 -0.1039 -0.0471
  156MOL0     C20499  -1.429   1.368   7.813  1.0724 -0.6817 -0.9537
  156MOL0     C20500  -1.557   1.304   7.764 -0.4826  0.4852  0.3762
  156MOL0     C20501  -1.590   1.185   7.849  0.4971 -0.1971 -0.0962
  156MOL0     C20502  -1.740   1.160   7.854 -0.3333  0.2414  0.0042
  156MOL0     C20503  -1.756   1.034   7.941  1.2133  0.2462 -0.1146
  156MOL0    Cl20504  -1.932   0.980   7.952 -0.0531 -0.5577 -0.0116
  156MOL0     C20505  -0.764   1.523   7.720  0.7953 -0.3080 -0.5587
  156MOL0     C20506  -0.641   1.511   7.650 -0.8728 -0.0548  0.7357
  156MOL0     O20507  -0.554   1.537   7.253 -0.5885  0.0692 -0.4651
  156MOL0     C20508  -0.293   1.501   7.152  0.1808  0.0792 -0.1189
  156MOL0     C20509  -0.155   1.489   7.120  0.0628 -0.1906  0.2718
  156MOL0     N20510   0.538   1.662   6.862 -0.6339 -0.1745  0.3352
  156MOL0     N20511   0.617   1.718   6.778  0.5561 -0.0353  0.0259
  156MOL0     C20512   1.799   2.010   6.509  0.5128 -0.2847 -0.4406
  156MOL0     C20513   1.929   2.017   6.487 -1.3616  0.5004  0.1395
  156MOL0     C20514   2.370   2.127   6.511 -0.6543  0.2888 -0.6441
  156MOL0     C20515   2.451   2.222   6.456 -0.5754 -0.0235  0.0540
  156MOL0     C20516   2.593   2.219   6.480 -0.4791 -1.0499 -0.8916
  156MOL0     C20517   2.639   2.119   6.566 -0.4606 -0.6879  0.8486
  156MOL0     O20518   2.776   2.119   6.599 -0.2194  0.0330 -0.2570
  156MOL0     C20519   2.822   2.041   6.707  0.3926 -0.5050 -0.2468
  156MOL0     C20520   2.963   2.087   6.740  0.2341 -0.5886  0.0288
  156MOL0     C20521   3.038   1.991   6.834  0.9280  1.4161 -0.3974
  156MOL0     C20522   3.116   1.879   6.771 -0.3669 -1.2445 -0.3031
  156MOL0     C20523   3.194   1.797   6.867 -0.6157  0.5181  0.5690
  156MOL0     C20524   3.262   1.724   6.937  0.0484 -0.3486 -0.7134
  156MOL0     C20525   2.555   2.022   6.616 -0.4597  0.6733  0.3798
  156MOL0     C20526   2.421   2.026   6.590 -0.3112  0.4250  0.3163
  156MOL0     H20527   2.027   2.136   6.796 -0.9900  1.6183 -0.5128
  156MOL0     H20528   1.786   2.134   6.831 -0.2583  1.8497 -0.9210
  156MOL0     H20529   1.567   2.139   6.830  0.6581 -0.5853  0.2516
  156MOL0     H20530   1.600   1.976   6.852  0.6139 -2.1472 -1.4465
  156MOL0     H20531   1.400   1.902   6.720  2.2978  0.8472 -2.4230
  156MOL0     H20532   1.348   2.061   6.675  0.5255  3.7584  0.9378
  156MOL0     H20533   1.324   2.106   6.945  0.2408  0.0347  0.8921
  156MOL0     H20534   1.369   1.940   6.961 -0.2161  0.6381  1.0060
  156MOL0     H20535   1.180   1.869   6.780 -0.5398 -1.8847  1.7644
  156MOL0     H20536   1.139   1.907   6.949 -0.6412 -3.5809 -2.1255
  156MOL0     H20537   1.161   2.125   6.736  1.9407  2.2525  3.4449
  156MOL0     H20538   1.085   2.149   6.883 -3.0120  1.3042 -1.9591
  156MOL0     H20539   0.974   1.980   6.658 -3.0852 -0.8367 -0.6291
  156MOL0     H20540   0.890   2.116   6.727 -0.0425 -0.3907 -1.6429
  156MOL0     H20541   0.923   1.843   6.834  0.2681 -0.7000 -3.3707
  156MOL0     H20542   0.899   1.970   6.949  3.4821 -0.2566 -0.9523
  156MOL0     H20543   0.757   1.889   6.685  0.9288 -2.7673  1.8776
  156MOL0     H20544   0.676   2.020   6.794  0.4982  1.2496 -1.6361
  156MOL0     H20545   0.671   1.879   7.068 -0.3977 -0.5402  1.2531
  156MOL0     H20546   0.508   1.730   7.194 -2.3254 -0.6245  0.4875
  156MOL0     H20547   0.517   1.561   7.120  2.0221  0.6882  3.2531
  156MOL0     H20548   0.298   1.748   7.041  3.1599  2.3797  2.5427
  156MOL0     H20549   0.273   1.656   7.194 -1.0358  2.0530 -0.4573
  156MOL0     H20550   0.272   1.558   6.914  0.2243 -0.8006  0.3436
  156MOL0     H20551   0.321   1.454   7.047 -1.1028 -0.6435 -0.2582
  156MOL0     H20552   0.081   1.416   6.993 -1.8164 -0.5280  2.2305
  156MOL0     H20553   0.052   1.590   6.998 -0.9366 -0.2102  1.3827
  156MOL0     H20554   0.001   1.452   7.419  0.9189  0.0562 -1.1567
  156MOL0     H20555  -0.246   1.440   7.488  0.5875 -0.7678 -0.1563
  156MOL0     H20556  -0.753   1.438   7.345 -0.0350 -1.3027 -0.4565
  156MOL0     H20557  -0.976   1.478   7.469 -1.4093 -0.1031  1.2117
  156MOL0     H20558  -1.134   1.418   7.606 -2.7457 -0.8961  1.0697
  156MOL0     H20559  -1.159   1.592   7.596 -1.7542 -2.4160 -1.6016
  156MOL0     H20560  -1.238   1.578   7.840  1.1235 -0.8058  0.5353
  156MOL0     H20561  -1.214   1.412   7.827 -0.6734 -0.5390 -2.1144
  156MOL0     H20562  -1.359   1.406   7.619  2.7968 -2.0833  1.7077
  156MOL0     H20563  -1.438   1.554   7.699 -0.6343  0.3078  1.0006
  156MOL0     H20564  -1.360   1.284   7.830 -1.0198 -2.9032 -2.6879
  156MOL0     H20565  -1.429   1.425   7.906  3.0088  1.4890 -2.1790
  156MOL0     H20566  -1.553   1.268   7.661  2.9480 -0.1607  0.6230
  156MOL0     H20567  -1.634   1.380   7.779  1.4737  2.0625  3.9692
  156MOL0     H20568  -1.567   1.189   7.956  0.5134 -1.3186 -0.0456
  156MOL0     H20569  -1.527   1.100   7.821  2.6178 -0.0993  3.7287
  156MOL0     H20570  -1.793   1.241   7.905 -1.1889 -1.1342  1.4023
  156MOL0     H20571  -1.780   1.147   7.752  0.6135  1.7865 -0.5931
  156MOL0     H20572  -1.713   1.055   8.039 -3.4862 -1.3665  2.6475
  156MOL0     H20573  -1.699   0.951   7.899 -1.5247 -1.5521 -0.5118
  156MOL0     H20574  -0.757   1.525   7.828  1.4253 -1.4279 -0.5607
  156MOL0     H20575  -0.548   1.504   7.706 -1.6819  1.2231  2.3413
  156MOL0     H20576  -0.369   1.544   7.088 -0.2509  1.2937  1.1492
  156MOL0     H20577  -0.121   1.503   7.018 -1.4195 -0.6158 -0.3127
  156MOL0     H20578   1.733   1.980   6.428  0.7273  1.4063 -1.2832
  156MOL0     H20579   1.972   1.974   6.398 -2.1822 -0.9631  0.4172
  156MOL0     H20580   2.414   2.297   6.387  1.4580  1.5594  0.5691
  156MOL0     H20581   2.657   2.297   6.440 -1.5475  0.4803  0.2361
  156MOL0     H20582   2.818   1.934   6.685  1.3149 -0.8797  1.2574
  156MOL0     H20583   2.752   2.061   6.790  0.7778  0.2804 -0.1017
  156MOL0     H20584   3.018   2.094   6.646 -1.1264  2.2927 -0.6407
  156MOL0     H20585   2.973   2.185   6.788  1.4085 -1.3763  1.4974
  156MOL0     H20586   2.967   1.938   6.899  1.9429 -2.3997 -2.1418
  156MOL0     H20587   3.097   2.054   6.902  1.0697  0.7754  0.0911
  156MOL0     H20588   3.058   1.818   6.702 -1.7868 -2.0538  1.5278
  156MOL0     H20589   3.184   1.938   6.709 -2.2164  0.9138 -0.4001
  156MOL0     H20590   3.316   1.661   7.005  0.7002  1.5147  0.6009
  156MOL0     H20591   2.601   1.940   6.670  2.2914  0.7383 -1.6397
  156MOL0     H20592   2.347   1.966   6.642 -3.3291  2.1016 -1.7398
  157MOL0     O20593   7.284   4.197   1.467  0.3852  0.1847  0.1946
  157MOL0     C20594   7.296   4.147   1.352  0.4717 -0.2645  0.7238
  157MOL0     O20595   7.221   4.181   1.239  0.1640  0.8292  0.2089
  157MOL0     C20596   7.111   4.261   1.257 -0.6527  0.7424  0.1165
  157MOL0     C20597   7.107   4.374   1.176 -0.7068  0.1738  0.2088
  157MOL0     C20598   6.986   4.441   1.171 -1.4231 -0.0617  0.1524
  157MOL0     C20599   6.882   4.415   1.257  0.1927 -0.2226 -0.1862
  157MOL0     O20600   6.757   4.481   1.276  0.3930 -0.5072 -0.3199
  157MOL0     C20601   6.723   4.602   1.217  0.5001  0.3538 -0.5847
  157MOL0     C20602   6.593   4.652   1.289 -0.0054  0.3376 -0.4434
  157MOL0     C20603   6.542   4.790   1.240 -0.2151 -0.0389  0.5552
  157MOL0     C20604   6.400   4.813   1.289  0.8236 -0.0320 -0.6164
  157MOL0     C20605   6.367   4.964   1.281  0.4088  0.7008  0.3815
  157MOL0     C20606   6.243   5.002   1.363 -0.2090  0.9718 -0.0326
  157MOL0     C20607   6.212   5.150   1.345  0.2787  0.3323  0.2360
  157MOL0     C20608   6.113   5.226   1.439  0.1493 -0.0147  0.1662
  157MOL0     N20609   6.096   5.361   1.393  0.4190  0.3667  0.6049
  157MOL0     C20610   6.042   5.409   1.267  0.0855 -0.5481 -0.4173
  157MOL0     C20611   6.033   5.542   1.271 -0.1965  0.0847 -0.1161
  157MOL0     C20612   5.993   5.660   1.176  0.9904  0.5883 -0.3112
  157MOL0     C20613   5.906   5.598   1.062  0.3048 -0.6600 -0.2416
  157MOL0     C20614   5.855   5.712   0.967 -0.6462  0.4505 -0.3799
  157MOL0     C20615   5.773   5.829   1.030 -0.0753 -0.5571 -0.0983
  157MOL0     O20616   5.682   5.766   1.121  0.0414  0.0012 -0.0134
  157MOL0     C20617   5.558   5.748   1.068  0.3088  0.2772  0.3644
  157MOL0     C20618   5.454   5.709   1.156  0.3617 -0.4854  0.1864
  157MOL0     C20619   5.328   5.683   1.104 -0.9851  0.2444  0.2413
  157MOL0     C20620   5.289   5.691   0.972  0.1395 -1.1653  0.3325
  157MOL0     C20621   5.154   5.659   0.926 -0.1027 -0.2954 -0.4306
  157MOL0     O20622   5.140   5.631   0.793  0.6304 -0.3177  0.2741
  157MOL0     C20623   5.014   5.608   0.745 -0.2334  0.0305 -0.0820
  157MOL0     C20624   4.913   5.527   0.799 -0.2145 -1.1993 -0.1142
  157MOL0     C20625   4.790   5.521   0.742  0.8834  0.2599 -0.1008
  157MOL0     C20626   4.763   5.574   0.616 -1.0434 -0.5519  0.3024
  157MOL0     O20627   4.653   5.566   0.542 -0.2417 -0.3413  0.1406
  157MOL0     C20628   4.572   5.453   0.568 -0.8656  0.2524  1.0394
  157MOL0     C20629   4.467   5.433   0.456 -0.2581 -0.2262  0.3196
  157MOL0     C20630   4.383   5.559   0.434  0.6153 -0.1267 -0.3498
  157MOL0     C20631   4.315   5.597   0.563  0.5509 -0.1411 -0.5011
  157MOL0     C20632   4.185   5.685   0.546  0.0811  0.8205 -0.1148
  157MOL0     C20633   4.059   5.597   0.544  0.5120 -0.2422 -0.2112
  157MOL0     C20634   3.940   5.694   0.501  0.4693  0.3592 -0.5839
  157MOL0     C20635   3.808   5.614   0.478 -0.2814 -0.2814 -0.2148
  157MOL0    Cl20636   3.687   5.722   0.402 -0.2576 -0.8098  0.1544
  157MOL0     C20637   4.857   5.656   0.555  0.0552 -0.6352  0.1765
  157MOL0     C20638   4.980   5.670   0.624 -0.0512 -0.3113  0.0264
  157MOL0     O20639   5.067   5.655   1.014  0.2667  0.3208 -0.6259
  157MOL0     C20640   5.393   5.731   0.879  0.7881  0.8549 -0.5908
  157MOL0     C20641   5.517   5.758   0.927 -0.6663 -0.0856  0.8900
  157MOL0     N20642   6.082   5.579   1.396  0.3091 -0.1322  0.0824
  157MOL0     N20643   6.119   5.472   1.464  0.1878 -0.1945  0.0484
  157MOL0     C20644   6.885   4.308   1.342 -0.1198  0.3502  0.2209
  157MOL0     C20645   6.996   4.228   1.338 -1.1849 -0.1817  0.6703
  157MOL0     C20646   7.417   4.057   1.337  0.0780 -1.3053  0.4563
  157MOL0     C20647   7.510   4.045   1.444 -0.0081  0.5973  0.3482
  157MOL0     C20648   7.620   3.966   1.432  0.0556  0.7009 -0.1817
  157MOL0     C20649   7.650   3.905   1.306  0.5800 -0.8209 -0.8060
  157MOL0     O20650   7.753   3.820   1.288  0.1713 -0.8963  0.2315
  157MOL0     C20651   7.844   3.796   1.403  0.1395  0.9897 -0.1389
  157MOL0     C20652   7.962   3.702   1.376  0.1350 -0.0510  0.8064
  157MOL0     C20653   8.063   3.761   1.267  0.8024  0.2726  0.3749
  157MOL0     C20654   8.196   3.690   1.261  0.1215  0.0191  0.0013
  157MOL0     C20655   8.273   3.719   1.378  0.0704 -0.2194 -0.1137
  157MOL0     C20656   8.328   3.757   1.478 -0.4039 -0.1337  0.4293
  157MOL0     C20657   7.564   3.928   1.199  0.6632  0.4936  0.0564
  157MOL0     C20658   7.457   4.009   1.212  0.3304 -0.1750  1.0256
  157MOL0     H20659   7.182   4.389   1.098  0.7892 -1.2082  1.3140
  157MOL0     H20660   6.984   4.522   1.099  0.7979 -1.7726 -1.9945
  157MOL0     H20661   6.703   4.588   1.110  1.1842  0.9529 -0.7941
  157MOL0     H20662   6.794   4.684   1.234  2.1564 -1.2891  0.9630
  157MOL0     H20663   6.610   4.672   1.395  2.0967 -0.7847 -0.5118
  157MOL0     H20664   6.529   4.563   1.284 -0.5713  0.4773  2.4550
  157MOL0     H20665   6.543   4.789   1.130 -0.6575 -1.6973  0.5368
  157MOL0     H20666   6.600   4.875   1.276 -0.5743  1.5530 -2.2791
  157MOL0     H20667   6.336   4.760   1.218  0.0071  0.1719 -0.0436
  157MOL0     H20668   6.379   4.780   1.391  3.3868  2.1688  0.7475
  157MOL0     H20669   6.351   4.989   1.176  1.5648 -3.3956 -0.9439
  157MOL0     H20670   6.439   5.032   1.326  1.5456 -1.3211  1.7673
  157MOL0     H20671   6.266   4.980   1.468 -0.0199 -0.0843 -0.2869
  157MOL0     H20672   6.155   4.947   1.329  0.4994 -0.6281  0.5958
  157MOL0     H20673   6.306   5.200   1.368  0.7925 -1.0973  1.4366
  157MOL0     H20674   6.186   5.164   1.240  3.0758  0.5164 -0.5078
  157MOL0     H20675   6.145   5.222   1.543  2.6699 -0.0693 -0.5475
  157MOL0     H20676   6.015   5.177   1.437 -0.4009  1.0407 -2.3541
  157MOL0     H20677   6.015   5.350   1.180  1.6230  0.2473 -1.4743
  157MOL0     H20678   6.087   5.699   1.136  0.8789 -0.2738 -1.4694
  157MOL0     H20679   5.938   5.737   1.231 -0.0794 -0.7308  0.5143
  157MOL0     H20680   5.823   5.546   1.111  1.8664 -0.0797  3.3569
  157MOL0     H20681   5.978   5.522   1.029 -1.3252 -2.7638  0.7715
  157MOL0     H20682   5.947   5.759   0.929  0.5775 -1.3970  0.1435
  157MOL0     H20683   5.803   5.672   0.879 -2.7584  0.4071  0.8320
  157MOL0     H20684   5.725   5.892   0.954 -1.5131 -0.7591  0.6172
  157MOL0     H20685   5.843   5.894   1.084 -2.5425  1.0255  1.3924
  157MOL0     H20686   5.470   5.707   1.263  1.9477 -0.8643 -0.0354
  157MOL0     H20687   5.251   5.654   1.175 -1.1402 -1.1265 -0.4500
  157MOL0     H20688   4.930   5.489   0.899 -1.7282 -1.1562  0.1816
  157MOL0     H20689   4.729   5.447   0.794 -0.6393  0.4334 -1.5550
  157MOL0     H20690   4.524   5.472   0.664 -0.9894  1.2017  0.8015
  157MOL0     H20691   4.637   5.365   0.570  0.7740  1.1653 -2.8612
  157MOL0     H20692   4.393   5.358   0.487 -0.1527 -0.2958  0.4052
  157MOL0     H20693   4.519   5.404   0.364  0.9382  1.9131  0.2499
  157MOL0     H20694   4.315   5.547   0.349 -2.7900  1.9422  1.8279
  157MOL0     H20695   4.453   5.634   0.397  0.0464  0.7262  0.2674
  157MOL0     H20696   4.293   5.504   0.616 -0.2548  0.0092 -0.5536
  157MOL0     H20697   4.377   5.658   0.628 -2.0417 -0.6788  2.7481
  157MOL0     H20698   4.189   5.750   0.459  0.6830 -0.1713 -0.8445
  157MOL0     H20699   4.178   5.751   0.633 -0.1682  0.3300  0.2426
  157MOL0     H20700   4.038   5.547   0.639 -1.3016 -1.9637 -1.4508
  157MOL0     H20701   4.074   5.516   0.473  0.9323 -1.0094  0.7303
  157MOL0     H20702   3.920   5.771   0.576  2.7181  2.0422 -1.6197
  157MOL0     H20703   3.970   5.751   0.413  1.5334 -0.4669 -0.7724
  157MOL0     H20704   3.768   5.583   0.575 -0.7356 -0.9468 -0.6022
  157MOL0     H20705   3.833   5.537   0.404  4.4864 -0.7929  1.6127
  157MOL0     H20706   4.838   5.700   0.458  0.3089  0.3829  0.5715
  157MOL0     H20707   5.064   5.724   0.583 -0.1874  0.8245  1.1728
  157MOL0     H20708   5.369   5.739   0.773  2.2012  0.8873 -0.9166
  157MOL0     H20709   5.582   5.786   0.844 -0.7955 -3.0780 -0.3528
  157MOL0     H20710   6.807   4.282   1.413 -1.2133  0.0221 -1.0704
  157MOL0     H20711   7.001   4.133   1.391 -0.3818  0.3220  1.5008
  157MOL0     H20712   7.494   4.099   1.536  2.7973  0.2027  1.1613
  157MOL0     H20713   7.680   3.946   1.520 -0.9867  0.0753  0.4097
  157MOL0     H20714   7.788   3.740   1.479  2.3148 -0.1345  0.7426
  157MOL0     H20715   7.877   3.891   1.447  1.2226  0.2376  0.7455
  157MOL0     H20716   8.019   3.682   1.467  2.2584 -1.0004 -0.6539
  157MOL0     H20717   7.936   3.603   1.337  2.5584 -0.1837 -0.6353
  157MOL0     H20718   8.079   3.868   1.286  0.5192  0.9961 -2.7927
  157MOL0     H20719   8.011   3.755   1.170 -1.6856  0.3689  1.6223
  157MOL0     H20720   8.182   3.583   1.251 -0.0477 -0.3346  3.0803
  157MOL0     H20721   8.254   3.731   1.177  2.5551  2.1732  2.5397
  157MOL0     H20722   8.380   3.805   1.559 -0.9334  1.3888 -0.0939
  157MOL0     H20723   7.579   3.877   1.104 -0.7216 -0.4573  0.3102
  157MOL0     H20724   7.405   4.027   1.119  2.2126 -3.2759 -0.7774
  158MOL0     O20725   9.596   5.300   7.658  0.0307  0.4784  0.1273
  158MOL0     C20726   9.576   5.306   7.778  0.1761 -0.4591 -0.5334
  158MOL0     O20727   9.676   5.339   7.877  0.1600  0.3806 -0.4514
  158MOL0     C20728   9.807   5.359   7.835 -0.3009  0.7417 -0.4617
  158MOL0     C20729   9.877   5.240   7.811 -0.2348 -0.3800  0.0164
  158MOL0     C20730  10.010   5.248   7.762 -0.8955  0.6953 -0.3932
  158MOL0     C20731  10.066   5.372   7.746  0.0340  0.4554  0.5834
  158MOL0     O20732  10.199   5.383   7.712 -0.2004 -0.6225 -0.2669
  158MOL0     C20733  10.291   5.334   7.819  0.1768 -0.6920  0.4588
  158MOL0     C20734  10.438   5.349   7.768  0.6946 -0.5102  0.7887
  158MOL0     C20735  10.515   5.267   7.865  0.2318  0.3123 -0.4547
  158MOL0     C20736  10.655   5.234   7.806  0.5458  0.2182 -0.1677
  158MOL0     C20737  10.721   5.119   7.887 -0.2322  0.0625  0.7393
  158MOL0     C20738  10.765   5.171   8.021  0.0914  0.5590  0.1034
  158MOL0     C20739  10.913   5.145   8.051 -0.2283  0.0274  0.6139
  158MOL0     C20740  10.957   5.193   8.187 -0.5411  0.0791  0.3781
  158MOL0     N20741  11.095   5.240   8.190 -0.7003 -0.3117 -0.1521
  158MOL0     C20742  11.197   5.155   8.152 -0.1632  0.5794 -0.0438
  158MOL0     C20743  11.310   5.230   8.166  0.2587 -0.1147 -0.6427
  158MOL0     C20744  11.445   5.184   8.132  0.3744 -0.7192 -0.8215
  158MOL0     C20745  11.498   5.106   8.253  0.6963 -0.4184 -0.7824
  158MOL0     C20746  11.643   5.080   8.251  0.2388  0.1414  0.2067
  158MOL0     C20747  11.701   4.973   8.156  0.8141 -0.1504  0.0927
  158MOL0     O20748  11.842   4.972   8.132  1.1093 -0.2040  0.6044
  158MOL0     C20749  11.891   5.084   8.070 -0.3068 -0.2236 -0.0135
  158MOL0     C20750  12.030   5.089   8.086  0.0203 -0.4641 -0.5945
  158MOL0     C20751  12.106   5.179   8.019  0.4876 -1.0448  0.7611
  158MOL0     C20752  12.040   5.264   7.929 -0.1483  0.3729 -0.1672
  158MOL0     C20753  12.121   5.353   7.847 -0.2760 -0.7439 -0.0153
  158MOL0     O20754  12.086   5.379   7.720 -0.0764  0.2882 -0.4324
  158MOL0     C20755  12.167   5.446   7.632 -0.3415  0.2143 -0.2814
  158MOL0     C20756  12.115   5.565   7.586 -0.1054  0.9011  0.6333
  158MOL0     C20757  12.198   5.658   7.520 -0.1760 -0.5147 -0.1098
  158MOL0     C20758  12.328   5.621   7.484 -0.3675  0.3186  0.1408
  158MOL0     O20759  12.413   5.695   7.408 -0.5790 -0.1682 -0.2642
  158MOL0     C20760  12.387   5.827   7.375 -0.2750 -0.0664  0.7334
  158MOL0     C20761  12.525   5.891   7.361 -0.2684 -0.1519  0.1520
  158MOL0     C20762  12.610   5.816   7.261  0.4486 -0.6686 -0.5631
  158MOL0     C20763  12.746   5.880   7.254  0.2852 -0.0850 -0.3138
  158MOL0     C20764  12.832   5.796   7.160 -0.1297 -1.3669 -0.0334
  158MOL0     C20765  12.963   5.869   7.122  0.1392 -0.5742 -0.5308
  158MOL0     C20766  12.955   6.011   7.070  0.5629 -0.8416 -0.0818
  158MOL0     C20767  13.092   6.054   7.017  0.8042 -0.4162 -0.0749
  158MOL0    Cl20768  13.219   6.058   7.151 -0.3874 -0.0468  0.1486
  158MOL0     C20769  12.378   5.499   7.529 -0.3990  0.3712 -0.0277
  158MOL0     C20770  12.302   5.413   7.613  0.8171  0.7405 -0.0737
  158MOL0     O20771  12.226   5.398   7.896 -0.0730 -0.0782  0.3623
  158MOL0     C20772  11.901   5.267   7.922  0.2233  0.1168 -0.0408
  158MOL0     C20773  11.826   5.169   7.991 -0.6100 -0.4362  0.9395
  158MOL0     N20774  11.266   5.354   8.212 -0.3035  0.2160 -0.0296
  158MOL0     N20775  11.141   5.361   8.221 -0.3106 -0.0402 -0.6438
  158MOL0     C20776   9.997   5.485   7.762  0.5250 -0.6320  0.7820
  158MOL0     C20777   9.865   5.481   7.810  0.1105  0.7002  0.5498
  158MOL0     C20778   9.432   5.298   7.815  0.1543 -0.5325 -0.4042
  158MOL0     C20779   9.394   5.267   7.947 -0.2030  0.2131 -0.3188
  158MOL0     C20780   9.263   5.257   7.983  0.1810  0.9402  0.4367
  158MOL0     C20781   9.164   5.285   7.896 -0.0254  0.0021  0.5929
  158MOL0     O20782   9.031   5.297   7.932  0.1094 -0.5920 -0.1287
  158MOL0     C20783   8.993   5.293   8.068 -0.1186  0.1865  0.1643
  158MOL0     C20784   8.835   5.296   8.073  0.0294 -0.6026 -0.1469
  158MOL0     C20785   8.769   5.269   8.204 -0.0418 -0.0716 -0.0580
  158MOL0     C20786   8.620   5.305   8.202  0.0736 -0.0744  0.6785
  158MOL0     C20787   8.602   5.447   8.209  0.0323  0.8917 -0.6556
  158MOL0     C20788   8.571   5.565   8.216 -0.3878  0.2127  0.3381
  158MOL0     C20789   9.196   5.311   7.766  0.3371 -0.2732 -0.2088
  158MOL0     C20790   9.331   5.308   7.726  0.4688  0.4359 -0.3110
  158MOL0     H20791   9.823   5.148   7.831  0.5420 -0.1274  4.2113
  158MOL0     H20792  10.065   5.156   7.742  0.1878  1.4473 -1.0171
  158MOL0     H20793  10.263   5.231   7.843  0.5274 -0.8719  0.1005
  158MOL0     H20794  10.282   5.392   7.912 -0.7117  0.3018 -0.2252
  158MOL0     H20795  10.469   5.453   7.777 -0.2453 -0.3223  2.1410
  158MOL0     H20796  10.455   5.318   7.664 -0.4582 -1.9482  0.9972
  158MOL0     H20797  10.470   5.170   7.886 -0.4265  0.2948 -1.8177
  158MOL0     H20798  10.512   5.321   7.960  1.0707  1.9213 -1.3011
  158MOL0     H20799  10.641   5.190   7.706 -1.9958  1.5327 -0.4898
  158MOL0     H20800  10.715   5.325   7.809  1.0784 -0.1584  1.2171
  158MOL0     H20801  10.808   5.087   7.829 -1.2389  1.1454 -1.5099
  158MOL0     H20802  10.646   5.042   7.908 -0.0637  0.0588  1.3408
  158MOL0     H20803  10.691   5.123   8.086 -0.0351 -2.2216 -1.9321
  158MOL0     H20804  10.750   5.278   8.034 -0.2249  0.2503  2.9184
  158MOL0     H20805  10.928   5.038   8.033  0.0414 -0.3376  2.7026
  158MOL0     H20806  10.964   5.208   7.977  0.0047  0.4795  1.1550
  158MOL0     H20807  10.939   5.118   8.264  0.2539  1.1160  1.6073
  158MOL0     H20808  10.902   5.287   8.203 -0.0745  0.4438 -0.1179
  158MOL0     H20809  11.185   5.054   8.116 -1.8491 -0.1834  2.4058
  158MOL0     H20810  11.507   5.269   8.105  0.7537 -0.6362  0.2654
  158MOL0     H20811  11.431   5.117   8.047 -2.6558 -0.0174 -0.9662
  158MOL0     H20812  11.449   5.010   8.274 -0.4971  0.7616  2.3582
  158MOL0     H20813  11.482   5.160   8.347 -0.2947 -0.6857 -0.7854
  158MOL0     H20814  11.683   5.179   8.227 -0.0188  0.5146  1.2543
  158MOL0     H20815  11.685   5.057   8.349  1.1692  3.2808  0.6722
  158MOL0     H20816  11.650   4.996   8.062 -0.2466  4.1179  1.4804
  158MOL0     H20817  11.675   4.875   8.195  0.8307 -0.7470 -1.3102
  158MOL0     H20818  12.081   5.020   8.152  1.8634  1.7470  0.4760
  158MOL0     H20819  12.213   5.172   8.037  0.9954 -0.4807 -1.7103
  158MOL0     H20820  12.014   5.597   7.609 -0.8535  0.1700 -1.4711
  158MOL0     H20821  12.162   5.749   7.472 -0.5987  0.2432  1.5537
  158MOL0     H20822  12.350   5.877   7.465  3.0502  1.3188  1.5232
  158MOL0     H20823  12.327   5.834   7.284 -1.7092 -0.5246  1.6164
  158MOL0     H20824  12.572   5.885   7.460  0.0805  0.9620  0.0575
  158MOL0     H20825  12.520   5.998   7.339 -0.7127 -0.6918 -2.8110
  158MOL0     H20826  12.569   5.822   7.160  1.6056  2.4455 -0.9495
  158MOL0     H20827  12.622   5.711   7.289 -2.7827 -0.8197  0.6113
  158MOL0     H20828  12.735   5.981   7.212  1.1750 -1.1845 -3.4596
  158MOL0     H20829  12.793   5.882   7.353 -1.5046 -2.1712  0.6592
  158MOL0     H20830  12.782   5.780   7.064 -0.6313  0.3807 -0.0917
  158MOL0     H20831  12.857   5.704   7.215 -0.1464 -0.6886  1.1329
  158MOL0     H20832  13.015   5.806   7.049  0.7180 -0.2843 -0.3739
  158MOL0     H20833  13.031   5.869   7.208  0.5536 -2.7756 -0.7969
  158MOL0     H20834  12.886   6.012   6.985 -0.5488 -0.0715  0.8065
  158MOL0     H20835  12.927   6.085   7.145  2.5619  0.4500 -0.5194
  158MOL0     H20836  13.077   6.155   6.977 -2.9018  0.0765  2.0489
  158MOL0     H20837  13.116   5.990   6.932 -0.1996 -1.2157  0.2213
  158MOL0     H20838  12.484   5.482   7.511 -0.6016 -0.4537 -0.5202
  158MOL0     H20839  12.342   5.319   7.651  0.6367  0.6265 -0.1655
  158MOL0     H20840  11.850   5.329   7.849  2.3436  1.7384 -0.2411
  158MOL0     H20841  11.721   5.153   7.968 -0.4855  0.4827 -0.3909
  158MOL0     H20842  10.040   5.581   7.736 -0.6185 -1.1739 -4.0937
  158MOL0     H20843   9.811   5.572   7.836 -0.4208 -0.7128  5.5621
  158MOL0     H20844   9.470   5.272   8.024 -0.3777  0.4067 -0.1586
  158MOL0     H20845   9.248   5.208   8.078  0.0269 -1.3023 -0.6918
  158MOL0     H20846   9.033   5.376   8.128  2.8398 -0.8304 -0.2280
  158MOL0     H20847   9.019   5.196   8.111 -1.6795  1.1332  3.5739
  158MOL0     H20848   8.812   5.390   8.021  0.3390 -0.8554 -0.7526
  158MOL0     H20849   8.805   5.212   8.010  0.2321 -0.9056  0.1608
  158MOL0     H20850   8.819   5.316   8.289 -0.4577 -1.4391  0.9689
  158MOL0     H20851   8.778   5.163   8.227 -1.7780 -0.0992  0.6118
  158MOL0     H20852   8.582   5.286   8.101  0.7970  0.5635  0.2761
  158MOL0     H20853   8.566   5.244   8.275  1.6375 -0.6907  1.3490
  158MOL0     H20854   8.561   5.671   8.228 -1.1573  0.1195  0.5702
  158MOL0     H20855   9.116   5.350   7.703 -0.2206  2.0249  1.7840
  158MOL0     H20856   9.356   5.329   7.622 -0.1139  1.6232 -0.2294
  159MOL0     O20857   5.023   4.373   3.556 -0.0651 -0.1783  0.2957
  159MOL0     C20858   5.030   4.259   3.588  0.3128  0.1284  0.0401
  159MOL0     O20859   4.929   4.172   3.569 -0.3100 -0.4057 -0.4116
  159MOL0     C20860   4.807   4.208   3.507 -0.7827 -0.6008 -0.0571
  159MOL0     C20861   4.692   4.178   3.571 -0.0274  0.5352 -0.1226
  159MOL0     C20862   4.568   4.224   3.516 -0.0627 -0.0024 -0.3056
  159MOL0     C20863   4.558   4.302   3.399 -0.0877 -0.5071  0.4251
  159MOL0     O20864   4.451   4.367   3.345 -0.0311  0.3212 -0.0265
  159MOL0     C20865   4.323   4.351   3.410  0.1787 -0.3987 -0.1156
  159MOL0     C20866   4.243   4.458   3.341  0.1736  0.3052 -0.1261
  159MOL0     C20867   4.178   4.406   3.213  0.2576  0.2577 -0.5127
  159MOL0     C20868   4.080   4.510   3.151 -0.6453  1.5925 -0.1296
  159MOL0     C20869   4.068   4.495   3.001 -0.5873  0.2718 -0.1458
  159MOL0     C20870   4.018   4.357   2.943 -0.0987  0.0250  0.3857
  159MOL0     C20871   4.011   4.380   2.790 -0.0131  0.1563 -0.2088
  159MOL0     C20872   3.976   4.250   2.709 -0.2047 -0.0952 -0.0735
  159MOL0     N20873   3.835   4.220   2.679  0.5997  0.1098  0.4554
  159MOL0     C20874   3.749   4.130   2.738 -0.1881 -0.0827  0.3927
  159MOL0     C20875   3.650   4.121   2.650 -0.4876 -0.7962 -0.4503
  159MOL0     C20876   3.542   4.017   2.667 -0.7810 -0.7109  0.7240
  159MOL0     C20877   3.409   4.058   2.606 -0.0933 -0.3672 -0.6387
  159MOL0     C20878   3.305   3.971   2.680  0.5951 -0.0599 -0.4765
  159MOL0     C20879   3.163   4.016   2.631 -0.4082 -0.0148 -0.0267
  159MOL0     O20880   3.078   3.966   2.731 -0.0633 -0.0557  0.7353
  159MOL0     C20881   2.951   3.958   2.693 -0.9129 -0.6474 -0.1554
  159MOL0     C20882   2.889   4.047   2.605 -0.2324  0.5785 -0.9443
  159MOL0     C20883   2.758   4.018   2.559  1.0564 -0.9976  0.4090
  159MOL0     C20884   2.677   3.918   2.627 -0.3799 -0.3464  0.0165
  159MOL0     C20885   2.540   3.897   2.569 -0.5215 -0.5353  0.0042
  159MOL0     O20886   2.485   3.785   2.619  0.7354  0.4114  0.6859
  159MOL0     C20887   2.352   3.746   2.602 -0.4456  0.7187  0.6739
  159MOL0     C20888   2.257   3.826   2.534  0.1416 -0.1676 -0.4858
  159MOL0     C20889   2.124   3.776   2.522 -0.3672  0.4735  0.0441
  159MOL0     C20890   2.092   3.653   2.567 -0.4760 -0.4590 -0.2453
  159MOL0     O20891   1.963   3.603   2.572  0.4197  0.1629  0.8633
  159MOL0     C20892   1.856   3.691   2.597  0.1826 -0.2944  0.9660
  159MOL0     C20893   1.745   3.618   2.674  0.3140  0.5413  1.0200
  159MOL0     C20894   1.687   3.511   2.573 -0.3292 -0.9113 -0.5300
  159MOL0     C20895   1.549   3.475   2.613 -0.8560  0.1185  0.8888
  159MOL0     C20896   1.472   3.410   2.493 -0.8273 -0.0772  0.0069
  159MOL0     C20897   1.333   3.377   2.529  0.3382 -0.7512 -1.1219
  159MOL0     C20898   1.236   3.489   2.488  0.0067 -0.3970 -0.3816
  159MOL0     C20899   1.205   3.490   2.343 -0.3151 -0.8449  0.3758
  159MOL0    Cl20900   1.107   3.641   2.306 -0.1782 -0.1279 -0.0993
  159MOL0     C20901   2.188   3.574   2.631  0.4628  0.2722  0.0040
  159MOL0     C20902   2.315   3.627   2.655  0.1745 -0.6457  0.0402
  159MOL0     O20903   2.493   3.984   2.490 -0.5362  0.5621  0.7869
  159MOL0     C20904   2.749   3.826   2.717 -0.6448 -0.1493 -0.1810
  159MOL0     C20905   2.884   3.851   2.747 -0.8607  0.2464  0.4612
  159MOL0     N20906   3.655   4.219   2.553  0.4437 -0.2292 -0.3765
  159MOL0     N20907   3.771   4.271   2.567  0.0650  0.5296 -0.0131
  159MOL0     C20908   4.689   4.323   3.330  0.0653 -0.4582  0.1850
  159MOL0     C20909   4.808   4.268   3.380  0.4181  0.1157 -0.7194
  159MOL0     C20910   5.165   4.217   3.646  0.4924  0.5190  0.1985
  159MOL0     C20911   5.185   4.085   3.684 -0.4420 -0.3395 -0.7246
  159MOL0     C20912   5.317   4.055   3.719 -0.3315  0.3759  0.2643
  159MOL0     C20913   5.427   4.143   3.720  0.7376  0.4017 -0.0262
  159MOL0     O20914   5.556   4.083   3.727  0.9413  0.2401  0.0209
  159MOL0     C20915   5.669   4.161   3.689  0.2036  0.2059 -0.7102
  159MOL0     C20916   5.717   4.252   3.801  0.2172  0.6643  0.4377
  159MOL0     C20917   5.841   4.330   3.764  0.5864 -0.4245 -0.1790
  159MOL0     C20918   5.879   4.420   3.884  0.3715 -0.3692 -1.2431
  159MOL0     C20919   6.012   4.489   3.874  0.6370  0.0036  0.0432
  159MOL0     C20920   6.121   4.535   3.859 -1.2454 -0.3458  0.2626
  159MOL0     C20921   5.399   4.275   3.692 -0.7101 -0.5311  0.3950
  159MOL0     C20922   5.270   4.318   3.656 -0.5045  0.2132  0.5034
  159MOL0     H20923   4.678   4.142   3.673 -3.3294  3.2398  0.5647
  159MOL0     H20924   4.478   4.192   3.567  0.1792 -0.3046 -0.0635
  159MOL0     H20925   4.336   4.373   3.517 -0.4574 -0.5968  0.0102
  159MOL0     H20926   4.280   4.251   3.418  0.8511 -0.8644 -1.9698
  159MOL0     H20927   4.312   4.541   3.324  0.1559  0.4326  0.4200
  159MOL0     H20928   4.169   4.488   3.415  1.4525  2.5303  0.3318
  159MOL0     H20929   4.128   4.312   3.239 -2.1029  1.6114  0.1214
  159MOL0     H20930   4.265   4.395   3.147  2.2887  0.5697  1.9367
  159MOL0     H20931   3.982   4.492   3.195 -0.4585 -2.4679 -0.9754
  159MOL0     H20932   4.116   4.613   3.159  0.5670  1.4544 -2.7355
  159MOL0     H20933   4.166   4.513   2.957  0.3782 -2.1245  0.9224
  159MOL0     H20934   4.004   4.572   2.955  0.4057  1.7921  0.9298
  159MOL0     H20935   3.922   4.332   2.988  0.5048  1.6782  2.8142
  159MOL0     H20936   4.097   4.286   2.970  2.2408  2.9021  1.7617
  159MOL0     H20937   3.940   4.455   2.752  1.9227  1.0917 -2.2132
  159MOL0     H20938   4.111   4.409   2.757  2.7916 -5.9333  1.5536
  159MOL0     H20939   4.029   4.162   2.746  2.3655 -0.3076 -3.7532
  159MOL0     H20940   4.026   4.281   2.617 -1.6642  1.0696 -0.5071
  159MOL0     H20941   3.766   4.071   2.828  4.4631  0.0392 -0.1547
  159MOL0     H20942   3.538   3.993   2.774 -2.5636  1.3964  1.2130
  159MOL0     H20943   3.572   3.924   2.620  0.7967  0.2833 -0.3395
  159MOL0     H20944   3.413   4.041   2.498  2.6074  0.8592 -0.8131
  159MOL0     H20945   3.390   4.165   2.615  0.2354 -0.3789  0.3774
  159MOL0     H20946   3.317   3.868   2.646 -1.2824 -0.3793 -0.2958
  159MOL0     H20947   3.301   3.979   2.789 -0.5534 -0.1888 -0.4887
  159MOL0     H20948   3.143   3.971   2.534  0.7067  0.1918 -0.3745
  159MOL0     H20949   3.159   4.125   2.637 -1.0744 -0.1041  1.8736
  159MOL0     H20950   2.947   4.131   2.567 -0.3722  0.9713 -0.3102
  159MOL0     H20951   2.720   4.062   2.468  0.6020 -2.9925 -0.4169
  159MOL0     H20952   2.275   3.925   2.494 -1.1532 -0.3175 -1.5084
  159MOL0     H20953   2.053   3.840   2.470 -0.3446  0.3656 -0.1176
  159MOL0     H20954   1.810   3.730   2.505 -4.3246 -2.3729  2.0914
  159MOL0     H20955   1.890   3.779   2.653  0.6484 -1.7947  3.1611
  159MOL0     H20956   1.664   3.683   2.707 -1.9769 -1.5636 -0.1506
  159MOL0     H20957   1.780   3.574   2.768 -1.5717  0.2236  1.6142
  159MOL0     H20958   1.758   3.428   2.561  1.3119  0.3135  0.3879
  159MOL0     H20959   1.687   3.565   2.478  1.2432  2.5739  1.2580
  159MOL0     H20960   1.564   3.403   2.693 -1.0546  0.8959  1.6401
  159MOL0     H20961   1.494   3.560   2.655  2.7238  3.8115 -1.0775
  159MOL0     H20962   1.517   3.312   2.473 -0.1794  0.7170 -2.9393
  159MOL0     H20963   1.493   3.457   2.397  3.2694 -1.8179 -0.1451
  159MOL0     H20964   1.327   3.350   2.635 -0.5466 -1.0842 -1.2472
  159MOL0     H20965   1.300   3.289   2.472 -0.4641  0.6839 -2.9468
  159MOL0     H20966   1.140   3.478   2.540  1.3453 -0.0200  2.3320
  159MOL0     H20967   1.271   3.587   2.524 -0.5788 -0.8490  1.5506
  159MOL0     H20968   1.140   3.407   2.313 -2.4182  0.8838 -0.1774
  159MOL0     H20969   1.299   3.479   2.288 -0.1995 -2.5936  0.8655
  159MOL0     H20970   2.164   3.469   2.644 -1.3780  0.1049 -3.4880
  159MOL0     H20971   2.393   3.577   2.712 -1.5090 -1.6840  1.5362
  159MOL0     H20972   2.704   3.729   2.737 -0.8237  0.0210  0.2538
  159MOL0     H20973   2.936   3.776   2.807 -0.7395  0.0731  0.1401
  159MOL0     H20974   4.687   4.385   3.241  1.1921 -1.2893 -0.4591
  159MOL0     H20975   4.892   4.293   3.316  0.4334  1.6004 -0.1532
  159MOL0     H20976   5.107   4.010   3.674 -1.1887  0.5884 -2.2648
  159MOL0     H20977   5.344   3.950   3.731  0.2780  0.2309 -1.9016
  159MOL0     H20978   5.647   4.211   3.594 -5.1134 -2.0699 -1.0652
  159MOL0     H20979   5.754   4.094   3.675  0.5590  0.9128 -2.1017
  159MOL0     H20980   5.641   4.322   3.838  0.1147  0.9641 -0.3274
  159MOL0     H20981   5.743   4.193   3.889  2.9535  0.9941 -0.0685
  159MOL0     H20982   5.820   4.393   3.677  0.6468 -0.9459 -0.5750
  159MOL0     H20983   5.916   4.255   3.738  1.2700 -0.2113  1.1037
  159MOL0     H20984   5.812   4.504   3.900  2.9690  1.1831  4.1002
  159MOL0     H20985   5.881   4.353   3.971 -2.3462 -1.8492 -2.2053
  159MOL0     H20986   6.226   4.557   3.859 -1.3934  0.9649  3.3588
  159MOL0     H20987   5.475   4.351   3.677 -2.5516  1.3429  0.0594
  159MOL0     H20988   5.263   4.421   3.623  1.1421 -0.7036 -3.0656
  160MOL0     O20989   9.289   4.004   2.032 -0.1724 -0.9750 -0.5699
  160MOL0     C20990   9.363   4.074   1.966  0.0379  0.3677 -0.1324
  160MOL0     O20991   9.334   4.198   1.939 -0.0247  0.6578  0.4023
  160MOL0     C20992   9.202   4.222   1.914 -0.3318 -0.5886  0.2800
  160MOL0     C20993   9.139   4.152   1.814  0.1705  0.0647  0.0150
  160MOL0     C20994   9.003   4.170   1.793  0.1148  0.6456 -0.2729
  160MOL0     C20995   8.931   4.262   1.878  1.1272  0.0315 -0.6431
  160MOL0     O20996   8.797   4.270   1.862  0.1586  0.0225  0.1846
  160MOL0     C20997   8.709   4.288   1.971 -0.8545  0.1090 -0.1259
  160MOL0     C20998   8.573   4.310   1.904  0.4273 -0.1206  0.4295
  160MOL0     C20999   8.535   4.186   1.815  0.7448  0.9211 -0.4775
  160MOL0     C21000   8.380   4.198   1.791  0.3468 -0.0347  0.5076
  160MOL0     C21001   8.343   4.121   1.673  0.3410 -0.7533  0.2375
  160MOL0     C21002   8.205   4.164   1.621  0.4756 -0.3939 -0.6205
  160MOL0     C21003   8.156   4.087   1.500  0.0918  0.7968  0.9164
  160MOL0     C21004   8.046   4.159   1.426  0.4250  0.1870  0.3674
  160MOL0     N21005   7.929   4.195   1.505 -1.0524  0.0935  0.3126
  160MOL0     C21006   7.870   4.315   1.507  0.2624 -0.2593  0.1168
  160MOL0     C21007   7.762   4.302   1.589  0.5046  0.5205  0.3027
  160MOL0     C21008   7.647   4.397   1.618 -0.5292  0.6653 -0.0662
  160MOL0     C21009   7.594   4.452   1.484  0.5069 -0.3576 -0.4749
  160MOL0     C21010   7.496   4.566   1.500 -0.3101 -0.4119 -0.2822
  160MOL0     C21011   7.344   4.527   1.514  0.6389 -0.4859 -0.6349
  160MOL0     O21012   7.271   4.652   1.515  0.8120 -0.3353 -0.0306
  160MOL0     C21013   7.141   4.646   1.557  0.3051 -1.1213 -0.5158
  160MOL0     C21014   7.077   4.771   1.578 -0.3973  0.4807  0.0599
  160MOL0     C21015   6.941   4.778   1.616  0.5512 -0.2610 -0.1208
  160MOL0     C21016   6.860   4.657   1.621  0.4200 -0.8581  0.7811
  160MOL0     C21017   6.718   4.669   1.642 -0.0670  1.2711 -0.4875
  160MOL0     O21018   6.675   4.788   1.685  0.2590 -0.4341 -0.0148
  160MOL0     C21019   6.542   4.810   1.718 -0.2851  0.0680  0.5724
  160MOL0     C21020   6.435   4.751   1.659  0.3232 -0.4680 -0.3781
  160MOL0     C21021   6.310   4.787   1.702  0.4559 -0.2271 -0.5854
  160MOL0     C21022   6.294   4.877   1.803 -0.1880 -0.2121 -0.1950
  160MOL0     O21023   6.177   4.905   1.867 -0.4270  0.0490  0.1109
  160MOL0     C21024   6.055   4.857   1.822 -0.0817  0.2269 -0.0017
  160MOL0     C21025   5.954   4.905   1.932  0.1780 -0.4381  0.1496
  160MOL0     C21026   5.805   4.856   1.929  0.5242 -0.3256 -0.3734
  160MOL0     C21027   5.805   4.704   1.907  0.7053 -0.6736 -0.3281
  160MOL0     C21028   5.668   4.631   1.896  0.0295 -0.3229 -0.7310
  160MOL0     C21029   5.581   4.688   1.781 -0.3045  0.1581  0.2867
  160MOL0     C21030   5.453   4.606   1.739  0.0126 -0.2786 -0.2279
  160MOL0     C21031   5.404   4.634   1.592 -0.6714  0.6627 -0.1638
  160MOL0    Cl21032   5.291   4.768   1.613 -0.1379 -0.1074 -0.1828
  160MOL0     C21033   6.403   4.936   1.858  0.8712  0.0717 -0.4034
  160MOL0     C21034   6.524   4.915   1.813 -0.7606  0.4284  0.0694
  160MOL0     O21035   6.657   4.561   1.639  0.9516 -0.4216 -0.3353
  160MOL0     C21036   6.923   4.538   1.589 -0.3676  0.8840  1.0105
  160MOL0     C21037   7.060   4.534   1.566 -1.0362  0.5887 -0.2142
  160MOL0     N21038   7.758   4.178   1.640  0.8993  0.4539  0.5216
  160MOL0     N21039   7.858   4.109   1.585 -0.4185  0.4943 -0.5291
  160MOL0     C21040   8.997   4.324   1.984 -0.3363  0.1282  0.1666
  160MOL0     C21041   9.131   4.312   1.994  0.0871  0.5947  0.0427
  160MOL0     C21042   9.504   4.039   1.950  0.4724 -0.0709  0.4076
  160MOL0     C21043   9.568   3.949   2.034 -0.6890  0.1956  0.0332
  160MOL0     C21044   9.711   3.931   2.021 -0.3832 -0.0860  0.4638
  160MOL0     C21045   9.782   3.998   1.923 -0.9972  0.4096  0.2592
  160MOL0     O21046   9.913   3.975   1.886  0.6740  0.4511 -0.2806
  160MOL0     C21047  10.001   3.893   1.971  0.4101 -0.2171 -1.0243
  160MOL0     C21048  10.047   3.958   2.101 -0.0609 -0.0583 -0.6261
  160MOL0     C21049  10.132   3.865   2.192  0.2780 -1.0489 -0.1542
  160MOL0     C21050  10.278   3.872   2.152 -0.6038 -1.1133 -0.2205
  160MOL0     C21051  10.339   3.993   2.212  0.8440  0.2169  0.5833
  160MOL0     C21052  10.365   4.090   2.285 -0.4416  0.0121  0.0050
  160MOL0     C21053   9.713   4.092   1.843 -1.1732 -0.2055 -0.1605
  160MOL0     C21054   9.580   4.113   1.860  0.0581  0.1056  0.1513
  160MOL0     H21055   9.185   4.067   1.765 -2.0146 -0.6346 -0.9383
  160MOL0     H21056   8.959   4.133   1.701  1.1613  2.6107 -1.6312
  160MOL0     H21057   8.737   4.375   2.030 -0.6065 -0.4819  0.6486
  160MOL0     H21058   8.710   4.198   2.033  0.4417 -1.5867 -2.4454
  160MOL0     H21059   8.571   4.403   1.848  0.1333 -0.0251  0.5958
  160MOL0     H21060   8.497   4.331   1.980 -0.4365  1.0873 -0.7226
  160MOL0     H21061   8.552   4.088   1.862  0.2299  1.8986  1.9122
  160MOL0     H21062   8.587   4.189   1.719  0.0055 -1.4392 -1.0073
  160MOL0     H21063   8.328   4.152   1.876 -1.1386 -0.5790 -0.6390
  160MOL0     H21064   8.353   4.302   1.773  0.6856 -0.2245 -1.2778
  160MOL0     H21065   8.341   4.019   1.712  0.6686  0.0249  2.4248
  160MOL0     H21066   8.414   4.129   1.590  1.3635  0.5504  1.2007
  160MOL0     H21067   8.212   4.264   1.578  3.5323  0.4598  1.5422
  160MOL0     H21068   8.130   4.164   1.701 -0.4966  0.9109 -1.4972
  160MOL0     H21069   8.242   4.066   1.436  0.3611 -1.2586  1.8693
  160MOL0     H21070   8.115   3.991   1.533  0.0871  1.4115  2.8256
  160MOL0     H21071   8.011   4.102   1.339  1.2116  0.0286  0.1452
  160MOL0     H21072   8.076   4.258   1.389  0.0335  0.3781  0.5675
  160MOL0     H21073   7.891   4.409   1.457 -0.3044  0.0252  0.4008
  160MOL0     H21074   7.684   4.488   1.666 -1.5343  0.9691  0.1574
  160MOL0     H21075   7.569   4.351   1.680 -0.3503  2.4595  1.5862
  160MOL0     H21076   7.556   4.372   1.419 -0.2009 -1.7917  1.5931
  160MOL0     H21077   7.667   4.497   1.416 -1.0416  1.3431 -1.0819
  160MOL0     H21078   7.533   4.637   1.574  0.3627  0.0359 -1.0239
  160MOL0     H21079   7.494   4.613   1.401 -1.9352 -2.5033 -1.3205
  160MOL0     H21080   7.323   4.467   1.602 -0.3709  1.1060  0.2558
  160MOL0     H21081   7.313   4.467   1.427 -0.1963  0.8655 -1.2967
  160MOL0     H21082   7.134   4.863   1.578 -0.2664  0.5545 -3.8019
  160MOL0     H21083   6.899   4.873   1.648 -1.0001 -0.3022 -1.8422
  160MOL0     H21084   6.455   4.675   1.585 -0.5236 -0.8997 -0.1756
  160MOL0     H21085   6.229   4.732   1.656  0.0232 -1.1553  1.2278
  160MOL0     H21086   6.077   4.750   1.818  2.5009  0.6898 -0.0500
  160MOL0     H21087   6.039   4.879   1.716  0.2725 -2.9974 -0.8369
  160MOL0     H21088   5.954   5.015   1.936 -1.7529 -0.4314  2.5133
  160MOL0     H21089   5.993   4.876   2.030  0.7660 -0.3660 -0.0573
  160MOL0     H21090   5.745   4.912   1.857  1.5177 -0.1916 -1.1328
  160MOL0     H21091   5.760   4.875   2.027  1.3842 -0.1984  0.0091
  160MOL0     H21092   5.854   4.690   1.810 -0.0208 -0.1715 -0.7723
  160MOL0     H21093   5.865   4.659   1.986  1.4247  0.2029 -0.3665
  160MOL0     H21094   5.619   4.628   1.994 -0.8489  0.4909 -1.1342
  160MOL0     H21095   5.699   4.527   1.879 -3.2173 -1.6645  0.6067
  160MOL0     H21096   5.655   4.695   1.701  1.2107  1.4859  1.7222
  160MOL0     H21097   5.546   4.787   1.812  0.8362  0.0802  1.9290
  160MOL0     H21098   5.484   4.504   1.765 -2.3007 -0.5627  1.7682
  160MOL0     H21099   5.372   4.632   1.808  0.4546  0.4622  0.0223
  160MOL0     H21100   5.351   4.546   1.554  2.1783 -1.4199  0.3542
  160MOL0     H21101   5.486   4.661   1.526 -0.1161 -1.8523 -0.5758
  160MOL0     H21102   6.402   5.008   1.940  0.4956  1.4183 -1.5510
  160MOL0     H21103   6.610   4.972   1.846 -0.6620  1.0319 -1.1806
  160MOL0     H21104   6.872   4.443   1.600 -0.6814  0.6694 -1.6786
  160MOL0     H21105   7.106   4.436   1.564 -3.7466 -0.8204  1.4794
  160MOL0     H21106   8.950   4.390   2.055 -0.1003  0.9977 -0.4688
  160MOL0     H21107   9.189   4.370   2.066 -0.5194 -0.5731  1.5089
  160MOL0     H21108   9.513   3.899   2.113 -2.9820 -0.0672 -1.6400
  160MOL0     H21109   9.753   3.864   2.096 -1.0855 -1.6956 -0.5311
  160MOL0     H21110  10.088   3.870   1.909  3.1853 -1.0768  2.8175
  160MOL0     H21111   9.952   3.797   1.989 -0.3456  0.2433 -0.5570
  160MOL0     H21112  10.097   4.051   2.075  0.6079 -1.2164 -4.0604
  160MOL0     H21113   9.952   3.999   2.139 -1.4055  0.2208 -3.9517
  160MOL0     H21114  10.094   3.762   2.189  0.2967 -1.0410 -1.7678
  160MOL0     H21115  10.120   3.904   2.293  2.2800 -0.9453  0.0792
  160MOL0     H21116  10.333   3.788   2.197  0.1369  0.3252  1.7192
  160MOL0     H21117  10.286   3.871   2.043  3.9898  2.0464 -0.1958
  160MOL0     H21118  10.386   4.178   2.341  1.3029  0.0302 -0.5910
  160MOL0     H21119   9.769   4.143   1.765 -2.7756  0.8982 -0.6515
  160MOL0     H21120   9.540   4.186   1.791  2.8919 -0.6378 -2.5078
  161MOL0     O21121   2.771   2.472   9.803  0.1668  0.0119  0.0874
  161MOL0     C21122   2.788   2.592   9.798 -0.3850 -0.3224 -0.5511
  161MOL0     O21123   2.692   2.689   9.760  0.2408 -0.0436 -0.4297
  161MOL0     C21124   2.556   2.664   9.773  0.3632 -0.7081  1.0966
  161MOL0     C21125   2.505   2.563   9.851 -0.3708 -0.0661 -0.8335
  161MOL0     C21126   2.367   2.544   9.859  0.5024  0.1324 -0.0293
  161MOL0     C21127   2.285   2.621   9.782 -0.9521  0.6688  0.4007
  161MOL0     O21128   2.154   2.590   9.766 -0.0519 -0.2600  0.4560
  161MOL0     C21129   2.094   2.483   9.835  0.6295  0.3650 -0.5690
  161MOL0     C21130   1.945   2.465   9.795 -0.0026 -0.4178  0.4849
  161MOL0     C21131   1.865   2.588   9.836  0.1153  0.2096  0.8131
  161MOL0     C21132   1.714   2.567   9.793 -0.4704 -0.6233 -0.2515
  161MOL0     C21133   1.633   2.691   9.805  0.0422  0.1435 -0.0765
  161MOL0     C21134   1.480   2.659   9.803 -0.5684  0.5844 -0.9393
  161MOL0     C21135   1.408   2.790   9.769 -0.2703  0.9693 -0.3395
  161MOL0     C21136   1.259   2.781   9.734  0.4578 -0.0429 -0.0215
  161MOL0     N21137   1.179   2.720   9.842  0.2604 -0.7495 -0.6648
  161MOL0     C21138   1.168   2.585   9.883  0.6104 -0.7837  0.7297
  161MOL0     C21139   1.064   2.580   9.973  0.4389 -0.9615 -0.1570
  161MOL0     C21140   1.008   2.465  10.048 -0.0306  0.1138 -0.5444
  161MOL0     C21141   0.920   2.383   9.961 -0.1367  0.8363  0.0086
  161MOL0     C21142   0.883   2.251  10.028 -0.5644  0.4342  0.0656
  161MOL0     C21143   0.800   2.160   9.938  0.2941  0.1544  0.1685
  161MOL0     O21144   0.820   2.015   9.955  0.3414 -0.5145 -0.5705
  161MOL0     C21145   0.715   1.934   9.915  0.6273  0.0939 -0.2513
  161MOL0     C21146   0.667   1.947   9.781 -0.0464  0.5507 -0.1957
  161MOL0     C21147   0.575   1.856   9.731 -0.1653 -0.5037  0.2239
  161MOL0     C21148   0.522   1.754   9.813 -1.1172 -0.3145 -0.2539
  161MOL0     C21149   0.419   1.671   9.752  0.2951 -0.4262  0.3131
  161MOL0     O21150   0.337   1.606   9.841 -0.2302  0.6187 -0.1728
  161MOL0     C21151   0.238   1.518   9.799  0.7078  0.1436  0.4597
  161MOL0     C21152   0.118   1.533   9.869 -0.2473  0.4455  0.1276
  161MOL0     C21153   0.004   1.456   9.832 -0.1765  0.4739  1.1459
  161MOL0     C21154   0.013   1.363   9.718 -1.3293  0.0792  0.6952
  161MOL0     O21155  -0.081   1.263   9.680  0.2647 -0.7093  0.0352
  161MOL0     C21156  -0.195   1.257   9.756  0.2495  0.5207 -0.0979
  161MOL0     C21157  -0.278   1.143   9.701  1.2387  0.9485  1.6221
  161MOL0     C21158  -0.405   1.115   9.787 -0.9478 -0.3446 -0.0245
  161MOL0     C21159  -0.483   0.990   9.749 -0.5871 -0.3707  0.1342
  161MOL0     C21160  -0.554   0.938   9.878 -0.1144  0.0928 -0.4651
  161MOL0     C21161  -0.639   0.808   9.859 -0.4687 -0.4577 -0.0628
  161MOL0     C21162  -0.720   0.786   9.985 -0.5380 -0.0023 -0.1663
  161MOL0     C21163  -0.780   0.639   9.996 -0.2954 -0.7241 -0.0992
  161MOL0    Cl21164  -0.839   0.594   9.832 -0.1861  0.0001  0.0820
  161MOL0     C21165   0.133   1.365   9.639  0.3288 -0.8467  0.0734
  161MOL0     C21166   0.246   1.441   9.679  0.9647  0.1989 -0.0370
  161MOL0     O21167   0.417   1.662   9.628 -0.3163 -0.4783 -0.7189
  161MOL0     C21168   0.566   1.747   9.952  0.0060 -0.6401 -0.2170
  161MOL0     C21169   0.658   1.838   9.996  0.3019 -0.5685  0.3227
  161MOL0     N21170   1.015   2.707   9.997 -0.2688  0.5402 -0.5110
  161MOL0     N21171   1.080   2.786   9.924 -0.3160  0.3449  0.8576
  161MOL0     C21172   2.334   2.720   9.700 -0.8666  0.1256 -0.3908
  161MOL0     C21173   2.472   2.742   9.694  0.3629  0.2456 -0.8681
  161MOL0     C21174   2.919   2.655   9.810 -0.7206  0.0071 -0.0576
  161MOL0     C21175   3.022   2.590   9.874 -0.2820  1.0455  0.1346
  161MOL0     C21176   3.146   2.647   9.907  0.1734 -0.6128  0.0869
  161MOL0     C21177   3.169   2.775   9.858 -0.5277 -0.1206  0.4210
  161MOL0     O21178   3.274   2.852   9.903  0.0190 -0.4803  0.1259
  161MOL0     C21179   3.388   2.778   9.955 -0.4561 -0.1466 -0.6190
  161MOL0     C21180   3.512   2.866   9.967  0.6382  0.1871 -0.4871
  161MOL0     C21181   3.560   2.904   9.823  0.2735  0.1288  0.4707
  161MOL0     C21182   3.687   2.987   9.828 -0.8088 -0.6392  0.1988
  161MOL0     C21183   3.791   2.894   9.869  0.5529 -0.9411  0.2536
  161MOL0     C21184   3.883   2.830   9.900 -0.5464 -0.5279 -0.5050
  161MOL0     C21185   3.074   2.843   9.788 -0.7530  0.2354 -0.2765
  161MOL0     C21186   2.951   2.779   9.759 -0.9457  0.0631  0.3676
  161MOL0     H21187   2.569   2.495   9.906 -0.2331  0.5159 -0.2707
  161MOL0     H21188   2.332   2.477   9.936  0.4351 -0.4044 -0.5182
  161MOL0     H21189   2.112   2.500   9.941  1.8631  0.8267 -0.8385
  161MOL0     H21190   2.150   2.392   9.810  0.5383  0.7355 -2.2215
  161MOL0     H21191   1.907   2.371   9.837  1.9196 -1.8269 -0.7692
  161MOL0     H21192   1.951   2.459   9.686 -0.2300 -0.9113  0.4988
  161MOL0     H21193   1.903   2.669   9.773  1.7833 -1.5325 -0.5307
  161MOL0     H21194   1.884   2.610   9.941 -0.3127  1.4266  0.6501
  161MOL0     H21195   1.710   2.535   9.689  2.2470  0.1571 -0.6789
  161MOL0     H21196   1.665   2.495   9.860 -1.8734 -1.9241 -2.5404
  161MOL0     H21197   1.653   2.760   9.722  1.7561  1.0776  1.0541
  161MOL0     H21198   1.653   2.754   9.892  0.3630 -0.8796  0.6093
  161MOL0     H21199   1.440   2.624   9.898 -0.2215  2.4345 -0.0589
  161MOL0     H21200   1.452   2.589   9.724 -3.0876 -0.8317  1.0561
  161MOL0     H21201   1.425   2.858   9.853 -0.2443 -0.8558  1.1938
  161MOL0     H21202   1.458   2.840   9.685  0.1233  2.8827  0.9626
  161MOL0     H21203   1.240   2.730   9.639 -1.5106  4.8172 -2.6101
  161MOL0     H21204   1.233   2.886   9.720 -0.0706 -0.2352 -0.5249
  161MOL0     H21205   1.215   2.496   9.844 -3.8819 -2.7570 -0.8301
  161MOL0     H21206   0.945   2.503  10.129 -2.4595 -2.1759 -1.2156
  161MOL0     H21207   1.088   2.406  10.094  0.4541  0.8912 -0.3763
  161MOL0     H21208   0.975   2.375   9.866  0.4723 -3.0419  0.5056
  161MOL0     H21209   0.823   2.428   9.941  0.3878  2.7631  1.5128
  161MOL0     H21210   0.970   2.188  10.047 -1.2468 -0.8293 -0.9010
  161MOL0     H21211   0.822   2.274  10.116 -0.7708  0.4057 -0.0686
  161MOL0     H21212   0.831   2.181   9.835 -1.2233  0.0688 -0.3451
  161MOL0     H21213   0.696   2.194   9.942  0.4574  0.5219  3.0481
  161MOL0     H21214   0.720   2.026   9.729  1.0778  3.5876  4.8966
  161MOL0     H21215   0.554   1.876   9.626 -2.2107 -2.1705  0.2430
  161MOL0     H21216   0.095   1.611   9.941  0.3840 -0.7374  1.6578
  161MOL0     H21217  -0.093   1.459   9.880 -0.4208  0.6625  0.6450
  161MOL0     H21218  -0.257   1.347   9.754  1.3182  1.2587 -1.2617
  161MOL0     H21219  -0.171   1.234   9.861 -0.5700  1.1150  0.2280
  161MOL0     H21220  -0.210   1.058   9.704  0.4158 -0.0407 -2.2924
  161MOL0     H21221  -0.306   1.157   9.596  2.1754 -2.1891  0.8554
  161MOL0     H21222  -0.473   1.199   9.772 -2.0878 -1.1456  0.5111
  161MOL0     H21223  -0.370   1.108   9.890 -0.8754 -0.0659 -0.0296
  161MOL0     H21224  -0.552   1.011   9.667  1.0853  1.5914 -0.8518
  161MOL0     H21225  -0.409   0.913   9.725  1.4147  1.0840  1.2466
  161MOL0     H21226  -0.605   1.020   9.930  1.2734 -1.2552  3.3483
  161MOL0     H21227  -0.470   0.913   9.944 -1.4318 -0.1605  1.1637
  161MOL0     H21228  -0.567   0.726   9.850  1.3335  0.9951  0.3187
  161MOL0     H21229  -0.703   0.810   9.771 -1.9118 -1.0248  0.9416
  161MOL0     H21230  -0.654   0.803  10.070  0.7412  0.2836 -1.1970
  161MOL0     H21231  -0.789   0.870   9.992  2.6805  2.8228  0.1075
  161MOL0     H21232  -0.862   0.633  10.068  0.2284 -0.9738  0.4814
  161MOL0     H21233  -0.700   0.574  10.032  1.7997  2.3095  1.1221
  161MOL0     H21234   0.154   1.287   9.566  0.5649 -2.5239  1.8465
  161MOL0     H21235   0.337   1.429   9.621  0.6652 -1.4392 -0.2325
  161MOL0     H21236   0.507   1.682  10.015 -0.3298  1.7553  2.1443
  161MOL0     H21237   0.681   1.833  10.102 -3.3903 -0.7753  1.2542
  161MOL0     H21238   2.263   2.778   9.641 -0.8985  1.2284  0.6780
  161MOL0     H21239   2.526   2.813   9.632 -0.3522  1.9446  0.3794
  161MOL0     H21240   2.999   2.491   9.911  0.4222  0.1887 -1.6473
  161MOL0     H21241   3.224   2.594   9.961  0.4556  0.7391  1.0681
  161MOL0     H21242   3.415   2.700   9.883 -0.1321  0.1061 -0.7745
  161MOL0     H21243   3.374   2.730  10.052 -0.5456 -2.5780 -1.7578
  161MOL0     H21244   3.494   2.957  10.024  4.3401 -0.2627  1.7748
  161MOL0     H21245   3.595   2.815  10.017  2.9718  3.5181 -0.6206
  161MOL0     H21246   3.479   2.964   9.781  1.2209 -0.9274 -3.2325
  161MOL0     H21247   3.578   2.814   9.763  0.1302 -0.7734  1.7300
  161MOL0     H21248   3.717   3.027   9.731 -0.4168  0.9010  0.9203
  161MOL0     H21249   3.669   3.076   9.889  0.7212 -0.2328  0.0914
  161MOL0     H21250   3.962   2.760   9.918 -0.2563  0.1525  0.9720
  161MOL0     H21251   3.096   2.942   9.752  0.3857  0.8814  1.9827
  161MOL0     H21252   2.882   2.844   9.707  0.5458  1.6182  0.2413
  162MOL0     O21253   9.277   5.504  10.263 -0.5393 -0.7615  0.2390
  162MOL0     C21254   9.308   5.398  10.207 -0.1007  0.1193  0.1798
  162MOL0     O21255   9.211   5.311  10.151  0.7132  0.0996 -0.8215
  162MOL0     C21256   9.083   5.348  10.139  0.0961 -1.7721 -0.2578
  162MOL0     C21257   9.047   5.456  10.050 -0.3017  0.1923 -0.5808
  162MOL0     C21258   8.912   5.493  10.043  0.0129 -0.1824  0.0719
  162MOL0     C21259   8.811   5.429  10.113 -0.1770  0.9241 -0.1871
  162MOL0     O21260   8.680   5.460  10.100  0.0589  0.3253  0.4138
  162MOL0     C21261   8.657   5.597  10.120 -0.3722 -0.3103 -0.7679
  162MOL0     C21262   8.533   5.612  10.214 -0.6119 -0.2531  0.3321
  162MOL0     C21263   8.405   5.545  10.166  0.1624 -1.1398 -0.0875
  162MOL0     C21264   8.282   5.604  10.231 -0.5840  0.2251 -0.5208
  162MOL0     C21265   8.153   5.550  10.160  0.5268  0.2350 -0.1322
  162MOL0     C21266   8.045   5.647  10.193 -0.3242  0.5167 -0.2046
  162MOL0     C21267   7.903   5.590  10.156 -0.3566 -0.0294  0.0160
  162MOL0     C21268   7.804   5.698  10.196 -0.2513 -0.0892  0.0710
  162MOL0     N21269   7.667   5.666  10.144 -0.0718  0.0999  0.2537
  162MOL0     C21270   7.584   5.562  10.172  0.3104 -0.0518  0.1146
  162MOL0     C21271   7.473   5.569  10.102  0.1009  0.3486 -0.1859
  162MOL0     C21272   7.359   5.479  10.109 -0.1842 -0.1858  1.0866
  162MOL0     C21273   7.264   5.491   9.979  0.2674  0.5284 -0.2426
  162MOL0     C21274   7.150   5.588  10.000 -1.2301 -0.4659 -0.9551
  162MOL0     C21275   7.034   5.563   9.916  0.8368  0.3534  0.1966
  162MOL0     O21276   6.932   5.668   9.934  0.0831  0.7514  0.0472
  162MOL0     C21277   6.811   5.643   9.878 -0.4462  0.1776 -0.4107
  162MOL0     C21278   6.712   5.738   9.892  0.4094  0.0851 -0.2585
  162MOL0     C21279   6.594   5.734   9.823  0.6161 -0.0662 -0.3670
  162MOL0     C21280   6.561   5.635   9.726  0.8413 -0.5129 -0.6740
  162MOL0     C21281   6.438   5.617   9.660  0.1393 -0.3181  0.1532
  162MOL0     O21282   6.353   5.722   9.666 -0.1845  0.1371 -0.3305
  162MOL0     C21283   6.221   5.716   9.620 -0.7694  0.2691  0.3035
  162MOL0     C21284   6.179   5.815   9.537  0.9426 -0.5697  0.1866
  162MOL0     C21285   6.046   5.821   9.489  0.0847 -0.2212 -0.2659
  162MOL0     C21286   5.960   5.715   9.511  0.0383 -0.1922 -0.1906
  162MOL0     O21287   5.824   5.701   9.467 -0.3547 -0.5154  0.2244
  162MOL0     C21288   5.757   5.826   9.454 -0.0269  1.0259  0.2170
  162MOL0     C21289   5.778   5.888   9.304  0.1999  0.1686 -0.6342
  162MOL0     C21290   5.684   5.817   9.206  0.3919 -0.1099  0.3771
  162MOL0     C21291   5.531   5.830   9.224 -1.2742  0.4835  0.2170
  162MOL0     C21292   5.465   5.692   9.191  0.1226 -0.5102  0.0359
  162MOL0     C21293   5.312   5.694   9.212  0.0326 -0.0313  0.3408
  162MOL0     C21294   5.246   5.557   9.198  0.6739 -0.0253  0.1351
  162MOL0     C21295   5.100   5.564   9.235  0.0619 -0.0800 -0.0487
  162MOL0    Cl21296   4.998   5.657   9.119  0.0957  0.2568  0.0761
  162MOL0     C21297   6.004   5.606   9.592  0.2253  0.2603 -0.2203
  162MOL0     C21298   6.131   5.607   9.654  0.9949 -0.5563  0.6034
  162MOL0     O21299   6.407   5.512   9.606 -0.3159  0.8040  0.1182
  162MOL0     C21300   6.667   5.549   9.707  0.7550  1.0046 -0.2183
  162MOL0     C21301   6.782   5.548   9.776 -0.6408 -0.0711 -0.6386
  162MOL0     N21302   7.477   5.686  10.035 -0.1322  0.4268  0.0381
  162MOL0     N21303   7.593   5.745  10.066  0.1735 -0.4071 -0.2448
  162MOL0     C21304   8.853   5.336  10.215 -0.4079 -0.8077 -0.2433
  162MOL0     C21305   8.990   5.298  10.230 -0.3246 -0.1985  1.3086
  162MOL0     C21306   9.448   5.358  10.191 -0.1406  0.1816 -0.2303
  162MOL0     C21307   9.483   5.248  10.105  0.2275 -0.2956  0.3510
  162MOL0     C21308   9.615   5.213  10.089  1.0251  0.3249 -0.2367
  162MOL0     C21309   9.722   5.289  10.145  0.3408 -0.1157  0.5344
  162MOL0     O21310   9.855   5.251  10.153 -0.1503  0.9109 -0.1965
  162MOL0     C21311   9.893   5.134  10.074  0.1174 -0.1489  0.2196
  162MOL0     C21312  10.036   5.143  10.030 -0.1609 -0.3158  0.0403
  162MOL0     C21313  10.127   5.157  10.144 -0.0113 -0.3033  0.9405
  162MOL0     C21314  10.268   5.158  10.090  0.1232 -0.4005 -0.5766
  162MOL0     C21315  10.382   5.159  10.195  0.8017  0.4899 -0.2246
  162MOL0     C21316  10.477   5.145  10.271 -0.3694  0.1364 -0.1613
  162MOL0     C21317   9.684   5.395  10.230 -0.1718  0.9082 -0.2648
  162MOL0     C21318   9.550   5.438  10.251 -0.6613  0.5880 -0.9326
  162MOL0     H21319   9.124   5.504   9.990  1.3847 -1.5155  0.0974
  162MOL0     H21320   8.895   5.560   9.959  1.6103 -0.3074 -0.3844
  162MOL0     H21321   8.632   5.641  10.023  1.1218 -3.8495 -2.9497
  162MOL0     H21322   8.739   5.654  10.165  0.6973  1.4322 -4.4897
  162MOL0     H21323   8.510   5.719  10.227  0.5982  0.2755 -1.4579
  162MOL0     H21324   8.563   5.572  10.311  0.2284 -0.4644 -0.0071
  162MOL0     H21325   8.420   5.441  10.195  2.6809  0.0978  3.9223
  162MOL0     H21326   8.410   5.545  10.057 -0.4811  3.4191 -0.3002
  162MOL0     H21327   8.277   5.580  10.337 -0.4086  0.5073 -0.4487
  162MOL0     H21328   8.302   5.711  10.232  1.7044 -0.0842  3.0135
  162MOL0     H21329   8.132   5.448  10.193 -0.2302  0.3765 -0.1745
  162MOL0     H21330   8.185   5.545  10.056 -1.3186  1.3772 -0.7858
  162MOL0     H21331   8.062   5.742  10.142 -0.6172  0.0347 -1.2281
  162MOL0     H21332   8.048   5.662  10.301  2.5624 -1.3448  0.0784
  162MOL0     H21333   7.884   5.560  10.053  1.0330  0.6121 -0.4524
  162MOL0     H21334   7.885   5.506  10.223  0.7935 -0.1621  0.1700
  162MOL0     H21335   7.834   5.788  10.142  3.0847 -0.4916  1.0303
  162MOL0     H21336   7.801   5.700  10.306 -0.1283 -2.5651  0.1879
  162MOL0     H21337   7.599   5.478  10.240 -0.2814  0.0042  0.3205
  162MOL0     H21338   7.307   5.502  10.202  3.4302  2.7875  2.6386
  162MOL0     H21339   7.411   5.383  10.110 -0.0046 -0.2697 -2.3589
  162MOL0     H21340   7.221   5.391   9.972  2.5224 -0.6090  0.8162
  162MOL0     H21341   7.323   5.520   9.892  0.0430  0.9443 -0.2555
  162MOL0     H21342   7.134   5.600  10.108  1.8651  2.9222 -0.7013
  162MOL0     H21343   7.194   5.683   9.968 -0.4807 -0.2885  0.5104
  162MOL0     H21344   6.987   5.468   9.942  1.1835  0.8593  3.0953
  162MOL0     H21345   7.061   5.562   9.811  0.7042 -0.9156  0.1590
  162MOL0     H21346   6.740   5.818   9.960  0.5954  0.6723 -1.0164
  162MOL0     H21347   6.524   5.815   9.844 -0.4502 -1.8776  4.2862
  162MOL0     H21348   6.248   5.896   9.515  2.1684 -1.6353 -0.0002
  162MOL0     H21349   6.023   5.900   9.418  3.3702 -0.7869 -2.1984
  162MOL0     H21350   5.797   5.891   9.533 -2.2415 -1.2643  3.5041
  162MOL0     H21351   5.650   5.814   9.476 -0.1617  2.2468  0.3276
  162MOL0     H21352   5.878   5.869   9.265 -0.4188 -0.8536 -1.7713
  162MOL0     H21353   5.754   5.995   9.305  0.6245  0.3093  1.9665
  162MOL0     H21354   5.709   5.710   9.212 -1.4951 -0.4948  2.9945
  162MOL0     H21355   5.694   5.855   9.104  0.8576  1.7635  1.0979
  162MOL0     H21356   5.512   5.855   9.329 -2.3835  1.4961 -0.2076
  162MOL0     H21357   5.486   5.913   9.168  0.0534  0.0518 -1.5902
  162MOL0     H21358   5.515   5.625   9.261  0.5313  1.8288  2.1550
  162MOL0     H21359   5.478   5.662   9.086 -1.7788  0.7772 -0.6279
  162MOL0     H21360   5.267   5.760   9.138 -0.6487 -2.7672 -1.8720
  162MOL0     H21361   5.289   5.734   9.312  3.2060  1.2233  0.6831
  162MOL0     H21362   5.261   5.519   9.096  0.4558  2.0300 -0.7127
  162MOL0     H21363   5.304   5.487   9.259  1.6249 -1.4004 -2.2086
  162MOL0     H21364   5.089   5.598   9.339 -2.0176 -1.1203  0.1030
  162MOL0     H21365   5.058   5.464   9.236  3.5723 -1.7155 -0.5904
  162MOL0     H21366   5.935   5.522   9.589  0.5769 -0.0496 -3.0400
  162MOL0     H21367   6.170   5.517   9.701 -1.1645 -1.0396  1.5932
  162MOL0     H21368   6.668   5.472   9.630 -0.7743  1.5275 -0.7838
  162MOL0     H21369   6.848   5.467   9.744  2.4857  1.6896  0.8447
  162MOL0     H21370   8.775   5.316  10.287  0.9568 -0.4673  1.3964
  162MOL0     H21371   9.028   5.225  10.301 -0.1152 -1.1475  0.2489
  162MOL0     H21372   9.402   5.192  10.061 -0.4461  1.2930 -0.5337
  162MOL0     H21373   9.625   5.127  10.023 -1.4151 -0.3670  0.2070
  162MOL0     H21374   9.826   5.124   9.988 -0.2332  1.4248  0.2924
  162MOL0     H21375   9.866   5.052  10.141 -1.2005 -0.8365 -1.1048
  162MOL0     H21376  10.059   5.055   9.970 -0.2575  0.0884 -0.5955
  162MOL0     H21377  10.039   5.230   9.963 -2.2496 -0.9145 -0.9219
  162MOL0     H21378  10.104   5.074  10.212  1.4707 -0.8677  0.7882
  162MOL0     H21379  10.111   5.248  10.202  0.6720 -0.4332  1.3447
  162MOL0     H21380  10.278   5.071  10.025 -1.8144 -0.0388 -1.4119
  162MOL0     H21381  10.271   5.245  10.023 -0.7808  0.2871  0.2424
  162MOL0     H21382  10.563   5.125  10.331 -1.0715  1.5491  1.3820
  162MOL0     H21383   9.760   5.457  10.276 -0.8327  0.9659  0.7634
  162MOL0     H21384   9.525   5.529  10.304  1.2600  1.2616 -1.1033
  163MOL0     O21385   7.832  11.144   9.758  0.3077  0.2216  0.1904
  163MOL0     C21386   7.820  11.136   9.635  0.5530  0.4105 -1.2921
  163MOL0     O21387   7.697  11.136   9.563  0.1140  0.7688 -0.0950
  163MOL0     C21388   7.577  11.130   9.630  0.2495 -0.2038  0.2780
  163MOL0     C21389   7.466  11.193   9.568  0.3465  0.0501 -0.6883
  163MOL0     C21390   7.341  11.175   9.628  0.0588  0.2158 -0.1626
  163MOL0     C21391   7.323  11.097   9.746 -0.2462 -0.5019 -0.0269
  163MOL0     O21392   7.208  11.076   9.815 -0.4180 -0.5941 -0.3654
  163MOL0     C21393   7.084  11.137   9.781  0.4555 -0.1997  0.3014
  163MOL0     C21394   6.986  11.029   9.716 -0.3436  0.4896 -1.0910
  163MOL0     C21395   6.848  11.091   9.707 -1.4647 -0.0845  0.7038
  163MOL0     C21396   6.739  10.995   9.660 -0.4480 -0.4919  0.1364
  163MOL0     C21397   6.599  11.060   9.672  0.6653  0.4657 -0.3070
  163MOL0     C21398   6.574  11.186   9.586  0.6336 -0.0240 -0.8097
  163MOL0     C21399   6.443  11.260   9.627 -0.3676  0.0816  1.2601
  163MOL0     C21400   6.332  11.167   9.582  0.2818 -0.9755  0.3225
  163MOL0     N21401   6.213  11.244   9.529 -0.2203  0.1301 -0.5549
  163MOL0     C21402   6.125  11.316   9.592  0.6667  0.0781 -0.2916
  163MOL0     C21403   6.047  11.371   9.498 -0.8003 -0.6729  0.6871
  163MOL0     C21404   5.927  11.465   9.528  0.1824 -0.4877 -0.8175
  163MOL0     C21405   5.795  11.386   9.541  0.4929  0.1772 -0.7588
  163MOL0     C21406   5.692  11.461   9.616  0.1441 -0.5612  0.1227
  163MOL0     C21407   5.557  11.390   9.620  0.7587  0.9783 -1.3216
  163MOL0     O21408   5.506  11.374   9.489 -0.2966 -0.4435  0.3085
  163MOL0     C21409   5.376  11.345   9.485 -0.1195 -0.6017 -0.3017
  163MOL0     C21410   5.279  11.435   9.439  0.6849 -0.5110 -0.1131
  163MOL0     C21411   5.145  11.400   9.443  0.1330  0.7461  0.2102
  163MOL0     C21412   5.098  11.278   9.496  0.0880  0.2518  0.2834
  163MOL0     C21413   4.954  11.254   9.497 -0.0273 -0.0735  0.0577
  163MOL0     O21414   4.866  11.361   9.496 -0.3775  0.3644  0.7952
  163MOL0     C21415   4.738  11.351   9.551 -0.2287 -0.0933  0.3781
  163MOL0     C21416   4.721  11.360   9.688  0.4234 -0.3629  0.7354
  163MOL0     C21417   4.598  11.357   9.748 -0.4954  0.0378 -1.3062
  163MOL0     C21418   4.486  11.340   9.666 -0.4899  0.2381  1.0073
  163MOL0     O21419   4.353  11.344   9.705  0.1117  0.7463  0.1765
  163MOL0     C21420   4.314  11.387   9.838  0.3685 -0.5727  0.4647
  163MOL0     C21421   4.208  11.298   9.892 -0.1298  0.0699  0.0227
  163MOL0     C21422   4.071  11.338   9.842 -0.3171 -0.2186  0.3786
  163MOL0     C21423   3.955  11.277   9.919  0.0252 -1.2345  0.2884
  163MOL0     C21424   3.824  11.320   9.850 -0.0177  0.0390 -0.4677
  163MOL0     C21425   3.706  11.235   9.894  0.3163 -0.5632  1.2555
  163MOL0     C21426   3.583  11.273   9.817 -0.5255  0.4542 -0.3877
  163MOL0     C21427   3.454  11.217   9.888 -0.0608  0.4124  0.0832
  163MOL0    Cl21428   3.303  11.293   9.813 -0.3981  1.0201 -0.3907
  163MOL0     C21429   4.509  11.316   9.534  0.0329 -0.9375 -0.5395
  163MOL0     C21430   4.629  11.337   9.469 -0.7120  0.4274  0.3323
  163MOL0     O21431   4.921  11.131   9.494  0.9649 -0.6839  0.2199
  163MOL0     C21432   5.198  11.181   9.532  0.3744 -0.7274  0.9593
  163MOL0     C21433   5.335  11.219   9.527 -0.2160  0.5956  0.0173
  163MOL0     N21434   6.083  11.324   9.372 -0.1783  0.8158  1.0664
  163MOL0     N21435   6.178  11.239   9.401  0.3021  0.3409 -0.3675
  163MOL0     C21436   7.432  11.033   9.799 -0.6497  0.7913  0.5353
  163MOL0     C21437   7.562  11.051   9.745  1.0502  0.3633  0.0857
  163MOL0     C21438   7.948  11.142   9.561 -0.0745 -0.9610 -0.2840
  163MOL0     C21439   7.946  11.155   9.423  0.0382  0.4700  0.4096
  163MOL0     C21440   8.064  11.186   9.346 -0.4544 -0.2255 -0.8778
  163MOL0     C21441   8.181  11.226   9.413  0.3111  0.5129 -0.7750
  163MOL0     O21442   8.293  11.261   9.342  0.0652  0.1005 -0.1381
  163MOL0     C21443   8.409  11.306   9.415  0.7320 -0.4907 -0.5040
  163MOL0     C21444   8.509  11.346   9.309 -0.0324 -0.8456  0.3136
  163MOL0     C21445   8.590  11.233   9.254  0.5119  0.1301  0.2725
  163MOL0     C21446   8.637  11.245   9.114 -0.2158 -0.4558  0.2046
  163MOL0     C21447   8.723  11.135   9.073  0.1052  0.9241  0.7037
  163MOL0     C21448   8.802  11.042   9.049  0.0890 -0.6438  0.0445
  163MOL0     C21449   8.189  11.207   9.558 -0.3831  0.1718  0.4467
  163MOL0     C21450   8.073  11.166   9.622 -0.1050  0.2065 -0.0692
  163MOL0     H21451   7.486  11.248   9.477  2.5052  0.0139 -0.2719
  163MOL0     H21452   7.254  11.211   9.575  0.2496 -0.0273 -0.6503
  163MOL0     H21453   7.103  11.223   9.716  1.1045 -1.4643 -1.2371
  163MOL0     H21454   7.041  11.170   9.876 -0.4123 -1.6376  0.4337
  163MOL0     H21455   6.981  10.938   9.777  1.6987  0.8509 -0.3084
  163MOL0     H21456   7.031  10.996   9.622  2.3581 -4.4663  1.5036
  163MOL0     H21457   6.852  11.175   9.637  1.0759 -1.9428 -1.6565
  163MOL0     H21458   6.826  11.128   9.807  0.4416 -1.3195  1.6502
  163MOL0     H21459   6.766  10.980   9.555  1.4253 -0.8522  0.6309
  163MOL0     H21460   6.756  10.903   9.718  3.2847  0.4088  0.7094
  163MOL0     H21461   6.573  11.096   9.772 -2.1422 -1.2600 -0.2776
  163MOL0     H21462   6.529  10.978   9.652  2.2273 -0.9734 -0.1272
  163MOL0     H21463   6.580  11.152   9.483 -0.9324 -2.8070 -0.0668
  163MOL0     H21464   6.649  11.262   9.611  2.0342 -1.5261 -0.3065
  163MOL0     H21465   6.436  11.277   9.735 -0.4381 -2.5591  1.7338
  163MOL0     H21466   6.426  11.352   9.571 -0.2225 -0.8484 -0.3554
  163MOL0     H21467   6.303  11.103   9.665 -1.0378 -0.0135  0.6369
  163MOL0     H21468   6.355  11.097   9.501 -2.7372 -1.9846  0.2116
  163MOL0     H21469   6.114  11.343   9.696 -1.4065  0.5545 -0.5816
  163MOL0     H21470   5.919  11.551   9.461  0.3129 -1.7444 -2.4941
  163MOL0     H21471   5.947  11.510   9.626 -2.2986  4.7100 -2.3627
  163MOL0     H21472   5.815  11.291   9.591 -0.5857  1.0700  1.5192
  163MOL0     H21473   5.767  11.365   9.438 -3.0205  4.8339 -1.0956
  163MOL0     H21474   5.725  11.473   9.719  0.4800 -0.9611  0.0650
  163MOL0     H21475   5.681  11.558   9.568 -3.9909 -0.4406  0.9222
  163MOL0     H21476   5.491  11.443   9.689  0.0953 -3.8005  2.2038
  163MOL0     H21477   5.577  11.291   9.662  3.7834  1.4072 -1.5710
  163MOL0     H21478   5.319  11.525   9.393  0.7334 -1.5641 -2.2366
  163MOL0     H21479   5.081  11.483   9.414  1.2878  1.7114  0.3123
  163MOL0     H21480   4.811  11.395   9.737  2.8695 -0.9737 -2.9500
  163MOL0     H21481   4.600  11.367   9.856 -2.5526  0.0475 -1.2173
  163MOL0     H21482   4.278  11.490   9.835  0.3141 -0.6177 -1.1687
  163MOL0     H21483   4.403  11.390   9.901 -0.1285  1.8786  1.1401
  163MOL0     H21484   4.202  11.319   9.999  1.7715 -1.7378  0.5441
  163MOL0     H21485   4.226  11.191   9.885 -0.2935 -0.2395  3.1464
  163MOL0     H21486   4.054  11.307   9.738 -1.2460 -1.1777  0.7869
  163MOL0     H21487   4.047  11.444   9.846  0.3071 -0.0691  0.2029
  163MOL0     H21488   3.963  11.168   9.932  3.1761 -1.0346  0.9886
  163MOL0     H21489   3.965  11.334  10.012  1.6328  0.3448 -0.7917
  163MOL0     H21490   3.844  11.309   9.743  1.8274 -2.0464 -0.0028
  163MOL0     H21491   3.808  11.426   9.873  1.5734  0.2060 -0.0491
  163MOL0     H21492   3.686  11.258   9.999  0.5701 -1.6984  1.5675
  163MOL0     H21493   3.729  11.129   9.877  1.1739 -0.6322  2.6922
  163MOL0     H21494   3.581  11.381   9.797  0.4008  0.8653  1.5753
  163MOL0     H21495   3.577  11.222   9.720  1.0725 -0.9644  0.2049
  163MOL0     H21496   3.462  11.232   9.996  0.4703  0.4831  0.0402
  163MOL0     H21497   3.461  11.109   9.873 -2.4359  0.0971  0.8316
  163MOL0     H21498   4.420  11.310   9.473  0.7795 -1.0285 -1.6649
  163MOL0     H21499   4.634  11.342   9.361  0.9889  0.5240  0.3962
  163MOL0     H21500   5.164  11.084   9.567  0.7751 -0.0267  3.4615
  163MOL0     H21501   5.400  11.141   9.566 -2.4715 -1.5524 -0.2335
  163MOL0     H21502   7.434  10.984   9.895 -1.3142 -2.6729 -1.0714
  163MOL0     H21503   7.633  11.000   9.809  0.3448  1.8316  2.1392
  163MOL0     H21504   7.854  11.136   9.368  1.7382  0.9540 -2.8462
  163MOL0     H21505   8.060  11.200   9.239  1.9373  0.2855 -0.9631
  163MOL0     H21506   8.451  11.236   9.488  2.6297  3.2414  2.3255
  163MOL0     H21507   8.388  11.395   9.475  1.0690 -0.4220 -0.4820
  163MOL0     H21508   8.458  11.399   9.228  2.5051 -0.4512 -1.1406
  163MOL0     H21509   8.583  11.420   9.342 -0.1297 -0.4893 -0.2470
  163MOL0     H21510   8.524  11.145   9.260  1.4172 -0.5608  0.3256
  163MOL0     H21511   8.669  11.211   9.326  0.7519 -1.9039 -0.5336
  163MOL0     H21512   8.553  11.250   9.045  0.7603 -2.6476 -1.2845
  163MOL0     H21513   8.698  11.334   9.100  0.3025 -1.1552 -2.4720
  163MOL0     H21514   8.854  10.949   9.039 -0.7740 -0.9955 -1.4804
  163MOL0     H21515   8.278  11.227   9.616  0.6735 -0.1428 -1.0185
  163MOL0     H21516   8.078  11.152   9.730  0.0829 -0.5534 -0.1714
  164MOL0     O21517   7.175   7.760   1.463 -0.1823  0.1583 -0.0241
  164MOL0     C21518   7.156   7.765   1.337 -0.1724  0.8536 -0.0952
  164MOL0     O21519   7.039   7.756   1.271 -0.0134 -0.1100  0.1907
  164MOL0     C21520   6.922   7.744   1.342 -0.3275  0.3636 -0.3648
  164MOL0     C21521   6.833   7.845   1.306 -0.3929 -0.0586  1.0592
  164MOL0     C21522   6.712   7.848   1.368 -0.1710 -1.1035  0.0130
  164MOL0     C21523   6.674   7.739   1.451  0.5726  0.5296 -0.1405
  164MOL0     O21524   6.562   7.735   1.529 -0.2446 -0.0912 -0.5943
  164MOL0     C21525   6.469   7.844   1.520  0.1132 -0.9190 -0.2506
  164MOL0     C21526   6.361   7.828   1.630  0.2212  0.2476  0.1830
  164MOL0     C21527   6.262   7.710   1.619 -0.3694  0.0202  0.6347
  164MOL0     C21528   6.200   7.669   1.745 -0.8294  0.1912 -0.6161
  164MOL0     C21529   6.111   7.544   1.736  0.2605 -0.8059 -0.6747
  164MOL0     C21530   6.002   7.523   1.843 -0.5425 -0.4878  0.8948
  164MOL0     C21531   5.899   7.423   1.798 -0.0953 -0.0013  0.4884
  164MOL0     C21532   5.942   7.289   1.729  0.1278  0.3272  0.3188
  164MOL0     N21533   5.819   7.200   1.699  0.2641  0.1641  0.1966
  164MOL0     C21534   5.735   7.217   1.595 -0.5994  0.3075  0.6741
  164MOL0     C21535   5.638   7.129   1.616 -0.2317  0.1994 -0.9893
  164MOL0     C21536   5.501   7.117   1.535 -0.4555  0.0247  0.1260
  164MOL0     C21537   5.517   7.044   1.397  1.4515  0.5733  0.7323
  164MOL0     C21538   5.548   6.894   1.397  0.2543  0.9071 -0.8888
  164MOL0     C21539   5.422   6.808   1.386  0.5910 -0.3941 -0.3266
  164MOL0     O21540   5.345   6.836   1.507 -0.1819 -0.6727 -0.3575
  164MOL0     C21541   5.211   6.813   1.495 -0.2436  1.3935  0.4729
  164MOL0     C21542   5.137   6.862   1.605  1.2152  0.7801 -0.1792
  164MOL0     C21543   5.003   6.834   1.620  0.5470 -0.0685  0.3702
  164MOL0     C21544   4.934   6.770   1.508 -0.5069 -0.4744 -0.6959
  164MOL0     C21545   4.793   6.748   1.522 -0.1664  0.6946  0.1075
  164MOL0     O21546   4.724   6.729   1.411 -0.4013  0.7771  0.0424
  164MOL0     C21547   4.587   6.741   1.404 -0.0522 -0.8054 -0.4635
  164MOL0     C21548   4.528   6.663   1.303  0.1348  0.0003  0.5065
  164MOL0     C21549   4.391   6.672   1.293  0.3855  0.1962  0.3348
  164MOL0     C21550   4.309   6.763   1.362 -0.1553  0.4331  0.0759
  164MOL0     O21551   4.179   6.769   1.322 -0.0788 -0.7780 -0.0145
  164MOL0     C21552   4.090   6.701   1.411  0.4636  0.0356  0.8662
  164MOL0     C21553   3.962   6.656   1.347 -0.2865  0.8035  0.0861
  164MOL0     C21554   3.873   6.766   1.320  0.6795 -0.8581 -0.2562
  164MOL0     C21555   3.733   6.729   1.263  0.6779  0.4281 -0.4085
  164MOL0     C21556   3.647   6.851   1.224 -0.0569 -0.3911 -0.7562
  164MOL0     C21557   3.501   6.829   1.258 -0.3531 -0.0862 -0.4504
  164MOL0     C21558   3.415   6.959   1.217  1.1372  1.4680  0.6141
  164MOL0     C21559   3.369   6.966   1.073  0.0285 -0.3906  0.0859
  164MOL0    Cl21560   3.268   6.822   1.034  0.2657  0.0744 -0.1185
  164MOL0     C21561   4.371   6.848   1.451  0.2116  0.3503 -0.1385
  164MOL0     C21562   4.509   6.843   1.469 -0.7013  0.3263  0.4035
  164MOL0     O21563   4.742   6.746   1.638 -0.2428 -0.7813 -0.0264
  164MOL0     C21564   5.002   6.725   1.390  0.2045 -0.6673 -0.2961
  164MOL0     C21565   5.140   6.750   1.389  0.2396  0.0412  0.7494
  164MOL0     N21566   5.659   7.056   1.734  0.1749  0.6895 -0.9449
  164MOL0     N21567   5.773   7.091   1.776 -0.3627 -0.2828 -0.9092
  164MOL0     C21568   6.766   7.640   1.480 -0.7022 -0.1618 -0.7790
  164MOL0     C21569   6.892   7.646   1.425 -0.9720  0.4955 -0.0401
  164MOL0     C21570   7.276   7.777   1.254  0.1726  0.3692 -0.0658
  164MOL0     C21571   7.262   7.828   1.126  0.1741  0.6613  0.4801
  164MOL0     C21572   7.381   7.834   1.044  1.2140  1.2636  0.9094
  164MOL0     C21573   7.505   7.781   1.089  0.3500  0.0069 -0.0133
  164MOL0     O21574   7.613   7.790   1.004  0.4938 -0.3244 -0.0558
  164MOL0     C21575   7.739   7.747   1.051 -0.1230 -0.7307  0.6188
  164MOL0     C21576   7.833   7.799   0.941  0.2856  0.0685 -1.5067
  164MOL0     C21577   7.984   7.776   0.967  0.6773  0.0996 -0.3848
  164MOL0     C21578   8.018   7.633   0.977  0.5941 -0.4842 -0.4651
  164MOL0     C21579   8.166   7.616   0.978  0.4139 -0.0214  0.2869
  164MOL0     C21580   8.279   7.610   0.993  0.1187  0.1060 -0.4323
  164MOL0     C21581   7.515   7.721   1.227 -0.1119 -0.2955 -0.2364
  164MOL0     C21582   7.401   7.722   1.305 -0.7720 -0.1095 -1.0416
  164MOL0     H21583   6.864   7.912   1.226 -1.2364 -0.6439  0.2311
  164MOL0     H21584   6.645   7.932   1.351  1.0636  0.4516  2.2661
  164MOL0     H21585   6.422   7.864   1.423 -1.8525  2.4205  1.2175
  164MOL0     H21586   6.516   7.940   1.541 -1.1204  0.4294 -3.1119
  164MOL0     H21587   6.298   7.918   1.636  2.0027  1.5793 -0.1359
  164MOL0     H21588   6.422   7.818   1.720  3.7969  1.1342 -1.9371
  164MOL0     H21589   6.314   7.623   1.578 -1.5124  1.4457 -4.6706
  164MOL0     H21590   6.187   7.728   1.542  1.5746  3.3570 -0.6723
  164MOL0     H21591   6.280   7.659   1.820  0.4790 -0.6826 -2.0663
  164MOL0     H21592   6.129   7.748   1.772 -1.7564 -1.1129  1.0208
  164MOL0     H21593   6.166   7.449   1.745 -1.3992 -1.8482 -1.1437
  164MOL0     H21594   6.068   7.546   1.636 -0.5176  2.5819 -0.3890
  164MOL0     H21595   5.955   7.621   1.855  4.2106  2.2075 -0.2275
  164MOL0     H21596   6.040   7.487   1.939 -3.1767 -2.2112  1.4001
  164MOL0     H21597   5.854   7.397   1.894  1.2560 -0.2748  1.0746
  164MOL0     H21598   5.828   7.476   1.734  0.2944  0.7262  0.6381
  164MOL0     H21599   6.002   7.221   1.792  0.4762  0.0315 -0.3270
  164MOL0     H21600   5.996   7.316   1.638 -1.4496  0.4094 -0.6391
  164MOL0     H21601   5.756   7.294   1.521 -0.8549 -0.1828  0.0823
  164MOL0     H21602   5.462   7.219   1.525  2.6520  1.1822 -1.6531
  164MOL0     H21603   5.429   7.061   1.595 -0.8290 -0.5940 -0.8711
  164MOL0     H21604   5.595   7.100   1.344 -0.5139  1.5370 -1.2868
  164MOL0     H21605   5.422   7.053   1.344  1.7431 -0.8114 -0.0737
  164MOL0     H21606   5.602   6.865   1.306  0.1666  0.5599 -0.8322
  164MOL0     H21607   5.608   6.858   1.481 -0.5501  0.8333 -0.3417
  164MOL0     H21608   5.438   6.701   1.374 -0.8228 -0.3371 -4.0858
  164MOL0     H21609   5.381   6.836   1.288  0.6131  0.7720 -0.0185
  164MOL0     H21610   5.193   6.900   1.690  0.9293  0.2890  0.2393
  164MOL0     H21611   4.952   6.862   1.711 -2.4188 -0.6861 -0.9843
  164MOL0     H21612   4.577   6.593   1.235  0.2184  0.3608  0.1926
  164MOL0     H21613   4.339   6.625   1.210  0.7184  0.6957 -0.1612
  164MOL0     H21614   4.071   6.763   1.500 -1.1526 -0.5178  0.9239
  164MOL0     H21615   4.138   6.607   1.438  0.2739 -0.6008 -0.9069
  164MOL0     H21616   3.918   6.582   1.414 -1.0592  0.0814 -1.1821
  164MOL0     H21617   3.982   6.609   1.250 -2.5897  1.0303 -0.5612
  164MOL0     H21618   3.920   6.818   1.236 -0.5832 -1.4192 -1.3643
  164MOL0     H21619   3.860   6.827   1.410 -0.4352  0.8593 -1.4992
  164MOL0     H21620   3.738   6.662   1.177  0.3821 -1.0950  0.7063
  164MOL0     H21621   3.679   6.670   1.338  1.6785 -0.6755 -0.5215
  164MOL0     H21622   3.666   6.877   1.120 -1.4422  2.6105 -0.3537
  164MOL0     H21623   3.684   6.930   1.290  1.9206  0.0072 -2.2504
  164MOL0     H21624   3.486   6.808   1.364  1.0552  2.2919  0.3141
  164MOL0     H21625   3.473   6.737   1.206 -0.4218 -0.1526 -0.2948
  164MOL0     H21626   3.321   6.953   1.272  1.3279  0.3354  0.8468
  164MOL0     H21627   3.460   7.053   1.250  0.2100  2.3420 -0.4856
  164MOL0     H21628   3.457   6.966   1.009  0.1890 -2.3761  0.2465
  164MOL0     H21629   3.308   7.056   1.059 -0.4474 -0.8322 -0.7548
  164MOL0     H21630   4.311   6.918   1.508  1.1286 -0.0112  1.3316
  164MOL0     H21631   4.555   6.897   1.551  0.4114 -0.7390  0.5195
  164MOL0     H21632   4.951   6.686   1.302  2.0667 -0.0658 -1.7192
  164MOL0     H21633   5.187   6.730   1.293 -3.1815  0.2674 -1.1338
  164MOL0     H21634   6.744   7.565   1.556 -2.9382  0.6336 -0.5546
  164MOL0     H21635   6.963   7.572   1.460 -0.4013  1.5632  1.1287
  164MOL0     H21636   7.165   7.838   1.078  0.5586  2.3964  0.0062
  164MOL0     H21637   7.371   7.874   0.944 -0.1442 -0.0687  0.4827
  164MOL0     H21638   7.743   7.637   1.055  1.8027 -0.6864  0.7120
  164MOL0     H21639   7.758   7.802   1.143 -0.6783  0.2673  0.1482
  164MOL0     H21640   7.810   7.751   0.846  2.3053  1.0140 -2.5411
  164MOL0     H21641   7.817   7.907   0.928  1.3101  0.1488 -2.2942
  164MOL0     H21642   8.011   7.834   1.055  1.3664  1.7078 -1.5984
  164MOL0     H21643   8.036   7.824   0.884 -3.5262 -0.8273 -3.9417
  164MOL0     H21644   7.967   7.588   1.063 -1.3325 -0.9080 -1.7592
  164MOL0     H21645   7.972   7.600   0.884 -2.0620  0.2828  0.4742
  164MOL0     H21646   8.383   7.588   1.008  0.9070  1.2093 -3.4321
  164MOL0     H21647   7.615   7.692   1.259  0.5952  1.0827 -1.1049
  164MOL0     H21648   7.412   7.679   1.404  1.2065  0.5405 -0.9307
  165MOL0     O21649   7.667   7.145  10.473 -0.0410  0.2760  0.4961
  165MOL0     C21650   7.742   7.088  10.397 -0.4944 -0.0069  0.9924
  165MOL0     O21651   7.713   6.981  10.320 -0.2029 -0.2764 -0.2023
  165MOL0     C21652   7.587   6.943  10.318 -0.0137 -0.6453  0.1055
  165MOL0     C21653   7.514   6.885  10.423 -0.6023 -0.6942 -0.2845
  165MOL0     C21654   7.375   6.855  10.413  0.8642 -0.5802  0.2832
  165MOL0     C21655   7.303   6.876  10.293  0.0040 -0.3480 -0.3094
  165MOL0     O21656   7.175   6.826  10.271 -0.0641 -0.6374  0.2259
  165MOL0     C21657   7.097   6.816  10.393 -0.8457  0.9791  0.3531
  165MOL0     C21658   6.950   6.795  10.347 -0.0910  0.0955  0.4350
  165MOL0     C21659   6.855   6.803  10.468  0.3522  0.1388  0.0093
  165MOL0     C21660   6.720   6.747  10.418 -0.5446  0.2406 -0.4849
  165MOL0     C21661   6.616   6.741  10.533 -0.4983  0.8186 -0.3614
  165MOL0     C21662   6.480   6.690  10.481 -1.4407 -0.0308 -0.6276
  165MOL0     C21663   6.381   6.682  10.603 -0.3488 -0.0736 -0.1950
  165MOL0     C21664   6.272   6.589  10.562 -0.6062  0.6277  0.1413
  165MOL0     N21665   6.166   6.560  10.662  0.0066 -0.1339  0.5756
  165MOL0     C21666   6.091   6.444  10.666 -0.0467  0.0103 -0.2675
  165MOL0     C21667   6.021   6.442  10.775  0.4025  0.1441 -0.8646
  165MOL0     C21668   5.933   6.323  10.825 -0.1274 -0.4358 -0.4541
  165MOL0     C21669   5.791   6.352  10.799 -0.3676 -0.3620  0.3681
  165MOL0     C21670   5.755   6.289  10.663 -0.6438 -0.3370  0.0762
  165MOL0     C21671   5.622   6.342  10.612 -0.2215 -0.5157  0.4794
  165MOL0     O21672   5.629   6.478  10.569 -0.0019 -0.6639 -0.3343
  165MOL0     C21673   5.516   6.543  10.547  0.9580 -0.7899  0.4488
  165MOL0     C21674   5.516   6.685  10.565 -0.6217 -0.2327 -0.1540
  165MOL0     C21675   5.400   6.759  10.554  0.1169  0.2863  0.7133
  165MOL0     C21676   5.280   6.702  10.513  0.2903  1.9906 -0.5321
  165MOL0     C21677   5.156   6.775  10.500  0.2593 -0.4004  0.2315
  165MOL0     O21678   5.046   6.699  10.447  0.0633  0.3687 -0.2159
  165MOL0     C21679   4.926   6.757  10.411 -0.5910 -0.5885 -0.0058
  165MOL0     C21680   4.905   6.898  10.384  1.2999 -0.4166  0.6365
  165MOL0     C21681   4.787   6.952  10.327  0.3345  0.2775 -0.1035
  165MOL0     C21682   4.686   6.858  10.294  0.2081  0.0627 -0.4850
  165MOL0     O21683   4.569   6.882  10.225  0.4214  0.0730  0.1800
  165MOL0     C21684   4.551   7.012  10.177 -0.1384  0.0850 -0.0663
  165MOL0     C21685   4.415   7.018  10.107  1.1193  0.5205 -0.0110
  165MOL0     C21686   4.295   7.006  10.204 -0.0270 -0.7357  0.6942
  165MOL0     C21687   4.162   7.008  10.132  0.4836  0.4568 -0.2066
  165MOL0     C21688   4.050   6.989  10.235 -0.5846  0.0656  0.3441
  165MOL0     C21689   4.045   6.864  10.323 -0.0668  1.0227  0.2726
  165MOL0     C21690   4.023   6.728  10.251 -0.1434  0.2912 -0.5904
  165MOL0     C21691   3.903   6.730  10.160  1.6284  0.0939 -0.5500
  165MOL0    Cl21692   3.874   6.563  10.107  0.0652  0.3759  0.1147
  165MOL0     C21693   4.706   6.721  10.320 -0.5321  0.1655  0.1991
  165MOL0     C21694   4.823   6.673  10.369 -0.6864 -0.5056 -0.1943
  165MOL0     O21695   5.152   6.890  10.538  1.1303 -0.2271  0.6862
  165MOL0     C21696   5.278   6.557  10.513  0.4535  0.0274 -0.2186
  165MOL0     C21697   5.394   6.482  10.523  0.0899  0.6198 -0.5518
  165MOL0     N21698   6.052   6.556  10.846  0.7668  0.1794 -0.0697
  165MOL0     N21699   6.140   6.627  10.779  0.9133  0.3820  0.4684
  165MOL0     C21700   7.377   6.930  10.189 -0.6319  0.2456 -0.5582
  165MOL0     C21701   7.516   6.966  10.201 -0.0225 -0.3152 -0.3728
  165MOL0     C21702   7.885   7.140  10.389  0.3447  0.1315 -0.1656
  165MOL0     C21703   7.979   7.065  10.318 -0.4154 -0.3857 -1.1741
  165MOL0     C21704   8.110   7.107  10.303  0.3502 -0.4139 -0.5873
  165MOL0     C21705   8.149   7.232  10.358 -0.6924  0.2431  0.2910
  165MOL0     O21706   8.279   7.289  10.364 -0.6438  0.3318  0.0052
  165MOL0     C21707   8.396   7.220  10.310  0.4290  0.2780  0.0600
  165MOL0     C21708   8.523   7.292  10.345  0.2350  0.2526  0.0766
  165MOL0     C21709   8.532   7.307  10.498 -0.1045  0.7235  0.1028
  165MOL0     C21710   8.665   7.380  10.531 -0.1864 -0.0935 -0.4330
  165MOL0     C21711   8.785   7.293  10.548  0.1341  0.5362  0.2719
  165MOL0     C21712   8.880   7.222  10.551 -0.5837 -0.5041 -0.6728
  165MOL0     C21713   8.054   7.302  10.433  0.3047  0.4552 -0.3115
  165MOL0     C21714   7.921   7.260  10.445 -0.0661 -0.4169  0.3152
  165MOL0     H21715   7.571   6.866  10.513  2.5788 -0.4410 -2.0816
  165MOL0     H21716   7.328   6.805  10.498 -1.0359 -0.6894 -0.7673
  165MOL0     H21717   7.110   6.910  10.449  0.3021  1.2240 -0.2933
  165MOL0     H21718   7.133   6.735  10.456 -0.5030  0.9905  0.1781
  165MOL0     H21719   6.947   6.693  10.308  0.7978 -0.3057  1.3367
  165MOL0     H21720   6.930   6.865  10.266  1.5243  0.6673  0.4789
  165MOL0     H21721   6.854   6.909  10.492  2.7176  0.7255 -2.0034
  165MOL0     H21722   6.899   6.742  10.549  2.1313 -0.5656 -1.4175
  165MOL0     H21723   6.677   6.816  10.344 -1.1426  2.1892  1.5450
  165MOL0     H21724   6.725   6.644  10.381  1.3890  1.0563 -2.7231
  165MOL0     H21725   6.610   6.845  10.567  1.6814  2.2737 -3.8604
  165MOL0     H21726   6.642   6.682  10.621 -0.4490 -0.0288 -0.9323
  165MOL0     H21727   6.503   6.590  10.443 -1.2299 -1.1996  2.3055
  165MOL0     H21728   6.437   6.748  10.399 -0.3049 -0.2938 -1.4296
  165MOL0     H21729   6.430   6.635  10.689  0.6501 -0.1244 -0.7666
  165MOL0     H21730   6.339   6.779  10.630 -0.0655  0.1458 -0.5221
  165MOL0     H21731   6.306   6.488  10.534  0.9109  1.1627 -0.0505
  165MOL0     H21732   6.229   6.633  10.472 -0.2703 -1.9489 -1.4014
  165MOL0     H21733   6.107   6.369  10.589  2.0661 -1.1698  1.1905
  165MOL0     H21734   5.958   6.314  10.931 -3.5325  1.8071  0.7277
  165MOL0     H21735   5.965   6.233  10.772 -1.7670 -0.1687 -1.9978
  165MOL0     H21736   5.785   6.461  10.798 -1.3532 -0.2455  4.3859
  165MOL0     H21737   5.727   6.325  10.884 -0.8026  0.2917  0.2566
  165MOL0     H21738   5.821   6.317  10.581 -0.6571  1.0092  0.5106
  165MOL0     H21739   5.770   6.180  10.666  3.1197  0.0584  0.1491
  165MOL0     H21740   5.545   6.342  10.689  0.7462  0.1206  1.4660
  165MOL0     H21741   5.593   6.272  10.533  0.1551  1.3355 -1.3910
  165MOL0     H21742   5.606   6.736  10.597 -0.5015 -1.1867  1.1102
  165MOL0     H21743   5.389   6.865  10.573 -0.8851  0.6491 -1.6412
  165MOL0     H21744   4.982   6.968  10.414  2.5045 -2.0179  1.4416
  165MOL0     H21745   4.782   7.060  10.312  3.0210  0.5607  0.4336
  165MOL0     H21746   4.634   7.038  10.111 -0.3881 -0.7151 -0.7078
  165MOL0     H21747   4.547   7.076  10.266 -1.1218  1.7760 -1.2448
  165MOL0     H21748   4.412   6.934  10.038  1.6090  0.8741 -0.4696
  165MOL0     H21749   4.408   7.110  10.047  1.8282  0.8048  0.3306
  165MOL0     H21750   4.297   7.094  10.270 -0.2351 -2.1035  2.6013
  165MOL0     H21751   4.310   6.917  10.266  3.2366  0.6607  2.1463
  165MOL0     H21752   4.147   7.082  10.053  0.2282 -0.8203 -1.4013
  165MOL0     H21753   4.152   6.921  10.067 -1.4073 -0.7359  1.5520
  165MOL0     H21754   3.959   6.997  10.174  0.1906 -1.0244 -1.0079
  165MOL0     H21755   4.047   7.072  10.307  1.6176 -0.2004  0.8142
  165MOL0     H21756   3.961   6.875  10.393 -1.0677 -0.6127 -0.5805
  165MOL0     H21757   4.130   6.868  10.392 -0.2277  0.4033  0.5194
  165MOL0     H21758   4.110   6.704  10.191 -0.3051 -1.2202 -0.2461
  165MOL0     H21759   4.001   6.650  10.324 -0.6137  0.8966 -0.0716
  165MOL0     H21760   3.915   6.788  10.068 -2.7604  2.2745 -0.0492
  165MOL0     H21761   3.821   6.775  10.218  1.6404 -0.0271 -0.4386
  165MOL0     H21762   4.632   6.649  10.287 -2.7537  2.1403  0.6688
  165MOL0     H21763   4.843   6.568  10.389 -0.4311 -0.5529 -0.6822
  165MOL0     H21764   5.186   6.502  10.502  0.0223  0.6810  0.0800
  165MOL0     H21765   5.386   6.374  10.517  0.6281  0.2348  3.0742
  165MOL0     H21766   7.322   6.946  10.096 -2.3394  0.0904  0.3893
  165MOL0     H21767   7.580   7.016  10.130 -2.0659  0.5257 -1.7195
  165MOL0     H21768   7.950   6.968  10.277  0.4128 -0.9178 -0.5314
  165MOL0     H21769   8.175   7.037  10.251 -0.6319 -2.0130  0.2444
  165MOL0     H21770   8.397   7.204  10.202 -2.2269 -0.3017  0.0372
  165MOL0     H21771   8.404   7.121  10.355 -0.0231  0.7102  1.1581
  165MOL0     H21772   8.605   7.234  10.302 -0.1524  0.0279 -0.3670
  165MOL0     H21773   8.525   7.389  10.295 -0.6419 -0.8244 -2.1997
  165MOL0     H21774   8.525   7.210  10.550 -1.3907  0.6197 -0.2070
  165MOL0     H21775   8.446   7.367  10.531  1.0833  2.0392  0.8951
  165MOL0     H21776   8.679   7.449  10.447  1.0373 -0.3330 -0.4381
  165MOL0     H21777   8.655   7.422  10.632  2.1413  0.9337 -0.5728
  165MOL0     H21778   8.968   7.162  10.546  1.0020  1.7617 -4.5246
  165MOL0     H21779   8.094   7.387  10.487 -0.5050  2.0130 -2.0495
  165MOL0     H21780   7.847   7.334  10.472 -1.5580 -1.7332 -0.0189
  166MOL0     O21781   8.478   8.795   0.810 -0.4349  0.1635  0.1353
  166MOL0     C21782   8.516   8.686   0.767  0.1656 -0.2992 -1.5393
  166MOL0     O21783   8.442   8.571   0.759 -0.2439  0.4370  0.0687
  166MOL0     C21784   8.311   8.583   0.798 -0.0427 -0.7034  0.1033
  166MOL0     C21785   8.226   8.625   0.694  0.3463  0.8019 -0.2409
  166MOL0     C21786   8.093   8.634   0.724 -0.4543 -0.3716 -0.3240
  166MOL0     C21787   8.047   8.611   0.848 -0.2491  0.4785 -0.1711
  166MOL0     O21788   7.915   8.629   0.890  0.1990 -0.5359 -0.4734
  166MOL0     C21789   7.817   8.652   0.791  0.3078 -0.0858 -0.1219
  166MOL0     C21790   7.682   8.680   0.847  0.0789  0.7865 -0.2110
  166MOL0     C21791   7.583   8.701   0.724  0.4350 -0.5568  0.0177
  166MOL0     C21792   7.439   8.727   0.769  0.4934 -0.3254 -0.1867
  166MOL0     C21793   7.342   8.740   0.655 -0.0562 -0.2656  0.7582
  166MOL0     C21794   7.194   8.759   0.691  0.6244 -0.3574 -0.1553
  166MOL0     C21795   7.176   8.878   0.784 -0.5125 -0.6511  0.2033
  166MOL0     C21796   7.027   8.917   0.824 -0.5659 -0.7245  0.4758
  166MOL0     N21797   6.934   8.943   0.707  0.7299  0.1539 -0.5921
  166MOL0     C21798   6.843   8.848   0.657  0.6872 -0.6825 -0.5070
  166MOL0     C21799   6.769   8.925   0.569 -0.6383 -0.0848 -0.4638
  166MOL0     C21800   6.654   8.887   0.483 -0.0046 -0.3180 -0.2512
  166MOL0     C21801   6.518   8.934   0.533  0.3497 -0.4235  0.1882
  166MOL0     C21802   6.389   8.837   0.532 -0.8575 -0.6259 -0.6533
  166MOL0     C21803   6.409   8.729   0.638  0.1751 -0.3933  0.4277
  166MOL0     O21804   6.299   8.636   0.629  0.0885  1.0049  0.1987
  166MOL0     C21805   6.171   8.682   0.665  0.0643  0.8117  0.0194
  166MOL0     C21806   6.135   8.776   0.758 -1.0519 -0.3503  0.0794
  166MOL0     C21807   6.008   8.820   0.778 -0.7017 -0.5792 -0.2286
  166MOL0     C21808   5.901   8.754   0.716  0.4463  0.0363  1.1220
  166MOL0     C21809   5.764   8.800   0.741  0.1829 -0.1227  0.4093
  166MOL0     O21810   5.745   8.929   0.767  0.0699 -0.6625 -0.3847
  166MOL0     C21811   5.621   8.976   0.800 -0.3330 -0.3400 -1.2877
  166MOL0     C21812   5.570   9.096   0.751 -0.0186 -0.4777  0.3912
  166MOL0     C21813   5.450   9.150   0.792 -0.4645  0.2616  0.1531
  166MOL0     C21814   5.374   9.079   0.885  0.1565  0.4230  0.6977
  166MOL0     O21815   5.248   9.134   0.899 -0.0676  0.1099 -0.6281
  166MOL0     C21816   5.177   9.098   1.023 -0.1074 -0.3609 -0.2370
  166MOL0     C21817   5.048   9.193   1.026  0.6890 -0.2977 -0.1579
  166MOL0     C21818   4.953   9.152   1.125  0.7785 -0.0331  0.0792
  166MOL0     C21819   4.985   9.195   1.270 -0.1497 -0.1767  0.7439
  166MOL0     C21820   4.862   9.222   1.353  1.2511  0.1317 -0.3309
  166MOL0     C21821   4.910   9.285   1.485  0.2709 -0.6937 -0.3551
  166MOL0     C21822   4.806   9.337   1.584  0.2298 -0.3603 -0.0278
  166MOL0     C21823   4.700   9.232   1.626 -0.1015 -0.6614 -0.2595
  166MOL0    Cl21824   4.802   9.115   1.720 -0.3910  0.2818 -0.3230
  166MOL0     C21825   5.421   8.959   0.930  0.1084 -0.7837  0.0948
  166MOL0     C21826   5.543   8.916   0.892  0.7802  0.2184 -1.0536
  166MOL0     O21827   5.672   8.718   0.717  0.0066 -0.4695  0.2341
  166MOL0     C21828   5.935   8.655   0.619 -0.4788 -1.0191  0.6031
  166MOL0     C21829   6.069   8.617   0.592  1.4742  0.0825 -0.3706
  166MOL0     N21830   6.819   9.049   0.565 -0.3854 -0.3905 -0.0297
  166MOL0     N21831   6.920   9.063   0.639  0.2608  0.1961  0.2943
  166MOL0     C21832   8.134   8.562   0.953  0.0153 -0.1593  0.4782
  166MOL0     C21833   8.264   8.554   0.928  0.3921  0.3488  0.4644
  166MOL0     C21834   8.659   8.665   0.727  0.1890 -0.3195 -0.4426
  166MOL0     C21835   8.715   8.541   0.683  0.8291  0.2266  0.5288
  166MOL0     C21836   8.852   8.536   0.658  0.3764 -0.1616 -0.8187
  166MOL0     C21837   8.939   8.649   0.678 -0.8584 -0.4948 -0.5009
  166MOL0     O21838   9.077   8.640   0.636 -0.3245  0.6690 -0.6919
  166MOL0     C21839   9.171   8.664   0.743  0.0874 -0.2231 -0.8394
  166MOL0     C21840   9.311   8.692   0.693  0.2497  0.0983 -0.2344
  166MOL0     C21841   9.413   8.730   0.797  0.2692  0.2296 -0.1205
  166MOL0     C21842   9.559   8.757   0.736  0.3191 -0.1363 -0.3050
  166MOL0     C21843   9.628   8.627   0.711  0.4987 -0.0035 -0.3427
  166MOL0     C21844   9.689   8.525   0.706 -0.3506  0.1907 -0.1469
  166MOL0     C21845   8.881   8.764   0.720 -0.2362  0.0336 -0.1502
  166MOL0     C21846   8.742   8.777   0.740 -0.1473 -0.5656  0.5765
  166MOL0     H21847   8.273   8.640   0.598  1.0096 -0.9087 -0.2264
  166MOL0     H21848   8.031   8.681   0.649 -0.3456 -1.3798 -1.0730
  166MOL0     H21849   7.811   8.573   0.715 -1.1465 -0.6038  0.5094
  166MOL0     H21850   7.850   8.742   0.738  0.8210 -0.5013 -0.5332
  166MOL0     H21851   7.692   8.769   0.910 -0.4235 -0.6313  1.9701
  166MOL0     H21852   7.651   8.598   0.912  0.5891 -0.9603 -2.0412
  166MOL0     H21853   7.596   8.613   0.661  1.0346 -0.6487  0.2640
  166MOL0     H21854   7.628   8.788   0.674  0.9506 -0.3581  0.8045
  166MOL0     H21855   7.399   8.642   0.826 -0.0157  1.4767  2.3232
  166MOL0     H21856   7.427   8.813   0.836  1.1834 -1.2576  1.1980
  166MOL0     H21857   7.348   8.644   0.603 -2.3446 -1.2981  2.2767
  166MOL0     H21858   7.360   8.825   0.587 -2.5062 -2.9270 -3.7042
  166MOL0     H21859   7.152   8.668   0.735 -3.2153  0.5770 -1.4729
  166MOL0     H21860   7.142   8.764   0.595  2.6634  1.5548 -1.2557
  166MOL0     H21861   7.228   8.863   0.879  0.1678 -0.1122 -0.0837
  166MOL0     H21862   7.213   8.964   0.729  0.0139 -2.0011 -1.6472
  166MOL0     H21863   7.037   9.011   0.879 -3.9205  0.8177 -1.2703
  166MOL0     H21864   6.990   8.834   0.885 -0.7643  0.6868  2.3795
  166MOL0     H21865   6.824   8.742   0.668 -0.2291 -0.3787  1.4608
  166MOL0     H21866   6.657   8.782   0.451  0.2197 -0.4072  0.0529
  166MOL0     H21867   6.658   8.929   0.383 -1.7519 -2.2611 -1.2093
  166MOL0     H21868   6.498   9.023   0.474  0.1956  0.3003  1.3192
  166MOL0     H21869   6.528   8.974   0.634 -0.9076  4.0961 -1.2882
  166MOL0     H21870   6.295   8.890   0.549 -0.5848 -0.3684  0.0847
  166MOL0     H21871   6.373   8.798   0.431  2.5586 -0.3485 -1.4207
  166MOL0     H21872   6.404   8.767   0.740 -2.8976 -0.8464  0.5555
  166MOL0     H21873   6.504   8.678   0.619  0.8711  0.5151  1.3674
  166MOL0     H21874   6.203   8.840   0.812 -0.9289  0.0156 -0.5018
  166MOL0     H21875   5.988   8.905   0.843 -1.7012 -0.6362 -0.4562
  166MOL0     H21876   5.622   9.151   0.673 -2.3205  3.4423  1.3315
  166MOL0     H21877   5.417   9.242   0.745 -1.8284  1.1550  2.6939
  166MOL0     H21878   5.230   9.105   1.118  1.0842 -2.6327 -0.6863
  166MOL0     H21879   5.140   8.996   1.006 -1.4266  0.4250 -2.6945
  166MOL0     H21880   5.005   9.192   0.926 -0.5489 -0.7823  0.3563
  166MOL0     H21881   5.073   9.297   1.049  1.2147 -0.7289  1.3178
  166MOL0     H21882   4.924   9.047   1.117 -1.4033  0.4018  1.3881
  166MOL0     H21883   4.859   9.199   1.097  0.1177  0.6888  3.1565
  166MOL0     H21884   5.047   9.121   1.320 -1.5496 -1.3462  0.8179
  166MOL0     H21885   5.042   9.288   1.271 -0.4572  0.0306  0.0887
  166MOL0     H21886   4.802   9.133   1.374 -1.1104  1.6852 -0.2465
  166MOL0     H21887   4.793   9.289   1.302  0.8697  0.0735  0.1071
  166MOL0     H21888   4.977   9.367   1.460  0.2917 -0.3373  0.8375
  166MOL0     H21889   4.971   9.219   1.548  1.3909  3.2230  3.0514
  166MOL0     H21890   4.865   9.365   1.671  0.9906  2.1255 -1.2540
  166MOL0     H21891   4.757   9.429   1.551 -0.2971  0.0688  1.8443
  166MOL0     H21892   4.641   9.176   1.554  0.3241 -2.6692  0.8806
  166MOL0     H21893   4.634   9.288   1.693  0.5950  0.8607 -0.7820
  166MOL0     H21894   5.367   8.882   0.983 -1.0889 -0.2356 -0.3054
  166MOL0     H21895   5.579   8.824   0.938  2.0746  1.1534 -0.1191
  166MOL0     H21896   5.865   8.604   0.553  2.7811 -2.8918 -1.6618
  166MOL0     H21897   6.089   8.533   0.526  1.7688 -0.4020  0.3221
  166MOL0     H21898   8.084   8.541   1.047  0.8179  0.8941  1.1666
  166MOL0     H21899   8.334   8.524   1.006 -0.0549 -1.3119  0.2812
  166MOL0     H21900   8.647   8.460   0.656 -1.9419  2.9467 -1.4023
  166MOL0     H21901   8.889   8.443   0.617  3.0087 -0.1959  1.3134
  166MOL0     H21902   9.173   8.588   0.821 -0.7092 -0.2412 -0.8226
  166MOL0     H21903   9.136   8.752   0.798  2.2513  1.7286 -2.3834
  166MOL0     H21904   9.351   8.609   0.634 -0.1091  1.4879 -2.5615
  166MOL0     H21905   9.300   8.779   0.628 -1.0774  1.8562  2.2152
  166MOL0     H21906   9.406   8.666   0.885 -4.0245  1.4145  0.6179
  166MOL0     H21907   9.391   8.827   0.844 -1.5480 -0.9233  1.5629
  166MOL0     H21908   9.549   8.823   0.649 -1.3987  1.0315  0.6973
  166MOL0     H21909   9.613   8.824   0.804 -1.2232  1.3645 -0.4611
  166MOL0     H21910   9.731   8.428   0.692 -0.0753 -0.2470  3.0395
  166MOL0     H21911   8.947   8.849   0.734 -2.1379  1.2073  2.4565
  166MOL0     H21912   8.691   8.868   0.769 -0.7944 -1.2496  1.6111
  167MOL0     O21913   9.164   0.161   7.483 -0.3579 -0.5300 -0.1664
  167MOL0     C21914   9.124   0.149   7.599 -0.1279  0.5119  0.7000
  167MOL0     O21915   8.997   0.127   7.638  0.5873  0.5924 -0.3550
  167MOL0     C21916   8.893   0.097   7.558 -0.0314  0.2382  0.0716
  167MOL0     C21917   8.891   0.074   7.422 -0.1180  0.4956  0.9681
  167MOL0     C21918   8.771   0.031   7.355  0.7977  0.9264 -0.7344
  167MOL0     C21919   8.658   0.027   7.429  0.3091  0.1438 -0.8088
  167MOL0     O21920   8.543  -0.014   7.365 -0.4095  0.4776 -0.4793
  167MOL0     C21921   8.418   0.000   7.438  0.2680 -0.5751  0.1495
  167MOL0     C21922   8.320  -0.057   7.336  0.1098  0.2609  0.1938
  167MOL0     C21923   8.182  -0.064   7.399 -0.0736 -0.5211  0.1308
  167MOL0     C21924   8.069  -0.114   7.295  0.1400 -0.3469 -1.0385
  167MOL0     C21925   7.940  -0.159   7.373 -0.8143 -0.6506 -0.2607
  167MOL0     C21926   7.850  -0.234   7.276 -0.0970 -0.0305 -0.7611
  167MOL0     C21927   7.733  -0.281   7.359 -0.1166  0.4752 -0.3306
  167MOL0     C21928   7.631  -0.361   7.274 -0.3356 -0.1676 -1.1139
  167MOL0     N21929   7.513  -0.377   7.360 -0.2125  0.5631  0.3357
  167MOL0     C21930   7.494  -0.467   7.450 -1.4787 -0.0965  0.0388
  167MOL0     C21931   7.377  -0.439   7.502 -0.1341  0.3246  0.0997
  167MOL0     C21932   7.318  -0.522   7.615  0.7365 -0.4578 -0.2286
  167MOL0     C21933   7.165  -0.564   7.592  0.1992  0.3476  1.5952
  167MOL0     C21934   7.144  -0.640   7.463 -0.6633 -0.0075 -0.9781
  167MOL0     C21935   6.992  -0.647   7.432  0.0278 -0.1326 -0.8695
  167MOL0     O21936   6.918  -0.689   7.552  0.3672 -0.2673 -0.8931
  167MOL0     C21937   6.801  -0.621   7.562 -0.1736 -0.2402  0.7207
  167MOL0     C21938   6.689  -0.629   7.473  0.1739  0.2321  0.3566
  167MOL0     C21939   6.573  -0.550   7.496 -0.4510  0.1506 -0.0253
  167MOL0     C21940   6.570  -0.469   7.608 -0.1199  0.0086  0.1663
  167MOL0     C21941   6.454  -0.386   7.630  1.0741  0.4009 -0.1924
  167MOL0     O21942   6.341  -0.410   7.558 -0.5070 -0.2251  0.2583
  167MOL0     C21943   6.226  -0.344   7.590 -0.4342  0.5160  0.0217
  167MOL0     C21944   6.118  -0.426   7.623 -1.0187 -0.6809 -0.1783
  167MOL0     C21945   5.988  -0.361   7.640  0.4156  0.3730 -0.3504
  167MOL0     C21946   5.972  -0.226   7.633 -0.3226  0.2611 -0.6314
  167MOL0     O21947   5.848  -0.184   7.664 -0.1124 -0.2994 -0.4633
  167MOL0     C21948   5.830  -0.042   7.676  0.4837  0.5698  0.5047
  167MOL0     C21949   5.689  -0.018   7.753  1.1540  0.2799  0.3859
  167MOL0     C21950   5.574  -0.081   7.678 -0.9151 -1.0428  0.6676
  167MOL0     C21951   5.446  -0.055   7.765 -0.1497 -0.4485  0.6465
  167MOL0     C21952   5.328  -0.111   7.692  0.0014  0.4701 -0.5761
  167MOL0     C21953   5.197  -0.083   7.761 -0.2744  0.2045 -0.4354
  167MOL0     C21954   5.137   0.055   7.711 -0.4493  0.6969  0.0134
  167MOL0     C21955   5.007   0.100   7.790 -0.5185  0.2485  0.6558
  167MOL0    Cl21956   4.872  -0.009   7.737 -0.1781 -0.0523 -0.0745
  167MOL0     C21957   6.089  -0.150   7.609  0.6436  0.3218  1.2487
  167MOL0     C21958   6.211  -0.208   7.582 -0.4773  0.4280  0.6550
  167MOL0     O21959   6.473  -0.292   7.709 -0.3165  1.3394  0.1720
  167MOL0     C21960   6.677  -0.471   7.697 -0.2105 -0.8984  0.7357
  167MOL0     C21961   6.791  -0.555   7.682  0.6498 -0.8176 -0.8481
  167MOL0     N21962   7.325  -0.320   7.443  0.1585  0.9720 -0.1490
  167MOL0     N21963   7.414  -0.281   7.352 -0.2032  0.5557  0.4345
  167MOL0     C21964   8.661   0.038   7.567 -0.0859 -0.0263  0.2923
  167MOL0     C21965   8.773   0.074   7.632  0.7381  0.3051 -0.0772
  167MOL0     C21966   9.223   0.167   7.714  0.5204  0.5838 -0.5484
  167MOL0     C21967   9.358   0.148   7.691  0.7140 -0.3621 -0.7743
  167MOL0     C21968   9.447   0.155   7.796  0.5619  0.7620  0.5078
  167MOL0     C21969   9.412   0.163   7.932  0.1634 -0.2805  0.3422
  167MOL0     O21970   9.507   0.179   8.027 -0.3412 -0.1573 -0.3367
  167MOL0     C21971   9.455   0.208   8.160  0.8211  1.0519  0.0288
  167MOL0     C21972   9.568   0.251   8.248  0.4657  0.7961 -0.2733
  167MOL0     C21973   9.655   0.127   8.273  0.3109  0.2476  0.4997
  167MOL0     C21974   9.778   0.160   8.369  0.3305 -0.0257  0.3158
  167MOL0     C21975   9.886   0.231   8.293  0.2448 -0.0026 -0.0682
  167MOL0     C21976   9.978   0.279   8.220 -0.1151 -0.4749  0.2189
  167MOL0     C21977   9.270   0.169   7.958  0.9257 -0.2823  0.1057
  167MOL0     C21978   9.182   0.170   7.853 -0.1566 -0.4653 -0.3106
  167MOL0     H21979   8.976   0.087   7.356  0.3485  3.6092  1.9954
  167MOL0     H21980   8.762   0.000   7.251 -3.8502  0.4559 -0.3895
  167MOL0     H21981   8.394   0.107   7.450 -0.6959 -0.7323 -0.3352
  167MOL0     H21982   8.406  -0.050   7.535 -0.4252 -0.5721  0.0729
  167MOL0     H21983   8.342  -0.159   7.305 -2.6258 -0.2341 -0.3211
  167MOL0     H21984   8.314   0.001   7.243  1.2567 -0.5736 -0.4319
  167MOL0     H21985   8.157   0.038   7.431 -1.7020  0.2259 -3.1087
  167MOL0     H21986   8.186  -0.129   7.486 -0.2109 -0.7151 -0.0069
  167MOL0     H21987   8.031  -0.033   7.233 -2.9865 -3.2615 -3.3173
  167MOL0     H21988   8.113  -0.197   7.238  3.5616 -0.0879  0.9216
  167MOL0     H21989   7.898  -0.071   7.422  2.7204 -0.0792  2.1360
  167MOL0     H21990   7.970  -0.228   7.452  0.1773 -0.9807 -0.9158
  167MOL0     H21991   7.904  -0.318   7.230 -2.8878 -1.9772 -0.7662
  167MOL0     H21992   7.812  -0.170   7.196  3.0845  2.9409 -0.1078
  167MOL0     H21993   7.759  -0.346   7.444  0.3579 -1.0691 -1.5964
  167MOL0     H21994   7.678  -0.199   7.406 -0.7307 -0.5396  0.8194
  167MOL0     H21995   7.681  -0.454   7.245  2.2782  0.0014  2.2430
  167MOL0     H21996   7.602  -0.297   7.190 -2.2258 -1.4208 -1.4766
  167MOL0     H21997   7.568  -0.542   7.475 -1.4378  0.6809  2.5087
  167MOL0     H21998   7.326  -0.459   7.704 -1.3938  0.7448 -0.8087
  167MOL0     H21999   7.371  -0.616   7.629  0.0398 -0.6626  1.2166
  167MOL0     H22000   7.107  -0.471   7.585 -1.0496 -0.5491 -2.6334
  167MOL0     H22001   7.132  -0.625   7.677 -0.3714  0.8376  1.7333
  167MOL0     H22002   7.191  -0.601   7.373 -0.5272 -2.0154 -1.8328
  167MOL0     H22003   7.175  -0.745   7.468  0.6311  0.2694 -2.5262
  167MOL0     H22004   6.975  -0.731   7.364  2.6217 -1.1803 -0.3565
  167MOL0     H22005   6.961  -0.550   7.394  1.2166  0.1813 -1.0805
  167MOL0     H22006   6.701  -0.682   7.380 -2.1429  0.7917 -0.3065
  167MOL0     H22007   6.506  -0.538   7.411  0.9813 -0.5208 -1.2923
  167MOL0     H22008   6.138  -0.533   7.623  0.6929 -0.4259  1.5159
  167MOL0     H22009   5.894  -0.413   7.652  1.4582 -1.1951  1.6324
  167MOL0     H22010   5.828   0.006   7.578 -1.7526 -0.4924 -0.0293
  167MOL0     H22011   5.912  -0.007   7.739 -0.9799  1.6132  1.9262
  167MOL0     H22012   5.676   0.090   7.761 -0.7729  0.0263  1.2367
  167MOL0     H22013   5.703  -0.063   7.852  4.8639 -0.0237 -0.1480
  167MOL0     H22014   5.587  -0.188   7.666  4.6793 -0.4837 -1.3368
  167MOL0     H22015   5.565  -0.027   7.583 -1.1229  0.0928  1.3073
  167MOL0     H22016   5.452  -0.107   7.861  0.7776 -0.9685  0.3258
  167MOL0     H22017   5.431   0.048   7.798  1.0847 -0.0761  0.1181
  167MOL0     H22018   5.343  -0.220   7.692 -2.9730 -0.0846  2.3029
  167MOL0     H22019   5.323  -0.078   7.588  0.8712  0.8373 -0.5079
  167MOL0     H22020   5.217  -0.082   7.869 -0.7979  2.5283 -0.2989
  167MOL0     H22021   5.127  -0.165   7.742  0.2455  0.4842 -4.2022
  167MOL0     H22022   5.213   0.132   7.723  1.6575 -0.8510 -2.5485
  167MOL0     H22023   5.120   0.051   7.603  1.5838 -5.1228 -0.4282
  167MOL0     H22024   4.982   0.204   7.766  1.0813  0.6063  0.3966
  167MOL0     H22025   5.023   0.100   7.898 -0.2821 -0.4553  0.6248
  167MOL0     H22026   6.078  -0.043   7.595  0.9069  0.3207  1.0214
  167MOL0     H22027   6.304  -0.153   7.571 -0.2669  0.1377  0.9652
  167MOL0     H22028   6.669  -0.420   7.793  1.2937 -1.2777  1.0826
  167MOL0     H22029   6.869  -0.563   7.757  1.9876 -1.5894 -2.2659
  167MOL0     H22030   8.572   0.027   7.629 -0.6987 -0.3015 -0.6122
  167MOL0     H22031   8.777   0.073   7.741  2.6687 -0.1554 -0.1101
  167MOL0     H22032   9.402   0.133   7.593  1.8098 -0.2741 -0.3170
  167MOL0     H22033   9.551   0.162   7.769 -0.4808  1.0961 -4.3214
  167MOL0     H22034   9.410   0.114   8.194  0.9485  0.4442 -1.3954
  167MOL0     H22035   9.387   0.293   8.151 -0.5603 -0.0231 -0.0519
  167MOL0     H22036   9.627   0.332   8.205 -0.1293  1.5081  0.2139
  167MOL0     H22037   9.528   0.285   8.344  0.4411  1.3531 -0.4813
  167MOL0     H22038   9.696   0.084   8.181 -2.1544  0.2865 -0.6793
  167MOL0     H22039   9.589   0.047   8.309 -2.6868  2.2099 -0.3475
  167MOL0     H22040   9.742   0.217   8.456 -1.2926 -0.5942  0.0500
  167MOL0     H22041   9.814   0.061   8.396  0.5974  0.9182  3.9485
  167MOL0     H22042  10.054   0.314   8.154 -1.0051  0.5775 -0.2704
  167MOL0     H22043   9.229   0.173   8.058 -0.8018 -1.1879 -0.5287
  167MOL0     H22044   9.078   0.190   7.876  0.2580  1.0127  0.3731
  168MOL0     O22045   8.561   0.469   0.728  0.9739 -0.5315 -0.0713
  168MOL0     C22046   8.642   0.424   0.648  0.4203  0.4433 -0.9285
  168MOL0     O22047   8.614   0.370   0.522  0.1891 -0.6130  0.6861
  168MOL0     C22048   8.491   0.318   0.486 -0.0639  1.0220  0.6341
  168MOL0     C22049   8.384   0.286   0.575 -0.0289 -0.1632  0.4188
  168MOL0     C22050   8.261   0.227   0.528 -0.0880  0.0412 -0.3544
  168MOL0     C22051   8.251   0.194   0.390 -0.6397 -0.4716  0.9914
  168MOL0     O22052   8.147   0.125   0.335  0.6826  1.1056 -0.1856
  168MOL0     C22053   8.022   0.131   0.406  0.2708 -0.1007  0.0168
  168MOL0     C22054   7.925   0.034   0.346  0.0807  0.3986 -0.2392
  168MOL0     C22055   7.790   0.040   0.418  0.3704 -0.3006 -0.0243
  168MOL0     C22056   7.687   0.140   0.363 -0.2165 -1.0877 -0.7498
  168MOL0     C22057   7.546   0.134   0.408 -0.0018 -0.1113 -0.7755
  168MOL0     C22058   7.528   0.151   0.553 -0.1226  1.2482  0.1731
  168MOL0     C22059   7.371   0.150   0.580 -0.5090 -0.3249 -0.5622
  168MOL0     C22060   7.293   0.022   0.542  0.9958  0.2358  0.4790
  168MOL0     N22061   7.147   0.029   0.570  0.2028  0.5446 -0.3819
  168MOL0     C22062   7.087   0.127   0.639  0.2082  0.0063  0.1158
  168MOL0     C22063   6.955   0.111   0.620  0.6483  0.4540 -0.0846
  168MOL0     C22064   6.855   0.189   0.699 -0.7272  0.8964 -0.1681
  168MOL0     C22065   6.750   0.091   0.753  0.8423  0.8853 -0.5432
  168MOL0     C22066   6.642   0.162   0.840  0.5682  0.2117 -0.4742
  168MOL0     C22067   6.526   0.210   0.760  0.4918  0.5306  0.4955
  168MOL0     O22068   6.438   0.277   0.854  0.5015 -0.2685 -0.4552
  168MOL0     C22069   6.319   0.326   0.804 -0.0832 -0.9919 -0.0396
  168MOL0     C22070   6.261   0.423   0.881  0.2938 -0.7177  0.5367
  168MOL0     C22071   6.134   0.468   0.843  0.2744 -0.3551  0.7979
  168MOL0     C22072   6.063   0.420   0.733  0.5901 -0.1231  0.8961
  168MOL0     C22073   5.934   0.486   0.687  0.3733 -0.9053 -0.3793
  168MOL0     O22074   5.875   0.435   0.578  0.0968  0.2892  0.0153
  168MOL0     C22075   5.755   0.471   0.520 -0.1867 -0.1707 -0.4890
  168MOL0     C22076   5.696   0.598   0.535  0.9385 -0.2886 -0.2356
  168MOL0     C22077   5.578   0.639   0.470  0.1146 -0.1332  0.6626
  168MOL0     C22078   5.508   0.548   0.383  0.3089 -0.7118  0.3331
  168MOL0     O22079   5.390   0.605   0.327 -0.0112  0.4058 -0.7789
  168MOL0     C22080   5.311   0.521   0.239  0.2220 -0.4444  0.0308
  168MOL0     C22081   5.189   0.601   0.201 -0.2898  0.5639  0.2194
  168MOL0     C22082   5.129   0.544   0.079  0.3932  0.3021  0.9892
  168MOL0     C22083   5.039   0.647   0.024  0.3468  0.2719  1.2468
  168MOL0     C22084   4.966   0.583  -0.098 -0.3922  0.5109  0.3462
  168MOL0     C22085   4.897   0.710  -0.166 -0.1256 -1.5544 -0.1051
  168MOL0     C22086   4.777   0.685  -0.258 -0.0608 -0.2413  0.6920
  168MOL0     C22087   4.730   0.809  -0.338  0.0608  1.1077 -1.1167
  168MOL0    Cl22088   4.603   0.764  -0.454 -0.0480 -0.2147  0.6967
  168MOL0     C22089   5.562   0.421   0.371 -0.2105 -0.4228  0.1845
  168MOL0     C22090   5.686   0.385   0.434  0.5904  0.0715  0.2436
  168MOL0     O22091   5.884   0.563   0.770 -0.1229  0.0005 -0.3886
  168MOL0     C22092   6.127   0.327   0.646  0.6198  0.5217  0.2890
  168MOL0     C22093   6.252   0.284   0.681 -0.6914 -0.0278 -0.6460
  168MOL0     N22094   6.941  -0.001   0.542  0.6590 -0.5469  0.6917
  168MOL0     N22095   7.059  -0.047   0.503  0.1371  0.2671 -0.1863
  168MOL0     C22096   8.357   0.221   0.299 -0.3451  0.1526  0.1056
  168MOL0     C22097   8.476   0.285   0.350  0.1393 -0.5542 -0.5758
  168MOL0     C22098   8.783   0.418   0.696  0.0197 -0.2693 -0.3683
  168MOL0     C22099   8.824   0.497   0.808  0.3932 -0.5372 -0.6343
  168MOL0     C22100   8.952   0.494   0.853 -0.1440 -1.1046 -0.1508
  168MOL0     C22101   9.049   0.420   0.784  0.2043  0.4049  0.2897
  168MOL0     O22102   9.187   0.399   0.809 -0.8103  0.5340  0.3987
  168MOL0     C22103   9.251   0.494   0.899  0.1205  0.0811  0.1558
  168MOL0     C22104   9.405   0.503   0.871 -0.0815 -0.2103 -0.6110
  168MOL0     C22105   9.483   0.375   0.911 -0.1376  0.2018 -0.7237
  168MOL0     C22106   9.619   0.365   0.854 -0.6646  0.8930 -0.4355
  168MOL0     C22107   9.722   0.434   0.923  0.0667  0.6161 -0.7093
  168MOL0     C22108   9.813   0.489   0.980 -0.0531  0.1242  0.6161
  168MOL0     C22109   9.007   0.350   0.674 -0.0960 -0.3368  0.0821
  168MOL0     C22110   8.877   0.343   0.629 -0.3825  0.8326  0.2196
  168MOL0     H22111   8.396   0.301   0.682 -1.0838  1.6707  0.3196
  168MOL0     H22112   8.191   0.205   0.609  1.1773  0.8914  1.0324
  168MOL0     H22113   7.976   0.229   0.389 -3.0643 -1.8804 -2.2861
  168MOL0     H22114   8.032   0.108   0.513 -0.7584  1.0271  0.3683
  168MOL0     H22115   7.967  -0.067   0.352 -0.4069  0.2254  4.6903
  168MOL0     H22116   7.898   0.059   0.243 -1.7754  2.0652  0.5909
  168MOL0     H22117   7.793   0.058   0.526 -0.8804 -0.0807 -0.0065
  168MOL0     H22118   7.751  -0.060   0.398  2.4679 -0.8757 -1.5783
  168MOL0     H22119   7.724   0.242   0.379  0.6231 -1.4997  0.0541
  168MOL0     H22120   7.683   0.131   0.254 -0.8909 -0.9326 -0.7451
  168MOL0     H22121   7.503   0.039   0.373  1.9293 -0.6225 -1.9174
  168MOL0     H22122   7.497   0.222   0.365 -1.9705  0.7201  2.7890
  168MOL0     H22123   7.580   0.244   0.581  3.5647 -1.0835  1.7703
  168MOL0     H22124   7.569   0.069   0.611 -1.6987  0.2849 -0.0239
  168MOL0     H22125   7.364   0.155   0.689  0.7207  3.8670 -0.5200
  168MOL0     H22126   7.329   0.242   0.538  1.5441  1.2705  0.7078
  168MOL0     H22127   7.325  -0.057   0.611  0.8619 -0.0537  0.2084
  168MOL0     H22128   7.312   0.002   0.436  2.4860  0.8213  0.6112
  168MOL0     H22129   7.138   0.194   0.708  0.8084  1.6093 -1.7893
  168MOL0     H22130   6.812   0.270   0.640  1.7070  1.9842 -0.5344
  168MOL0     H22131   6.906   0.234   0.784 -0.3896  0.2782 -0.0358
  168MOL0     H22132   6.799   0.019   0.820  0.7398  0.0516 -1.3450
  168MOL0     H22133   6.705   0.028   0.676 -1.6523  1.0343  0.6712
  168MOL0     H22134   6.598   0.094   0.913  3.6972  0.1606  1.5379
  168MOL0     H22135   6.689   0.230   0.911  0.2491 -1.5795  1.5323
  168MOL0     H22136   6.494   0.126   0.697  2.4599  1.5524 -2.0441
  168MOL0     H22137   6.573   0.286   0.697  3.7718 -0.9840  0.9052
  168MOL0     H22138   6.309   0.467   0.968 -3.1059  1.5032  1.4788
  168MOL0     H22139   6.106   0.558   0.896  2.1828  0.8779 -0.1858
  168MOL0     H22140   5.743   0.674   0.596  2.4459 -0.0214 -1.6559
  168MOL0     H22141   5.538   0.740   0.477  0.0450 -0.1426  0.4278
  168MOL0     H22142   5.279   0.432   0.295 -1.1997 -0.7067 -1.1382
  168MOL0     H22143   5.371   0.498   0.152 -1.9210  0.0224 -1.6704
  168MOL0     H22144   5.223   0.704   0.184  0.3213  0.4895  0.9431
  168MOL0     H22145   5.116   0.609   0.282  2.6580 -0.4540  3.2190
  168MOL0     H22146   5.073   0.454   0.104 -1.4687  1.3124  0.6424
  168MOL0     H22147   5.213   0.529   0.009 -0.5296 -0.0642 -0.0626
  168MOL0     H22148   4.971   0.678   0.103 -1.4561 -1.0750  0.3097
  168MOL0     H22149   5.098   0.729  -0.018  0.3132 -0.9958 -1.5494
  168MOL0     H22150   4.893   0.511  -0.061 -0.6267  1.6666  2.2894
  168MOL0     H22151   5.028   0.536  -0.175 -3.1186  1.4003 -2.6113
  168MOL0     H22152   4.970   0.774  -0.215 -1.1726 -2.1868 -2.6734
  168MOL0     H22153   4.845   0.763  -0.085 -0.5886  0.1602 -1.4764
  168MOL0     H22154   4.809   0.612  -0.333 -0.6942 -0.7709  0.9286
  168MOL0     H22155   4.687   0.664  -0.201 -1.4447  2.2625 -0.3813
  168MOL0     H22156   4.808   0.865  -0.390 -1.5070  1.1008 -3.6776
  168MOL0     H22157   4.683   0.872  -0.263 -0.1053  0.2097 -0.4443
  168MOL0     H22158   5.517   0.343   0.309 -0.3755 -0.3751  0.2437
  168MOL0     H22159   5.731   0.286   0.424 -1.5659 -0.8908 -0.6772
  168MOL0     H22160   6.080   0.282   0.560  0.4380  0.0474  0.6303
  168MOL0     H22161   6.296   0.204   0.622 -0.3343 -1.2645  1.2032
  168MOL0     H22162   8.351   0.182   0.198 -3.2369  0.5990  0.0376
  168MOL0     H22163   8.558   0.303   0.281 -1.1558  2.0485 -1.5448
  168MOL0     H22164   8.747   0.544   0.867  0.6784  1.2147 -1.5856
  168MOL0     H22165   8.976   0.540   0.949  1.0843  0.2950 -1.0741
  168MOL0     H22166   9.240   0.468   1.005 -0.7409  1.3125  0.3896
  168MOL0     H22167   9.204   0.592   0.883 -1.0174 -0.5764 -0.7054
  168MOL0     H22168   9.418   0.529   0.765  0.5416 -1.3080 -0.8117
  168MOL0     H22169   9.438   0.582   0.940 -2.2148 -0.2562  0.5506
  168MOL0     H22170   9.429   0.293   0.861 -0.9387  0.4178 -0.2294
  168MOL0     H22171   9.481   0.381   1.020  1.2528  0.9261 -0.7174
  168MOL0     H22172   9.635   0.259   0.832  0.0971  1.1458 -1.1677
  168MOL0     H22173   9.610   0.406   0.753 -0.2052 -3.2727 -2.3856
  168MOL0     H22174   9.905   0.541   1.000 -0.4485  1.1792 -0.2034
  168MOL0     H22175   9.067   0.284   0.612  0.2577  0.9600 -1.0199
  168MOL0     H22176   8.865   0.284   0.538  2.9886  0.4243 -0.1027
  169MOL0     O22177   7.830   5.778   8.256 -0.0652  0.5391 -0.0204
  169MOL0     C22178   7.864   5.878   8.201 -1.0873  0.1981 -0.1669
  169MOL0     O22179   7.781   5.960   8.135  0.1048 -0.1126 -0.3853
  169MOL0     C22180   7.646   5.920   8.139 -0.2568  0.1343  0.0145
  169MOL0     C22181   7.570   5.945   8.258 -0.2952  0.3161  0.0144
  169MOL0     C22182   7.433   5.904   8.250 -0.3010 -0.4249 -0.1307
  169MOL0     C22183   7.382   5.846   8.144 -0.3870  0.0839  0.2264
  169MOL0     O22184   7.251   5.805   8.136 -0.6065 -0.5181  0.5040
  169MOL0     C22185   7.159   5.802   8.242  1.2243 -0.6400 -0.1508
  169MOL0     C22186   7.023   5.776   8.169 -0.2125 -0.0545  0.5316
  169MOL0     C22187   6.923   5.883   8.221  0.2577 -0.0662  0.4549
  169MOL0     C22188   6.788   5.856   8.159  0.1227  0.1411  0.4390
  169MOL0     C22189   6.689   5.964   8.212 -0.2926 -0.8145  1.1150
  169MOL0     C22190   6.555   5.946   8.139 -0.4716  0.0688 -0.1702
  169MOL0     C22191   6.439   6.033   8.200 -0.1130  0.6306 -0.9578
  169MOL0     C22192   6.405   5.992   8.344  0.3391 -0.1728 -0.5193
  169MOL0     N22193   6.258   5.997   8.353 -0.0078 -0.2997 -0.3128
  169MOL0     C22194   6.187   6.100   8.414  0.2178 -0.6042  0.7388
  169MOL0     C22195   6.057   6.047   8.408  0.4899 -1.0600 -0.0847
  169MOL0     C22196   5.936   6.105   8.479  0.1096 -0.2600 -0.1517
  169MOL0     C22197   5.813   6.015   8.447 -0.5271  0.3146 -0.2590
  169MOL0     C22198   5.697   6.080   8.512  0.5504 -0.4188  0.0469
  169MOL0     C22199   5.586   5.967   8.516 -0.3979  0.6190 -0.5614
  169MOL0     O22200   5.531   5.938   8.383  0.2309  0.1892 -0.0898
  169MOL0     C22201   5.398   5.944   8.373  0.5153  0.6319  0.1195
  169MOL0     C22202   5.337   5.840   8.313  0.4996 -0.0903 -0.2073
  169MOL0     C22203   5.205   5.814   8.299  1.5760  0.0300 -0.0742
  169MOL0     C22204   5.113   5.919   8.341 -0.2936 -0.5986  0.5479
  169MOL0     C22205   4.966   5.906   8.325  0.0309  0.3415 -0.4279
  169MOL0     O22206   4.890   6.017   8.345  0.1122 -0.2969  0.4138
  169MOL0     C22207   4.754   6.011   8.338 -0.1891  0.8819  0.4409
  169MOL0     C22208   4.688   6.001   8.457  0.4312 -0.2933 -0.6108
  169MOL0     C22209   4.552   6.037   8.462 -0.4977 -0.6104 -0.2966
  169MOL0     C22210   4.487   6.080   8.347  0.0167  0.2326 -0.6178
  169MOL0     O22211   4.360   6.135   8.347 -0.2670  0.4037  1.3321
  169MOL0     C22212   4.259   6.070   8.424  0.4009  0.6940  0.4966
  169MOL0     C22213   4.215   6.147   8.549  0.5272 -0.0645  0.1012
  169MOL0     C22214   4.116   6.051   8.619 -0.0697  0.2954  0.1835
  169MOL0     C22215   4.039   6.139   8.725 -0.5041 -1.0630  0.0994
  169MOL0     C22216   3.949   6.068   8.827  0.0810  0.3039 -0.1971
  169MOL0     C22217   3.888   6.173   8.919  0.5340  0.0744 -1.1755
  169MOL0     C22218   3.808   6.114   9.035 -0.9914 -0.2347 -0.4534
  169MOL0     C22219   3.893   6.066   9.155 -0.3674 -0.0929  0.6855
  169MOL0    Cl22220   3.794   5.974   9.277  0.1894  0.6687  0.2876
  169MOL0     C22221   4.558   6.075   8.226  0.0670 -0.7654  0.0895
  169MOL0     C22222   4.687   6.046   8.222  0.1817  1.1420 -0.3636
  169MOL0     O22223   4.924   5.791   8.298  0.1438 -0.4935 -0.2999
  169MOL0     C22224   5.169   6.035   8.405  0.1979  0.0168  0.5583
  169MOL0     C22225   5.311   6.044   8.418  0.0343  0.5043 -0.0343
  169MOL0     N22226   6.056   5.926   8.347 -0.1635 -0.4561  0.3767
  169MOL0     N22227   6.180   5.895   8.314 -0.4114  0.2643 -0.9331
  169MOL0     C22228   7.460   5.824   8.025 -0.2794 -0.1425 -0.2889
  169MOL0     C22229   7.586   5.865   8.019 -0.6514  0.4242  0.0970
  169MOL0     C22230   8.010   5.905   8.185  0.6789  1.3206  0.3885
  169MOL0     C22231   8.051   5.982   8.079 -0.5550  0.3847  0.4957
  169MOL0     C22232   8.183   5.981   8.040  0.5050  0.2696  0.4712
  169MOL0     C22233   8.275   5.911   8.123 -0.2041 -0.1085  0.8195
  169MOL0     O22234   8.410   5.907   8.093  0.0084  0.6484 -0.2521
  169MOL0     C22235   8.439   5.926   7.956  0.2909 -0.1978  0.2213
  169MOL0     C22236   8.570   5.867   7.906 -0.0197  0.4557  0.2806
  169MOL0     C22237   8.675   5.943   7.984 -0.1522  0.4308 -0.3693
  169MOL0     C22238   8.813   5.929   7.929  0.6087 -0.0422 -0.2938
  169MOL0     C22239   8.841   5.787   7.920 -0.2131  0.4446 -0.2343
  169MOL0     C22240   8.873   5.666   7.917 -1.2480 -0.2380  0.2530
  169MOL0     C22241   8.243   5.842   8.241  0.2823 -0.6845 -1.0835
  169MOL0     C22242   8.103   5.834   8.268  0.3896  0.4826  0.4762
  169MOL0     H22243   7.612   5.986   8.350  2.0379 -2.9557  0.5760
  169MOL0     H22244   7.383   5.922   8.344 -0.0687  0.7637 -0.2243
  169MOL0     H22245   7.163   5.884   8.315  2.9862 -1.7988  1.1538
  169MOL0     H22246   7.179   5.710   8.298 -2.8015 -1.7952 -0.2923
  169MOL0     H22247   7.001   5.671   8.187 -0.8256  0.0594  0.4870
  169MOL0     H22248   7.036   5.792   8.061 -0.6643  0.3597  0.5368
  169MOL0     H22249   6.958   5.982   8.192  1.1125 -0.8335 -1.3378
  169MOL0     H22250   6.920   5.870   8.329  0.9645 -1.2454  0.3586
  169MOL0     H22251   6.800   5.854   8.050  1.8100  2.8894  0.4893
  169MOL0     H22252   6.752   5.760   8.197  0.2994  0.3734  1.1968
  169MOL0     H22253   6.735   6.064   8.208  2.4869 -1.9629  1.6641
  169MOL0     H22254   6.680   5.944   8.319  0.2196 -2.0318  0.9377
  169MOL0     H22255   6.541   5.837   8.143  2.2750 -0.5155 -2.8059
  169MOL0     H22256   6.566   5.976   8.034  0.6967 -0.3394 -0.1821
  169MOL0     H22257   6.473   6.137   8.195  2.3042  0.1109  1.7821
  169MOL0     H22258   6.347   6.022   8.142 -0.9450  0.0628  0.4182
  169MOL0     H22259   6.451   6.063   8.414  0.4902  1.5438 -2.2649
  169MOL0     H22260   6.433   5.889   8.366 -0.6479 -0.3471 -0.0424
  169MOL0     H22261   6.218   6.196   8.454 -1.8352  1.1607 -1.5443
  169MOL0     H22262   5.917   6.207   8.444  1.5441  0.0448 -0.1081
  169MOL0     H22263   5.954   6.106   8.587 -0.9660  1.7483  0.0426
  169MOL0     H22264   5.835   5.915   8.487 -0.1906  0.7853  0.7910
  169MOL0     H22265   5.794   6.006   8.340 -3.4579  1.8477  0.0396
  169MOL0     H22266   5.723   6.118   8.611  1.4136 -2.1064  0.5040
  169MOL0     H22267   5.662   6.157   8.443  0.5772 -1.9343 -1.7441
  169MOL0     H22268   5.506   6.013   8.575 -1.4112  0.8967 -2.0762
  169MOL0     H22269   5.624   5.876   8.564  0.8654  2.2197  1.6852
  169MOL0     H22270   5.400   5.758   8.279 -1.2666 -0.1496 -3.7267
  169MOL0     H22271   5.162   5.726   8.252  1.8326 -0.2070  0.1313
  169MOL0     H22272   4.746   5.991   8.547  0.1012  2.2353 -0.0419
  169MOL0     H22273   4.504   6.059   8.557  0.2710 -2.0550  0.4655
  169MOL0     H22274   4.296   5.969   8.445 -2.0994 -0.6195 -0.9900
  169MOL0     H22275   4.181   6.054   8.349  0.5945 -1.8969  0.7752
  169MOL0     H22276   4.166   6.243   8.533 -0.5155 -0.5630  0.1617
  169MOL0     H22277   4.297   6.158   8.620  0.9249 -0.0084 -0.3660
  169MOL0     H22278   4.162   5.961   8.660 -1.2780 -2.4594 -3.8780
  169MOL0     H22279   4.035   6.029   8.549 -1.0256  0.0841  1.3299
  169MOL0     H22280   4.109   6.200   8.782 -1.1861  0.1626 -0.3300
  169MOL0     H22281   3.978   6.211   8.668 -0.9699  0.0962  1.9835
  169MOL0     H22282   4.007   5.989   8.876 -0.2758 -0.0076 -0.2776
  169MOL0     H22283   3.871   6.020   8.768 -0.8857 -0.2987  1.4812
  169MOL0     H22284   3.821   6.232   8.857  0.0696 -0.9729 -1.6979
  169MOL0     H22285   3.967   6.228   8.972  0.7614 -1.9028  0.6855
  169MOL0     H22286   3.732   6.185   9.068 -0.7242 -0.6015  1.0028
  169MOL0     H22287   3.761   6.023   8.998  0.4120 -0.9552 -0.5466
  169MOL0     H22288   3.924   6.152   9.216 -0.3967  0.8232 -0.5609
  169MOL0     H22289   3.984   6.018   9.118  0.0984  0.0009  1.6563
  169MOL0     H22290   4.510   6.112   8.136  0.1133 -3.1256 -0.9889
  169MOL0     H22291   4.740   6.062   8.129  2.8014  2.0507  1.1836
  169MOL0     H22292   5.100   6.109   8.443 -1.2977 -1.3286  0.5259
  169MOL0     H22293   5.369   6.130   8.450  0.5137  0.3376 -0.4420
  169MOL0     H22294   7.407   5.774   7.944 -0.1493 -1.2586  0.2911
  169MOL0     H22295   7.641   5.861   7.925 -1.1746  0.9146 -0.2383
  169MOL0     H22296   7.978   6.040   8.025  2.9211  1.5812 -3.4616
  169MOL0     H22297   8.203   6.037   7.949 -0.1653 -0.3579 -0.0750
  169MOL0     H22298   8.438   6.034   7.939  2.7674  0.1199  1.5904
  169MOL0     H22299   8.362   5.884   7.892 -0.5325  3.3683 -1.3835
  169MOL0     H22300   8.562   5.760   7.925  0.8649  0.3592  0.1528
  169MOL0     H22301   8.577   5.880   7.797 -0.5028  0.2961  0.2290
  169MOL0     H22302   8.686   5.905   8.086  2.4928 -1.0272 -1.1143
  169MOL0     H22303   8.656   6.051   7.987  0.7214  0.6650 -2.1164
  169MOL0     H22304   8.824   5.991   7.839  1.6176  1.6310  0.9083
  169MOL0     H22305   8.880   5.963   8.009 -1.7730 -0.3185  1.9880
  169MOL0     H22306   8.902   5.563   7.911  0.5434  0.2668 -0.3442
  169MOL0     H22307   8.313   5.781   8.297 -1.5386  0.1980  2.3909
  169MOL0     H22308   8.074   5.768   8.350 -1.1552 -0.8876 -1.0815
  170MOL0     O22309   2.506   2.811   7.438 -0.3357  0.0136  0.6237
  170MOL0     C22310   2.525   2.844   7.320 -0.3639  0.3223  0.6149
  170MOL0     O22311   2.445   2.807   7.217  0.4418 -0.0758 -0.4264
  170MOL0     C22312   2.318   2.762   7.246  0.2954  0.2971 -0.7676
  170MOL0     C22313   2.293   2.623   7.237  1.0437  0.0904  0.1867
  170MOL0     C22314   2.167   2.579   7.267 -0.3438 -0.3076  0.0922
  170MOL0     C22315   2.060   2.659   7.300 -0.0286 -0.3419  0.2337
  170MOL0     O22316   1.938   2.604   7.322 -1.1971  0.1816  1.4798
  170MOL0     C22317   1.834   2.678   7.390 -0.7330  0.4717  0.7837
  170MOL0     C22318   1.715   2.585   7.375  0.1324 -0.7677  0.7591
  170MOL0     C22319   1.598   2.668   7.443 -0.4816 -0.1391  0.3107
  170MOL0     C22320   1.472   2.602   7.396  0.2073  0.4006 -0.1154
  170MOL0     C22321   1.353   2.654   7.482  0.0824 -0.1293  0.6128
  170MOL0     C22322   1.231   2.559   7.467  0.1276 -0.5990 -0.4601
  170MOL0     C22323   1.095   2.605   7.509 -0.1334 -0.5725  0.0123
  170MOL0     C22324   0.992   2.503   7.455  0.4997 -0.3577  0.7103
  170MOL0     N22325   0.857   2.530   7.498 -0.2014  0.3485  0.2947
  170MOL0     C22326   0.816   2.521   7.632  0.0892  0.3869  0.5445
  170MOL0     C22327   0.680   2.543   7.634  0.3360 -0.2003  0.6794
  170MOL0     C22328   0.600   2.544   7.761  0.4717 -0.2012 -0.5324
  170MOL0     C22329   0.624   2.675   7.834  0.6880 -0.1061 -0.3462
  170MOL0     C22330   0.525   2.691   7.943  0.3868  0.1276  0.8839
  170MOL0     C22331   0.527   2.585   8.053  0.1796  0.6599 -0.2177
  170MOL0     O22332   0.473   2.639   8.173  0.8967  0.1639 -0.3876
  170MOL0     C22333   0.339   2.603   8.191 -0.2920  0.0301 -0.7827
  170MOL0     C22334   0.300   2.608   8.325 -1.1904  0.3113 -0.1971
  170MOL0     C22335   0.177   2.561   8.369 -0.8369 -0.3922 -0.3824
  170MOL0     C22336   0.082   2.517   8.272  0.3330 -0.8175 -0.4416
  170MOL0     C22337  -0.048   2.459   8.312 -0.2665 -0.5535 -0.3282
  170MOL0     O22338  -0.092   2.469   8.438 -0.2060  0.5801 -0.3766
  170MOL0     C22339  -0.213   2.439   8.476  0.0283  0.8402 -0.5260
  170MOL0     C22340  -0.336   2.431   8.408 -0.3455 -0.8906 -0.0125
  170MOL0     C22341  -0.443   2.391   8.475  0.3963 -0.5008 -0.2421
  170MOL0     C22342  -0.436   2.357   8.611 -0.4277 -0.4501 -0.0241
  170MOL0     O22343  -0.546   2.312   8.672  0.0337  0.1059 -0.1153
  170MOL0     C22344  -0.574   2.378   8.794  0.0265  0.5258 -0.2288
  170MOL0     C22345  -0.734   2.387   8.799 -0.2478  0.2511 -0.5290
  170MOL0     C22346  -0.794   2.515   8.849  0.4604 -0.3459  0.1253
  170MOL0     C22347  -0.765   2.547   8.993  0.8478 -0.4015 -0.3842
  170MOL0     C22348  -0.876   2.639   9.052  0.1270  0.7558 -0.7006
  170MOL0     C22349  -0.904   2.765   8.979 -0.3212  0.2216 -0.5068
  170MOL0     C22350  -1.032   2.822   9.043 -0.7880 -0.7725  0.2234
  170MOL0     C22351  -1.079   2.941   8.968  0.5714 -0.9697 -0.1762
  170MOL0    Cl22352  -1.226   2.998   9.044 -0.4727 -0.2544  0.1728
  170MOL0     C22353  -0.315   2.368   8.687 -0.3678 -0.9333 -0.1927
  170MOL0     C22354  -0.206   2.412   8.613  0.0695 -0.2489  0.2563
  170MOL0     O22355  -0.108   2.405   8.218 -0.4253 -0.5672  0.0899
  170MOL0     C22356   0.120   2.517   8.135  0.1313  0.0920 -0.2662
  170MOL0     C22357   0.247   2.548   8.096 -0.1358  0.1015  0.4316
  170MOL0     N22358   0.640   2.559   7.501 -0.0197 -0.1118 -0.0534
  170MOL0     N22359   0.742   2.542   7.424  0.0504  0.0259  0.2536
  170MOL0     C22360   2.083   2.800   7.312 -0.0151 -0.2854  0.3300
  170MOL0     C22361   2.212   2.849   7.289  0.2639  0.2896 -0.0083
  170MOL0     C22362   2.661   2.888   7.293  0.1999 -0.9750  0.7582
  170MOL0     C22363   2.747   2.930   7.397  0.0873  0.2232  0.1457
  170MOL0     C22364   2.874   2.978   7.375 -0.3246 -0.4187  0.1919
  170MOL0     C22365   2.927   2.979   7.247 -0.3308 -0.1329  0.8855
  170MOL0     O22366   3.052   3.040   7.234  0.9153  0.6824 -0.0178
  170MOL0     C22367   3.110   3.067   7.107  0.0068 -0.3153 -0.0828
  170MOL0     C22368   3.244   3.131   7.128 -0.8955  0.5236  0.6348
  170MOL0     C22369   3.344   3.033   7.201 -0.0190  0.2158 -0.1038
  170MOL0     C22370   3.487   3.097   7.202  0.4209 -0.6328  0.0078
  170MOL0     C22371   3.604   3.019   7.240 -0.7470 -0.5957 -0.0227
  170MOL0     C22372   3.702   2.961   7.293  0.3636 -0.1128 -0.9633
  170MOL0     C22373   2.846   2.950   7.138 -0.6630 -0.3338  0.1424
  170MOL0     C22374   2.726   2.898   7.162  0.5238  0.0004  0.5266
  170MOL0     H22375   2.380   2.560   7.221  0.6273 -1.5570  3.5469
  170MOL0     H22376   2.153   2.471   7.267  1.5811 -0.6150  2.2684
  170MOL0     H22377   1.821   2.778   7.347 -0.2602 -0.4993 -1.7910
  170MOL0     H22378   1.868   2.682   7.494  0.5050  4.6752  0.3693
  170MOL0     H22379   1.730   2.486   7.418  1.1516 -0.9528  0.0111
  170MOL0     H22380   1.691   2.569   7.269 -2.3759  0.0907  1.1149
  170MOL0     H22381   1.606   2.766   7.395 -1.3046 -0.5816 -0.7845
  170MOL0     H22382   1.607   2.665   7.552  3.1486 -2.7902  0.1030
  170MOL0     H22383   1.449   2.614   7.290  0.1943 -1.1088 -0.3076
  170MOL0     H22384   1.496   2.500   7.426  2.3504  1.2295  1.2789
  170MOL0     H22385   1.323   2.750   7.440 -2.3226 -0.6241  1.0347
  170MOL0     H22386   1.382   2.669   7.587 -2.5994  0.1653  1.3803
  170MOL0     H22387   1.259   2.469   7.522  2.6546  0.5317  0.2275
  170MOL0     H22388   1.227   2.530   7.361 -0.4237  0.1788 -0.6578
  170MOL0     H22389   1.072   2.616   7.616  0.3157  2.2939 -0.0959
  170MOL0     H22390   1.077   2.704   7.464 -2.9715 -1.2023 -0.4401
  170MOL0     H22391   1.014   2.397   7.468  1.5885 -1.3041 -5.6959
  170MOL0     H22392   0.979   2.519   7.347 -2.3239 -0.3997  0.9580
  170MOL0     H22393   0.889   2.520   7.712  0.8027  0.9173 -0.0933
  170MOL0     H22394   0.630   2.462   7.827  1.9786  1.0112  0.3716
  170MOL0     H22395   0.494   2.528   7.738  0.2289 -0.0120  0.4360
  170MOL0     H22396   0.612   2.752   7.757 -1.2674  0.3119  0.3193
  170MOL0     H22397   0.723   2.689   7.878  0.1738  2.8224  0.1268
  170MOL0     H22398   0.534   2.790   7.988 -2.5066  1.3160 -0.8744
  170MOL0     H22399   0.424   2.695   7.903 -0.1771  2.5294  2.3873
  170MOL0     H22400   0.634   2.571   8.074  0.6346  0.7426 -2.2841
  170MOL0     H22401   0.489   2.487   8.024  2.5147 -0.1494 -0.8143
  170MOL0     H22402   0.367   2.642   8.403 -2.9677  0.9113  1.1226
  170MOL0     H22403   0.150   2.557   8.474 -0.3914  0.1037 -0.2419
  170MOL0     H22404  -0.330   2.447   8.301  1.3017  0.9647  0.2980
  170MOL0     H22405  -0.538   2.386   8.424 -1.0118  1.6392  1.9448
  170MOL0     H22406  -0.533   2.480   8.789 -3.7945  2.2314 -0.8635
  170MOL0     H22407  -0.536   2.321   8.879  0.6438  1.0629 -0.1339
  170MOL0     H22408  -0.772   2.303   8.858  0.1410  1.7834  2.0649
  170MOL0     H22409  -0.776   2.369   8.699 -0.5581 -0.1879 -0.3246
  170MOL0     H22410  -0.903   2.500   8.842  0.5388 -1.7231  1.3654
  170MOL0     H22411  -0.771   2.596   8.779  0.2069  0.4376  0.9357
  170MOL0     H22412  -0.768   2.454   9.051  3.6511  0.9168  2.1578
  170MOL0     H22413  -0.661   2.580   9.002 -0.5830  4.3178  1.6830
  170MOL0     H22414  -0.843   2.644   9.157  1.5814 -0.5739 -1.0505
  170MOL0     H22415  -0.971   2.584   9.052  0.1202  0.7625 -0.4772
  170MOL0     H22416  -0.921   2.732   8.877  0.4790 -2.1516  0.0516
  170MOL0     H22417  -0.815   2.829   8.981  2.3413 -3.2373 -0.3662
  170MOL0     H22418  -1.118   2.755   9.051  0.2562 -2.2127 -0.1732
  170MOL0     H22419  -1.007   2.841   9.148  2.5971 -0.3467 -0.5433
  170MOL0     H22420  -1.102   2.911   8.865  0.6978  0.2946 -0.5912
  170MOL0     H22421  -0.995   3.011   8.968  0.3102 -0.6426 -0.6456
  170MOL0     H22422  -0.316   2.349   8.794 -0.6860 -0.5690 -0.1269
  170MOL0     H22423  -0.109   2.422   8.662  1.2878  0.9039 -2.2347
  170MOL0     H22424   0.051   2.485   8.058  0.1335  0.8162 -0.5803
  170MOL0     H22425   0.274   2.522   7.994 -0.0498  0.4428  0.3667
  170MOL0     H22426   2.002   2.867   7.340  0.8659  2.1711 -2.5563
  170MOL0     H22427   2.228   2.957   7.290  0.0757  0.3197  1.3604
  170MOL0     H22428   2.707   2.936   7.498 -2.6220  1.4060 -0.9274
  170MOL0     H22429   2.931   3.014   7.460  0.3824  0.7701 -0.7519
  170MOL0     H22430   3.037   3.120   7.045 -0.8518 -0.5710  0.6928
  170MOL0     H22431   3.128   2.975   7.051  0.2432 -0.0774 -0.3999
  170MOL0     H22432   3.289   3.156   7.031 -2.7121 -2.7486 -1.2281
  170MOL0     H22433   3.237   3.223   7.186 -2.3605  0.6187  0.3346
  170MOL0     H22434   3.342   2.944   7.138 -0.1435  1.3867 -1.8313
  170MOL0     H22435   3.307   3.013   7.302 -0.3484 -2.1906 -0.6319
  170MOL0     H22436   3.515   3.136   7.104 -2.9199 -1.6440 -1.5106
  170MOL0     H22437   3.484   3.176   7.277  2.4483 -2.4978  2.2242
  170MOL0     H22438   3.783   2.916   7.346 -2.1309 -2.6839  0.9497
  170MOL0     H22439   2.883   2.949   7.036  0.5873  0.6706  0.5639
  170MOL0     H22440   2.689   2.845   7.075  1.5864 -1.1958  0.7710
  171MOL0     O22441   6.240   3.873   6.384  0.1674  0.1815 -0.6794
  171MOL0     C22442   6.208   3.755   6.350  0.1916 -0.9566 -0.2826
  171MOL0     O22443   6.292   3.665   6.293 -0.1007 -0.4458 -0.2177
  171MOL0     C22444   6.421   3.716   6.269  0.3367  0.3451 -0.4351
  171MOL0     C22445   6.451   3.757   6.133 -0.4580  0.1561  0.2464
  171MOL0     C22446   6.577   3.794   6.112 -0.1863 -0.5441 -0.0208
  171MOL0     C22447   6.677   3.802   6.210  0.3808  0.2869  0.1923
  171MOL0     O22448   6.806   3.835   6.179  0.1223 -0.1540 -0.2801
  171MOL0     C22449   6.905   3.850   6.282 -0.8422  0.2198 -0.3921
  171MOL0     C22450   7.021   3.902   6.209  0.3925  0.8989  0.2385
  171MOL0     C22451   7.152   3.910   6.292  0.1237 -1.1598  0.2829
  171MOL0     C22452   7.219   3.772   6.295 -0.0398 -0.6980  0.2700
  171MOL0     C22453   7.300   3.747   6.424 -0.1554  0.3462  0.3149
  171MOL0     C22454   7.401   3.857   6.445 -0.4574 -0.8637  0.2621
  171MOL0     C22455   7.504   3.813   6.548 -0.5331  0.2839  0.4472
  171MOL0     C22456   7.640   3.899   6.536  0.0213  0.5536 -0.6786
  171MOL0     N22457   7.706   3.874   6.408  1.0787  0.0985  0.0865
  171MOL0     C22458   7.725   3.756   6.347 -0.8205 -0.2439 -0.3482
  171MOL0     C22459   7.786   3.790   6.227  0.2818  0.4552 -0.2990
  171MOL0     C22460   7.832   3.687   6.120 -0.0499  0.5229  0.0388
  171MOL0     C22461   7.712   3.614   6.052  0.0040  0.2202  0.4475
  171MOL0     C22462   7.599   3.713   6.020 -0.0325 -0.1440  0.0611
  171MOL0     C22463   7.472   3.657   5.958 -0.2132 -0.6049  0.5139
  171MOL0     O22464   7.500   3.603   5.831 -0.3559 -0.0844 -0.0362
  171MOL0     C22465   7.403   3.530   5.769  0.1311 -0.2556  0.4535
  171MOL0     C22466   7.297   3.470   5.832 -0.1836  0.1068 -1.0809
  171MOL0     C22467   7.209   3.394   5.761  0.5119 -0.2321 -0.5296
  171MOL0     C22468   7.223   3.363   5.620 -0.2473 -0.7042 -0.5946
  171MOL0     C22469   7.123   3.282   5.544 -0.0488  0.9648  0.3124
  171MOL0     O22470   7.018   3.244   5.609  0.2146  0.0083 -0.3136
  171MOL0     C22471   6.885   3.246   5.563 -0.2526 -0.4036 -0.8951
  171MOL0     C22472   6.845   3.288   5.436 -0.5282 -0.3337  0.2680
  171MOL0     C22473   6.715   3.276   5.399  0.0352  0.3988  0.1307
  171MOL0     C22474   6.612   3.226   5.481 -0.7696  0.1351  0.8432
  171MOL0     O22475   6.499   3.207   5.417  0.7146 -0.2006  0.2051
  171MOL0     C22476   6.387   3.168   5.492 -0.0946  0.0568 -0.2079
  171MOL0     C22477   6.254   3.164   5.405 -0.0262 -0.2677 -0.9314
  171MOL0     C22478   6.149   3.115   5.492  0.2520 -0.1063  0.1187
  171MOL0     C22479   6.016   3.136   5.425  0.2066 -0.0377 -0.1951
  171MOL0     C22480   5.897   3.115   5.515 -0.8666 -0.2503 -0.3940
  171MOL0     C22481   5.772   3.169   5.441 -0.2953  0.2917  0.1309
  171MOL0     C22482   5.638   3.133   5.516 -0.5350 -0.5343  0.6390
  171MOL0     C22483   5.530   3.181   5.433 -0.0205  0.3368 -0.0028
  171MOL0    Cl22484   5.493   3.344   5.465 -0.3198  0.2510 -0.2930
  171MOL0     C22485   6.648   3.189   5.607 -0.4139 -0.0796 -0.1680
  171MOL0     C22486   6.788   3.203   5.657  0.3806  0.2599  0.2409
  171MOL0     O22487   7.135   3.263   5.422 -0.0927 -0.0322  0.3103
  171MOL0     C22488   7.337   3.420   5.559  0.4834  0.1861 -0.4742
  171MOL0     C22489   7.422   3.504   5.636 -0.6192  1.0976  0.2638
  171MOL0     N22490   7.802   3.923   6.216 -0.2107  0.0368  0.2406
  171MOL0     N22491   7.756   3.971   6.325  0.5425 -0.8429  0.0304
  171MOL0     C22492   6.635   3.776   6.343 -0.4984  0.2633  0.1058
  171MOL0     C22493   6.510   3.733   6.373  0.7275  0.3843 -0.0330
  171MOL0     C22494   6.065   3.719   6.365  1.6090  0.2812 -0.1879
  171MOL0     C22495   6.011   3.591   6.320 -0.7248 -0.3118 -0.2763
  171MOL0     C22496   5.875   3.556   6.332 -0.0907  0.2033 -0.3731
  171MOL0     C22497   5.787   3.650   6.385 -0.3737  0.1046 -0.1269
  171MOL0     O22498   5.655   3.619   6.391  0.4436 -0.3103 -1.0979
  171MOL0     C22499   5.569   3.689   6.297 -0.0091 -1.0555 -0.5516
  171MOL0     C22500   5.464   3.788   6.350 -1.2093 -0.8195 -0.2704
  171MOL0     C22501   5.383   3.714   6.458 -0.7058 -0.2067 -0.1357
  171MOL0     C22502   5.278   3.799   6.510  1.0852 -0.3247 -0.3273
  171MOL0     C22503   5.166   3.838   6.414 -0.0866 -0.4330 -0.0546
  171MOL0     C22504   5.074   3.871   6.341  0.6968 -0.3547  0.4009
  171MOL0     C22505   5.835   3.773   6.425 -0.0535 -0.0794  0.1442
  171MOL0     C22506   5.970   3.807   6.414  0.4121 -0.0121 -0.7103
  171MOL0     H22507   6.377   3.751   6.053 -2.8256  1.7582  2.1643
  171MOL0     H22508   6.600   3.827   6.012  2.0759 -3.1611 -0.4827
  171MOL0     H22509   6.919   3.748   6.319 -1.8467  0.7187  1.4957
  171MOL0     H22510   6.865   3.921   6.355 -0.9611 -0.7966  0.5575
  171MOL0     H22511   6.993   4.004   6.182  1.3511  1.6967  2.0885
  171MOL0     H22512   7.043   3.857   6.112  4.0898  2.6772  0.0731
  171MOL0     H22513   7.130   3.946   6.393  0.6974  0.7022 -0.2251
  171MOL0     H22514   7.220   3.987   6.255 -1.9764 -0.1451 -1.7064
  171MOL0     H22515   7.144   3.694   6.280  1.4700 -1.6504 -3.1906
  171MOL0     H22516   7.283   3.761   6.208  1.7934 -0.7435  1.5636
  171MOL0     H22517   7.347   3.649   6.409 -1.8590 -0.4688  0.0878
  171MOL0     H22518   7.228   3.732   6.504  0.2924  1.2613  0.9008
  171MOL0     H22519   7.347   3.946   6.479  2.5894 -0.1609  3.9621
  171MOL0     H22520   7.455   3.879   6.353 -1.2857  0.7212  0.1236
  171MOL0     H22521   7.472   3.827   6.651 -0.2862 -1.0095  0.7208
  171MOL0     H22522   7.515   3.704   6.538  0.1054  0.4601 -1.0138
  171MOL0     H22523   7.711   3.863   6.611  2.2975  1.5733 -2.2483
  171MOL0     H22524   7.618   4.004   6.558 -2.4955  0.0068 -0.3545
  171MOL0     H22525   7.688   3.658   6.376 -2.0748  0.3806  0.2151
  171MOL0     H22526   7.907   3.617   6.158 -1.3922 -0.5202  0.9000
  171MOL0     H22527   7.894   3.726   6.038 -0.5890 -2.6430 -2.0534
  171MOL0     H22528   7.672   3.533   6.114  0.8572 -2.7084 -2.4950
  171MOL0     H22529   7.747   3.573   5.956  2.4482  1.8559  0.5699
  171MOL0     H22530   7.569   3.773   6.107 -0.4900  1.4098 -1.1271
  171MOL0     H22531   7.645   3.775   5.942  1.2344 -0.7617  0.2902
  171MOL0     H22532   7.397   3.736   5.951 -0.8191 -1.2317 -0.2853
  171MOL0     H22533   7.428   3.576   6.017 -0.3604  0.1744  1.4763
  171MOL0     H22534   7.265   3.502   5.931  0.7092 -0.9876 -0.4079
  171MOL0     H22535   7.117   3.363   5.810 -0.3753  1.3882 -1.0847
  171MOL0     H22536   6.910   3.337   5.364 -2.7800 -0.8097 -2.2647
  171MOL0     H22537   6.678   3.316   5.304 -0.1006 -0.3722 -0.1441
  171MOL0     H22538   6.361   3.240   5.569 -2.2181  0.6183 -1.3744
  171MOL0     H22539   6.398   3.067   5.532 -0.9794  0.1615  0.3156
  171MOL0     H22540   6.276   3.092   5.326  0.5353 -1.0756 -0.0728
  171MOL0     H22541   6.227   3.262   5.367  0.2623 -0.4701 -1.6763
  171MOL0     H22542   6.145   3.171   5.586 -1.1563  1.0043 -0.5620
  171MOL0     H22543   6.168   3.012   5.525 -4.2902 -0.9758  0.6958
  171MOL0     H22544   6.009   3.242   5.398 -1.1594  0.7899  2.9021
  171MOL0     H22545   6.003   3.068   5.341 -2.1786  0.7027 -0.4998
  171MOL0     H22546   5.910   3.173   5.606 -1.0978  0.8018 -1.0179
  171MOL0     H22547   5.893   3.012   5.553  1.2301 -1.0296 -2.0889
  171MOL0     H22548   5.777   3.132   5.338  1.3476  4.5956 -1.5686
  171MOL0     H22549   5.779   3.278   5.438  0.6550  0.2203 -0.4944
  171MOL0     H22550   5.635   3.025   5.530  1.7754 -0.6251  0.8311
  171MOL0     H22551   5.637   3.179   5.615 -0.3700 -2.7904  1.7440
  171MOL0     H22552   5.435   3.136   5.463  0.7225  0.1388  2.2664
  171MOL0     H22553   5.549   3.168   5.326 -0.2709  0.1761 -0.0287
  171MOL0     H22554   6.563   3.156   5.667 -1.6110  2.5607 -0.2569
  171MOL0     H22555   6.805   3.184   5.762 -0.1035  0.3335  0.3359
  171MOL0     H22556   7.365   3.381   5.462  1.4247 -1.8323  0.5341
  171MOL0     H22557   7.513   3.541   5.591 -0.5678 -1.5126 -2.0129
  171MOL0     H22558   6.706   3.781   6.425 -0.1539 -1.3993 -0.0564
  171MOL0     H22559   6.483   3.706   6.474  2.9667 -1.9706  0.0370
  171MOL0     H22560   6.093   3.524   6.293  3.1911  3.0001  2.1244
  171MOL0     H22561   5.828   3.462   6.303 -0.1823  0.0183  0.3424
  171MOL0     H22562   5.507   3.618   6.241 -1.5945  1.8992 -2.7739
  171MOL0     H22563   5.629   3.744   6.224 -2.8304  3.5381  0.2501
  171MOL0     H22564   5.508   3.876   6.399  0.0567 -1.0829 -0.8885
  171MOL0     H22565   5.396   3.809   6.268  0.3208  0.1754 -1.3431
  171MOL0     H22566   5.449   3.692   6.543 -1.3581 -1.6676  0.0202
  171MOL0     H22567   5.341   3.625   6.412  0.2793 -0.0403 -1.3876
  171MOL0     H22568   5.230   3.748   6.594 -1.2314  1.0179 -0.7466
  171MOL0     H22569   5.322   3.892   6.548  1.8674 -1.0584  0.5854
  171MOL0     H22570   4.991   3.898   6.279 -0.5566 -2.5406  1.0252
  171MOL0     H22571   5.768   3.849   6.464 -1.2482 -1.2471  0.4838
  171MOL0     H22572   6.004   3.898   6.463 -0.9053  0.0152  0.2030
  172MOL0     O22573   0.323   2.810   4.621  0.0577  0.7664 -0.9491
  172MOL0     C22574   0.405   2.853   4.703  0.2536  0.3558 -0.4376
  172MOL0     O22575   0.379   2.945   4.799 -0.4211  0.5028  0.1197
  172MOL0     C22576   0.255   3.011   4.792  0.7007  0.3700  0.5815
  172MOL0     C22577   0.167   3.014   4.901 -0.5731  0.0926  0.1148
  172MOL0     C22578   0.047   3.084   4.894  0.3885 -1.1146  0.4471
  172MOL0     C22579   0.017   3.169   4.783  0.4453  0.4850 -0.9029
  172MOL0     O22580  -0.105   3.236   4.788  0.0385 -0.1045 -0.2743
  172MOL0     C22581  -0.143   3.304   4.668  0.1398 -0.1623 -0.4255
  172MOL0     C22582  -0.267   3.388   4.707 -0.4626  0.3369  0.5605
  172MOL0     C22583  -0.347   3.427   4.591 -0.2168  0.0860 -0.0457
  172MOL0     C22584  -0.473   3.502   4.625 -0.3200  0.3892  0.6090
  172MOL0     C22585  -0.456   3.644   4.673 -0.2276 -0.0974 -0.1432
  172MOL0     C22586  -0.583   3.712   4.705 -0.2130  0.0356 -1.0387
  172MOL0     C22587  -0.579   3.861   4.746  1.4637  0.6649  0.3433
  172MOL0     C22588  -0.530   3.883   4.890 -0.3596 -1.0301  0.0247
  172MOL0     N22589  -0.611   3.802   4.990  0.8058 -0.1200  0.0828
  172MOL0     C22590  -0.572   3.686   5.044  0.5288  0.2590 -0.8523
  172MOL0     C22591  -0.684   3.627   5.095  0.5637  0.3819  0.1678
  172MOL0     C22592  -0.662   3.478   5.137  0.4447  0.7077  0.3809
  172MOL0     C22593  -0.793   3.401   5.119  0.1821  0.4928  0.2697
  172MOL0     C22594  -0.844   3.410   4.973 -0.1642  0.1805 -0.1942
  172MOL0     C22595  -0.761   3.322   4.868  0.4795 -0.3795 -0.6661
  172MOL0     O22596  -0.782   3.184   4.879  0.6758  0.3710 -0.9002
  172MOL0     C22597  -0.672   3.116   4.836  0.4243 -0.7418 -0.9666
  172MOL0     C22598  -0.667   3.079   4.700 -0.3982 -0.0058 -0.3371
  172MOL0     C22599  -0.547   3.030   4.650  0.2883  0.0971  0.3545
  172MOL0     C22600  -0.438   3.012   4.736  0.3526 -0.0211 -0.0943
  172MOL0     C22601  -0.315   2.959   4.680  0.6693  0.0494 -0.0071
  172MOL0     O22602  -0.296   2.987   4.546  0.6739 -0.1248 -0.0293
  172MOL0     C22603  -0.213   2.911   4.474 -0.8693 -0.1649  0.4719
  172MOL0     C22604  -0.078   2.899   4.509  0.0666 -0.1854 -0.0265
  172MOL0     C22605   0.007   2.818   4.438 -0.3443 -1.1964 -0.1857
  172MOL0     C22606  -0.031   2.763   4.312  0.3608  0.2033 -0.5358
  172MOL0     O22607   0.058   2.706   4.234  0.4525  0.4700  0.1796
  172MOL0     C22608   0.167   2.639   4.301 -0.2014  0.8099  0.2911
  172MOL0     C22609   0.257   2.589   4.190 -1.2046  0.6586  0.1459
  172MOL0     C22610   0.408   2.546   4.239  0.6184 -0.1347 -0.3072
  172MOL0     C22611   0.470   2.469   4.118 -0.1477 -0.7395 -0.9492
  172MOL0     C22612   0.618   2.444   4.155 -0.2848  0.0070  0.1618
  172MOL0     C22613   0.698   2.380   4.038  0.2159  1.0426 -0.7980
  172MOL0     C22614   0.643   2.237   4.002 -0.1154  0.0165 -0.1593
  172MOL0     C22615   0.734   2.180   3.894  0.8321  0.2449  0.5180
  172MOL0    Cl22616   0.727   2.258   3.732  0.1672 -0.1156  0.3570
  172MOL0     C22617  -0.165   2.782   4.275 -0.1737  0.2733  0.7783
  172MOL0     C22618  -0.255   2.855   4.355 -0.4737  0.0438  0.0564
  172MOL0     O22619  -0.232   2.902   4.746  0.4736 -0.0301 -0.9515
  172MOL0     C22620  -0.447   3.042   4.873 -0.6775 -0.2195 -0.0193
  172MOL0     C22621  -0.565   3.106   4.919  0.3044 -0.6594  0.7496
  172MOL0     N22622  -0.788   3.715   5.072  0.2231 -0.7581 -0.6226
  172MOL0     N22623  -0.748   3.811   5.000 -0.3376 -0.0009 -0.2273
  172MOL0     C22624   0.105   3.164   4.673  0.9061  0.2664 -0.0704
  172MOL0     C22625   0.220   3.084   4.674  0.4636  0.2978 -0.3828
  172MOL0     C22626   0.543   2.811   4.695  0.1398 -0.3491  0.2308
  172MOL0     C22627   0.629   2.838   4.800  0.3912  0.6245 -0.3441
  172MOL0     C22628   0.762   2.800   4.794 -0.3514 -0.0745 -0.5689
  172MOL0     C22629   0.818   2.729   4.685 -0.2222  0.5691 -0.2421
  172MOL0     O22630   0.955   2.722   4.684 -0.0054  0.5323 -0.0308
  172MOL0     C22631   1.011   2.618   4.605 -0.6169 -0.2514 -0.3655
  172MOL0     C22632   1.162   2.610   4.647 -0.2110 -0.1824 -0.2048
  172MOL0     C22633   1.247   2.706   4.562 -1.2579 -0.9139  0.8238
  172MOL0     C22634   1.398   2.688   4.608 -0.0363  0.5947  1.0528
  172MOL0     C22635   1.429   2.746   4.730 -0.1779 -0.0763 -0.7374
  172MOL0     C22636   1.449   2.814   4.829  0.4710  0.5463 -0.1550
  172MOL0     C22637   0.731   2.698   4.574 -0.2586 -0.3496 -0.0790
  172MOL0     C22638   0.600   2.738   4.582  0.1206 -0.5035 -0.8814
  172MOL0     H22639   0.198   2.970   4.995 -2.9580  0.8519  1.3460
  172MOL0     H22640  -0.015   3.070   4.982 -0.2815 -1.2331 -0.0403
  172MOL0     H22641  -0.154   3.232   4.586  0.8570 -2.1151  1.1116
  172MOL0     H22642  -0.063   3.372   4.639  0.3013 -0.7078 -1.2903
  172MOL0     H22643  -0.234   3.474   4.766  1.3736 -1.0117  1.6148
  172MOL0     H22644  -0.328   3.321   4.768  0.3457  0.0198  1.0294
  172MOL0     H22645  -0.370   3.340   4.528  0.1591 -1.7016  2.1744
  172MOL0     H22646  -0.285   3.497   4.534  1.8201 -1.0893  0.6144
  172MOL0     H22647  -0.542   3.508   4.540  1.4284  1.4375 -0.8064
  172MOL0     H22648  -0.526   3.448   4.704  1.6722  0.2922  1.9281
  172MOL0     H22649  -0.404   3.703   4.597  0.4740  0.4031  0.7074
  172MOL0     H22650  -0.400   3.644   4.767 -1.4425 -1.4017  0.6216
  172MOL0     H22651  -0.645   3.652   4.772  0.4207  0.0617 -0.4217
  172MOL0     H22652  -0.650   3.709   4.619 -1.1674 -2.5303 -0.2867
  172MOL0     H22653  -0.510   3.909   4.676 -2.0098  1.5898 -2.7766
  172MOL0     H22654  -0.673   3.912   4.725 -0.5447 -1.8788  2.4514
  172MOL0     H22655  -0.556   3.988   4.907  1.9019 -0.6750  1.8307
  172MOL0     H22656  -0.428   3.847   4.907 -0.4396 -1.0161  0.5632
  172MOL0     H22657  -0.467   3.659   5.042  1.0559  1.7831  1.5827
  172MOL0     H22658  -0.632   3.464   5.241 -3.5894 -1.4358  1.4688
  172MOL0     H22659  -0.574   3.444   5.081  0.8567 -1.7765  2.3791
  172MOL0     H22660  -0.868   3.445   5.185  0.9077  1.6968  0.3271
  172MOL0     H22661  -0.784   3.293   5.132 -1.4855  0.0281 -1.9956
  172MOL0     H22662  -0.948   3.377   4.961  0.3038 -0.5490 -2.9019
  172MOL0     H22663  -0.855   3.517   4.953  0.6866  0.8370  2.3690
  172MOL0     H22664  -0.656   3.346   4.883  0.0962 -0.1843  2.2823
  172MOL0     H22665  -0.784   3.371   4.772 -1.2264  2.5152  1.0395
  172MOL0     H22666  -0.748   3.101   4.631  0.8358  0.2071 -1.7936
  172MOL0     H22667  -0.532   3.008   4.545 -0.2163 -2.2565  0.7212
  172MOL0     H22668  -0.043   2.947   4.599 -0.1718 -2.6795  1.4890
  172MOL0     H22669   0.105   2.806   4.483 -0.2885 -0.4527 -0.0959
  172MOL0     H22670   0.126   2.557   4.361 -0.2830  0.6799  0.0590
  172MOL0     H22671   0.236   2.699   4.361  1.2230 -0.5842  0.1266
  172MOL0     H22672   0.269   2.656   4.105 -0.7187  1.0851  0.5454
  172MOL0     H22673   0.207   2.498   4.154  1.0371 -0.1889 -1.0273
  172MOL0     H22674   0.420   2.494   4.334 -0.5732  0.1133 -0.0079
  172MOL0     H22675   0.466   2.637   4.256  1.3692 -0.9728  2.0347
  172MOL0     H22676   0.406   2.385   4.090 -1.4972 -0.8530  2.1050
  172MOL0     H22677   0.471   2.532   4.028  0.9738 -0.6185 -0.8708
  172MOL0     H22678   0.632   2.387   4.247 -0.7176 -0.6074 -0.1420
  172MOL0     H22679   0.675   2.537   4.163  0.5405  0.3024 -5.0557
  172MOL0     H22680   0.803   2.365   4.066 -0.8034 -2.1340  2.0307
  172MOL0     H22681   0.690   2.446   3.951 -1.0970  2.6699  0.4845
  172MOL0     H22682   0.654   2.164   4.083 -1.4041 -1.5825 -1.3560
  172MOL0     H22683   0.539   2.233   3.968 -0.2447  0.2504  0.2039
  172MOL0     H22684   0.696   2.078   3.885 -1.6113  1.1573 -0.3605
  172MOL0     H22685   0.838   2.181   3.927  1.5403 -4.6405 -0.7283
  172MOL0     H22686  -0.193   2.731   4.183  0.3098 -1.0096  1.3098
  172MOL0     H22687  -0.362   2.862   4.340 -0.6259 -1.5685  0.1650
  172MOL0     H22688  -0.370   3.008   4.941 -2.0694 -2.9464  0.3344
  172MOL0     H22689  -0.577   3.134   5.023  0.2762  0.2586  0.5140
  172MOL0     H22690   0.086   3.226   4.586  1.8202  0.5557 -0.0700
  172MOL0     H22691   0.291   3.085   4.593  0.0849  0.1590 -0.7229
  172MOL0     H22692   0.598   2.883   4.894 -0.5559  2.1488 -1.3343
  172MOL0     H22693   0.830   2.832   4.873  0.3574 -1.6980 -0.4836
  172MOL0     H22694   1.003   2.643   4.498  2.7886  0.6088 -0.5350
  172MOL0     H22695   0.959   2.526   4.635 -0.6521  1.0240  4.1518
  172MOL0     H22696   1.176   2.636   4.753 -1.0890 -0.9362  0.1079
  172MOL0     H22697   1.194   2.508   4.627 -2.1555 -1.1181  1.1554
  172MOL0     H22698   1.213   2.809   4.570 -0.2837 -0.4454 -0.6706
  172MOL0     H22699   1.237   2.677   4.457  1.0941 -2.1891  0.8850
  172MOL0     H22700   1.426   2.582   4.608 -1.8654 -0.1695  5.7738
  172MOL0     H22701   1.461   2.741   4.536  1.7688 -0.9677  1.4122
  172MOL0     H22702   1.463   2.869   4.919 -1.5683 -0.1814  0.6905
  172MOL0     H22703   0.766   2.645   4.485 -1.2403  0.4405 -0.9579
  172MOL0     H22704   0.534   2.717   4.499 -1.0671  0.5582 -0.2364
  173MOL0     O22705   0.482   2.244   2.661  0.1696  0.9304 -0.1957
  173MOL0     C22706   0.487   2.178   2.767 -0.1196  0.3601  1.1860
  173MOL0     O22707   0.391   2.177   2.863 -0.3149 -0.4398 -1.0744
  173MOL0     C22708   0.276   2.254   2.869 -0.4368  0.3493  0.4594
  173MOL0     C22709   0.168   2.213   2.948  0.0490 -0.5261 -0.1101
  173MOL0     C22710   0.062   2.297   2.977 -0.8330  0.1138  0.3942
  173MOL0     C22711   0.060   2.435   2.923 -0.3788 -0.6259 -0.3582
  173MOL0     O22712  -0.033   2.531   2.949 -0.3836  0.1311  0.3510
  173MOL0     C22713  -0.142   2.486   3.027  0.7825  0.3034 -0.1914
  173MOL0     C22714  -0.248   2.601   3.051 -0.5860  0.3477 -0.2698
  173MOL0     C22715  -0.367   2.608   2.941  0.1849  1.0671 -0.2705
  173MOL0     C22716  -0.488   2.680   2.979  0.3161  0.2643 -0.4257
  173MOL0     C22717  -0.600   2.659   2.880  0.4068  0.9365 -0.2966
  173MOL0     C22718  -0.714   2.750   2.896 -0.0020 -0.0284 -0.2209
  173MOL0     C22719  -0.813   2.765   2.782  0.2251 -0.1186  0.2888
  173MOL0     C22720  -0.938   2.678   2.808  0.6771 -0.3809 -0.5273
  173MOL0     N22721  -1.027   2.690   2.692 -0.4103  0.3070 -0.2532
  173MOL0     C22722  -1.123   2.787   2.677 -0.6022  0.5580 -0.0821
  173MOL0     C22723  -1.148   2.769   2.544  0.5577 -0.4803 -0.1145
  173MOL0     C22724  -1.246   2.859   2.480  0.3611 -0.4638  1.0169
  173MOL0     C22725  -1.381   2.798   2.432  0.6156 -0.2175  0.3182
  173MOL0     C22726  -1.374   2.722   2.299  0.5844 -0.2171 -0.0749
  173MOL0     C22727  -1.512   2.746   2.221 -0.1725  0.3920 -0.1137
  173MOL0     O22728  -1.617   2.682   2.298 -0.0756  0.2330  0.2493
  173MOL0     C22729  -1.748   2.714   2.266  0.2702  0.2209  0.8346
  173MOL0     C22730  -1.791   2.815   2.179  1.1698 -0.3413 -0.0117
  173MOL0     C22731  -1.931   2.826   2.169  0.0343  0.2118 -0.1037
  173MOL0     C22732  -2.024   2.732   2.223  0.7745 -0.2429  0.3861
  173MOL0     C22733  -2.173   2.747   2.216  0.3842  0.1484 -0.0372
  173MOL0     O22734  -2.225   2.846   2.129  0.1896  0.4377 -0.1720
  173MOL0     C22735  -2.357   2.870   2.126  0.1783  0.1872  0.0964
  173MOL0     C22736  -2.402   2.999   2.134  0.6582  0.2002 -0.3386
  173MOL0     C22737  -2.537   3.034   2.106  0.3494  0.4515 -0.1373
  173MOL0     C22738  -2.625   2.929   2.066 -0.4103  0.2572  0.0208
  173MOL0     O22739  -2.760   2.944   2.046 -0.3620  0.7892  0.4050
  173MOL0     C22740  -2.812   3.081   2.028  0.2362  1.1207 -0.0528
  173MOL0     C22741  -2.962   3.043   2.029  0.2928 -0.7061  0.1732
  173MOL0     C22742  -3.060   3.150   1.990 -0.1345 -0.2921 -0.1359
  173MOL0     C22743  -3.202   3.111   2.021 -0.0592  0.4212  0.6305
  173MOL0     C22744  -3.299   3.216   1.966 -0.2555  0.1057 -0.2024
  173MOL0     C22745  -3.434   3.164   2.004  0.3135  0.5009 -0.4597
  173MOL0     C22746  -3.537   3.250   1.949  0.0234 -0.3140 -0.1021
  173MOL0     C22747  -3.677   3.194   1.979 -0.2111  0.8005  0.6266
  173MOL0    Cl22748  -3.714   3.064   1.864  0.4799  0.1209 -0.1029
  173MOL0     C22749  -2.581   2.792   2.076 -0.1846  0.5422 -0.3139
  173MOL0     C22750  -2.450   2.761   2.101 -0.9584 -0.5975  0.2290
  173MOL0     O22751  -2.243   2.673   2.290 -0.1359 -0.1160  0.3786
  173MOL0     C22752  -1.977   2.631   2.297 -0.4020  0.0736  0.9018
  173MOL0     C22753  -1.840   2.624   2.320  0.2069 -0.9297  0.2690
  173MOL0     N22754  -1.077   2.663   2.494  0.5840  0.3197  0.4031
  173MOL0     N22755  -1.005   2.618   2.582 -0.9168 -1.2631  0.2517
  173MOL0     C22756   0.163   2.469   2.837 -0.0358 -0.8028  0.4665
  173MOL0     C22757   0.272   2.383   2.816 -0.1389 -0.3812 -0.3345
  173MOL0     C22758   0.614   2.100   2.787 -0.5268  0.1005  0.5125
  173MOL0     C22759   0.718   2.094   2.690 -0.2709 -0.1433 -0.7950
  173MOL0     C22760   0.831   2.012   2.716 -0.6965  0.9044  0.0151
  173MOL0     C22761   0.841   1.927   2.827  1.1773  0.3849  0.3279
  173MOL0     O22762   0.954   1.850   2.830 -0.0171 -0.8113 -0.6095
  173MOL0     C22763   0.983   1.781   2.947  0.1334  0.1840  0.3542
  173MOL0     C22764   1.039   1.862   3.062 -0.4193  0.4452  0.2732
  173MOL0     C22765   1.132   1.981   3.025  0.0267  0.2133 -0.5459
  173MOL0     C22766   1.247   1.926   2.936 -0.0992 -0.8232 -0.2774
  173MOL0     C22767   1.345   1.850   3.008 -0.2532 -0.1968 -0.1051
  173MOL0     C22768   1.440   1.789   3.057  0.0145  0.0227  0.2681
  173MOL0     C22769   0.733   1.922   2.919 -0.9431 -0.1641  0.2230
  173MOL0     C22770   0.622   2.016   2.901 -0.1346 -0.1253 -0.3740
  173MOL0     H22771   0.197   2.117   2.990  0.7701 -1.2385 -2.0824
  173MOL0     H22772  -0.017   2.265   3.043  1.1770  0.7451  3.3152
  173MOL0     H22773  -0.117   2.451   3.127 -3.3666 -1.1660  0.5534
  173MOL0     H22774  -0.194   2.399   2.985  0.2641  0.8249 -0.6604
  173MOL0     H22775  -0.204   2.701   3.047  0.3246  0.0184  0.9110
  173MOL0     H22776  -0.286   2.586   3.152  2.9425 -2.6948  0.8361
  173MOL0     H22777  -0.402   2.509   2.913  1.9983  0.2185  0.3195
  173MOL0     H22778  -0.335   2.662   2.852 -0.9234  0.9144 -0.7846
  173MOL0     H22779  -0.520   2.631   3.072  0.7012 -0.3648 -0.6237
  173MOL0     H22780  -0.461   2.785   2.989  2.0839 -0.2275  0.3636
  173MOL0     H22781  -0.635   2.556   2.871 -2.1797  1.5167  1.7945
  173MOL0     H22782  -0.564   2.681   2.779  2.8838  0.2401  0.3803
  173MOL0     H22783  -0.672   2.847   2.925  1.9855 -1.1703  1.0026
  173MOL0     H22784  -0.773   2.717   2.982  1.2341  0.0551  0.6928
  173MOL0     H22785  -0.836   2.871   2.778  1.5157  0.3253  2.7227
  173MOL0     H22786  -0.766   2.731   2.689  0.3498 -0.1876  0.3767
  173MOL0     H22787  -0.981   2.709   2.903  0.2955  1.6957 -1.3226
  173MOL0     H22788  -0.910   2.574   2.829  6.9748  1.0776  0.1632
  173MOL0     H22789  -1.165   2.860   2.745 -0.6259 -0.3231  0.8576
  173MOL0     H22790  -1.204   2.892   2.385 -1.1967 -0.4012  0.3386
  173MOL0     H22791  -1.261   2.942   2.550 -1.2365  0.2331 -0.1007
  173MOL0     H22792  -1.447   2.884   2.415  1.9567  0.7371 -0.2791
  173MOL0     H22793  -1.416   2.735   2.514  2.0628  1.9381  2.7767
  173MOL0     H22794  -1.295   2.772   2.241 -0.2966  0.7012 -0.5198
  173MOL0     H22795  -1.366   2.614   2.315 -1.1509 -0.2072  1.0487
  173MOL0     H22796  -1.499   2.714   2.117  2.1156 -1.2977  0.6230
  173MOL0     H22797  -1.526   2.855   2.215 -1.0208  0.2281 -1.4350
  173MOL0     H22798  -1.733   2.892   2.130  1.6999  0.7364  2.2113
  173MOL0     H22799  -1.967   2.906   2.106  0.3537 -0.0133 -0.5808
  173MOL0     H22800  -2.334   3.083   2.139  0.5867  0.2701 -0.5350
  173MOL0     H22801  -2.574   3.136   2.105  0.2397  0.4147  0.0534
  173MOL0     H22802  -2.779   3.125   1.933 -0.1971  4.0444  1.0281
  173MOL0     H22803  -2.794   3.151   2.111 -3.9972  0.0721  2.0336
  173MOL0     H22804  -2.980   3.031   2.136 -5.5267  3.9175  0.1877
  173MOL0     H22805  -2.984   2.958   1.963 -0.7422 -0.1931 -0.1588
  173MOL0     H22806  -3.061   3.159   1.881 -0.2549 -1.5578 -0.2567
  173MOL0     H22807  -3.046   3.246   2.040 -2.3634 -1.7609  3.7703
  173MOL0     H22808  -3.221   3.017   1.968 -0.5692  1.3270 -0.8276
  173MOL0     H22809  -3.224   3.103   2.128 -2.4087  2.3694  0.3850
  173MOL0     H22810  -3.286   3.217   1.858 -0.9976 -3.8011 -0.4859
  173MOL0     H22811  -3.287   3.309   2.022 -1.6443 -1.4726  2.9730
  173MOL0     H22812  -3.445   3.157   2.113  0.0688  0.5928 -0.4785
  173MOL0     H22813  -3.446   3.060   1.974  0.9901 -0.6591  2.8718
  173MOL0     H22814  -3.531   3.348   1.998  0.7996  0.6746 -2.0483
  173MOL0     H22815  -3.523   3.266   1.841  0.9614  0.9416  0.1850
  173MOL0     H22816  -3.756   3.270   1.972 -1.7609 -0.8728 -1.7894
  173MOL0     H22817  -3.670   3.151   2.079  4.7864  1.4206  0.8086
  173MOL0     H22818  -2.641   2.707   2.043 -0.5278  1.2381 -1.5479
  173MOL0     H22819  -2.403   2.663   2.099 -0.3830 -0.3524  1.1924
  173MOL0     H22820  -2.036   2.555   2.347  0.3593 -0.5589  0.8477
  173MOL0     H22821  -1.806   2.542   2.382  0.0354  0.3011  2.0428
  173MOL0     H22822   0.157   2.567   2.792  3.1735 -1.3841 -1.5589
  173MOL0     H22823   0.361   2.413   2.762  0.1756 -1.0301 -0.1816
  173MOL0     H22824   0.699   2.150   2.598 -1.2700  2.5206  0.9024
  173MOL0     H22825   0.912   2.011   2.644  0.0929  3.4598  0.7608
  173MOL0     H22826   1.065   1.711   2.929  0.8420  1.2782 -0.9439
  173MOL0     H22827   0.893   1.726   2.977 -1.4227  2.6897  0.6147
  173MOL0     H22828   0.946   1.905   3.102 -0.5055 -0.0092  0.5652
  173MOL0     H22829   1.087   1.798   3.136  0.4642 -1.1336 -1.5887
  173MOL0     H22830   1.177   2.026   3.114 -2.3900  0.5204  0.6287
  173MOL0     H22831   1.081   2.066   2.979  0.7775  0.5748 -0.7273
  173MOL0     H22832   1.209   1.864   2.854 -0.4994 -1.7308  0.5754
  173MOL0     H22833   1.300   2.020   2.915  0.1442 -0.3985  1.9501
  173MOL0     H22834   1.528   1.736   3.087 -1.4505 -2.4745  0.3883
  173MOL0     H22835   0.744   1.850   2.999 -2.9991  0.0055  0.6965
  173MOL0     H22836   0.545   2.005   2.977  0.5044  0.3664  0.3631
  174MOL0     O22837   6.357   1.654   4.559  0.3650 -0.0125  0.4301
  174MOL0     C22838   6.415   1.742   4.490 -0.3657  0.1435  0.0604
  174MOL0     O22839   6.368   1.866   4.452  0.1255  0.0340  0.0461
  174MOL0     C22840   6.235   1.900   4.459 -0.5031 -0.5859 -0.2174
  174MOL0     C22841   6.133   1.816   4.507 -0.1814  0.1735 -0.4529
  174MOL0     C22842   6.004   1.866   4.519 -0.5771  0.2407 -0.4690
  174MOL0     C22843   5.969   1.991   4.480  0.0830  0.0914 -0.4195
  174MOL0     O22844   5.844   2.045   4.482 -0.0181 -0.5165 -0.2301
  174MOL0     C22845   5.729   1.968   4.499  0.2298 -1.1272 -0.1357
  174MOL0     C22846   5.603   2.046   4.460  0.3071 -0.5605  0.5097
  174MOL0     C22847   5.564   2.139   4.569  0.3513  0.3310  0.9248
  174MOL0     C22848   5.453   2.220   4.529  1.2071  0.2393 -0.2250
  174MOL0     C22849   5.407   2.292   4.655  0.0600 -1.1011  0.9784
  174MOL0     C22850   5.307   2.391   4.609  0.3816 -0.6159 -0.3357
  174MOL0     C22851   5.253   2.477   4.724  0.0605 -0.4577  0.8350
  174MOL0     C22852   5.163   2.587   4.668  0.3955  0.2995  0.6817
  174MOL0     N22853   5.115   2.680   4.772 -0.1967 -0.7286  0.1771
  174MOL0     C22854   5.107   2.665   4.909  0.9751 -0.0663 -0.0871
  174MOL0     C22855   5.021   2.773   4.940  0.1408  0.5702 -0.1070
  174MOL0     C22856   4.958   2.812   5.067  0.4657  1.0784 -0.4518
  174MOL0     C22857   4.838   2.714   5.096  0.3698 -0.2026 -0.4400
  174MOL0     C22858   4.780   2.725   5.236  0.4069  0.0419  0.3251
  174MOL0     C22859   4.856   2.645   5.341 -0.0173 -0.7697  0.5177
  174MOL0     O22860   4.995   2.675   5.350 -0.1259  0.1789 -0.6163
  174MOL0     C22861   5.050   2.750   5.456  1.4122 -0.3331 -0.2723
  174MOL0     C22862   5.027   2.887   5.479  0.2150  0.5808 -0.2786
  174MOL0     C22863   5.096   2.948   5.586 -0.5685  0.5658  0.0381
  174MOL0     C22864   5.193   2.880   5.660 -0.5472  0.0641  0.1180
  174MOL0     C22865   5.270   2.960   5.759 -0.4099  0.8085 -0.1252
  174MOL0     O22866   5.390   2.904   5.800 -0.0646 -0.8940 -0.4619
  174MOL0     C22867   5.468   2.958   5.894 -0.8676  0.3842  0.1605
  174MOL0     C22868   5.603   2.930   5.875 -0.2986 -0.6134  0.5984
  174MOL0     C22869   5.702   2.974   5.964  0.0272  0.6305  0.0866
  174MOL0     C22870   5.668   3.053   6.077 -0.2284  0.1205 -0.3731
  174MOL0     O22871   5.761   3.124   6.156  0.2443  0.0869 -0.1935
  174MOL0     C22872   5.897   3.096   6.126 -0.2731  0.3026  0.8424
  174MOL0     C22873   5.986   3.208   6.186 -1.0688  0.4412  0.2956
  174MOL0     C22874   6.135   3.172   6.185  0.2512  0.1494 -0.2388
  174MOL0     C22875   6.236   3.279   6.225 -0.0617 -0.2718  0.1216
  174MOL0     C22876   6.381   3.234   6.181 -0.0496  0.5954 -0.3923
  174MOL0     C22877   6.490   3.342   6.200  0.8398  0.2695  0.5098
  174MOL0     C22878   6.625   3.302   6.152  1.1159  0.2839 -0.8267
  174MOL0     C22879   6.730   3.401   6.185  0.4244  0.3248  0.4106
  174MOL0    Cl22880   6.877   3.375   6.088  0.0032  0.5440  0.0776
  174MOL0     C22881   5.530   3.081   6.094 -0.0760  0.1227 -0.0803
  174MOL0     C22882   5.431   3.037   6.005  0.4874  0.9721  0.4366
  174MOL0     O22883   5.238   3.074   5.797  0.8188 -0.0199  0.7861
  174MOL0     C22884   5.212   2.742   5.632  0.1184 -0.0579  0.1310
  174MOL0     C22885   5.137   2.679   5.529 -0.3842 -0.0796 -0.3858
  174MOL0     N22886   4.996   2.853   4.836 -1.3481  0.1406 -0.3500
  174MOL0     N22887   5.054   2.792   4.733  0.6938 -0.2658 -0.2558
  174MOL0     C22888   6.066   2.074   4.437 -0.3418 -0.4048  0.4998
  174MOL0     C22889   6.194   2.028   4.412 -0.0134 -0.3195 -1.6167
  174MOL0     C22890   6.545   1.698   4.426  0.1525  0.2137 -0.4537
  174MOL0     C22891   6.645   1.781   4.371 -0.0125  0.2028  0.2854
  174MOL0     C22892   6.756   1.730   4.302 -0.4033  0.3503  0.9171
  174MOL0     C22893   6.773   1.599   4.279 -0.6262 -0.0383 -0.4261
  174MOL0     O22894   6.874   1.549   4.202 -0.0463  0.2485 -0.0007
  174MOL0     C22895   7.010   1.592   4.237  1.0128  0.2953 -0.4735
  174MOL0     C22896   7.116   1.537   4.135 -0.1589 -0.7558  1.4481
  174MOL0     C22897   7.145   1.392   4.146 -0.6922  0.9087 -0.2585
  174MOL0     C22898   7.255   1.340   4.040 -0.2390 -0.0619 -0.1521
  174MOL0     C22899   7.375   1.419   4.028 -0.0190 -0.3695 -0.2386
  174MOL0     C22900   7.485   1.472   4.020 -0.5903 -0.3025 -0.0518
  174MOL0     C22901   6.680   1.511   4.333 -0.0525  0.0732  0.9245
  174MOL0     C22902   6.565   1.558   4.401  0.6866 -0.1887  0.2293
  174MOL0     H22903   6.141   1.716   4.547  0.0500  1.0806  1.9097
  174MOL0     H22904   5.936   1.789   4.554  0.6152  0.4183  2.5692
  174MOL0     H22905   5.724   1.934   4.603  1.7995 -0.1308  0.3024
  174MOL0     H22906   5.746   1.879   4.436 -0.2892 -1.8240  0.6882
  174MOL0     H22907   5.524   1.972   4.444 -0.7904  0.6080  0.3404
  174MOL0     H22908   5.615   2.095   4.363  1.4853 -0.6434  0.6067
  174MOL0     H22909   5.648   2.207   4.587 -0.2272  1.4801 -0.5292
  174MOL0     H22910   5.534   2.090   4.662 -0.8917 -1.7483 -0.5051
  174MOL0     H22911   5.472   2.291   4.447  1.6378 -0.1724 -0.4879
  174MOL0     H22912   5.376   2.151   4.494  0.0132  1.3619  0.0894
  174MOL0     H22913   5.496   2.344   4.692  0.3379  0.8015 -2.0164
  174MOL0     H22914   5.355   2.226   4.724 -3.4302  0.0527 -0.3359
  174MOL0     H22915   5.228   2.345   4.549 -1.2804  0.8016  0.6687
  174MOL0     H22916   5.362   2.459   4.543  1.4191  2.8457  3.6847
  174MOL0     H22917   5.201   2.413   4.797 -4.9613  1.1778 -0.9211
  174MOL0     H22918   5.334   2.523   4.782 -1.2941 -0.2333  2.6666
  174MOL0     H22919   5.074   2.535   4.631 -0.1677  2.1707 -0.6960
  174MOL0     H22920   5.214   2.641   4.588 -1.5200 -1.1029 -1.6047
  174MOL0     H22921   5.140   2.578   4.965 -1.5301 -0.2676  1.2170
  174MOL0     H22922   4.928   2.917   5.079 -2.5905  0.2311  0.4020
  174MOL0     H22923   5.041   2.790   5.135 -1.0318 -1.8554  0.6020
  174MOL0     H22924   4.883   2.614   5.095  0.6253 -0.0906 -0.0970
  174MOL0     H22925   4.757   2.712   5.022  0.0894 -0.1472 -0.1331
  174MOL0     H22926   4.778   2.828   5.272  3.0887  0.2647  0.0252
  174MOL0     H22927   4.687   2.668   5.231  1.6221 -2.0287  0.0130
  174MOL0     H22928   4.840   2.540   5.314  1.3242 -0.5944 -1.2179
  174MOL0     H22929   4.806   2.671   5.434 -1.7127 -0.7448 -0.3609
  174MOL0     H22930   4.958   2.945   5.419  1.2393 -0.2467 -2.3387
  174MOL0     H22931   5.066   3.050   5.606 -1.3058  0.3871 -0.1234
  174MOL0     H22932   5.629   2.862   5.795 -2.1219 -0.6962  0.0196
  174MOL0     H22933   5.798   2.956   5.918 -1.8813 -0.7012 -3.7426
  174MOL0     H22934   5.917   3.109   6.019  0.0849 -0.9163  0.7512
  174MOL0     H22935   5.927   2.993   6.144 -0.4937  0.4123  1.9008
  174MOL0     H22936   5.941   3.238   6.281  0.1121 -0.3737  1.1401
  174MOL0     H22937   5.992   3.290   6.114  3.6614  1.3075  1.3661
  174MOL0     H22938   6.168   3.165   6.081  0.7774  0.4303 -0.0946
  174MOL0     H22939   6.147   3.082   6.246  0.9493  1.4041  1.5614
  174MOL0     H22940   6.220   3.363   6.156  1.3199 -0.0295  0.0524
  174MOL0     H22941   6.221   3.314   6.327  0.7734  3.8369 -0.9665
  174MOL0     H22942   6.375   3.187   6.082  1.8671 -2.3487  0.7483
  174MOL0     H22943   6.407   3.153   6.250 -3.4516 -0.2727  0.0322
  174MOL0     H22944   6.491   3.371   6.306  3.1791 -1.5724  1.0530
  174MOL0     H22945   6.462   3.421   6.130 -3.6046 -0.4258  1.1782
  174MOL0     H22946   6.654   3.210   6.204  1.4924  1.6498  1.5158
  174MOL0     H22947   6.632   3.282   6.044 -1.5928  0.1702 -1.0357
  174MOL0     H22948   6.760   3.380   6.288 -1.3162 -0.0827  0.8772
  174MOL0     H22949   6.687   3.501   6.181  0.4801  0.5330  3.1342
  174MOL0     H22950   5.498   3.144   6.176  0.1879 -0.4298  0.4570
  174MOL0     H22951   5.326   3.041   6.032 -0.2811 -1.3956 -1.8076
  174MOL0     H22952   5.275   2.678   5.693  0.9947 -2.1880 -2.7919
  174MOL0     H22953   5.133   2.572   5.507 -0.3927 -0.9557  3.3318
  174MOL0     H22954   6.033   2.176   4.419 -0.2573 -0.5700 -0.7022
  174MOL0     H22955   6.273   2.098   4.388 -1.6898  1.7302 -1.4232
  174MOL0     H22956   6.645   1.889   4.386 -3.0341 -0.0244  3.3601
  174MOL0     H22957   6.827   1.806   4.270 -0.2845  0.8172  2.2115
  174MOL0     H22958   7.031   1.553   4.337  1.9974  0.7137 -0.5089
  174MOL0     H22959   7.010   1.701   4.232 -1.0004  0.4306  1.0601
  174MOL0     H22960   7.071   1.554   4.036  0.1528 -1.9541  1.0781
  174MOL0     H22961   7.204   1.601   4.143  0.5191 -1.5838  0.7901
  174MOL0     H22962   7.060   1.324   4.140  0.1505 -0.2842  0.7352
  174MOL0     H22963   7.189   1.378   4.245  0.9021 -0.9496 -1.1543
  174MOL0     H22964   7.283   1.234   4.039 -1.1321 -0.3971 -3.3553
  174MOL0     H22965   7.199   1.363   3.949  1.3613 -0.3334 -1.2569
  174MOL0     H22966   7.583   1.513   4.002 -0.0348 -2.0110 -1.2246
  174MOL0     H22967   6.689   1.405   4.308  0.5503 -0.0675  1.6811
  174MOL0     H22968   6.488   1.490   4.437 -0.8979  0.6266 -1.4752
  175MOL0     O22969   9.141   1.737   8.892 -0.4670 -0.1579 -0.1708
  175MOL0     C22970   9.210   1.768   8.796  0.1440  0.8359  0.4366
  175MOL0     O22971   9.185   1.753   8.661  0.1206 -0.8838  0.1476
  175MOL0     C22972   9.080   1.680   8.610  0.6958 -1.0364  0.1027
  175MOL0     C22973   9.099   1.646   8.480 -0.1553 -0.9250 -0.2657
  175MOL0     C22974   9.003   1.574   8.411 -0.6065  0.1548 -0.4417
  175MOL0     C22975   8.875   1.538   8.474 -0.6877  0.1682 -0.1229
  175MOL0     O22976   8.757   1.493   8.419 -0.3066  0.1272  0.5152
  175MOL0     C22977   8.765   1.424   8.298 -0.1321  1.2354  0.7588
  175MOL0     C22978   8.672   1.302   8.287  0.1568 -0.2780  0.1248
  175MOL0     C22979   8.535   1.335   8.304  0.0652  0.2201  0.2981
  175MOL0     C22980   8.473   1.432   8.206  1.2255 -0.7509  0.2547
  175MOL0     C22981   8.322   1.447   8.227  0.3555  0.0730 -0.2157
  175MOL0     C22982   8.273   1.572   8.149 -1.2208 -0.4999 -0.1504
  175MOL0     C22983   8.127   1.568   8.154 -0.5695 -0.2689 -0.1349
  175MOL0     C22984   8.061   1.708   8.141 -0.1552 -0.0358 -0.2960
  175MOL0     N22985   7.922   1.683   8.115  0.7477  0.0492 -0.6735
  175MOL0     C22986   7.877   1.649   7.989 -0.5008  0.0368 -0.7442
  175MOL0     C22987   7.738   1.625   8.004 -0.0097  0.2466 -0.6067
  175MOL0     C22988   7.638   1.586   7.901  0.8779  0.2305  0.4502
  175MOL0     C22989   7.490   1.623   7.941  0.1847  0.7892  0.7804
  175MOL0     C22990   7.400   1.602   7.819 -0.4664 -0.7226 -0.2400
  175MOL0     C22991   7.259   1.570   7.850 -0.1343 -0.1285 -0.5746
  175MOL0     O22992   7.184   1.678   7.914  0.1229  0.0839  0.6032
  175MOL0     C22993   7.045   1.654   7.918  0.0326 -0.1996  0.6100
  175MOL0     C22994   6.974   1.759   7.959  0.2217 -0.5197 -1.1353
  175MOL0     C22995   6.834   1.766   7.966 -0.8899  0.0257  0.3753
  175MOL0     C22996   6.759   1.653   7.917  1.0176  0.0266  1.4791
  175MOL0     C22997   6.612   1.649   7.914 -0.1544  0.0665  0.4266
  175MOL0     O22998   6.544   1.762   7.964  0.3108 -0.4349 -0.0676
  175MOL0     C22999   6.404   1.759   7.953  0.4773  0.3597  0.1327
  175MOL0     C23000   6.337   1.752   7.828  0.1582  0.2329  0.4403
  175MOL0     C23001   6.194   1.724   7.827 -0.5682 -0.6177  0.0110
  175MOL0     C23002   6.123   1.716   7.945  0.4620  0.6410 -0.8742
  175MOL0     O23003   5.986   1.702   7.922 -0.0946 -0.8038 -0.3096
  175MOL0     C23004   5.899   1.729   8.037 -0.9007 -0.2683  0.7011
  175MOL0     C23005   5.757   1.728   7.980  0.1038 -0.4068  0.0606
  175MOL0     C23006   5.660   1.781   8.082 -0.0752 -0.1823 -0.7867
  175MOL0     C23007   5.512   1.811   8.038 -0.5341  0.6249 -0.3930
  175MOL0     C23008   5.419   1.704   7.993  0.5323 -0.0856  0.6429
  175MOL0     C23009   5.396   1.592   8.100 -0.3957 -0.0641  0.5334
  175MOL0     C23010   5.262   1.522   8.069 -0.0987 -0.5838  0.1216
  175MOL0     C23011   5.253   1.383   8.129  0.0034 -0.4451 -0.2110
  175MOL0    Cl23012   5.111   1.283   8.069 -0.1416 -0.0710  0.6043
  175MOL0     C23013   6.188   1.722   8.068 -1.0951  0.5012  0.3148
  175MOL0     C23014   6.323   1.746   8.072  0.1347  0.5097 -0.2720
  175MOL0     O23015   6.560   1.548   7.871 -0.4566  0.3950  1.1370
  175MOL0     C23016   6.831   1.537   7.868  0.3895  0.4581 -0.2838
  175MOL0     C23017   6.973   1.542   7.866 -0.6396  0.3548  0.0133
  175MOL0     N23018   7.708   1.637   8.141 -0.2853  0.0634 -0.0098
  175MOL0     N23019   7.816   1.659   8.209  0.1674  0.3126  0.4898
  175MOL0     C23020   8.853   1.581   8.608 -0.2535  0.2328  0.3736
  175MOL0     C23021   8.960   1.647   8.671 -0.0771 -0.0278 -0.1512
  175MOL0     C23022   9.325   1.862   8.820  0.2262  0.5213 -0.8529
  175MOL0     C23023   9.413   1.898   8.712  0.0943  0.2222  0.2162
  175MOL0     C23024   9.512   1.992   8.739 -1.0480  0.6923 -0.7404
  175MOL0     C23025   9.537   2.047   8.865  0.0324 -0.6945 -0.4234
  175MOL0     O23026   9.648   2.134   8.884  0.6841  0.0805 -0.1751
  175MOL0     C23027   9.731   2.133   8.997  0.4889  0.1086 -0.2334
  175MOL0     C23028   9.846   2.242   8.977 -0.6296 -0.4641 -0.1251
  175MOL0     C23029   9.938   2.224   8.861 -0.4909  0.3632  0.4093
  175MOL0     C23030  10.047   2.335   8.856  0.2287 -0.5070 -0.3864
  175MOL0     C23031  10.141   2.304   8.959 -1.4428 -0.7636  0.0064
  175MOL0     C23032  10.224   2.285   9.056  0.5464 -0.4282  0.7865
  175MOL0     C23033   9.458   2.002   8.972 -0.0737 -0.3180 -0.2044
  175MOL0     C23034   9.352   1.916   8.956 -0.0268  0.8185  0.1883
  175MOL0     H23035   9.179   1.673   8.412  1.4743 -0.1460  1.8380
  175MOL0     H23036   9.027   1.529   8.315  0.1880 -1.7668  0.5884
  175MOL0     H23037   8.864   1.380   8.285 -1.1121 -1.4832  1.8821
  175MOL0     H23038   8.746   1.479   8.205 -1.1453  1.0103  0.8152
  175MOL0     H23039   8.698   1.227   8.362  0.2301 -1.1687 -0.7830
  175MOL0     H23040   8.695   1.253   8.192  0.0533 -0.8732  0.4017
  175MOL0     H23041   8.530   1.366   8.409  2.0969 -0.9513  0.7902
  175MOL0     H23042   8.492   1.234   8.298 -1.2706  0.6204  2.1845
  175MOL0     H23043   8.515   1.532   8.217  1.2954 -0.6585 -0.7685
  175MOL0     H23044   8.499   1.399   8.105  1.7981 -0.1572  0.1982
  175MOL0     H23045   8.291   1.459   8.331  1.3387  0.7810  0.0045
  175MOL0     H23046   8.276   1.358   8.183 -0.5159 -0.2378  1.2409
  175MOL0     H23047   8.305   1.569   8.045 -1.3007  1.0587 -0.2477
  175MOL0     H23048   8.307   1.668   8.189 -0.9041 -0.5972 -0.1805
  175MOL0     H23049   8.105   1.511   8.064 -1.1092  0.5792 -0.5526
  175MOL0     H23050   8.089   1.521   8.246 -0.6868 -0.9436 -0.5224
  175MOL0     H23051   8.103   1.752   8.050 -4.0537 -0.9287 -2.7330
  175MOL0     H23052   8.076   1.768   8.231 -0.4000  2.2616 -1.7177
  175MOL0     H23053   7.935   1.652   7.897  1.5494  1.6913  0.5110
  175MOL0     H23054   7.638   1.482   7.868 -0.6234  1.0271 -2.4014
  175MOL0     H23055   7.666   1.648   7.815  1.1780 -1.8044 -0.9917
  175MOL0     H23056   7.486   1.727   7.975  0.9858  0.8804  0.6164
  175MOL0     H23057   7.451   1.555   8.017 -2.1834 -0.2988 -1.2677
  175MOL0     H23058   7.404   1.696   7.764  0.6149 -0.4348  0.2805
  175MOL0     H23059   7.451   1.528   7.756 -0.2544 -0.7335 -0.0616
  175MOL0     H23060   7.253   1.477   7.906  4.1717 -1.9334 -2.6460
  175MOL0     H23061   7.210   1.555   7.754 -3.3442 -1.3583  1.1034
  175MOL0     H23062   7.026   1.851   7.983  0.6364 -0.8195 -0.8549
  175MOL0     H23063   6.783   1.854   8.003  1.8904  0.6805  3.0454
  175MOL0     H23064   6.392   1.773   7.737 -1.2304  0.6442 -0.3380
  175MOL0     H23065   6.144   1.726   7.731 -0.5249  2.2651 -0.0554
  175MOL0     H23066   5.921   1.826   8.082  0.6771 -0.6073  0.7529
  175MOL0     H23067   5.906   1.650   8.113  0.6054 -0.6808  0.1793
  175MOL0     H23068   5.739   1.624   7.952  3.4680 -1.2233  0.5202
  175MOL0     H23069   5.742   1.783   7.887 -0.0445 -0.2256  0.1916
  175MOL0     H23070   5.692   1.880   8.113 -0.6612 -0.4916  0.9164
  175MOL0     H23071   5.662   1.713   8.167 -0.6698 -0.0871 -0.6982
  175MOL0     H23072   5.463   1.871   8.115  0.4969  1.9890 -0.7680
  175MOL0     H23073   5.518   1.883   7.956 -0.5112 -0.2684 -1.1964
  175MOL0     H23074   5.449   1.655   7.899 -3.5313  1.1634 -1.5483
  175MOL0     H23075   5.326   1.750   7.958  0.2170 -2.0562 -1.3048
  175MOL0     H23076   5.400   1.627   8.203  1.5551 -0.0306  0.4948
  175MOL0     H23077   5.479   1.525   8.073 -0.6347 -0.1830  0.0863
  175MOL0     H23078   5.176   1.583   8.099  1.0494  1.7021 -0.9397
  175MOL0     H23079   5.243   1.498   7.964  1.5838 -1.8508  0.0646
  175MOL0     H23080   5.259   1.389   8.238  0.9892 -2.0023 -0.1453
  175MOL0     H23081   5.343   1.325   8.105 -0.3228 -0.3424 -1.7212
  175MOL0     H23082   6.142   1.702   8.164 -0.7112 -0.6363  0.2822
  175MOL0     H23083   6.369   1.751   8.170  1.0447  2.3828 -0.7402
  175MOL0     H23084   6.778   1.451   7.829 -1.9844  1.7205 -0.0192
  175MOL0     H23085   7.014   1.457   7.811  1.0387  2.2846 -1.9045
  175MOL0     H23086   8.758   1.555   8.653 -0.4463 -0.8193 -0.6149
  175MOL0     H23087   8.926   1.679   8.769  0.2400 -1.9098  0.6080
  175MOL0     H23088   9.398   1.861   8.611 -2.4459  1.1430  0.1865
  175MOL0     H23089   9.580   2.028   8.663 -1.0569  1.2198 -0.5049
  175MOL0     H23090   9.772   2.032   9.006  1.2424  0.4897  0.8425
  175MOL0     H23091   9.681   2.164   9.089  1.5623  0.7417  0.1523
  175MOL0     H23092   9.793   2.335   8.960  0.4642  0.0209 -1.0610
  175MOL0     H23093   9.908   2.257   9.066  0.7917 -0.4420 -1.0833
  175MOL0     H23094   9.876   2.228   8.771 -2.1004 -1.1536  1.3875
  175MOL0     H23095   9.990   2.127   8.862 -0.5477  0.3055  2.9064
  175MOL0     H23096  10.086   2.346   8.755 -0.3144  1.8395 -0.4027
  175MOL0     H23097  10.002   2.431   8.883  2.5273  0.2896  0.9196
  175MOL0     H23098  10.294   2.267   9.135  0.1221 -1.3335  0.9656
  175MOL0     H23099   9.483   2.039   9.071 -2.0266  2.4540 -0.6238
  175MOL0     H23100   9.294   1.885   9.042  1.7127 -0.5338  0.9437
  176MOL0     O23101  10.255   2.963   2.023 -0.2797  0.2170 -0.1821
  176MOL0     C23102  10.212   3.000   2.137  0.1380  0.2983  0.4000
  176MOL0     O23103  10.091   3.049   2.166  1.0532 -0.3543  0.2518
  176MOL0     C23104   9.977   3.028   2.093 -0.1458  0.7439  0.0925
  176MOL0     C23105   9.958   2.913   2.006  0.0370  0.0113  0.2036
  176MOL0     C23106   9.841   2.903   1.933 -0.1615  0.3109 -0.6763
  176MOL0     C23107   9.727   2.984   1.960 -0.3724  0.1399  0.3749
  176MOL0     O23108   9.605   2.967   1.901  0.0757 -0.1586  0.2463
  176MOL0     C23109   9.586   2.855   1.808 -0.1220  0.2180  0.0582
  176MOL0     C23110   9.444   2.833   1.776  0.8454  0.3794 -1.3235
  176MOL0     C23111   9.364   2.954   1.713  0.3486 -0.3383  0.4039
  176MOL0     C23112   9.221   2.923   1.700  0.5746 -0.1908  0.0646
  176MOL0     C23113   9.135   3.051   1.678  0.4914  0.4038  1.0621
  176MOL0     C23114   9.162   3.120   1.546  0.6519 -0.2660 -0.6421
  176MOL0     C23115   9.101   3.263   1.530  0.4439  0.4585  0.2197
  176MOL0     C23116   9.164   3.360   1.629  0.2828  0.5417 -0.0095
  176MOL0     N23117   9.069   3.387   1.732 -1.0083  0.1912  0.3900
  176MOL0     C23118   8.959   3.474   1.720  0.0838  1.3105 -0.1943
  176MOL0     C23119   8.920   3.491   1.847 -0.0524  1.0948 -0.0983
  176MOL0     C23120   8.811   3.567   1.885 -0.3174 -1.4781 -0.3916
  176MOL0     C23121   8.842   3.715   1.918 -0.3434  0.0787 -0.1843
  176MOL0     C23122   8.714   3.804   1.917 -0.5034 -0.0588  1.0106
  176MOL0     C23123   8.598   3.754   2.006 -0.2954  0.3304  0.0857
  176MOL0     O23124   8.479   3.821   1.969  0.1470 -0.0613 -0.1800
  176MOL0     C23125   8.361   3.815   2.039  0.8734  0.6191 -0.1161
  176MOL0     C23126   8.245   3.878   1.989 -0.0053 -0.2562  0.4760
  176MOL0     C23127   8.123   3.879   2.064 -0.0074  0.0796 -0.5234
  176MOL0     C23128   8.119   3.814   2.188  0.1847  0.0857  0.5716
  176MOL0     C23129   7.990   3.804   2.261  0.7372 -0.5960  1.1438
  176MOL0     O23130   7.882   3.874   2.210 -0.6047  0.2982 -0.3579
  176MOL0     C23131   7.762   3.865   2.282 -0.5176 -0.0362 -0.2845
  176MOL0     C23132   7.646   3.847   2.212  0.4966 -0.2185  0.9585
  176MOL0     C23133   7.517   3.876   2.251 -0.1122 -0.5212 -0.5647
  176MOL0     C23134   7.509   3.909   2.385  0.9132  0.0607 -1.0793
  176MOL0     O23135   7.392   3.957   2.447 -0.6092  0.5712 -0.0425
  176MOL0     C23136   7.270   3.877   2.428 -0.3825  0.4152  0.2276
  176MOL0     C23137   7.165   3.937   2.332  0.3387 -0.7528 -0.5554
  176MOL0     C23138   7.117   4.080   2.380 -0.4976  0.9141  0.3419
  176MOL0     C23139   6.981   4.135   2.337  0.0896  0.3768 -0.4685
  176MOL0     C23140   6.863   4.060   2.394 -0.7418  0.1497 -0.0190
  176MOL0     C23141   6.731   4.136   2.361  0.2142  0.7440  0.4961
  176MOL0     C23142   6.607   4.068   2.419  0.1458 -0.4373 -0.2774
  176MOL0     C23143   6.474   4.100   2.362  0.1339 -0.1883 -0.0379
  176MOL0    Cl23144   6.455   4.282   2.342  0.4882  0.0854 -0.3205
  176MOL0     C23145   7.623   3.904   2.471  0.2124 -0.0018  0.4667
  176MOL0     C23146   7.754   3.898   2.415  0.2493  0.7617  0.3253
  176MOL0     O23147   7.987   3.732   2.356 -0.5718 -0.4709 -0.1999
  176MOL0     C23148   8.229   3.742   2.232  0.5604 -0.7687  0.1436
  176MOL0     C23149   8.344   3.741   2.153 -0.6720  1.1258 -0.0084
  176MOL0     N23150   9.002   3.412   1.926  0.3154 -0.4905 -0.1479
  176MOL0     N23151   9.090   3.355   1.859  0.1308 -0.0539 -0.2725
  176MOL0     C23152   9.746   3.092   2.048  0.1687  1.0906  0.0684
  176MOL0     C23153   9.866   3.114   2.113 -0.1234 -0.4628  1.0736
  176MOL0     C23154  10.305   2.993   2.251  0.7375 -0.0501 -0.6299
  176MOL0     C23155  10.437   2.953   2.230 -0.3231  1.3059 -0.3793
  176MOL0     C23156  10.530   2.929   2.330  1.2399 -0.3555  0.8122
  176MOL0     C23157  10.495   2.950   2.466 -0.2989 -0.0406  0.6649
  176MOL0     O23158  10.581   2.939   2.574 -0.9840 -0.1436 -0.6104
  176MOL0     C23159  10.714   2.899   2.548 -0.4303  0.8171  1.2536
  176MOL0     C23160  10.799   3.012   2.491 -0.3759 -1.0213 -0.4487
  176MOL0     C23161  10.949   2.983   2.497  0.1275  0.3650  0.2081
  176MOL0     C23162  11.010   2.963   2.632  1.5798  0.3308  0.6641
  176MOL0     C23163  11.152   2.963   2.632 -0.2019  0.9754  0.3494
  176MOL0     C23164  11.279   2.960   2.637  0.2555 -0.2786  0.0119
  176MOL0     C23165  10.370   2.998   2.489  0.7633 -0.6589 -0.3719
  176MOL0     C23166  10.266   3.013   2.387  0.0263  1.0145 -0.1937
  176MOL0     H23167  10.031   2.834   2.021  2.5418  2.5167  2.4970
  176MOL0     H23168   9.833   2.824   1.859  0.0813 -1.7874  1.4071
  176MOL0     H23169   9.605   2.759   1.856  0.8240  1.1979  1.7552
  176MOL0     H23170   9.641   2.873   1.716  3.1443 -0.7677  1.6555
  176MOL0     H23171   9.393   2.813   1.871  2.8164 -5.0711 -1.0776
  176MOL0     H23172   9.430   2.741   1.719 -0.5024 -2.3148  2.8995
  176MOL0     H23173   9.395   2.957   1.608  0.1522  2.6756  0.3538
  176MOL0     H23174   9.377   3.051   1.760 -1.7479  0.9700 -1.5068
  176MOL0     H23175   9.210   2.854   1.616  1.0714 -0.4196  0.1832
  176MOL0     H23176   9.189   2.878   1.794  5.7491  1.9291  3.3178
  176MOL0     H23177   9.144   3.117   1.764 -2.0033  2.1608  0.1078
  176MOL0     H23178   9.029   3.024   1.675 -0.0482  2.2444 -2.7905
  176MOL0     H23179   9.135   3.061   1.458  2.0573 -1.0744 -0.5704
  176MOL0     H23180   9.270   3.137   1.536  0.2922  1.7743 -1.6019
  176MOL0     H23181   9.129   3.304   1.432  1.4800 -0.8737 -0.0767
  176MOL0     H23182   8.994   3.260   1.551  0.2856  0.0351 -0.6010
  176MOL0     H23183   9.190   3.454   1.580 -1.6922  0.7530 -0.7221
  176MOL0     H23184   9.255   3.318   1.674  1.7284  4.1155  0.7377
  176MOL0     H23185   8.928   3.529   1.632 -0.5494 -0.5839 -1.2040
  176MOL0     H23186   8.771   3.526   1.978 -1.1101  1.8172  0.8649
  176MOL0     H23187   8.741   3.566   1.801 -2.6140  2.4750  1.2159
  176MOL0     H23188   8.902   3.752   1.834 -0.3205  1.3789  0.3783
  176MOL0     H23189   8.881   3.723   2.020 -0.0624 -1.2076 -0.1777
  176MOL0     H23190   8.735   3.905   1.953 -2.0797  0.8542 -0.5096
  176MOL0     H23191   8.682   3.807   1.813 -0.7159 -2.0528  0.9715
  176MOL0     H23192   8.631   3.772   2.109  1.7590 -0.2911 -0.4086
  176MOL0     H23193   8.581   3.648   1.982  0.8105  0.0720  0.3830
  176MOL0     H23194   8.259   3.930   1.895  1.3988  1.3524  1.5174
  176MOL0     H23195   8.040   3.935   2.021 -0.5246  0.4732  0.9273
  176MOL0     H23196   7.668   3.826   2.108  2.6479  0.3630  1.2575
  176MOL0     H23197   7.427   3.857   2.193  1.4152 -0.2803 -3.1428
  176MOL0     H23198   7.224   3.871   2.527 -2.3138  1.7861 -0.5256
  176MOL0     H23199   7.301   3.780   2.388  2.4862  1.0896  0.6228
  176MOL0     H23200   7.078   3.871   2.331 -0.5498  0.3807 -1.2204
  176MOL0     H23201   7.206   3.941   2.230 -1.2030  2.1045 -1.1987
  176MOL0     H23202   7.189   4.151   2.338 -0.8152  0.3016 -1.2884
  176MOL0     H23203   7.131   4.087   2.489 -2.7359 -2.6766  1.0294
  176MOL0     H23204   6.978   4.239   2.370 -1.9576 -0.4968  2.5134
  176MOL0     H23205   6.967   4.129   2.229 -0.3016 -0.1152 -0.3964
  176MOL0     H23206   6.879   4.054   2.502  1.7159  2.4588 -0.1575
  176MOL0     H23207   6.861   3.957   2.357  1.8789  0.0365 -0.0134
  176MOL0     H23208   6.731   4.139   2.251  0.3559 -0.6798  0.4376
  176MOL0     H23209   6.727   4.236   2.405 -0.3207 -0.1601  2.6166
  176MOL0     H23210   6.622   3.960   2.410  2.8909  0.0157 -2.1996
  176MOL0     H23211   6.609   4.100   2.523  0.1418  1.5408 -0.8383
  176MOL0     H23212   6.390   4.063   2.422  1.9836 -2.1129  1.5434
  176MOL0     H23213   6.477   4.059   2.261 -0.1903 -1.4137  0.4298
  176MOL0     H23214   7.610   3.927   2.576 -0.3914  2.0450 -0.0179
  176MOL0     H23215   7.847   3.910   2.469  0.2034 -1.7674  1.0932
  176MOL0     H23216   8.247   3.715   2.336  1.0498 -0.5263  0.1284
  176MOL0     H23217   8.427   3.684   2.193 -0.3767  0.7534 -1.1246
  176MOL0     H23218   9.667   3.167   2.054  0.9405  1.8206  3.1436
  176MOL0     H23219   9.889   3.194   2.183  4.3709 -1.6253  1.2349
  176MOL0     H23220  10.472   2.938   2.128  0.2287  1.8262 -0.2716
  176MOL0     H23221  10.623   2.895   2.285  0.6387 -1.4771  0.3656
  176MOL0     H23222  10.719   2.822   2.471 -0.4743 -0.6525  2.6431
  176MOL0     H23223  10.758   2.848   2.635  0.6975  0.2938  0.3964
  176MOL0     H23224  10.774   3.032   2.387 -2.8920  1.7925  0.5583
  176MOL0     H23225  10.768   3.096   2.553  0.8946 -0.2019 -0.8736
  176MOL0     H23226  11.002   3.069   2.454 -0.7099  0.7942  0.0140
  176MOL0     H23227  10.976   2.893   2.440 -0.0464  1.4536 -1.6631
  176MOL0     H23228  10.980   3.049   2.693 -1.6412  1.4984 -2.1563
  176MOL0     H23229  10.974   2.873   2.682  0.7806  1.5594  2.4338
  176MOL0     H23230  11.384   2.969   2.657  0.0352  0.9781  0.7479
  176MOL0     H23231  10.326   3.018   2.585 -0.6224 -0.3330 -1.0506
  176MOL0     H23232  10.166   3.048   2.411 -0.1424 -0.2118  1.0389
  177MOL0     O23233   5.852   3.223   0.032  0.8669 -0.0113 -0.0131
  177MOL0     C23234   5.906   3.332   0.010  1.0730  0.2379 -0.2725
  177MOL0     O23235   5.843   3.449  -0.017  0.1347 -0.5413  0.9430
  177MOL0     C23236   5.709   3.456   0.012 -0.2331 -0.2238  0.0237
  177MOL0     C23237   5.617   3.491  -0.090  0.1129  0.8302 -0.4581
  177MOL0     C23238   5.478   3.511  -0.068 -1.1230  0.1489 -0.1683
  177MOL0     C23239   5.429   3.485   0.061  1.0642 -0.4798 -0.1504
  177MOL0     O23240   5.292   3.506   0.088 -0.2451 -0.1707 -0.3136
  177MOL0     C23241   5.237   3.637   0.083 -0.4756 -0.0775 -0.3159
  177MOL0     C23242   5.191   3.678   0.221  0.5275  0.8117 -0.4329
  177MOL0     C23243   5.104   3.802   0.229 -0.1947 -0.4145  0.3308
  177MOL0     C23244   5.101   3.854   0.371  0.3091  0.3898  0.4354
  177MOL0     C23245   5.003   3.974   0.385 -0.3107  0.4274 -0.3436
  177MOL0     C23246   4.858   3.908   0.398  0.0661 -0.0671 -0.4800
  177MOL0     C23247   4.746   4.016   0.396  0.0399 -0.0212  0.0768
  177MOL0     C23248   4.603   3.970   0.381 -0.0142 -0.3739 -0.7662
  177MOL0     N23249   4.511   4.077   0.390  0.6899 -0.5161  0.4563
  177MOL0     C23250   4.478   4.161   0.493 -0.2537  0.0849 -0.2945
  177MOL0     C23251   4.381   4.231   0.447 -0.1750 -1.0735 -0.6069
  177MOL0     C23252   4.313   4.353   0.518 -0.6519  0.5135  0.3859
  177MOL0     C23253   4.171   4.302   0.560 -0.2808  0.4228 -0.3301
  177MOL0     C23254   4.097   4.433   0.603 -0.4825 -0.3814  0.1812
  177MOL0     C23255   3.947   4.424   0.657 -0.1442  0.7801  0.0141
  177MOL0     O23256   3.859   4.386   0.550  0.0869 -0.1230 -0.0423
  177MOL0     C23257   3.725   4.394   0.571  0.2193 -0.3846 -0.4294
  177MOL0     C23258   3.636   4.447   0.473  0.6785 -0.1480 -0.4530
  177MOL0     C23259   3.499   4.463   0.500 -0.0703  0.1988 -0.2624
  177MOL0     C23260   3.453   4.409   0.618  0.5949  0.7464 -0.0255
  177MOL0     C23261   3.309   4.411   0.656  0.1589  0.0406 -0.2535
  177MOL0     O23262   3.264   4.333   0.768 -0.6560 -0.0173  0.1608
  177MOL0     C23263   3.134   4.326   0.811 -0.6757 -0.1508  0.0963
  177MOL0     C23264   3.110   4.276   0.939  0.1199  0.3581  0.0567
  177MOL0     C23265   2.975   4.254   0.980  0.1445 -0.2392 -0.1460
  177MOL0     C23266   2.867   4.292   0.903  0.5458 -0.7093  0.2948
  177MOL0     O23267   2.741   4.279   0.972 -0.6464 -0.0932 -0.0148
  177MOL0     C23268   2.646   4.378   0.942  0.8132  0.1329 -0.4950
  177MOL0     C23269   2.516   4.372   1.031 -0.0987  0.4973  1.3324
  177MOL0     C23270   2.442   4.515   1.022  0.6198 -0.1959 -0.5581
  177MOL0     C23271   2.300   4.517   1.095 -0.4617 -0.1977  0.1935
  177MOL0     C23272   2.192   4.459   1.014 -0.0834 -0.0984 -0.3565
  177MOL0     C23273   2.062   4.426   1.085 -0.6203  0.7269  0.2121
  177MOL0     C23274   1.959   4.354   1.001 -0.1523 -0.2245 -0.3812
  177MOL0     C23275   1.815   4.379   1.041  0.4606  0.6414 -0.2649
  177MOL0    Cl23276   1.782   4.322   1.210  0.1683 -0.1652  0.0614
  177MOL0     C23277   2.890   4.345   0.780  0.3952  1.2368  0.6154
  177MOL0     C23278   3.021   4.352   0.726 -0.2560 -0.5854 -0.6144
  177MOL0     O23279   3.237   4.483   0.587 -1.3806 -0.4889  0.1466
  177MOL0     C23280   3.539   4.348   0.716  0.6320 -0.2312  0.6691
  177MOL0     C23281   3.666   4.338   0.684 -0.2438 -0.3674 -0.2790
  177MOL0     N23282   4.345   4.195   0.326 -0.2549  0.5320  0.2471
  177MOL0     N23283   4.423   4.099   0.289  1.2530  0.2099  1.0953
  177MOL0     C23284   5.519   3.444   0.162  1.0652 -0.3392 -0.1504
  177MOL0     C23285   5.658   3.429   0.136  0.1872 -1.1570 -0.1785
  177MOL0     C23286   6.055   3.315  -0.010 -0.7939 -0.0958  0.4362
  177MOL0     C23287   6.115   3.191   0.009 -1.6120  0.8885  0.5838
  177MOL0     C23288   6.258   3.185   0.007 -0.0222  0.7534 -0.1458
  177MOL0     C23289   6.338   3.293  -0.018  0.2304 -0.1577 -0.4678
  177MOL0     O23290   6.470   3.263  -0.040 -0.3572 -0.4139 -0.1888
  177MOL0     C23291   6.571   3.362  -0.009  0.1674  0.3725  0.2990
  177MOL0     C23292   6.707   3.295  -0.031 -0.5625  0.1949  0.4540
  177MOL0     C23293   6.833   3.390  -0.009 -0.1281  1.1523 -0.9483
  177MOL0     C23294   6.860   3.427   0.139  0.6732 -0.5220  0.2346
  177MOL0     C23295   6.858   3.327   0.247  0.9624 -0.7953  1.1563
  177MOL0     C23296   6.868   3.230   0.324 -0.3055 -0.0749 -0.4198
  177MOL0     C23297   6.274   3.417  -0.043  0.0887 -0.0363  0.5661
  177MOL0     C23298   6.139   3.424  -0.044 -0.1580 -0.2070 -0.4492
  177MOL0     H23299   5.646   3.497  -0.194  0.2323  1.9790 -0.3677
  177MOL0     H23300   5.413   3.542  -0.149  1.2013  1.3410 -1.7013
  177MOL0     H23301   5.156   3.647   0.010  1.3315  0.4158 -2.3815
  177MOL0     H23302   5.309   3.714   0.053 -2.5515  2.5298  0.9603
  177MOL0     H23303   5.286   3.692   0.273  1.1379  1.7586 -1.7427
  177MOL0     H23304   5.137   3.591   0.261 -2.2572  2.3181 -0.5938
  177MOL0     H23305   5.000   3.776   0.204 -0.6512 -0.8001  2.3892
  177MOL0     H23306   5.149   3.874   0.160  0.5534  0.5529  1.7840
  177MOL0     H23307   5.077   3.772   0.440  0.1437  0.3985  0.3873
  177MOL0     H23308   5.200   3.884   0.407  0.6700 -3.3010  3.1494
  177MOL0     H23309   5.014   4.029   0.291  4.0394  0.1847 -0.1651
  177MOL0     H23310   5.026   4.042   0.467  1.6900 -0.3553 -0.1956
  177MOL0     H23311   4.854   3.846   0.488  0.5443 -0.0403 -0.4382
  177MOL0     H23312   4.843   3.835   0.318 -0.7204  0.4667 -0.8274
  177MOL0     H23313   4.758   4.050   0.500  1.3136  0.3735 -0.1808
  177MOL0     H23314   4.767   4.103   0.333  2.5951 -0.3010  0.4062
  177MOL0     H23315   4.578   3.901   0.462 -0.1197  1.2373  0.6220
  177MOL0     H23316   4.600   3.920   0.283 -2.3574  0.7884 -1.3847
  177MOL0     H23317   4.533   4.157   0.586  0.9495  0.2958 -0.9687
  177MOL0     H23318   4.311   4.436   0.446 -0.4514  0.7812  0.6884
  177MOL0     H23319   4.382   4.388   0.595  2.1731 -0.2265 -1.6353
  177MOL0     H23320   4.187   4.225   0.636  3.0117  0.0779 -1.2190
  177MOL0     H23321   4.118   4.251   0.479  3.1238 -2.0021 -1.2587
  177MOL0     H23322   4.154   4.492   0.676 -2.2132  2.0383 -0.2921
  177MOL0     H23323   4.093   4.493   0.512  1.2986 -2.0428 -1.0703
  177MOL0     H23324   3.917   4.516   0.708 -1.7945  0.1901  0.1703
  177MOL0     H23325   3.942   4.341   0.729 -1.7429 -0.2633 -1.2065
  177MOL0     H23326   3.680   4.472   0.377 -0.1834  0.3540 -0.7225
  177MOL0     H23327   3.436   4.505   0.423 -1.7938  1.5404  1.7568
  177MOL0     H23328   3.182   4.261   1.020 -1.4149 -0.7876  1.2581
  177MOL0     H23329   2.952   4.216   1.079 -1.7344  0.9697 -0.0668
  177MOL0     H23330   2.626   4.357   0.836  1.9386  0.0993 -0.7088
  177MOL0     H23331   2.684   4.480   0.951  1.4791 -0.1845  0.3749
  177MOL0     H23332   2.540   4.349   1.135 -0.0967 -1.6581  0.9054
  177MOL0     H23333   2.454   4.287   1.001  1.6332 -0.5137  0.4641
  177MOL0     H23334   2.421   4.542   0.918  0.5562 -1.2882 -0.8420
  177MOL0     H23335   2.507   4.591   1.067  0.9604 -0.9939  0.3546
  177MOL0     H23336   2.318   4.463   1.188 -0.1327 -4.2318 -1.9893
  177MOL0     H23337   2.276   4.620   1.124 -2.1910 -1.1894  2.6105
  177MOL0     H23338   2.231   4.367   0.969 -0.7378  0.0143 -1.1837
  177MOL0     H23339   2.171   4.527   0.931 -0.4038  0.4533  0.1715
  177MOL0     H23340   2.005   4.511   1.122 -0.6541  0.1223  1.6107
  177MOL0     H23341   2.084   4.363   1.171 -1.4386  1.2129  0.7918
  177MOL0     H23342   1.977   4.397   0.902 -0.7564  3.0989  0.8240
  177MOL0     H23343   1.968   4.245   1.012  0.9839 -0.3176 -1.9506
  177MOL0     H23344   1.757   4.311   0.978  0.6838  0.0169  0.1952
  177MOL0     H23345   1.790   4.482   1.011 -0.3098 -0.1827 -2.6869
  177MOL0     H23346   2.799   4.350   0.721  0.0630 -1.8160  0.6861
  177MOL0     H23347   3.044   4.342   0.620  1.4144 -2.8892 -0.1415
  177MOL0     H23348   3.510   4.305   0.811  1.0238 -2.9058 -0.3618
  177MOL0     H23349   3.733   4.289   0.753 -0.4056 -2.1705 -1.3435
  177MOL0     H23350   5.484   3.421   0.262 -2.1711 -1.4176 -1.3847
  177MOL0     H23351   5.725   3.388   0.211  0.1555 -3.0015 -1.1060
  177MOL0     H23352   6.063   3.096   0.021  0.5046 -0.3901  0.2432
  177MOL0     H23353   6.312   3.093   0.028 -0.1052 -0.7268 -5.1739
  177MOL0     H23354   6.571   3.382   0.099  0.8060 -0.3415  0.4456
  177MOL0     H23355   6.556   3.456  -0.062  0.6032 -1.1759 -2.7748
  177MOL0     H23356   6.719   3.202   0.026  5.1015 -0.3547 -0.9763
  177MOL0     H23357   6.711   3.272  -0.137 -0.9984 -0.9785  0.6849
  177MOL0     H23358   6.815   3.482  -0.066 -2.5480 -0.1517 -2.4613
  177MOL0     H23359   6.924   3.343  -0.047  0.2726  0.3464  0.8608
  177MOL0     H23360   6.962   3.466   0.144  0.6742 -0.5412  0.3770
  177MOL0     H23361   6.788   3.504   0.167 -0.2065 -0.9087 -0.9122
  177MOL0     H23362   6.874   3.149   0.393  0.4596  0.9779  0.7989
  177MOL0     H23363   6.326   3.507  -0.075 -0.2033 -0.3530 -0.8823
  177MOL0     H23364   6.082   3.516  -0.040 -0.3722 -0.3321  3.5519
  178MOL0     O23365   1.059   5.766  10.206 -0.2716 -0.7853 -0.5772
  178MOL0     C23366   1.118   5.725  10.308  0.4488 -0.8525  0.4134
  178MOL0     O23367   1.079   5.623  10.391 -0.1518 -0.0005 -0.2984
  178MOL0     C23368   0.992   5.526  10.341 -0.0237  1.1754  0.5836
  178MOL0     C23369   0.854   5.544  10.326 -0.6529  0.1116 -0.8423
  178MOL0     C23370   0.777   5.435  10.275 -0.1334 -0.1722 -0.4081
  178MOL0     C23371   0.829   5.316  10.233  1.0919  0.4712  0.0453
  178MOL0     O23372   0.752   5.214  10.182  0.1528 -0.0477 -0.7248
  178MOL0     C23373   0.608   5.231  10.170  0.0933 -0.5227  0.1848
  178MOL0     C23374   0.549   5.122  10.071 -0.3007 -0.0782  0.0220
  178MOL0     C23375   0.614   5.120   9.942  0.0813 -0.4938  0.6330
  178MOL0     C23376   0.562   5.008   9.859  0.4551 -0.2180 -0.3455
  178MOL0     C23377   0.620   4.999   9.714  0.7677  0.6937 -0.3776
  178MOL0     C23378   0.764   4.943   9.699  0.4699 -0.0802 -0.2971
  178MOL0     C23379   0.828   4.978   9.575 -0.0488 -0.5640 -0.5821
  178MOL0     C23380   0.986   4.967   9.576 -0.8624  0.0082 -0.1963
  178MOL0     N23381   1.026   4.831   9.612 -0.2514  0.6451  0.3413
  178MOL0     C23382   1.056   4.729   9.523  1.0253 -0.2601 -0.0768
  178MOL0     C23383   1.068   4.616   9.601  0.7688 -0.6298  0.2965
  178MOL0     C23384   1.090   4.470   9.566  0.1041  0.4048  0.1188
  178MOL0     C23385   0.973   4.412   9.483  0.5062  0.8828  0.6182
  178MOL0     C23386   0.827   4.426   9.548 -0.1464  0.5267  0.4702
  178MOL0     C23387   0.725   4.342   9.473  0.2754 -0.1633 -0.6960
  178MOL0     O23388   0.602   4.352   9.542 -0.0428  0.1723 -0.3320
  178MOL0     C23389   0.478   4.329   9.482  0.3060  0.2497  0.8421
  178MOL0     C23390   0.462   4.241   9.369  0.0393  0.0694 -0.1083
  178MOL0     C23391   0.335   4.222   9.317  0.1983 -0.8877  0.1846
  178MOL0     C23392   0.219   4.276   9.374 -0.5928  0.6194  0.0015
  178MOL0     C23393   0.090   4.248   9.309  0.2647  0.7402 -0.7060
  178MOL0     O23394  -0.003   4.319   9.377  0.3489  0.0038  0.5486
  178MOL0     C23395  -0.134   4.304   9.348  0.7914  0.7033 -0.0381
  178MOL0     C23396  -0.226   4.273   9.454 -0.2759  0.8103  0.3233
  178MOL0     C23397  -0.362   4.254   9.428  0.3919 -0.9066 -0.0906
  178MOL0     C23398  -0.412   4.259   9.298 -0.9295 -0.6577  0.0853
  178MOL0     O23399  -0.543   4.238   9.269  0.0730 -0.4949 -1.1598
  178MOL0     C23400  -0.646   4.312   9.339 -0.7105 -0.3278 -0.5444
  178MOL0     C23401  -0.761   4.334   9.249 -0.2930 -0.2430  0.4725
  178MOL0     C23402  -0.902   4.347   9.319 -0.0568 -0.3329 -0.3727
  178MOL0     C23403  -1.021   4.367   9.232  0.4985 -0.0647 -0.9158
  178MOL0     C23404  -1.039   4.252   9.134  0.0935 -0.0922 -0.9533
  178MOL0     C23405  -1.176   4.267   9.066  0.8650 -0.3830  0.2620
  178MOL0     C23406  -1.283   4.234   9.171  0.0555 -0.2682  0.5374
  178MOL0     C23407  -1.420   4.211   9.097  0.5751  0.3796  0.3378
  178MOL0    Cl23408  -1.521   4.121   9.214  0.5428 -0.4057 -0.0790
  178MOL0     C23409  -0.317   4.274   9.197 -1.0704 -0.3363 -0.0200
  178MOL0     C23410  -0.177   4.303   9.212  0.5971  0.0179  0.3671
  178MOL0     O23411   0.076   4.178   9.212 -0.0943 -0.2855  0.5476
  178MOL0     C23412   0.234   4.350   9.496 -0.2669 -0.7037  0.1479
  178MOL0     C23413   0.361   4.374   9.547  0.6287 -0.2415  0.1228
  178MOL0     N23414   1.057   4.656   9.736 -0.3653 -0.3429 -0.0008
  178MOL0     N23415   1.038   4.784   9.737  0.0614  0.1802 -0.7214
  178MOL0     C23416   0.967   5.301  10.252  0.5830  0.1607 -0.4690
  178MOL0     C23417   1.049   5.397  10.308  0.5933 -0.0589  0.9314
  178MOL0     C23418   1.233   5.804  10.348 -1.0492  0.1087  0.5642
  178MOL0     C23419   1.290   5.798  10.476  0.5666  0.5552 -0.0174
  178MOL0     C23420   1.399   5.878  10.508 -0.3670  0.4015  0.1848
  178MOL0     C23421   1.459   5.971  10.420 -0.8738 -0.9961 -0.2704
  178MOL0     O23422   1.570   6.041  10.463 -0.4112 -0.0002  1.0498
  178MOL0     C23423   1.582   6.180  10.408  0.5835  0.3384 -0.3276
  178MOL0     C23424   1.594   6.262  10.533  0.7711  0.1936  0.0103
  178MOL0     C23425   1.588   6.421  10.511 -0.2264 -0.2137 -0.5581
  178MOL0     C23426   1.691   6.475  10.405 -0.0138 -0.4360  0.7284
  178MOL0     C23427   1.830   6.420  10.419 -0.3494 -0.7317 -0.1323
  178MOL0     C23428   1.939   6.363  10.436 -0.3015  0.4458 -0.2294
  178MOL0     C23429   1.410   5.967  10.290  0.4113 -0.3556  0.0044
  178MOL0     C23430   1.295   5.892  10.254 -0.4979  0.3042  0.1370
  178MOL0     H23431   0.811   5.632  10.370 -0.8134  0.4297 -1.6171
  178MOL0     H23432   0.670   5.451  10.285 -0.2291 -1.7110  1.5785
  178MOL0     H23433   0.583   5.327  10.123 -0.0639 -1.4379 -1.6818
  178MOL0     H23434   0.563   5.226  10.270  2.5296  0.8612  1.4549
  178MOL0     H23435   0.441   5.135  10.060 -0.2199 -0.0733 -0.9229
  178MOL0     H23436   0.571   5.025  10.117 -0.7349  0.4823  1.4338
  178MOL0     H23437   0.722   5.115   9.957  0.3279 -4.1294 -1.2817
  178MOL0     H23438   0.591   5.213   9.890  0.9182 -0.8965 -0.5005
  178MOL0     H23439   0.573   4.913   9.912 -0.7151 -0.1811 -0.0103
  178MOL0     H23440   0.456   5.033   9.860  0.9564  2.0464  0.5113
  178MOL0     H23441   0.621   5.102   9.676 -0.5466  1.5433  1.7219
  178MOL0     H23442   0.555   4.933   9.656  0.6582  0.5645 -0.1058
  178MOL0     H23443   0.754   4.835   9.715  0.0364  0.0543  0.3970
  178MOL0     H23444   0.832   4.983   9.775  2.6135 -3.5770 -0.1513
  178MOL0     H23445   0.785   4.908   9.502 -1.1725  0.8696 -1.3679
  178MOL0     H23446   0.806   5.079   9.538  0.8498 -0.6238 -1.2952
  178MOL0     H23447   1.046   5.030   9.642 -0.4099 -2.1610  1.5938
  178MOL0     H23448   1.011   4.988   9.471  0.6144 -1.0500 -0.0902
  178MOL0     H23449   1.052   4.728   9.414  1.9384  2.0979 -0.1956
  178MOL0     H23450   1.090   4.411   9.658 -2.5095 -0.4085 -0.3193
  178MOL0     H23451   1.192   4.461   9.528  0.4633 -2.1747  1.4587
  178MOL0     H23452   1.005   4.312   9.454 -2.2018 -0.2300  1.2156
  178MOL0     H23453   0.978   4.462   9.386  0.2441  1.6633  1.0023
  178MOL0     H23454   0.829   4.394   9.653 -2.9557  0.7512  0.6819
  178MOL0     H23455   0.801   4.533   9.551 -0.1621  0.5583 -0.6588
  178MOL0     H23456   0.766   4.241   9.468 -1.0176 -0.6963 -1.0805
  178MOL0     H23457   0.709   4.380   9.372  1.6568 -1.2987 -1.3624
  178MOL0     H23458   0.547   4.198   9.316  2.1357  1.6307  1.8143
  178MOL0     H23459   0.328   4.164   9.225  1.4528 -2.2221  0.8999
  178MOL0     H23460  -0.195   4.276   9.558 -2.0197  0.4235  0.8861
  178MOL0     H23461  -0.429   4.236   9.511 -1.5897  0.4612 -1.2858
  178MOL0     H23462  -0.609   4.411   9.367 -0.0070 -0.5249 -0.7531
  178MOL0     H23463  -0.680   4.251   9.423 -0.4373 -0.8493 -0.8085
  178MOL0     H23464  -0.766   4.273   9.158 -2.6465  0.8947 -0.2507
  178MOL0     H23465  -0.740   4.432   9.205 -1.0535 -1.0091 -1.7325
  178MOL0     H23466  -0.906   4.436   9.382 -0.3442 -0.5124 -0.1334
  178MOL0     H23467  -0.922   4.260   9.384  2.6181  0.1177  1.1918
  178MOL0     H23468  -1.102   4.372   9.306  2.7438 -2.2389  1.9514
  178MOL0     H23469  -1.008   4.461   9.178 -0.3063  1.4329  1.3364
  178MOL0     H23470  -1.037   4.155   9.187 -2.1017  0.6608  0.6851
  178MOL0     H23471  -0.969   4.267   9.052  2.5718  2.6748  1.4368
  178MOL0     H23472  -1.186   4.196   8.983 -1.0128  3.8719 -3.6064
  178MOL0     H23473  -1.193   4.368   9.029 -0.3259 -0.4307  0.6258
  178MOL0     H23474  -1.251   4.151   9.235  1.1710  1.4350  2.2742
  178MOL0     H23475  -1.296   4.318   9.240  2.4717  0.5093  0.1328
  178MOL0     H23476  -1.413   4.154   9.004 -2.9614 -0.2971  0.3558
  178MOL0     H23477  -1.466   4.308   9.077 -0.1003  0.0432  0.2207
  178MOL0     H23478  -0.352   4.249   9.098 -2.5425  1.0399  0.1153
  178MOL0     H23479  -0.113   4.321   9.126  0.2112  0.8620  0.2436
  178MOL0     H23480   0.141   4.389   9.537 -2.1183 -1.7172 -2.7774
  178MOL0     H23481   0.375   4.433   9.637 -0.2592  1.0110 -0.5372
  178MOL0     H23482   1.020   5.215  10.213  0.2504  0.0696 -0.7236
  178MOL0     H23483   1.154   5.383  10.332  0.7062 -1.1561 -0.1203
  178MOL0     H23484   1.263   5.719  10.545  2.3015 -0.6085 -0.6310
  178MOL0     H23485   1.438   5.881  10.609  0.7661  2.3574 -0.2711
  178MOL0     H23486   1.497   6.215  10.349  0.4479 -1.2742 -1.1505
  178MOL0     H23487   1.671   6.192  10.344  2.1532  0.9635  1.8479
  178MOL0     H23488   1.524   6.234  10.612  1.4131  1.2540  0.9790
  178MOL0     H23489   1.682   6.220  10.582 -0.6838 -2.0725  0.8580
  178MOL0     H23490   1.605   6.478  10.603 -2.9505 -0.2052  0.0306
  178MOL0     H23491   1.484   6.440  10.484 -0.0987  0.7364 -0.3872
  178MOL0     H23492   1.643   6.455  10.309 -2.3357  0.7759  1.5552
  178MOL0     H23493   1.688   6.584  10.404 -1.7141 -0.4569  0.5080
  178MOL0     H23494   2.037   6.322  10.453  0.2934  2.6351  2.1113
  178MOL0     H23495   1.453   6.030  10.213 -0.5511  0.2953 -0.0237
  178MOL0     H23496   1.264   5.894  10.150 -0.5973 -0.8538  0.1319
  179MOL0     O23497  11.208   8.441   1.512 -0.4548 -0.0587 -0.0953
  179MOL0     C23498  11.244   8.450   1.395  0.5024 -0.5293  0.1497
  179MOL0     O23499  11.166   8.453   1.290  0.3958 -0.4528 -0.3778
  179MOL0     C23500  11.023   8.447   1.314 -0.2003 -0.2652 -0.8646
  179MOL0     C23501  10.945   8.513   1.418  0.9423 -0.2140 -0.1639
  179MOL0     C23502  10.803   8.503   1.418 -0.6938 -0.0362 -0.1732
  179MOL0     C23503  10.739   8.437   1.314 -0.6798 -0.4301  0.4883
  179MOL0     O23504  10.605   8.419   1.300  0.0873 -0.3404  0.2830
  179MOL0     C23505  10.516   8.445   1.408  0.1231 -0.2497  0.3002
  179MOL0     C23506  10.378   8.376   1.399  1.0657  0.2660  0.5302
  179MOL0     C23507  10.292   8.403   1.275 -0.8094 -0.5951  0.1275
  179MOL0     C23508  10.168   8.318   1.276  0.5588  0.0721  0.2473
  179MOL0     C23509  10.097   8.346   1.148  0.4737 -0.0358  0.5846
  179MOL0     C23510   9.963   8.259   1.140  0.0478  0.0416  0.5486
  179MOL0     C23511   9.882   8.265   1.010 -0.4080 -0.7629  1.0899
  179MOL0     C23512   9.763   8.166   1.003 -0.2708  0.2013  0.0619
  179MOL0     N23513   9.694   8.183   0.869  0.1328  0.1828 -0.0981
  179MOL0     C23514   9.563   8.229   0.867 -0.3666  1.1560  0.1792
  179MOL0     C23515   9.525   8.200   0.734 -0.1432  0.8133  0.2402
  179MOL0     C23516   9.388   8.230   0.687 -0.0110  0.4287  0.0938
  179MOL0     C23517   9.361   8.204   0.540  0.2616 -0.2739  0.3213
  179MOL0     C23518   9.230   8.272   0.489  0.2997  0.3496 -0.9758
  179MOL0     C23519   9.201   8.235   0.341 -0.7305  0.4297 -0.2468
  179MOL0     O23520   9.082   8.285   0.289 -0.0538 -0.0735  0.8073
  179MOL0     C23521   8.965   8.223   0.317  0.0219  0.0636 -0.8639
  179MOL0     C23522   8.937   8.128   0.413 -0.3371 -0.4976  0.2449
  179MOL0     C23523   8.801   8.087   0.436 -0.6870 -0.0132  0.2733
  179MOL0     C23524   8.696   8.131   0.358 -0.6545 -0.3755  0.0170
  179MOL0     C23525   8.564   8.088   0.381 -0.1719 -0.4291 -0.2905
  179MOL0     O23526   8.472   8.132   0.300  0.0351 -0.2112  0.0418
  179MOL0     C23527   8.347   8.094   0.338  0.4139 -0.2858 -0.6571
  179MOL0     C23528   8.286   7.992   0.257 -0.6804 -1.2185  0.0068
  179MOL0     C23529   8.159   7.951   0.286  0.0292  0.8227  0.4208
  179MOL0     C23530   8.077   8.012   0.373 -0.2438 -0.4924 -1.4435
  179MOL0     O23531   7.952   7.984   0.423  0.0496  0.2155 -0.0239
  179MOL0     C23532   7.889   7.868   0.362 -0.4517  0.2046  1.0732
  179MOL0     C23533   7.762   7.842   0.441  0.4949 -0.1848 -0.1344
  179MOL0     C23534   7.667   7.960   0.412 -0.3186 -0.1174  0.1416
  179MOL0     C23535   7.534   7.932   0.488 -0.3152 -0.9299  0.5445
  179MOL0     C23536   7.436   8.053   0.457  0.8315 -0.9841  0.6908
  179MOL0     C23537   7.317   8.047   0.556  1.1257 -0.3148  0.0036
  179MOL0     C23538   7.359   8.100   0.704  0.1098  0.6915  1.0008
  179MOL0     C23539   7.244   8.124   0.796  0.6853 -0.3739  0.1620
  179MOL0    Cl23540   7.141   8.272   0.743 -0.2457 -0.6391  0.2587
  179MOL0     C23541   8.142   8.113   0.451  0.4699  0.0463  0.4502
  179MOL0     C23542   8.274   8.154   0.440  0.3245  0.2124  0.1022
  179MOL0     O23543   8.554   8.009   0.479 -0.4117 -0.6951  0.6481
  179MOL0     C23544   8.730   8.230   0.262  0.3100  0.2669  0.4661
  179MOL0     C23545   8.858   8.279   0.245 -0.0611 -0.6202 -0.0294
  179MOL0     N23546   9.633   8.161   0.666  0.3775  0.3112  0.4468
  179MOL0     N23547   9.737   8.152   0.748 -0.6183 -0.4854  0.4139
  179MOL0     C23548  10.812   8.369   1.219  0.3297 -0.3890  0.1446
  179MOL0     C23549  10.948   8.370   1.220 -0.2534 -0.3165 -0.2266
  179MOL0     C23550  11.388   8.488   1.370  1.0956 -0.4628  0.3391
  179MOL0     C23551  11.435   8.530   1.244 -0.4136  0.3074 -0.4777
  179MOL0     C23552  11.571   8.551   1.217 -0.0383  0.2394 -0.6164
  179MOL0     C23553  11.658   8.574   1.322  0.4981 -0.1313  0.4140
  179MOL0     O23554  11.786   8.613   1.300  0.6911  0.4734  0.4724
  179MOL0     C23555  11.838   8.630   1.168 -0.4475  0.0620 -0.2761
  179MOL0     C23556  11.994   8.630   1.168  0.1506 -0.5720  0.4748
  179MOL0     C23557  12.056   8.740   1.267 -0.9014  0.6304  1.2040
  179MOL0     C23558  12.215   8.728   1.258 -0.5663  0.1693 -0.9075
  179MOL0     C23559  12.279   8.809   1.361 -0.4867  0.5504 -0.5682
  179MOL0     C23560  12.348   8.873   1.441  0.6904  0.3156 -0.1914
  179MOL0     C23561  11.618   8.532   1.447  0.7448 -0.3589  0.1174
  179MOL0     C23562  11.491   8.481   1.471  0.4885  0.3121  0.4186
  179MOL0     H23563  10.990   8.563   1.503 -0.3622 -1.3697  1.2731
  179MOL0     H23564  10.750   8.556   1.497 -2.8169 -2.5350  0.1896
  179MOL0     H23565  10.495   8.552   1.401 -0.6563 -0.3510  0.8908
  179MOL0     H23566  10.567   8.420   1.501  0.4649  0.6976  0.3702
  179MOL0     H23567  10.316   8.397   1.487 -2.6709  0.1021 -1.8540
  179MOL0     H23568  10.402   8.269   1.391 -3.2354 -0.7873 -0.8058
  179MOL0     H23569  10.358   8.381   1.190 -1.6673 -1.6798 -0.2834
  179MOL0     H23570  10.266   8.509   1.275  0.3542 -0.2793  1.5327
  179MOL0     H23571  10.201   8.214   1.277  1.0593  0.2016 -0.8647
  179MOL0     H23572  10.098   8.330   1.360 -1.0527 -1.4780 -0.7985
  179MOL0     H23573  10.161   8.317   1.064  2.2613  3.6251  0.5159
  179MOL0     H23574  10.071   8.452   1.143 -1.2713 -0.4824 -0.5350
  179MOL0     H23575   9.892   8.297   1.214 -0.2435 -1.3508  0.9976
  179MOL0     H23576   9.979   8.153   1.159  0.0727 -0.2888 -1.1194
  179MOL0     H23577   9.852   8.370   1.001  3.8926  0.5922  0.3690
  179MOL0     H23578   9.952   8.255   0.927 -0.9045  1.2864  0.3693
  179MOL0     H23579   9.692   8.179   1.085 -1.6939  0.5484 -1.1948
  179MOL0     H23580   9.806   8.065   1.002 -1.8528 -0.4990 -0.6647
  179MOL0     H23581   9.512   8.275   0.951  1.3003  4.0483 -0.2313
  179MOL0     H23582   9.364   8.331   0.721  2.2034  1.6518 -1.7198
  179MOL0     H23583   9.338   8.153   0.747 -0.5801 -0.1150 -1.0628
  179MOL0     H23584   9.357   8.096   0.522  2.4101 -0.6501  1.8019
  179MOL0     H23585   9.439   8.248   0.477 -1.2018  0.1949 -1.2398
  179MOL0     H23586   9.144   8.253   0.554 -0.8236  1.7756 -1.9736
  179MOL0     H23587   9.249   8.379   0.500  1.5767  0.0019  0.5826
  179MOL0     H23588   9.221   8.128   0.326  2.0672  0.9315 -0.7104
  179MOL0     H23589   9.284   8.284   0.289 -0.8261  0.7788 -0.0682
  179MOL0     H23590   9.016   8.085   0.475 -1.1634  0.0550  1.7388
  179MOL0     H23591   8.778   8.017   0.515  0.9423  0.2776  1.0420
  179MOL0     H23592   8.337   7.940   0.177 -1.7856 -0.6831 -1.0860
  179MOL0     H23593   8.119   7.865   0.233 -0.0099  1.0966  0.0049
  179MOL0     H23594   7.959   7.785   0.365  2.2742  2.1470 -2.0868
  179MOL0     H23595   7.869   7.887   0.256 -0.3611 -1.0150  0.8266
  179MOL0     H23596   7.776   7.831   0.549  0.6256 -0.9298 -0.2225
  179MOL0     H23597   7.723   7.753   0.391 -0.4018  1.0834 -1.8150
  179MOL0     H23598   7.629   7.957   0.309 -1.6110  0.1218  0.6035
  179MOL0     H23599   7.707   8.061   0.430 -0.5226  0.3339 -1.7013
  179MOL0     H23600   7.488   7.837   0.460 -1.6306 -0.1765  0.0335
  179MOL0     H23601   7.555   7.928   0.595 -0.9212  1.2169  0.7915
  179MOL0     H23602   7.402   8.041   0.354 -1.6570  3.9490  0.6334
  179MOL0     H23603   7.473   8.156   0.467  0.3242 -0.8086  0.8173
  179MOL0     H23604   7.283   7.943   0.555  0.9936 -0.2696 -0.4675
  179MOL0     H23605   7.242   8.112   0.512  3.1388  0.5893 -2.3490
  179MOL0     H23606   7.433   8.027   0.736 -0.5054  0.4340  1.8624
  179MOL0     H23607   7.405   8.197   0.684 -0.0405  0.2619 -1.8697
  179MOL0     H23608   7.276   8.137   0.900  0.2522 -0.4826  0.3152
  179MOL0     H23609   7.185   8.032   0.800 -2.2497  1.3779 -0.0153
  179MOL0     H23610   8.088   8.167   0.528 -0.3538  1.4186 -1.0175
  179MOL0     H23611   8.334   8.225   0.497  1.0726  0.0889 -0.5153
  179MOL0     H23612   8.656   8.267   0.191 -0.6044 -0.9844  0.7423
  179MOL0     H23613   8.884   8.353   0.170 -0.2968  0.2696  0.7476
  179MOL0     H23614  10.759   8.322   1.137 -1.2399  2.3428 -0.5241
  179MOL0     H23615  10.997   8.308   1.145  4.8029  1.0645  1.5082
  179MOL0     H23616  11.370   8.528   1.157 -0.3628  0.2021 -0.5132
  179MOL0     H23617  11.598   8.569   1.113  3.7785 -1.5139 -0.1016
  179MOL0     H23618  11.804   8.732   1.145  0.8136  1.3472  2.9433
  179MOL0     H23619  11.804   8.549   1.102 -0.0041 -1.6101  1.4695
  179MOL0     H23620  12.032   8.530   1.191  0.9735 -0.4255 -0.2328
  179MOL0     H23621  12.033   8.657   1.070 -0.3306  0.7838  0.6287
  179MOL0     H23622  12.012   8.719   1.365 -4.2585  0.9386 -0.0987
  179MOL0     H23623  12.029   8.840   1.233 -0.6767  0.1289 -0.5921
  179MOL0     H23624  12.238   8.627   1.292  0.1884  0.8531  0.7320
  179MOL0     H23625  12.251   8.746   1.157  1.2727 -1.2375 -0.5469
  179MOL0     H23626  12.415   8.929   1.503  0.6535  2.4646 -1.9646
  179MOL0     H23627  11.688   8.541   1.530 -1.0054 -0.5157  1.7002
  179MOL0     H23628  11.467   8.440   1.568  0.1607  0.3270  0.3458
  180MOL0     O23629   2.710   0.240   4.376 -0.3778 -0.1089 -1.1549
  180MOL0     C23630   2.779   0.218   4.277  0.3381  1.1134 -0.6847
  180MOL0     O23631   2.731   0.167   4.160  0.7116 -0.0000 -0.2958
  180MOL0     C23632   2.597   0.145   4.149 -0.9509  0.6599  0.5747
  180MOL0     C23633   2.555   0.011   4.137 -0.1519 -0.5898 -0.0122
  180MOL0     C23634   2.417  -0.016   4.108 -0.3370 -0.3202  0.5114
  180MOL0     C23635   2.330   0.095   4.088  0.4398  0.3776 -0.5214
  180MOL0     O23636   2.208   0.060   4.048  0.1519 -0.3105 -0.0235
  180MOL0     C23637   2.108   0.164   4.032 -0.2210  0.3284 -0.1084
  180MOL0     C23638   1.971   0.101   4.054 -0.5068  0.4208  0.1396
  180MOL0     C23639   1.859   0.202   4.044 -0.6619  0.9490 -0.9950
  180MOL0     C23640   1.716   0.146   4.085  0.6533  0.5550 -0.0314
  180MOL0     C23641   1.602   0.259   4.078  0.4615 -0.6202  0.3971
  180MOL0     C23642   1.461   0.196   4.103  0.2425 -0.2359  0.3360
  180MOL0     C23643   1.351   0.301   4.085 -0.2080 -0.0639 -0.2245
  180MOL0     C23644   1.214   0.244   4.141 -0.3293 -0.5137 -0.0687
  180MOL0     N23645   1.097   0.334   4.140  0.1217 -0.9368  0.4587
  180MOL0     C23646   1.029   0.357   4.027  1.0214 -0.5082  0.6409
  180MOL0     C23647   0.914   0.414   4.078 -0.5661  0.2238  0.1070
  180MOL0     C23648   0.785   0.449   3.997  0.4505  0.2749  0.0203
  180MOL0     C23649   0.658   0.425   4.093 -0.5275 -0.6735  0.6452
  180MOL0     C23650   0.629   0.551   4.186  1.5426 -0.0516 -0.8997
  180MOL0     C23651   0.491   0.525   4.265 -0.5151  0.2545 -0.3188
  180MOL0     O23652   0.384   0.481   4.176  0.5537 -0.3657 -0.6128
  180MOL0     C23653   0.256   0.495   4.217  0.1611 -0.4295  0.9599
  180MOL0     C23654   0.216   0.535   4.343 -0.2251  0.2029 -0.0608
  180MOL0     C23655   0.086   0.564   4.365 -0.4126 -0.0850 -0.5939
  180MOL0     C23656  -0.019   0.548   4.273  0.4021 -0.4026 -0.0333
  180MOL0     C23657  -0.152   0.586   4.309 -0.0645  0.3359  0.0831
  180MOL0     O23658  -0.171   0.633   4.427 -0.3199 -0.0378 -0.6374
  180MOL0     C23659  -0.285   0.691   4.483  0.4620 -0.4044  0.5102
  180MOL0     C23660  -0.364   0.774   4.410 -0.0671 -0.6103 -1.1219
  180MOL0     C23661  -0.460   0.846   4.474  0.4036 -0.2029 -0.1365
  180MOL0     C23662  -0.472   0.848   4.611 -0.0340 -0.1716  0.0552
  180MOL0     O23663  -0.572   0.929   4.664 -0.2746 -0.0701 -0.1726
  180MOL0     C23664  -0.600   1.052   4.594  0.2361 -0.2420  0.2719
  180MOL0     C23665  -0.694   1.144   4.674 -0.0579 -0.4596 -0.0253
  180MOL0     C23666  -0.636   1.225   4.789  0.6845 -1.3903  0.3602
  180MOL0     C23667  -0.551   1.140   4.880 -0.2466  0.0162 -0.4141
  180MOL0     C23668  -0.503   1.221   4.994 -0.0661 -0.5764 -0.8947
  180MOL0     C23669  -0.604   1.264   5.107  0.8327  0.2966 -0.2073
  180MOL0     C23670  -0.723   1.154   5.127 -0.9631 -0.0882  0.5953
  180MOL0     C23671  -0.783   1.175   5.264 -0.4620 -0.0918 -0.5920
  180MOL0    Cl23672  -0.675   1.115   5.392 -0.2932 -0.3014  0.2577
  180MOL0     C23673  -0.394   0.759   4.690 -0.4841  0.6525  0.0026
  180MOL0     C23674  -0.294   0.684   4.623  0.2520 -0.4179  0.2335
  180MOL0     O23675  -0.230   0.587   4.216  0.2022  0.0346  0.8734
  180MOL0     C23676   0.019   0.498   4.143  0.1869 -0.9987  0.4388
  180MOL0     C23677   0.153   0.476   4.117  0.0161  0.2948 -0.6781
  180MOL0     N23678   0.937   0.444   4.210  0.1931  0.2053  0.7035
  180MOL0     N23679   1.043   0.395   4.250  0.9784  0.0383 -0.6114
  180MOL0     C23680   2.378   0.228   4.103  0.4951  1.1915 -0.5857
  180MOL0     C23681   2.508   0.249   4.137  0.3927  0.1910  0.0041
  180MOL0     C23682   2.923   0.251   4.282 -0.2933 -0.1249  0.5168
  180MOL0     C23683   2.993   0.236   4.156 -0.3157  0.7443  0.5112
  180MOL0     C23684   3.117   0.294   4.149 -0.2540 -0.4728 -0.5505
  180MOL0     C23685   3.178   0.357   4.259 -0.6114 -0.5556 -0.3419
  180MOL0     O23686   3.296   0.413   4.264 -0.4785  0.6259  0.1566
  180MOL0     C23687   3.392   0.414   4.154 -0.7214  0.2271  0.5291
  180MOL0     C23688   3.509   0.513   4.177 -0.7144  0.2366 -0.8144
  180MOL0     C23689   3.582   0.496   4.312 -0.3469 -0.2481 -0.2339
  180MOL0     C23690   3.674   0.378   4.312 -0.6405  0.4119  0.0924
  180MOL0     C23691   3.744   0.378   4.444  0.6990 -1.0029 -0.1668
  180MOL0     C23692   3.771   0.372   4.569 -0.2668 -0.3071 -0.4876
  180MOL0     C23693   3.102   0.362   4.382  0.2969  0.6098  0.0433
  180MOL0     C23694   2.977   0.304   4.389 -0.7226  0.5092 -0.1222
  180MOL0     H23695   2.625  -0.069   4.160  1.0221  0.8335  1.6660
  180MOL0     H23696   2.378  -0.118   4.102 -2.7060  0.4748  1.1667
  180MOL0     H23697   2.116   0.201   3.930 -0.8631 -1.4655 -0.8542
  180MOL0     H23698   2.128   0.244   4.103  1.2556 -1.0107  1.0572
  180MOL0     H23699   1.961   0.058   4.154 -2.1231  0.1998 -0.0990
  180MOL0     H23700   1.957   0.024   3.978 -1.0099 -0.5991  1.2394
  180MOL0     H23701   1.856   0.229   3.938  0.1172 -0.9842 -1.5501
  180MOL0     H23702   1.879   0.281   4.117 -1.0472  0.4871 -0.3755
  180MOL0     H23703   1.695   0.062   4.018  0.0848  2.4712 -2.4046
  180MOL0     H23704   1.726   0.104   4.185  0.3359 -2.8983 -1.3332
  180MOL0     H23705   1.606   0.302   3.978  1.6697  0.6641  0.9581
  180MOL0     H23706   1.615   0.339   4.151  0.2021  2.1857 -2.4492
  180MOL0     H23707   1.455   0.162   4.207 -1.9524  0.1811  0.3933
  180MOL0     H23708   1.446   0.108   4.040 -1.6695  1.6736 -2.1205
  180MOL0     H23709   1.369   0.386   4.151 -0.2000 -0.2767  0.0465
  180MOL0     H23710   1.350   0.333   3.980 -0.9132 -1.6667 -0.7323
  180MOL0     H23711   1.227   0.217   4.246  1.8361 -1.1210 -0.4662
  180MOL0     H23712   1.192   0.154   4.083  0.1773 -0.8371  0.2342
  180MOL0     H23713   1.047   0.337   3.922 -2.1608  1.9410 -0.5458
  180MOL0     H23714   0.785   0.386   3.908  2.4259 -0.3514  0.4258
  180MOL0     H23715   0.784   0.552   3.962  0.4887  0.8736  1.6570
  180MOL0     H23716   0.673   0.330   4.146  0.4690 -0.6873  0.3557
  180MOL0     H23717   0.569   0.397   4.035 -0.0418  1.5442 -1.2811
  180MOL0     H23718   0.713   0.574   4.252  0.3235 -4.4495  2.6878
  180MOL0     H23719   0.606   0.637   4.123  0.2079  0.1354 -0.1998
  180MOL0     H23720   0.468   0.614   4.324  0.9108  0.7050 -0.4087
  180MOL0     H23721   0.496   0.443   4.338 -2.3272  0.5064  0.1448
  180MOL0     H23722   0.282   0.556   4.427 -2.5468  0.4743  1.8212
  180MOL0     H23723   0.071   0.607   4.464  1.0086 -0.6965 -0.0886
  180MOL0     H23724  -0.349   0.791   4.304 -0.5049 -0.8779 -1.2308
  180MOL0     H23725  -0.528   0.909   4.417 -1.7783  0.9484  3.4410
  180MOL0     H23726  -0.658   1.034   4.503  0.0453 -1.5226  0.6256
  180MOL0     H23727  -0.510   1.109   4.569 -0.6412  1.9272  1.6700
  180MOL0     H23728  -0.779   1.093   4.721 -0.7942  1.0519  0.3468
  180MOL0     H23729  -0.733   1.215   4.601  1.7614  1.8192  1.1095
  180MOL0     H23730  -0.715   1.278   4.843  1.3221 -1.6855  1.6261
  180MOL0     H23731  -0.566   1.301   4.756 -0.0801  0.7228  3.1825
  180MOL0     H23732  -0.609   1.053   4.913  0.4471 -0.1929  0.2745
  180MOL0     H23733  -0.465   1.096   4.829 -1.1108 -1.7473 -0.4111
  180MOL0     H23734  -0.454   1.312   4.959  0.6600  0.2549  1.9713
  180MOL0     H23735  -0.432   1.159   5.050  1.4839  1.8016 -0.0777
  180MOL0     H23736  -0.649   1.358   5.077  1.0516  0.1998 -0.8531
  180MOL0     H23737  -0.556   1.271   5.205 -0.3131  3.2805  0.2234
  180MOL0     H23738  -0.785   1.157   5.036  1.5998  1.0092 -1.2376
  180MOL0     H23739  -0.677   1.056   5.128 -0.6137  0.0766  0.8653
  180MOL0     H23740  -0.881   1.127   5.270 -1.6122  2.2179  0.7614
  180MOL0     H23741  -0.809   1.281   5.274 -1.3688 -0.4761  1.8821
  180MOL0     H23742  -0.414   0.756   4.797  0.2427  1.5881  0.1717
  180MOL0     H23743  -0.219   0.633   4.682  0.0186  0.6032  1.4592
  180MOL0     H23744  -0.057   0.480   4.068 -3.0496  1.0232  2.9608
  180MOL0     H23745   0.190   0.433   4.024  1.3199  0.0051 -0.0501
  180MOL0     H23746   2.319   0.319   4.100  0.4649  1.1526 -1.4837
  180MOL0     H23747   2.552   0.348   4.147  6.0276 -1.6869 -1.9782
  180MOL0     H23748   2.943   0.188   4.073 -2.1071  0.2899  1.7862
  180MOL0     H23749   3.170   0.297   4.055  1.2276  0.6923  0.2705
  180MOL0     H23750   3.353   0.422   4.052 -2.1788  1.3035  1.1429
  180MOL0     H23751   3.439   0.315   4.148 -0.9679  0.1908 -2.9532
  180MOL0     H23752   3.579   0.502   4.093 -1.1598 -1.5469 -0.9954
  180MOL0     H23753   3.467   0.613   4.172 -2.3543 -0.3646  0.1549
  180MOL0     H23754   3.513   0.474   4.393  1.8573 -3.2309  1.0183
  180MOL0     H23755   3.637   0.589   4.333  0.7872 -0.9932  0.2278
  180MOL0     H23756   3.611   0.292   4.291 -0.2471  0.2433 -0.4161
  180MOL0     H23757   3.752   0.397   4.238 -1.1988  0.5661 -0.4630
  180MOL0     H23758   3.793   0.376   4.673 -1.5806  3.2753 -0.2083
  180MOL0     H23759   3.144   0.408   4.471 -0.5565  0.5316  0.4920
  180MOL0     H23760   2.919   0.320   4.479  0.1830  1.0357  0.3838
  181MOL0     O23761   7.536  10.633   1.212 -0.2690 -0.7428  0.6001
  181MOL0     C23762   7.598  10.713   1.141 -0.1890  0.1541  0.7276
  181MOL0     O23763   7.558  10.838   1.108 -0.2298  0.5215  0.0350
  181MOL0     C23764   7.450  10.877   1.179  1.2385 -0.5786 -0.0884
  181MOL0     C23765   7.466  10.952   1.298 -0.1992 -0.0197  0.2204
  181MOL0     C23766   7.362  10.991   1.379 -0.3810  0.7452  0.0663
  181MOL0     C23767   7.236  10.954   1.341  0.5413 -0.3659 -0.0802
  181MOL0     O23768   7.144  11.015   1.416 -0.2453 -0.0571 -0.0331
  181MOL0     C23769   7.059  10.923   1.491  0.0989  0.6917 -0.4730
  181MOL0     C23770   6.982  11.011   1.588 -0.0170 -0.5971 -0.1298
  181MOL0     C23771   6.848  10.965   1.635 -0.2757  0.2913  0.1209
  181MOL0     C23772   6.733  11.012   1.543  0.7140 -0.1002  0.0708
  181MOL0     C23773   6.601  10.980   1.607  0.3476  0.3719 -0.1246
  181MOL0     C23774   6.502  11.025   1.498  0.8789  0.4484 -0.4300
  181MOL0     C23775   6.359  11.003   1.541  0.3139 -0.1429  0.2111
  181MOL0     C23776   6.262  10.993   1.430 -0.7685 -0.6352  0.6677
  181MOL0     N23777   6.126  10.963   1.477 -0.6527 -0.1995 -0.2781
  181MOL0     C23778   6.059  10.839   1.464 -0.9572 -0.0535  0.7133
  181MOL0     C23779   5.930  10.874   1.489 -0.3967  0.2064 -0.0415
  181MOL0     C23780   5.815  10.787   1.470  0.5497 -0.1427  0.8555
  181MOL0     C23781   5.712  10.836   1.354 -0.0184  0.3131 -0.2159
  181MOL0     C23782   5.651  10.980   1.382  0.0422 -0.3202  1.0031
  181MOL0     C23783   5.552  11.018   1.271  0.4964  0.2536 -0.0955
  181MOL0     O23784   5.435  10.936   1.269 -0.2994  0.8904 -0.1987
  181MOL0     C23785   5.326  10.985   1.197 -0.6600  0.0767 -0.3121
  181MOL0     C23786   5.198  10.988   1.261  0.2897  0.1246  0.1691
  181MOL0     C23787   5.097  11.049   1.185  0.1363  0.3066  0.7857
  181MOL0     C23788   5.119  11.107   1.054  0.3376 -0.0721  0.4473
  181MOL0     C23789   5.005  11.165   0.976  0.1281  0.4166 -0.2125
  181MOL0     O23790   5.029  11.232   0.857  0.2335 -0.8233 -0.3287
  181MOL0     C23791   4.928  11.297   0.780  0.2680  0.7256  0.2558
  181MOL0     C23792   4.973  11.395   0.688  0.4353 -0.6490  0.5876
  181MOL0     C23793   4.890  11.449   0.590  0.7482  0.0218  0.2516
  181MOL0     C23794   4.753  11.412   0.584  0.3619  0.0156 -0.4794
  181MOL0     O23795   4.678  11.492   0.502  0.2269 -0.0383  0.3967
  181MOL0     C23796   4.546  11.445   0.461  1.0791 -0.4179 -0.6252
  181MOL0     C23797   4.461  11.539   0.378 -0.0063 -0.5463  0.2581
  181MOL0     C23798   4.532  11.583   0.251 -0.2063  0.2640  0.6693
  181MOL0     C23799   4.465  11.706   0.177  0.0506 -0.3612 -0.3633
  181MOL0     C23800   4.332  11.657   0.105  0.0752 -0.7046 -0.0092
  181MOL0     C23801   4.300  11.743  -0.016  0.4501  0.2193  1.5400
  181MOL0     C23802   4.399  11.731  -0.128 -0.6104 -0.2171 -0.5468
  181MOL0     C23803   4.347  11.803  -0.250  0.2565 -0.3551 -0.0159
  181MOL0    Cl23804   4.352  11.980  -0.221 -0.5121 -0.6533 -0.1281
  181MOL0     C23805   4.715  11.306   0.664  0.3938  0.5140 -0.3157
  181MOL0     C23806   4.800  11.250   0.765  1.1428  0.3220 -0.6750
  181MOL0     O23807   4.890  11.147   1.026 -0.4909  0.5911 -0.0256
  181MOL0     C23808   5.249  11.104   0.995  0.0319 -0.1903 -0.2613
  181MOL0     C23809   5.340  11.040   1.067 -0.5494 -0.1177  0.5924
  181MOL0     N23810   5.923  11.004   1.522  0.1489 -0.1607 -0.1032
  181MOL0     N23811   6.036  11.055   1.510  0.6893 -0.5102 -0.0049
  181MOL0     C23812   7.205  10.884   1.224 -0.1282  0.0287 -0.2611
  181MOL0     C23813   7.321  10.841   1.145  0.6875  0.1187  0.1541
  181MOL0     C23814   7.731  10.675   1.088 -0.1681 -0.4914 -0.0454
  181MOL0     C23815   7.766  10.539   1.049 -0.4956  0.1135 -0.0609
  181MOL0     C23816   7.894  10.507   0.999 -0.8267  0.3760 -0.4451
  181MOL0     C23817   7.993  10.607   0.982  0.4096  0.6656  0.5319
  181MOL0     O23818   8.120  10.594   0.927 -0.3935  0.5600  0.1177
  181MOL0     C23819   8.177  10.460   0.934 -0.6468 -0.7158 -0.6212
  181MOL0     C23820   8.319  10.482   0.869 -0.4195 -0.1080  0.1569
  181MOL0     C23821   8.424  10.537   0.960 -0.6644  0.0925  0.3151
  181MOL0     C23822   8.548  10.533   0.868 -0.3425  1.4182  0.0124
  181MOL0     C23823   8.655  10.595   0.937 -0.9308  0.1882 -0.2932
  181MOL0     C23824   8.745  10.657   0.988 -0.8315  0.4825 -0.7994
  181MOL0     C23825   7.957  10.736   1.026  0.2534  0.1391  0.1515
  181MOL0     C23826   7.831  10.772   1.092  0.4108  0.3774  0.1989
  181MOL0     H23827   7.567  10.989   1.313  0.2252 -1.1800  0.2604
  181MOL0     H23828   7.393  11.046   1.467 -0.6222 -1.3242  1.5078
  181MOL0     H23829   7.110  10.845   1.548 -0.9880 -0.8059 -1.4436
  181MOL0     H23830   6.979  10.871   1.436  0.4022  1.3007 -1.5232
  181MOL0     H23831   6.965  11.111   1.547 -0.4781 -0.4428  0.4232
  181MOL0     H23832   7.035  11.032   1.681  0.0884  1.2116 -0.5567
  181MOL0     H23833   6.832  10.995   1.740  0.4684  0.1525  0.2738
  181MOL0     H23834   6.850  10.856   1.636  0.8011  0.2711  2.0916
  181MOL0     H23835   6.732  11.120   1.523 -2.7017 -0.7409 -4.9384
  181MOL0     H23836   6.733  10.964   1.445 -1.5000 -1.7753  0.8084
  181MOL0     H23837   6.587  11.034   1.701 -0.7890  0.0557 -0.0941
  181MOL0     H23838   6.596  10.873   1.628 -1.6005  0.6264  0.9173
  181MOL0     H23839   6.524  10.957   1.416 -2.4303 -0.4792 -0.7072
  181MOL0     H23840   6.525  11.126   1.461  4.3291 -0.3863 -0.9200
  181MOL0     H23841   6.349  10.910   1.598  0.3140  1.0716  2.3003
  181MOL0     H23842   6.336  11.085   1.610  3.4749  0.6968  0.4230
  181MOL0     H23843   6.295  10.908   1.370 -1.2771 -1.5135  1.6010
  181MOL0     H23844   6.269  11.081   1.366 -3.6114 -2.2653 -2.2290
  181MOL0     H23845   6.105  10.747   1.433 -0.3670  0.9794 -1.7017
  181MOL0     H23846   5.763  10.794   1.566 -1.4156  0.1065 -0.1699
  181MOL0     H23847   5.858  10.688   1.456  0.9976 -0.4779  4.0304
  181MOL0     H23848   5.635  10.759   1.344  0.1323  0.0974  0.2278
  181MOL0     H23849   5.767  10.836   1.259 -1.1999 -0.9630 -0.9305
  181MOL0     H23850   5.604  10.974   1.481 -0.4363 -0.0766  0.7931
  181MOL0     H23851   5.728  11.058   1.378 -1.5343  1.3135  1.3858
  181MOL0     H23852   5.603  11.002   1.176 -0.7601  1.2614 -0.9629
  181MOL0     H23853   5.531  11.125   1.278 -1.9427 -0.2152  0.5803
  181MOL0     H23854   5.167  10.933   1.349  1.7823  1.1963  1.4127
  181MOL0     H23855   5.001  11.047   1.235 -1.2341 -1.3518 -1.6842
  181MOL0     H23856   5.075  11.432   0.688 -0.3701  2.0215 -2.6632
  181MOL0     H23857   4.926  11.527   0.523  0.3755  1.3710  1.5706
  181MOL0     H23858   4.483  11.405   0.541 -2.1057  1.3204 -2.0735
  181MOL0     H23859   4.568  11.360   0.396 -0.6874 -0.9179 -0.6432
  181MOL0     H23860   4.424  11.624   0.437 -2.9273 -0.7938 -1.0113
  181MOL0     H23861   4.369  11.488   0.349 -0.2716  1.6817 -3.4787
  181MOL0     H23862   4.547  11.507   0.173  4.5134  3.1399 -1.7627
  181MOL0     H23863   4.632  11.617   0.281  1.0436 -1.2275 -1.5371
  181MOL0     H23864   4.446  11.794   0.239  0.1495 -0.0132 -0.8200
  181MOL0     H23865   4.538  11.733   0.100  0.4499  0.0239  0.1539
  181MOL0     H23866   4.245  11.660   0.172 -0.4057  0.5709 -0.6492
  181MOL0     H23867   4.339  11.550   0.084  2.1075 -0.8006  0.9483
  181MOL0     H23868   4.298  11.850   0.010  1.1472  0.7235 -0.3079
  181MOL0     H23869   4.198  11.720  -0.048 -0.4331  0.2474  4.0997
  181MOL0     H23870   4.494  11.777  -0.102 -1.1873  1.1393 -0.7348
  181MOL0     H23871   4.407  11.623  -0.145 -0.8351 -0.5789  1.4291
  181MOL0     H23872   4.241  11.783  -0.267 -0.0806  1.8528 -0.8170
  181MOL0     H23873   4.406  11.782  -0.340 -0.4945 -1.1885 -0.3235
  181MOL0     H23874   4.611  11.273   0.659  1.3278 -2.5888 -2.2757
  181MOL0     H23875   4.754  11.170   0.823 -2.8791  3.4855  0.9797
  181MOL0     H23876   5.274  11.150   0.900 -2.6776 -1.5419 -1.7661
  181MOL0     H23877   5.441  11.048   1.027 -0.7386 -0.4072  0.0482
  181MOL0     H23878   7.102  10.877   1.192 -0.1643  2.2458 -0.7609
  181MOL0     H23879   7.304  10.775   1.061 -1.8997  1.8112 -0.7859
  181MOL0     H23880   7.700  10.455   1.069  1.5391 -1.7050 -0.5520
  181MOL0     H23881   7.908  10.402   0.979 -1.8539  0.1007  0.1902
  181MOL0     H23882   8.114  10.385   0.885 -0.5557 -0.9524 -0.3752
  181MOL0     H23883   8.181  10.420   1.035 -0.8514 -1.1493 -0.7803
  181MOL0     H23884   8.354  10.382   0.843  1.8166 -0.0213  2.3486
  181MOL0     H23885   8.314  10.538   0.776 -0.2268 -0.3215  0.0161
  181MOL0     H23886   8.442  10.467   1.041 -0.9756 -1.2855 -0.7701
  181MOL0     H23887   8.400  10.640   0.989 -0.2230  0.2584  0.1070
  181MOL0     H23888   8.569  10.428   0.846 -1.3574  0.8863  1.4439
  181MOL0     H23889   8.534  10.581   0.771  0.2330  3.3208  0.8361
  181MOL0     H23890   8.825  10.714   1.032 -1.1685  0.0074  0.4804
  181MOL0     H23891   8.020  10.824   1.021  1.1409 -0.2558  2.8472
  181MOL0     H23892   7.819  10.876   1.118  0.4889  1.2168 -2.7083
  182MOL0     O23893   8.997   9.396   6.029  0.7063 -0.5068 -0.1093
  182MOL0     C23894   9.057   9.292   6.034  0.3816  0.6356  0.8881
  182MOL0     O23895   8.992   9.168   6.041 -0.3730  0.1652  0.2032
  182MOL0     C23896   8.859   9.146   6.026  0.3458  0.1420  0.2061
  182MOL0     C23897   8.769   9.225   5.952  0.2141  0.5051  0.3293
  182MOL0     C23898   8.635   9.196   5.944  0.9360  0.1361 -0.3974
  182MOL0     C23899   8.582   9.071   5.995  0.2787 -0.1627  0.6798
  182MOL0     O23900   8.442   9.033   5.998 -0.0882  0.2742 -0.0359
  182MOL0     C23901   8.346   9.134   5.954  0.3563 -0.3357  0.1730
  182MOL0     C23902   8.206   9.081   6.005  0.0892 -0.3130 -0.6599
  182MOL0     C23903   8.175   8.941   5.949  0.4917 -0.9252  0.4076
  182MOL0     C23904   8.041   8.884   5.988  0.5916  0.1381 -0.1014
  182MOL0     C23905   7.925   8.953   5.917  0.3481 -0.8869  0.0937
  182MOL0     C23906   7.792   8.874   5.931 -0.3490  0.0903 -0.0062
  182MOL0     C23907   7.728   8.872   6.070  0.6595  0.5563 -0.5808
  182MOL0     C23908   7.585   8.800   6.067  0.0605 -0.0068 -0.7137
  182MOL0     N23909   7.589   8.660   6.087  0.3166  0.1246  0.6443
  182MOL0     C23910   7.487   8.587   6.132 -0.6212  0.5918 -0.6423
  182MOL0     C23911   7.525   8.456   6.127 -0.0925 -0.8035 -0.2296
  182MOL0     C23912   7.441   8.338   6.163  0.2352  0.2494  0.5014
  182MOL0     C23913   7.346   8.318   6.042 -0.2396 -0.3085 -0.5063
  182MOL0     C23914   7.215   8.394   6.065 -0.0340 -0.5670  0.4492
  182MOL0     C23915   7.124   8.302   6.149  0.3877 -0.1047 -0.1259
  182MOL0     O23916   6.991   8.363   6.175 -0.1327  0.2482  0.8988
  182MOL0     C23917   6.884   8.285   6.216  0.1341 -0.0467 -0.1656
  182MOL0     C23918   6.879   8.146   6.198 -0.9111 -0.7497 -0.0710
  182MOL0     C23919   6.769   8.067   6.239 -0.0173 -0.5936 -0.7618
  182MOL0     C23920   6.658   8.138   6.300 -0.0291  0.3995  0.3644
  182MOL0     C23921   6.528   8.072   6.341  0.0640  0.0048 -0.3112
  182MOL0     O23922   6.416   8.150   6.312  0.4253 -0.3557  0.5933
  182MOL0     C23923   6.298   8.090   6.343 -0.3497  0.3588 -0.0115
  182MOL0     C23924   6.208   8.035   6.247 -1.0664  0.1172 -0.3605
  182MOL0     C23925   6.079   7.987   6.289  0.4389  0.3191  0.0415
  182MOL0     C23926   6.036   8.003   6.418  0.6332 -0.2084 -0.1395
  182MOL0     O23927   5.914   7.964   6.474 -0.8121 -0.1376  0.9370
  182MOL0     C23928   5.803   7.965   6.386 -1.6822 -0.7483 -0.7394
  182MOL0     C23929   5.772   8.120   6.362 -0.4983 -0.2956  0.7244
  182MOL0     C23930   5.645   8.126   6.266 -0.7526 -0.1067 -0.6952
  182MOL0     C23931   5.601   8.265   6.262 -0.6369 -0.8932 -0.2262
  182MOL0     C23932   5.495   8.285   6.164  1.0780 -0.0563 -0.2153
  182MOL0     C23933   5.363   8.199   6.194 -0.7865  0.2460 -0.7403
  182MOL0     C23934   5.258   8.261   6.105 -0.3973 -0.0375 -0.3113
  182MOL0     C23935   5.120   8.191   6.135 -0.0676 -0.0763 -0.6918
  182MOL0    Cl23936   4.992   8.275   6.037  0.3478  0.1301  0.1012
  182MOL0     C23937   6.123   8.065   6.508 -0.2519  0.1844 -0.3991
  182MOL0     C23938   6.255   8.107   6.471  0.1792  0.5158  0.0744
  182MOL0     O23939   6.530   7.958   6.381  0.0897 -1.1595 -0.0450
  182MOL0     C23940   6.667   8.277   6.322 -0.4142  0.7108  0.3558
  182MOL0     C23941   6.772   8.350   6.280  0.0116 -0.3046 -0.1678
  182MOL0     N23942   7.656   8.450   6.093 -0.3718  0.1157  0.4103
  182MOL0     N23943   7.687   8.568   6.057 -0.0923 -0.6730 -0.3890
  182MOL0     C23944   8.670   8.986   6.062 -0.0781  0.6709  0.3622
  182MOL0     C23945   8.812   9.021   6.072  0.0192 -0.3977  0.1258
  182MOL0     C23946   9.206   9.282   6.035 -0.0328 -0.1217  0.3209
  182MOL0     C23947   9.272   9.157   6.058  0.5052  0.1034  0.4038
  182MOL0     C23948   9.410   9.149   6.069  0.3169  0.3569 -0.5765
  182MOL0     C23949   9.489   9.259   6.052 -0.2546  0.9724 -0.0181
  182MOL0     O23950   9.623   9.239   6.056  0.0779 -0.1013 -0.6467
  182MOL0     C23951   9.715   9.344   6.012 -0.2084 -0.3561 -0.1419
  182MOL0     C23952   9.767   9.428   6.124 -0.5943  0.0621 -0.2812
  182MOL0     C23953   9.852   9.348   6.224 -0.2901 -0.2804 -0.1329
  182MOL0     C23954   9.922   9.442   6.324 -0.5805 -0.2112 -0.4738
  182MOL0     C23955  10.040   9.504   6.263 -0.3476  0.0715 -0.4354
  182MOL0     C23956  10.130   9.565   6.216  0.4916  0.6448  0.3328
  182MOL0     C23957   9.436   9.387   6.036  0.8560  0.6097 -0.5528
  182MOL0     C23958   9.291   9.395   6.032 -0.4464 -0.4616 -1.1220
  182MOL0     H23959   8.807   9.314   5.903  0.6847  1.9392  3.0738
  182MOL0     H23960   8.584   9.276   5.890  0.6937 -1.3337 -2.4439
  182MOL0     H23961   8.345   9.160   5.847 -1.6806  0.4194  0.3360
  182MOL0     H23962   8.359   9.226   6.011  0.4329 -1.2607  1.6843
  182MOL0     H23963   8.124   9.151   5.985 -0.4116 -1.0230 -1.1507
  182MOL0     H23964   8.226   9.073   6.112 -0.2879  0.3461 -0.5377
  182MOL0     H23965   8.250   8.869   5.983 -1.5063 -1.8804  3.2316
  182MOL0     H23966   8.172   8.952   5.840  0.9122  0.5452  0.5345
  182MOL0     H23967   8.034   8.781   5.954 -0.0832 -0.0850  0.6818
  182MOL0     H23968   8.034   8.881   6.097  0.3702 -0.3188 -0.1288
  182MOL0     H23969   7.953   8.966   5.813 -1.1926 -0.8734 -0.3424
  182MOL0     H23970   7.923   9.052   5.963  2.5926 -0.9402  0.4496
  182MOL0     H23971   7.823   8.772   5.906  1.0654 -0.3378  3.0370
  182MOL0     H23972   7.711   8.912   5.867 -1.3161  0.9168  1.6510
  182MOL0     H23973   7.781   8.812   6.145 -0.5804 -0.0796 -0.1794
  182MOL0     H23974   7.727   8.973   6.109 -1.4894  1.2155 -2.1350
  182MOL0     H23975   7.534   8.809   5.971  2.1308  0.4359 -1.8334
  182MOL0     H23976   7.537   8.841   6.157  0.8183 -2.7654  1.0671
  182MOL0     H23977   7.389   8.620   6.164 -0.4150  1.8229 -1.2315
  182MOL0     H23978   7.392   8.350   6.260  0.0613  0.2672  0.4124
  182MOL0     H23979   7.498   8.245   6.169  0.1814  0.2086  0.3774
  182MOL0     H23980   7.314   8.214   6.035 -0.4889 -0.1208 -3.0100
  182MOL0     H23981   7.404   8.349   5.955  0.2608 -1.7840 -0.7226
  182MOL0     H23982   7.212   8.499   6.097  1.4212  0.0810 -1.2960
  182MOL0     H23983   7.170   8.406   5.965 -0.7816 -0.7473  0.7591
  182MOL0     H23984   7.187   8.294   6.238  1.7989 -1.3553 -1.1876
  182MOL0     H23985   7.104   8.203   6.108 -1.9624  1.1887 -2.3966
  182MOL0     H23986   6.957   8.083   6.157  0.6933  0.7496  0.5656
  182MOL0     H23987   6.782   7.960   6.237 -0.2829 -0.8433  3.2873
  182MOL0     H23988   6.241   8.027   6.144 -0.5140 -0.4771 -0.1410
  182MOL0     H23989   6.014   7.933   6.221  1.8270 -0.4773 -0.6890
  182MOL0     H23990   5.722   7.924   6.447 -1.6225 -0.1326 -0.2325
  182MOL0     H23991   5.806   7.900   6.298 -2.8631  0.1416 -1.4734
  182MOL0     H23992   5.858   8.165   6.312 -0.9269 -0.8936 -0.6030
  182MOL0     H23993   5.762   8.171   6.458  0.0427 -0.9497  1.1382
  182MOL0     H23994   5.559   8.079   6.315  0.5025  0.1534  1.9676
  182MOL0     H23995   5.660   8.084   6.167 -0.2717 -0.5619 -0.4326
  182MOL0     H23996   5.579   8.300   6.364  1.8092 -0.7521  0.3175
  182MOL0     H23997   5.685   8.328   6.231  1.7472 -2.8033  1.8834
  182MOL0     H23998   5.532   8.249   6.067  0.0939 -1.3322 -0.1499
  182MOL0     H23999   5.473   8.392   6.160 -0.2330 -0.1368  2.4684
  182MOL0     H24000   5.335   8.219   6.298  2.1692  2.1782 -0.1691
  182MOL0     H24001   5.364   8.092   6.174 -2.8316 -0.4644  2.2805
  182MOL0     H24002   5.249   8.365   6.135 -2.4630 -1.1413  3.5403
  182MOL0     H24003   5.287   8.254   5.999 -0.2046  2.0527 -0.4344
  182MOL0     H24004   5.099   8.192   6.242  2.0259 -0.1112 -0.2517
  182MOL0     H24005   5.116   8.087   6.101 -0.4978 -0.1223 -0.5090
  182MOL0     H24006   6.091   8.074   6.612  0.8378 -0.6362  0.0227
  182MOL0     H24007   6.322   8.147   6.547 -1.6681 -0.4907  2.3630
  182MOL0     H24008   6.583   8.326   6.370 -1.0445  0.8176 -0.8156
  182MOL0     H24009   6.771   8.457   6.292 -0.5632  0.0349 -2.5821
  182MOL0     H24010   8.640   8.889   6.099 -2.9742  0.7155 -1.6224
  182MOL0     H24011   8.885   8.951   6.113 -2.0845 -0.8919  3.3962
  182MOL0     H24012   9.205   9.073   6.076 -2.1134  2.0489  0.3928
  182MOL0     H24013   9.461   9.055   6.086  1.8849  0.9642 -1.6817
  182MOL0     H24014   9.668   9.405   5.935  0.4857 -0.8082 -0.9433
  182MOL0     H24015   9.797   9.288   5.967  0.2118 -0.5268  0.8135
  182MOL0     H24016   9.830   9.506   6.082  0.4999 -0.2668  0.6868
  182MOL0     H24017   9.686   9.468   6.185 -1.1618 -0.3401 -0.7506
  182MOL0     H24018   9.922   9.291   6.162 -1.3607  0.7861 -2.4252
  182MOL0     H24019   9.788   9.279   6.281 -0.6413 -1.1942 -1.5935
  182MOL0     H24020   9.853   9.517   6.364 -1.9738 -1.6229 -0.1043
  182MOL0     H24021   9.954   9.380   6.407  2.9271  1.7502 -0.1574
  182MOL0     H24022  10.214   9.628   6.194 -0.2319  1.3346 -0.5485
  182MOL0     H24023   9.481   9.486   6.041 -1.1457  1.5454  3.9228
  182MOL0     H24024   9.254   9.497   6.035  1.8601  0.4221 -0.3277
  183MOL0     O24025   1.412   7.073   4.079  0.3078  0.4746  0.1759
  183MOL0     C24026   1.399   6.974   4.009 -0.4220  0.3532 -0.6761
  183MOL0     O24027   1.504   6.886   3.969  0.2052 -0.1542 -0.4012
  183MOL0     C24028   1.625   6.907   4.016 -0.2848 -0.8012  0.4363
  183MOL0     C24029   1.652   6.917   4.152 -0.3142  0.7780 -0.0197
  183MOL0     C24030   1.783   6.938   4.195  0.4438 -0.3158  0.7208
  183MOL0     C24031   1.891   6.955   4.103  0.1277  0.6248 -0.7759
  183MOL0     O24032   2.011   6.997   4.161  0.0820  0.5597  0.1422
  183MOL0     C24033   2.135   6.950   4.105  0.8401 -0.5635  0.8546
  183MOL0     C24034   2.258   6.990   4.185  0.6814  0.1422  0.5783
  183MOL0     C24035   2.386   6.941   4.121 -0.6553  0.7847  0.3030
  183MOL0     C24036   2.503   6.986   4.208 -0.5856  0.5346 -0.0339
  183MOL0     C24037   2.640   6.980   4.129  0.6752 -0.0499 -0.4588
  183MOL0     C24038   2.760   7.048   4.210 -0.0731  0.2826 -0.2897
  183MOL0     C24039   2.902   7.017   4.173 -0.1265 -0.3392 -0.2009
  183MOL0     C24040   3.005   7.076   4.272  0.2475  0.0542  0.2399
  183MOL0     N24041   3.011   7.010   4.403 -0.4968 -0.3666 -0.6275
  183MOL0     C24042   2.962   7.055   4.523  0.1895 -0.3091  0.1350
  183MOL0     C24043   3.009   6.982   4.618 -1.2728  0.3343  0.0238
  183MOL0     C24044   2.968   6.994   4.768  0.1591  0.5555  0.0235
  183MOL0     C24045   2.812   6.998   4.782 -0.7754 -1.1704  0.2445
  183MOL0     C24046   2.748   6.930   4.910  0.2658 -0.0217  0.1998
  183MOL0     C24047   2.603   6.903   4.880 -0.2497  0.0152  1.0135
  183MOL0     O24048   2.551   6.816   4.984  0.4942 -0.5303 -0.3710
  183MOL0     C24049   2.418   6.816   5.004 -0.2427  0.7577 -0.3202
  183MOL0     C24050   2.328   6.831   4.904 -0.1176  0.8700 -1.0191
  183MOL0     C24051   2.193   6.816   4.918  0.4807  0.0568  0.3625
  183MOL0     C24052   2.140   6.785   5.046  0.7360  0.1401 -0.0185
  183MOL0     C24053   1.999   6.779   5.067  0.2991  0.3606 -0.2390
  183MOL0     O24054   1.923   6.797   4.954  0.4760 -0.1555 -0.2384
  183MOL0     C24055   1.781   6.784   4.958 -0.4739 -0.2279 -0.0328
  183MOL0     C24056   1.698   6.889   5.002  0.2396 -0.0565 -0.0907
  183MOL0     C24057   1.562   6.884   5.014  1.2005 -0.1023  0.4303
  183MOL0     C24058   1.500   6.767   4.965  0.9642  0.1040  0.6202
  183MOL0     O24059   1.364   6.753   4.960 -0.3345 -0.3604 -0.3845
  183MOL0     C24060   1.301   6.870   4.908  0.6107 -1.1120 -0.0640
  183MOL0     C24061   1.160   6.849   4.874 -0.7707 -0.4191  1.2078
  183MOL0     C24062   1.067   6.809   4.990 -0.1415 -0.4527  1.1187
  183MOL0     C24063   0.928   6.770   4.932  0.6675 -0.8078 -0.2396
  183MOL0     C24064   0.824   6.737   5.032  0.2160 -0.2939 -0.6003
  183MOL0     C24065   0.685   6.708   4.976  0.0671  0.2776  0.5187
  183MOL0     C24066   0.662   6.558   4.951 -0.6232  0.7391 -0.6356
  183MOL0     C24067   0.521   6.513   4.914 -0.0070 -0.2003 -0.3225
  183MOL0    Cl24068   0.537   6.342   4.841  0.2613 -0.0154 -0.0879
  183MOL0     C24069   1.576   6.676   4.886 -0.6107 -0.0510 -0.1922
  183MOL0     C24070   1.718   6.686   4.881  0.1821  0.4269  0.1854
  183MOL0     O24071   1.949   6.745   5.176  0.2716  0.1677 -0.2318
  183MOL0     C24072   2.230   6.793   5.156  0.2152  0.9837  0.1283
  183MOL0     C24073   2.365   6.800   5.133 -0.0724  0.5205 -0.0819
  183MOL0     N24074   3.085   6.876   4.555  0.0361 -0.5725  0.0646
  183MOL0     N24075   3.087   6.898   4.425  0.1580  0.2038 -0.4545
  183MOL0     C24076   1.863   6.942   3.967 -0.7959 -0.3085  0.3193
  183MOL0     C24077   1.733   6.926   3.925  0.3067 -0.5450 -0.1886
  183MOL0     C24078   1.261   6.933   3.959 -0.1803  0.8281 -0.0189
  183MOL0     C24079   1.146   6.995   4.010  0.1637  0.3256 -0.0019
  183MOL0     C24080   1.028   6.958   3.963  0.6846 -0.3970 -0.3263
  183MOL0     C24081   1.012   6.859   3.867 -0.3771  0.6417 -0.0526
  183MOL0     O24082   0.886   6.845   3.824  0.3305 -0.3394 -0.6670
  183MOL0     C24083   0.849   6.719   3.765  0.0195 -0.0651  0.5430
  183MOL0     C24084   0.695   6.699   3.735  0.6640  0.4143  0.5002
  183MOL0     C24085   0.621   6.641   3.856  0.3101 -0.6123  0.0209
  183MOL0     C24086   0.608   6.744   3.976  0.5018  0.1585 -0.4465
  183MOL0     C24087   0.568   6.668   4.097  0.7372  1.1055 -0.5116
  183MOL0     C24088   0.537   6.603   4.198  0.0881  0.4680 -0.0678
  183MOL0     C24089   1.123   6.789   3.825 -1.2531 -0.9350  0.2909
  183MOL0     C24090   1.249   6.833   3.863  0.0420  0.7195  0.7298
  183MOL0     H24091   1.571   6.900   4.224 -0.8288 -0.6203 -0.8803
  183MOL0     H24092   1.810   6.927   4.300  3.7288 -0.2274  0.0025
  183MOL0     H24093   2.156   6.992   4.007  0.6859  3.1010  2.2305
  183MOL0     H24094   2.129   6.841   4.090  0.4873 -0.5045  0.5693
  183MOL0     H24095   2.245   6.958   4.289 -0.4413 -0.5815  0.2313
  183MOL0     H24096   2.260   7.099   4.180  2.4840  0.1306  0.4245
  183MOL0     H24097   2.387   6.969   4.016 -1.9942 -3.6137 -1.0974
  183MOL0     H24098   2.378   6.832   4.109  1.6386  0.7319 -1.1901
  183MOL0     H24099   2.497   7.093   4.226 -0.8154  0.5386 -0.1354
  183MOL0     H24100   2.506   6.937   4.306 -0.3557  0.8783  0.1306
  183MOL0     H24101   2.624   7.041   4.039 -1.6158  1.3081  0.7450
  183MOL0     H24102   2.661   6.876   4.104 -3.1380 -1.0997  0.1124
  183MOL0     H24103   2.753   7.018   4.315  0.2634  1.6310  0.1352
  183MOL0     H24104   2.743   7.156   4.219 -1.4320  0.1088 -0.5225
  183MOL0     H24105   2.914   6.909   4.164 -1.9815 -0.7809  1.6889
  183MOL0     H24106   2.924   7.060   4.075  0.4651 -0.4631 -0.1226
  183MOL0     H24107   2.986   7.183   4.284  3.3358  0.8216 -0.7488
  183MOL0     H24108   3.106   7.071   4.230 -0.2230 -0.5523 -0.8443
  183MOL0     H24109   2.900   7.143   4.533  1.1075  0.2938  0.5775
  183MOL0     H24110   3.010   7.086   4.809  1.4205 -0.7502  1.8302
  183MOL0     H24111   3.007   6.905   4.819  0.6709  1.7072  1.7325
  183MOL0     H24112   2.772   6.957   4.689  2.4681  2.8608 -3.3518
  183MOL0     H24113   2.782   7.103   4.785  1.6387 -0.4371  2.9394
  183MOL0     H24114   2.808   6.842   4.937  3.7488  1.7419 -1.1679
  183MOL0     H24115   2.756   6.995   4.997  0.0226  1.1740 -0.6359
  183MOL0     H24116   2.591   6.855   4.783 -0.7430  0.2546  0.9530
  183MOL0     H24117   2.552   7.000   4.881 -0.1081  0.4067 -4.0259
  183MOL0     H24118   2.359   6.833   4.800 -2.4819  5.0354 -1.9004
  183MOL0     H24119   2.126   6.819   4.833  0.1564 -2.2259  0.4815
  183MOL0     H24120   1.740   6.980   5.043 -0.5146  0.1170  0.3201
  183MOL0     H24121   1.499   6.950   5.073  1.5628  0.9934 -0.3733
  183MOL0     H24122   1.350   6.898   4.815 -0.0024 -0.8156 -0.3030
  183MOL0     H24123   1.298   6.959   4.972 -2.7355 -0.6341 -0.6658
  183MOL0     H24124   1.153   6.772   4.796  1.5259  0.9645 -0.5162
  183MOL0     H24125   1.117   6.941   4.834  0.6041 -0.7064 -1.1520
  183MOL0     H24126   1.058   6.891   5.061  2.3488  0.1971  0.7786
  183MOL0     H24127   1.105   6.726   5.051  3.9915  0.5549  0.2666
  183MOL0     H24128   0.899   6.846   4.860  2.1620 -2.3738 -2.6448
  183MOL0     H24129   0.958   6.686   4.869  2.7690  1.7172 -2.8728
  183MOL0     H24130   0.826   6.825   5.097 -0.3335 -1.1158  0.5787
  183MOL0     H24131   0.859   6.660   5.101  3.5063  1.2666 -0.3265
  183MOL0     H24132   0.662   6.759   4.882  1.6320 -2.5209 -1.5738
  183MOL0     H24133   0.620   6.749   5.053 -0.1191 -1.1392  1.1582
  183MOL0     H24134   0.726   6.529   4.867  2.4719  2.0985  1.1135
  183MOL0     H24135   0.691   6.497   5.037 -4.5550 -2.6129 -1.3786
  183MOL0     H24136   0.483   6.583   4.839  1.8457  1.0221 -0.1950
  183MOL0     H24137   0.454   6.517   5.000  0.1417 -1.4682 -0.1315
  183MOL0     H24138   1.518   6.614   4.818  2.2068 -1.4144 -1.5346
  183MOL0     H24139   1.773   6.627   4.808 -0.9810 -0.7043  0.1729
  183MOL0     H24140   2.210   6.783   5.262  0.0844 -0.3357  0.0069
  183MOL0     H24141   2.430   6.794   5.219 -0.2808  2.5404  0.2693
  183MOL0     H24142   1.941   6.953   3.892 -4.0578 -1.8631 -3.7116
  183MOL0     H24143   1.707   6.934   3.820  1.9871  0.6222 -0.5558
  183MOL0     H24144   1.153   7.068   4.090 -0.3086  0.0573  0.2891
  183MOL0     H24145   0.938   7.007   3.999 -0.9648 -2.3937 -1.4351
  183MOL0     H24146   0.883   6.630   3.821 -1.1710 -0.7553  0.2091
  183MOL0     H24147   0.903   6.722   3.670  0.9669 -1.9024  0.9626
  183MOL0     H24148   0.653   6.793   3.697  1.5923 -0.3497 -2.7268
  183MOL0     H24149   0.697   6.622   3.658  2.5522 -0.4340  1.3267
  183MOL0     H24150   0.678   6.552   3.886  2.7553  0.4086 -1.2423
  183MOL0     H24151   0.518   6.619   3.829 -0.7435  2.8022  0.6990
  183MOL0     H24152   0.709   6.783   3.995  1.8552 -3.5414  0.7601
  183MOL0     H24153   0.538   6.826   3.957  1.1865  0.3371 -2.3566
  183MOL0     H24154   0.497   6.541   4.277 -1.1004 -2.1745 -2.5448
  183MOL0     H24155   1.118   6.729   3.735 -0.5682  1.2659 -1.3012
  183MOL0     H24156   1.342   6.797   3.822 -0.5722 -0.8640  0.6487
  184MOL0     O24157   5.336   0.062   3.022 -0.5307 -0.3358  0.1991
  184MOL0     C24158   5.431   0.130   3.055  0.2703 -0.3642  0.5438
  184MOL0     O24159   5.419   0.257   3.089 -0.4773  0.0976  0.2025
  184MOL0     C24160   5.303   0.329   3.068  0.4210  0.0230  1.1604
  184MOL0     C24161   5.217   0.322   2.957 -0.1957 -0.3298 -0.2347
  184MOL0     C24162   5.100   0.396   2.948  0.1948 -0.0864  0.1221
  184MOL0     C24163   5.062   0.484   3.059  0.4403  0.1792  0.7103
  184MOL0     O24164   4.946   0.554   3.077 -0.1107 -0.1990  0.3346
  184MOL0     C24165   4.835   0.516   2.990  0.3687 -0.0689  0.5263
  184MOL0     C24166   4.716   0.594   3.054  0.0655 -0.3024 -0.4936
  184MOL0     C24167   4.587   0.592   2.970  0.0341 -0.7974  0.2106
  184MOL0     C24168   4.484   0.701   3.003  0.2771  0.0870 -0.1931
  184MOL0     C24169   4.443   0.715   3.151 -0.1386 -0.9220 -0.2294
  184MOL0     C24170   4.311   0.794   3.167 -0.3468  0.2814 -0.1720
  184MOL0     C24171   4.267   0.798   3.312 -1.0586  0.2235  0.0694
  184MOL0     C24172   4.145   0.880   3.336 -0.5244  0.7310  0.2034
  184MOL0     N24173   4.038   0.844   3.243  0.6734  0.4562 -0.2534
  184MOL0     C24174   4.028   0.890   3.111 -0.0679  0.6698  0.4091
  184MOL0     C24175   3.924   0.831   3.053  0.4180  0.3601 -0.5493
  184MOL0     C24176   3.883   0.847   2.910  0.3078  0.9984 -0.2511
  184MOL0     C24177   3.859   0.998   2.868  0.1028  0.2805 -1.1048
  184MOL0     C24178   3.796   1.021   2.725 -0.3581  0.1664 -0.2879
  184MOL0     C24179   3.657   0.958   2.718 -0.4881  0.5922 -0.1214
  184MOL0     O24180   3.613   0.991   2.589  0.3579  0.2810 -0.0894
  184MOL0     C24181   3.482   1.017   2.565  0.1151 -0.0812 -0.0150
  184MOL0     C24182   3.449   1.000   2.436  0.5558  0.6740 -0.4866
  184MOL0     C24183   3.316   1.015   2.398 -0.8013 -0.1056 -0.8654
  184MOL0     C24184   3.215   1.054   2.484  0.5852 -0.4022  0.4872
  184MOL0     C24185   3.076   1.078   2.444  0.7086  0.3475  0.5219
  184MOL0     O24186   2.978   1.080   2.536  0.2529 -0.4785 -0.4592
  184MOL0     C24187   2.842   1.067   2.507 -0.8039 -0.1554  0.6999
  184MOL0     C24188   2.762   1.165   2.439 -0.9118 -0.7486 -0.3119
  184MOL0     C24189   2.623   1.148   2.412 -0.9439 -0.7583 -0.0256
  184MOL0     C24190   2.564   1.035   2.463  0.1373 -0.0190 -0.0978
  184MOL0     O24191   2.429   1.014   2.449  0.0443  0.6822 -0.4395
  184MOL0     C24192   2.339   1.120   2.492 -0.6083  0.1729  0.0817
  184MOL0     C24193   2.198   1.073   2.522  0.1842  0.0847  0.1145
  184MOL0     C24194   2.137   1.041   2.387  0.4558  0.4037 -0.2534
  184MOL0     C24195   1.985   1.017   2.414 -0.6118  0.0689 -0.0571
  184MOL0     C24196   1.901   0.981   2.285  0.3802 -0.0554  1.4685
  184MOL0     C24197   1.802   0.870   2.308  0.2033  0.2389 -0.3086
  184MOL0     C24198   1.717   0.843   2.184  0.1016  0.5368 -0.7157
  184MOL0     C24199   1.660   0.702   2.202 -0.7563  0.2087 -0.2601
  184MOL0    Cl24200   1.526   0.696   2.083 -0.2430 -0.0260 -0.0373
  184MOL0     C24201   2.642   0.947   2.533  0.0820  1.1438  0.2487
  184MOL0     C24202   2.783   0.953   2.554  1.2675 -0.7018  0.2145
  184MOL0     O24203   3.049   1.079   2.324  0.5736  0.4594 -0.2252
  184MOL0     C24204   3.248   1.069   2.617  0.1120  0.6623  0.7132
  184MOL0     C24205   3.386   1.054   2.658 -0.2738 -0.7970  0.3200
  184MOL0     N24206   3.859   0.762   3.156  0.4013  0.4651 -0.0862
  184MOL0     N24207   3.933   0.761   3.264  0.2420  0.5474  0.1454
  184MOL0     C24208   5.146   0.492   3.164  0.0395 -0.4571  0.2058
  184MOL0     C24209   5.267   0.416   3.172  0.1851 -0.0945  0.5842
  184MOL0     C24210   5.571   0.065   3.059  0.8960 -0.7393  0.1038
  184MOL0     C24211   5.684   0.133   3.102  0.3883  0.0977 -0.1957
  184MOL0     C24212   5.814   0.079   3.101 -0.2504  0.2943  0.1551
  184MOL0     C24213   5.830  -0.050   3.057 -0.3103  0.5495  0.2369
  184MOL0     O24214   5.957  -0.112   3.053 -0.3825  0.3051  0.0771
  184MOL0     C24215   6.061  -0.039   3.110 -0.4675  0.2042 -0.4893
  184MOL0     C24216   6.184  -0.123   3.153  0.2181  0.0934 -0.0794
  184MOL0     C24217   6.212  -0.247   3.068  0.1628 -0.3200  0.0750
  184MOL0     C24218   6.252  -0.227   2.916 -0.6669 -0.6282 -0.3168
  184MOL0     C24219   6.389  -0.177   2.906  0.1410  0.7917  0.1818
  184MOL0     C24220   6.504  -0.147   2.891 -0.7390 -0.1711  0.5128
  184MOL0     C24221   5.718  -0.128   3.015  0.0144 -0.6739  0.1517
  184MOL0     C24222   5.592  -0.069   3.015 -0.0752 -0.4863 -0.0339
  184MOL0     H24223   5.238   0.246   2.882 -1.1654 -2.2972  1.4059
  184MOL0     H24224   5.021   0.390   2.874  0.7874  1.9984 -0.7380
  184MOL0     H24225   4.813   0.410   3.001 -0.3230  0.0065 -0.0380
  184MOL0     H24226   4.863   0.546   2.888  0.9539  2.9822  1.4709
  184MOL0     H24227   4.744   0.699   3.066  1.6507 -0.6168 -1.0589
  184MOL0     H24228   4.705   0.557   3.156  1.8467 -0.9845 -0.4976
  184MOL0     H24229   4.537   0.496   2.978 -1.9556  0.2329  0.9820
  184MOL0     H24230   4.613   0.620   2.867 -0.9382  0.6230  0.3197
  184MOL0     H24231   4.526   0.799   2.983  0.9692  0.6635  3.3683
  184MOL0     H24232   4.398   0.677   2.939  0.4185 -0.0672 -0.3246
  184MOL0     H24233   4.517   0.766   3.213 -2.2920  0.3884  1.3990
  184MOL0     H24234   4.431   0.614   3.193 -1.9394 -0.3195  0.8170
  184MOL0     H24235   4.240   0.726   3.118  0.8944 -2.1336  1.1943
  184MOL0     H24236   4.300   0.889   3.114  0.0091  0.7006  0.4809
  184MOL0     H24237   4.241   0.694   3.336  1.2524 -1.0229 -2.3431
  184MOL0     H24238   4.351   0.836   3.371 -2.1264 -0.0271  1.8208
  184MOL0     H24239   4.172   0.984   3.316 -2.3114  1.0712 -0.7285
  184MOL0     H24240   4.113   0.861   3.439 -0.5062  0.7031  0.2038
  184MOL0     H24241   4.098   0.961   3.068  1.7576 -1.0291  0.3862
  184MOL0     H24242   3.794   0.784   2.907  1.9819 -1.4520 -2.5711
  184MOL0     H24243   3.957   0.811   2.838 -0.7678 -1.7824 -0.1050
  184MOL0     H24244   3.960   1.040   2.862 -0.4968  2.9785  3.1291
  184MOL0     H24245   3.804   1.058   2.941  0.7784  1.2628 -1.3735
  184MOL0     H24246   3.778   1.129   2.718 -0.5356  0.2480  1.1284
  184MOL0     H24247   3.860   0.982   2.645  1.2930 -0.1835  1.1428
  184MOL0     H24248   3.601   0.997   2.803 -1.7848 -2.0122  0.3213
  184MOL0     H24249   3.641   0.851   2.735  0.2433  0.4770 -0.0897
  184MOL0     H24250   3.523   0.979   2.360 -1.2535 -1.6876 -1.7267
  184MOL0     H24251   3.289   1.011   2.293 -4.7833 -0.3783  0.0407
  184MOL0     H24252   2.824   1.254   2.429  1.0019 -2.1291 -1.5265
  184MOL0     H24253   2.554   1.225   2.377 -1.1975 -1.3731 -0.9085
  184MOL0     H24254   2.334   1.198   2.416 -1.5562 -1.7371 -1.9378
  184MOL0     H24255   2.374   1.150   2.591  1.6105  0.5912 -0.7756
  184MOL0     H24256   2.151   1.157   2.574  1.0899  0.1180  0.9235
  184MOL0     H24257   2.188   0.994   2.596 -0.3522  1.3400  1.4443
  184MOL0     H24258   2.189   0.952   2.352  1.3159 -0.3135  2.5985
  184MOL0     H24259   2.152   1.122   2.315 -1.3542 -1.2893 -2.6724
  184MOL0     H24260   1.983   0.924   2.472  2.5610 -1.0858 -1.5525
  184MOL0     H24261   1.942   1.110   2.453 -0.3299  0.7264 -1.2509
  184MOL0     H24262   1.959   0.947   2.199 -0.0629  0.7876  0.8200
  184MOL0     H24263   1.846   1.069   2.250 -0.4922 -1.6059 -1.3786
  184MOL0     H24264   1.741   0.899   2.395  1.6711  0.2457  0.7677
  184MOL0     H24265   1.852   0.784   2.352 -3.5399 -0.5430  2.9441
  184MOL0     H24266   1.637   0.915   2.164 -1.8413 -2.2133 -4.0716
  184MOL0     H24267   1.794   0.840   2.107  2.4989 -0.6227  1.5688
  184MOL0     H24268   1.628   0.698   2.306 -0.7078 -2.7073 -0.2827
  184MOL0     H24269   1.729   0.618   2.190 -0.5252  0.2903  0.4742
  184MOL0     H24270   2.594   0.854   2.565  0.4179  1.8477  3.0576
  184MOL0     H24271   2.839   0.876   2.606 -0.1672 -0.9784  1.3929
  184MOL0     H24272   3.167   1.092   2.685 -0.8342 -1.4509  0.3946
  184MOL0     H24273   3.409   1.057   2.763  0.2276 -0.7996  0.2107
  184MOL0     H24274   5.142   0.562   3.247  2.1205 -1.1678  0.9553
  184MOL0     H24275   5.321   0.420   3.266  1.9978 -1.1285 -0.3530
  184MOL0     H24276   5.665   0.234   3.136 -0.3754 -0.5445  1.3619
  184MOL0     H24277   5.889   0.156   3.115 -1.1219  1.4403 -1.1892
  184MOL0     H24278   6.029   0.012   3.201 -0.0809 -1.5300  0.6654
  184MOL0     H24279   6.097   0.036   3.039 -3.8153  0.8905 -1.6358
  184MOL0     H24280   6.266  -0.051   3.146  0.7175 -0.2328  1.9435
  184MOL0     H24281   6.178  -0.139   3.261  1.2395  2.0514  0.3235
  184MOL0     H24282   6.124  -0.311   3.078 -0.0372  0.2217  2.6068
  184MOL0     H24283   6.289  -0.299   3.126 -1.7417  0.0056  3.1467
  184MOL0     H24284   6.259  -0.317   2.855  2.4147  0.5802 -1.9913
  184MOL0     H24285   6.183  -0.152   2.874  1.1743 -0.0520 -2.5265
  184MOL0     H24286   6.609  -0.128   2.884 -0.3106 -1.7470  2.0576
  184MOL0     H24287   5.728  -0.231   2.983 -0.8337 -0.1451 -1.9726
  184MOL0     H24288   5.512  -0.134   2.981 -0.2253 -0.1624 -0.2974
  185MOL0     O24289   6.732  11.095   8.522  0.4280 -0.6696  0.7385
  185MOL0     C24290   6.819  11.126   8.449 -0.8314 -1.0799  0.4209
  185MOL0     O24291   6.819  11.237   8.364  0.1338 -0.4963 -0.1188
  185MOL0     C24292   6.709  11.308   8.336 -0.1837 -0.1197  0.4170
  185MOL0     C24293   6.713  11.449   8.345  0.2020 -0.7523 -0.2666
  185MOL0     C24294   6.594  11.519   8.317 -0.0527 -0.3660  0.0675
  185MOL0     C24295   6.470  11.455   8.291 -0.0663  0.2643 -0.8771
  185MOL0     O24296   6.352  11.520   8.269 -0.2806  0.7861 -0.3303
  185MOL0     C24297   6.334  11.665   8.263  0.4195 -0.2858  0.1603
  185MOL0     C24298   6.196  11.695   8.196 -0.2045  0.9204  0.8142
  185MOL0     C24299   6.075  11.635   8.258 -0.5070 -0.3851  0.3917
  185MOL0     C24300   5.952  11.699   8.187  0.0825  0.4359  0.9332
  185MOL0     C24301   5.821  11.631   8.232 -0.5980 -0.5264 -0.0791
  185MOL0     C24302   5.754  11.555   8.118 -0.7586  0.0662  0.2111
  185MOL0     C24303   5.631  11.483   8.159 -0.3089 -0.5357  0.1641
  185MOL0     C24304   5.556  11.404   8.049 -1.0961 -0.4992 -0.0106
  185MOL0     N24305   5.425  11.356   8.076  0.2120  0.4674 -0.0295
  185MOL0     C24306   5.394  11.261   8.174 -0.1204 -0.4161 -0.0843
  185MOL0     C24307   5.261  11.239   8.161  0.0379  0.1570  0.1901
  185MOL0     C24308   5.189  11.133   8.237  0.0455  0.0129 -0.5805
  185MOL0     C24309   5.040  11.116   8.207 -0.3796 -0.3368 -0.4649
  185MOL0     C24310   4.954  11.243   8.233  0.0191  0.0689 -0.2471
  185MOL0     C24311   4.809  11.218   8.198 -0.1249 -0.2502 -0.1947
  185MOL0     O24312   4.716  11.312   8.261 -0.0150  0.3776  0.2169
  185MOL0     C24313   4.581  11.319   8.222 -0.3741  0.9059  0.0890
  185MOL0     C24314   4.512  11.440   8.236 -1.1837  0.4419  0.2312
  185MOL0     C24315   4.379  11.441   8.195 -0.3686  0.2465  0.0580
  185MOL0     C24316   4.313  11.323   8.164  0.1933  0.1845  0.1803
  185MOL0     C24317   4.181  11.332   8.092  0.2479 -0.3163 -0.0679
  185MOL0     O24318   4.130  11.456   8.066 -0.9401  0.6402  0.1466
  185MOL0     C24319   4.003  11.481   8.015 -0.5844 -0.0803 -0.2424
  185MOL0     C24320   3.941  11.410   7.910 -0.0563 -0.2125 -0.3811
  185MOL0     C24321   3.805  11.436   7.881  0.2481 -0.8866  0.0341
  185MOL0     C24322   3.741  11.546   7.943 -0.6491  1.0862  0.6899
  185MOL0     O24323   3.622  11.599   7.903  0.3778 -0.1344  0.5908
  185MOL0     C24324   3.530  11.507   7.839 -0.6986 -0.1769 -0.0146
  185MOL0     C24325   3.388  11.546   7.858  0.0871 -0.3110 -0.3112
  185MOL0     C24326   3.360  11.694   7.847  0.0177  1.0409 -0.6901
  185MOL0     C24327   3.213  11.715   7.865 -1.1049  0.4443  0.7346
  185MOL0     C24328   3.183  11.870   7.869  0.6146  0.4846 -0.2594
  185MOL0     C24329   3.033  11.901   7.894  0.4598 -0.4436  0.2141
  185MOL0     C24330   2.937  11.851   7.782 -0.6166 -0.2955  0.1081
  185MOL0     C24331   2.792  11.877   7.823  0.4749  0.2409  0.3479
  185MOL0    Cl24332   2.762  12.044   7.856  0.0344  0.6050  0.2553
  185MOL0     C24333   3.816  11.626   8.033 -0.2700  0.7822  0.0570
  185MOL0     C24334   3.940  11.588   8.075  0.5117 -0.8589  1.0446
  185MOL0     O24335   4.121  11.227   8.066  0.0644 -1.2197 -0.9512
  185MOL0     C24336   4.382  11.206   8.161  0.2223  0.4153  1.0163
  185MOL0     C24337   4.520  11.210   8.177  0.0837  0.6344 -0.2662
  185MOL0     N24338   5.216  11.318   8.056 -0.1334  0.2614  0.3619
  185MOL0     N24339   5.313  11.377   8.005 -0.4909 -0.5085  0.5757
  185MOL0     C24340   6.468  11.315   8.294 -0.5346 -0.5283  0.0274
  185MOL0     C24341   6.592  11.241   8.312  0.1384 -0.0575  0.4704
  185MOL0     C24342   6.947  11.048   8.455  0.2305  0.1191 -0.0494
  185MOL0     C24343   6.955  10.923   8.520  0.2572 -0.5518 -0.1633
  185MOL0     C24344   7.077  10.859   8.529 -0.8025 -0.3145 -0.9178
  185MOL0     C24345   7.193  10.916   8.476  0.0086 -0.0714  0.8316
  185MOL0     O24346   7.313  10.843   8.497  0.2572 -0.5446 -0.1304
  185MOL0     C24347   7.433  10.878   8.434 -0.8119 -0.2364 -0.4703
  185MOL0     C24348   7.520  10.966   8.522  0.3023 -0.8737 -0.0917
  185MOL0     C24349   7.574  10.890   8.635  0.6756 -0.5314 -0.0379
  185MOL0     C24350   7.682  10.968   8.711 -0.0809 -0.0387  0.3368
  185MOL0     C24351   7.800  10.982   8.633 -0.5266  1.6052 -0.2280
  185MOL0     C24352   7.896  10.998   8.553  0.4244  0.7672 -0.0512
  185MOL0     C24353   7.184  11.046   8.414 -0.1414 -0.1682 -0.2412
  185MOL0     C24354   7.061  11.107   8.397 -0.1817 -0.6930  1.5883
  185MOL0     H24355   6.812  11.492   8.356 -0.0956  0.1232 -0.9480
  185MOL0     H24356   6.594  11.627   8.327 -1.7997  0.0136 -2.8631
  185MOL0     H24357   6.402  11.715   8.193 -1.7122  1.3211 -0.8614
  185MOL0     H24358   6.328  11.706   8.365 -0.4974  0.9830 -0.3832
  185MOL0     H24359   6.194  11.660   8.093  0.9302 -1.2150  1.4610
  185MOL0     H24360   6.186  11.804   8.199  0.3126  0.9963 -0.1647
  185MOL0     H24361   6.061  11.669   8.361 -1.0435 -1.5045  0.6999
  185MOL0     H24362   6.073  11.527   8.245 -1.2227 -0.0863 -3.1141
  185MOL0     H24363   5.941  11.807   8.203  1.0426  0.6472  0.2168
  185MOL0     H24364   5.971  11.693   8.080  0.7399  2.1705  0.9256
  185MOL0     H24365   5.753  11.702   8.281 -1.1754 -1.0438 -0.1180
  185MOL0     H24366   5.846  11.555   8.306 -0.9902  0.6038  1.2467
  185MOL0     H24367   5.817  11.472   8.084 -1.8701 -0.8412  0.3134
  185MOL0     H24368   5.736  11.627   8.038  0.7250 -0.6232 -0.7979
  185MOL0     H24369   5.645  11.413   8.242 -1.2148  1.4520  2.0766
  185MOL0     H24370   5.565  11.553   8.210  1.7306  1.8077 -0.2103
  185MOL0     H24371   5.615  11.318   8.019  1.8989  0.3442  2.8191
  185MOL0     H24372   5.553  11.474   7.965 -0.7877 -0.9788 -0.4249
  185MOL0     H24373   5.454  11.223   8.256 -2.2057  2.4555  3.0531
  185MOL0     H24374   5.178  11.161   8.342 -1.0479 -0.4851 -0.5457
  185MOL0     H24375   5.237  11.035   8.237 -1.2366 -0.6956  1.5692
  185MOL0     H24376   5.001  11.038   8.273  0.6926  0.2334  0.8800
  185MOL0     H24377   5.031  11.078   8.105 -3.8330 -0.5279 -0.1878
  185MOL0     H24378   4.949  11.267   8.339  0.3713 -0.6321 -0.0649
  185MOL0     H24379   4.992  11.321   8.166  1.2366 -0.0639  0.2650
  185MOL0     H24380   4.784  11.114   8.223 -0.5615 -0.2693 -0.6944
  185MOL0     H24381   4.808  11.230   8.090  1.1050  0.4605 -0.1458
  185MOL0     H24382   4.553  11.538   8.260 -1.5949  1.4460 -2.7481
  185MOL0     H24383   4.326  11.534   8.183 -0.1575  0.3678  0.0610
  185MOL0     H24384   3.989  11.325   7.862 -1.1734 -1.0523 -0.0694
  185MOL0     H24385   3.762  11.376   7.802 -0.2707 -0.8987  0.3226
  185MOL0     H24386   3.547  11.411   7.888 -0.6413  0.4899  1.2978
  185MOL0     H24387   3.546  11.506   7.731  1.4292 -0.8767  0.2533
  185MOL0     H24388   3.351  11.513   7.955 -0.7405 -0.1001 -0.5494
  185MOL0     H24389   3.333  11.502   7.775 -0.2967  0.3341 -0.4126
  185MOL0     H24390   3.395  11.736   7.753 -0.7786  0.5686 -1.2116
  185MOL0     H24391   3.410  11.752   7.925 -0.1270  0.7327 -0.3643
  185MOL0     H24392   3.156  11.677   7.780  0.1748  0.4545 -0.1491
  185MOL0     H24393   3.183  11.673   7.961  1.4614  1.0654  1.9051
  185MOL0     H24394   3.221  11.920   7.780  0.7819  1.8771  0.5766
  185MOL0     H24395   3.228  11.919   7.956 -0.7279  2.2256 -0.4983
  185MOL0     H24396   3.027  12.009   7.910 -0.5876 -0.9116  3.7410
  185MOL0     H24397   2.998  11.859   7.989  0.2207 -1.3901 -0.2796
  185MOL0     H24398   2.961  11.908   7.692 -0.1204 -1.7472 -0.7023
  185MOL0     H24399   2.952  11.744   7.764  1.1294 -0.2011  0.7560
  185MOL0     H24400   2.769  11.814   7.910  0.3327 -1.4944 -0.9070
  185MOL0     H24401   2.730  11.843   7.740  0.2642  2.2000 -0.3540
  185MOL0     H24402   3.766  11.715   8.069  0.0406  1.1299 -0.3725
  185MOL0     H24403   3.973  11.624   8.172  0.3335 -0.2825  0.8975
  185MOL0     H24404   4.332  11.118   8.123 -3.0032  0.9503  3.4944
  185MOL0     H24405   4.591  11.129   8.162  0.6623  1.5059 -2.6665
  185MOL0     H24406   6.373  11.262   8.289 -2.0292  1.7704  1.8469
  185MOL0     H24407   6.601  11.134   8.297 -0.8906  0.0819 -1.5975
  185MOL0     H24408   6.877  10.872   8.576  1.7215  0.4424  3.0321
  185MOL0     H24409   7.086  10.771   8.591  2.8122  0.6093  0.1398
  185MOL0     H24410   7.420  10.929   8.338  0.0631 -1.3207 -1.1916
  185MOL0     H24411   7.482  10.782   8.414  1.7484  0.9234 -0.1807
  185MOL0     H24412   7.602  11.009   8.464  0.1225 -1.0241 -0.4617
  185MOL0     H24413   7.452  11.045   8.554  0.9611 -0.5969  0.6306
  185MOL0     H24414   7.611  10.792   8.603  2.4416  0.2275 -0.3903
  185MOL0     H24415   7.482  10.880   8.694  0.3975  0.9517 -0.1941
  185MOL0     H24416   7.648  11.069   8.732  1.4188  0.8716 -1.3209
  185MOL0     H24417   7.697  10.906   8.800 -1.6977 -0.6754  0.1983
  185MOL0     H24418   7.977  11.009   8.485  1.3192  0.1568  0.8924
  185MOL0     H24419   7.274  11.085   8.367  0.2127  1.2327  1.4951
  185MOL0     H24420   7.035  11.200   8.347  0.2537 -0.2836  2.1144
  186MOL0     O24421   4.812   3.363  10.086 -0.3273 -0.5203 -0.4377
  186MOL0     C24422   4.884   3.410  10.169 -0.4999  0.3682 -0.3716
  186MOL0     O24423   4.834   3.479  10.282  0.3789 -0.1817  0.3351
  186MOL0     C24424   4.699   3.495  10.306  0.4998 -0.1242 -0.2416
  186MOL0     C24425   4.668   3.586  10.408  0.8164 -0.2374  0.3193
  186MOL0     C24426   4.537   3.597  10.459  0.0824 -0.8249 -0.4733
  186MOL0     C24427   4.428   3.523  10.409  0.3479  0.0221  0.5748
  186MOL0     O24428   4.297   3.532  10.456  0.3298 -0.2619  0.2765
  186MOL0     C24429   4.257   3.651  10.524  0.3376 -0.3609  0.3123
  186MOL0     C24430   4.123   3.641  10.592 -0.1781 -0.7035 -0.1635
  186MOL0     C24431   4.132   3.563  10.727 -0.4280  0.1761  0.3456
  186MOL0     C24432   3.988   3.544  10.770  0.3434 -0.1217 -0.4493
  186MOL0     C24433   3.972   3.482  10.913 -0.7615  1.0801 -0.2016
  186MOL0     C24434   3.978   3.329  10.897  0.8359 -0.6732  0.4354
  186MOL0     C24435   3.952   3.250  11.026 -0.0092 -0.0922 -0.0657
  186MOL0     C24436   3.798   3.245  11.070  0.7227 -0.0615  0.2442
  186MOL0     N24437   3.690   3.191  10.984  0.4152  0.7630 -0.2076
  186MOL0     C24438   3.604   3.257  10.895  0.3594 -0.9601  0.3608
  186MOL0     C24439   3.508   3.161  10.862  0.2450 -0.7303 -0.6191
  186MOL0     C24440   3.388   3.173  10.773  0.3981  0.0001 -0.6456
  186MOL0     C24441   3.261   3.107  10.823  0.8834  0.6785  0.0193
  186MOL0     C24442   3.208   3.158  10.964 -0.6832 -0.7063 -0.0736
  186MOL0     C24443   3.060   3.177  10.977 -0.2247  0.5800  0.2412
  186MOL0     O24444   3.020   3.258  11.093  0.6173 -1.0008  0.1021
  186MOL0     C24445   2.891   3.262  11.129 -0.1301  1.1631  0.4008
  186MOL0     C24446   2.856   3.293  11.266  0.1814 -0.0042  1.1847
  186MOL0     C24447   2.723   3.288  11.314 -0.0336  0.4886 -0.8111
  186MOL0     C24448   2.618   3.236  11.239 -0.3720  0.7161  0.3976
  186MOL0     C24449   2.477   3.223  11.288  0.2790  0.0683 -0.7740
  186MOL0     O24450   2.381   3.202  11.201 -0.3174  0.1712  0.1764
  186MOL0     C24451   2.259   3.157  11.246  0.1174 -0.9712 -0.5163
  186MOL0     C24452   2.208   3.044  11.185  0.4531  0.0078  0.5760
  186MOL0     C24453   2.076   3.010  11.202 -0.3488 -0.1921 -0.8819
  186MOL0     C24454   1.999   3.084  11.293  0.4327 -0.2466 -0.1038
  186MOL0     O24455   1.869   3.039  11.320 -0.3016 -0.0997 -0.3721
  186MOL0     C24456   1.816   3.051  11.448 -0.1286 -0.3621 -0.1610
  186MOL0     C24457   1.761   2.919  11.491 -0.5603  0.6349  0.0880
  186MOL0     C24458   1.874   2.815  11.496 -0.4684  0.7058 -0.5431
  186MOL0     C24459   1.833   2.670  11.541 -0.2158  0.0039  0.1890
  186MOL0     C24460   1.824   2.564  11.426 -0.7550 -0.6077 -0.2062
  186MOL0     C24461   1.758   2.438  11.469 -0.2497  0.0417  0.3504
  186MOL0     C24462   1.815   2.365  11.592 -0.2090  0.1777 -0.1285
  186MOL0     C24463   1.814   2.224  11.551 -0.4534 -0.1572  0.0638
  186MOL0    Cl24464   1.768   2.124  11.680  0.4142 -0.0082  0.0910
  186MOL0     C24465   2.046   3.198  11.361  0.0713 -0.1597 -0.0169
  186MOL0     C24466   2.176   3.236  11.337  0.7997 -0.3589 -0.5998
  186MOL0     O24467   2.458   3.223  11.413 -0.6681 -0.7209 -0.2707
  186MOL0     C24468   2.653   3.211  11.102 -0.2309  0.6479 -0.0604
  186MOL0     C24469   2.786   3.226  11.046 -0.2739  0.2739 -0.4001
  186MOL0     N24470   3.541   3.041  10.917 -0.3512  1.1416  0.0358
  186MOL0     N24471   3.645   3.060  10.986 -0.3298  0.2246 -0.2668
  186MOL0     C24472   4.460   3.428  10.304 -1.0212 -0.8458  0.4196
  186MOL0     C24473   4.598   3.413  10.257  0.6573  0.6257 -0.8003
  186MOL0     C24474   5.034   3.382  10.145 -0.0157 -0.3229  1.0485
  186MOL0     C24475   5.083   3.317  10.030  0.1797  0.1827  0.3897
  186MOL0     C24476   5.224   3.302  10.009  0.3424 -0.1276 -0.2276
  186MOL0     C24477   5.308   3.349  10.109 -0.4055  0.8635 -0.1642
  186MOL0     O24478   5.442   3.359  10.080 -0.5118  0.3032 -0.3816
  186MOL0     C24479   5.514   3.254  10.007 -0.0171 -0.7706  0.0889
  186MOL0     C24480   5.662   3.255  10.029  0.8390 -0.7362  0.5684
  186MOL0     C24481   5.703   3.304  10.168  0.4660 -0.1927 -0.2625
  186MOL0     C24482   5.849   3.310  10.184  0.3474 -0.1186  0.0051
  186MOL0     C24483   5.874   3.337  10.328 -0.1815  0.1960  0.2728
  186MOL0     C24484   5.890   3.358  10.449  0.6849  0.2284 -0.5964
  186MOL0     C24485   5.262   3.408  10.229 -0.0153  0.8272  0.2079
  186MOL0     C24486   5.125   3.430  10.246 -0.6352  0.1745 -0.3156
  186MOL0     H24487   4.742   3.659  10.439 -1.9441  2.9825 -0.0601
  186MOL0     H24488   4.523   3.664  10.543 -2.4525 -1.6604 -0.1417
  186MOL0     H24489   4.251   3.743  10.465  1.0738 -0.3232  0.2876
  186MOL0     H24490   4.327   3.680  10.603  0.0121  0.6002  0.2550
  186MOL0     H24491   4.061   3.585  10.521  0.8959  0.3438 -2.0217
  186MOL0     H24492   4.089   3.745  10.602  0.2982 -0.2824 -2.3746
  186MOL0     H24493   4.192   3.619  10.800 -0.1951 -0.3195  0.5408
  186MOL0     H24494   4.183   3.467  10.711 -1.5655 -0.4758  0.5383
  186MOL0     H24495   3.938   3.641  10.766 -0.1082 -0.3883 -1.9064
  186MOL0     H24496   3.927   3.491  10.696  0.0689  0.7291 -0.8425
  186MOL0     H24497   3.871   3.510  10.945 -1.5262  0.5163 -2.0251
  186MOL0     H24498   4.043   3.516  10.989 -0.5806  0.7916 -0.2400
  186MOL0     H24499   4.081   3.309  10.866  1.9444 -0.6291  3.7140
  186MOL0     H24500   3.904   3.302  10.821 -2.2246  3.3632  1.5965
  186MOL0     H24501   3.983   3.148  11.002  1.7594  0.4290 -0.1532
  186MOL0     H24502   4.015   3.279  11.111 -0.9751  0.3344  0.5228
  186MOL0     H24503   3.762   3.345  11.096 -0.8453 -0.6588  0.4504
  186MOL0     H24504   3.786   3.184  11.160 -1.6142 -3.1855 -1.9728
  186MOL0     H24505   3.611   3.360  10.860  1.4590 -0.9341  0.5930
  186MOL0     H24506   3.413   3.137  10.673  1.3009 -0.9809 -0.0920
  186MOL0     H24507   3.366   3.280  10.761 -0.4095 -0.3043 -2.2138
  186MOL0     H24508   3.277   3.000  10.839 -1.5376  0.1340 -0.7984
  186MOL0     H24509   3.174   3.134  10.762  0.1392  1.6672  1.4391
  186MOL0     H24510   3.239   3.089  11.044 -1.9695  0.0542  1.1120
  186MOL0     H24511   3.268   3.248  10.979  0.9037 -1.8505  0.7450
  186MOL0     H24512   3.009   3.080  10.978 -2.4667  1.6659  2.6183
  186MOL0     H24513   3.028   3.230  10.886 -1.4510 -0.0988  0.2571
  186MOL0     H24514   2.934   3.324  11.334  1.0612  0.1079  0.1480
  186MOL0     H24515   2.714   3.306  11.420  3.1309 -0.6650 -0.2497
  186MOL0     H24516   2.267   2.979  11.120  0.2376 -0.0758  0.4643
  186MOL0     H24517   2.027   2.928  11.151 -2.4060 -0.4014  1.2565
  186MOL0     H24518   1.733   3.123  11.453  0.8773  0.7240  1.6169
  186MOL0     H24519   1.894   3.080  11.518 -1.5150  1.0766  0.8722
  186MOL0     H24520   1.685   2.881  11.421  0.7922 -1.7288 -0.1971
  186MOL0     H24521   1.701   2.930  11.582 -1.9359  0.1983 -0.7266
  186MOL0     H24522   1.937   2.853  11.577 -1.8010  2.1620 -0.1480
  186MOL0     H24523   1.930   2.800  11.404 -1.0273 -2.0098 -0.5286
  186MOL0     H24524   1.900   2.636  11.620 -1.3765  1.0593  1.6708
  186MOL0     H24525   1.732   2.681  11.581 -0.3386  0.1082 -0.1500
  186MOL0     H24526   1.928   2.538  11.404 -0.5606 -2.0445  2.0763
  186MOL0     H24527   1.784   2.611  11.336 -1.0379  0.2783  0.3693
  186MOL0     H24528   1.759   2.374  11.380  0.2156 -0.1534  0.4933
  186MOL0     H24529   1.652   2.460  11.486  0.2977  2.4499  1.0604
  186MOL0     H24530   1.917   2.389  11.625 -0.1608 -1.4314  1.0314
  186MOL0     H24531   1.743   2.376  11.674  0.0450 -1.2853  0.3311
  186MOL0     H24532   1.907   2.189  11.505 -0.5220 -1.4402  0.8265
  186MOL0     H24533   1.735   2.207  11.478 -0.1478 -2.4839  0.1886
  186MOL0     H24534   1.979   3.239  11.436  1.4037  3.4487 -0.6001
  186MOL0     H24535   2.210   3.332  11.373  0.4678  0.0499 -1.3697
  186MOL0     H24536   2.576   3.176  11.033  1.3410 -5.0794  0.5544
  186MOL0     H24537   2.801   3.208  10.941 -0.5120  1.5483 -0.6763
  186MOL0     H24538   4.376   3.376  10.260  1.3577 -2.9486 -2.0301
  186MOL0     H24539   4.623   3.332  10.189  2.4215  1.8188 -1.6385
  186MOL0     H24540   5.017   3.273   9.956  1.2809  0.2230 -0.6445
  186MOL0     H24541   5.268   3.264   9.917  0.6427  0.4411 -0.3217
  186MOL0     H24542   5.481   3.278   9.905 -1.8800  0.6200  0.9561
  186MOL0     H24543   5.477   3.157  10.043  0.9200 -0.5215  1.7677
  186MOL0     H24544   5.694   3.151  10.018 -0.7477 -1.4839  2.4686
  186MOL0     H24545   5.705   3.316   9.948 -0.2616  0.9545  1.2032
  186MOL0     H24546   5.651   3.232  10.233 -2.1754  0.3633 -1.6141
  186MOL0     H24547   5.672   3.404  10.198  0.9855  0.3570 -1.5370
  186MOL0     H24548   5.891   3.214  10.153 -1.9457 -1.7242  1.5519
  186MOL0     H24549   5.891   3.399  10.136 -1.5184  2.0463  2.1597
  186MOL0     H24550   5.894   3.359  10.556 -3.9450 -3.4444 -0.0293
  186MOL0     H24551   5.330   3.437  10.309 -0.6310 -0.7807  1.3659
  186MOL0     H24552   5.107   3.472  10.344  1.7828  0.2437  0.1753
  187MOL0     O24553   9.492   4.641   7.515  0.5452  0.0876 -0.1474
  187MOL0     C24554   9.424   4.724   7.452 -0.3808 -0.4720 -0.2993
  187MOL0     O24555   9.475   4.849   7.412  0.5469  0.0008 -0.0967
  187MOL0     C24556   9.604   4.884   7.436 -0.0446  0.9491 -0.2358
  187MOL0     C24557   9.710   4.794   7.439 -0.4647 -0.0856 -0.4992
  187MOL0     C24558   9.837   4.844   7.454 -0.1202 -0.4773 -0.2250
  187MOL0     C24559   9.863   4.983   7.467 -0.2208  0.0022  0.0753
  187MOL0     O24560   9.992   5.014   7.472 -0.3642 -0.4739 -0.2630
  187MOL0     C24561  10.029   5.132   7.402  0.0703 -0.3028  0.9503
  187MOL0     C24562  10.184   5.142   7.416 -0.4518 -0.1343  0.3556
  187MOL0     C24563  10.262   5.008   7.403 -0.5483 -0.3157 -0.1631
  187MOL0     C24564  10.419   5.026   7.420  0.7421  0.8894 -0.3149
  187MOL0     C24565  10.498   5.072   7.295  0.3459  0.5270 -0.2665
  187MOL0     C24566  10.644   5.048   7.318  0.6928  0.3867  1.0633
  187MOL0     C24567  10.729   5.016   7.187  0.3860 -0.0491 -0.1953
  187MOL0     C24568  10.748   5.132   7.095  0.3709 -0.1739  0.3242
  187MOL0     N24569  10.641   5.165   6.997 -0.1292  0.6606  0.2505
  187MOL0     C24570  10.541   5.260   7.004  0.3739  0.5136 -0.0955
  187MOL0     C24571  10.463   5.232   6.897  0.5734 -0.0682  0.3195
  187MOL0     C24572  10.325   5.290   6.878 -0.1541  0.4924  0.3567
  187MOL0     C24573  10.215   5.182   6.901 -0.0275  0.6873 -0.6596
  187MOL0     C24574  10.088   5.258   6.861 -0.0597  0.3275  0.0652
  187MOL0     C24575   9.967   5.165   6.862 -0.1809  0.0662  0.6558
  187MOL0     O24576   9.845   5.237   6.835  0.1315  0.1147  0.2806
  187MOL0     C24577   9.737   5.193   6.908  0.2775 -0.5408  0.5652
  187MOL0     C24578   9.701   5.059   6.912 -0.6350  0.3277 -0.1556
  187MOL0     C24579   9.590   5.019   6.983 -0.4612  0.0479 -0.3217
  187MOL0     C24580   9.515   5.114   7.052 -0.1508 -0.6487 -0.1980
  187MOL0     C24581   9.390   5.078   7.119  0.1663 -0.7915  0.9326
  187MOL0     O24582   9.354   5.159   7.221  0.0248 -0.3548  0.6626
  187MOL0     C24583   9.226   5.134   7.269  0.1293 -0.3512  0.3352
  187MOL0     C24584   9.214   5.105   7.407  0.3873 -0.0136  0.1895
  187MOL0     C24585   9.082   5.084   7.446  0.3702  0.9192 -1.0527
  187MOL0     C24586   8.966   5.100   7.366  0.2044  0.7414  0.4693
  187MOL0     O24587   8.832   5.089   7.399  0.1434 -0.4203  0.8964
  187MOL0     C24588   8.801   5.113   7.540  0.1727 -0.2062  0.3962
  187MOL0     C24589   8.816   5.259   7.584  0.1255  0.4162 -0.4126
  187MOL0     C24590   8.733   5.295   7.706  0.3707 -0.8882 -0.4664
  187MOL0     C24591   8.585   5.295   7.689  0.0904  0.7069 -0.2876
  187MOL0     C24592   8.524   5.431   7.746 -0.5902  0.5228 -0.0070
  187MOL0     C24593   8.369   5.444   7.731  0.2150 -0.2685 -0.2066
  187MOL0     C24594   8.312   5.552   7.828 -1.0246 -0.1162 -0.1209
  187MOL0     C24595   8.318   5.538   7.980 -0.2804 -0.2305  0.5754
  187MOL0    Cl24596   8.266   5.375   8.024  0.0818 -0.2276  0.3304
  187MOL0     C24597   8.992   5.142   7.241 -0.1732  0.2725 -0.2190
  187MOL0     C24598   9.117   5.157   7.192  0.4355 -0.3913  0.2616
  187MOL0     O24599   9.329   4.980   7.079 -0.7787 -0.1100  0.1682
  187MOL0     C24600   9.545   5.248   7.033  0.4137  0.6883 -0.4838
  187MOL0     C24601   9.659   5.292   6.965  0.0243 -0.5772 -0.8696
  187MOL0     N24602  10.511   5.125   6.824  0.9427 -0.3234  0.1211
  187MOL0     N24603  10.609   5.076   6.892  0.2445  0.2612  0.1918
  187MOL0     C24604   9.752   5.074   7.465  0.5661  0.1938  0.4442
  187MOL0     C24605   9.622   5.024   7.445 -0.0927 -0.1707  0.2532
  187MOL0     C24606   9.278   4.704   7.434  0.0792 -0.5532 -0.1772
  187MOL0     C24607   9.206   4.618   7.525 -0.2014  0.5842  0.2744
  187MOL0     C24608   9.073   4.584   7.494  0.6353  1.0039 -0.3202
  187MOL0     C24609   9.014   4.634   7.376 -0.4497  0.0910  0.5635
  187MOL0     O24610   8.896   4.599   7.334  0.7016 -0.7833 -0.6161
  187MOL0     C24611   8.821   4.520   7.427  0.8621 -0.2473 -0.7877
  187MOL0     C24612   8.678   4.499   7.367  0.0591 -0.5503  0.2516
  187MOL0     C24613   8.594   4.432   7.476  0.7240 -0.2824 -0.2185
  187MOL0     C24614   8.461   4.405   7.424  0.8345  1.3149  0.2488
  187MOL0     C24615   8.457   4.268   7.365  0.5879  0.0216 -0.9454
  187MOL0     C24616   8.430   4.156   7.318 -1.2368 -0.1734 -0.9712
  187MOL0     C24617   9.094   4.709   7.290  0.4230  0.1135 -0.5866
  187MOL0     C24618   9.222   4.745   7.319  0.0597  0.8573  0.1352
  187MOL0     H24619   9.706   4.686   7.429  2.6115 -0.4675  1.0991
  187MOL0     H24620   9.913   4.767   7.452 -0.7549 -1.1699 -3.4702
  187MOL0     H24621   9.986   5.222   7.448 -1.5021  0.5237 -1.9601
  187MOL0     H24622  10.006   5.128   7.296 -2.2389 -0.5170  1.4223
  187MOL0     H24623  10.207   5.183   7.515 -0.0072  0.0286  0.1845
  187MOL0     H24624  10.218   5.212   7.339  2.2606 -1.6004  0.1079
  187MOL0     H24625  10.248   4.974   7.300  2.8818  2.5058 -1.8023
  187MOL0     H24626  10.238   4.936   7.481  0.4946  0.1415  0.6097
  187MOL0     H24627  10.418   5.115   7.483 -0.8639 -0.8896  2.3669
  187MOL0     H24628  10.463   4.944   7.477 -0.0219  0.1190 -0.8065
  187MOL0     H24629  10.478   5.176   7.270  0.5643 -0.0917 -3.4485
  187MOL0     H24630  10.456   5.009   7.216 -0.9137 -1.2938  1.7472
  187MOL0     H24631  10.646   4.969   7.394 -1.6470 -0.2455  0.5476
  187MOL0     H24632  10.690   5.134   7.368  1.7809  0.4902 -0.0862
  187MOL0     H24633  10.824   4.969   7.215 -0.8698 -2.7649 -0.1971
  187MOL0     H24634  10.672   4.934   7.143  0.7087  0.1895 -1.0739
  187MOL0     H24635  10.837   5.117   7.033  0.8698 -0.5720  1.1077
  187MOL0     H24636  10.767   5.222   7.154 -1.7583  1.7995 -1.7615
  187MOL0     H24637  10.515   5.335   7.079 -1.3620  0.9332 -1.0471
  187MOL0     H24638  10.318   5.342   6.782  0.1647 -1.2796 -0.6630
  187MOL0     H24639  10.299   5.370   6.949 -3.0356 -1.2573  1.4736
  187MOL0     H24640  10.195   5.142   7.001 -2.5196  3.1624 -0.0612
  187MOL0     H24641  10.221   5.094   6.836 -1.6022 -1.4750  1.9402
  187MOL0     H24642  10.084   5.343   6.930 -1.8845 -0.6734  1.2746
  187MOL0     H24643  10.103   5.298   6.761 -0.1439 -0.4981 -0.2817
  187MOL0     H24644   9.965   5.103   6.952 -2.8443  1.2714  1.5193
  187MOL0     H24645   9.971   5.101   6.774 -2.0603  2.3710 -1.2565
  187MOL0     H24646   9.756   4.983   6.856 -0.4792  0.9985 -0.9331
  187MOL0     H24647   9.563   4.914   6.990 -1.4773  0.3116 -0.1122
  187MOL0     H24648   9.299   5.102   7.475 -0.7129 -0.8900  1.5738
  187MOL0     H24649   9.072   5.074   7.554  1.9072 -0.4813 -0.9834
  187MOL0     H24650   8.866   5.046   7.597  2.3869  0.3241 -1.3587
  187MOL0     H24651   8.697   5.080   7.540  0.4222 -1.3248 -2.7929
  187MOL0     H24652   8.787   5.325   7.502 -1.9551 -0.4000 -0.4022
  187MOL0     H24653   8.919   5.282   7.613 -0.1832 -1.6661  2.8125
  187MOL0     H24654   8.775   5.386   7.750 -0.5390  0.0544 -1.4872
  187MOL0     H24655   8.749   5.219   7.783  0.0475 -0.5815 -0.0867
  187MOL0     H24656   8.555   5.301   7.584  0.7715  1.1428 -0.4612
  187MOL0     H24657   8.539   5.206   7.732 -0.7519  0.5905 -1.3987
  187MOL0     H24658   8.565   5.521   7.698 -0.3352 -0.6224 -2.0356
  187MOL0     H24659   8.547   5.429   7.853  0.3986 -0.2358 -0.2203
  187MOL0     H24660   8.310   5.352   7.732  1.7675 -1.2984 -0.5639
  187MOL0     H24661   8.350   5.487   7.632 -1.1337 -0.3006  0.0196
  187MOL0     H24662   8.361   5.647   7.805  4.5011 -1.5727  3.6740
  187MOL0     H24663   8.207   5.553   7.799 -0.5558 -0.6439 -2.0229
  187MOL0     H24664   8.272   5.616   8.041 -0.2075  1.0019 -0.8800
  187MOL0     H24665   8.427   5.536   7.989 -0.1212 -1.9779 -1.0571
  187MOL0     H24666   8.905   5.165   7.180  0.7931  5.2195 -0.1456
  187MOL0     H24667   9.122   5.179   7.086  0.9031 -2.1158 -0.1079
  187MOL0     H24668   9.470   5.312   7.079  0.3161  0.7063 -0.6651
  187MOL0     H24669   9.670   5.399   6.955 -2.4853 -0.3328 -1.7586
  187MOL0     H24670   9.769   5.181   7.469 -2.4288  0.8161 -0.8733
  187MOL0     H24671   9.546   5.097   7.420  2.1497  2.4908  0.6526
  187MOL0     H24672   9.254   4.594   7.619  2.0032  2.8308 -0.1589
  187MOL0     H24673   9.020   4.525   7.567  0.6398  1.5537  0.1355
  187MOL0     H24674   8.819   4.576   7.521  2.5880 -1.1624 -0.1554
  187MOL0     H24675   8.867   4.421   7.432  0.1353 -0.7659 -3.1178
  187MOL0     H24676   8.632   4.593   7.335 -2.1493 -2.5999 -3.2327
  187MOL0     H24677   8.682   4.431   7.282  4.2074 -0.0886 -0.1530
  187MOL0     H24678   8.577   4.500   7.561 -1.1207 -2.1650  1.0250
  187MOL0     H24679   8.647   4.344   7.514  1.7382  0.1753 -0.5242
  187MOL0     H24680   8.380   4.411   7.497  0.5993  0.6143  0.0489
  187MOL0     H24681   8.429   4.470   7.342 -0.8160  1.1818  0.7519
  187MOL0     H24682   8.404   4.059   7.281  0.3263 -0.8561 -0.3887
  187MOL0     H24683   9.037   4.743   7.205 -0.9771 -1.0919 -0.1578
  187MOL0     H24684   9.279   4.810   7.253 -0.8958  1.0652 -0.5113
  188MOL0     O24685   4.506   3.415   3.261  0.0079 -0.2384 -0.2716
  188MOL0     C24686   4.478   3.413   3.140 -0.3970  0.3140 -0.1874
  188MOL0     O24687   4.567   3.381   3.037  0.2955 -0.3052 -0.1035
  188MOL0     C24688   4.697   3.357   3.066 -0.5044  0.2750  0.0468
  188MOL0     C24689   4.766   3.289   2.965  0.6916  0.8464  0.0406
  188MOL0     C24690   4.890   3.235   2.986 -0.3421 -0.8883 -0.3274
  188MOL0     C24691   4.961   3.266   3.109 -0.8677 -0.8135  0.2002
  188MOL0     O24692   5.101   3.229   3.116  0.6503  1.1366  0.5832
  188MOL0     C24693   5.166   3.228   3.243 -0.2272 -0.1507  0.4535
  188MOL0     C24694   5.302   3.160   3.234 -0.4052  0.8421 -0.0656
  188MOL0     C24695   5.376   3.174   3.370 -0.2068  0.0567  0.3912
  188MOL0     C24696   5.506   3.092   3.378 -0.1595 -0.0538  0.5531
  188MOL0     C24697   5.577   3.117   3.514  0.2458  0.0662  0.0820
  188MOL0     C24698   5.702   3.030   3.513 -0.4907  0.0273 -0.0516
  188MOL0     C24699   5.785   3.078   3.625  0.0980 -0.1373 -0.6513
  188MOL0     C24700   5.909   3.000   3.614  0.2150  0.0965  1.1765
  188MOL0     N24701   6.009   3.036   3.715 -0.2815 -0.5720 -0.4830
  188MOL0     C24702   6.071   3.162   3.711  0.5854  0.0301 -0.7260
  188MOL0     C24703   6.153   3.163   3.819  0.2512  0.7342  0.0117
  188MOL0     C24704   6.256   3.265   3.862  0.0277  0.2208 -0.6390
  188MOL0     C24705   6.191   3.379   3.951 -0.7341 -0.6365  0.4471
  188MOL0     C24706   6.077   3.458   3.882 -0.2152 -0.2478  0.6236
  188MOL0     C24707   6.121   3.543   3.762 -0.1186 -0.3962  0.7458
  188MOL0     O24708   6.033   3.541   3.644 -0.7702  0.4455 -0.1575
  188MOL0     C24709   5.899   3.574   3.666 -0.1474 -0.5965 -0.6207
  188MOL0     C24710   5.789   3.506   3.606  0.0346  0.2260 -0.9419
  188MOL0     C24711   5.656   3.554   3.601  0.3232 -0.1668 -0.9654
  188MOL0     C24712   5.625   3.659   3.698 -0.6135  0.2211  0.6873
  188MOL0     C24713   5.483   3.699   3.714 -0.4086  0.2828 -0.6640
  188MOL0     O24714   5.403   3.678   3.611  0.7186  0.7947  0.3916
  188MOL0     C24715   5.263   3.685   3.608  0.3271 -0.3134  0.3968
  188MOL0     C24716   5.212   3.711   3.482  0.7521 -0.1876  0.2397
  188MOL0     C24717   5.075   3.734   3.470  0.0221  0.2118  0.2267
  188MOL0     C24718   4.986   3.735   3.581  0.7750  0.1231 -0.0904
  188MOL0     O24719   4.849   3.750   3.579 -0.0929 -0.1167  0.2599
  188MOL0     C24720   4.803   3.783   3.447 -0.8887 -0.2396 -0.5116
  188MOL0     C24721   4.656   3.782   3.455  0.5676  0.2655  0.5682
  188MOL0     C24722   4.599   3.767   3.313  0.5179 -0.2210 -0.1376
  188MOL0     C24723   4.445   3.763   3.314 -0.2102  1.1596  0.4842
  188MOL0     C24724   4.377   3.905   3.315  0.5224 -0.2304  0.1018
  188MOL0     C24725   4.395   3.965   3.181 -1.5768 -0.1541  0.0690
  188MOL0     C24726   4.272   4.026   3.113 -0.6134  0.5639 -0.2605
  188MOL0     C24727   4.178   3.915   3.062  0.5412 -0.2984  0.1154
  188MOL0    Cl24728   4.020   3.991   3.024  0.2800 -0.3159 -0.4369
  188MOL0     C24729   5.036   3.696   3.707  1.1924  0.2082 -0.2863
  188MOL0     C24730   5.181   3.670   3.719  1.6728 -0.3263 -0.7587
  188MOL0     O24731   5.450   3.743   3.819  0.2290 -0.0874 -0.5427
  188MOL0     C24732   5.728   3.703   3.784  0.0224 -1.3638  0.0824
  188MOL0     C24733   5.857   3.665   3.766 -0.4235  0.6519  0.1867
  188MOL0     N24734   6.137   3.047   3.890 -0.2224 -0.1553  0.2753
  188MOL0     N24735   6.055   2.976   3.829 -0.5643  0.8529  0.0614
  188MOL0     C24736   4.903   3.365   3.195  1.0413  0.8356 -0.2554
  188MOL0     C24737   4.767   3.410   3.178 -1.0303 -0.1842  0.5001
  188MOL0     C24738   4.343   3.443   3.103  0.0976 -0.1860  0.2194
  188MOL0     C24739   4.314   3.439   2.966 -0.2589 -0.9644  0.2637
  188MOL0     C24740   4.193   3.493   2.917 -0.5255 -0.7569  0.0386
  188MOL0     C24741   4.101   3.545   3.013  0.3546 -0.3541 -0.4660
  188MOL0     O24742   3.981   3.594   2.973  0.4264 -0.6964  0.1043
  188MOL0     C24743   3.933   3.619   2.836 -0.6039  0.4724 -0.0409
  188MOL0     C24744   4.022   3.699   2.736 -0.2928 -0.7346  0.2573
  188MOL0     C24745   3.946   3.803   2.674 -0.1272 -0.7315 -0.4511
  188MOL0     C24746   4.030   3.899   2.588 -0.8335 -0.0600  0.6297
  188MOL0     C24747   3.968   3.972   2.481  0.0612 -0.5585  1.3095
  188MOL0     C24748   3.907   4.051   2.400  0.4854 -0.0968  0.1361
  188MOL0     C24749   4.124   3.538   3.155  0.3446  0.7842  0.5008
  188MOL0     C24750   4.249   3.483   3.197  0.0288  0.2008  0.6253
  188MOL0     H24751   4.718   3.248   2.876  2.6408 -0.4310 -0.4846
  188MOL0     H24752   4.937   3.175   2.909  0.6373 -1.9072  1.0202
  188MOL0     H24753   5.105   3.170   3.312 -2.0822 -0.6934 -1.5293
  188MOL0     H24754   5.170   3.331   3.281 -1.5450 -0.3213  1.1013
  188MOL0     H24755   5.363   3.193   3.150  3.3103 -1.3801  1.5294
  188MOL0     H24756   5.291   3.053   3.215 -2.8088  0.6837  1.6928
  188MOL0     H24757   5.310   3.149   3.453 -0.3752 -0.8844 -0.0208
  188MOL0     H24758   5.394   3.282   3.370 -0.4191  0.1062 -0.4677
  188MOL0     H24759   5.473   2.994   3.343  0.5398  0.1262 -0.6642
  188MOL0     H24760   5.571   3.129   3.298 -1.0036 -2.2710 -1.2526
  188MOL0     H24761   5.513   3.089   3.597 -1.4177  4.1154  0.4101
  188MOL0     H24762   5.605   3.220   3.538 -0.5858 -0.2568  2.6601
  188MOL0     H24763   5.752   3.043   3.417  0.7443  1.5351  0.7548
  188MOL0     H24764   5.680   2.924   3.531  2.5894 -1.0526 -1.9019
  188MOL0     H24765   5.795   3.186   3.614 -2.6441  0.1269 -1.1910
  188MOL0     H24766   5.733   3.067   3.721  3.3114  3.4952  1.8512
  188MOL0     H24767   5.942   3.002   3.510  0.0452  1.5071  1.1372
  188MOL0     H24768   5.891   2.892   3.613  4.2660 -0.8335 -2.4087
  188MOL0     H24769   6.058   3.243   3.641 -3.3810 -0.6812 -1.0639
  188MOL0     H24770   6.301   3.310   3.773 -2.3989  0.5752 -1.7733
  188MOL0     H24771   6.327   3.214   3.927 -2.1911 -1.5074  0.5824
  188MOL0     H24772   6.263   3.460   3.968 -0.3759 -1.1619  1.5088
  188MOL0     H24773   6.158   3.334   4.045 -0.3577 -0.7579  0.5246
  188MOL0     H24774   5.994   3.396   3.848 -0.2898  1.5908 -2.9706
  188MOL0     H24775   6.018   3.517   3.952 -0.3735 -2.1175  2.1611
  188MOL0     H24776   6.223   3.506   3.747  0.3009 -0.5059  3.3586
  188MOL0     H24777   6.141   3.648   3.784  1.0260 -0.9805  2.7494
  188MOL0     H24778   5.814   3.430   3.533 -1.7053  0.4317 -1.7945
  188MOL0     H24779   5.579   3.507   3.541 -2.0686 -0.9692  2.3923
  188MOL0     H24780   5.278   3.716   3.395  0.9414  1.4730  0.4463
  188MOL0     H24781   5.037   3.751   3.370 -2.1027  0.4945  1.0251
  188MOL0     H24782   4.823   3.699   3.380 -0.6677 -0.6171  0.0229
  188MOL0     H24783   4.852   3.879   3.428 -0.2279 -0.7943 -1.7047
  188MOL0     H24784   4.622   3.870   3.510  0.0823  1.2060 -1.1640
  188MOL0     H24785   4.615   3.700   3.515 -0.6008 -0.2043 -0.8109
  188MOL0     H24786   4.632   3.672   3.271 -1.4305 -0.6452 -0.8337
  188MOL0     H24787   4.643   3.832   3.237  1.2349 -0.7586 -0.1890
  188MOL0     H24788   4.419   3.701   3.227  1.1884 -1.1110  1.5911
  188MOL0     H24789   4.413   3.705   3.400 -0.3289 -0.2450 -0.4672
  188MOL0     H24790   4.414   3.975   3.391  0.4219  1.5818 -1.4492
  188MOL0     H24791   4.270   3.892   3.334  0.6933 -3.2965 -0.6512
  188MOL0     H24792   4.440   3.899   3.106 -0.9476  0.4568 -0.1034
  188MOL0     H24793   4.470   4.043   3.193 -1.2432 -0.0428 -2.1855
  188MOL0     H24794   4.215   4.072   3.194  0.9842 -0.7190  1.7067
  188MOL0     H24795   4.312   4.089   3.034  0.4440 -1.2164 -1.2021
  188MOL0     H24796   4.157   3.837   3.135 -2.7070  1.6667  1.4939
  188MOL0     H24797   4.212   3.869   2.968 -0.0452  0.2652 -0.3755
  188MOL0     H24798   4.971   3.693   3.794  2.1767  0.7435  0.4920
  188MOL0     H24799   5.220   3.635   3.814  0.5494 -1.3462 -0.6521
  188MOL0     H24800   5.712   3.765   3.871  1.4489 -0.8683  0.0198
  188MOL0     H24801   5.935   3.716   3.823  0.3052 -2.5113  2.2310
  188MOL0     H24802   4.958   3.409   3.278 -0.2670  1.7803  0.1411
  188MOL0     H24803   4.732   3.476   3.257 -1.6217  1.4527 -1.0579
  188MOL0     H24804   4.383   3.410   2.888 -0.7371  0.1901 -0.6211
  188MOL0     H24805   4.185   3.500   2.809  1.3733  0.5449 -0.0543
  188MOL0     H24806   3.839   3.673   2.846 -0.9362 -0.2882  1.1423
  188MOL0     H24807   3.914   3.521   2.794  0.6541  0.1116  0.1825
  188MOL0     H24808   4.103   3.746   2.792 -2.7623  0.2062  3.3546
  188MOL0     H24809   4.062   3.628   2.663 -0.7854 -2.7632  1.8756
  188MOL0     H24810   3.907   3.865   2.756  1.5317 -0.4232  0.1469
  188MOL0     H24811   3.868   3.749   2.620  0.7300 -1.5052 -0.9316
  188MOL0     H24812   4.090   3.969   2.648 -1.7152  1.0313  0.2832
  188MOL0     H24813   4.107   3.839   2.539  0.5254  1.0815  1.2986
  188MOL0     H24814   3.872   4.118   2.324  0.4054  0.3414  0.5592
  188MOL0     H24815   4.049   3.571   3.226  0.0760  3.2943 -0.8338
  188MOL0     H24816   4.267   3.466   3.303  0.7498  0.6752  0.5895
  189MOL0     O24817   5.711   8.976   7.128 -0.2627  0.0624  0.2562
  189MOL0     C24818   5.721   8.852   7.133 -0.0008 -0.4028 -0.8363
  189MOL0     O24819   5.616   8.767   7.164  0.7567 -0.7763 -0.2107
  189MOL0     C24820   5.487   8.819   7.164  0.3274  0.1590 -1.0812
  189MOL0     C24821   5.430   8.935   7.093 -0.5687  0.5788  0.7480
  189MOL0     C24822   5.292   8.956   7.094 -0.5722 -0.4573 -0.2662
  189MOL0     C24823   5.211   8.869   7.166  0.5268 -0.4128  0.1967
  189MOL0     O24824   5.075   8.907   7.161 -0.5201  0.4331 -0.0343
  189MOL0     C24825   4.969   8.818   7.199 -0.6700  0.4509 -0.1382
  189MOL0     C24826   4.893   8.881   7.320 -0.5199  0.2796  0.1713
  189MOL0     C24827   4.819   9.011   7.293  0.0786  0.2132  0.2375
  189MOL0     C24828   4.700   8.981   7.208 -0.3097 -0.0730  0.3584
  189MOL0     C24829   4.588   9.077   7.230 -0.2891  0.3069 -0.1386
  189MOL0     C24830   4.478   9.057   7.122 -0.8637  0.7149  0.3153
  189MOL0     C24831   4.375   9.179   7.110  0.0244 -0.6736 -0.5268
  189MOL0     C24832   4.320   9.220   7.246  0.8088 -0.8512  0.4121
  189MOL0     N24833   4.239   9.126   7.312  0.1941 -0.2446  0.1097
  189MOL0     C24834   4.130   9.067   7.246 -0.8265 -0.3655 -0.0436
  189MOL0     C24835   4.113   8.942   7.301  0.3414  0.1579 -1.0304
  189MOL0     C24836   4.029   8.825   7.258  1.0026  0.3244  0.1817
  189MOL0     C24837   3.877   8.859   7.256  0.3465 -0.2920  0.2812
  189MOL0     C24838   3.792   8.747   7.209 -0.4903 -0.2973 -0.0985
  189MOL0     C24839   3.645   8.777   7.174 -0.4485 -0.2792 -0.4592
  189MOL0     O24840   3.625   8.895   7.091 -0.4873  1.0422 -0.1993
  189MOL0     C24841   3.497   8.925   7.054 -0.7788  0.1061  0.1959
  189MOL0     C24842   3.486   9.038   6.974  1.1764  0.3166  0.2499
  189MOL0     C24843   3.359   9.087   6.926  0.3327  0.1770  0.8572
  189MOL0     C24844   3.251   9.004   6.943  0.5020  0.0652 -0.7298
  189MOL0     C24845   3.121   9.046   6.893  0.3688 -0.7766  0.7590
  189MOL0     O24846   3.013   8.962   6.928  0.2998 -0.6259  0.0673
  189MOL0     C24847   2.877   8.995   6.891 -0.1202  0.4664 -0.4395
  189MOL0     C24848   2.795   8.881   6.883 -0.0717 -0.5731 -0.3716
  189MOL0     C24849   2.664   8.898   6.851  0.3712  1.0531 -0.6208
  189MOL0     C24850   2.602   9.018   6.844 -0.1144 -1.4160 -0.0781
  189MOL0     O24851   2.464   9.018   6.830 -0.0296 -0.3045  0.7975
  189MOL0     C24852   2.412   9.121   6.746 -0.2808  0.2742  0.6808
  189MOL0     C24853   2.264   9.097   6.728  0.0120  0.0147  0.2131
  189MOL0     C24854   2.200   9.185   6.620 -0.2287  0.5396  0.7588
  189MOL0     C24855   2.048   9.162   6.596  1.3094  0.3594 -0.1216
  189MOL0     C24856   1.972   9.278   6.530  0.8913  0.0058 -0.2240
  189MOL0     C24857   1.821   9.274   6.549  0.3311  0.4801 -0.5675
  189MOL0     C24858   1.750   9.180   6.451  0.1427 -0.6508 -0.3237
  189MOL0     C24859   1.605   9.221   6.437  0.6201 -0.3689  0.7517
  189MOL0    Cl24860   1.530   9.210   6.593 -0.1476 -0.7573 -0.0376
  189MOL0     C24861   2.685   9.134   6.841  0.2942  0.0339  0.0317
  189MOL0     C24862   2.825   9.118   6.878 -0.7157 -0.6256  0.2549
  189MOL0     O24863   3.111   9.157   6.829  0.3209  0.7752  0.1506
  189MOL0     C24864   3.261   8.890   7.025 -0.2620 -1.0996 -1.1625
  189MOL0     C24865   3.383   8.844   7.073 -1.3985  0.2163 -0.0225
  189MOL0     N24866   4.202   8.942   7.406  0.2500 -0.1097  0.9012
  189MOL0     N24867   4.279   9.049   7.408 -0.0274  0.1744 -0.9169
  189MOL0     C24868   5.261   8.764   7.237  0.1806  0.0758 -0.3709
  189MOL0     C24869   5.396   8.745   7.234 -0.5629  0.4568 -0.3172
  189MOL0     C24870   5.856   8.805   7.110 -0.4308  0.6883 -1.2383
  189MOL0     C24871   5.968   8.891   7.091 -1.3656  0.1219  0.5234
  189MOL0     C24872   6.099   8.845   7.073  1.1374 -0.1129 -0.8554
  189MOL0     C24873   6.129   8.708   7.088  0.3150  0.3107 -0.2989
  189MOL0     O24874   6.251   8.649   7.054  0.0472 -0.4773 -0.8326
  189MOL0     C24875   6.366   8.727   7.087 -0.1521  0.3157  1.0486
  189MOL0     C24876   6.427   8.785   6.952  0.4108  0.2005 -0.6252
  189MOL0     C24877   6.545   8.887   6.975  1.6231 -0.5998 -0.1428
  189MOL0     C24878   6.686   8.826   6.962  0.4390 -0.0434  1.3268
  189MOL0     C24879   6.717   8.731   7.065  0.2504 -0.2539  1.0896
  189MOL0     C24880   6.747   8.678   7.165  0.5476  0.1974 -0.0819
  189MOL0     C24881   6.025   8.618   7.098  0.2956  0.1652 -0.1216
  189MOL0     C24882   5.891   8.667   7.103 -0.5068  0.0767 -0.6539
  189MOL0     H24883   5.494   8.998   7.032  0.0988 -1.4777 -0.7855
  189MOL0     H24884   5.260   9.036   7.027  0.8679  0.0241 -0.4142
  189MOL0     H24885   5.005   8.719   7.227  1.6005  1.2735  0.0631
  189MOL0     H24886   4.902   8.807   7.113  1.2258  1.9020 -1.9324
  189MOL0     H24887   4.963   8.900   7.401 -0.7282  0.5502  0.2884
  189MOL0     H24888   4.826   8.798   7.345  0.3674 -1.3670 -2.4561
  189MOL0     H24889   4.879   9.093   7.252 -2.4286  2.2845  0.4923
  189MOL0     H24890   4.784   9.046   7.390 -0.4659 -0.2172  0.1967
  189MOL0     H24891   4.733   8.994   7.104 -1.1643 -0.6464  0.0044
  189MOL0     H24892   4.671   8.876   7.220  1.0377 -0.2280  3.0020
  189MOL0     H24893   4.622   9.180   7.219  0.7319  0.2042  1.6022
  189MOL0     H24894   4.541   9.072   7.329 -2.5048  0.5157 -1.1172
  189MOL0     H24895   4.423   8.964   7.140 -1.2803  1.1114  1.1732
  189MOL0     H24896   4.536   9.054   7.030  0.3659 -2.4439  1.0873
  189MOL0     H24897   4.433   9.266   7.078  0.7102 -0.7003  0.6012
  189MOL0     H24898   4.294   9.161   7.038  0.3730  0.3171 -1.1984
  189MOL0     H24899   4.256   9.308   7.233 -0.4793 -1.2047  3.5761
  189MOL0     H24900   4.393   9.268   7.312 -0.3199  1.3749  0.1455
  189MOL0     H24901   4.067   9.109   7.168  0.9213  2.5018 -0.0623
  189MOL0     H24902   4.034   8.737   7.323  0.0427 -0.2935 -0.5631
  189MOL0     H24903   4.058   8.800   7.156  1.4604  0.1548  0.3517
  189MOL0     H24904   3.860   8.953   7.203  1.3757  1.1851  2.4489
  189MOL0     H24905   3.846   8.876   7.360  0.4119 -0.1239  0.2730
  189MOL0     H24906   3.826   8.712   7.111 -2.5176 -0.3133 -0.8491
  189MOL0     H24907   3.805   8.658   7.271  1.4818 -0.2827 -0.4476
  189MOL0     H24908   3.578   8.788   7.260 -0.3640 -1.1339 -0.2766
  189MOL0     H24909   3.606   8.690   7.120  0.7537  0.0795 -1.9562
  189MOL0     H24910   3.578   9.083   6.936  1.6707 -1.4759 -0.8364
  189MOL0     H24911   3.361   9.177   6.864 -1.6062  0.6557  1.4235
  189MOL0     H24912   2.836   8.781   6.891  0.3880 -0.3283  0.4344
  189MOL0     H24913   2.604   8.808   6.842  1.2283 -0.0046  2.6095
  189MOL0     H24914   2.466   9.108   6.652 -1.8717 -3.3782  0.1146
  189MOL0     H24915   2.427   9.222   6.785 -0.2013 -0.2990  2.2091
  189MOL0     H24916   2.203   9.123   6.815 -0.0100 -0.5798  0.3807
  189MOL0     H24917   2.250   8.990   6.709  3.6389 -1.1837  3.0634
  189MOL0     H24918   2.259   9.166   6.530 -1.8327 -1.5146  0.0528
  189MOL0     H24919   2.223   9.288   6.646 -0.4760  0.8507 -0.1990
  189MOL0     H24920   2.031   9.063   6.553 -2.7355  1.1461 -0.7292
  189MOL0     H24921   2.007   9.170   6.697 -0.4518  1.7265 -0.9036
  189MOL0     H24922   2.000   9.287   6.425  0.1861  0.3963 -0.3851
  189MOL0     H24923   2.021   9.362   6.581  1.1859 -1.2362  1.6453
  189MOL0     H24924   1.787   9.378   6.549 -3.2787 -0.4533  2.5101
  189MOL0     H24925   1.780   9.231   6.642  1.3764  2.0490  0.6769
  189MOL0     H24926   1.794   9.193   6.352  2.0313 -2.2138  0.2423
  189MOL0     H24927   1.768   9.078   6.487 -0.7590 -0.1238  1.7986
  189MOL0     H24928   1.572   9.153   6.358  1.1402  1.1162 -0.8313
  189MOL0     H24929   1.601   9.327   6.408 -0.9647 -0.3344  0.9929
  189MOL0     H24930   2.645   9.235   6.840 -1.2122 -0.5283  0.5252
  189MOL0     H24931   2.894   9.201   6.887  0.0865 -1.2062 -0.3558
  189MOL0     H24932   3.180   8.822   7.053 -3.2899  2.2394 -1.1505
  189MOL0     H24933   3.393   8.748   7.123 -1.6897  0.5146  0.6211
  189MOL0     H24934   5.198   8.692   7.288  0.0139  0.4445 -0.0556
  189MOL0     H24935   5.433   8.653   7.278  3.3201  1.7216 -0.6091
  189MOL0     H24936   5.963   8.999   7.087  0.9050  0.3181  1.3020
  189MOL0     H24937   6.184   8.911   7.063  1.7358 -0.7568 -0.1658
  189MOL0     H24938   6.451   8.669   7.125  0.6224 -0.2842 -1.4163
  189MOL0     H24939   6.344   8.813   7.151 -3.5997  0.5764 -0.3061
  189MOL0     H24940   6.477   8.701   6.902  0.4180 -0.0324 -0.2389
  189MOL0     H24941   6.347   8.823   6.889  0.8283  0.4205 -1.0264
  189MOL0     H24942   6.529   8.940   7.070  0.1539  0.6793 -1.0377
  189MOL0     H24943   6.527   8.966   6.901  0.2349  0.6954  1.4608
  189MOL0     H24944   6.686   8.776   6.865 -4.6516  2.3116 -0.1983
  189MOL0     H24945   6.762   8.905   6.956  1.6960 -1.2907 -0.0044
  189MOL0     H24946   6.780   8.654   7.264  2.3912 -0.0927 -0.7293
  189MOL0     H24947   6.050   8.513   7.101 -2.0424 -0.5425 -2.2708
  189MOL0     H24948   5.815   8.590   7.115 -0.0120 -0.3906 -0.4445
  190MOL0     O24949   7.330   7.570   5.166 -0.4530  0.0173 -0.2775
  190MOL0     C24950   7.393   7.464   5.199 -0.1411 -0.5529 -0.5504
  190MOL0     O24951   7.338   7.352   5.268  0.2296 -0.0920  0.6906
  190MOL0     C24952   7.215   7.378   5.322  0.4994 -0.8741  0.1356
  190MOL0     C24953   7.204   7.373   5.457  0.4488  0.5929  0.2715
  190MOL0     C24954   7.088   7.410   5.521  1.0021 -0.4789 -0.1683
  190MOL0     C24955   6.967   7.423   5.452  0.5644  0.1163  0.1571
  190MOL0     O24956   6.842   7.420   5.503  0.4578 -0.2903 -0.2747
  190MOL0     C24957   6.814   7.402   5.643 -0.6525 -0.3868  0.1339
  190MOL0     C24958   6.672   7.332   5.650 -0.0596  0.7694  0.5149
  190MOL0     C24959   6.580   7.379   5.767 -0.5152 -0.5297 -0.5266
  190MOL0     C24960   6.434   7.354   5.734 -0.1956 -0.1579 -0.1153
  190MOL0     C24961   6.329   7.394   5.843 -0.8189  0.4086  0.0780
  190MOL0     C24962   6.182   7.368   5.804 -0.1434 -1.5351 -0.0429
  190MOL0     C24963   6.142   7.226   5.818  0.3074 -0.0146  0.3955
  190MOL0     C24964   6.004   7.200   5.752  0.1261 -0.8049  0.1170
  190MOL0     N24965   5.893   7.261   5.829 -0.2377  0.0052 -0.3733
  190MOL0     C24966   5.810   7.194   5.914  0.4166 -0.8312 -0.1368
  190MOL0     C24967   5.719   7.284   5.950  0.6419  0.1253 -0.7613
  190MOL0     C24968   5.587   7.274   6.026 -0.0435 -0.6891  0.3124
  190MOL0     C24969   5.464   7.289   5.930  0.2984  0.5789  0.1576
  190MOL0     C24970   5.331   7.301   6.017 -0.0668  0.1598  1.1443
  190MOL0     C24971   5.208   7.289   5.928  0.0025 -0.0649 -0.5614
  190MOL0     O24972   5.101   7.266   6.020  0.2815 -0.4023  0.2043
  190MOL0     C24973   4.991   7.211   5.966  0.4241  0.3671  0.8449
  190MOL0     C24974   4.892   7.187   6.061  0.0237 -0.3669  0.0565
  190MOL0     C24975   4.760   7.151   6.026 -0.3315  0.0999  0.2912
  190MOL0     C24976   4.732   7.123   5.892  0.0018 -0.2382 -0.4341
  190MOL0     C24977   4.605   7.086   5.849  0.2672 -0.2241  0.0210
  190MOL0     O24978   4.594   7.053   5.712  0.4652 -0.1805  0.3664
  190MOL0     C24979   4.470   7.019   5.673 -0.0085  1.0063  0.1640
  190MOL0     C24980   4.460   6.904   5.594  0.1888 -0.0570  0.8185
  190MOL0     C24981   4.332   6.858   5.561  0.8768 -1.2046  0.2962
  190MOL0     C24982   4.212   6.925   5.586 -0.2947  0.0110 -0.9933
  190MOL0     O24983   4.094   6.874   5.541  0.2562  0.4757  0.3838
  190MOL0     C24984   3.968   6.922   5.598  1.0117  0.3896 -1.1002
  190MOL0     C24985   3.866   6.855   5.510 -0.6976  0.2679  0.6649
  190MOL0     C24986   3.729   6.869   5.571  1.0123 -0.2480 -1.0803
  190MOL0     C24987   3.632   6.796   5.481 -0.7169 -0.2869  0.2159
  190MOL0     C24988   3.493   6.840   5.491 -0.4525  0.2662 -0.7334
  190MOL0     C24989   3.438   6.808   5.629  0.1071 -0.8490  0.0090
  190MOL0     C24990   3.313   6.895   5.660 -0.4221  0.1990  0.0514
  190MOL0     C24991   3.201   6.875   5.562  0.7243  0.4872  0.4642
  190MOL0    Cl24992   3.109   6.720   5.589 -0.1721 -0.0246  0.0639
  190MOL0     C24993   4.226   7.040   5.667 -0.0164  0.1290  0.0323
  190MOL0     C24994   4.357   7.090   5.704 -0.2888  1.1005 -0.7723
  190MOL0     O24995   4.519   7.072   5.937 -0.4878  0.6642  0.2411
  190MOL0     C24996   4.839   7.133   5.793  0.3018  0.3857  0.0190
  190MOL0     C24997   4.962   7.179   5.831  0.5835 -0.2469  0.3562
  190MOL0     N24998   5.745   7.406   5.896 -0.6115  0.0844 -0.0040
  190MOL0     N24999   5.855   7.389   5.822 -0.6754  0.0083  0.3502
  190MOL0     C25000   6.976   7.419   5.311  0.3752  0.1341 -0.3529
  190MOL0     C25001   7.102   7.408   5.243  0.1932 -0.7317  1.1332
  190MOL0     C25002   7.536   7.454   5.161  0.8457  0.3353  0.0849
  190MOL0     C25003   7.586   7.542   5.066 -0.1489  0.5057 -0.2424
  190MOL0     C25004   7.721   7.536   5.023  0.3876 -0.2936 -0.3781
  190MOL0     C25005   7.799   7.441   5.087 -0.8829 -0.2166  0.9253
  190MOL0     O25006   7.928   7.446   5.053 -0.4649  0.0626 -0.2979
  190MOL0     C25007   8.021   7.350   5.105  0.1106  0.3295  0.3257
  190MOL0     C25008   8.143   7.332   5.019 -0.1487 -0.3250 -1.2114
  190MOL0     C25009   8.259   7.432   5.038  0.2957 -0.0461  0.1429
  190MOL0     C25010   8.216   7.571   5.055 -0.1665  0.1524 -0.5847
  190MOL0     C25011   8.331   7.664   5.057  0.9656  0.3028 -0.7155
  190MOL0     C25012   8.425   7.737   5.052 -0.4335  0.9311 -0.1691
  190MOL0     C25013   7.741   7.346   5.176  0.2523 -0.1968  0.3976
  190MOL0     C25014   7.612   7.352   5.213 -0.2081 -0.7213 -0.8925
  190MOL0     H25015   7.288   7.341   5.519  1.8156 -0.6022 -2.0325
  190MOL0     H25016   7.102   7.425   5.627 -2.2803  1.0647  0.1846
  190MOL0     H25017   6.808   7.503   5.685  2.1317 -0.5755  1.1618
  190MOL0     H25018   6.889   7.335   5.687 -0.2430 -1.9069 -2.6706
  190MOL0     H25019   6.674   7.223   5.636  0.7227  0.9742 -1.2234
  190MOL0     H25020   6.624   7.367   5.558  1.5492 -1.4883 -1.3214
  190MOL0     H25021   6.593   7.488   5.770 -1.7910 -0.3441 -0.9623
  190MOL0     H25022   6.584   7.343   5.870 -2.4032  2.4859  0.7556
  190MOL0     H25023   6.411   7.409   5.642 -0.6063  0.1835  0.1849
  190MOL0     H25024   6.417   7.247   5.717 -1.7928 -0.2759  1.7916
  190MOL0     H25025   6.334   7.502   5.854  0.9250  0.9777 -4.3312
  190MOL0     H25026   6.342   7.342   5.939  2.4829 -1.9217 -1.4249
  190MOL0     H25027   6.168   7.392   5.698 -0.0973 -2.4107 -0.2588
  190MOL0     H25028   6.116   7.435   5.860  0.6007 -1.8079  1.2046
  190MOL0     H25029   6.221   7.166   5.770  1.0176  0.4165  1.0045
  190MOL0     H25030   6.135   7.200   5.924  2.1210 -2.3807  0.0178
  190MOL0     H25031   5.992   7.092   5.741  0.3143 -0.7941 -0.2171
  190MOL0     H25032   6.010   7.245   5.652 -1.3324 -0.4191  0.1911
  190MOL0     H25033   5.808   7.092   5.950 -0.7007 -1.1603 -1.0787
  190MOL0     H25034   5.579   7.343   6.111  4.4505  0.1162  0.2934
  190MOL0     H25035   5.582   7.176   6.075 -1.3356 -0.5332  0.5307
  190MOL0     H25036   5.472   7.207   5.858 -0.1022  1.7451 -1.2417
  190MOL0     H25037   5.467   7.382   5.873 -0.8190  1.6325  1.7383
  190MOL0     H25038   5.333   7.212   6.082 -1.1166 -0.0094  0.9542
  190MOL0     H25039   5.334   7.393   6.077 -0.2265  0.3677  0.8329
  190MOL0     H25040   5.221   7.202   5.863  0.3579 -2.0191  1.9615
  190MOL0     H25041   5.202   7.375   5.860  0.1216 -0.4030 -1.0087
  190MOL0     H25042   4.921   7.206   6.163  0.1723  0.5347 -0.1425
  190MOL0     H25043   4.700   7.142   6.116  0.8861  0.5240  1.1679
  190MOL0     H25044   4.555   6.860   5.565  1.6135  1.7389  2.4654
  190MOL0     H25045   4.318   6.776   5.492 -1.5311 -0.6868  0.0994
  190MOL0     H25046   3.956   7.031   5.589  2.8640  0.6287 -0.9644
  190MOL0     H25047   3.970   6.877   5.697  1.6883  1.5921 -0.5546
  190MOL0     H25048   3.890   6.750   5.491 -2.5452 -0.4359  2.0119
  190MOL0     H25049   3.859   6.903   5.412 -0.3241  0.0667  0.5397
  190MOL0     H25050   3.699   6.974   5.578 -1.2195 -0.9184  0.8287
  190MOL0     H25051   3.731   6.839   5.676  2.8796 -1.2775 -1.3605
  190MOL0     H25052   3.671   6.802   5.379  0.9799  0.2021  0.8619
  190MOL0     H25053   3.642   6.688   5.495  3.2034 -0.0912  0.2193
  190MOL0     H25054   3.424   6.806   5.413 -0.2994  1.5335 -1.4534
  190MOL0     H25055   3.495   6.949   5.488  0.1042  0.2696 -0.3288
  190MOL0     H25056   3.508   6.835   5.709 -0.4767  2.8036 -0.5404
  190MOL0     H25057   3.408   6.704   5.641  1.9883 -1.6156 -1.4852
  190MOL0     H25058   3.281   6.855   5.757  0.8012 -1.8750 -0.3324
  190MOL0     H25059   3.327   7.003   5.672 -0.8568  0.0949  1.8156
  190MOL0     H25060   3.228   6.885   5.456 -3.5641 -1.3146 -1.0246
  190MOL0     H25061   3.133   6.958   5.582 -0.9330 -1.1574  2.0082
  190MOL0     H25062   4.140   7.098   5.699 -1.5173 -1.7509 -0.4214
  190MOL0     H25063   4.362   7.188   5.748 -0.8605  0.4457  0.8148
  190MOL0     H25064   4.817   7.101   5.692 -0.0312  0.7283 -0.0190
  190MOL0     H25065   5.032   7.222   5.761  1.4164 -2.7428 -0.4254
  190MOL0     H25066   6.894   7.442   5.243 -0.1349 -0.8341 -0.0859
  190MOL0     H25067   7.104   7.411   5.135 -1.7861 -3.3999  0.8944
  190MOL0     H25068   7.524   7.622   5.027 -0.1544 -0.0051 -1.3135
  190MOL0     H25069   7.765   7.607   4.953 -2.0216  0.9871 -0.6946
  190MOL0     H25070   7.977   7.250   5.109 -2.2832  1.3257  0.8236
  190MOL0     H25071   8.052   7.376   5.207  0.8338  1.9402 -0.2847
  190MOL0     H25072   8.174   7.227   5.030 -0.9232 -0.3365  1.6695
  190MOL0     H25073   8.103   7.332   4.917 -0.8435  1.0531 -0.9538
  190MOL0     H25074   8.331   7.420   4.956  0.2120  0.2068  0.0302
  190MOL0     H25075   8.303   7.402   5.133 -3.7477  0.4165  2.3531
  190MOL0     H25076   8.161   7.597   4.964 -1.2029  1.1980  0.3171
  190MOL0     H25077   8.146   7.590   5.137 -0.3380  1.8178 -1.0912
  190MOL0     H25078   8.514   7.796   5.044 -0.5119  0.7709 -3.1043
  190MOL0     H25079   7.803   7.273   5.227  0.4099 -0.9445 -0.8363
  190MOL0     H25080   7.571   7.282   5.284  3.1476 -1.2441  0.7508
  191MOL0     O25081   8.635   0.911   0.001 -0.2845 -0.2663 -0.5622
  191MOL0     C25082   8.701   0.855   0.088  0.2819 -0.1889 -0.3187
  191MOL0     O25083   8.648   0.764   0.176  0.2501  0.0197  0.0204
  191MOL0     C25084   8.506   0.745   0.173 -0.1287 -0.3116 -0.7415
  191MOL0     C25085   8.458   0.618   0.211  0.1527 -0.2978  0.5334
  191MOL0     C25086   8.324   0.580   0.219  0.6013 -0.3922  0.5920
  191MOL0     C25087   8.228   0.675   0.183  0.1009 -0.8160  0.0527
  191MOL0     O25088   8.092   0.638   0.183  0.4922 -0.0634  0.4618
  191MOL0     C25089   7.994   0.746   0.160  0.2610  0.4923  0.2457
  191MOL0     C25090   7.857   0.691   0.126 -0.1551  0.4347 -0.8703
  191MOL0     C25091   7.790   0.585   0.207  0.0469 -0.0779 -0.2878
  191MOL0     C25092   7.697   0.646   0.312 -0.5187  0.2374 -0.0129
  191MOL0     C25093   7.600   0.543   0.374 -0.2273 -0.3373  0.0344
  191MOL0     C25094   7.560   0.583   0.517 -0.0621  0.4240 -0.6323
  191MOL0     C25095   7.456   0.700   0.538  0.0776 -0.1044 -0.4785
  191MOL0     C25096   7.335   0.692   0.452 -0.1532  0.4456 -0.0257
  191MOL0     N25097   7.267   0.569   0.473 -0.2341  0.0576  0.2732
  191MOL0     C25098   7.199   0.498   0.363 -0.1269 -0.5722 -1.0511
  191MOL0     C25099   7.099   0.427   0.422  0.0867 -0.2075  0.1834
  191MOL0     C25100   6.993   0.348   0.357  0.3196 -0.8902 -0.0487
  191MOL0     C25101   7.039   0.264   0.234 -0.0419 -0.2970 -0.1581
  191MOL0     C25102   6.923   0.251   0.137 -0.3512 -0.0894 -0.1491
  191MOL0     C25103   6.940   0.160   0.022 -0.6131 -0.0580  0.0408
  191MOL0     O25104   6.850   0.169  -0.087  0.2967  0.1446  0.4008
  191MOL0     C25105   6.739   0.092  -0.080 -0.5914 -1.4995  0.0338
  191MOL0     C25106   6.646   0.122  -0.185  0.4347  0.3288  0.4605
  191MOL0     C25107   6.529   0.050  -0.183  0.4030  0.1126  0.5463
  191MOL0     C25108   6.493  -0.040  -0.079  0.2318  1.0895  0.1175
  191MOL0     C25109   6.360  -0.097  -0.069  0.3432 -0.4725 -0.1846
  191MOL0     O25110   6.274  -0.085  -0.173 -0.3299 -0.4757  0.4756
  191MOL0     C25111   6.160  -0.156  -0.165 -0.1161 -0.0890  0.8032
  191MOL0     C25112   6.167  -0.289  -0.205 -0.6222  0.2478 -0.4587
  191MOL0     C25113   6.053  -0.371  -0.207 -0.1148 -0.0586 -0.3683
  191MOL0     C25114   5.926  -0.317  -0.186 -0.4978 -0.7217 -0.1228
  191MOL0     O25115   5.816  -0.394  -0.216  0.5671 -0.3844 -1.1382
  191MOL0     C25116   5.698  -0.330  -0.255  0.1615  0.4226 -0.8567
  191MOL0     C25117   5.632  -0.404  -0.374 -0.3187  0.1146 -0.0857
  191MOL0     C25118   5.518  -0.314  -0.435 -0.1541 -0.6291  0.1153
  191MOL0     C25119   5.441  -0.396  -0.531 -1.0577  0.2143  0.2627
  191MOL0     C25120   5.536  -0.469  -0.638 -0.3919  0.0737  0.3282
  191MOL0     C25121   5.460  -0.523  -0.764 -0.8969 -0.0630 -0.5686
  191MOL0     C25122   5.548  -0.569  -0.891  0.0560 -0.3289 -0.7367
  191MOL0     C25123   5.597  -0.445  -0.966 -0.7099 -0.3526  0.4777
  191MOL0    Cl25124   5.695  -0.500  -1.106  0.5522 -0.0691 -0.0262
  191MOL0     C25125   5.921  -0.185  -0.133 -0.0650 -0.1558  0.7690
  191MOL0     C25126   6.037  -0.108  -0.132  0.6458 -0.5133 -0.0326
  191MOL0     O25127   6.336  -0.155   0.037  0.1618  1.0771  0.1860
  191MOL0     C25128   6.588  -0.069   0.020 -0.8737 -0.2657  0.2316
  191MOL0     C25129   6.713   0.001   0.022  0.5796 -0.1417  0.3456
  191MOL0     N25130   7.105   0.453   0.553  0.3255  0.7366  0.7344
  191MOL0     N25131   7.198   0.537   0.591 -0.9707 -0.4182  0.4246
  191MOL0     C25132   8.273   0.808   0.159  0.3464 -0.0080 -0.3671
  191MOL0     C25133   8.417   0.848   0.156  0.4584  0.0092 -0.7585
  191MOL0     C25134   8.840   0.897   0.104 -0.9108 -0.2287  0.2513
  191MOL0     C25135   8.915   0.926  -0.012 -0.0364 -0.2784 -0.3122
  191MOL0     C25136   9.048   0.960   0.005  0.5527 -0.8428 -0.1824
  191MOL0     C25137   9.115   0.963   0.129  0.3494 -0.5505 -0.0101
  191MOL0     O25138   9.249   0.983   0.129 -0.4318  1.2349 -0.6174
  191MOL0     C25139   9.321   0.994   0.252  1.3849  0.7423 -0.8648
  191MOL0     C25140   9.466   1.002   0.224 -0.5197 -0.6938 -0.1839
  191MOL0     C25141   9.552   1.006   0.355  0.0040  0.2588  0.8291
  191MOL0     C25142   9.694   1.063   0.341  0.4949  0.3145 -0.5312
  191MOL0     C25143   9.796   0.979   0.274 -0.6594 -0.5153  0.3566
  191MOL0     C25144   9.877   0.918   0.218 -0.4130 -0.2796  0.1339
  191MOL0     C25145   9.036   0.954   0.246  0.3905  0.0443  0.1237
  191MOL0     C25146   8.899   0.912   0.232 -0.0323  0.6252 -0.7181
  191MOL0     H25147   8.535   0.545   0.236  0.2919 -1.0639 -1.8054
  191MOL0     H25148   8.291   0.481   0.248 -1.0056  0.0512  0.3197
  191MOL0     H25149   8.028   0.813   0.079 -1.2034  3.5801  2.0022
  191MOL0     H25150   7.986   0.813   0.246 -0.1836 -0.3770  0.8853
  191MOL0     H25151   7.887   0.644   0.033  0.2987 -0.9214 -0.0651
  191MOL0     H25152   7.793   0.778   0.108 -0.7563  0.6739  1.9490
  191MOL0     H25153   7.872   0.527   0.252 -0.1635  0.9705  1.5614
  191MOL0     H25154   7.730   0.521   0.142  1.2275 -2.7430  1.0420
  191MOL0     H25155   7.764   0.696   0.383  0.8593 -0.5799 -0.7125
  191MOL0     H25156   7.640   0.729   0.270 -0.6927 -0.5954 -1.4819
  191MOL0     H25157   7.660   0.452   0.382  0.9371  0.0265 -3.2298
  191MOL0     H25158   7.508   0.530   0.316 -0.3862 -2.5402  0.6925
  191MOL0     H25159   7.650   0.605   0.576 -0.7384 -0.9571  0.9850
  191MOL0     H25160   7.523   0.490   0.561 -1.1089  1.7123  1.3489
  191MOL0     H25161   7.414   0.697   0.639  0.5899 -1.4488 -0.2816
  191MOL0     H25162   7.507   0.795   0.517  0.0694  0.3862  1.5067
  191MOL0     H25163   7.360   0.716   0.348  0.7012 -0.5130 -0.0637
  191MOL0     H25164   7.268   0.773   0.484 -1.6411 -1.0969  0.9441
  191MOL0     H25165   7.215   0.511   0.257 -1.9382  0.5556 -1.2338
  191MOL0     H25166   6.913   0.418   0.333  0.5957 -0.9995 -1.3886
  191MOL0     H25167   6.942   0.272   0.417  0.7593 -1.5125 -0.4485
  191MOL0     H25168   7.087   0.170   0.263  2.1496  1.2351  1.5023
  191MOL0     H25169   7.117   0.322   0.185 -2.4270  1.8343 -1.6630
  191MOL0     H25170   6.840   0.215   0.198  0.0583 -0.2093  0.3458
  191MOL0     H25171   6.891   0.347   0.096 -2.3081  0.8176  3.1670
  191MOL0     H25172   6.957   0.058   0.059  1.5998 -0.1722 -1.1201
  191MOL0     H25173   7.036   0.183  -0.026 -0.7091  0.3948  0.0650
  191MOL0     H25174   6.675   0.190  -0.265  2.0619 -2.1268 -1.1528
  191MOL0     H25175   6.461   0.071  -0.265  1.3150  2.5448  0.3373
  191MOL0     H25176   6.266  -0.326  -0.229 -0.4847  1.5431 -2.0588
  191MOL0     H25177   6.057  -0.478  -0.229  0.8435 -0.8588  3.0971
  191MOL0     H25178   5.717  -0.227  -0.286  1.4629 -0.0337 -1.6817
  191MOL0     H25179   5.631  -0.336  -0.168 -0.6962 -2.8653 -1.5763
  191MOL0     H25180   5.592  -0.496  -0.329  0.8445 -0.6358 -0.5302
  191MOL0     H25181   5.708  -0.438  -0.445  0.8782  0.5551  0.9574
  191MOL0     H25182   5.568  -0.235  -0.492 -1.2863 -1.0045 -1.4739
  191MOL0     H25183   5.457  -0.270  -0.356  1.0870 -1.6036  1.7027
  191MOL0     H25184   5.374  -0.458  -0.471  2.3255 -2.9598  1.1447
  191MOL0     H25185   5.379  -0.328  -0.591  1.0682  0.4239 -1.8634
  191MOL0     H25186   5.581  -0.555  -0.586  0.0683  0.8241  1.2120
  191MOL0     H25187   5.626  -0.410  -0.658 -0.1719  0.4441  2.1744
  191MOL0     H25188   5.394  -0.446  -0.803  1.6335  1.9578 -1.1413
  191MOL0     H25189   5.400  -0.609  -0.733 -0.7244 -0.1286 -0.4159
  191MOL0     H25190   5.634  -0.624  -0.850 -1.0429 -0.0131  2.2526
  191MOL0     H25191   5.484  -0.631  -0.955 -2.2529 -2.3132  3.1332
  191MOL0     H25192   5.664  -0.376  -0.913 -0.1132 -1.0071  0.5955
  191MOL0     H25193   5.515  -0.383  -1.003  0.8062  3.4625  2.8843
  191MOL0     H25194   5.831  -0.129  -0.112  0.9619  2.1638 -0.5892
  191MOL0     H25195   6.028  -0.002  -0.107  1.8057 -0.1716 -0.9780
  191MOL0     H25196   6.549  -0.116   0.110 -4.2012  2.8362  0.6551
  191MOL0     H25197   6.777  -0.019   0.108 -1.7864  0.3468  2.3545
  191MOL0     H25198   8.209   0.895   0.172 -0.5456 -0.8409  1.0766
  191MOL0     H25199   8.437   0.954   0.143 -0.5865  0.1076 -1.7498
  191MOL0     H25200   8.870   0.907  -0.109  0.5885 -0.9362 -0.4800
  191MOL0     H25201   9.109   0.973  -0.084 -0.8006  1.3436 -0.8584
  191MOL0     H25202   9.295   0.905   0.311 -2.2869  1.6515 -0.8292
  191MOL0     H25203   9.281   1.075   0.314 -0.2310 -1.2152  0.8215
  191MOL0     H25204   9.493   0.915   0.163  0.4649 -0.0126 -0.7315
  191MOL0     H25205   9.488   1.095   0.171  2.5858  0.5710  2.9818
  191MOL0     H25206   9.567   0.912   0.409 -0.8660 -1.3842 -1.6091
  191MOL0     H25207   9.495   1.068   0.425  1.2386  0.9454  1.2588
  191MOL0     H25208   9.678   1.156   0.287 -1.3986  1.1549  1.3764
  191MOL0     H25209   9.732   1.092   0.439  1.0642  2.1371 -1.2527
  191MOL0     H25210   9.947   0.856   0.166  3.3547  1.9159  2.1477
  191MOL0     H25211   9.076   0.954   0.347 -0.0524 -3.3983  0.4233
  191MOL0     H25212   8.839   0.888   0.320 -0.5986  3.2577 -0.3087
  192MOL0     O25213   0.478  10.759   1.307  0.5234 -0.1700 -0.9971
  192MOL0     C25214   0.408  10.860   1.322 -0.6215  0.9494 -0.3899
  192MOL0     O25215   0.451  10.981   1.373 -0.2067 -0.1378 -0.1467
  192MOL0     C25216   0.589  10.994   1.387 -0.0761  0.1917 -0.3242
  192MOL0     C25217   0.663  10.920   1.483 -0.0658  0.6551  0.0405
  192MOL0     C25218   0.799  10.948   1.495  0.2235 -0.1516 -0.1334
  192MOL0     C25219   0.870  11.050   1.426  0.0558 -0.8413  0.2133
  192MOL0     O25220   1.006  11.068   1.447  0.0155  0.1870 -0.2224
  192MOL0     C25221   1.099  11.119   1.353 -0.0275  0.4880 -0.0364
  192MOL0     C25222   1.206  11.200   1.429  0.3438 -0.1927 -0.0770
  192MOL0     C25223   1.158  11.317   1.516  0.0407 -0.5714  0.6215
  192MOL0     C25224   1.281  11.376   1.586  0.8160 -0.3022  0.9261
  192MOL0     C25225   1.253  11.508   1.663  0.4152 -0.2705  0.1563
  192MOL0     C25226   1.149  11.501   1.773 -0.3064  0.1424  0.9826
  192MOL0     C25227   1.155  11.601   1.880  0.6412 -0.2054  0.3190
  192MOL0     C25228   1.126  11.744   1.841 -0.6148  0.2323 -0.6255
  192MOL0     N25229   0.990  11.759   1.803  0.3699 -0.5042  0.1871
  192MOL0     C25230   0.881  11.757   1.890 -0.1047  0.2311  0.2317
  192MOL0     C25231   0.777  11.802   1.812 -0.2214 -0.4285 -0.6548
  192MOL0     C25232   0.629  11.802   1.835 -0.1481 -0.1222 -0.0236
  192MOL0     C25233   0.575  11.918   1.917 -0.7499  0.2963  0.1514
  192MOL0     C25234   0.422  11.926   1.915  0.5595  0.8579 -0.6992
  192MOL0     C25235   0.344  11.807   1.968 -0.0533  0.7749 -0.8242
  192MOL0     O25236   0.385  11.776   2.101 -0.4224 -0.7026 -0.0260
  192MOL0     C25237   0.295  11.790   2.194  0.9076 -0.3740 -1.1056
  192MOL0     C25238   0.229  11.915   2.212 -0.0615 -0.2747  0.3152
  192MOL0     C25239   0.141  11.937   2.308 -0.3618  0.3206  0.0050
  192MOL0     C25240   0.110  11.832   2.397  0.0625  0.2685  0.5132
  192MOL0     C25241   0.007  11.857   2.495 -0.3751 -0.9549  0.2784
  192MOL0     O25242  -0.053  11.752   2.540  0.5775 -0.0445 -0.2158
  192MOL0     C25243  -0.151  11.754   2.642  0.1089  0.7340  0.3443
  192MOL0     C25244  -0.253  11.664   2.635 -0.0993 -0.3791  0.2370
  192MOL0     C25245  -0.359  11.671   2.731 -0.2220 -0.8537 -0.3049
  192MOL0     C25246  -0.353  11.758   2.838  0.6515  0.5741 -0.1008
  192MOL0     O25247  -0.451  11.758   2.942  0.3377 -0.4282 -0.4868
  192MOL0     C25248  -0.578  11.691   2.921 -0.5242  1.0709 -0.2343
  192MOL0     C25249  -0.701  11.720   3.008 -0.7441 -0.2261  0.5094
  192MOL0     C25250  -0.728  11.871   3.001  0.3067 -0.4677 -0.3582
  192MOL0     C25251  -0.849  11.901   3.081 -0.6500 -0.8446 -0.5937
  192MOL0     C25252  -0.894  12.047   3.091 -0.6336 -0.5693  0.2538
  192MOL0     C25253  -0.976  12.079   3.220 -0.6105 -0.2446  0.3012
  192MOL0     C25254  -1.035  12.220   3.214 -0.1390 -0.8627 -0.1496
  192MOL0     C25255  -1.177  12.227   3.272 -0.4048  0.2563 -0.7290
  192MOL0    Cl25256  -1.274  12.152   3.154 -0.1214 -0.3783  0.1682
  192MOL0     C25257  -0.244  11.845   2.847  0.4335  0.2627  0.5475
  192MOL0     C25258  -0.139  11.834   2.752 -0.1049 -0.2331 -0.0261
  192MOL0     O25259  -0.011  11.970   2.530  0.0239  0.4398 -0.3907
  192MOL0     C25260   0.169  11.705   2.384 -0.6783 -0.5811  0.3839
  192MOL0     C25261   0.266  11.680   2.282 -0.2039 -0.2405 -0.4462
  192MOL0     N25262   0.821  11.830   1.679 -0.5315  0.4003  0.4202
  192MOL0     N25263   0.945  11.799   1.679 -0.3244  0.2904 -0.4584
  192MOL0     C25264   0.795  11.121   1.328  0.1397 -0.4335 -0.4847
  192MOL0     C25265   0.654  11.092   1.309  0.1425  0.3567 -0.3040
  192MOL0     C25266   0.258  10.851   1.313  0.1926 -0.5456 -0.0374
  192MOL0     C25267   0.185  10.963   1.297  0.0366 -0.0019 -0.5281
  192MOL0     C25268   0.045  10.963   1.306  0.2206 -0.9489 -0.6528
  192MOL0     C25269  -0.021  10.842   1.316 -0.9035  0.2908 -0.2359
  192MOL0     O25270  -0.158  10.831   1.302 -0.2785  0.3158 -0.6938
  192MOL0     C25271  -0.232  10.714   1.354  0.3701 -0.4983 -0.1689
  192MOL0     C25272  -0.369  10.768   1.396  0.1181  0.4039  0.4320
  192MOL0     C25273  -0.457  10.651   1.446 -1.3500 -0.5182  0.0849
  192MOL0     C25274  -0.588  10.699   1.513 -0.5400  0.1181  0.3846
  192MOL0     C25275  -0.669  10.583   1.552  0.2566 -0.6535  0.6704
  192MOL0     C25276  -0.730  10.479   1.567  0.8715 -0.1906 -0.1031
  192MOL0     C25277   0.062  10.725   1.336  0.7097  0.7161 -0.1263
  192MOL0     C25278   0.200  10.731   1.327 -0.1272 -0.3452  0.5573
  192MOL0     H25279   0.623  10.842   1.547 -1.4532  1.7416  0.5644
  192MOL0     H25280   0.866  10.886   1.554  0.5684  1.3137  1.0782
  192MOL0     H25281   1.048  11.186   1.284  3.7117  5.7855  1.6817
  192MOL0     H25282   1.133  11.024   1.312 -4.5608 -1.7941  0.8205
  192MOL0     H25283   1.256  11.247   1.343 -2.6716  1.8523 -0.8621
  192MOL0     H25284   1.270  11.131   1.484  2.1607  2.2832  1.1168
  192MOL0     H25285   1.092  11.280   1.594  2.9181  0.5635  3.8375
  192MOL0     H25286   1.125  11.394   1.445  1.5042 -1.0488 -0.6380
  192MOL0     H25287   1.323  11.306   1.659 -2.9841 -0.6659  3.0266
  192MOL0     H25288   1.360  11.404   1.516  1.0232 -1.5927  0.6021
  192MOL0     H25289   1.208  11.569   1.585 -2.0983 -1.0127  0.9539
  192MOL0     H25290   1.348  11.552   1.697  0.8047 -2.0502  1.5152
  192MOL0     H25291   1.169  11.400   1.811  0.2626 -0.3542 -0.5373
  192MOL0     H25292   1.049  11.493   1.728  0.0883 -0.1439  0.1205
  192MOL0     H25293   1.079  11.582   1.956 -0.9736  3.1459 -0.2455
  192MOL0     H25294   1.249  11.605   1.936  1.9674 -2.7023 -1.5776
  192MOL0     H25295   1.198  11.763   1.761 -0.1062 -1.3988 -0.5946
  192MOL0     H25296   1.146  11.806   1.929  0.4818  4.1873 -3.3677
  192MOL0     H25297   0.876  11.731   1.995 -1.9583 -0.4046  0.0152
  192MOL0     H25298   0.606  11.715   1.898 -1.3093  0.0267 -0.2152
  192MOL0     H25299   0.569  11.795   1.744  1.8482 -1.2917 -1.3247
  192MOL0     H25300   0.605  12.010   1.866 -2.9634  0.2380 -1.3537
  192MOL0     H25301   0.620  11.913   2.017 -1.0775  0.3217  0.3017
  192MOL0     H25302   0.384  12.010   1.974  0.4818  0.7618 -0.6115
  192MOL0     H25303   0.390  11.947   1.813 -0.2025 -0.9713 -0.8769
  192MOL0     H25304   0.354  11.723   1.899  3.2035  0.6496 -0.3795
  192MOL0     H25305   0.237  11.827   1.959 -0.9847 -3.4554 -1.3115
  192MOL0     H25306   0.253  11.995   2.143 -0.1646  0.4004  1.0533
  192MOL0     H25307   0.091  12.032   2.320 -1.9030 -0.0369 -2.7541
  192MOL0     H25308  -0.265  11.594   2.553 -3.3096  0.8852 -0.5375
  192MOL0     H25309  -0.433  11.591   2.719  0.3788 -1.0810 -2.9778
  192MOL0     H25310  -0.555  11.585   2.908  2.8181  1.6821 -0.3388
  192MOL0     H25311  -0.607  11.724   2.821  1.6004 -0.9586 -1.6179
  192MOL0     H25312  -0.668  11.693   3.108  0.1354  0.3189  0.3726
  192MOL0     H25313  -0.788  11.658   2.982  1.3224 -3.9654  1.7914
  192MOL0     H25314  -0.739  11.899   2.896 -0.4862 -2.0307 -0.7150
  192MOL0     H25315  -0.636  11.921   3.033  0.7620  0.2104 -2.5850
  192MOL0     H25316  -0.931  11.843   3.039 -0.9646 -1.3984  0.7230
  192MOL0     H25317  -0.826  11.873   3.184  2.9638 -0.5325 -1.1988
  192MOL0     H25318  -0.945  12.059   2.995  0.7578 -1.2620 -0.6113
  192MOL0     H25319  -0.814  12.121   3.095 -0.2262 -0.9440 -0.6836
  192MOL0     H25320  -0.914  12.058   3.307  0.3132 -2.3480 -0.7597
  192MOL0     H25321  -1.057  12.005   3.226 -0.2510 -0.5127  2.6403
  192MOL0     H25322  -0.977  12.279   3.286 -1.2770 -0.0553  0.1426
  192MOL0     H25323  -1.029  12.258   3.111  0.5188 -0.8216 -0.0994
  192MOL0     H25324  -1.212  12.329   3.287 -1.9898 -0.3429 -0.1216
  192MOL0     H25325  -1.177  12.171   3.366  0.2605  1.1677 -0.1766
  192MOL0     H25326  -0.246  11.915   2.930 -1.3590 -2.6002  3.1188
  192MOL0     H25327  -0.041  11.878   2.763  0.2317 -0.5716 -1.4884
  192MOL0     H25328   0.142  11.619   2.444  0.4746  0.1990  2.1101
  192MOL0     H25329   0.308  11.582   2.265  0.6660 -0.4674  2.4025
  192MOL0     H25330   0.827  11.208   1.272 -2.7980  1.8807  1.1707
  192MOL0     H25331   0.590  11.149   1.243 -2.9929 -0.3996  1.8589
  192MOL0     H25332   0.229  11.061   1.284  0.2950  0.0911  0.9596
  192MOL0     H25333  -0.016  11.052   1.293  0.5519 -0.6186  0.0036
  192MOL0     H25334  -0.184  10.662   1.438 -1.2414 -0.5717  0.7537
  192MOL0     H25335  -0.242  10.640   1.274  0.1747 -0.8688  0.2013
  192MOL0     H25336  -0.359  10.842   1.477 -2.0362 -2.0624  3.1674
  192MOL0     H25337  -0.436  10.799   1.315  0.2294 -1.8769 -0.5921
  192MOL0     H25338  -0.399  10.604   1.527 -0.7029 -1.8673 -1.1091
  192MOL0     H25339  -0.464  10.573   1.369  0.4527 -1.5313  0.8780
  192MOL0     H25340  -0.563  10.760   1.600  1.6090 -0.5172  0.2616
  192MOL0     H25341  -0.644  10.760   1.441 -1.8672 -0.4893  0.8714
  192MOL0     H25342  -0.798  10.397   1.577 -3.0022  2.5238 -1.4683
  192MOL0     H25343   0.022  10.625   1.351 -0.5902  1.2245 -0.0570
  192MOL0     H25344   0.270  10.649   1.336 -0.2741 -0.5281  0.0478
  193MOL0     O25345   3.884   4.055   6.465 -0.3294 -0.2451  0.5063
  193MOL0     C25346   3.953   3.956   6.428 -0.5538  0.2042  1.1374
  193MOL0     O25347   3.910   3.856   6.362  0.8665  0.2570  1.1502
  193MOL0     C25348   3.789   3.812   6.408 -0.5744 -0.9176  0.2972
  193MOL0     C25349   3.777   3.727   6.517 -0.6818 -0.9227 -0.5390
  193MOL0     C25350   3.653   3.677   6.561 -0.4285 -0.6074 -0.3909
  193MOL0     C25351   3.537   3.696   6.486 -0.3382  0.9096 -0.3004
  193MOL0     O25352   3.420   3.644   6.532 -0.3647  0.3224 -0.1026
  193MOL0     C25353   3.348   3.574   6.428  0.1883  0.4576 -0.2162
  193MOL0     C25354   3.202   3.631   6.422 -0.4984 -0.8768 -0.4745
  193MOL0     C25355   3.087   3.535   6.458 -0.4943  0.8251 -0.3764
  193MOL0     C25356   2.961   3.597   6.474  0.1356  0.6892  0.4596
  193MOL0     C25357   2.834   3.511   6.492 -0.2368  0.0560  0.4750
  193MOL0     C25358   2.702   3.585   6.445  0.2583  0.3665 -0.2023
  193MOL0     C25359   2.573   3.499   6.460 -0.6076  0.1699 -0.4164
  193MOL0     C25360   2.493   3.508   6.595 -1.1365  0.6839 -0.4300
  193MOL0     N25361   2.367   3.430   6.587  0.4788  0.4018 -0.7987
  193MOL0     C25362   2.368   3.289   6.570  1.2580 -0.4060  0.6920
  193MOL0     C25363   2.231   3.260   6.584  0.0859  0.2574  0.0597
  193MOL0     C25364   2.159   3.129   6.579  0.3598  0.5830 -0.0796
  193MOL0     C25365   2.060   3.117   6.461  0.7736  1.0624 -0.2375
  193MOL0     C25366   1.985   2.984   6.458 -0.1303 -0.1328 -0.4344
  193MOL0     C25367   1.917   2.958   6.318  0.2826 -0.6395 -0.5125
  193MOL0     O25368   1.812   3.047   6.291  0.2132 -0.5720 -0.9751
  193MOL0     C25369   1.690   3.017   6.340 -1.2253  0.0256  0.1654
  193MOL0     C25370   1.587   3.079   6.279  0.0762 -0.4449  0.2347
  193MOL0     C25371   1.453   3.053   6.311 -0.8427  0.2991 -0.1286
  193MOL0     C25372   1.427   2.962   6.421  0.8140  0.0228  0.1794
  193MOL0     C25373   1.290   2.950   6.467  0.1667 -0.2070 -0.5527
  193MOL0     O25374   1.199   3.028   6.409 -0.2111  0.1590  0.3619
  193MOL0     C25375   1.066   3.007   6.453 -0.5379  0.0478 -0.6076
  193MOL0     C25376   1.002   2.882   6.444 -0.1806  0.3444  0.0251
  193MOL0     C25377   0.868   2.871   6.490  0.6542  0.4748 -0.0688
  193MOL0     C25378   0.796   2.982   6.530 -0.3650  0.1625  0.0945
  193MOL0     O25379   0.660   2.971   6.558  0.1969  0.3773 -0.1064
  193MOL0     C25380   0.589   3.099   6.534 -0.5895 -0.5758  0.4526
  193MOL0     C25381   0.444   3.077   6.525  0.8037  0.8937 -0.1452
  193MOL0     C25382   0.390   3.040   6.662 -0.9003  0.1904  0.6492
  193MOL0     C25383   0.307   2.915   6.647  0.3304  0.1805  0.7956
  193MOL0     C25384   0.225   2.893   6.770  0.4167  0.4594 -0.1597
  193MOL0     C25385   0.120   3.010   6.798 -0.0057  0.1824 -0.0001
  193MOL0     C25386   0.014   2.958   6.884  0.7203 -0.1988 -0.0041
  193MOL0     C25387  -0.091   3.067   6.898  1.4179  0.0785  0.1854
  193MOL0    Cl25388  -0.197   3.010   7.028  0.1342 -0.5775 -0.0708
  193MOL0     C25389   0.869   3.103   6.544  0.2454 -0.1686  0.4903
  193MOL0     C25390   1.001   3.114   6.501 -0.2178 -0.2533 -0.3447
  193MOL0     O25391   1.272   2.874   6.564  0.5162 -0.0827  0.3795
  193MOL0     C25392   1.535   2.902   6.493 -0.1595 -0.2074  0.2347
  193MOL0     C25393   1.667   2.924   6.445  0.2202 -0.4103 -0.2620
  193MOL0     N25394   2.161   3.373   6.603  0.0145 -0.9722 -0.2165
  193MOL0     N25395   2.243   3.469   6.605 -0.2674  0.3377 -0.7162
  193MOL0     C25396   3.550   3.782   6.375 -0.2015  0.4517  0.7195
  193MOL0     C25397   3.667   3.837   6.342 -0.7188 -0.0537 -0.2940
  193MOL0     C25398   4.096   3.949   6.479  0.1884  0.8369  0.2612
  193MOL0     C25399   4.140   4.025   6.590 -0.3245  0.7254 -0.7363
  193MOL0     C25400   4.268   3.998   6.635  0.1465 -0.2002  0.1443
  193MOL0     C25401   4.352   3.898   6.582  0.4207  0.4119  0.0231
  193MOL0     O25402   4.479   3.865   6.620  0.6358 -0.7168  0.2694
  193MOL0     C25403   4.548   3.968   6.690 -0.6721 -0.5040 -0.4804
  193MOL0     C25404   4.695   3.916   6.691  1.2991 -0.3544 -0.0425
  193MOL0     C25405   4.801   4.006   6.763 -0.8097  0.5312 -0.1975
  193MOL0     C25406   4.876   4.120   6.684 -1.6678  0.4156  0.0913
  193MOL0     C25407   4.795   4.245   6.672  0.1216 -0.4107 -0.0380
  193MOL0     C25408   4.715   4.343   6.657 -0.4226  0.3624 -0.3037
  193MOL0     C25409   4.300   3.818   6.484 -0.3758 -0.6387  0.2392
  193MOL0     C25410   4.170   3.844   6.428  0.0308  0.1613 -0.4976
  193MOL0     H25411   3.871   3.707   6.568  0.1706  3.4475 -0.0686
  193MOL0     H25412   3.652   3.626   6.657 -4.7393  0.6926  0.4969
  193MOL0     H25413   3.344   3.467   6.447  0.5529 -0.0795 -2.8079
  193MOL0     H25414   3.383   3.592   6.326 -1.4380 -1.6060 -1.2061
  193MOL0     H25415   3.180   3.663   6.319 -2.3481 -0.3340  0.0535
  193MOL0     H25416   3.197   3.723   6.481  0.4224 -1.1453  0.0414
  193MOL0     H25417   3.108   3.491   6.556 -2.0994 -2.9189 -1.5650
  193MOL0     H25418   3.074   3.447   6.396 -4.3753 -0.1222  1.4564
  193MOL0     H25419   2.960   3.661   6.563 -1.1445 -1.7750  2.3614
  193MOL0     H25420   2.947   3.664   6.389  0.5725  0.9452  0.5884
  193MOL0     H25421   2.831   3.475   6.596  2.3953 -0.6344  0.3860
  193MOL0     H25422   2.834   3.425   6.424 -3.1694  0.5445 -0.2590
  193MOL0     H25423   2.717   3.616   6.341  0.3274 -0.1890 -0.3600
  193MOL0     H25424   2.698   3.684   6.491 -0.5305  1.3080 -2.1863
  193MOL0     H25425   2.518   3.536   6.373 -1.0260  1.6410  0.4459
  193MOL0     H25426   2.589   3.391   6.448 -1.0448  0.0386  0.1462
  193MOL0     H25427   2.473   3.611   6.624 -0.4300  0.2553  1.7520
  193MOL0     H25428   2.547   3.474   6.684 -3.0777  0.9787  0.9312
  193MOL0     H25429   2.448   3.226   6.533  1.4320 -1.2180  2.3378
  193MOL0     H25430   2.107   3.103   6.671  0.9786  0.5533  0.2669
  193MOL0     H25431   2.233   3.050   6.564  0.0929  0.1693  0.7527
  193MOL0     H25432   2.132   3.124   6.379 -1.1397  0.8103 -2.0184
  193MOL0     H25433   1.988   3.198   6.445 -0.5795 -0.5612 -3.1283
  193MOL0     H25434   2.045   2.895   6.477  1.4906  0.2537 -3.2254
  193MOL0     H25435   1.912   2.995   6.539  0.1301  3.7688 -0.5485
  193MOL0     H25436   1.890   2.854   6.301  0.3269 -1.3192  2.9111
  193MOL0     H25437   1.998   2.978   6.247  2.2485 -2.8502  0.9443
  193MOL0     H25438   1.611   3.141   6.194 -1.5312  1.1956  0.9105
  193MOL0     H25439   1.373   3.093   6.249  0.5776  0.8044 -1.6974
  193MOL0     H25440   1.058   2.800   6.401 -0.3707  0.9557 -1.4199
  193MOL0     H25441   0.819   2.775   6.479 -0.0152  0.8497 -0.4576
  193MOL0     H25442   0.629   3.163   6.455  0.5042 -1.4315  0.2817
  193MOL0     H25443   0.610   3.158   6.624 -0.1314 -1.7685  1.1597
  193MOL0     H25444   0.416   3.000   6.454 -4.3195  0.8270  1.4854
  193MOL0     H25445   0.397   3.169   6.489  0.2203 -0.1982 -2.2881
  193MOL0     H25446   0.320   3.120   6.689 -2.8190 -0.7915 -1.1210
  193MOL0     H25447   0.465   3.025   6.740  0.4275 -0.1688 -0.6461
  193MOL0     H25448   0.256   2.915   6.550  2.7727 -1.4510 -0.6016
  193MOL0     H25449   0.376   2.831   6.638  1.4081  1.2375 -2.3768
  193MOL0     H25450   0.292   2.869   6.853 -2.7483 -0.7902  2.2427
  193MOL0     H25451   0.177   2.797   6.746  2.2962 -0.3252 -1.0583
  193MOL0     H25452   0.085   3.041   6.699  0.0211 -1.6859 -0.6485
  193MOL0     H25453   0.170   3.095   6.845 -1.9289  1.6428 -0.4630
  193MOL0     H25454  -0.035   2.868   6.846  0.4887 -1.0634  2.1912
  193MOL0     H25455   0.051   2.942   6.986  3.2165  3.7213 -0.0702
  193MOL0     H25456  -0.145   3.078   6.804  0.9249 -1.3554  0.2868
  193MOL0     H25457  -0.048   3.162   6.933  0.7586  0.0296  1.1741
  193MOL0     H25458   0.822   3.195   6.579 -1.9766 -0.7718 -0.7208
  193MOL0     H25459   1.048   3.211   6.496 -1.2131  0.2712  0.1941
  193MOL0     H25460   1.533   2.848   6.587  0.5310  2.2573  1.7570
  193MOL0     H25461   1.739   2.855   6.487  0.7159 -0.3375 -0.9874
  193MOL0     H25462   3.456   3.804   6.325 -0.4672 -3.4907 -0.8969
  193MOL0     H25463   3.663   3.894   6.249  0.1674  2.3683  1.0668
  193MOL0     H25464   4.070   4.088   6.644 -1.0247 -0.7503  0.1622
  193MOL0     H25465   4.293   4.061   6.719  0.1088  1.6663 -1.1965
  193MOL0     H25466   4.502   3.970   6.789 -1.4621 -0.4528 -0.8425
  193MOL0     H25467   4.541   4.069   6.648 -3.0347 -0.6346 -0.5424
  193MOL0     H25468   4.693   3.821   6.745  0.4206  1.1958  2.8370
  193MOL0     H25469   4.719   3.893   6.586 -3.4980  0.9025 -1.6513
  193MOL0     H25470   4.883   3.940   6.795 -1.5135  0.1955  0.9742
  193MOL0     H25471   4.751   4.046   6.851 -0.5275 -2.1807  1.2922
  193MOL0     H25472   4.964   4.151   6.741 -0.4058 -1.1833 -0.8733
  193MOL0     H25473   4.917   4.094   6.586 -0.8448 -1.1925  0.8250
  193MOL0     H25474   4.640   4.420   6.654 -0.4282  0.6398  2.8515
  193MOL0     H25475   4.349   3.728   6.448  1.5593 -0.0681  1.3031
  193MOL0     H25476   4.123   3.770   6.364 -0.5414  0.3893 -0.3385
  194MOL0     O25477  10.655   9.047   1.580  0.0967  0.1440  0.1741
  194MOL0     C25478  10.756   9.000   1.632 -0.4810 -0.2543  0.0883
  194MOL0     O25479  10.761   8.895   1.733  0.3380  0.2186  0.5773
  194MOL0     C25480  10.641   8.844   1.772 -0.3141  0.3509  0.9066
  194MOL0     C25481  10.535   8.918   1.811  0.9968 -0.0095  0.0052
  194MOL0     C25482  10.411   8.853   1.849  0.0594 -0.5228 -0.3585
  194MOL0     C25483  10.407   8.709   1.845  0.2979  1.3662 -0.1546
  194MOL0     O25484  10.298   8.634   1.888  0.3742 -0.6639  0.6101
  194MOL0     C25485  10.159   8.683   1.914  0.6483  0.0713  0.4435
  194MOL0     C25486  10.081   8.711   1.788  0.0700 -0.9528  0.0391
  194MOL0     C25487   9.923   8.726   1.821 -0.6109 -0.1411  1.0638
  194MOL0     C25488   9.855   8.598   1.861 -0.1201  0.7481  0.4398
  194MOL0     C25489   9.702   8.599   1.843  0.1152 -0.4065 -0.4812
  194MOL0     C25490   9.648   8.520   1.726  0.3068 -0.3232  0.9181
  194MOL0     C25491   9.498   8.551   1.685  0.6460 -0.3930 -0.6183
  194MOL0     C25492   9.455   8.690   1.645  0.7293  0.2796  0.2417
  194MOL0     N25493   9.308   8.695   1.637 -0.0401 -0.5869 -0.2977
  194MOL0     C25494   9.242   8.680   1.516 -0.1075  0.3964 -0.5442
  194MOL0     C25495   9.119   8.718   1.544  0.1729 -0.6005 -0.2918
  194MOL0     C25496   9.003   8.701   1.451 -1.1899  0.0764 -0.5344
  194MOL0     C25497   8.948   8.822   1.385 -0.4556  0.4411 -0.4970
  194MOL0     C25498   8.928   8.937   1.477  0.3119 -0.4903 -0.6905
  194MOL0     C25499   8.807   8.922   1.568  0.3125 -0.5287  0.4441
  194MOL0     O25500   8.683   8.933   1.488 -0.1323  0.8592  0.2167
  194MOL0     C25501   8.557   8.924   1.540  1.3561  0.4290 -0.1375
  194MOL0     C25502   8.450   8.986   1.476 -0.0725  0.1729 -0.0224
  194MOL0     C25503   8.324   8.997   1.530 -0.2730  0.4229 -0.0620
  194MOL0     C25504   8.289   8.940   1.657  0.1377  0.6597 -0.5890
  194MOL0     C25505   8.152   8.965   1.718 -0.2792 -1.0806 -0.0362
  194MOL0     O25506   8.061   9.026   1.632  0.0499  0.0369  0.1172
  194MOL0     C25507   7.930   9.021   1.674 -0.3920  0.2421 -1.1483
  194MOL0     C25508   7.869   9.133   1.730 -0.2519 -0.1228  0.0888
  194MOL0     C25509   7.734   9.124   1.773  0.7129  1.0084  0.5438
  194MOL0     C25510   7.659   9.007   1.753 -0.3461 -0.0556  0.0578
  194MOL0     O25511   7.521   9.007   1.780  0.0057 -0.5094  0.3810
  194MOL0     C25512   7.449   8.884   1.749  0.6717  0.2520  0.2655
  194MOL0     C25513   7.309   8.880   1.802  0.3200  0.2956  0.3718
  194MOL0     C25514   7.235   8.760   1.736 -0.0852  0.6966 -0.3432
  194MOL0     C25515   7.087   8.752   1.769 -0.4897 -0.4695  0.1178
  194MOL0     C25516   7.033   8.627   1.704  0.8524  0.1811  0.1750
  194MOL0     C25517   6.885   8.605   1.735  0.6916  0.3084 -0.4868
  194MOL0     C25518   6.793   8.718   1.675 -0.4778  0.7510 -0.7820
  194MOL0     C25519   6.802   8.722   1.517 -0.8244  0.7844 -0.1126
  194MOL0    Cl25520   6.690   8.833   1.441  0.0824  0.0775  0.4708
  194MOL0     C25521   7.728   8.896   1.695 -0.7889 -0.0952 -1.1241
  194MOL0     C25522   7.861   8.904   1.658  0.0785 -0.6326 -0.2893
  194MOL0     O25523   8.122   8.920   1.832 -0.9768 -0.3186  0.4712
  194MOL0     C25524   8.397   8.877   1.724 -0.5255 -0.1700  0.2132
  194MOL0     C25525   8.532   8.861   1.663  0.0358 -0.3149  0.3835
  194MOL0     N25526   9.111   8.773   1.670 -0.4932  0.8258 -0.7678
  194MOL0     N25527   9.231   8.767   1.722  0.8681 -0.0029  0.6888
  194MOL0     C25528  10.518   8.639   1.802 -0.0896  0.7143  0.3722
  194MOL0     C25529  10.636   8.709   1.778  0.5079  0.0659 -0.4055
  194MOL0     C25530  10.886   9.073   1.590  0.7559  0.1387  0.1694
  194MOL0     C25531  10.882   9.195   1.510  0.3930 -0.4448 -0.2262
  194MOL0     C25532  10.992   9.262   1.469 -0.0455  0.1502  0.5539
  194MOL0     C25533  11.121   9.202   1.490  0.1398 -0.0352 -0.7869
  194MOL0     O25534  11.234   9.277   1.452 -0.6899 -0.6112  0.9888
  194MOL0     C25535  11.368   9.231   1.485 -0.2992 -0.1681 -0.4710
  194MOL0     C25536  11.464   9.328   1.428  0.7910  0.2251 -0.5371
  194MOL0     C25537  11.602   9.273   1.456 -0.4766 -0.1885  0.6205
  194MOL0     C25538  11.710   9.348   1.386  0.6322 -0.0506 -0.0309
  194MOL0     C25539  11.726   9.330   1.244 -1.9832  0.1905  0.4216
  194MOL0     C25540  11.753   9.303   1.128 -0.5216 -0.6211  0.0239
  194MOL0     C25541  11.134   9.086   1.574  0.9405 -0.6569  1.1981
  194MOL0     C25542  11.014   9.024   1.618 -0.1221 -0.0855 -0.2990
  194MOL0     H25543  10.549   9.025   1.809  3.4498 -0.2732  0.5025
  194MOL0     H25544  10.321   8.902   1.885  0.1649 -2.0153  2.2261
  194MOL0     H25545  10.161   8.780   1.963 -1.2804 -0.0263  0.7801
  194MOL0     H25546  10.101   8.618   1.980  0.8872 -0.1856  0.4073
  194MOL0     H25547  10.108   8.635   1.714  2.6921 -2.8002  2.6491
  194MOL0     H25548  10.120   8.799   1.737  0.1295 -0.9958  0.0096
  194MOL0     H25549   9.871   8.757   1.730 -1.5605  0.9898  1.9589
  194MOL0     H25550   9.909   8.797   1.904  3.4212 -0.3858  2.1578
  194MOL0     H25551   9.900   8.520   1.799 -1.1577  0.9095 -0.5398
  194MOL0     H25552   9.879   8.576   1.966  3.9090 -2.4231 -0.8847
  194MOL0     H25553   9.667   8.702   1.834 -0.2512 -0.2678  1.7887
  194MOL0     H25554   9.672   8.546   1.935  0.7115  2.5456  1.5703
  194MOL0     H25555   9.662   8.411   1.730  3.4010  0.0413  3.2591
  194MOL0     H25556   9.709   8.536   1.637  2.5205 -3.4120  1.7249
  194MOL0     H25557   9.478   8.492   1.595 -2.3917  0.5329 -0.6592
  194MOL0     H25558   9.432   8.518   1.765  0.3614  0.5153 -0.4630
  194MOL0     H25559   9.506   8.725   1.555  4.0368  2.0673  2.5999
  194MOL0     H25560   9.486   8.758   1.725  3.2285 -0.1206 -0.3122
  194MOL0     H25561   9.287   8.632   1.430  3.2059 -1.0833  1.7454
  194MOL0     H25562   8.921   8.661   1.511 -1.1429 -0.9042 -1.1075
  194MOL0     H25563   9.026   8.628   1.373 -2.4827 -0.1785 -0.7036
  194MOL0     H25564   8.854   8.802   1.333 -1.9967 -0.5551  2.4165
  194MOL0     H25565   9.025   8.839   1.310 -0.1810 -3.3669 -1.2687
  194MOL0     H25566   9.024   8.948   1.529  0.0147 -1.1105  0.0093
  194MOL0     H25567   8.908   9.019   1.408  2.5223  0.2822 -0.4837
  194MOL0     H25568   8.805   8.997   1.647  0.9854 -1.0709  0.9814
  194MOL0     H25569   8.805   8.824   1.617  0.3859 -1.2294 -0.8880
  194MOL0     H25570   8.476   9.022   1.377 -1.2895 -2.7313 -1.5253
  194MOL0     H25571   8.251   9.051   1.470 -3.0052 -1.4329  1.3505
  194MOL0     H25572   7.924   9.227   1.741 -1.4430  0.4707  1.2454
  194MOL0     H25573   7.681   9.218   1.791  0.2723  0.9018 -0.1655
  194MOL0     H25574   7.503   8.800   1.796 -0.1850 -1.3925 -1.5558
  194MOL0     H25575   7.443   8.858   1.643  1.7163  1.3429 -0.0834
  194MOL0     H25576   7.269   8.982   1.798  0.1507  0.5979  4.6756
  194MOL0     H25577   7.307   8.864   1.910  0.3373  0.9311  0.4671
  194MOL0     H25578   7.290   8.676   1.781  2.2154  2.2852 -0.0516
  194MOL0     H25579   7.249   8.753   1.628 -1.1118 -1.0164 -0.4092
  194MOL0     H25580   7.068   8.747   1.876 -0.8195 -0.0712  0.0784
  194MOL0     H25581   7.041   8.840   1.723  1.6416  1.6400  1.7650
  194MOL0     H25582   7.094   8.541   1.732  1.7123 -0.7334 -3.9405
  194MOL0     H25583   7.028   8.646   1.597 -1.0537  1.7835  0.4871
  194MOL0     H25584   6.872   8.596   1.843 -0.1004  1.2394 -0.4890
  194MOL0     H25585   6.847   8.513   1.690 -0.3247  0.0405  0.8576
  194MOL0     H25586   6.689   8.716   1.707 -0.1587  2.4289  0.5199
  194MOL0     H25587   6.827   8.815   1.712 -0.5380  1.0159 -1.4089
  194MOL0     H25588   6.801   8.625   1.466  2.0940  0.5844  0.0636
  194MOL0     H25589   6.902   8.760   1.495  0.1624 -1.6979 -0.1338
  194MOL0     H25590   7.683   8.799   1.675 -0.8967 -0.2415 -0.2397
  194MOL0     H25591   7.917   8.818   1.622 -0.6699 -0.0988 -2.9201
  194MOL0     H25592   8.374   8.829   1.818 -1.6064  1.5061  0.8423
  194MOL0     H25593   8.597   8.800   1.724  0.1586  0.4720  1.0498
  194MOL0     H25594  10.519   8.531   1.792 -0.0267  0.9162 -2.5086
  194MOL0     H25595  10.727   8.654   1.754  0.3034 -0.5578  0.2121
  194MOL0     H25596  10.789   9.249   1.494  0.8659  0.6632  0.5937
  194MOL0     H25597  10.986   9.359   1.420  1.7415 -0.0688 -0.1591
  194MOL0     H25598  11.386   9.134   1.438  2.8506  0.9601 -1.8861
  194MOL0     H25599  11.373   9.219   1.594  0.3180 -3.4854 -0.7603
  194MOL0     H25600  11.463   9.336   1.319 -0.5887  1.7016 -0.4610
  194MOL0     H25601  11.452   9.427   1.473 -0.6852 -0.4289  0.5670
  194MOL0     H25602  11.613   9.174   1.411  2.5762  1.3003 -2.4279
  194MOL0     H25603  11.624   9.279   1.563  0.7794  1.8217  0.3030
  194MOL0     H25604  11.703   9.456   1.400  0.1017 -0.2118  1.0440
  194MOL0     H25605  11.801   9.314   1.436  0.3407 -2.5221 -1.0099
  194MOL0     H25606  11.774   9.281   1.025 -1.0896 -1.6658  0.1186
  194MOL0     H25607  11.226   9.029   1.583  0.7342 -1.1952 -0.0112
  194MOL0     H25608  11.024   8.942   1.689 -1.0737 -0.4157 -0.5269
  195MOL0     O25609  11.092   6.919   0.341  0.7021  0.0431 -0.2062
  195MOL0     C25610  11.093   6.889   0.221 -0.3935  0.3473 -0.3375
  195MOL0     O25611  10.980   6.864   0.139 -0.1272  0.5439 -0.2978
  195MOL0     C25612  10.848   6.848   0.189 -0.1336 -0.3042  0.2593
  195MOL0     C25613  10.799   6.876   0.319  0.0431  0.3751 -0.0369
  195MOL0     C25614  10.656   6.877   0.345 -0.0718  0.0882 -0.4197
  195MOL0     C25615  10.568   6.845   0.246 -0.0600 -0.2945 -0.4183
  195MOL0     O25616  10.433   6.833   0.260 -0.2958 -0.4534  0.0783
  195MOL0     C25617  10.353   6.931   0.337 -0.2411  0.4944  0.5812
  195MOL0     C25618  10.207   6.904   0.345 -0.5975  0.1493  0.7297
  195MOL0     C25619  10.139   6.915   0.204 -0.7370 -0.4899  0.3987
  195MOL0     C25620   9.987   6.903   0.221  0.1663 -0.4692 -0.7099
  195MOL0     C25621   9.901   6.884   0.092  0.0761  0.2174  0.1318
  195MOL0     C25622   9.754   6.938   0.123  0.2227 -0.1878  0.4409
  195MOL0     C25623   9.675   6.974  -0.001 -0.0324 -0.1534  0.6942
  195MOL0     C25624   9.676   7.131  -0.028 -0.0510  0.2737 -0.4387
  195MOL0     N25625   9.805   7.194  -0.056  0.5570 -0.5563 -0.2526
  195MOL0     C25626   9.889   7.261   0.034  0.3725  0.0725  0.0623
  195MOL0     C25627  10.001   7.302  -0.028 -0.0930  0.5552 -0.0763
  195MOL0     C25628  10.120   7.384   0.011 -0.0253  0.1579 -0.3627
  195MOL0     C25629  10.250   7.301   0.023 -0.2312 -0.3736 -0.6724
  195MOL0     C25630  10.354   7.374   0.117 -0.9380  0.2711 -0.2101
  195MOL0     C25631  10.482   7.293   0.128 -0.5905 -0.3607  0.1023
  195MOL0     O25632  10.571   7.336   0.022 -0.5609 -0.0381 -0.4753
  195MOL0     C25633  10.704   7.327   0.043 -0.6457  0.2181 -0.2781
  195MOL0     C25634  10.760   7.242   0.136  0.0875 -0.9194 -0.9309
  195MOL0     C25635  10.897   7.226   0.136 -0.2430 -0.0000 -1.1750
  195MOL0     C25636  10.984   7.309   0.064  0.2998 -0.3382  0.0983
  195MOL0     C25637  11.133   7.297   0.079  0.4410  0.8148 -0.5908
  195MOL0     O25638  11.197   7.342  -0.033  0.0619  0.2948  0.3845
  195MOL0     C25639  11.333   7.326  -0.043 -0.5004 -0.1716 -0.4563
  195MOL0     C25640  11.404   7.214  -0.008 -0.5696 -0.8248 -0.7931
  195MOL0     C25641  11.545   7.202  -0.038  0.1023 -0.1082  0.5152
  195MOL0     C25642  11.605   7.311  -0.108 -0.5796  0.7237  0.5306
  195MOL0     O25643  11.745   7.310  -0.128 -0.4501 -0.9851 -0.4336
  195MOL0     C25644  11.820   7.194  -0.091  0.3654 -0.2441  0.0765
  195MOL0     C25645  11.967   7.217  -0.123 -0.1744 -0.1856 -0.4764
  195MOL0     C25646  12.031   7.338  -0.046  0.3105 -1.4128 -0.5301
  195MOL0     C25647  12.186   7.337  -0.064 -0.1157  0.4247 -0.6590
  195MOL0     C25648  12.280   7.422   0.018 -0.8290 -0.8003  0.3420
  195MOL0     C25649  12.422   7.368  -0.007 -0.4672  0.1302 -0.4984
  195MOL0     C25650  12.525   7.472   0.037 -0.5579  0.3116  0.6175
  195MOL0     C25651  12.523   7.498   0.192  0.1514 -0.8743 -0.0214
  195MOL0    Cl25652  12.430   7.633   0.233  0.5170  0.1383  0.0631
  195MOL0     C25653  11.528   7.414  -0.149 -0.2052 -0.7269 -0.9588
  195MOL0     C25654  11.396   7.431  -0.115  0.8051 -0.3347 -0.2714
  195MOL0     O25655  11.185   7.236   0.168 -0.5952 -0.4558  0.3505
  195MOL0     C25656  10.927   7.397  -0.033  0.3107 -1.1472 -0.0773
  195MOL0     C25657  10.790   7.408  -0.047 -0.6021  1.4629 -0.0073
  195MOL0     N25658   9.980   7.265  -0.163 -0.0549  0.0881 -0.3728
  195MOL0     N25659   9.865   7.202  -0.180 -0.1322  0.4452  0.1602
  195MOL0     C25660  10.618   6.805   0.122 -0.2440 -0.4932  0.0360
  195MOL0     C25661  10.755   6.815   0.092 -0.6634 -0.4043 -0.6002
  195MOL0     C25662  11.231   6.892   0.160 -0.1054 -0.4635  0.0995
  195MOL0     C25663  11.341   6.947   0.232 -0.0428  0.0428 -0.0862
  195MOL0     C25664  11.472   6.937   0.173 -0.5426 -0.0619 -0.0914
  195MOL0     C25665  11.496   6.866   0.055  0.3833  0.1325 -0.4624
  195MOL0     O25666  11.621   6.849  -0.003  0.1909 -0.6583 -0.1225
  195MOL0     C25667  11.667   6.716  -0.021 -1.4188  0.0169  0.3820
  195MOL0     C25668  11.819   6.708  -0.018  0.2280  0.5020  0.5617
  195MOL0     C25669  11.884   6.789  -0.135 -0.0695  0.5645  0.6441
  195MOL0     C25670  12.028   6.765  -0.143 -1.1385 -0.3034 -0.6282
  195MOL0     C25671  12.098   6.795  -0.018 -0.3424  0.0828 -0.3364
  195MOL0     C25672  12.139   6.802   0.104  0.5129  0.7255  1.0247
  195MOL0     C25673  11.383   6.821  -0.015 -0.6811 -0.2279  0.9138
  195MOL0     C25674  11.254   6.834   0.035  0.7165 -0.1534 -0.4007
  195MOL0     H25675  10.870   6.899   0.398  1.0577 -0.5763 -0.6400
  195MOL0     H25676  10.638   6.885   0.451  1.1738  1.1573 -0.2610
  195MOL0     H25677  10.369   7.027   0.288 -2.0749 -0.1586 -1.4704
  195MOL0     H25678  10.376   6.920   0.443 -0.7698  0.0693  0.6602
  195MOL0     H25679  10.160   6.974   0.414  0.7033  1.1742  0.6233
  195MOL0     H25680  10.200   6.807   0.395  3.2227  0.7264  2.8107
  195MOL0     H25681  10.175   6.849   0.124  0.3100  0.2895  0.2123
  195MOL0     H25682  10.150   7.015   0.161 -4.4128  1.5002  3.5750
  195MOL0     H25683   9.961   6.830   0.298  0.5429 -1.9515 -1.9518
  195MOL0     H25684   9.965   7.000   0.267 -2.4715 -0.0912 -2.5668
  195MOL0     H25685   9.912   6.778   0.066 -1.3758 -0.1603  0.9692
  195MOL0     H25686   9.951   6.943   0.015  0.3381 -0.6942 -0.4221
  195MOL0     H25687   9.749   7.018   0.198  0.9595 -1.9086  2.4234
  195MOL0     H25688   9.699   6.858   0.173 -0.4181 -2.0012 -2.9025
  195MOL0     H25689   9.720   6.918  -0.084 -0.0995  1.1168 -0.2268
  195MOL0     H25690   9.570   6.945  -0.005 -0.4808  1.4718 -1.1393
  195MOL0     H25691   9.631   7.192   0.052  0.2949 -0.0151 -0.0158
  195MOL0     H25692   9.616   7.157  -0.115 -2.0928  0.6614  0.9887
  195MOL0     H25693   9.865   7.277   0.139 -2.3929 -1.1049 -0.3044
  195MOL0     H25694  10.097   7.426   0.109  2.1000  1.6897 -0.4396
  195MOL0     H25695  10.127   7.464  -0.063  2.1358 -1.1750 -1.7126
  195MOL0     H25696  10.308   7.293  -0.069 -0.1877  0.8901 -0.7724
  195MOL0     H25697  10.229   7.200   0.059  0.8895 -0.4819 -0.2893
  195MOL0     H25698  10.391   7.471   0.084  0.3008  0.2537  1.0735
  195MOL0     H25699  10.309   7.385   0.216 -4.7632  1.5947 -1.9064
  195MOL0     H25700  10.464   7.185   0.129 -0.0853 -0.4431  1.4889
  195MOL0     H25701  10.521   7.320   0.226  0.0923 -0.1870 -0.2084
  195MOL0     H25702  10.702   7.190   0.212  3.7015 -1.6654  1.5590
  195MOL0     H25703  10.939   7.155   0.207  2.4758  2.2688 -0.3015
  195MOL0     H25704  11.362   7.127   0.041  0.2119 -1.5543 -1.3837
  195MOL0     H25705  11.584   7.102  -0.022 -1.1495 -1.4071 -3.3865
  195MOL0     H25706  11.787   7.119  -0.164  0.5398  0.1775 -0.4443
  195MOL0     H25707  11.793   7.161   0.009 -1.0950  0.6374  0.0070
  195MOL0     H25708  11.975   7.231  -0.231  1.5353 -1.4018 -0.5598
  195MOL0     H25709  12.019   7.120  -0.119 -0.5872 -0.7074 -3.9723
  195MOL0     H25710  12.002   7.330   0.059  0.3371  1.6083 -0.2213
  195MOL0     H25711  11.984   7.430  -0.080  1.4268 -0.1056  1.2845
  195MOL0     H25712  12.218   7.234  -0.047 -1.0565  0.5840  2.6703
  195MOL0     H25713  12.196   7.358  -0.171  0.7495  1.1787 -0.4481
  195MOL0     H25714  12.252   7.417   0.124  1.3418 -0.7997  0.9512
  195MOL0     H25715  12.267   7.527  -0.013  0.4593 -0.6213  0.3790
  195MOL0     H25716  12.442   7.344  -0.112 -2.8864 -4.0889 -0.2141
  195MOL0     H25717  12.438   7.277   0.051 -1.9592  0.6083  0.7135
  195MOL0     H25718  12.618   7.430  -0.003 -1.4012  0.1357 -1.2902
  195MOL0     H25719  12.513   7.559  -0.028  1.9679 -0.7943 -1.5200
  195MOL0     H25720  12.621   7.516   0.238  1.8423 -1.7194 -2.9578
  195MOL0     H25721  12.481   7.409   0.238 -1.8614 -1.2225 -2.3123
  195MOL0     H25722  11.581   7.489  -0.206  0.2127 -1.2855 -1.3268
  195MOL0     H25723  11.331   7.513  -0.145  2.4250  1.4067  0.8034
  195MOL0     H25724  10.980   7.472  -0.091  0.1410 -0.1362  1.0504
  195MOL0     H25725  10.754   7.469  -0.128 -1.3680 -2.4132 -2.8969
  195MOL0     H25726  10.550   6.768   0.047 -1.7189  2.9068 -0.5046
  195MOL0     H25727  10.790   6.799  -0.010  1.6757 -2.3635  0.4387
  195MOL0     H25728  11.326   6.994   0.328 -0.4665  0.2616 -0.2556
  195MOL0     H25729  11.558   6.967   0.233 -0.5755 -1.3929  0.6472
  195MOL0     H25730  11.647   6.685  -0.124  3.2594 -2.9068  0.0325
  195MOL0     H25731  11.618   6.640   0.040  1.1513 -0.5437  1.8849
  195MOL0     H25732  11.856   6.747   0.077  3.4559 -3.2598  1.1229
  195MOL0     H25733  11.848   6.602  -0.012 -3.0169 -0.8183 -3.0892
  195MOL0     H25734  11.855   6.895  -0.131  2.4335  1.3005  0.8672
  195MOL0     H25735  11.844   6.742  -0.225 -0.6368 -0.9569  1.6621
  195MOL0     H25736  12.041   6.661  -0.172 -0.3900  0.1256 -1.9429
  195MOL0     H25737  12.068   6.832  -0.221  1.3487 -0.5363  0.3406
  195MOL0     H25738  12.172   6.799   0.205 -1.1207 -1.1704  1.5488
  195MOL0     H25739  11.397   6.763  -0.106  0.0358 -1.2827  1.6709
  195MOL0     H25740  11.172   6.779  -0.011  1.9484 -2.1898 -0.2656
  196MOL0     O25741   4.461   0.438   6.296  0.5914 -0.3834 -0.1356
  196MOL0     C25742   4.493   0.396   6.406 -0.4789  0.0161  1.1411
  196MOL0     O25743   4.405   0.372   6.501 -0.4901  0.0891 -0.1534
  196MOL0     C25744   4.276   0.410   6.477  0.0117 -0.1932  0.6150
  196MOL0     C25745   4.248   0.548   6.467 -0.3778  0.3411  0.3869
  196MOL0     C25746   4.125   0.599   6.454 -0.1062 -0.2777 -0.0515
  196MOL0     C25747   4.014   0.509   6.439  0.3684 -0.1999 -0.0505
  196MOL0     O25748   3.883   0.544   6.424  0.4879 -0.3356 -0.0307
  196MOL0     C25749   3.853   0.679   6.460  0.5113 -1.3359  0.4481
  196MOL0     C25750   3.709   0.706   6.450 -1.2180 -1.1016 -0.0450
  196MOL0     C25751   3.612   0.600   6.493  0.3429  0.1325 -0.0854
  196MOL0     C25752   3.465   0.651   6.480  0.2494 -0.0901  0.1185
  196MOL0     C25753   3.368   0.539   6.514 -0.0341  0.5930 -0.3182
  196MOL0     C25754   3.248   0.600   6.576 -0.0301  0.5377 -0.0496
  196MOL0     C25755   3.152   0.492   6.621 -0.4100  0.7153  0.2749
  196MOL0     C25756   3.022   0.552   6.663  0.0259 -0.5456 -0.0405
  196MOL0     N25757   2.926   0.443   6.694  0.3602 -0.0153  0.2884
  196MOL0     C25758   2.801   0.439   6.641 -0.2287  0.8487  0.2216
  196MOL0     C25759   2.745   0.324   6.695 -0.0358 -0.4365 -0.5233
  196MOL0     C25760   2.614   0.274   6.663  0.8676 -0.0239 -0.0573
  196MOL0     C25761   2.618   0.180   6.542  0.6087 -0.2119 -0.3783
  196MOL0     C25762   2.480   0.118   6.517 -0.6076  0.6530 -1.1080
  196MOL0     C25763   2.374   0.219   6.485  0.2284 -0.6740 -0.3553
  196MOL0     O25764   2.267   0.151   6.418  0.2297  0.4457  1.1866
  196MOL0     C25765   2.145   0.211   6.396  0.8801  0.0933 -0.0950
  196MOL0     C25766   2.053   0.120   6.355  1.2665 -0.1790 -0.0463
  196MOL0     C25767   1.917   0.161   6.358 -0.0476  0.3045  0.6323
  196MOL0     C25768   1.877   0.291   6.394  0.2515 -0.3752  0.6629
  196MOL0     C25769   1.733   0.333   6.392 -0.5109 -0.1952  0.2731
  196MOL0     O25770   1.640   0.241   6.362 -0.6305  0.9917 -0.0228
  196MOL0     C25771   1.513   0.276   6.339  0.5451  1.0543  0.0761
  196MOL0     C25772   1.470   0.256   6.203  0.2688  0.2591  0.2297
  196MOL0     C25773   1.337   0.285   6.166 -0.3752  0.1211 -0.3881
  196MOL0     C25774   1.243   0.339   6.263  0.2828  0.5140 -0.0170
  196MOL0     O25775   1.110   0.382   6.224  0.2270  0.5835  0.5275
  196MOL0     C25776   1.034   0.476   6.304 -0.2869 -0.1104  0.6373
  196MOL0     C25777   0.953   0.409   6.409  0.4120 -0.0265  0.3659
  196MOL0     C25778   0.854   0.302   6.358  0.0202  0.2073  0.3238
  196MOL0     C25779   0.808   0.203   6.464 -0.7979 -0.4613 -0.6682
  196MOL0     C25780   0.726   0.272   6.583 -0.3308  0.5762  0.1981
  196MOL0     C25781   0.716   0.168   6.694  0.3747 -0.0652  0.6588
  196MOL0     C25782   0.606   0.221   6.791  0.4127 -0.7412 -0.2928
  196MOL0     C25783   0.586   0.110   6.892 -1.2555 -1.0309  0.0365
  196MOL0    Cl25784   0.493  -0.022   6.825 -0.1807 -0.1481  0.1873
  196MOL0     C25785   1.291   0.362   6.394  0.0165  0.4268 -0.6183
  196MOL0     C25786   1.421   0.324   6.429  0.0566  0.1000 -0.3125
  196MOL0     O25787   1.707   0.451   6.416  0.2728  1.1049 -0.2613
  196MOL0     C25788   1.975   0.381   6.425 -0.1919 -0.3028 -0.3815
  196MOL0     C25789   2.107   0.340   6.437  0.0553  0.2934 -0.2349
  196MOL0     N25790   2.838   0.267   6.780 -0.3991  0.1544 -0.2221
  196MOL0     N25791   2.945   0.341   6.780 -0.6891  0.2630  0.2035
  196MOL0     C25792   4.033   0.374   6.438 -0.0934  0.6222 -0.4768
  196MOL0     C25793   4.165   0.317   6.462 -0.3814  0.3183  1.2345
  196MOL0     C25794   4.634   0.394   6.441 -0.2023 -0.2722  0.2685
  196MOL0     C25795   4.681   0.407   6.575  0.2122 -0.0608  0.1084
  196MOL0     C25796   4.815   0.405   6.594  0.1910 -0.3191 -0.1464
  196MOL0     C25797   4.913   0.386   6.488 -0.1617 -0.4953 -0.4724
  196MOL0     O25798   5.052   0.379   6.500 -0.3073  0.4984  0.1683
  196MOL0     C25799   5.115   0.378   6.634  0.3643 -0.1888  0.1450
  196MOL0     C25800   5.263   0.370   6.599 -0.4099 -0.1363 -0.2872
  196MOL0     C25801   5.304   0.239   6.525 -0.3195 -0.4238 -0.1137
  196MOL0     C25802   5.433   0.267   6.441 -0.5068  0.7486  0.5350
  196MOL0     C25803   5.545   0.294   6.529  0.0188 -0.0708 -1.0910
  196MOL0     C25804   5.633   0.302   6.610 -0.5339  0.6012  0.4010
  196MOL0     C25805   4.870   0.361   6.358  0.2806  0.0513  0.6383
  196MOL0     C25806   4.732   0.363   6.338  1.0493  0.4183 -0.3282
  196MOL0     H25807   4.333   0.616   6.478  0.5982 -0.7263 -0.3527
  196MOL0     H25808   4.124   0.707   6.450  1.2593 -0.2366  0.3093
  196MOL0     H25809   3.902   0.745   6.388 -1.6625 -0.0127  0.1322
  196MOL0     H25810   3.875   0.708   6.563 -1.7677 -0.5351  0.7677
  196MOL0     H25811   3.684   0.739   6.349 -2.5560 -0.1403  0.5643
  196MOL0     H25812   3.687   0.797   6.507  0.4066  0.2769 -1.5251
  196MOL0     H25813   3.628   0.564   6.595  1.9686 -0.0302 -0.3700
  196MOL0     H25814   3.627   0.509   6.434  1.4639 -0.6887  1.3786
  196MOL0     H25815   3.464   0.740   6.543  0.4554  0.7399 -1.0139
  196MOL0     H25816   3.439   0.685   6.379 -0.0203  1.7322  0.7620
  196MOL0     H25817   3.411   0.462   6.579 -2.3570 -1.3078 -0.9041
  196MOL0     H25818   3.331   0.491   6.424  0.6172 -2.3273  0.8432
  196MOL0     H25819   3.203   0.655   6.493 -4.0278 -0.3234  1.3222
  196MOL0     H25820   3.273   0.661   6.664 -0.2661 -0.4015  0.6895
  196MOL0     H25821   3.119   0.430   6.538 -2.4701  2.0672  0.0157
  196MOL0     H25822   3.204   0.435   6.699  1.1828 -1.1269 -1.9823
  196MOL0     H25823   2.965   0.600   6.583 -2.1205 -2.9422 -0.0806
  196MOL0     H25824   3.034   0.632   6.737 -0.1941  0.8779 -1.4890
  196MOL0     H25825   2.755   0.514   6.578  2.0152  0.7798 -1.6276
  196MOL0     H25826   2.541   0.355   6.655  2.4092  1.3047 -1.5234
  196MOL0     H25827   2.579   0.208   6.743  0.6350  0.5366  0.3059
  196MOL0     H25828   2.684   0.095   6.561 -0.9186 -1.1904  0.8129
  196MOL0     H25829   2.651   0.228   6.450 -2.9460 -0.9507 -2.2152
  196MOL0     H25830   2.487   0.052   6.430  0.7078  0.1486 -0.6467
  196MOL0     H25831   2.451   0.050   6.597 -3.6205 -0.2845 -2.8309
  196MOL0     H25832   2.412   0.298   6.420 -0.9341 -1.2954 -1.8443
  196MOL0     H25833   2.331   0.263   6.576  1.3843 -0.4557  0.1019
  196MOL0     H25834   2.087   0.019   6.340  0.0777 -0.4390 -1.1272
  196MOL0     H25835   1.845   0.086   6.329  0.0091 -0.4403  2.3277
  196MOL0     H25836   1.542   0.223   6.129  1.6044 -0.7694  1.9108
  196MOL0     H25837   1.292   0.271   6.068  1.0839 -1.9483 -0.8281
  196MOL0     H25838   0.959   0.521   6.239 -0.1356  1.9147  1.7852
  196MOL0     H25839   1.094   0.552   6.355  1.8619 -0.7262 -0.8093
  196MOL0     H25840   0.894   0.494   6.445 -0.4990  0.4137 -2.0289
  196MOL0     H25841   1.019   0.366   6.485  0.2277 -0.0347  0.5250
  196MOL0     H25842   0.895   0.249   6.273 -1.4619 -0.0201 -0.2887
  196MOL0     H25843   0.774   0.358   6.309 -0.5155 -0.4512  0.4377
  196MOL0     H25844   0.733   0.137   6.418 -0.8524  0.7484 -2.4077
  196MOL0     H25845   0.892   0.149   6.508 -0.1256  1.1833  0.1273
  196MOL0     H25846   0.635   0.307   6.535  0.7669  2.1599 -0.8473
  196MOL0     H25847   0.772   0.361   6.627  0.6385 -1.1176  2.8173
  196MOL0     H25848   0.811   0.141   6.740  0.3931 -0.6237  0.3034
  196MOL0     H25849   0.684   0.075   6.645 -1.1292  0.3421  0.7996
  196MOL0     H25850   0.634   0.315   6.838 -1.3986  0.9803 -2.4203
  196MOL0     H25851   0.516   0.236   6.730  0.9355 -0.3537 -0.9886
  196MOL0     H25852   0.532   0.152   6.978 -0.5410 -1.0274  0.4990
  196MOL0     H25853   0.682   0.074   6.930 -1.1712 -0.2522  0.5836
  196MOL0     H25854   1.237   0.411   6.474  1.7077  1.3833 -0.0114
  196MOL0     H25855   1.446   0.347   6.532 -0.1880 -1.6401  0.1730
  196MOL0     H25856   1.939   0.476   6.461  1.0777  0.2927 -0.6232
  196MOL0     H25857   2.191   0.399   6.474 -0.3329  0.5575  0.2354
  196MOL0     H25858   3.950   0.305   6.433  0.0810  0.2926  0.8992
  196MOL0     H25859   4.189   0.211   6.466 -0.8267  0.0348 -1.4241
  196MOL0     H25860   4.613   0.418   6.659 -1.1660 -0.5088 -0.9246
  196MOL0     H25861   4.852   0.412   6.695  1.8206 -0.7269 -0.6784
  196MOL0     H25862   5.076   0.293   6.689 -0.6522  0.5946  0.6625
  196MOL0     H25863   5.095   0.470   6.690  0.1516  0.1949 -0.5419
  196MOL0     H25864   5.283   0.448   6.525  1.3789  1.3198  1.5947
  196MOL0     H25865   5.328   0.391   6.685  2.2652 -1.0567 -1.9646
  196MOL0     H25866   5.221   0.209   6.460  0.8749 -0.1625 -1.8079
  196MOL0     H25867   5.328   0.162   6.599 -1.0941  0.7069  1.3562
  196MOL0     H25868   5.457   0.169   6.398  0.3125  0.0133  2.5380
  196MOL0     H25869   5.423   0.338   6.359  0.9673 -0.7341 -1.0072
  196MOL0     H25870   5.695   0.322   6.695  0.0454  1.1537 -0.1453
  196MOL0     H25871   4.948   0.351   6.283  0.7075 -0.7527  1.1643
  196MOL0     H25872   4.700   0.342   6.236 -1.5406 -2.4593  0.8973
  197MOL0     O25873   3.341  10.516   6.073 -0.4953 -0.7163 -0.2993
  197MOL0     C25874   3.383  10.545   5.963  0.2502 -0.4724 -0.2398
  197MOL0     O25875   3.309  10.582   5.853  0.2279 -0.5914  0.0282
  197MOL0     C25876   3.176  10.625   5.868 -0.8953  0.1175  0.0004
  197MOL0     C25877   3.136  10.698   5.979  0.0295 -0.3731  0.5129
  197MOL0     C25878   3.005  10.750   5.990  0.3175 -0.5336  0.5964
  197MOL0     C25879   2.914  10.733   5.882  0.5921 -0.9299  0.0871
  197MOL0     O25880   2.789  10.803   5.888 -0.5571 -0.2973  0.2003
  197MOL0     C25881   2.706  10.758   5.983  0.0310  0.4996 -0.6969
  197MOL0     C25882   2.558  10.773   5.945 -0.0675 -0.1061 -0.0805
  197MOL0     C25883   2.529  10.685   5.815  0.7352  0.0462 -0.3913
  197MOL0     C25884   2.573  10.741   5.686 -0.1709 -0.2723 -0.6370
  197MOL0     C25885   2.521  10.665   5.564  0.1404  0.7869 -0.3439
  197MOL0     C25886   2.380  10.690   5.528  0.4570 -0.4162 -0.0596
  197MOL0     C25887   2.330  10.612   5.407  0.1343  0.2042 -0.0558
  197MOL0     C25888   2.344  10.464   5.420 -1.4389  0.1266  0.7573
  197MOL0     N25889   2.253  10.387   5.505  0.8476  0.4482  0.1838
  197MOL0     C25890   2.117  10.389   5.483  0.5617  0.0129 -0.2243
  197MOL0     C25891   2.069  10.302   5.574  0.0003  0.3841  0.0947
  197MOL0     C25892   1.932  10.265   5.591 -0.0012  0.6794 -0.5063
  197MOL0     C25893   1.905  10.127   5.521  0.3227 -0.9873 -0.0497
  197MOL0     C25894   1.868  10.147   5.373 -0.1212  0.8288  0.1867
  197MOL0     C25895   1.819  10.017   5.299 -0.6663  0.3733  0.4288
  197MOL0     O25896   1.679  10.009   5.333  0.5434 -0.1247  0.3330
  197MOL0     C25897   1.614   9.898   5.296  0.4076  0.4226  0.4687
  197MOL0     C25898   1.670   9.770   5.283 -0.6984 -0.1319  0.1058
  197MOL0     C25899   1.583   9.660   5.262 -0.3698  0.2706  0.1770
  197MOL0     C25900   1.445   9.674   5.251  0.0805  0.2465 -0.3659
  197MOL0     C25901   1.356   9.555   5.233 -0.7381 -0.7859  0.3273
  197MOL0     O25902   1.235   9.574   5.186 -0.0314  0.5296 -0.2033
  197MOL0     C25903   1.153   9.467   5.162  0.0136  0.1725 -0.0456
  197MOL0     C25904   1.176   9.399   5.043 -0.0764 -0.2583 -0.3334
  197MOL0     C25905   1.101   9.294   5.008 -0.6001  0.8020 -1.2015
  197MOL0     C25906   0.992   9.263   5.088 -0.0836 -0.3036 -0.8167
  197MOL0     O25907   0.904   9.161   5.049 -0.2566 -0.1385  0.3346
  197MOL0     C25908   0.846   9.172   4.920  0.1181  0.5968 -0.2774
  197MOL0     C25909   0.740   9.058   4.913 -0.1724  0.3837 -1.5205
  197MOL0     C25910   0.811   8.914   4.893  0.1119  0.5967 -0.6438
  197MOL0     C25911   0.711   8.808   4.854  0.0801  0.1205  0.4354
  197MOL0     C25912   0.761   8.667   4.840 -0.5455 -0.6676 -0.3352
  197MOL0     C25913   0.670   8.562   4.797 -0.1357  0.2574  0.3793
  197MOL0     C25914   0.540   8.565   4.869 -0.0130  0.1722 -0.1474
  197MOL0     C25915   0.474   8.437   4.862  0.7086 -0.1526 -0.5499
  197MOL0    Cl25916   0.574   8.323   4.949 -0.1079 -0.0064  0.4102
  197MOL0     C25917   0.973   9.327   5.207  0.5711 -0.2787 -0.3851
  197MOL0     C25918   1.047   9.438   5.243  0.1404 -0.8063  0.3134
  197MOL0     O25919   1.416   9.449   5.243  0.6072  0.1000 -0.6684
  197MOL0     C25920   1.387   9.807   5.270 -0.3140 -0.0800  0.5210
  197MOL0     C25921   1.472   9.909   5.298  0.0355  0.4280  0.2306
  197MOL0     N25922   2.178  10.248   5.640  0.6674  0.3047 -0.3351
  197MOL0     N25923   2.287  10.302   5.609  0.2295 -0.2217 -0.4081
  197MOL0     C25924   2.960  10.661   5.773 -0.1049 -0.2080 -0.0364
  197MOL0     C25925   3.091  10.616   5.759 -0.3066  0.6586  0.1863
  197MOL0     C25926   3.530  10.562   5.963 -0.3067  0.3181 -0.5300
  197MOL0     C25927   3.594  10.585   5.847  0.0557  0.2575 -0.3069
  197MOL0     C25928   3.734  10.595   5.840  0.4207  0.2247 -0.2187
  197MOL0     C25929   3.807  10.585   5.959  0.3664 -0.3077 -0.0126
  197MOL0     O25930   3.943  10.593   5.944 -0.4700  0.3767 -0.0808
  197MOL0     C25931   4.043  10.557   6.038 -0.2039 -0.1868  0.1732
  197MOL0     C25932   4.086  10.411   6.029 -0.2049  0.1440  0.0808
  197MOL0     C25933   4.208  10.380   6.114 -0.1996 -0.2743 -0.5299
  197MOL0     C25934   4.181  10.366   6.272  0.2007 -0.3513  0.3282
  197MOL0     C25935   4.307  10.363   6.340 -0.9926  0.1357 -0.3792
  197MOL0     C25936   4.410  10.351   6.399 -0.0224  0.7965  1.0403
  197MOL0     C25937   3.739  10.566   6.081 -0.1749 -1.1635 -0.4341
  197MOL0     C25938   3.603  10.556   6.083  0.5257  0.8103 -0.6264
  197MOL0     H25939   3.199  10.722   6.063 -1.0424  2.6365  0.5748
  197MOL0     H25940   2.982  10.814   6.075 -0.6221 -0.1128  0.0421
  197MOL0     H25941   2.721  10.811   6.077  0.1542  0.5078 -0.7219
  197MOL0     H25942   2.732  10.653   6.003  0.6983 -0.3170 -4.9047
  197MOL0     H25943   2.527  10.873   5.911 -1.4069 -1.0378 -1.7170
  197MOL0     H25944   2.493  10.747   6.030  0.0509  0.2396  0.1179
  197MOL0     H25945   2.424  10.655   5.805  0.4587  0.7546  0.2154
  197MOL0     H25946   2.581  10.591   5.833  2.9108  1.6788  2.9084
  197MOL0     H25947   2.536  10.845   5.684 -0.0442 -0.2011  0.3878
  197MOL0     H25948   2.682  10.742   5.684 -0.1193 -0.1621  0.9775
  197MOL0     H25949   2.540  10.562   5.596  0.4221  1.1700  0.7660
  197MOL0     H25950   2.581  10.682   5.475  0.2995  0.0847 -0.3800
  197MOL0     H25951   2.366  10.795   5.501 -0.7864 -0.6493 -0.3851
  197MOL0     H25952   2.303  10.685   5.605 -0.1299  2.6312 -0.3275
  197MOL0     H25953   2.230  10.644   5.378  0.7855  1.0301 -1.5000
  197MOL0     H25954   2.401  10.645   5.330  1.6099  3.0235  2.3201
  197MOL0     H25955   2.446  10.443   5.454 -1.1664 -0.5567 -0.4280
  197MOL0     H25956   2.336  10.423   5.319 -4.3999  1.1981  0.4705
  197MOL0     H25957   2.065  10.434   5.398  0.1356  0.4627  0.2654
  197MOL0     H25958   1.857  10.332   5.550  2.1487  1.8447 -2.8684
  197MOL0     H25959   1.919  10.248   5.698  2.4842 -2.1160 -0.5123
  197MOL0     H25960   1.831  10.074   5.582 -1.1971  2.8420  1.7310
  197MOL0     H25961   1.991  10.059   5.524  0.9748 -0.1568  1.3283
  197MOL0     H25962   1.787  10.220   5.366 -2.9690 -2.2384 -1.6558
  197MOL0     H25963   1.965  10.181   5.334  1.6639 -2.5977  1.2163
  197MOL0     H25964   1.878   9.940   5.349 -1.0697  0.0262  0.3707
  197MOL0     H25965   1.824  10.024   5.190  0.4737  1.2465  0.5075
  197MOL0     H25966   1.774   9.752   5.306 -0.7386  1.2530  1.4867
  197MOL0     H25967   1.629   9.561   5.263 -1.5043 -0.2805 -0.2816
  197MOL0     H25968   1.258   9.434   4.981  0.1321 -0.3325 -0.0974
  197MOL0     H25969   1.139   9.249   4.917  1.3847  0.9006 -0.4613
  197MOL0     H25970   0.917   9.166   4.837  1.7844  1.8489  0.9967
  197MOL0     H25971   0.807   9.273   4.906  2.2608  1.6467  0.9073
  197MOL0     H25972   0.671   9.079   4.831 -1.5756  0.2856 -0.4081
  197MOL0     H25973   0.685   9.048   5.006  0.3318 -1.3903 -1.3776
  197MOL0     H25974   0.863   8.882   4.984  0.6696  0.4508 -1.0039
  197MOL0     H25975   0.891   8.922   4.818  0.9520  2.1372  0.3469
  197MOL0     H25976   0.641   8.811   4.938 -0.0732  3.3610  0.3073
  197MOL0     H25977   0.650   8.838   4.768 -0.8052 -3.2266 -0.2648
  197MOL0     H25978   0.810   8.643   4.934  0.6995  0.7243 -0.5776
  197MOL0     H25979   0.838   8.681   4.762 -0.9667 -0.5132 -0.7281
  197MOL0     H25980   0.717   8.463   4.795  0.2633  0.4258 -2.6614
  197MOL0     H25981   0.649   8.572   4.690  2.8660  0.2895 -0.2901
  197MOL0     H25982   0.550   8.598   4.973 -2.1516  2.2205 -0.5078
  197MOL0     H25983   0.475   8.641   4.824  1.8036  2.1925  0.4479
  197MOL0     H25984   0.459   8.394   4.762  0.9722 -1.6025  0.0229
  197MOL0     H25985   0.369   8.450   4.891  1.6524  3.6785  1.8646
  197MOL0     H25986   0.886   9.306   5.269  1.1199  3.2384  1.8575
  197MOL0     H25987   1.040   9.482   5.342  1.6773 -1.4465  0.7398
  197MOL0     H25988   1.280   9.823   5.260 -0.4861 -1.3226  0.1270
  197MOL0     H25989   1.424  10.005   5.317 -0.9373 -0.5396  3.1267
  197MOL0     H25990   2.898  10.649   5.685  1.9345  1.0569 -1.7111
  197MOL0     H25991   3.135  10.578   5.667 -0.0869  0.5798  0.3218
  197MOL0     H25992   3.538  10.601   5.755 -0.4749  3.4291  0.4296
  197MOL0     H25993   3.788  10.606   5.746 -2.3613 -3.4065 -2.5309
  197MOL0     H25994   3.998  10.576   6.136 -1.4381  0.1325 -0.4369
  197MOL0     H25995   4.127  10.625   6.021  0.0367  0.1631  2.4727
  197MOL0     H25996   3.999  10.351   6.057  0.7535 -1.0140  0.6305
  197MOL0     H25997   4.115  10.385   5.927  3.1352 -1.6020  1.3282
  197MOL0     H25998   4.283  10.456   6.092 -2.6205  1.5610 -2.9561
  197MOL0     H25999   4.251  10.280   6.103 -2.0494 -1.0210 -1.3381
  197MOL0     H26000   4.122  10.447   6.314  2.1046  2.0018 -1.2765
  197MOL0     H26001   4.118  10.281   6.300 -0.1102  0.6587  2.9712
  197MOL0     H26002   4.505  10.357   6.447  2.3331  1.1477 -3.1699
  197MOL0     H26003   3.790  10.576   6.176 -0.5082 -0.8998 -0.2777
  197MOL0     H26004   3.547  10.566   6.176 -2.5154  2.2444 -2.4913
  198MOL0     O26005   4.622   7.211  10.954 -0.7279 -0.4010 -0.5408
  198MOL0     C26006   4.700   7.215  11.055  0.5460 -0.1376  1.3483
  198MOL0     O26007   4.656   7.238  11.178  0.3536  0.6258 -0.1037
  198MOL0     C26008   4.523   7.259  11.191  1.2195  0.2970  0.0086
  198MOL0     C26009   4.479   7.392  11.167  0.6835 -0.4240 -1.0823
  198MOL0     C26010   4.337   7.414  11.156  0.1597 -0.6707 -0.7506
  198MOL0     C26011   4.250   7.313  11.198 -0.6469 -0.2220  0.7040
  198MOL0     O26012   4.114   7.322  11.202  0.6782 -0.1187  1.0501
  198MOL0     C26013   4.053   7.451  11.178  0.7648  0.4167  0.1478
  198MOL0     C26014   3.905   7.436  11.216  0.0751 -0.3053  0.2374
  198MOL0     C26015   3.824   7.348  11.119 -0.3162 -0.1416  0.0954
  198MOL0     C26016   3.683   7.307  11.165  0.1265  0.0610  0.1283
  198MOL0     C26017   3.605   7.220  11.073 -0.1468  0.7721  0.2272
  198MOL0     C26018   3.664   7.081  11.055  0.6954  0.8050  0.7796
  198MOL0     C26019   3.561   6.978  11.000  0.1188 -0.3871  0.0986
  198MOL0     C26020   3.561   7.006  10.853 -1.0056 -0.4300  0.3757
  198MOL0     N26021   3.462   6.922  10.784 -0.4438  0.6489 -0.1258
  198MOL0     C26022   3.328   6.901  10.825  0.1439  0.1697 -0.7475
  198MOL0     C26023   3.287   6.795  10.754 -0.4393  0.4492  0.1754
  198MOL0     C26024   3.152   6.737  10.761 -0.2470  0.3338  0.2634
  198MOL0     C26025   3.149   6.593  10.703  0.6024 -0.1163 -0.0953
  198MOL0     C26026   3.008   6.540  10.699 -0.2112 -0.1465  0.6048
  198MOL0     C26027   3.004   6.416  10.612 -0.7721 -1.0222  0.3350
  198MOL0     O26028   2.872   6.357  10.625 -0.2885  0.7479  0.0462
  198MOL0     C26029   2.831   6.251  10.544 -0.1006  1.0767 -1.2571
  198MOL0     C26030   2.911   6.195  10.444 -0.7366  0.6477 -0.0203
  198MOL0     C26031   2.861   6.088  10.373  0.2059  0.7891  0.2978
  198MOL0     C26032   2.737   6.027  10.390  0.1467 -0.2350 -1.1455
  198MOL0     C26033   2.696   5.916  10.306  0.3288 -0.2037 -0.6884
  198MOL0     O26034   2.584   5.848  10.345 -0.2491  0.6834 -1.0569
  198MOL0     C26035   2.521   5.755  10.264  0.3444 -0.2257 -0.3892
  198MOL0     C26036   2.447   5.646  10.310  0.4176  0.5281 -0.4845
  198MOL0     C26037   2.380   5.561  10.224 -0.5835  0.3324 -0.0557
  198MOL0     C26038   2.384   5.571  10.088 -1.0078  0.0467 -0.5174
  198MOL0     O26039   2.313   5.476  10.012  0.0355 -0.3370 -0.2778
  198MOL0     C26040   2.208   5.394  10.080 -0.1667 -0.9912  1.3473
  198MOL0     C26041   2.128   5.321   9.976 -0.9035  0.0516 -0.1136
  198MOL0     C26042   2.013   5.246  10.040 -0.4752  0.4880 -0.2394
  198MOL0     C26043   1.941   5.171   9.927 -0.1959  0.4647  0.1022
  198MOL0     C26044   1.806   5.120   9.976  0.5235  0.1016 -0.5063
  198MOL0     C26045   1.744   5.033   9.870 -0.0434  0.5105  0.5259
  198MOL0     C26046   1.601   4.980   9.910  0.1481  0.0356 -0.1899
  198MOL0     C26047   1.591   4.906  10.044 -0.4009  0.0036  0.4462
  198MOL0    Cl26048   1.699   4.757  10.013  0.5154  0.3595  0.0140
  198MOL0     C26049   2.451   5.679  10.037  0.4037 -0.1668 -1.1187
  198MOL0     C26050   2.519   5.768  10.122 -1.0298 -0.1518 -0.4041
  198MOL0     O26051   2.767   5.894  10.209 -1.0041  0.2564  0.1813
  198MOL0     C26052   2.659   6.086  10.492  0.1670 -1.0626 -0.4266
  198MOL0     C26053   2.703   6.200  10.567  0.4253 -0.4679  0.7767
  198MOL0     N26054   3.391   6.754  10.675 -0.1060 -0.1042 -0.4410
  198MOL0     N26055   3.491   6.832  10.691 -0.2759 -0.3712  0.5105
  198MOL0     C26056   4.300   7.192  11.237  0.1690  0.9410  0.2845
  198MOL0     C26057   4.431   7.158  11.227  0.2939  0.3226  1.1058
  198MOL0     C26058   4.846   7.189  11.023  0.6256 -0.6877  0.0881
  198MOL0     C26059   4.949   7.213  11.112  0.0544  0.6459 -0.0940
  198MOL0     C26060   5.082   7.186  11.078  0.1560  0.8696  0.3458
  198MOL0     C26061   5.117   7.135  10.955 -0.3713 -0.3064  0.8891
  198MOL0     O26062   5.249   7.102  10.928 -0.0522 -0.1494  0.3557
  198MOL0     C26063   5.285   7.055  10.790  0.1114 -0.3431  0.0581
  198MOL0     C26064   5.433   7.080  10.771  0.9422 -0.4621  0.3422
  198MOL0     C26065   5.529   6.989  10.848 -0.3611 -0.1407  0.4073
  198MOL0     C26066   5.670   7.039  10.807  0.4833  0.5542  0.2228
  198MOL0     C26067   5.771   6.960  10.878  0.0753  0.2682 -0.2378
  198MOL0     C26068   5.857   6.887  10.924 -0.6950 -0.0880  0.0108
  198MOL0     C26069   5.019   7.123  10.863 -0.6320  0.8382 -0.1589
  198MOL0     C26070   4.882   7.143  10.894 -0.5031 -0.6984 -0.7022
  198MOL0     H26071   4.550   7.470  11.142 -0.3557  0.3579 -1.6538
  198MOL0     H26072   4.309   7.511  11.117  0.0812  0.1527  1.2233
  198MOL0     H26073   4.061   7.483  11.073 -1.5450  1.2737  0.1727
  198MOL0     H26074   4.101   7.523  11.244 -0.0499  0.9532  0.1664
  198MOL0     H26075   3.870   7.540  11.215  1.6957  0.2777 -0.8149
  198MOL0     H26076   3.890   7.404  11.319 -2.6071  1.6608  0.5807
  198MOL0     H26077   3.878   7.253  11.106  0.3327  0.2109  0.1568
  198MOL0     H26078   3.822   7.385  11.016 -1.5147  0.5035  0.3358
  198MOL0     H26079   3.684   7.266  11.267 -1.7216  1.5913  0.8247
  198MOL0     H26080   3.629   7.402  11.173  2.3823  1.4252  0.1046
  198MOL0     H26081   3.575   7.262  10.977 -1.3351 -2.7827 -1.1237
  198MOL0     H26082   3.511   7.223  11.130 -0.2029  0.4976  0.1481
  198MOL0     H26083   3.700   7.050  11.153 -1.2231  1.5166  1.7709
  198MOL0     H26084   3.753   7.081  10.993  1.9171 -2.2319  2.3372
  198MOL0     H26085   3.609   6.883  11.026  0.8498  0.1417  0.6941
  198MOL0     H26086   3.464   6.983  11.049 -1.2617 -2.0832 -2.1965
  198MOL0     H26087   3.658   6.985  10.805 -2.1593 -2.9525 -1.0845
  198MOL0     H26088   3.531   7.108  10.829 -2.2948 -0.3507  2.2036
  198MOL0     H26089   3.274   6.962  10.896 -0.0735 -1.0633  0.1747
  198MOL0     H26090   3.086   6.795  10.695 -0.3215  0.8093  0.7561
  198MOL0     H26091   3.116   6.753  10.863 -0.5770  0.5185  0.1186
  198MOL0     H26092   3.203   6.520  10.763 -1.4630 -1.7686 -0.1577
  198MOL0     H26093   3.199   6.589  10.605  2.7278  0.3942  0.9029
  198MOL0     H26094   2.979   6.493  10.793  2.2883 -2.0470  0.5260
  198MOL0     H26095   2.938   6.619  10.671  1.4236  0.2794 -2.7575
  198MOL0     H26096   3.082   6.343  10.636 -0.2640 -0.8800 -0.8105
  198MOL0     H26097   3.010   6.451  10.508  1.7864 -1.3543  0.3021
  198MOL0     H26098   3.015   6.220  10.424 -0.5628 -0.2769 -0.3104
  198MOL0     H26099   2.927   6.047  10.298  1.1334  0.6989  1.1512
  198MOL0     H26100   2.435   5.616  10.414  1.0799 -0.7654 -0.7560
  198MOL0     H26101   2.337   5.474  10.273  3.3746 -0.8752  1.6903
  198MOL0     H26102   2.146   5.463  10.138 -0.6356 -1.3690  1.3010
  198MOL0     H26103   2.238   5.319  10.154 -2.2341 -3.2775  0.0272
  198MOL0     H26104   2.204   5.264   9.922  0.1526  1.2507  0.0760
  198MOL0     H26105   2.101   5.395   9.900  0.7270  1.2568  0.4435
  198MOL0     H26106   1.949   5.322  10.086  0.9592  2.4642 -1.3514
  198MOL0     H26107   2.043   5.174  10.117 -1.1257  0.9150  0.4279
  198MOL0     H26108   1.944   5.243   9.845 -0.2529  1.5664  1.0470
  198MOL0     H26109   2.008   5.091   9.895 -0.7018  0.3568 -0.7103
  198MOL0     H26110   1.750   5.212   9.995  2.7223  1.1873  1.1275
  198MOL0     H26111   1.817   5.061  10.067 -3.9275 -1.6099 -0.8214
  198MOL0     H26112   1.812   4.947   9.862 -0.5311 -0.1299  2.7311
  198MOL0     H26113   1.735   5.080   9.772  0.3884 -0.7695 -0.1579
  198MOL0     H26114   1.536   5.067   9.921  2.8136  1.8726  2.6783
  198MOL0     H26115   1.566   4.911   9.832  3.0243 -1.6104 -0.1735
  198MOL0     H26116   1.487   4.878  10.063 -1.0744  1.8544 -0.2347
  198MOL0     H26117   1.615   4.971  10.129 -1.6790 -0.5375  1.2448
  198MOL0     H26118   2.442   5.700   9.931 -1.0344 -1.0516 -1.2045
  198MOL0     H26119   2.555   5.855  10.067  0.1327 -0.9343 -0.8920
  198MOL0     H26120   2.557   6.049  10.499  0.8333 -2.7503  1.4154
  198MOL0     H26121   2.632   6.243  10.636 -1.0801  0.6413 -1.3492
  198MOL0     H26122   4.230   7.120  11.277 -0.1669  1.5341  0.7861
  198MOL0     H26123   4.473   7.058  11.232  0.2762 -0.1147 -3.3655
  198MOL0     H26124   4.917   7.258  11.206  0.9921  2.3297 -0.5461
  198MOL0     H26125   5.161   7.197  11.152 -0.5383 -1.1385  1.4602
  198MOL0     H26126   5.234   7.104  10.707  0.0248 -0.1378  0.2341
  198MOL0     H26127   5.274   6.948  10.767 -0.6259 -0.2483 -0.0537
  198MOL0     H26128   5.460   7.061  10.667  2.7517  0.1793  0.6628
  198MOL0     H26129   5.459   7.184  10.794  0.6594 -0.3956  0.3592
  198MOL0     H26130   5.515   6.881  10.833 -2.1664  0.0639  0.3549
  198MOL0     H26131   5.515   7.004  10.955  0.5754 -1.0239  0.6712
  198MOL0     H26132   5.689   7.032  10.699 -2.9218 -0.1779 -0.4343
  198MOL0     H26133   5.685   7.145  10.828 -1.2165  1.0107 -0.7115
  198MOL0     H26134   5.918   6.814  10.972 -0.9400 -0.1149  0.2876
  198MOL0     H26135   5.044   7.068  10.773 -1.9238 -1.9421  1.0745
  198MOL0     H26136   4.804   7.106  10.828 -2.1336 -0.9552  1.2606
  199MOL0     O26137   1.136   8.321   9.457 -0.7738 -0.2563  0.4174
  199MOL0     C26138   1.117   8.235   9.544  0.0549  0.0772  0.2555
  199MOL0     O26139   1.029   8.244   9.652 -0.1306 -0.2732 -0.3940
  199MOL0     C26140   0.944   8.348   9.660  0.9391 -0.1727  0.8066
  199MOL0     C26141   0.824   8.311   9.722 -0.0484  0.6610 -0.2991
  199MOL0     C26142   0.721   8.406   9.727 -1.4694 -0.3698 -0.4648
  199MOL0     C26143   0.731   8.539   9.680 -0.8009  0.2625 -0.1518
  199MOL0     O26144   0.638   8.635   9.697 -0.0586  0.3343  0.2366
  199MOL0     C26145   0.527   8.604   9.792  0.0231  0.0120  0.5657
  199MOL0     C26146   0.450   8.742   9.811  0.8760  0.5750 -0.7277
  199MOL0     C26147   0.328   8.726   9.900  0.9009  0.3244  0.0313
  199MOL0     C26148   0.238   8.603   9.880  0.7536  0.0574  0.1545
  199MOL0     C26149   0.120   8.603   9.968  0.0567 -0.1839 -0.7593
  199MOL0     C26150   0.026   8.728   9.953  0.3941  0.9271  0.5686
  199MOL0     C26151  -0.118   8.700   9.996  0.5573 -0.4701  0.0240
  199MOL0     C26152  -0.144   8.695  10.149 -0.1838 -0.4802  1.3336
  199MOL0     N26153  -0.289   8.679  10.168 -0.7904 -0.2782 -0.0026
  199MOL0     C26154  -0.368   8.573  10.136  0.3236  0.2301 -0.7085
  199MOL0     C26155  -0.491   8.609  10.171 -0.6243 -0.0272  0.4574
  199MOL0     C26156  -0.622   8.533  10.146  0.2599  0.3902 -0.0180
  199MOL0     C26157  -0.745   8.629  10.158 -0.0410 -0.4025 -0.2934
  199MOL0     C26158  -0.742   8.727  10.037  0.1775 -0.0673 -0.4167
  199MOL0     C26159  -0.853   8.828  10.049 -0.0682  0.6259  0.4994
  199MOL0     O26160  -0.871   8.900  10.176  0.1962  0.3940 -0.6279
  199MOL0     C26161  -0.988   8.968  10.202 -0.1765 -0.0857 -0.4560
  199MOL0     C26162  -0.977   9.077  10.289  0.1385  0.7043  0.2082
  199MOL0     C26163  -1.086   9.153  10.312  0.1150  0.0152  0.0485
  199MOL0     C26164  -1.212   9.122  10.254  0.1653 -0.8558 -0.0205
  199MOL0     C26165  -1.329   9.199  10.283 -0.2371  0.1912  0.0050
  199MOL0     O26166  -1.437   9.130  10.308 -0.2720 -0.4494 -0.3835
  199MOL0     C26167  -1.565   9.180  10.324  0.3033  1.0417  0.5527
  199MOL0     C26168  -1.663   9.086  10.346 -0.0416  0.4258  0.8119
  199MOL0     C26169  -1.802   9.121  10.360  0.0837 -0.2469 -0.4395
  199MOL0     C26170  -1.841   9.247  10.358 -0.6076 -0.8514  0.1915
  199MOL0     O26171  -1.967   9.291  10.408  0.3541 -0.0948 -0.2196
  199MOL0     C26172  -2.083   9.198  10.412  0.1082  0.4656  0.0601
  199MOL0     C26173  -2.207   9.278  10.400  0.0055 -0.4312 -0.3211
  199MOL0     C26174  -2.327   9.190  10.439 -0.6063 -0.0009  0.3491
  199MOL0     C26175  -2.447   9.273  10.474 -0.8511  0.3184 -0.3264
  199MOL0     C26176  -2.552   9.207  10.566 -0.2027  0.3797 -0.0028
  199MOL0     C26177  -2.642   9.090  10.501  0.0242 -0.8022 -0.1129
  199MOL0     C26178  -2.746   9.043  10.605  0.0091 -0.1122  0.3165
  199MOL0     C26179  -2.885   9.102  10.577 -0.2510  0.1131 -0.0865
  199MOL0    Cl26180  -2.932   9.064  10.414 -0.6519 -0.1716 -0.5064
  199MOL0     C26181  -1.737   9.352  10.336  1.1477  0.0640 -0.2866
  199MOL0     C26182  -1.607   9.319  10.316 -0.7742  1.3068  0.7588
  199MOL0     O26183  -1.322   9.319  10.294  0.2520 -0.0466  0.1351
  199MOL0     C26184  -1.225   9.012  10.173 -0.2052 -0.6423  0.7862
  199MOL0     C26185  -1.111   8.935  10.145 -0.4417  0.4894 -0.1682
  199MOL0     N26186  -0.481   8.737  10.239  0.3327  0.0909 -0.5513
  199MOL0     N26187  -0.360   8.772  10.237 -0.0652  0.2281  0.7268
  199MOL0     C26188   0.856   8.573   9.624 -0.5395  0.5773  0.6395
  199MOL0     C26189   0.959   8.480   9.614 -0.1031 -0.1450 -0.2563
  199MOL0     C26190   1.226   8.135   9.558  0.3108  0.4100  0.4043
  199MOL0     C26191   1.256   8.056   9.670 -0.1773  0.0795 -0.7700
  199MOL0     C26192   1.350   7.954   9.674 -0.4712 -0.6208 -0.8763
  199MOL0     C26193   1.429   7.921   9.567  0.3848 -0.2806  0.2395
  199MOL0     O26194   1.508   7.811   9.581 -0.2435  0.7483  0.0673
  199MOL0     C26195   1.495   7.708   9.490  0.0304 -0.3922 -0.5740
  199MOL0     C26196   1.544   7.579   9.538 -0.0394  0.4632 -0.0201
  199MOL0     C26197   1.569   7.472   9.435 -0.0649 -0.2997 -0.1445
  199MOL0     C26198   1.655   7.368   9.503  1.0748 -0.5546 -0.1049
  199MOL0     C26199   1.703   7.277   9.405 -0.7158  0.3717  1.4877
  199MOL0     C26200   1.744   7.216   9.312 -0.1501  0.4820  0.0623
  199MOL0     C26201   1.410   7.998   9.457 -0.2059 -0.1682  0.1884
  199MOL0     C26202   1.315   8.103   9.454 -0.9824 -0.7618 -0.3573
  199MOL0     H26203   0.807   8.213   9.765  1.2355  0.5191 -0.0750
  199MOL0     H26204   0.626   8.375   9.768 -1.0902 -0.8925  0.0226
  199MOL0     H26205   0.561   8.578   9.892  1.4069  3.2312  1.0252
  199MOL0     H26206   0.463   8.524   9.753 -1.2091  1.8323 -1.3327
  199MOL0     H26207   0.404   8.763   9.714 -0.1301 -2.2806 -0.9610
  199MOL0     H26208   0.511   8.828   9.841  0.2984  1.1759 -1.2495
  199MOL0     H26209   0.269   8.818   9.893  0.3239 -0.0679 -0.4022
  199MOL0     H26210   0.363   8.704  10.001 -2.3371  0.1344  1.2406
  199MOL0     H26211   0.204   8.592   9.776 -2.2992 -1.1110  1.1509
  199MOL0     H26212   0.295   8.512   9.902  1.5438 -0.0965 -2.1671
  199MOL0     H26213   0.151   8.599  10.073 -0.9615 -0.6813 -0.4641
  199MOL0     H26214   0.065   8.510   9.949 -1.2277  0.8302 -2.2924
  199MOL0     H26215   0.024   8.767   9.851  2.9825  2.2991  0.9404
  199MOL0     H26216   0.065   8.802  10.023  1.0789 -1.2917  2.6782
  199MOL0     H26217  -0.173   8.776   9.939  1.8477  1.5343  1.2945
  199MOL0     H26218  -0.150   8.601   9.963 -0.5033  0.1768 -0.9680
  199MOL0     H26219  -0.110   8.790  10.192 -0.5943  1.2911 -1.9057
  199MOL0     H26220  -0.089   8.607  10.183 -0.3552 -2.9535 -3.8408
  199MOL0     H26221  -0.352   8.482  10.079 -0.1323 -0.6829  0.5849
  199MOL0     H26222  -0.626   8.454  10.222 -1.0350 -0.3684 -0.8407
  199MOL0     H26223  -0.616   8.485  10.047 -0.2604  0.4568 -0.0830
  199MOL0     H26224  -0.756   8.685  10.251 -0.3290 -0.0110 -0.5607
  199MOL0     H26225  -0.832   8.565  10.142  1.0788 -2.7236  2.0844
  199MOL0     H26226  -0.653   8.791  10.032 -0.2040  0.5833  0.7937
  199MOL0     H26227  -0.747   8.671   9.943 -0.5547  0.6866 -0.8420
  199MOL0     H26228  -0.947   8.776  10.027 -0.1141  0.5190  0.9457
  199MOL0     H26229  -0.837   8.903   9.971  0.4374 -0.1969 -0.2150
  199MOL0     H26230  -0.885   9.097  10.343  0.8148  2.7898 -1.5833
  199MOL0     H26231  -1.085   9.243  10.372  1.0406 -1.4792  2.3963
  199MOL0     H26232  -1.628   8.984  10.349  0.2808  0.5309  0.6425
  199MOL0     H26233  -1.882   9.051  10.380 -1.5842  1.3702 -1.1530
  199MOL0     H26234  -2.062   9.158  10.512 -1.8433 -0.4411  0.1414
  199MOL0     H26235  -2.077   9.117  10.339  1.9431  0.4562  0.1690
  199MOL0     H26236  -2.219   9.313  10.297 -0.6643  0.0491 -0.0869
  199MOL0     H26237  -2.196   9.362  10.469 -1.3492 -0.2329 -0.3225
  199MOL0     H26238  -2.298   9.135  10.529 -2.6942 -0.5149  0.7588
  199MOL0     H26239  -2.364   9.124  10.361  1.4056 -0.0278 -0.6489
  199MOL0     H26240  -2.416   9.365  10.524  1.0763  0.3947 -1.5783
  199MOL0     H26241  -2.502   9.299  10.383 -0.7790  2.1394  0.1022
  199MOL0     H26242  -2.619   9.289  10.595 -0.2295  0.4260 -0.1928
  199MOL0     H26243  -2.501   9.175  10.658 -0.4154 -1.2213 -0.4293
  199MOL0     H26244  -2.574   9.016  10.457  1.6402  1.6313 -2.0519
  199MOL0     H26245  -2.691   9.136  10.415  0.8736 -0.3245 -0.3615
  199MOL0     H26246  -2.742   8.933  10.607  1.5963 -0.0775  1.8658
  199MOL0     H26247  -2.722   9.067  10.709 -0.6242  2.0778 -0.0066
  199MOL0     H26248  -2.879   9.209  10.596  2.8592 -0.2825  2.0446
  199MOL0     H26249  -2.967   9.071  10.644 -0.3756  2.0630  0.7274
  199MOL0     H26250  -1.776   9.453  10.329 -4.9390 -1.3880  3.8692
  199MOL0     H26251  -1.540   9.396  10.278 -1.6401  0.5244 -2.7520
  199MOL0     H26252  -1.315   8.964  10.136 -1.6689  1.1865  1.7768
  199MOL0     H26253  -1.125   8.843  10.090 -2.1858  1.7248 -1.8874
  199MOL0     H26254   0.867   8.673   9.585 -1.5005 -0.5344 -2.8179
  199MOL0     H26255   1.052   8.522   9.576  0.7828  1.3259  3.1245
  199MOL0     H26256   1.188   8.086   9.749  0.7283  0.7941 -0.2519
  199MOL0     H26257   1.359   7.900   9.768 -0.0663  0.4495 -0.2772
  199MOL0     H26258   1.545   7.732   9.396 -1.2136  1.0992 -0.9038
  199MOL0     H26259   1.388   7.700   9.466  0.0763 -0.4647 -0.7553
  199MOL0     H26260   1.625   7.607   9.607  1.1608  1.9027 -1.9299
  199MOL0     H26261   1.465   7.556   9.611  0.2534  2.6193  1.0592
  199MOL0     H26262   1.613   7.526   9.351 -2.2181  3.0114  0.6890
  199MOL0     H26263   1.468   7.443   9.404 -1.8066  2.6249  2.2707
  199MOL0     H26264   1.735   7.422   9.554  1.5639 -0.7678 -0.6351
  199MOL0     H26265   1.592   7.316   9.576  2.2405  2.5635  3.3937
  199MOL0     H26266   1.774   7.157   9.228  1.9417  3.0293 -1.1186
  199MOL0     H26267   1.463   7.985   9.363  2.7003 -0.8208  1.7865
  199MOL0     H26268   1.309   8.165   9.365  1.3700 -2.2021 -1.6247
  200MOL0     O26269   3.549   7.781   5.653  0.6321  0.2678  0.6970
  200MOL0     C26270   3.534   7.765   5.533  1.1752  0.3067 -0.1785
  200MOL0     O26271   3.626   7.797   5.433 -0.0233  0.3209 -0.3738
  200MOL0     C26272   3.737   7.864   5.480  0.2945  0.4077  0.8653
  200MOL0     C26273   3.866   7.803   5.489 -0.6689  0.6327 -0.4169
  200MOL0     C26274   3.989   7.866   5.519 -0.1213  0.1770  0.2002
  200MOL0     C26275   3.990   8.006   5.529  0.6077 -0.3631  0.7259
  200MOL0     O26276   4.097   8.081   5.567 -0.3052 -0.0921  0.7900
  200MOL0     C26277   4.223   8.013   5.579  0.3306 -0.4559 -0.1363
  200MOL0     C26278   4.346   8.088   5.628  0.7332 -0.0490  0.3706
  200MOL0     C26279   4.389   8.194   5.539 -0.4258 -0.6760 -0.0759
  200MOL0     C26280   4.516   8.269   5.612 -0.6178  0.7539  0.4878
  200MOL0     C26281   4.585   8.361   5.521  0.3677 -0.3291 -0.1828
  200MOL0     C26282   4.728   8.395   5.565 -0.2526  0.8004  0.3861
  200MOL0     C26283   4.798   8.502   5.474 -0.2378  0.8914  0.1537
  200MOL0     C26284   4.930   8.559   5.544  0.5582 -0.0137  0.4096
  200MOL0     N26285   5.033   8.464   5.575  0.1793  0.1555 -0.1483
  200MOL0     C26286   5.041   8.361   5.670 -0.8364  0.7167  0.3079
  200MOL0     C26287   5.146   8.283   5.642  0.1791  0.0449 -0.0709
  200MOL0     C26288   5.181   8.158   5.724 -0.1268 -0.6463 -0.2348
  200MOL0     C26289   5.064   8.062   5.710 -0.4968 -0.9649  0.6048
  200MOL0     C26290   5.104   7.928   5.752  0.8512  0.7333 -0.0221
  200MOL0     C26291   5.009   7.821   5.705  0.1847  0.1786  0.4827
  200MOL0     O26292   4.889   7.841   5.778  0.3202  0.1251 -0.0573
  200MOL0     C26293   4.777   7.769   5.729 -0.4710  0.2852  0.1419
  200MOL0     C26294   4.651   7.812   5.770 -0.4643  0.0074 -1.4607
  200MOL0     C26295   4.541   7.748   5.733 -0.0141  0.7635  0.1551
  200MOL0     C26296   4.543   7.654   5.621  0.3359 -0.9429  0.0008
  200MOL0     C26297   4.423   7.583   5.575  0.4797 -1.3190  1.1576
  200MOL0     O26298   4.304   7.622   5.633 -0.2141  0.0018  0.2706
  200MOL0     C26299   4.182   7.555   5.615 -0.2246  1.0658  0.0969
  200MOL0     C26300   4.100   7.554   5.722  0.4882 -0.1120 -0.3658
  200MOL0     C26301   3.973   7.498   5.721 -0.5319  0.3133  0.2006
  200MOL0     C26302   3.940   7.415   5.620  0.1676 -0.0058  0.7209
  200MOL0     O26303   3.827   7.335   5.610 -0.1230  0.2611  0.0849
  200MOL0     C26304   3.706   7.394   5.645  0.4188  0.4624  0.3197
  200MOL0     C26305   3.593   7.322   5.551  0.4379 -0.4897 -0.6881
  200MOL0     C26306   3.444   7.347   5.594 -0.9741 -0.1231 -0.0953
  200MOL0     C26307   3.408   7.315   5.742  0.3069 -0.2549  0.1792
  200MOL0     C26308   3.265   7.347   5.781 -0.0692 -0.4695 -0.2646
  200MOL0     C26309   3.155   7.238   5.760 -0.3374 -0.3363  0.9117
  200MOL0     C26310   3.031   7.305   5.809 -0.0899  0.1713  0.5348
  200MOL0     C26311   2.909   7.228   5.775  0.0775  0.6525  0.4623
  200MOL0    Cl26312   2.862   7.273   5.597 -0.1524 -0.3455  0.2823
  200MOL0     C26313   4.017   7.416   5.505  0.4461  0.4988 -0.0257
  200MOL0     C26314   4.136   7.489   5.502 -0.2917 -0.3697 -0.1259
  200MOL0     O26315   4.437   7.499   5.489  0.2455 -0.5449 -0.0109
  200MOL0     C26316   4.667   7.620   5.570 -0.2844  0.3088  0.0939
  200MOL0     C26317   4.788   7.666   5.635  0.3195  0.4640  0.1940
  200MOL0     N26318   5.203   8.329   5.530 -0.4505  0.8457  0.4553
  200MOL0     N26319   5.135   8.439   5.497 -0.3322  0.0546  0.5713
  200MOL0     C26320   3.862   8.076   5.508  0.0996 -0.1933 -0.3473
  200MOL0     C26321   3.734   8.007   5.487 -0.2737 -0.3410 -0.3988
  200MOL0     C26322   3.394   7.731   5.492  0.9671  0.0911  0.2261
  200MOL0     C26323   3.366   7.733   5.356  0.2507  0.0082  0.1709
  200MOL0     C26324   3.248   7.680   5.309 -0.5421 -0.1231  0.9056
  200MOL0     C26325   3.149   7.629   5.399  0.1771 -0.1351 -0.4123
  200MOL0     O26326   3.030   7.592   5.343 -0.5395 -0.3557 -0.6254
  200MOL0     C26327   2.905   7.609   5.418  0.1378  0.4606  0.0192
  200MOL0     C26328   2.788   7.577   5.318 -0.3678  0.7278 -0.4111
  200MOL0     C26329   2.647   7.586   5.389  0.4830 -0.3553  0.7377
  200MOL0     C26330   2.594   7.725   5.431 -0.1340 -0.7740 -0.6176
  200MOL0     C26331   2.577   7.826   5.324 -0.3099 -0.6910  0.2914
  200MOL0     C26332   2.571   7.929   5.251 -0.4192 -0.6850  0.1949
  200MOL0     C26333   3.173   7.638   5.540 -0.0184 -0.9988  1.0554
  200MOL0     C26334   3.297   7.688   5.586 -0.0322 -0.6183 -0.4586
  200MOL0     H26335   3.865   7.695   5.482  0.8317  0.5333  0.4369
  200MOL0     H26336   4.085   7.816   5.522  0.0504  0.3105 -1.7324
  200MOL0     H26337   4.258   7.976   5.482 -2.6806 -0.8661 -1.1686
  200MOL0     H26338   4.214   7.930   5.649  0.3764 -2.4129 -2.3155
  200MOL0     H26339   4.423   8.010   5.627  1.9349  1.0979  0.8959
  200MOL0     H26340   4.318   8.119   5.730 -0.8423 -1.2448  0.3367
  200MOL0     H26341   4.310   8.268   5.524 -1.4730 -2.2008 -2.6735
  200MOL0     H26342   4.422   8.163   5.440  1.3999 -1.0262  0.6011
  200MOL0     H26343   4.479   8.319   5.702 -0.8616 -1.0115  1.4222
  200MOL0     H26344   4.587   8.189   5.632 -1.2816 -0.7449 -2.5287
  200MOL0     H26345   4.525   8.452   5.519  0.3277 -0.3663 -0.7196
  200MOL0     H26346   4.580   8.314   5.422 -0.8852 -0.5187 -0.0469
  200MOL0     H26347   4.789   8.304   5.556 -1.4060 -0.0692  0.9736
  200MOL0     H26348   4.723   8.429   5.669  0.8834  1.0718  0.3700
  200MOL0     H26349   4.833   8.460   5.379  0.5629  1.2830  0.2719
  200MOL0     H26350   4.732   8.585   5.446  0.6705  1.1576 -1.3266
  200MOL0     H26351   4.902   8.606   5.638 -0.2544 -0.1312  0.2438
  200MOL0     H26352   4.966   8.632   5.472 -0.6482 -0.6532 -0.9179
  200MOL0     H26353   4.974   8.340   5.752 -0.3664 -0.4942  0.4015
  200MOL0     H26354   5.199   8.186   5.828 -1.1060  2.1476 -0.7261
  200MOL0     H26355   5.274   8.119   5.681 -0.6902 -1.9273 -0.3477
  200MOL0     H26356   5.038   8.053   5.604  2.7266  1.3794 -0.5159
  200MOL0     H26357   4.986   8.083   5.784  2.1476  0.2138  3.2769
  200MOL0     H26358   5.196   7.893   5.704  0.4448 -1.2152  0.5416
  200MOL0     H26359   5.115   7.924   5.861 -2.9696 -1.1937  0.4503
  200MOL0     H26360   5.055   7.722   5.714 -0.9723 -1.0678 -4.3866
  200MOL0     H26361   4.991   7.848   5.601 -2.1974  1.7378  1.2184
  200MOL0     H26362   4.643   7.887   5.848 -2.8282 -1.1163 -0.5133
  200MOL0     H26363   4.448   7.778   5.781 -0.1495 -0.5799  0.7864
  200MOL0     H26364   4.114   7.618   5.808  1.9226  1.3714 -1.6532
  200MOL0     H26365   3.901   7.507   5.802 -2.2149 -2.0140 -0.9081
  200MOL0     H26366   3.717   7.502   5.636  0.7408  0.5098  1.2015
  200MOL0     H26367   3.686   7.380   5.752 -1.3340  0.7150  0.0615
  200MOL0     H26368   3.616   7.215   5.555 -2.5415 -1.1809  2.2343
  200MOL0     H26369   3.604   7.351   5.446 -0.6682 -0.9411 -0.9413
  200MOL0     H26370   3.376   7.288   5.531 -1.0887 -1.2546  1.0334
  200MOL0     H26371   3.434   7.451   5.564  0.4495 -0.4798 -2.0219
  200MOL0     H26372   3.426   7.210   5.765 -0.8222 -0.0688  2.1660
  200MOL0     H26373   3.477   7.366   5.809 -0.4769  1.7621 -0.4729
  200MOL0     H26374   3.243   7.444   5.733  1.3879  0.3653  0.6719
  200MOL0     H26375   3.258   7.370   5.887  0.3469  0.0196 -0.3363
  200MOL0     H26376   3.173   7.146   5.816  2.2880 -0.2475  0.3668
  200MOL0     H26377   3.135   7.212   5.655 -0.8538 -3.5964  1.7113
  200MOL0     H26378   3.032   7.327   5.916 -1.9242 -0.6903  0.7708
  200MOL0     H26379   3.028   7.404   5.762  4.1618 -1.4090 -3.9916
  200MOL0     H26380   2.822   7.252   5.838 -0.0157 -0.2466  0.6969
  200MOL0     H26381   2.927   7.121   5.792  1.9337  1.0678  1.3956
  200MOL0     H26382   3.988   7.357   5.419  1.2761 -0.4577  0.3331
  200MOL0     H26383   4.194   7.490   5.410 -1.8190 -0.1684 -1.1317
  200MOL0     H26384   4.682   7.541   5.498 -2.1854  0.5170 -0.6035
  200MOL0     H26385   4.884   7.623   5.608 -0.3319 -2.8857  2.5808
  200MOL0     H26386   3.863   8.184   5.513  2.7578 -0.1297 -0.6527
  200MOL0     H26387   3.640   8.061   5.480  1.0006  2.2475  1.0767
  200MOL0     H26388   3.432   7.785   5.288 -0.2341 -0.2320 -0.5000
  200MOL0     H26389   3.228   7.675   5.203 -1.7317 -0.6473  1.1447
  200MOL0     H26390   2.885   7.711   5.454 -2.0676  1.6056 -3.8003
  200MOL0     H26391   2.894   7.534   5.497 -0.2179 -0.4916 -0.9193
  200MOL0     H26392   2.798   7.643   5.231 -2.4372  2.7041  0.7450
  200MOL0     H26393   2.801   7.472   5.289  0.2689  0.6164  0.2578
  200MOL0     H26394   2.648   7.510   5.468  0.5338 -0.3127  0.7778
  200MOL0     H26395   2.571   7.553   5.318  0.6767 -0.7322  0.7042
  200MOL0     H26396   2.501   7.728   5.489  0.8359  0.5567  0.9863
  200MOL0     H26397   2.672   7.764   5.497  0.7342  0.3769 -2.2629
  200MOL0     H26398   2.574   8.012   5.183 -2.2381 -1.4235 -0.8323
  200MOL0     H26399   3.100   7.595   5.608 -1.2294  0.1019  0.4857
  200MOL0     H26400   3.330   7.691   5.689  2.0907 -0.3188 -1.0874
  201MOL0     O26401   6.110   7.560   5.207  0.1429 -0.0903 -0.6155
  201MOL0     C26402   6.200   7.528   5.277 -0.5847  0.2703  1.0992
  201MOL0     O26403   6.197   7.423   5.361  0.3847  0.1739  0.0755
  201MOL0     C26404   6.081   7.356   5.385  1.1355 -0.1857  0.2396
  201MOL0     C26405   5.969   7.429   5.426  0.4195 -0.2571  0.0408
  201MOL0     C26406   5.846   7.375   5.431  0.1111 -1.1025 -0.0826
  201MOL0     C26407   5.839   7.238   5.409 -0.2249  0.0715 -0.5038
  201MOL0     O26408   5.724   7.169   5.430  0.2038  0.5125 -0.1511
  201MOL0     C26409   5.663   7.201   5.556 -1.1111  0.8804 -0.2543
  201MOL0     C26410   5.523   7.248   5.544  0.3684  0.7326  0.2337
  201MOL0     C26411   5.435   7.128   5.509  0.1728  0.6889  0.0032
  201MOL0     C26412   5.293   7.167   5.471 -0.2832 -0.0298 -0.5318
  201MOL0     C26413   5.201   7.053   5.479 -0.6237  0.5261 -0.3172
  201MOL0     C26414   5.251   6.946   5.375 -0.4459 -0.6769 -0.2649
  201MOL0     C26415   5.150   6.838   5.357 -0.5000 -0.5731 -0.4708
  201MOL0     C26416   5.196   6.698   5.322  0.5652 -0.6333  0.1886
  201MOL0     N26417   5.238   6.614   5.435 -0.0371  1.2565  0.0833
  201MOL0     C26418   5.360   6.610   5.495 -0.2154 -0.4154  0.4393
  201MOL0     C26419   5.343   6.515   5.596  0.0175 -0.4575  0.5019
  201MOL0     C26420   5.438   6.474   5.698 -0.2223 -0.5983  0.1958
  201MOL0     C26421   5.424   6.565   5.822 -0.0008 -0.4677 -0.1488
  201MOL0     C26422   5.487   6.507   5.947 -0.2411 -0.4402  0.1871
  201MOL0     C26423   5.635   6.565   5.954  0.1606  0.4547 -0.4346
  201MOL0     O26424   5.694   6.484   6.054 -1.1919 -0.2643 -0.3714
  201MOL0     C26425   5.828   6.467   6.056  0.3808  0.2694 -0.0325
  201MOL0     C26426   5.919   6.550   5.984 -0.0109  0.2402 -0.4701
  201MOL0     C26427   6.056   6.523   5.996 -0.3619 -0.1362 -0.2374
  201MOL0     C26428   6.101   6.414   6.065 -0.0167  0.4300 -0.6648
  201MOL0     C26429   6.252   6.382   6.049 -0.0803  0.0371 -0.6085
  201MOL0     O26430   6.293   6.251   6.049  0.2137  0.3246  0.2007
  201MOL0     C26431   6.429   6.232   6.027 -0.5076  0.5844 -1.0947
  201MOL0     C26432   6.514   6.210   6.138  0.1375  0.4988 -0.0085
  201MOL0     C26433   6.644   6.172   6.117 -0.4853  0.0761  0.5609
  201MOL0     C26434   6.697   6.162   5.985 -1.1238  0.2210 -0.4069
  201MOL0     O26435   6.829   6.130   5.974  0.3815 -0.2383  0.3911
  201MOL0     C26436   6.890   6.147   5.844 -0.5460 -0.1279 -0.3015
  201MOL0     C26437   7.032   6.194   5.861 -0.2578 -0.3928  0.6430
  201MOL0     C26438   7.116   6.095   5.944  0.3981 -0.2972  0.4041
  201MOL0     C26439   7.263   6.124   5.927 -0.2391 -0.3376 -0.2635
  201MOL0     C26440   7.361   6.031   6.000  0.5787  1.4089 -1.1413
  201MOL0     C26441   7.499   6.106   6.011  0.3096  0.3112  0.2153
  201MOL0     C26442   7.567   6.149   5.882  0.7997  0.5901 -0.2664
  201MOL0     C26443   7.705   6.211   5.912  0.2518 -0.6364  0.3322
  201MOL0    Cl26444   7.677   6.353   6.001  0.1520  0.0748  0.2709
  201MOL0     C26445   6.609   6.187   5.876 -0.2498  0.5277 -0.6787
  201MOL0     C26446   6.478   6.232   5.897 -0.4681 -0.1102  0.1473
  201MOL0     O26447   6.327   6.475   6.016  0.5461 -0.4192 -0.2899
  201MOL0     C26448   6.006   6.330   6.130  0.3734 -0.2016  0.1769
  201MOL0     C26449   5.873   6.363   6.134 -0.1947  0.2333 -0.1890
  201MOL0     N26450   5.217   6.467   5.593 -0.5563 -0.0250  0.3665
  201MOL0     N26451   5.153   6.527   5.499  0.2212 -0.3519 -0.1091
  201MOL0     C26452   5.950   7.163   5.369  0.4305  0.1103  0.2202
  201MOL0     C26453   6.074   7.221   5.374 -0.6935 -0.2491 -0.4203
  201MOL0     C26454   6.339   7.581   5.245 -0.7154 -0.7329  0.1252
  201MOL0     C26455   6.353   7.710   5.178 -0.2864  0.6926  1.1045
  201MOL0     C26456   6.471   7.765   5.136  0.1017  0.3268 -0.1225
  201MOL0     C26457   6.590   7.689   5.146  0.1135 -0.2483  0.0525
  201MOL0     O26458   6.702   7.754   5.096  0.3230  0.0629 -0.1859
  201MOL0     C26459   6.825   7.683   5.102 -0.5717 -0.4455 -0.4316
  201MOL0     C26460   6.938   7.786   5.071  0.3142  0.9189  0.3359
  201MOL0     C26461   6.921   7.860   4.942  0.2187 -0.3777  0.4867
  201MOL0     C26462   6.941   7.766   4.823 -0.7983  0.5931 -0.7803
  201MOL0     C26463   7.076   7.706   4.806  0.1648  0.7626 -0.0142
  201MOL0     C26464   7.184   7.650   4.808 -0.5228  0.1436  0.5234
  201MOL0     C26465   6.580   7.562   5.215 -0.0319  0.4395  0.1545
  201MOL0     C26466   6.453   7.511   5.259  0.3920  0.0606 -0.2925
  201MOL0     H26467   5.990   7.528   5.463 -0.5113 -0.0611  0.0589
  201MOL0     H26468   5.761   7.433   5.467  0.8581  0.3080 -0.5490
  201MOL0     H26469   5.713   7.277   5.617 -0.6836 -2.2686  3.8234
  201MOL0     H26470   5.665   7.109   5.616 -2.8832  0.0098 -1.4521
  201MOL0     H26471   5.523   7.314   5.456  0.6126 -0.3721 -0.6246
  201MOL0     H26472   5.492   7.300   5.635 -1.1238 -1.5664  1.1499
  201MOL0     H26473   5.433   7.062   5.596 -0.0387 -1.1449 -1.3109
  201MOL0     H26474   5.489   7.072   5.431 -1.5910  0.4046 -1.0795
  201MOL0     H26475   5.255   7.251   5.530 -1.0667 -1.0798  0.4954
  201MOL0     H26476   5.295   7.204   5.368 -1.4237 -1.2769 -1.0264
  201MOL0     H26477   5.095   7.073   5.461 -1.0787  0.1357  1.7516
  201MOL0     H26478   5.202   7.007   5.578 -5.2242 -0.5917 -0.5491
  201MOL0     H26479   5.345   6.916   5.420 -0.8191 -0.0502  0.9874
  201MOL0     H26480   5.258   7.004   5.282 -2.6574  0.3028  0.1006
  201MOL0     H26481   5.095   6.815   5.450  0.3732 -1.9598 -0.2716
  201MOL0     H26482   5.080   6.866   5.278 -1.0759 -0.0015  0.2165
  201MOL0     H26483   5.277   6.688   5.248  0.9445 -1.2888  0.6777
  201MOL0     H26484   5.117   6.642   5.272 -1.5474  0.9737  1.5969
  201MOL0     H26485   5.452   6.666   5.480  0.4776 -1.7263 -0.4459
  201MOL0     H26486   5.540   6.467   5.659 -1.2733 -0.1914 -2.8781
  201MOL0     H26487   5.426   6.368   5.723  0.9164 -0.8590 -0.2793
  201MOL0     H26488   5.319   6.574   5.852  0.5304 -0.5806  1.8799
  201MOL0     H26489   5.461   6.666   5.802 -0.0589 -0.0667  1.6000
  201MOL0     H26490   5.442   6.531   6.044 -0.6931  0.3989 -0.2207
  201MOL0     H26491   5.485   6.398   5.940 -1.1460 -0.5016  1.0843
  201MOL0     H26492   5.631   6.669   5.987  2.0027 -0.9056  5.1791
  201MOL0     H26493   5.681   6.559   5.855 -0.7478 -1.1847 -0.8034
  201MOL0     H26494   5.881   6.637   5.934 -0.0958  0.8158  0.5600
  201MOL0     H26495   6.118   6.590   5.938 -0.2885 -0.8803 -1.0347
  201MOL0     H26496   6.484   6.210   6.242 -0.0558 -0.3741 -0.0558
  201MOL0     H26497   6.720   6.142   6.188  0.6913 -0.4775 -0.8794
  201MOL0     H26498   6.837   6.221   5.784 -1.1475  0.2354  0.6564
  201MOL0     H26499   6.887   6.046   5.802  1.6615  0.0010 -0.8824
  201MOL0     H26500   7.025   6.293   5.906 -0.7571 -0.7933  1.4746
  201MOL0     H26501   7.077   6.212   5.763  3.9421 -1.5211  2.1403
  201MOL0     H26502   7.095   5.995   5.906  0.4958 -0.2679  0.2720
  201MOL0     H26503   7.088   6.100   6.050  2.1368 -3.4296  1.1530
  201MOL0     H26504   7.288   6.104   5.822  0.4197 -3.5366  0.3912
  201MOL0     H26505   7.287   6.228   5.950  0.4394  0.0819 -2.5616
  201MOL0     H26506   7.363   5.937   5.944 -0.8748  2.5896 -3.3036
  201MOL0     H26507   7.326   6.003   6.100  0.4169  0.0235 -1.5676
  201MOL0     H26508   7.559   6.040   6.074 -0.4357  0.3130  0.9471
  201MOL0     H26509   7.475   6.200   6.062 -0.2535  1.3573 -1.8459
  201MOL0     H26510   7.583   6.055   5.828 -1.2325  0.6102 -0.9824
  201MOL0     H26511   7.500   6.215   5.826 -0.6959 -1.5699 -1.1993
  201MOL0     H26512   7.744   6.245   5.815 -0.8223  2.7774  0.9629
  201MOL0     H26513   7.777   6.141   5.954  2.4118  1.9247  1.1580
  201MOL0     H26514   6.640   6.173   5.773 -4.6656  0.0779 -2.1367
  201MOL0     H26515   6.405   6.255   5.820 -0.3854  0.2132  0.1628
  201MOL0     H26516   6.051   6.246   6.182  0.0425 -0.3952  0.1506
  201MOL0     H26517   5.794   6.310   6.185 -0.8710  0.9938 -0.4159
  201MOL0     H26518   5.946   7.057   5.348 -0.2837  0.2119 -0.2086
  201MOL0     H26519   6.155   7.150   5.376 -1.7149 -1.4478  0.5967
  201MOL0     H26520   6.255   7.756   5.171 -1.1284 -1.1923 -0.5670
  201MOL0     H26521   6.487   7.864   5.094  3.5491 -0.2983 -0.6067
  201MOL0     H26522   6.831   7.601   5.030 -1.5422 -1.0364  0.1391
  201MOL0     H26523   6.851   7.641   5.200 -0.2187 -1.7924 -1.0771
  201MOL0     H26524   6.929   7.867   5.144 -1.1500  0.4384  0.7203
  201MOL0     H26525   7.040   7.752   5.089  0.4917  0.6938 -1.0098
  201MOL0     H26526   6.992   7.943   4.937  0.5036 -0.6287  0.3847
  201MOL0     H26527   6.822   7.908   4.936  0.9374  1.0521 -0.4693
  201MOL0     H26528   6.863   7.690   4.828  0.4794 -0.6798  2.5722
  201MOL0     H26529   6.928   7.824   4.731  0.5507  3.0573  0.4827
  201MOL0     H26530   7.284   7.616   4.828  0.0974  0.4749 -1.7321
  201MOL0     H26531   6.671   7.504   5.219  0.1273  0.6725 -0.0611
  201MOL0     H26532   6.442   7.410   5.297 -3.3446  0.9838  1.5360
  202MOL0     O26533   8.449   9.416   3.543 -0.0749  0.6124 -0.7069
  202MOL0     C26534   8.467   9.496   3.638 -0.7277  0.2745 -0.1217
  202MOL0     O26535   8.579   9.507   3.707  0.8822 -0.0924  0.1110
  202MOL0     C26536   8.684   9.445   3.653 -0.7867  0.4014 -0.7010
  202MOL0     C26537   8.756   9.524   3.561 -0.2994  0.4113 -0.3575
  202MOL0     C26538   8.880   9.470   3.503  1.2528 -0.1622  0.7953
  202MOL0     C26539   8.913   9.335   3.519 -0.7832  0.4111  0.6340
  202MOL0     O26540   9.031   9.289   3.464 -0.4383 -0.2506 -0.9532
  202MOL0     C26541   9.145   9.338   3.538  0.4265  0.8258 -0.1403
  202MOL0     C26542   9.260   9.267   3.464 -0.2216  0.9443  0.0130
  202MOL0     C26543   9.387   9.336   3.504 -0.3033 -0.0786  0.1245
  202MOL0     C26544   9.512   9.296   3.422  0.1370 -1.3345 -0.6704
  202MOL0     C26545   9.641   9.338   3.490  0.0863  0.6974  0.3833
  202MOL0     C26546   9.691   9.473   3.435 -0.3866 -0.2372  0.4859
  202MOL0     C26547   9.818   9.502   3.515 -0.2122 -0.9773  0.1621
  202MOL0     C26548   9.881   9.627   3.457 -0.0918  0.3099 -0.4463
  202MOL0     N26549  10.023   9.622   3.494 -0.4717  0.2955 -0.0840
  202MOL0     C26550  10.118   9.572   3.407  0.0197  0.7194 -0.0375
  202MOL0     C26551  10.235   9.574   3.473  0.3380  0.5482  0.3472
  202MOL0     C26552  10.372   9.551   3.425  0.7257 -0.0281  0.6798
  202MOL0     C26553  10.382   9.563   3.274 -0.4266  0.7983 -0.2025
  202MOL0     C26554  10.371   9.705   3.233 -0.1026 -0.7104 -0.9070
  202MOL0     C26555  10.363   9.727   3.076 -0.1051 -1.1750  0.6104
  202MOL0     O26556  10.251   9.656   3.033 -0.1650  0.4180 -0.4920
  202MOL0     C26557  10.126   9.698   3.062  1.3246 -0.4636  0.2125
  202MOL0     C26558  10.083   9.812   3.129 -0.4238 -0.8683  0.0446
  202MOL0     C26559   9.949   9.845   3.165 -0.5891  0.3853  0.6359
  202MOL0     C26560   9.846   9.760   3.116  0.0253 -0.3210  0.1188
  202MOL0     C26561   9.708   9.792   3.145  0.1642 -0.0794 -0.1914
  202MOL0     O26562   9.614   9.703   3.107 -0.4437  0.4315 -0.1511
  202MOL0     C26563   9.481   9.717   3.142 -0.6725 -0.9628  0.7045
  202MOL0     C26564   9.409   9.600   3.179  0.2653 -0.5742  0.6260
  202MOL0     C26565   9.274   9.594   3.203  0.1661  0.2926 -0.3093
  202MOL0     C26566   9.196   9.712   3.196 -0.1692 -0.4355  0.0155
  202MOL0     O26567   9.063   9.704   3.216 -0.1331  0.3831  0.4299
  202MOL0     C26568   8.992   9.827   3.209  0.1471  0.3592  0.4639
  202MOL0     C26569   8.858   9.784   3.267  0.0409  0.2195 -0.5243
  202MOL0     C26570   8.770   9.909   3.286 -0.4322  0.0652 -0.3793
  202MOL0     C26571   8.638   9.869   3.342 -0.6567  0.4765 -1.0858
  202MOL0     C26572   8.553   9.994   3.374  0.4991 -0.3036  0.9259
  202MOL0     C26573   8.423   9.962   3.444 -0.3469  0.2154  0.3214
  202MOL0     C26574   8.343  10.090   3.458  0.6174  0.5231  0.8185
  202MOL0     C26575   8.223  10.058   3.541  0.0430  0.6371 -1.4514
  202MOL0    Cl26576   8.088  10.167   3.522 -0.2238  0.0987  0.0227
  202MOL0     C26577   9.259   9.829   3.156 -0.4471  0.8019 -0.4181
  202MOL0     C26578   9.393   9.835   3.134 -0.5933  0.3108  0.0846
  202MOL0     O26579   9.682   9.896   3.203  0.6461  0.7024 -0.2914
  202MOL0     C26580   9.887   9.640   3.037 -0.7264 -0.0134 -0.5588
  202MOL0     C26581  10.025   9.605   3.025 -0.6128 -0.1130 -0.4645
  202MOL0     N26582  10.210   9.607   3.605  0.2918 -0.0323  0.2904
  202MOL0     N26583  10.088   9.654   3.614  0.1740  0.5162  0.0571
  202MOL0     C26584   8.839   9.259   3.605 -0.0317 -0.1773 -0.5329
  202MOL0     C26585   8.725   9.317   3.668  0.5090  0.1282  0.7355
  202MOL0     C26586   8.343   9.567   3.691  0.2883 -0.1401  0.2617
  202MOL0     C26587   8.359   9.685   3.768  0.6216 -0.6151  0.3563
  202MOL0     C26588   8.254   9.770   3.806  0.1287 -0.3828 -0.0974
  202MOL0     C26589   8.123   9.735   3.774 -0.0803  0.2237 -0.8873
  202MOL0     O26590   8.031   9.835   3.818 -0.1184  0.5359  0.2796
  202MOL0     C26591   7.890   9.820   3.790 -0.0691 -0.4118  0.1913
  202MOL0     C26592   7.860   9.863   3.649 -0.8817  0.3967  0.1478
  202MOL0     C26593   7.712   9.853   3.603 -0.1096 -0.0393  0.5868
  202MOL0     C26594   7.661   9.712   3.614  0.1362 -0.1206  0.4271
  202MOL0     C26595   7.512   9.700   3.592  0.2767  0.2418 -0.5164
  202MOL0     C26596   7.390   9.682   3.589 -0.2152 -1.2486 -0.5206
  202MOL0     C26597   8.106   9.610   3.708  0.8991 -0.2324 -0.0418
  202MOL0     C26598   8.215   9.535   3.662  0.2002 -0.2707  0.1427
  202MOL0     H26599   8.720   9.624   3.539  0.7411  1.2977  1.6718
  202MOL0     H26600   8.926   9.529   3.426  0.4104 -2.0351 -1.2516
  202MOL0     H26601   9.132   9.319   3.645 -2.1425  1.0151 -0.3383
  202MOL0     H26602   9.149   9.446   3.524 -2.6524  0.9529 -0.8432
  202MOL0     H26603   9.245   9.285   3.357 -2.7091  1.1845  0.3270
  202MOL0     H26604   9.253   9.160   3.485  1.1466  0.6113 -1.0777
  202MOL0     H26605   9.399   9.313   3.610 -3.9400  0.6555  0.8430
  202MOL0     H26606   9.370   9.444   3.494 -0.7714 -0.1186  0.4181
  202MOL0     H26607   9.508   9.186   3.423  0.2997 -1.3525  1.5816
  202MOL0     H26608   9.514   9.344   3.324  0.0434  0.8384  0.3469
  202MOL0     H26609   9.713   9.259   3.466 -2.5724 -1.5953 -0.5961
  202MOL0     H26610   9.630   9.348   3.598 -0.7207  2.5723  0.1551
  202MOL0     H26611   9.608   9.545   3.443  1.0574  1.7616 -1.4277
  202MOL0     H26612   9.720   9.453   3.332  2.0048 -5.0610  1.8020
  202MOL0     H26613   9.806   9.512   3.624 -2.5223  1.1629 -0.1695
  202MOL0     H26614   9.893   9.425   3.499 -0.2199 -1.2259  1.2222
  202MOL0     H26615   9.840   9.718   3.501 -0.1433  0.6196 -1.1121
  202MOL0     H26616   9.877   9.633   3.348  1.0298 -1.0355 -0.5848
  202MOL0     H26617  10.104   9.535   3.305 -0.5563  2.1924 -0.5135
  202MOL0     H26618  10.402   9.452   3.461 -0.0880 -0.1972  0.9152
  202MOL0     H26619  10.437   9.623   3.474  1.9559 -1.0723  0.6455
  202MOL0     H26620  10.304   9.504   3.225 -0.8276  3.1351 -2.6716
  202MOL0     H26621  10.482   9.530   3.244 -0.3851 -1.3833  2.0502
  202MOL0     H26622  10.290   9.748   3.293  0.2230 -1.2312 -0.0740
  202MOL0     H26623  10.458   9.762   3.265 -0.2129 -0.5820 -0.8349
  202MOL0     H26624  10.442   9.679   3.018  0.6772  0.0987  0.6019
  202MOL0     H26625  10.362   9.834   3.056  0.5307 -0.7637  2.5989
  202MOL0     H26626  10.159   9.882   3.164 -2.4283  1.0925  0.7170
  202MOL0     H26627   9.924   9.932   3.225  0.3520  0.7773  0.4766
  202MOL0     H26628   9.468   9.509   3.175  4.4837  1.8963  0.7721
  202MOL0     H26629   9.235   9.498   3.233 -0.3243  0.7381  0.5015
  202MOL0     H26630   8.988   9.863   3.106  0.3242  0.8259  0.6157
  202MOL0     H26631   9.031   9.905   3.275 -0.1959  1.2455 -0.3568
  202MOL0     H26632   8.862   9.741   3.368 -0.2623  0.5082 -0.3862
  202MOL0     H26633   8.806   9.715   3.200 -1.0255 -0.0619  0.5452
  202MOL0     H26634   8.758   9.964   3.192  0.3385 -0.8162 -1.0124
  202MOL0     H26635   8.824   9.976   3.353  0.2088 -1.5932  0.8245
  202MOL0     H26636   8.585   9.802   3.273  0.2693  1.9969 -3.3868
  202MOL0     H26637   8.658   9.817   3.436  2.1800  1.0518 -1.2950
  202MOL0     H26638   8.539  10.034   3.274  1.4763 -1.5604  0.2605
  202MOL0     H26639   8.606  10.066   3.437 -0.7480 -0.0833  1.7805
  202MOL0     H26640   8.456   9.927   3.542  0.3233 -1.5167 -0.4688
  202MOL0     H26641   8.369   9.879   3.397  1.2022 -1.4963  1.4299
  202MOL0     H26642   8.412  10.161   3.505 -0.7263  1.9759  0.6500
  202MOL0     H26643   8.318  10.140   3.364  4.0922  3.6345  1.3045
  202MOL0     H26644   8.245  10.047   3.647 -0.0731  1.7620 -1.2963
  202MOL0     H26645   8.176   9.963   3.516 -1.4022  0.8620  0.2360
  202MOL0     H26646   9.195   9.916   3.146 -1.9362 -0.0811  0.9349
  202MOL0     H26647   9.442   9.930   3.113  4.4485 -1.0857  3.5242
  202MOL0     H26648   9.823   9.573   2.981  0.6971 -0.2446 -1.9633
  202MOL0     H26649  10.061   9.518   2.970 -0.4089 -1.6027  1.9178
  202MOL0     H26650   8.866   9.156   3.623  0.6909 -0.0936 -1.0803
  202MOL0     H26651   8.666   9.256   3.737  0.9023 -0.5912  0.4530
  202MOL0     H26652   8.464   9.709   3.783  0.4072 -0.4678  1.7191
  202MOL0     H26653   8.263   9.870   3.848  1.1095 -0.8117  0.7497
  202MOL0     H26654   7.824   9.875   3.857  1.4440  2.4010 -0.4978
  202MOL0     H26655   7.867   9.713   3.790  1.0044 -0.6632  1.0706
  202MOL0     H26656   7.898   9.964   3.634 -2.0491  0.7150 -0.8305
  202MOL0     H26657   7.916   9.789   3.589  0.7198 -0.0049  2.0363
  202MOL0     H26658   7.696   9.894   3.503  1.3271  3.3611  1.5951
  202MOL0     H26659   7.666   9.925   3.671  0.2219  0.0771  0.6897
  202MOL0     H26660   7.710   9.653   3.536  0.3158 -0.5464  0.8580
  202MOL0     H26661   7.680   9.675   3.715  1.7536 -1.2360 -0.2396
  202MOL0     H26662   7.283   9.670   3.585 -0.3871 -0.9772  1.8035
  202MOL0     H26663   8.002   9.583   3.691  0.2587  0.8938  1.7665
  202MOL0     H26664   8.188   9.461   3.588  2.2535 -0.2303 -0.6895
  203MOL0     O26665   9.990   9.566   4.774  0.6051  0.7814  0.2645
  203MOL0     C26666  10.001   9.646   4.681  0.3845  0.4778  0.1024
  203MOL0     O26667   9.897   9.708   4.626  0.1100 -0.6013  0.0438
  203MOL0     C26668   9.766   9.676   4.661 -0.3988  0.2742 -0.8409
  203MOL0     C26669   9.676   9.780   4.644  0.1134 -0.0735  0.0919
  203MOL0     C26670   9.536   9.752   4.661 -0.1321  0.1529  0.0606
  203MOL0     C26671   9.495   9.629   4.706  0.3435 -1.0693 -0.2128
  203MOL0     O26672   9.361   9.614   4.734 -0.2837  0.3903  0.2476
  203MOL0     C26673   9.305   9.485   4.698 -0.6709 -0.8343 -0.0962
  203MOL0     C26674   9.160   9.482   4.729 -0.0243 -0.6699 -0.4244
  203MOL0     C26675   9.070   9.581   4.649  0.1397 -0.4863 -0.8206
  203MOL0     C26676   8.920   9.599   4.700  0.0081  0.5647 -0.1660
  203MOL0     C26677   8.839   9.678   4.592  0.3825  0.0248  0.1399
  203MOL0     C26678   8.719   9.737   4.653  0.6706  0.1386  0.0774
  203MOL0     C26679   8.635   9.812   4.548  0.5675 -0.1484  0.1943
  203MOL0     C26680   8.554   9.722   4.455  0.1582  0.1181 -0.2282
  203MOL0     N26681   8.429   9.676   4.516  0.9178 -0.4224 -0.1153
  203MOL0     C26682   8.308   9.742   4.501  0.4157 -0.7716  0.4336
  203MOL0     C26683   8.213   9.660   4.551  0.0889  0.5539  0.4358
  203MOL0     C26684   8.066   9.696   4.567 -0.0422 -0.9393 -1.5208
  203MOL0     C26685   8.004   9.803   4.475  0.0731 -0.4400  0.0520
  203MOL0     C26686   7.853   9.785   4.474  0.6877 -0.3927 -0.6199
  203MOL0     C26687   7.788   9.790   4.610 -0.1420 -0.4018  0.0505
  203MOL0     O26688   7.648   9.795   4.590  0.7819 -0.4909  0.1329
  203MOL0     C26689   7.574   9.912   4.580 -0.0509  0.0334  0.3109
  203MOL0     C26690   7.629  10.042   4.575 -0.0515 -0.0441 -0.1772
  203MOL0     C26691   7.552  10.157   4.583  0.0334  0.0966 -0.1702
  203MOL0     C26692   7.415  10.136   4.590  0.2644  1.1401  0.1465
  203MOL0     C26693   7.319  10.244   4.581  0.2600  0.4712  0.7371
  203MOL0     O26694   7.186  10.221   4.608 -0.3123 -0.0291  0.3641
  203MOL0     C26695   7.098  10.323   4.567  0.8236  0.1209 -0.0279
  203MOL0     C26696   6.994  10.352   4.658 -0.8791 -0.3334  0.1130
  203MOL0     C26697   6.896  10.444   4.626 -0.0074  0.1116 -0.5177
  203MOL0     C26698   6.892  10.498   4.500 -0.4448 -0.8274  0.3078
  203MOL0     O26699   6.785  10.575   4.464 -0.2638  0.4760 -0.0113
  203MOL0     C26700   6.662  10.518   4.502  0.1346 -0.2295  0.0793
  203MOL0     C26701   6.551  10.582   4.416  0.4563  0.1502 -0.0134
  203MOL0     C26702   6.413  10.532   4.448  0.8676  0.0952 -0.4661
  203MOL0     C26703   6.300  10.583   4.356  0.4719 -0.1748 -0.2311
  203MOL0     C26704   6.155  10.543   4.397  0.7670  0.9033  0.1311
  203MOL0     C26705   6.117  10.395   4.360  0.0402  0.0033  0.8832
  203MOL0     C26706   6.156  10.340   4.219 -0.3206 -0.7674 -0.1243
  203MOL0     C26707   6.058  10.228   4.179  0.0026 -0.2215  0.4764
  203MOL0    Cl26708   6.098  10.137   4.033 -0.0182  0.0213  0.1485
  203MOL0     C26709   6.988  10.473   4.415 -0.5297 -0.5264  0.1711
  203MOL0     C26710   7.093  10.386   4.442  0.1070 -0.6947  0.2360
  203MOL0     O26711   7.361  10.352   4.555 -0.9564 -0.0350 -0.2549
  203MOL0     C26712   7.355  10.008   4.583 -0.5413  0.5871 -0.0076
  203MOL0     C26713   7.436   9.898   4.582  0.0479 -0.7470  0.4061
  203MOL0     N26714   8.278   9.547   4.606  0.4105 -0.2939 -0.2356
  203MOL0     N26715   8.402   9.562   4.587  0.7193  0.0962  0.1946
  203MOL0     C26716   9.588   9.521   4.713 -1.5529  0.3270 -0.3288
  203MOL0     C26717   9.720   9.542   4.688 -0.7732 -0.9477  0.0640
  203MOL0     C26718  10.131   9.662   4.629 -1.0665  0.1269 -0.5527
  203MOL0     C26719  10.233   9.560   4.647 -0.1858  0.2950  0.2683
  203MOL0     C26720  10.359   9.572   4.584  0.0631 -0.3808  0.1529
  203MOL0     C26721  10.384   9.681   4.506 -0.0892 -0.7312  0.3056
  203MOL0     O26722  10.512   9.709   4.446 -0.3602  0.2156  0.0460
  203MOL0     C26723  10.558   9.607   4.362 -0.2695  0.6559  0.1183
  203MOL0     C26724  10.651   9.502   4.419  0.3147 -0.0145  0.3417
  203MOL0     C26725  10.750   9.557   4.519  0.0040 -0.7469  0.8176
  203MOL0     C26726  10.812   9.453   4.614  0.0857  0.3247  0.4549
  203MOL0     C26727  10.723   9.401   4.712  0.0223 -0.0367 -0.8074
  203MOL0     C26728  10.649   9.366   4.801 -1.0779 -0.5289 -0.3468
  203MOL0     C26729  10.299   9.793   4.495  0.0230 -0.0395 -0.2847
  203MOL0     C26730  10.173   9.780   4.553  0.7136  0.5172  0.3222
  203MOL0     H26731   9.717   9.876   4.617  1.6956 -0.2185  1.7667
  203MOL0     H26732   9.460   9.828   4.643  0.4635  0.3971 -1.6278
  203MOL0     H26733   9.347   9.408   4.763  0.7853  1.4343  1.8218
  203MOL0     H26734   9.326   9.467   4.592  1.6939  0.1589  0.1356
  203MOL0     H26735   9.142   9.512   4.833  0.8883 -0.4180 -0.3327
  203MOL0     H26736   9.118   9.382   4.715  1.2917 -1.2761 -0.1752
  203MOL0     H26737   9.068   9.547   4.545  1.6199 -0.4505 -0.8790
  203MOL0     H26738   9.113   9.681   4.656  0.5270 -0.7762  2.8970
  203MOL0     H26739   8.876   9.503   4.732 -2.0732  1.6136  0.3628
  203MOL0     H26740   8.927   9.662   4.790 -2.7665 -0.5480  0.9798
  203MOL0     H26741   8.812   9.616   4.505 -1.9991  2.0141 -0.6604
  203MOL0     H26742   8.902   9.756   4.547  0.1434  0.1630  0.0428
  203MOL0     H26743   8.743   9.796   4.742 -0.8549 -1.5228  1.6754
  203MOL0     H26744   8.656   9.654   4.688 -0.0273  1.3166  1.7610
  203MOL0     H26745   8.566   9.872   4.608  1.1511 -0.1047  0.8326
  203MOL0     H26746   8.695   9.883   4.490 -1.5245  1.3737 -0.2315
  203MOL0     H26747   8.618   9.637   4.430  4.3625  1.9911  2.8004
  203MOL0     H26748   8.532   9.775   4.362  1.6636 -0.1351 -0.7694
  203MOL0     H26749   8.293   9.841   4.458 -1.4961 -0.7856  0.9785
  203MOL0     H26750   8.048   9.736   4.667  0.0129 -0.6033 -1.6436
  203MOL0     H26751   8.001   9.608   4.562  1.3140 -1.9758 -1.3685
  203MOL0     H26752   8.042   9.786   4.374 -0.8423  1.9144 -0.7454
  203MOL0     H26753   8.037   9.904   4.500 -0.6753 -0.3284  0.6368
  203MOL0     H26754   7.812   9.858   4.404  0.4573 -1.9680 -2.1975
  203MOL0     H26755   7.832   9.686   4.433 -0.2994 -0.5561  0.2340
  203MOL0     H26756   7.828   9.874   4.667  0.9677 -1.1904  0.4621
  203MOL0     H26757   7.817   9.702   4.668  0.5568 -1.8248 -2.3059
  203MOL0     H26758   7.736  10.061   4.576 -0.0661  0.0430  0.4395
  203MOL0     H26759   7.593  10.257   4.593 -0.7207  0.6404 -2.1325
  203MOL0     H26760   7.001  10.288   4.746  0.9233  0.5261  0.6485
  203MOL0     H26761   6.820  10.455   4.703 -0.6768 -2.5814 -0.7078
  203MOL0     H26762   6.634  10.531   4.607 -1.9497 -1.6659 -0.2502
  203MOL0     H26763   6.655  10.412   4.477 -2.9320 -0.3157  0.8959
  203MOL0     H26764   6.570  10.562   4.310  0.6455 -0.5993  0.1525
  203MOL0     H26765   6.551  10.690   4.434 -1.5515  0.0190  0.9644
  203MOL0     H26766   6.378  10.570   4.544 -0.8535 -1.3126 -0.4920
  203MOL0     H26767   6.411  10.423   4.443  0.1206 -0.0068  1.3136
  203MOL0     H26768   6.296  10.692   4.363 -1.0649 -0.2989  2.3742
  203MOL0     H26769   6.320  10.534   4.261  0.3638 -1.8373  0.5539
  203MOL0     H26770   6.082  10.610   4.351  0.4647  0.5129  0.0386
  203MOL0     H26771   6.144  10.549   4.506 -1.0906  0.6330 -0.0206
  203MOL0     H26772   6.008  10.384   4.370 -0.1463 -0.4405 -1.1797
  203MOL0     H26773   6.172  10.338   4.435  2.9855 -0.5339 -1.5171
  203MOL0     H26774   6.154  10.417   4.141  1.3519  0.6082  1.1046
  203MOL0     H26775   6.262  10.313   4.223 -0.3270 -0.8233 -0.3107
  203MOL0     H26776   5.961  10.277   4.169  0.4370  0.5167 -0.2487
  203MOL0     H26777   6.059  10.146   4.251  0.9823 -1.8041 -1.2478
  203MOL0     H26778   6.991  10.527   4.321 -0.2919  2.9467  2.0025
  203MOL0     H26779   7.159  10.370   4.358  1.0983  2.6814  0.2317
  203MOL0     H26780   7.250   9.984   4.595 -0.0851 -1.6820 -0.2138
  203MOL0     H26781   7.401   9.795   4.585 -2.1038 -0.1508 -1.3285
  203MOL0     H26782   9.568   9.417   4.737 -1.8744 -0.3445 -3.2373
  203MOL0     H26783   9.786   9.456   4.677 -0.0134 -0.6421  1.9060
  203MOL0     H26784  10.214   9.476   4.712  0.2833  0.8123  1.0860
  203MOL0     H26785  10.425   9.487   4.598 -2.3447 -2.3306  0.4730
  203MOL0     H26786  10.608   9.662   4.282  1.6758 -0.6640  0.3384
  203MOL0     H26787  10.476   9.556   4.311 -0.2738 -1.2107  1.8378
  203MOL0     H26788  10.601   9.422   4.475 -2.1579  0.1857 -1.3985
  203MOL0     H26789  10.698   9.449   4.337 -0.7524 -0.9056  0.2759
  203MOL0     H26790  10.695   9.638   4.569 -0.2153  0.8882 -1.8665
  203MOL0     H26791  10.824   9.600   4.451 -0.8474  1.7861  1.3959
  203MOL0     H26792  10.843   9.362   4.563  2.5232  0.4240  1.6157
  203MOL0     H26793  10.897   9.494   4.670 -1.4020  0.9786  2.3734
  203MOL0     H26794  10.593   9.354   4.892 -3.2332  5.0101 -0.5680
  203MOL0     H26795  10.327   9.876   4.432  0.5759 -1.6138 -2.2178
  203MOL0     H26796  10.094   9.853   4.538  0.4719 -0.3716 -4.5104
  204MOL0     O26797   2.235   1.654   4.230  0.2480 -0.3270 -0.1624
  204MOL0     C26798   2.188   1.696   4.121 -0.0456  0.2155  0.5414
  204MOL0     O26799   2.256   1.775   4.036  0.0301 -0.2594  0.2869
  204MOL0     C26800   2.380   1.835   4.064 -0.4706 -0.3061  0.6828
  204MOL0     C26801   2.492   1.783   4.137  0.7208  0.0837  0.3485
  204MOL0     C26802   2.614   1.846   4.150 -0.3884  0.4407 -0.2795
  204MOL0     C26803   2.643   1.953   4.064  0.9388  0.0601  0.4770
  204MOL0     O26804   2.767   2.012   4.076 -0.2404 -0.0538  0.0425
  204MOL0     C26805   2.813   2.060   3.948  0.4653 -0.5644  0.2007
  204MOL0     C26806   2.963   2.115   3.956 -0.1186  0.1842  0.1641
  204MOL0     C26807   3.037   2.089   3.824 -0.1563  0.1737 -0.3357
  204MOL0     C26808   3.188   2.129   3.830 -0.5397 -0.1816  0.9910
  204MOL0     C26809   3.268   2.092   3.702  0.8043 -0.6022  0.9053
  204MOL0     C26810   3.416   2.153   3.697  0.1452  0.0300 -0.8076
  204MOL0     C26811   3.506   2.096   3.811  0.0566  0.2084  0.7396
  204MOL0     C26812   3.648   2.135   3.776 -0.7244  0.3334 -0.5960
  204MOL0     N26813   3.727   2.247   3.836 -0.2776  0.4581  0.2694
  204MOL0     C26814   3.812   2.236   3.944 -0.7745  0.1943 -1.0232
  204MOL0     C26815   3.869   2.357   3.956 -0.2657 -1.0352  0.7082
  204MOL0     C26816   3.969   2.395   4.062 -0.1656 -0.2806 -0.3123
  204MOL0     C26817   3.888   2.416   4.192  0.2259 -0.6298  0.1241
  204MOL0     C26818   3.780   2.521   4.176  0.9144 -0.0970 -0.0367
  204MOL0     C26819   3.639   2.465   4.140  0.5056 -1.1698 -0.6515
  204MOL0     O26820   3.594   2.350   4.212  0.7114 -0.1492  0.0329
  204MOL0     C26821   3.457   2.320   4.227  0.1466  0.3511  0.1870
  204MOL0     C26822   3.419   2.229   4.331 -0.4321  0.3390  0.5617
  204MOL0     C26823   3.287   2.190   4.361  0.4559 -0.2072 -0.2811
  204MOL0     C26824   3.183   2.251   4.286  0.2125  0.5029  0.0439
  204MOL0     C26825   3.041   2.220   4.317 -0.3682  0.3036 -0.2794
  204MOL0     O26826   3.008   2.121   4.405 -0.1060 -0.4017 -0.1400
  204MOL0     C26827   2.877   2.112   4.443 -1.1639 -0.2448  0.7798
  204MOL0     C26828   2.817   2.229   4.497 -0.1272  0.7459 -1.1753
  204MOL0     C26829   2.681   2.226   4.533  0.1064 -0.1796 -0.0687
  204MOL0     C26830   2.609   2.111   4.503 -0.5331  0.4755 -0.7542
  204MOL0     O26831   2.478   2.128   4.539  0.2265  1.0380 -0.2691
  204MOL0     C26832   2.398   2.028   4.482  0.0034  0.0969  0.1685
  204MOL0     C26833   2.256   2.063   4.528  0.1411  0.0395  0.0413
  204MOL0     C26834   2.153   1.956   4.487 -0.5323  0.1005  0.0195
  204MOL0     C26835   2.023   1.999   4.545 -0.6657  0.2561 -0.2878
  204MOL0     C26836   1.902   1.931   4.470 -0.1903 -0.5575 -0.0674
  204MOL0     C26837   1.889   1.977   4.325 -0.0223 -0.0769  0.3226
  204MOL0     C26838   1.768   1.904   4.243  0.0172 -0.3553  0.2476
  204MOL0     C26839   1.626   1.970   4.266 -0.0139  0.8113 -0.6474
  204MOL0    Cl26840   1.608   2.131   4.203 -0.2373 -0.0762 -0.2952
  204MOL0     C26841   2.667   2.002   4.446  0.1258 -0.4074  0.4330
  204MOL0     C26842   2.806   1.998   4.419 -0.2505  0.0001 -0.1916
  204MOL0     O26843   2.959   2.286   4.253 -0.2704 -0.6686  0.5959
  204MOL0     C26844   3.221   2.339   4.183 -0.3297 -0.5471  0.5541
  204MOL0     C26845   3.352   2.381   4.152 -0.5679  0.1154  0.4616
  204MOL0     N26846   3.821   2.445   3.852  0.1094 -0.0330  0.2435
  204MOL0     N26847   3.752   2.368   3.786  0.1824 -0.6790  0.4021
  204MOL0     C26848   2.538   2.007   3.987  0.2863  0.4081 -0.8041
  204MOL0     C26849   2.405   1.951   3.993  0.3296  0.0800 -0.3068
  204MOL0     C26850   2.046   1.661   4.086  0.0915  0.7321  0.0242
  204MOL0     C26851   1.963   1.570   4.153  0.3784 -0.1352 -0.7543
  204MOL0     C26852   1.835   1.541   4.102  0.2753  0.2975 -0.2575
  204MOL0     C26853   1.786   1.599   3.986 -0.7601  0.3941  0.7398
  204MOL0     O26854   1.673   1.572   3.917 -0.3991 -0.4144 -0.1021
  204MOL0     C26855   1.573   1.492   3.976 -0.6460 -0.5960  0.5486
  204MOL0     C26856   1.489   1.581   4.066 -0.1191 -0.0021 -0.3006
  204MOL0     C26857   1.406   1.685   3.985  0.5298 -0.3709 -0.3973
  204MOL0     C26858   1.487   1.809   3.952  0.4759 -0.2206 -0.2709
  204MOL0     C26859   1.393   1.911   3.905  0.1910  0.3291 -0.6397
  204MOL0     C26860   1.314   1.996   3.872  0.2037 -0.1237 -0.7283
  204MOL0     C26861   1.857   1.706   3.928 -0.3001  0.3262 -0.2301
  204MOL0     C26862   1.989   1.733   3.979  0.0098 -0.7608 -0.0067
  204MOL0     H26863   2.467   1.707   4.211 -0.4977 -1.6077 -1.6942
  204MOL0     H26864   2.686   1.813   4.223 -3.0482 -1.1383  1.7996
  204MOL0     H26865   2.742   2.139   3.920 -0.6826 -1.5458  0.2859
  204MOL0     H26866   2.805   1.985   3.869  0.2786  1.0193 -1.3671
  204MOL0     H26867   3.016   2.051   4.027  0.0003 -0.3986 -0.4432
  204MOL0     H26868   2.970   2.218   3.992  1.5929  0.8587 -1.9061
  204MOL0     H26869   2.995   2.136   3.734  1.7710 -0.5545 -1.7093
  204MOL0     H26870   3.034   1.981   3.811 -2.1753  0.1191  0.2915
  204MOL0     H26871   3.184   2.236   3.851 -3.2387 -0.7165  4.0254
  204MOL0     H26872   3.224   2.074   3.917 -1.6997  1.4448  2.5603
  204MOL0     H26873   3.203   2.132   3.624  2.8743 -3.9159 -2.8633
  204MOL0     H26874   3.273   1.984   3.691 -0.9229 -0.6274  0.1262
  204MOL0     H26875   3.403   2.261   3.708 -3.0035 -0.4089  1.1015
  204MOL0     H26876   3.458   2.125   3.600  1.6703 -1.0884  0.1271
  204MOL0     H26877   3.464   2.137   3.904 -1.2475  1.5333 -0.3769
  204MOL0     H26878   3.488   1.988   3.811 -3.2080  0.6136 -1.0897
  204MOL0     H26879   3.661   2.145   3.668  0.3896 -1.6408 -0.6990
  204MOL0     H26880   3.708   2.046   3.797  1.0370  1.3197 -1.1530
  204MOL0     H26881   3.846   2.150   4.000  3.3738  0.7831 -2.2931
  204MOL0     H26882   4.016   2.494   4.049 -0.7605 -0.0095 -0.4238
  204MOL0     H26883   4.049   2.321   4.071  2.4215  2.2222 -0.9703
  204MOL0     H26884   3.966   2.451   4.259 -1.3148  1.5151  0.9034
  204MOL0     H26885   3.844   2.324   4.232 -2.9678 -0.0706 -1.7003
  204MOL0     H26886   3.774   2.565   4.276 -1.0853 -0.2150 -0.0592
  204MOL0     H26887   3.797   2.600   4.103 -0.3592 -0.4834 -0.7935
  204MOL0     H26888   3.625   2.459   4.032 -1.2576  1.6016 -0.6814
  204MOL0     H26889   3.564   2.541   4.163 -0.9779 -2.3077 -1.5064
  204MOL0     H26890   3.496   2.170   4.380 -1.9142 -1.5204  0.7134
  204MOL0     H26891   3.255   2.133   4.448 -2.4872  0.7262 -0.6250
  204MOL0     H26892   2.881   2.316   4.506  1.4021 -0.2211 -2.2721
  204MOL0     H26893   2.620   2.314   4.546 -1.2425 -0.7197 -2.2206
  204MOL0     H26894   2.420   1.927   4.519 -2.3957 -0.7879 -0.6094
  204MOL0     H26895   2.404   2.036   4.373 -0.0431  1.3136  0.2430
  204MOL0     H26896   2.232   2.156   4.476  1.6018 -0.6583 -1.9956
  204MOL0     H26897   2.253   2.081   4.636  1.7840 -0.4922  0.2048
  204MOL0     H26898   2.178   1.854   4.520  1.0506  1.1507  2.3451
  204MOL0     H26899   2.159   1.946   4.378 -2.8396  2.1441 -0.3791
  204MOL0     H26900   2.021   1.971   4.650 -1.1672  0.2446 -0.2946
  204MOL0     H26901   2.017   2.108   4.541 -0.3474  0.3408  1.2141
  204MOL0     H26902   1.806   1.950   4.519 -0.4468 -0.0002 -0.7554
  204MOL0     H26903   1.916   1.823   4.461  1.2642 -0.3698 -0.2079
  204MOL0     H26904   1.987   1.972   4.276  0.0763 -0.7389  0.5811
  204MOL0     H26905   1.861   2.083   4.327  0.4223  0.0914 -1.1969
  204MOL0     H26906   1.789   1.944   4.143 -1.8722  2.2319  0.7851
  204MOL0     H26907   1.774   1.795   4.244  1.8481 -0.3574  3.5078
  204MOL0     H26908   1.618   1.960   4.375 -0.9906  0.1673 -0.7603
  204MOL0     H26909   1.539   1.913   4.231  1.1042  0.1337 -2.4590
  204MOL0     H26910   2.613   1.911   4.423  2.6592 -1.5210 -1.5232
  204MOL0     H26911   2.850   1.914   4.367 -2.1725 -2.2577  1.6124
  204MOL0     H26912   3.139   2.395   4.139  1.7238  0.9047 -1.7007
  204MOL0     H26913   3.375   2.457   4.078 -1.9526  1.2119  1.1161
  204MOL0     H26914   2.539   2.107   3.945 -0.1578  1.0626  0.6610
  204MOL0     H26915   2.321   1.993   3.940 -0.9618 -2.0453 -0.0334
  204MOL0     H26916   1.997   1.518   4.242  0.7370 -1.5970 -1.7034
  204MOL0     H26917   1.775   1.475   4.164  0.3598  0.9616  0.5366
  204MOL0     H26918   1.601   1.408   4.040 -2.1135  0.7050  3.0463
  204MOL0     H26919   1.508   1.459   3.895  0.4692  0.8280 -1.0157
  204MOL0     H26920   1.419   1.514   4.118 -0.6120  0.0068 -0.9545
  204MOL0     H26921   1.544   1.632   4.146  1.8976 -1.7681 -0.4755
  204MOL0     H26922   1.321   1.711   4.049  0.6894 -2.1929  0.6300
  204MOL0     H26923   1.369   1.635   3.896  2.2485  1.4150 -2.2115
  204MOL0     H26924   1.544   1.850   4.036 -0.0265  0.9253 -0.4597
  204MOL0     H26925   1.553   1.793   3.866 -0.6871  0.5838 -1.3426
  204MOL0     H26926   1.225   2.050   3.848 -0.2487 -1.1614 -1.4562
  204MOL0     H26927   1.806   1.775   3.861 -1.8783  0.9709  1.5190
  204MOL0     H26928   2.043   1.818   3.938 -1.0091  1.3011  2.6481
  205MOL0     O26929  10.284   3.431   9.173 -0.4349  0.6375  0.2567
  205MOL0     C26930  10.379   3.503   9.143 -0.0583  0.1577  0.1435
  205MOL0     O26931  10.407   3.619   9.192  0.8154  0.1070  0.1399
  205MOL0     C26932  10.306   3.676   9.273  0.2179  0.6955 -0.9848
  205MOL0     C26933  10.235   3.780   9.217  0.3692 -0.4747 -0.3658
  205MOL0     C26934  10.136   3.841   9.295  0.1427  0.2291 -0.0885
  205MOL0     C26935  10.111   3.802   9.425  0.9351 -1.0018  0.1942
  205MOL0     O26936  10.021   3.877   9.495 -0.7543 -0.1995 -0.4062
  205MOL0     C26937   9.974   3.826   9.620  0.7596  0.2403 -0.1029
  205MOL0     C26938   9.843   3.891   9.662  0.1452 -0.2978  0.1928
  205MOL0     C26939   9.727   3.847   9.562  0.9666 -0.0808 -0.3443
  205MOL0     C26940   9.593   3.865   9.630 -0.2004  0.6069  0.8347
  205MOL0     C26941   9.473   3.824   9.534  0.0994  0.0827  0.4230
  205MOL0     C26942   9.451   3.947   9.439  0.4785  0.2973  0.6475
  205MOL0     C26943   9.329   3.920   9.347 -0.9195  0.7087 -0.1675
  205MOL0     C26944   9.347   3.809   9.229  1.1716 -0.1357  0.0557
  205MOL0     N26945   9.482   3.816   9.167 -0.6233  0.7117  0.9226
  205MOL0     C26946   9.605   3.748   9.216  0.9458 -0.4988  0.2465
  205MOL0     C26947   9.697   3.785   9.130 -0.0610 -0.5056 -0.0877
  205MOL0     C26948   9.844   3.736   9.137 -0.0345  0.1240  0.6229
  205MOL0     C26949   9.843   3.604   9.063 -0.3440 -0.6590  0.3025
  205MOL0     C26950   9.982   3.533   9.073 -0.2501 -0.0301  0.1448
  205MOL0     C26951   9.993   3.407   8.990 -0.7774  0.1329  1.0044
  205MOL0     O26952   9.938   3.430   8.855 -0.0529  0.3118  0.2259
  205MOL0     C26953   9.911   3.309   8.795 -0.7644  0.3603 -0.3779
  205MOL0     C26954   9.780   3.265   8.803 -0.3198  0.7661  0.5686
  205MOL0     C26955   9.747   3.133   8.759  0.5997 -0.5646 -0.5162
  205MOL0     C26956   9.846   3.037   8.714  0.0042 -0.2208  1.3354
  205MOL0     C26957   9.799   2.903   8.675 -0.4337 -0.1837 -0.0564
  205MOL0     O26958   9.665   2.886   8.656  0.4497  0.3243  0.5395
  205MOL0     C26959   9.607   2.756   8.634  0.1123  0.1412  0.6060
  205MOL0     C26960   9.496   2.741   8.547 -0.0832  0.6256 -0.1258
  205MOL0     C26961   9.438   2.612   8.526 -0.5292  0.1487  0.2493
  205MOL0     C26962   9.497   2.494   8.576 -0.5708 -0.3626  0.2398
  205MOL0     O26963   9.456   2.370   8.552  0.1765  0.0792  0.1298
  205MOL0     C26964   9.332   2.351   8.495 -0.2019  0.2372 -0.1845
  205MOL0     C26965   9.317   2.199   8.518 -0.5521 -0.8705  0.6527
  205MOL0     C26966   9.204   2.157   8.427  0.9877  0.0149  0.0028
  205MOL0     C26967   9.187   2.010   8.421 -0.0138 -0.5673 -0.4137
  205MOL0     C26968   9.077   1.980   8.315 -0.3725  0.6488  0.5193
  205MOL0     C26969   8.937   2.033   8.348  0.0847  0.6169  0.2632
  205MOL0     C26970   8.830   1.976   8.265  0.0372  0.0152  0.3307
  205MOL0     C26971   8.820   1.821   8.240  0.3826 -0.3273 -0.0557
  205MOL0    Cl26972   8.668   1.779   8.169 -0.2361 -0.2071 -0.1995
  205MOL0     C26973   9.610   2.513   8.653 -0.6306  0.4633  0.3804
  205MOL0     C26974   9.663   2.639   8.688  0.4895 -0.3681 -0.5298
  205MOL0     O26975   9.883   2.820   8.639 -0.1340 -0.6645  0.1076
  205MOL0     C26976   9.980   3.089   8.702  0.8781  0.1381  0.6078
  205MOL0     C26977  10.011   3.227   8.746 -0.0774  0.0402  0.3211
  205MOL0     N26978   9.634   3.854   9.024 -0.3600 -0.0340 -0.4995
  205MOL0     N26979   9.513   3.879   9.051  0.0620 -0.0860 -0.7467
  205MOL0     C26980  10.181   3.698   9.476  0.1739 -0.3351 -0.3878
  205MOL0     C26981  10.286   3.635   9.407  1.8478  0.2422 -0.3525
  205MOL0     C26982  10.489   3.436   9.063  0.1735  0.4146  0.2682
  205MOL0     C26983  10.485   3.299   9.027 -0.3029  0.4171 -0.0472
  205MOL0     C26984  10.579   3.236   8.938  0.6599  0.5209 -0.1588
  205MOL0     C26985  10.691   3.320   8.897 -1.3142 -0.2247 -0.0519
  205MOL0     O26986  10.795   3.264   8.822  0.6501 -0.0040 -0.3468
  205MOL0     C26987  10.824   3.337   8.695  0.2805 -0.4572 -0.0549
  205MOL0     C26988  10.702   3.336   8.609  0.6413  0.3627  0.3604
  205MOL0     C26989  10.647   3.193   8.570  0.3381  0.0676  0.0227
  205MOL0     C26990  10.493   3.198   8.544  0.2637  0.6649 -0.5698
  205MOL0     C26991  10.426   3.067   8.545  0.0629 -0.8277 -0.1157
  205MOL0     C26992  10.361   2.972   8.536 -0.2923  0.8113  0.2599
  205MOL0     C26993  10.705   3.452   8.947 -0.0287 -0.0781 -0.1738
  205MOL0     C26994  10.600   3.507   9.018 -0.1479 -0.0736 -0.4170
  205MOL0     H26995  10.241   3.802   9.111  1.0285 -0.6379 -0.3659
  205MOL0     H26996  10.084   3.927   9.255  0.4486  1.2397  1.6050
  205MOL0     H26997  10.054   3.837   9.694  0.3512 -1.5618  0.6676
  205MOL0     H26998   9.960   3.718   9.618  1.5183  0.1280  0.1566
  205MOL0     H26999   9.849   4.000   9.655 -0.2839 -0.3831 -2.5372
  205MOL0     H27000   9.822   3.843   9.758 -1.8637 -0.1607 -0.1402
  205MOL0     H27001   9.739   3.742   9.535 -0.2703 -0.0626 -0.9932
  205MOL0     H27002   9.732   3.901   9.467 -2.1462  0.0460 -0.5446
  205MOL0     H27003   9.603   3.795   9.713  0.4713 -3.7042 -2.4888
  205MOL0     H27004   9.566   3.961   9.675 -0.0417  1.1248 -0.1460
  205MOL0     H27005   9.376   3.810   9.583  0.0498 -0.9467  0.0430
  205MOL0     H27006   9.500   3.732   9.482 -0.9489  0.6813 -1.2748
  205MOL0     H27007   9.544   3.964   9.386 -0.4405  1.0014 -0.7927
  205MOL0     H27008   9.431   4.033   9.505 -1.7087 -0.5867  1.2239
  205MOL0     H27009   9.244   3.889   9.407 -0.1166  1.5684  1.4971
  205MOL0     H27010   9.296   4.011   9.296  1.4690  1.2103 -0.9509
  205MOL0     H27011   9.276   3.837   9.151 -0.0866 -1.8691  0.4926
  205MOL0     H27012   9.313   3.711   9.265 -2.6328  0.5794 -1.1091
  205MOL0     H27013   9.607   3.675   9.296 -0.0570 -0.5393  0.2423
  205MOL0     H27014   9.874   3.718   9.240 -2.1202  0.1584  1.2772
  205MOL0     H27015   9.916   3.810   9.099 -1.5030  0.8971 -0.7565
  205MOL0     H27016   9.833   3.637   8.959  0.5245 -2.4561 -0.4088
  205MOL0     H27017   9.762   3.537   9.093  1.0303 -2.2896  0.5538
  205MOL0     H27018  10.054   3.608   9.040 -1.8710  0.7462 -1.8457
  205MOL0     H27019  10.011   3.515   9.177 -0.1874  1.0505  0.3272
  205MOL0     H27020   9.947   3.322   9.040  3.6650 -2.1860  1.6191
  205MOL0     H27021  10.098   3.379   8.978 -0.2448  2.4801 -0.5763
  205MOL0     H27022   9.698   3.326   8.837 -1.8740 -2.0059  2.1735
  205MOL0     H27023   9.643   3.103   8.762  0.5765 -0.4835 -0.5382
  205MOL0     H27024   9.454   2.823   8.488 -2.8011 -2.0911 -2.2798
  205MOL0     H27025   9.351   2.624   8.462  0.7186  1.2666 -1.3283
  205MOL0     H27026   9.336   2.390   8.393  1.0101  1.6366  0.3772
  205MOL0     H27027   9.254   2.395   8.558 -0.0847 -1.2358  1.0558
  205MOL0     H27028   9.298   2.183   8.624  1.2707 -3.6022  0.6650
  205MOL0     H27029   9.399   2.132   8.491 -1.9228 -2.0874 -0.6251
  205MOL0     H27030   9.222   2.208   8.332 -2.6823  4.5867  1.3468
  205MOL0     H27031   9.112   2.202   8.466  1.2122  0.7584 -0.3112
  205MOL0     H27032   9.278   1.958   8.390  0.8296  2.4165 -3.4192
  205MOL0     H27033   9.139   1.978   8.514 -1.9283  1.6244 -0.5675
  205MOL0     H27034   9.067   1.873   8.294  1.2747  0.5315  0.2679
  205MOL0     H27035   9.109   2.028   8.222 -2.1183 -0.9775 -1.0166
  205MOL0     H27036   8.930   2.143   8.351 -0.0531  0.7028 -1.8325
  205MOL0     H27037   8.919   1.985   8.445  1.3398 -0.7814 -0.1829
  205MOL0     H27038   8.731   2.015   8.293 -0.7019  0.1661 -2.2497
  205MOL0     H27039   8.834   2.015   8.163 -4.2425 -2.2551 -0.9385
  205MOL0     H27040   8.831   1.766   8.334 -2.4214 -0.5970  0.1961
  205MOL0     H27041   8.891   1.788   8.163  4.9312  3.2225  2.1216
  205MOL0     H27042   9.665   2.426   8.686 -1.0393 -0.0654 -0.3188
  205MOL0     H27043   9.750   2.651   8.753 -0.0911  0.2903  0.1527
  205MOL0     H27044  10.066   3.025   8.680 -0.0570 -0.8647 -0.2436
  205MOL0     H27045  10.118   3.246   8.743 -0.1463  1.4649  3.5176
  205MOL0     H27046  10.159   3.652   9.572 -1.8115  0.2761 -0.5077
  205MOL0     H27047  10.345   3.552   9.445  1.3246  0.5092  1.0726
  205MOL0     H27048  10.407   3.232   9.064 -0.5791  0.7202 -0.0797
  205MOL0     H27049  10.577   3.131   8.912  0.5526  0.3851  0.3829
  205MOL0     H27050  10.898   3.279   8.638 -0.0153  1.6603 -2.8206
  205MOL0     H27051  10.869   3.434   8.715  0.6773 -0.5755 -0.3469
  205MOL0     H27052  10.631   3.395   8.667 -0.5531  0.5393 -1.2174
  205MOL0     H27053  10.720   3.397   8.521 -1.0891  2.0132  1.0961
  205MOL0     H27054  10.663   3.127   8.656 -0.7138 -0.1436  0.0707
  205MOL0     H27055  10.704   3.154   8.485  0.0677 -0.2410 -0.0156
  205MOL0     H27056  10.450   3.255   8.627  1.3036 -1.6371  1.6962
  205MOL0     H27057  10.476   3.244   8.447  2.4534  0.2827 -1.1689
  205MOL0     H27058  10.304   2.881   8.529  2.1167 -0.6594 -1.6085
  205MOL0     H27059  10.789   3.515   8.921  0.2051  0.6812  2.1396
  205MOL0     H27060  10.618   3.609   9.048 -0.9785  0.2145 -0.8835
  206MOL0     O27061   5.323   1.725   1.539  0.0938  0.0763  0.5549
  206MOL0     C27062   5.394   1.665   1.461  0.0542  0.0168  0.7204
  206MOL0     O27063   5.353   1.586   1.362 -0.5990 -0.3079 -0.1284
  206MOL0     C27064   5.222   1.550   1.339 -0.3669  0.0165  0.5557
  206MOL0     C27065   5.110   1.627   1.371  0.3040 -0.1327  1.0946
  206MOL0     C27066   4.981   1.582   1.348  0.5739 -0.1871  0.4505
  206MOL0     C27067   4.956   1.466   1.280  0.3672  0.2492 -0.0638
  206MOL0     O27068   4.835   1.404   1.262  0.0896 -0.3360  1.2170
  206MOL0     C27069   4.727   1.497   1.261  0.6542 -0.1182  0.3920
  206MOL0     C27070   4.600   1.404   1.222 -0.5636 -0.6652  0.7685
  206MOL0     C27071   4.573   1.283   1.300 -1.0138 -0.0085  0.5093
  206MOL0     C27072   4.457   1.202   1.252  0.4768  0.0489  0.0381
  206MOL0     C27073   4.384   1.119   1.362  0.7885 -0.2103 -0.1999
  206MOL0     C27074   4.273   1.032   1.286 -0.0917 -0.3786 -0.4993
  206MOL0     C27075   4.210   0.937   1.388  0.0891 -1.1139  0.3592
  206MOL0     C27076   4.141   0.827   1.303 -0.5868  0.9852 -0.1921
  206MOL0     N27077   4.036   0.883   1.216  0.0195  0.5240  0.1398
  206MOL0     C27078   4.049   0.879   1.083 -0.6498  0.3944  0.3877
  206MOL0     C27079   3.926   0.895   1.034  0.4694 -0.4571  0.1096
  206MOL0     C27080   3.878   0.911   0.893  0.2093  0.8420  1.5684
  206MOL0     C27081   3.975   0.837   0.796 -0.8639  1.2954  0.6408
  206MOL0     C27082   3.950   0.680   0.780  0.6126  0.2727  0.8855
  206MOL0     C27083   3.831   0.646   0.680  0.0103 -0.9014 -0.4595
  206MOL0     O27084   3.707   0.678   0.744 -0.1683 -0.3749 -0.1864
  206MOL0     C27085   3.588   0.674   0.678  0.0119 -0.1347 -0.0797
  206MOL0     C27086   3.575   0.614   0.550  0.3305  1.0055  0.5448
  206MOL0     C27087   3.448   0.594   0.487 -0.1358 -0.0867  0.5144
  206MOL0     C27088   3.336   0.649   0.552 -0.4062 -1.6179  0.4474
  206MOL0     C27089   3.204   0.645   0.485  0.0904  0.3657 -0.4146
  206MOL0     O27090   3.100   0.716   0.537 -0.0303  0.2840 -0.2702
  206MOL0     C27091   2.979   0.731   0.485  0.0250  0.2204  0.6090
  206MOL0     C27092   2.899   0.839   0.532 -0.8124  0.0567 -0.5061
  206MOL0     C27093   2.772   0.863   0.494  1.0418 -0.1937  0.3826
  206MOL0     C27094   2.716   0.794   0.385 -0.5459  0.4202 -0.6128
  206MOL0     O27095   2.593   0.838   0.352  0.3975  0.4931  0.3772
  206MOL0     C27096   2.524   0.755   0.256 -0.3718  0.0814 -0.4616
  206MOL0     C27097   2.389   0.807   0.206  0.3340 -0.3280 -0.3491
  206MOL0     C27098   2.284   0.703   0.192  0.3790 -0.0371  0.0472
  206MOL0     C27099   2.145   0.760   0.141 -0.0340  0.4614 -1.1014
  206MOL0     C27100   2.038   0.640   0.149  0.2353 -0.4258 -0.0625
  206MOL0     C27101   1.920   0.672   0.057  0.7175  0.8944  0.0181
  206MOL0     C27102   1.823   0.544   0.070  0.4668  0.4382  0.1472
  206MOL0     C27103   1.682   0.567  -0.001 -0.2446 -0.0585  0.2129
  206MOL0    Cl27104   1.583   0.674   0.099  0.1820  0.1155  0.1302
  206MOL0     C27105   2.787   0.689   0.327 -0.3168 -0.9076 -0.6945
  206MOL0     C27106   2.917   0.661   0.378 -0.7530  0.4214 -0.4388
  206MOL0     O27107   3.202   0.583   0.379 -0.4006 -0.2942  0.3644
  206MOL0     C27108   3.347   0.721   0.670 -0.6674 -0.3835  0.0355
  206MOL0     C27109   3.470   0.734   0.733  0.5929  0.4853 -0.4167
  206MOL0     N27110   3.838   0.905   1.141 -0.1984 -1.3047 -0.1939
  206MOL0     N27111   3.909   0.899   1.249 -0.3235 -0.0898  0.0326
  206MOL0     C27112   5.065   1.388   1.254 -0.1919  0.1668  0.5828
  206MOL0     C27113   5.200   1.421   1.283  0.6095 -0.5288  0.6038
  206MOL0     C27114   5.547   1.666   1.470  0.7669  0.2261 -0.2181
  206MOL0     C27115   5.633   1.588   1.390  0.4505  0.6952  0.0511
  206MOL0     C27116   5.767   1.600   1.400  0.3143 -0.7967  0.0266
  206MOL0     C27117   5.828   1.682   1.496  0.3335  0.1896 -0.0102
  206MOL0     O27118   5.965   1.696   1.489 -0.1296  0.3704 -0.6101
  206MOL0     C27119   6.015   1.800   1.578 -0.4243  0.1211 -0.6065
  206MOL0     C27120   6.163   1.818   1.548  0.0917 -0.1886 -0.9840
  206MOL0     C27121   6.247   1.693   1.566 -0.5360  0.7989 -0.4219
  206MOL0     C27122   6.395   1.741   1.580  0.2693  0.9409  0.1200
  206MOL0     C27123   6.486   1.624   1.597 -0.4558 -0.2401 -0.1072
  206MOL0     C27124   6.569   1.542   1.621  1.0758 -0.5469 -0.5204
  206MOL0     C27125   5.738   1.759   1.579 -0.6693  0.4109 -0.6282
  206MOL0     C27126   5.602   1.746   1.570 -0.1153  0.3137 -0.6170
  206MOL0     H27127   5.121   1.726   1.416 -0.7609  0.7820 -0.5788
  206MOL0     H27128   4.894   1.638   1.381  0.2032 -1.5236  1.8340
  206MOL0     H27129   4.738   1.579   1.189  4.3985 -1.3684 -0.7158
  206MOL0     H27130   4.701   1.530   1.362 -0.4533 -2.6894  1.0239
  206MOL0     H27131   4.622   1.366   1.122  0.8506  0.2765  0.7009
  206MOL0     H27132   4.504   1.454   1.205 -1.2559 -2.8549 -2.9761
  206MOL0     H27133   4.553   1.321   1.401 -2.1608  0.1317  0.2418
  206MOL0     H27134   4.666   1.226   1.299 -1.0485 -0.0720 -0.8371
  206MOL0     H27135   4.383   1.263   1.200 -0.4445  0.6511  1.9561
  206MOL0     H27136   4.496   1.137   1.174 -0.4171  0.4221 -0.7372
  206MOL0     H27137   4.329   1.182   1.431  0.4279 -0.8297  0.0891
  206MOL0     H27138   4.455   1.060   1.421  2.0997  1.6978  0.2106
  206MOL0     H27139   4.325   0.985   1.202  1.7481  1.7173 -0.6224
  206MOL0     H27140   4.197   1.100   1.247 -1.4069 -0.5966  1.5128
  206MOL0     H27141   4.283   0.898   1.459  0.9051  1.4716  1.0654
  206MOL0     H27142   4.138   0.993   1.448  1.3163 -2.3455  3.1335
  206MOL0     H27143   4.110   0.750   1.375  1.2598  2.0677  1.8635
  206MOL0     H27144   4.227   0.788   1.247 -0.1934 -0.1892  1.1551
  206MOL0     H27145   4.139   0.860   1.026 -0.5112  0.4896  0.5750
  206MOL0     H27146   3.870   1.016   0.863  0.9101  0.9452  1.7263
  206MOL0     H27147   3.780   0.862   0.888  1.0262 -0.7381 -0.6357
  206MOL0     H27148   4.075   0.852   0.837  0.1227 -2.1337 -0.1603
  206MOL0     H27149   3.976   0.887   0.698 -2.2187  1.0182  0.4570
  206MOL0     H27150   4.038   0.625   0.746  1.1138  0.3249  2.0817
  206MOL0     H27151   3.932   0.636   0.878  1.4257 -1.9266  0.1163
  206MOL0     H27152   3.845   0.542   0.648  0.3194 -0.4939 -1.7152
  206MOL0     H27153   3.843   0.712   0.593  3.3609  0.0126  0.5499
  206MOL0     H27154   3.665   0.573   0.506  0.8725  3.6179 -1.0094
  206MOL0     H27155   3.450   0.534   0.396  2.1238  0.1245  0.3753
  206MOL0     H27156   2.939   0.892   0.618  0.6617 -1.2943 -0.3113
  206MOL0     H27157   2.720   0.932   0.560 -1.1249  1.6166 -2.9374
  206MOL0     H27158   2.516   0.655   0.301  2.2749 -0.9549 -2.0488
  206MOL0     H27159   2.590   0.740   0.171  2.9777  0.3143  1.8933
  206MOL0     H27160   2.414   0.846   0.107  1.4737  1.0953  0.4587
  206MOL0     H27161   2.353   0.885   0.273  2.6788  0.2152  0.3613
  206MOL0     H27162   2.274   0.664   0.294  1.6668  0.0491  0.2282
  206MOL0     H27163   2.323   0.618   0.134  1.9045 -1.0271  2.3384
  206MOL0     H27164   2.102   0.845   0.194  1.0963  0.8455 -0.7606
  206MOL0     H27165   2.172   0.796   0.041 -0.6688 -0.5236 -1.6402
  206MOL0     H27166   2.014   0.619   0.253 -0.9413 -1.8645 -0.5880
  206MOL0     H27167   2.086   0.547   0.116 -1.6142 -0.8491 -1.6996
  206MOL0     H27168   1.952   0.679  -0.047  0.8261 -0.8228 -0.0994
  206MOL0     H27169   1.871   0.763   0.091 -1.4782 -0.7845  1.6546
  206MOL0     H27170   1.870   0.451   0.039 -1.0484  0.1976 -1.6100
  206MOL0     H27171   1.807   0.528   0.177  4.2761  0.4818  0.8741
  206MOL0     H27172   1.630   0.471  -0.003 -0.9145  0.2985  0.1422
  206MOL0     H27173   1.692   0.606  -0.103 -3.8226 -1.8420 -0.9898
  206MOL0     H27174   2.746   0.628   0.247  1.2161  1.8070 -3.7571
  206MOL0     H27175   2.965   0.575   0.333 -3.1414 -0.2462 -1.8413
  206MOL0     H27176   3.255   0.765   0.707 -1.2540  1.1904 -2.9604
  206MOL0     H27177   3.479   0.781   0.830 -0.0389 -0.2975  0.0279
  206MOL0     H27178   5.059   1.291   1.205 -0.9224  0.0728  0.8537
  206MOL0     H27179   5.285   1.358   1.258  0.9825 -0.2385  1.1325
  206MOL0     H27180   5.596   1.522   1.311 -0.4790 -0.8257  1.6805
  206MOL0     H27181   5.843   1.552   1.340  1.2383  2.0113 -1.2413
  206MOL0     H27182   5.997   1.779   1.684 -0.8868  4.4982  0.3549
  206MOL0     H27183   5.966   1.897   1.562  0.1681  0.9547  2.0338
  206MOL0     H27184   6.168   1.853   1.444 -0.6324  0.4897 -0.7993
  206MOL0     H27185   6.198   1.894   1.619 -0.8969 -0.5179 -0.1160
  206MOL0     H27186   6.229   1.626   1.481 -0.8820  1.9934 -1.3127
  206MOL0     H27187   6.203   1.634   1.647 -1.7543  1.4436 -0.5928
  206MOL0     H27188   6.422   1.789   1.485 -0.5968 -0.0835 -0.6685
  206MOL0     H27189   6.402   1.808   1.667  4.1356  0.2659  0.4911
  206MOL0     H27190   6.635   1.471   1.666  0.4179 -0.6792  0.2685
  206MOL0     H27191   5.776   1.834   1.648  0.8174  1.2564 -2.2994
  206MOL0     H27192   5.533   1.799   1.635  1.0185  3.0663 -1.5115
  207MOL0     O27193   9.160   8.954   3.919  0.4491  0.4262  0.4026
  207MOL0     C27194   9.160   9.079   3.916 -0.0310 -0.8472  0.4184
  207MOL0     O27195   9.053   9.162   3.933 -0.1705  0.0266  0.0372
  207MOL0     C27196   8.929   9.107   3.926  1.1854  0.2167 -0.1589
  207MOL0     C27197   8.834   9.198   3.984  0.4375  0.4205 -0.0444
  207MOL0     C27198   8.693   9.168   3.978  0.2926  0.2396  0.3456
  207MOL0     C27199   8.647   9.052   3.917 -0.5280  1.0629 -0.0187
  207MOL0     O27200   8.522   9.016   3.910  0.8586  0.3554  0.5135
  207MOL0     C27201   8.415   9.070   3.983 -0.3298  0.2098 -0.3233
  207MOL0     C27202   8.354   9.201   3.909 -1.2749  0.5426  0.1927
  207MOL0     C27203   8.320   9.169   3.761 -0.1188  0.0168 -0.3351
  207MOL0     C27204   8.219   9.059   3.742 -0.2126  0.1251  0.3172
  207MOL0     C27205   8.214   9.029   3.592  0.4770 -0.2565 -0.2848
  207MOL0     C27206   8.159   9.132   3.505  0.0627 -0.2223  0.0646
  207MOL0     C27207   8.154   9.068   3.360  1.6646 -0.5543  0.6124
  207MOL0     C27208   8.091   9.177   3.265  0.0171  0.5071  0.2915
  207MOL0     N27209   7.952   9.209   3.291  0.7533 -0.6047 -0.4920
  207MOL0     C27210   7.851   9.121   3.260 -0.0518  0.3132 -0.3495
  207MOL0     C27211   7.738   9.175   3.315 -0.5270 -0.7884  0.4634
  207MOL0     C27212   7.600   9.109   3.309  0.3352 -0.5884 -0.4544
  207MOL0     C27213   7.598   8.972   3.371  0.0637  0.1731 -0.7002
  207MOL0     C27214   7.595   8.973   3.524  0.5069 -0.0886 -0.4131
  207MOL0     C27215   7.454   9.008   3.574 -0.1678 -0.2730 -0.3350
  207MOL0     O27216   7.444   8.957   3.717 -0.9438 -0.3260  0.3890
  207MOL0     C27217   7.324   8.979   3.784  0.9816 -0.5597  0.3502
  207MOL0     C27218   7.204   9.005   3.718 -1.0805  0.2237  0.7542
  207MOL0     C27219   7.086   9.040   3.790 -0.3459 -0.2236 -0.2679
  207MOL0     C27220   7.093   9.041   3.931  0.6684  0.1133  0.8761
  207MOL0     C27221   6.980   9.089   4.011  0.4522  1.4267  0.9600
  207MOL0     O27222   6.862   9.127   3.945  0.3831  0.1397 -0.3166
  207MOL0     C27223   6.749   9.166   4.013  0.0130  0.7778 -0.8597
  207MOL0     C27224   6.706   9.087   4.123 -0.0917  0.1963  0.3153
  207MOL0     C27225   6.591   9.115   4.190  0.4067 -0.1278  0.2237
  207MOL0     C27226   6.518   9.225   4.147 -0.0263  0.8785  0.4459
  207MOL0     O27227   6.394   9.252   4.208 -0.7308  0.5701 -0.3101
  207MOL0     C27228   6.285   9.321   4.128 -0.0266 -0.1340 -0.2673
  207MOL0     C27229   6.146   9.292   4.177 -0.5860  0.0049  0.3582
  207MOL0     C27230   6.118   9.346   4.312  0.3980 -0.7049  0.2230
  207MOL0     C27231   5.968   9.349   4.330 -0.4212 -0.3440 -0.1985
  207MOL0     C27232   5.904   9.447   4.246 -0.2171  0.1140  0.0407
  207MOL0     C27233   5.766   9.466   4.303  0.4294 -0.1004 -0.0335
  207MOL0     C27234   5.713   9.596   4.244 -0.4352  0.0485  0.2271
  207MOL0     C27235   5.594   9.631   4.335  0.5465 -0.5361  0.2617
  207MOL0    Cl27236   5.552   9.793   4.285  0.1231 -0.0309  0.1500
  207MOL0     C27237   6.566   9.310   4.045  0.4526  0.1317  0.1979
  207MOL0     C27238   6.675   9.283   3.973  0.4456  0.7790  0.1314
  207MOL0     O27239   7.004   9.110   4.135  0.5735 -0.1614 -0.2670
  207MOL0     C27240   7.210   8.999   3.995  0.1029 -0.0213  0.1575
  207MOL0     C27241   7.319   8.967   3.920 -0.4705  0.0688 -0.3653
  207MOL0     N27242   7.772   9.298   3.367  0.1224  0.6328  0.1589
  207MOL0     N27243   7.900   9.323   3.343 -0.7617 -0.1950  0.5868
  207MOL0     C27244   8.744   8.958   3.864 -1.3644  0.6479 -0.0504
  207MOL0     C27245   8.880   8.980   3.870 -0.5589  0.2794 -0.0386
  207MOL0     C27246   9.289   9.156   3.892  0.1583  0.0337 -0.1135
  207MOL0     C27247   9.293   9.296   3.909  0.0395  0.0486  0.2784
  207MOL0     C27248   9.414   9.365   3.900  0.3691 -0.2224  0.1679
  207MOL0     C27249   9.532   9.292   3.887  0.2402  0.3326 -0.0039
  207MOL0     O27250   9.637   9.369   3.883 -0.9273  0.4831  0.4615
  207MOL0     C27251   9.766   9.297   3.903  0.0614 -0.9331  0.2545
  207MOL0     C27252   9.802   9.249   4.051  0.1345 -0.6843  0.4510
  207MOL0     C27253   9.924   9.163   4.046  0.2546 -0.7566  0.1079
  207MOL0     C27254  10.056   9.239   4.029 -0.5890  0.2372 -0.4349
  207MOL0     C27255  10.082   9.271   3.894 -0.0755 -0.9258  0.8532
  207MOL0     C27256  10.097   9.320   3.780 -0.2841  0.7655  0.0148
  207MOL0     C27257   9.528   9.156   3.853 -0.1948  0.2969 -0.1562
  207MOL0     C27258   9.409   9.094   3.856 -0.3969 -0.3236 -0.3309
  207MOL0     H27259   8.866   9.292   4.027 -0.8512  1.1750 -0.6517
  207MOL0     H27260   8.621   9.230   4.030  0.6254 -0.0122  1.1235
  207MOL0     H27261   8.455   9.071   4.085  0.9245 -0.6782 -0.7698
  207MOL0     H27262   8.339   8.992   3.983 -0.2388  0.0229 -3.3376
  207MOL0     H27263   8.433   9.277   3.913 -3.0270  2.4261  0.8122
  207MOL0     H27264   8.262   9.243   3.950  1.0754  4.5964  1.9688
  207MOL0     H27265   8.405   9.147   3.696  0.0214  0.8396 -0.4438
  207MOL0     H27266   8.277   9.263   3.724 -0.6057  0.5261  1.4284
  207MOL0     H27267   8.249   8.969   3.797  0.8905  0.3608  0.1280
  207MOL0     H27268   8.122   9.097   3.776 -0.9718 -1.0856 -0.4277
  207MOL0     H27269   8.139   8.949   3.590  1.4804 -1.2113 -0.7651
  207MOL0     H27270   8.302   8.991   3.539 -1.4777 -2.7919 -1.9969
  207MOL0     H27271   8.232   9.213   3.495  1.7504 -1.6541  0.2122
  207MOL0     H27272   8.064   9.168   3.545  0.9678  1.7377  0.5819
  207MOL0     H27273   8.256   9.049   3.325  0.5092 -3.2683 -1.7279
  207MOL0     H27274   8.100   8.973   3.357 -0.0250  0.3898 -1.2394
  207MOL0     H27275   8.098   9.144   3.161 -0.2725 -0.3613  0.5394
  207MOL0     H27276   8.153   9.266   3.253  0.2303  0.0375 -3.2711
  207MOL0     H27277   7.871   9.032   3.200 -1.7545 -0.9853  0.8803
  207MOL0     H27278   7.567   9.110   3.204 -6.4060 -1.5070  1.1892
  207MOL0     H27279   7.527   9.168   3.364  0.3730 -3.0347  2.4408
  207MOL0     H27280   7.689   8.919   3.339 -0.0431 -0.5734  0.2028
  207MOL0     H27281   7.520   8.903   3.338  2.0163 -0.9668 -3.3387
  207MOL0     H27282   7.603   8.871   3.562  0.8447 -0.2704 -0.9661
  207MOL0     H27283   7.673   9.041   3.558  0.2707  0.4493 -0.9301
  207MOL0     H27284   7.388   8.950   3.509 -1.0894 -0.6428  0.8896
  207MOL0     H27285   7.430   9.114   3.580 -0.3110 -0.3869  2.6383
  207MOL0     H27286   7.201   9.005   3.610 -0.2126  0.1401  0.7207
  207MOL0     H27287   7.007   9.090   3.735  2.2529  0.6548 -3.5671
  207MOL0     H27288   6.763   9.002   4.160 -0.6459  0.9398  3.1665
  207MOL0     H27289   6.562   9.049   4.271  0.0763  1.7515  1.7038
  207MOL0     H27290   6.287   9.284   4.025 -0.3188 -1.6491  0.2428
  207MOL0     H27291   6.299   9.429   4.130 -0.3246 -0.1075  0.5810
  207MOL0     H27292   6.149   9.182   4.176  3.9983 -0.0847  0.1508
  207MOL0     H27293   6.086   9.334   4.096  1.6687  1.2706 -0.7518
  207MOL0     H27294   6.159   9.446   4.325 -0.7051  0.0343 -1.6119
  207MOL0     H27295   6.165   9.285   4.390  0.5448  0.1507  0.8167
  207MOL0     H27296   5.916   9.254   4.321 -3.2358  1.1477 -0.9934
  207MOL0     H27297   5.970   9.374   4.437  1.3864 -0.8588 -0.0726
  207MOL0     H27298   5.897   9.401   4.146  0.5200 -2.4407  1.0720
  207MOL0     H27299   5.962   9.539   4.237 -0.0489  0.2210  1.9222
  207MOL0     H27300   5.763   9.473   4.412  0.1338  0.1904 -0.0587
  207MOL0     H27301   5.701   9.380   4.281  0.3163 -0.1261  0.3891
  207MOL0     H27302   5.789   9.671   4.269  0.4178 -1.3937  2.2813
  207MOL0     H27303   5.696   9.595   4.136  1.4202  1.4937 -0.1253
  207MOL0     H27304   5.611   9.641   4.442 -1.7356 -0.6778  0.6768
  207MOL0     H27305   5.514   9.558   4.319  1.5744 -1.8549  0.8868
  207MOL0     H27306   6.524   9.405   4.014  1.1014  0.2059 -0.4762
  207MOL0     H27307   6.710   9.351   3.896 -1.6106  1.9292  0.1382
  207MOL0     H27308   7.228   8.987   4.101  2.8987  1.0324 -0.1021
  207MOL0     H27309   7.409   8.920   3.957  0.5008  1.9270 -0.2395
  207MOL0     H27310   8.716   8.864   3.817  1.4269  0.7205 -2.0762
  207MOL0     H27311   8.949   8.912   3.821  0.9232  1.8403 -0.2016
  207MOL0     H27312   9.204   9.356   3.931 -0.1677  0.6368 -1.8886
  207MOL0     H27313   9.398   9.472   3.904  0.2003 -0.2530  0.3359
  207MOL0     H27314   9.835   9.377   3.876 -2.5432  1.9946  1.6391
  207MOL0     H27315   9.776   9.223   3.823 -1.4032  0.5789 -1.4168
  207MOL0     H27316   9.818   9.336   4.116  1.2321 -0.2103 -0.4185
  207MOL0     H27317   9.719   9.201   4.103 -2.0043  2.4708  0.2253
  207MOL0     H27318   9.912   9.092   3.964 -1.6620  0.5217 -0.7897
  207MOL0     H27319   9.919   9.114   4.144  1.3323  0.2099  0.6652
  207MOL0     H27320  10.057   9.334   4.083  0.4554 -1.2242  2.3216
  207MOL0     H27321  10.143   9.186   4.068 -1.5894 -1.4210 -0.3631
  207MOL0     H27322  10.107   9.381   3.692 -0.4840 -3.0271 -2.8594
  207MOL0     H27323   9.619   9.106   3.822 -0.4313  1.6394 -3.5073
  207MOL0     H27324   9.412   8.987   3.834  1.4450 -0.8213  1.9034
  208MOL0     O27325   0.281   6.385   2.130  0.0159  0.9787 -0.2614
  208MOL0     C27326   0.255   6.449   2.031 -0.4041 -0.7480 -0.3334
  208MOL0     O27327   0.336   6.547   1.978 -0.9143 -0.4678  0.0320
  208MOL0     C27328   0.456   6.574   2.036 -0.3951 -0.0996  0.2047
  208MOL0     C27329   0.568   6.497   2.005 -0.4234 -0.1144 -0.2539
  208MOL0     C27330   0.690   6.545   2.044  0.2540 -0.5711 -1.1873
  208MOL0     C27331   0.710   6.657   2.126  0.2536  0.1413 -0.2677
  208MOL0     O27332   0.838   6.688   2.167 -0.8314  0.1038  0.0908
  208MOL0     C27333   0.861   6.830   2.175 -0.0944 -0.9910 -0.5822
  208MOL0     C27334   1.016   6.857   2.186 -0.0961 -1.0354 -0.3299
  208MOL0     C27335   1.070   6.823   2.324  0.3096 -0.5681 -0.4605
  208MOL0     C27336   1.223   6.828   2.340  0.7847 -0.2190  0.5603
  208MOL0     C27337   1.290   6.720   2.429  0.0707  0.1149 -0.0810
  208MOL0     C27338   1.374   6.617   2.358 -0.1325  0.5633  0.6312
  208MOL0     C27339   1.303   6.533   2.254  0.0215  0.5831 -0.0524
  208MOL0     C27340   1.371   6.402   2.231 -0.9318 -1.0411  0.7098
  208MOL0     N27341   1.517   6.423   2.200  0.5729  0.3468 -0.1693
  208MOL0     C27342   1.627   6.427   2.291  0.5972  0.4286 -0.6812
  208MOL0     C27343   1.732   6.434   2.208 -0.3593 -0.2989  0.4391
  208MOL0     C27344   1.870   6.461   2.262  0.9274 -0.1682  0.4424
  208MOL0     C27345   1.957   6.350   2.207  0.5103 -0.7243 -0.1106
  208MOL0     C27346   1.944   6.210   2.272 -0.6956  0.3635 -0.6864
  208MOL0     C27347   1.808   6.155   2.253 -0.0083  0.1581  0.0613
  208MOL0     O27348   1.821   6.012   2.286  0.4348  0.1263 -0.0033
  208MOL0     C27349   1.709   5.940   2.289  0.2078 -1.1522 -0.1607
  208MOL0     C27350   1.597   5.956   2.205 -0.2096 -0.6090  0.0092
  208MOL0     C27351   1.491   5.874   2.211  0.8527 -0.8894 -0.7037
  208MOL0     C27352   1.487   5.760   2.295 -0.5895 -0.6296 -0.3454
  208MOL0     C27353   1.366   5.680   2.319  0.1046  0.1754 -0.2139
  208MOL0     O27354   1.257   5.723   2.244 -0.1551 -0.4127  0.3907
  208MOL0     C27355   1.135   5.663   2.266  0.2817  0.5289  0.1041
  208MOL0     C27356   1.087   5.620   2.391  0.0464  0.8290  0.4799
  208MOL0     C27357   0.951   5.578   2.396 -0.4945  0.6578 -0.0328
  208MOL0     C27358   0.865   5.579   2.287  0.1735 -0.1494 -0.2740
  208MOL0     O27359   0.738   5.535   2.309  0.5421 -0.4715 -0.0492
  208MOL0     C27360   0.640   5.552   2.205  0.4155 -0.2597 -1.5018
  208MOL0     C27361   0.502   5.518   2.265 -0.0248 -0.4550  0.2841
  208MOL0     C27362   0.386   5.533   2.156  0.4265  0.2679 -0.1974
  208MOL0     C27363   0.273   5.417   2.169 -0.0683  0.9030 -1.1170
  208MOL0     C27364   0.160   5.437   2.074  0.9759 -0.6071  0.3064
  208MOL0     C27365   0.080   5.567   2.100 -0.4605  0.0503 -0.4347
  208MOL0     C27366  -0.038   5.592   2.008 -0.2956 -0.7430 -0.4024
  208MOL0     C27367  -0.161   5.515   2.047 -0.2315 -0.4311  0.4737
  208MOL0    Cl27368  -0.303   5.562   1.934 -0.2657  0.2459 -0.3175
  208MOL0     C27369   0.921   5.604   2.161 -0.6338 -1.1077  1.7014
  208MOL0     C27370   1.053   5.652   2.151 -0.0229  0.3622  0.2608
  208MOL0     O27371   1.371   5.573   2.381  0.5692 -0.8740  0.5531
  208MOL0     C27372   1.600   5.737   2.374  0.4537 -1.1888  0.6314
  208MOL0     C27373   1.706   5.830   2.378 -0.0224  0.2636 -0.6241
  208MOL0     N27374   1.697   6.440   2.076  0.3489 -0.1253  0.3957
  208MOL0     N27375   1.568   6.430   2.071 -0.5053  0.2383  0.2561
  208MOL0     C27376   0.593   6.728   2.157 -0.3451 -0.4525 -0.4153
  208MOL0     C27377   0.468   6.696   2.105  0.7357  0.8831 -0.3486
  208MOL0     C27378   0.123   6.434   1.992  1.0492  0.3942  0.0634
  208MOL0     C27379   0.064   6.530   1.906  0.1496  0.1270  0.5014
  208MOL0     C27380  -0.073   6.522   1.868 -0.0958  0.1379 -0.3648
  208MOL0     C27381  -0.152   6.414   1.917 -0.4922  0.0220 -0.3182
  208MOL0     O27382  -0.278   6.406   1.875 -0.0450  0.1218 -0.2455
  208MOL0     C27383  -0.347   6.274   1.877 -0.5989 -0.0276  1.0186
  208MOL0     C27384  -0.504   6.275   1.850  0.1793 -0.1818  0.5542
  208MOL0     C27385  -0.536   6.164   1.751  0.1350 -0.2092 -1.4339
  208MOL0     C27386  -0.678   6.151   1.703 -0.0778  0.3705  0.7141
  208MOL0     C27387  -0.733   6.273   1.650 -0.5013 -0.1641  0.3294
  208MOL0     C27388  -0.787   6.370   1.602 -0.3151  0.3492 -0.8298
  208MOL0     C27389  -0.091   6.317   1.994  0.5708 -0.4718  0.4817
  208MOL0     C27390   0.044   6.321   2.024  0.0234  0.1338 -0.2605
  208MOL0     H27391   0.555   6.397   1.964 -2.3650  0.5462 -1.3723
  208MOL0     H27392   0.779   6.488   2.019 -0.1496 -1.4389 -0.6681
  208MOL0     H27393   0.817   6.874   2.265 -2.8711  0.0581 -2.3392
  208MOL0     H27394   0.826   6.896   2.096  2.2847  1.8588  0.5614
  208MOL0     H27395   1.030   6.962   2.161 -0.6083 -0.2512  2.4366
  208MOL0     H27396   1.063   6.790   2.113 -1.5064 -2.1479 -0.2678
  208MOL0     H27397   1.046   6.728   2.373 -2.1765 -0.2982 -1.0324
  208MOL0     H27398   1.024   6.903   2.382  0.2868  0.8200 -2.3150
  208MOL0     H27399   1.272   6.827   2.243 -0.9564 -1.1681 -0.3711
  208MOL0     H27400   1.235   6.928   2.383 -2.2463  0.5106 -0.0040
  208MOL0     H27401   1.221   6.654   2.484  1.5962  0.9089  3.0283
  208MOL0     H27402   1.351   6.757   2.512  1.5991 -1.3256 -0.5013
  208MOL0     H27403   1.416   6.555   2.438 -0.1073 -1.5889 -0.9619
  208MOL0     H27404   1.453   6.673   2.309  1.5321 -1.9881  0.1945
  208MOL0     H27405   1.205   6.505   2.294  0.8917 -3.1257 -0.1512
  208MOL0     H27406   1.280   6.593   2.165 -0.6120 -1.7067 -1.4967
  208MOL0     H27407   1.331   6.347   2.145 -0.5468  1.3589 -1.1294
  208MOL0     H27408   1.368   6.353   2.328  1.1361  1.5328  2.2185
  208MOL0     H27409   1.624   6.434   2.399  2.7082  0.9029 -0.6011
  208MOL0     H27410   1.872   6.463   2.372  1.3326 -0.7024  0.4498
  208MOL0     H27411   1.906   6.559   2.228  2.2570 -0.5268  0.7572
  208MOL0     H27412   2.056   6.391   2.226 -0.3651 -0.0910  4.0951
  208MOL0     H27413   1.945   6.334   2.100  1.0929 -2.6623  0.0599
  208MOL0     H27414   2.017   6.141   2.228 -2.2681 -0.2808 -2.4097
  208MOL0     H27415   1.971   6.214   2.378  3.1035  0.2249 -1.4993
  208MOL0     H27416   1.789   6.170   2.146 -0.6161 -2.5207 -0.2774
  208MOL0     H27417   1.730   6.191   2.319 -0.3648 -1.1513  0.3845
  208MOL0     H27418   1.595   6.035   2.130 -0.6560 -0.5990  0.0310
  208MOL0     H27419   1.408   5.906   2.148  1.1617  2.9094  0.6060
  208MOL0     H27420   1.141   5.642   2.482 -2.3160  1.1496  1.8844
  208MOL0     H27421   0.900   5.571   2.492 -1.5712  2.7469 -0.4054
  208MOL0     H27422   0.660   5.488   2.118  0.4857 -1.9730 -0.2809
  208MOL0     H27423   0.636   5.655   2.169 -1.3516  0.1486 -0.2267
  208MOL0     H27424   0.482   5.585   2.349  0.1234 -1.6227  1.2793
  208MOL0     H27425   0.505   5.416   2.304 -0.5165  0.3649  2.6187
  208MOL0     H27426   0.433   5.516   2.059 -3.0833  1.3296 -2.2465
  208MOL0     H27427   0.338   5.631   2.160 -1.4391 -0.6153  0.0409
  208MOL0     H27428   0.314   5.317   2.153 -2.1523 -0.7824  2.7392
  208MOL0     H27429   0.236   5.416   2.272 -2.5343  1.1812 -1.9370
  208MOL0     H27430   0.086   5.357   2.085  0.5661 -0.1842  0.6704
  208MOL0     H27431   0.197   5.447   1.972  0.1610  2.1926  0.2006
  208MOL0     H27432   0.151   5.647   2.078  0.3754 -0.3853  0.5813
  208MOL0     H27433   0.042   5.568   2.203 -0.2716 -1.2898 -0.3246
  208MOL0     H27434  -0.050   5.701   2.005  3.1735 -0.1883  1.0829
  208MOL0     H27435  -0.012   5.558   1.907  0.6047  0.0421 -0.4495
  208MOL0     H27436  -0.192   5.525   2.151 -0.1978 -1.6195  0.6082
  208MOL0     H27437  -0.123   5.415   2.024 -0.3326 -0.8666  2.1301
  208MOL0     H27438   0.859   5.595   2.072  0.3815  0.4093  0.7703
  208MOL0     H27439   1.087   5.670   2.049 -2.2799 -0.4497 -0.7193
  208MOL0     H27440   1.601   5.647   2.436 -1.3587 -0.1271  2.3145
  208MOL0     H27441   1.788   5.812   2.446 -1.7287  0.0130  1.4677
  208MOL0     H27442   0.595   6.821   2.213  0.3331 -1.7755  1.8815
  208MOL0     H27443   0.385   6.763   2.123 -0.2130 -0.8735  2.5386
  208MOL0     H27444   0.115   6.620   1.873  1.9478 -1.7830 -2.4454
  208MOL0     H27445  -0.119   6.603   1.813 -2.1076 -1.4658 -1.1635
  208MOL0     H27446  -0.333   6.236   1.978 -1.4542  2.4942  2.1728
  208MOL0     H27447  -0.291   6.218   1.801 -2.0057 -3.2477  2.1797
  208MOL0     H27448  -0.562   6.268   1.942  0.4579  0.1610  0.7606
  208MOL0     H27449  -0.543   6.370   1.812 -2.8516 -1.2985  0.6714
  208MOL0     H27450  -0.508   6.066   1.790  2.0410  0.2367 -1.5551
  208MOL0     H27451  -0.470   6.176   1.665  0.4749  0.8436 -1.0434
  208MOL0     H27452  -0.689   6.066   1.635  3.4633  0.8456 -0.6733
  208MOL0     H27453  -0.745   6.124   1.785  1.1017 -0.4218  1.4408
  208MOL0     H27454  -0.845   6.457   1.576 -1.0928 -0.0645 -0.5091
  208MOL0     H27455  -0.139   6.225   2.024  2.0778 -1.2452  0.6424
  208MOL0     H27456   0.089   6.238   2.077 -1.3460 -0.0702  0.6315
  209MOL0     O27457   9.294   5.135   5.542  0.3553  0.7715 -0.2243
  209MOL0     C27458   9.236   5.192   5.446 -0.8327  0.0567  0.6071
  209MOL0     O27459   9.110   5.197   5.421 -0.1833  0.2825  0.1819
  209MOL0     C27460   9.014   5.113   5.476 -0.3895 -0.6501  0.0788
  209MOL0     C27461   8.878   5.154   5.474 -0.4184  0.2662 -0.5719
  209MOL0     C27462   8.772   5.066   5.510 -0.2876 -0.2108  0.3320
  209MOL0     C27463   8.799   4.939   5.549  0.0609  0.0496 -0.2399
  209MOL0     O27464   8.687   4.862   5.585  0.5036  0.3263 -0.5300
  209MOL0     C27465   8.708   4.718   5.604 -0.2191 -0.1600  0.1362
  209MOL0     C27466   8.579   4.655   5.654  0.1076  0.0992  0.0907
  209MOL0     C27467   8.458   4.665   5.562 -0.2944  1.1382  0.0284
  209MOL0     C27468   8.348   4.579   5.615 -0.6045 -0.4644  0.8823
  209MOL0     C27469   8.262   4.524   5.495 -0.2827  0.6389 -0.0048
  209MOL0     C27470   8.153   4.428   5.541 -0.6977  0.3971 -0.1814
  209MOL0     C27471   8.052   4.387   5.437 -0.6018  1.3579 -0.2738
  209MOL0     C27472   7.956   4.295   5.507 -0.8696 -0.9973 -0.4358
  209MOL0     N27473   7.850   4.246   5.414  0.0932 -0.1869  0.5273
  209MOL0     C27474   7.868   4.178   5.302  0.3962 -0.0389  0.8493
  209MOL0     C27475   7.741   4.155   5.253 -0.7017 -0.2276  0.3795
  209MOL0     C27476   7.706   4.105   5.117  0.3621 -0.3520  0.0239
  209MOL0     C27477   7.649   4.214   5.021  0.7355 -0.3905 -0.0038
  209MOL0     C27478   7.751   4.321   4.963  0.3206  0.1158  0.1862
  209MOL0     C27479   7.768   4.448   5.035  0.6149  1.3417 -0.1792
  209MOL0     O27480   7.859   4.541   4.969  0.0139 -0.0847  0.0826
  209MOL0     C27481   7.997   4.526   4.989  0.2709  0.2371 -0.1636
  209MOL0     C27482   8.063   4.435   5.078  0.5513 -0.1025  0.0592
  209MOL0     C27483   8.204   4.432   5.094 -1.3228  0.0886  0.5444
  209MOL0     C27484   8.285   4.525   5.025  0.3075 -0.4306 -0.7117
  209MOL0     C27485   8.432   4.519   5.047 -0.5629  0.3623 -0.2426
  209MOL0     O27486   8.504   4.611   4.975  0.1700  0.4555  0.1775
  209MOL0     C27487   8.631   4.633   5.019 -0.3996  0.4989 -0.5618
  209MOL0     C27488   8.661   4.680   5.151  0.4380 -0.3085  0.7114
  209MOL0     C27489   8.791   4.710   5.185 -0.0580 -0.6837  0.0517
  209MOL0     C27490   8.893   4.709   5.088 -0.2469 -0.7054  0.1610
  209MOL0     O27491   9.025   4.749   5.114  0.3898  0.2238 -0.0957
  209MOL0     C27492   9.040   4.850   5.207  0.0996  0.7313 -0.4248
  209MOL0     C27493   9.137   4.944   5.155 -0.3465 -0.8157  1.2259
  209MOL0     C27494   9.275   4.896   5.186  0.3984  0.0401  0.3409
  209MOL0     C27495   9.382   4.986   5.121 -1.5179 -0.6120  0.1578
  209MOL0     C27496   9.525   4.945   5.162  0.4654  0.1373  0.4656
  209MOL0     C27497   9.633   5.025   5.087  0.3427  0.3710  0.5430
  209MOL0     C27498   9.778   5.010   5.141  0.2620  0.3934 -1.3873
  209MOL0     C27499   9.866   5.103   5.074 -0.4541 -0.4043 -0.0396
  209MOL0    Cl27500   9.829   5.275   5.112 -0.2118 -0.1434  0.2654
  209MOL0     C27501   8.863   4.668   4.960  0.0653 -0.7747 -0.0187
  209MOL0     C27502   8.736   4.630   4.922  0.7622  0.1169  0.0073
  209MOL0     O27503   8.470   4.448   5.143  0.4291 -0.3430  0.0693
  209MOL0     C27504   8.217   4.620   4.953 -0.2013  0.1333  0.3556
  209MOL0     C27505   8.076   4.629   4.934 -0.0932  0.5564  0.5578
  209MOL0     N27506   7.657   4.216   5.336 -0.3743 -1.0914 -0.8368
  209MOL0     N27507   7.718   4.268   5.435  0.2685 -0.2812 -0.3153
  209MOL0     C27508   8.936   4.888   5.547  0.5968  0.0228 -0.1368
  209MOL0     C27509   9.037   4.982   5.519 -0.6892  0.1589  0.1072
  209MOL0     C27510   9.319   5.280   5.368  0.2942 -0.2591  0.6429
  209MOL0     C27511   9.459   5.276   5.369  0.9850  0.4739 -0.4720
  209MOL0     C27512   9.531   5.375   5.302  1.0204 -0.6335  0.4696
  209MOL0     C27513   9.470   5.486   5.241  0.2023 -0.0889  0.1600
  209MOL0     O27514   9.532   5.584   5.179 -0.6780  0.3502 -0.3312
  209MOL0     C27515   9.668   5.602   5.202  0.2886 -0.8677 -0.1943
  209MOL0     C27516   9.720   5.735   5.140  0.8263  0.4043 -0.8167
  209MOL0     C27517   9.642   5.853   5.178  0.7150  0.2263 -0.5258
  209MOL0     C27518   9.726   5.980   5.152  0.5097 -0.0585  0.3392
  209MOL0     C27519   9.844   5.994   5.241  0.0170 -0.0789 -0.1242
  209MOL0     C27520   9.939   5.999   5.310  0.2886 -0.7956 -0.0012
  209MOL0     C27521   9.335   5.488   5.232  0.3170  0.3883 -0.4938
  209MOL0     C27522   9.261   5.398   5.302 -0.1885  0.1628 -0.2609
  209MOL0     H27523   8.861   5.252   5.429  0.3615  0.9359  0.5364
  209MOL0     H27524   8.668   5.094   5.510 -0.6357 -1.1983 -2.2893
  209MOL0     H27525   8.788   4.698   5.675 -0.2588 -2.1770 -0.3234
  209MOL0     H27526   8.737   4.677   5.507 -0.4890 -1.2524  0.5100
  209MOL0     H27527   8.548   4.702   5.747  1.1994  1.7939 -0.3675
  209MOL0     H27528   8.598   4.550   5.680 -1.5210  0.0398  1.2143
  209MOL0     H27529   8.497   4.639   5.463 -1.7878  1.1202 -0.5854
  209MOL0     H27530   8.433   4.771   5.561 -2.1445  0.7324 -0.4472
  209MOL0     H27531   8.385   4.489   5.665  1.6601  0.2350  0.6047
  209MOL0     H27532   8.289   4.634   5.690  0.3316 -1.4781  2.4124
  209MOL0     H27533   8.330   4.474   5.425  0.7947  1.2713  0.5739
  209MOL0     H27534   8.208   4.603   5.442 -0.5519  0.2611 -0.3051
  209MOL0     H27535   8.095   4.473   5.622  1.5100 -1.2783  2.5384
  209MOL0     H27536   8.198   4.338   5.583 -0.9127 -0.3207 -1.4624
  209MOL0     H27537   8.003   4.471   5.388  0.1505  3.2948  2.0573
  209MOL0     H27538   8.104   4.321   5.366 -1.9347 -1.6635  1.3508
  209MOL0     H27539   7.920   4.343   5.598 -1.4346  2.6399 -2.3935
  209MOL0     H27540   8.014   4.208   5.540 -2.3452 -1.6320  0.5754
  209MOL0     H27541   7.962   4.150   5.256  0.6039 -0.1936  1.3607
  209MOL0     H27542   7.637   4.020   5.115  1.8467 -1.5900 -1.3845
  209MOL0     H27543   7.798   4.071   5.070 -0.7131 -0.8730 -1.8327
  209MOL0     H27544   7.555   4.256   5.056  0.2056  0.2723 -2.1134
  209MOL0     H27545   7.614   4.162   4.931  2.3540 -0.2195 -0.7721
  209MOL0     H27546   7.839   4.259   4.948 -0.6628 -1.5691  1.1075
  209MOL0     H27547   7.708   4.341   4.864  0.2295  0.6292  0.3243
  209MOL0     H27548   7.787   4.431   5.141 -1.4616 -0.6919 -0.0653
  209MOL0     H27549   7.666   4.487   5.030 -1.6784 -3.9618 -3.0794
  209MOL0     H27550   8.006   4.359   5.132  1.3232 -0.7856 -0.0641
  209MOL0     H27551   8.251   4.354   5.153  0.8776 -0.0705 -1.2853
  209MOL0     H27552   8.589   4.680   5.232  0.9508 -1.1322  1.1872
  209MOL0     H27553   8.812   4.734   5.289  0.4761 -0.7618 -0.0351
  209MOL0     H27554   9.077   4.797   5.296  5.0570  0.0684 -2.5699
  209MOL0     H27555   8.944   4.898   5.228  0.1168  1.2338 -1.4380
  209MOL0     H27556   9.116   5.042   5.197 -0.5552 -0.1822 -0.2825
  209MOL0     H27557   9.119   4.975   5.052 -3.2821  1.4475  2.2754
  209MOL0     H27558   9.301   4.794   5.156 -1.2843  0.0342 -1.2735
  209MOL0     H27559   9.283   4.899   5.295  0.9256  0.5323  0.2924
  209MOL0     H27560   9.375   4.985   5.012 -1.4420  0.3315  0.1416
  209MOL0     H27561   9.374   5.089   5.156  1.4057  0.1547 -1.1840
  209MOL0     H27562   9.533   4.838   5.142  3.8080  0.7233 -2.2358
  209MOL0     H27563   9.534   4.956   5.271  0.1876 -0.5897  0.5705
  209MOL0     H27564   9.606   5.130   5.098 -1.6980  0.1846 -1.7370
  209MOL0     H27565   9.643   4.997   4.982  0.3709 -0.8786  0.8545
  209MOL0     H27566   9.780   5.028   5.249  2.3527 -1.3699 -1.0613
  209MOL0     H27567   9.815   4.907   5.133 -0.5015 -0.6333  4.0170
  209MOL0     H27568   9.852   5.089   4.966  0.1446  2.7230 -0.6076
  209MOL0     H27569   9.971   5.091   5.100 -0.4174 -0.1805 -0.0869
  209MOL0     H27570   8.933   4.684   4.878 -2.0444  0.7532 -1.6628
  209MOL0     H27571   8.714   4.616   4.817 -0.2340  2.9787 -0.2424
  209MOL0     H27572   8.276   4.699   4.908  2.4002 -2.9350 -2.1073
  209MOL0     H27573   8.041   4.709   4.870 -1.0917  0.9189  1.5338
  209MOL0     H27574   8.948   4.784   5.573  0.4586  0.1492  0.4474
  209MOL0     H27575   9.141   4.953   5.527 -0.2020  1.5808 -0.7269
  209MOL0     H27576   9.504   5.197   5.429  4.4803  2.5471 -0.1214
  209MOL0     H27577   9.640   5.377   5.300  1.0068  0.0038 -0.7189
  209MOL0     H27578   9.725   5.520   5.157  2.5907  0.7145 -0.3616
  209MOL0     H27579   9.696   5.605   5.308  1.5055 -1.0980 -0.4852
  209MOL0     H27580   9.823   5.739   5.176  0.4098 -0.7212  0.5918
  209MOL0     H27581   9.729   5.717   5.033  0.4212  1.0972 -0.9756
  209MOL0     H27582   9.605   5.860   5.280 -1.6790  1.5941 -1.4094
  209MOL0     H27583   9.556   5.862   5.111  0.6904  3.0693 -0.2308
  209MOL0     H27584   9.764   5.959   5.052 -1.9904 -2.2502 -0.2646
  209MOL0     H27585   9.666   6.071   5.163  1.2514  0.3212  1.4285
  209MOL0     H27586  10.028   5.997   5.369  0.7813  1.9540 -0.5137
  209MOL0     H27587   9.286   5.572   5.184  2.2020  0.0851 -3.1641
  209MOL0     H27588   9.154   5.416   5.310 -0.4365 -1.1602 -0.3806
  210MOL0     O27589   8.254  10.284   2.047 -0.6598  0.2035 -0.1401
  210MOL0     C27590   8.342  10.326   2.121 -0.7606  0.4506  0.6350
  210MOL0     O27591   8.326  10.394   2.242 -0.0159 -0.3786 -0.2429
  210MOL0     C27592   8.211  10.371   2.299  0.3681 -0.0942 -0.0896
  210MOL0     C27593   8.136  10.483   2.327  0.8718 -0.7922  0.4567
  210MOL0     C27594   8.009  10.485   2.396  0.4655  0.1436 -0.1856
  210MOL0     C27595   7.949  10.360   2.423 -0.4017  1.3421  0.3485
  210MOL0     O27596   7.827  10.358   2.474  0.3244 -0.2353  0.8841
  210MOL0     C27597   7.813  10.382   2.611 -0.1564  0.1135 -0.3611
  210MOL0     C27598   7.676  10.403   2.655  0.3918 -0.1219 -0.8886
  210MOL0     C27599   7.593  10.289   2.614  0.8273  0.0370  0.2166
  210MOL0     C27600   7.443  10.308   2.647  0.0957  0.2176 -0.0070
  210MOL0     C27601   7.360  10.201   2.586  0.2408  0.0010  1.1810
  210MOL0     C27602   7.207  10.212   2.608  0.3365  0.5365 -0.1967
  210MOL0     C27603   7.130  10.132   2.495 -0.5781  0.2068 -0.7633
  210MOL0     C27604   6.986  10.101   2.526  0.2183 -0.4967  0.0815
  210MOL0     N27605   6.921   9.995   2.448 -0.0199 -0.3143  0.0301
  210MOL0     C27606   6.850  10.010   2.328  0.2548 -0.7726 -0.6474
  210MOL0     C27607   6.827   9.884   2.294  0.4393  0.3873 -0.3821
  210MOL0     C27608   6.755   9.829   2.176  0.9124 -0.9283  0.0248
  210MOL0     C27609   6.647   9.728   2.218  0.1300  0.7860  0.6585
  210MOL0     C27610   6.518   9.797   2.286  0.8261  0.3262 -0.5577
  210MOL0     C27611   6.410   9.692   2.300 -1.0474 -0.2269  0.0372
  210MOL0     O27612   6.303   9.716   2.394  0.0204  0.4586 -0.1987
  210MOL0     C27613   6.201   9.787   2.350  0.7146 -0.6527 -0.2145
  210MOL0     C27614   6.089   9.779   2.436 -0.6710  0.8279 -0.6280
  210MOL0     C27615   5.973   9.847   2.402 -1.1982  0.3168  0.5329
  210MOL0     C27616   5.967   9.919   2.278 -0.7775  0.3767  0.1782
  210MOL0     C27617   5.850   9.997   2.235  0.0061  0.8578 -0.9667
  210MOL0     O27618   5.740   9.983   2.316 -0.1703  0.7025  0.2276
  210MOL0     C27619   5.621  10.042   2.283  0.5208  0.2720 -0.3434
  210MOL0     C27620   5.576  10.075   2.154  0.1175  0.9184  0.4094
  210MOL0     C27621   5.440  10.117   2.128 -0.2284  0.0859  0.0040
  210MOL0     C27622   5.353  10.141   2.230 -0.1442  0.3680  0.4558
  210MOL0     O27623   5.226  10.179   2.196 -0.8426  0.3862 -0.2016
  210MOL0     C27624   5.141  10.248   2.286  0.7146  1.3836  0.0289
  210MOL0     C27625   4.994  10.262   2.229 -0.6092  0.0891  0.9937
  210MOL0     C27626   4.937  10.120   2.214  0.3140 -0.0546 -0.4594
  210MOL0     C27627   4.789  10.122   2.182  0.7562 -0.2440  0.3544
  210MOL0     C27628   4.686  10.163   2.293 -0.6213  0.6033  0.2568
  210MOL0     C27629   4.537  10.135   2.269 -0.5541  0.2892 -0.3236
  210MOL0     C27630   4.462  10.178   2.394  0.2310  0.1887  0.1755
  210MOL0     C27631   4.307  10.178   2.372  0.1712  0.1397  0.6962
  210MOL0    Cl27632   4.255  10.020   2.300 -0.1405  0.3994 -0.0203
  210MOL0     C27633   5.402  10.128   2.360  0.1572  0.3479 -0.0920
  210MOL0     C27634   5.532  10.080   2.387 -0.4794  0.2685  0.3073
  210MOL0     O27635   5.848  10.053   2.121  0.3056  0.2041 -0.5526
  210MOL0     C27636   6.084   9.928   2.199  0.2731  0.6763 -0.3470
  210MOL0     C27637   6.198   9.868   2.241 -0.1188  1.1390 -1.0211
  210MOL0     N27638   6.883   9.798   2.388  0.5906 -0.0125 -0.0073
  210MOL0     N27639   6.942   9.868   2.480 -0.4435  0.5188  0.1883
  210MOL0     C27640   8.022  10.244   2.391  0.1325  0.3136 -0.2532
  210MOL0     C27641   8.151  10.244   2.332  0.7873 -0.2767  0.2532
  210MOL0     C27642   8.471  10.355   2.061 -0.0639  0.1910  0.4985
  210MOL0     C27643   8.496  10.336   1.924 -0.3707 -0.5376 -0.2109
  210MOL0     C27644   8.610  10.384   1.865 -0.5595 -0.2607 -0.4409
  210MOL0     C27645   8.713  10.444   1.943  0.7873  1.2536 -0.3125
  210MOL0     O27646   8.828  10.488   1.890  0.1501  0.2987  0.1057
  210MOL0     C27647   8.887  10.406   1.779  0.5781 -0.4740 -0.1786
  210MOL0     C27648   8.963  10.288   1.828 -0.3201  0.3350 -0.2899
  210MOL0     C27649   9.096  10.333   1.862 -0.3995 -0.5317 -0.2496
  210MOL0     C27650   9.191  10.212   1.859  0.2621 -0.3794  0.2315
  210MOL0     C27651   9.330  10.264   1.876 -0.0695  1.1353  0.2315
  210MOL0     C27652   9.433  10.328   1.876 -0.0449  0.0538  0.3793
  210MOL0     C27653   8.690  10.464   2.079 -0.5706  1.6414  0.1128
  210MOL0     C27654   8.575  10.422   2.141 -0.1445 -0.2977  0.1438
  210MOL0     H27655   8.187  10.576   2.303 -1.0266  0.3433  0.6438
  210MOL0     H27656   7.966  10.573   2.443  1.7413 -0.7669  2.9202
  210MOL0     H27657   7.864  10.474   2.640 -1.1016 -0.0102  1.8173
  210MOL0     H27658   7.854  10.296   2.665 -0.1559  1.0105  1.1004
  210MOL0     H27659   7.642  10.501   2.618  1.1877  1.1363  1.5393
  210MOL0     H27660   7.675  10.413   2.764  0.8262 -0.3712 -0.8614
  210MOL0     H27661   7.621  10.197   2.666 -2.4916 -0.4016  1.4348
  210MOL0     H27662   7.596  10.278   2.505 -0.4080  1.8202 -0.0405
  210MOL0     H27663   7.428  10.298   2.755  0.7605  0.8914  0.1578
  210MOL0     H27664   7.402  10.407   2.624 -2.0866 -0.1561  1.9183
  210MOL0     H27665   7.401  10.103   2.612  1.3844 -1.1350 -3.7832
  210MOL0     H27666   7.374  10.210   2.478  1.6433  0.0952  1.3460
  210MOL0     H27667   7.184  10.318   2.598  2.1468  0.8582 -1.5591
  210MOL0     H27668   7.186  10.183   2.711  0.2613  1.6456  0.1072
  210MOL0     H27669   7.147  10.183   2.400  1.5765  0.0861 -0.4859
  210MOL0     H27670   7.176  10.032   2.493  0.6486  0.7674 -1.4022
  210MOL0     H27671   6.920  10.186   2.509 -1.0067 -0.8588  2.5829
  210MOL0     H27672   6.976  10.075   2.631 -0.7425 -0.1102  0.0912
  210MOL0     H27673   6.817  10.102   2.282  2.6464  0.5238  0.0487
  210MOL0     H27674   6.837   9.783   2.120 -0.5747 -0.4878 -2.6659
  210MOL0     H27675   6.717   9.911   2.115 -1.0552  0.2467  2.6627
  210MOL0     H27676   6.697   9.665   2.292  1.6458 -0.8489 -1.6264
  210MOL0     H27677   6.617   9.658   2.140  1.6862 -1.5199  1.9963
  210MOL0     H27678   6.545   9.838   2.384  1.7835 -0.6688 -0.3862
  210MOL0     H27679   6.490   9.879   2.221  0.0661 -0.1129 -0.7917
  210MOL0     H27680   6.457   9.602   2.339 -0.2255  0.6685  1.2036
  210MOL0     H27681   6.369   9.672   2.201 -1.1343 -1.7600  0.3646
  210MOL0     H27682   6.106   9.724   2.528  0.4691 -2.9131 -2.8368
  210MOL0     H27683   5.891   9.835   2.472 -2.6392 -0.6765 -1.2229
  210MOL0     H27684   5.637  10.044   2.069  4.7003  1.3365  3.2221
  210MOL0     H27685   5.397  10.127   2.029 -0.2068  0.9955  0.0793
  210MOL0     H27686   5.180  10.349   2.299  1.0551  0.9774  2.4702
  210MOL0     H27687   5.132  10.203   2.385 -0.2439 -1.8439 -1.3552
  210MOL0     H27688   4.999  10.308   2.130  0.3124 -0.1688  0.9068
  210MOL0     H27689   4.925  10.324   2.288  0.0011  2.2519 -0.4323
  210MOL0     H27690   4.952  10.070   2.310 -2.2027 -0.6619 -0.3023
  210MOL0     H27691   4.994  10.070   2.135  0.2333 -1.5435  0.3841
  210MOL0     H27692   4.779  10.179   2.089  0.1327 -1.3745 -0.2906
  210MOL0     H27693   4.776  10.016   2.161  1.1985 -0.4816  1.2361
  210MOL0     H27694   4.706  10.270   2.302  1.8252  0.3356 -1.0107
  210MOL0     H27695   4.705  10.114   2.389  0.2067 -1.7131 -1.0102
  210MOL0     H27696   4.522  10.031   2.238 -1.1592  0.4178 -0.4662
  210MOL0     H27697   4.507  10.194   2.182 -0.2645  0.3761 -0.3674
  210MOL0     H27698   4.487  10.098   2.464 -0.4345  0.3387  0.5876
  210MOL0     H27699   4.503  10.267   2.443  3.7179 -0.6443 -0.9086
  210MOL0     H27700   4.278  10.250   2.294  2.7387 -1.9978 -2.4904
  210MOL0     H27701   4.260  10.188   2.471  0.1828 -3.6944  1.2208
  210MOL0     H27702   5.333  10.162   2.436  0.4187  0.2120  0.2114
  210MOL0     H27703   5.576  10.058   2.484 -1.3518 -0.2923  0.5872
  210MOL0     H27704   6.087   9.969   2.099 -0.8081  0.9913 -0.2649
  210MOL0     H27705   6.286   9.868   2.177 -1.1107 -1.0673 -2.4683
  210MOL0     H27706   7.982  10.144   2.404 -0.2070  0.4063 -0.5822
  210MOL0     H27707   8.200  10.148   2.321  1.5370 -0.0595  1.5309
  210MOL0     H27708   8.421  10.295   1.858  0.9228  1.3273 -3.0623
  210MOL0     H27709   8.618  10.384   1.757 -3.2107 -0.6897 -0.6951
  210MOL0     H27710   8.946  10.470   1.714 -2.9808  1.8610 -1.4219
  210MOL0     H27711   8.812  10.360   1.713 -1.3594  0.0593  1.5478
  210MOL0     H27712   8.917  10.245   1.917  0.8439 -0.4849 -0.0568
  210MOL0     H27713   8.970  10.212   1.749 -0.3312  0.1353 -0.0981
  210MOL0     H27714   9.085  10.383   1.958 -0.7610 -3.3187  1.2748
  210MOL0     H27715   9.145  10.394   1.786  0.9955 -1.7514 -0.3800
  210MOL0     H27716   9.162  10.143   1.939  0.1525  0.2317  0.7245
  210MOL0     H27717   9.177  10.153   1.768  0.2281 -1.1848  0.7468
  210MOL0     H27718   9.508  10.405   1.871 -0.9099  0.9963  1.4149
  210MOL0     H27719   8.763  10.521   2.135 -2.0352  3.9859 -0.2494
  210MOL0     H27720   8.561  10.429   2.249  1.9579 -2.6191  0.6833
  211MOL0     O27721   3.491   0.908   8.206  0.8159 -0.1476 -0.5031
  211MOL0     C27722   3.510   0.927   8.089 -0.4996  0.7758  0.6144
  211MOL0     O27723   3.427   0.990   7.997 -0.4077  0.9461 -0.6039
  211MOL0     C27724   3.306   1.026   8.036  0.6917  0.1503 -0.4383
  211MOL0     C27725   3.256   1.135   7.971 -0.8060  0.1793 -0.3085
  211MOL0     C27726   3.127   1.187   7.990 -0.4965  0.2361  0.4268
  211MOL0     C27727   3.046   1.117   8.077  0.1022  0.4573  0.8726
  211MOL0     O27728   2.924   1.174   8.095 -0.2215  0.2026  0.5386
  211MOL0     C27729   2.817   1.096   8.149  0.4538  0.4446  0.1902
  211MOL0     C27730   2.694   1.180   8.101 -0.0594  0.6818 -0.7712
  211MOL0     C27731   2.561   1.122   8.127  0.7855  0.0897 -0.2975
  211MOL0     C27732   2.456   1.173   8.035  0.2535 -0.0657 -0.3773
  211MOL0     C27733   2.316   1.134   8.089 -0.0856  0.6305  0.8457
  211MOL0     C27734   2.210   1.224   8.023  0.1654  0.0569 -0.3254
  211MOL0     C27735   2.071   1.208   8.089 -0.3737  0.1549  0.1720
  211MOL0     C27736   1.965   1.287   8.008  0.2817  0.1491 -0.7066
  211MOL0     N27737   1.838   1.254   8.074 -0.3148  0.5291 -0.0766
  211MOL0     C27738   1.735   1.194   8.004  0.1424 -0.3839  0.4829
  211MOL0     C27739   1.648   1.175   8.097 -0.1695  0.0719  0.1310
  211MOL0     C27740   1.522   1.113   8.053  0.0177 -0.8298  0.7364
  211MOL0     C27741   1.443   1.042   8.165  0.8736 -0.2432  0.0993
  211MOL0     C27742   1.315   0.978   8.107 -0.1484 -0.0049 -0.0420
  211MOL0     C27743   1.205   0.961   8.205  0.3763 -0.2712  0.9659
  211MOL0     O27744   1.205   0.837   8.272 -0.5625 -0.1657  0.0024
  211MOL0     C27745   1.087   0.803   8.338  0.1817 -1.0717 -0.9568
  211MOL0     C27746   0.997   0.897   8.390  0.6212 -0.8116  0.0031
  211MOL0     C27747   0.880   0.854   8.454  0.3420 -0.4578  0.9020
  211MOL0     C27748   0.842   0.711   8.449 -0.4253 -0.2343 -0.2509
  211MOL0     C27749   0.706   0.670   8.495  0.3027 -0.3220 -0.4248
  211MOL0     O27750   0.664   0.552   8.444  0.3764 -0.5471  0.3654
  211MOL0     C27751   0.535   0.502   8.444 -0.5068 -0.9139 -0.0832
  211MOL0     C27752   0.447   0.522   8.556 -0.7648  0.1217 -0.6086
  211MOL0     C27753   0.313   0.478   8.564  0.8053  0.0608 -0.5284
  211MOL0     C27754   0.272   0.412   8.450  0.3257 -0.1433  0.6761
  211MOL0     O27755   0.140   0.371   8.456 -0.6074 -0.2809  0.0242
  211MOL0     C27756   0.075   0.308   8.341 -0.1725 -0.5498  0.7690
  211MOL0     C27757  -0.068   0.267   8.378 -0.6302 -0.0331 -0.0570
  211MOL0     C27758  -0.118   0.147   8.296 -0.0730 -0.5444  0.2479
  211MOL0     C27759  -0.271   0.130   8.316 -0.4876 -0.0275  0.1961
  211MOL0     C27760  -0.324   0.010   8.236 -0.1553  0.6738  0.2324
  211MOL0     C27761  -0.473  -0.030   8.246  0.2418 -0.0151  0.2770
  211MOL0     C27762  -0.506  -0.174   8.198  0.1981  0.2551  0.1826
  211MOL0     C27763  -0.660  -0.214   8.209 -0.7674 -0.0125  0.3762
  211MOL0    Cl27764  -0.732  -0.165   8.374 -0.3320  0.1633 -0.2501
  211MOL0     C27765   0.356   0.387   8.337 -0.8866 -0.6206 -0.2067
  211MOL0     C27766   0.489   0.432   8.336 -0.1047  0.2158 -0.3299
  211MOL0     O27767   0.644   0.752   8.571  0.9081 -0.1673 -0.2347
  211MOL0     C27768   0.936   0.618   8.400  0.0565  0.0302  1.1870
  211MOL0     C27769   1.054   0.669   8.344  0.6311 -0.1626  0.2143
  211MOL0     N27770   1.683   1.215   8.222  0.3075  0.0777  0.0577
  211MOL0     N27771   1.794   1.270   8.200 -0.2549  0.1791  0.6155
  211MOL0     C27772   3.087   0.996   8.131 -0.3506  0.2385 -0.1767
  211MOL0     C27773   3.220   0.951   8.113  0.4002 -0.1150 -0.3292
  211MOL0     C27774   3.638   0.862   8.035  0.8387  0.5668  0.9720
  211MOL0     C27775   3.734   0.813   8.122 -1.5154  0.0138  0.2713
  211MOL0     C27776   3.851   0.758   8.066 -0.3065  0.4017 -0.3545
  211MOL0     C27777   3.881   0.766   7.932  0.7935 -0.1305 -0.8503
  211MOL0     O27778   3.999   0.707   7.892 -0.5898 -0.2689  0.2090
  211MOL0     C27779   4.029   0.720   7.751  0.3317  0.6666  0.2251
  211MOL0     C27780   4.123   0.611   7.710 -0.2246  0.3771 -0.3462
  211MOL0     C27781   4.262   0.607   7.777 -0.0866 -0.4956  0.1748
  211MOL0     C27782   4.258   0.535   7.920 -0.9707  0.6301  0.2946
  211MOL0     C27783   4.396   0.548   7.988  0.1046  0.3164  1.1414
  211MOL0     C27784   4.513   0.575   8.023  0.5259 -0.1733 -0.3283
  211MOL0     C27785   3.779   0.822   7.849 -0.3977 -0.0493 -0.2294
  211MOL0     C27786   3.658   0.867   7.898 -0.6581 -0.1718 -0.0816
  211MOL0     H27787   3.335   1.186   7.917 -1.4070 -1.0135 -2.4667
  211MOL0     H27788   3.093   1.265   7.922  0.7989 -0.6974 -1.3956
  211MOL0     H27789   2.816   1.092   8.259  1.4087 -1.4614  0.1638
  211MOL0     H27790   2.802   0.993   8.117 -3.7598  1.6818 -2.7215
  211MOL0     H27791   2.710   1.190   7.993 -0.3024 -2.5139 -1.1714
  211MOL0     H27792   2.699   1.282   8.142  0.6065  1.4610 -2.6824
  211MOL0     H27793   2.533   1.131   8.232 -0.2204  0.3986 -0.5804
  211MOL0     H27794   2.569   1.015   8.103  2.0364  1.0594 -5.3342
  211MOL0     H27795   2.462   1.282   8.028 -1.2661  0.0522 -0.0659
  211MOL0     H27796   2.470   1.135   7.933  0.4003  0.1684 -0.4445
  211MOL0     H27797   2.316   1.142   8.198  1.6423 -0.6807  0.9897
  211MOL0     H27798   2.300   1.026   8.075  0.4483  0.4744  1.3661
  211MOL0     H27799   2.209   1.211   7.915 -2.5544  1.4930 -0.5649
  211MOL0     H27800   2.240   1.327   8.044  2.8322 -0.7985  0.5129
  211MOL0     H27801   2.049   1.101   8.091 -2.9024  0.5906  3.8023
  211MOL0     H27802   2.074   1.247   8.191  1.3525  0.0803  0.1797
  211MOL0     H27803   1.955   1.257   7.903  0.5425  0.8203 -0.9326
  211MOL0     H27804   1.986   1.394   8.005 -2.4309  0.7557 -2.6118
  211MOL0     H27805   1.743   1.166   7.899  0.8530  1.2131  0.0832
  211MOL0     H27806   1.539   1.029   7.985  1.7119 -1.1666  1.5353
  211MOL0     H27807   1.458   1.186   8.003  0.0266 -2.3821 -1.6852
  211MOL0     H27808   1.422   1.117   8.242  0.8104  2.3179 -2.2228
  211MOL0     H27809   1.503   0.964   8.213  0.2365  0.2812  1.8379
  211MOL0     H27810   1.280   1.045   8.028 -0.6641 -1.4853 -1.1358
  211MOL0     H27811   1.332   0.881   8.059  1.5741 -0.9860  2.3719
  211MOL0     H27812   1.113   0.979   8.148  0.4201 -0.2439  0.9030
  211MOL0     H27813   1.209   1.039   8.281 -1.2953  0.3684  0.4448
  211MOL0     H27814   1.020   1.001   8.373  4.0526 -1.7893 -2.5188
  211MOL0     H27815   0.809   0.918   8.505 -0.2350 -1.6744  1.6861
  211MOL0     H27816   0.481   0.571   8.646 -1.2278 -0.2252 -0.2387
  211MOL0     H27817   0.259   0.507   8.653  1.4915  2.0984 -0.7321
  211MOL0     H27818   0.138   0.227   8.304  0.5264  1.1010 -1.9429
  211MOL0     H27819   0.063   0.379   8.258 -0.0949 -1.2594  0.1444
  211MOL0     H27820  -0.138   0.348   8.356  1.3714  1.8750  0.2788
  211MOL0     H27821  -0.077   0.244   8.484 -0.6079 -3.6559 -0.6990
  211MOL0     H27822  -0.065   0.058   8.330  0.5165 -0.1254  0.4350
  211MOL0     H27823  -0.084   0.166   8.193  2.6514  0.4506  1.2504
  211MOL0     H27824  -0.277   0.108   8.423  1.7313  0.2521  0.4417
  211MOL0     H27825  -0.330   0.217   8.286 -0.1996  0.0287 -0.2321
  211MOL0     H27826  -0.268  -0.077   8.272 -1.8066 -1.1734 -1.3747
  211MOL0     H27827  -0.300   0.018   8.129 -0.0825  0.5146  0.2366
  211MOL0     H27828  -0.531   0.040   8.185  1.9501  1.1605 -0.0884
  211MOL0     H27829  -0.498  -0.021   8.352  0.5529 -0.0124  0.3524
  211MOL0     H27830  -0.479  -0.184   8.092  4.7308  0.9551  1.0281
  211MOL0     H27831  -0.443  -0.249   8.246  3.1987  0.3539 -3.1797
  211MOL0     H27832  -0.676  -0.322   8.195 -1.4160  0.1138  0.1160
  211MOL0     H27833  -0.723  -0.156   8.142  0.4199  1.8607  0.8178
  211MOL0     H27834   0.322   0.330   8.251  0.8056 -0.0772 -1.2633
  211MOL0     H27835   0.546   0.404   8.247 -1.9536 -1.8799 -0.9388
  211MOL0     H27836   0.906   0.513   8.402  1.2892 -0.5085 -2.1615
  211MOL0     H27837   1.126   0.604   8.297  0.5393  2.1922 -3.5193
  211MOL0     H27838   3.027   0.938   8.200 -0.7321 -1.1017 -1.5676
  211MOL0     H27839   3.259   0.861   8.158  3.0539  1.3471  0.5457
  211MOL0     H27840   3.722   0.802   8.229 -1.7951  0.4758  0.2892
  211MOL0     H27841   3.923   0.707   8.129 -1.9173 -0.3581  0.9591
  211MOL0     H27842   4.077   0.817   7.735  0.5977  0.9101  2.1667
  211MOL0     H27843   3.940   0.700   7.691  0.7018 -1.6164  0.3360
  211MOL0     H27844   4.073   0.515   7.723  1.1573 -0.3782 -0.4352
  211MOL0     H27845   4.133   0.619   7.601 -1.6323 -0.7969 -0.5842
  211MOL0     H27846   4.297   0.710   7.779  2.5966 -1.3223 -0.0392
  211MOL0     H27847   4.338   0.562   7.713  0.0066 -0.5224  0.3056
  211MOL0     H27848   4.186   0.589   7.982  1.0317  0.6902  2.7006
  211MOL0     H27849   4.228   0.431   7.908 -2.2678  0.8208  1.5912
  211MOL0     H27850   4.609   0.587   8.069  0.4538  0.5040 -0.3532
  211MOL0     H27851   3.776   0.825   7.741 -1.7288  1.1939 -0.1876
  211MOL0     H27852   3.578   0.892   7.830 -0.9338 -3.7700 -1.2879
  212MOL0     O27853   1.587   7.893   2.456  0.1337  0.6732  0.0493
  212MOL0     C27854   1.643   7.786   2.448  0.0754  0.6790  0.0183
  212MOL0     O27855   1.586   7.662   2.446  0.4990  0.5141  0.5557
  212MOL0     C27856   1.455   7.665   2.406  0.5867  0.0038 -0.2574
  212MOL0     C27857   1.376   7.596   2.496 -0.2211 -0.4259 -0.4716
  212MOL0     C27858   1.245   7.570   2.458 -0.6907  0.3553 -0.1944
  212MOL0     C27859   1.181   7.629   2.338  0.4767 -1.2291  0.0234
  212MOL0     O27860   1.044   7.620   2.307 -0.3903 -0.1576  0.5604
  212MOL0     C27861   0.966   7.529   2.381 -0.5206 -0.0422 -0.4322
  212MOL0     C27862   0.819   7.549   2.370 -0.1479 -0.3778 -0.1401
  212MOL0     C27863   0.764   7.486   2.228 -0.0558  0.5022  1.0852
  212MOL0     C27864   0.613   7.473   2.240 -0.1620 -0.4923 -0.2654
  212MOL0     C27865   0.529   7.439   2.117  0.0254  0.0372 -0.1084
  212MOL0     C27866   0.586   7.334   2.014  0.2801 -0.0278  0.5399
  212MOL0     C27867   0.608   7.194   2.064  0.1225  0.1301 -0.7403
  212MOL0     C27868   0.550   7.091   1.959  0.3164 -0.0882 -0.2773
  212MOL0     N27869   0.405   7.084   1.964  0.2277 -0.2966 -0.3211
  212MOL0     C27870   0.339   7.032   2.069 -0.0561  1.2210 -0.0822
  212MOL0     C27871   0.207   7.042   2.030  0.4539  0.3500  0.0315
  212MOL0     C27872   0.104   6.972   2.108  0.2291 -1.2115  0.1139
  212MOL0     C27873   0.091   7.039   2.256  0.3915  0.5321  0.2555
  212MOL0     C27874   0.076   7.192   2.255  0.0985  0.2436 -0.6912
  212MOL0     C27875  -0.050   7.240   2.199  0.7945  0.1717  0.9852
  212MOL0     O27876  -0.157   7.165   2.256 -0.4171  0.0469  0.8346
  212MOL0     C27877  -0.280   7.180   2.198  0.1062 -1.2579 -0.3346
  212MOL0     C27878  -0.318   7.281   2.111 -0.6989  0.2416  0.5414
  212MOL0     C27879  -0.447   7.273   2.049 -0.4010  0.9461 -0.3880
  212MOL0     C27880  -0.538   7.166   2.074  0.4926 -0.9162  0.0708
  212MOL0     C27881  -0.675   7.157   2.010 -0.5035 -0.5607 -1.1415
  212MOL0     O27882  -0.758   7.049   2.045 -0.6322 -0.1423  0.0979
  212MOL0     C27883  -0.893   7.051   2.003 -0.5706  0.0858 -1.0578
  212MOL0     C27884  -0.986   7.060   2.107  0.0398 -0.2705 -0.1367
  212MOL0     C27885  -1.129   7.052   2.077 -0.2790  0.7279  0.2288
  212MOL0     C27886  -1.161   7.025   1.941  0.4104 -0.3397  0.4099
  212MOL0     O27887  -1.289   6.988   1.917  0.1400  0.2109 -0.4404
  212MOL0     C27888  -1.331   6.987   1.779 -0.6710  0.4297 -0.9719
  212MOL0     C27889  -1.483   6.953   1.772  1.0927 -1.1262 -0.4350
  212MOL0     C27890  -1.558   7.082   1.839  0.2352  0.6426 -0.5696
  212MOL0     C27891  -1.713   7.071   1.831  0.4279  0.8835  0.0307
  212MOL0     C27892  -1.782   7.166   1.933 -0.0876 -0.3462 -0.6822
  212MOL0     C27893  -1.938   7.170   1.905  0.3411 -0.5769  1.1190
  212MOL0     C27894  -2.009   7.274   1.993  1.2227 -0.9046 -0.1115
  212MOL0     C27895  -2.155   7.309   1.947  0.3686  0.3074 -0.1385
  212MOL0    Cl27896  -2.244   7.148   1.918 -0.1432  0.0832  0.0002
  212MOL0     C27897  -1.062   7.026   1.841  0.6973  0.2575 -1.6333
  212MOL0     C27898  -0.924   7.038   1.879  0.8434  0.4393  0.3153
  212MOL0     O27899  -0.713   7.253   1.937  0.5539  0.6087 -0.8037
  212MOL0     C27900  -0.499   7.078   2.168 -0.3832 -0.1777  0.5201
  212MOL0     C27901  -0.368   7.081   2.225 -0.4673 -0.2730 -0.2570
  212MOL0     N27902   0.206   7.075   1.894  0.4471 -0.0787 -0.4416
  212MOL0     N27903   0.324   7.108   1.860 -0.3520  0.2864  0.3816
  212MOL0     C27904   1.264   7.700   2.251  0.0063 -0.6882 -0.1617
  212MOL0     C27905   1.398   7.721   2.285  0.6221  0.1516  0.3008
  212MOL0     C27906   1.793   7.786   2.446 -0.6504 -0.1060 -0.0383
  212MOL0     C27907   1.863   7.670   2.460 -0.2978  0.3759 -0.1317
  212MOL0     C27908   2.003   7.674   2.449 -0.2327  0.5535 -0.5431
  212MOL0     C27909   2.079   7.789   2.427 -0.1191  0.4558 -0.5573
  212MOL0     O27910   2.214   7.770   2.416 -0.0704 -0.1935  0.3179
  212MOL0     C27911   2.296   7.888   2.395  0.1755  0.7826  0.1910
  212MOL0     C27912   2.444   7.862   2.430 -0.3713  0.2330 -0.1233
  212MOL0     C27913   2.533   7.990   2.438  0.5390 -0.0784 -0.9513
  212MOL0     C27914   2.672   7.958   2.486  0.4305  0.2698 -0.0618
  212MOL0     C27915   2.736   8.090   2.499 -0.2744  0.2123  0.2179
  212MOL0     C27916   2.799   8.194   2.516 -0.4027  0.8092 -0.7509
  212MOL0     C27917   2.008   7.904   2.417  0.2840 -0.6958  0.0005
  212MOL0     C27918   1.867   7.907   2.417  0.6060  0.4294  0.6247
  212MOL0     H27919   1.396   7.546   2.590 -1.7404 -0.8051 -0.3236
  212MOL0     H27920   1.180   7.500   2.509 -0.7973  1.2971  0.9974
  212MOL0     H27921   0.989   7.542   2.487  1.0420 -1.2183 -0.5816
  212MOL0     H27922   0.997   7.431   2.343 -0.2891 -0.0159 -0.3150
  212MOL0     H27923   0.797   7.655   2.381 -0.8367 -0.6440  1.3591
  212MOL0     H27924   0.768   7.513   2.460 -1.7901  0.1264 -0.8385
  212MOL0     H27925   0.814   7.393   2.199  1.9664  2.1095 -1.0252
  212MOL0     H27926   0.781   7.543   2.136 -3.1474 -2.7448 -1.8369
  212MOL0     H27927   0.586   7.406   2.321 -1.3338 -0.9034 -0.9653
  212MOL0     H27928   0.580   7.569   2.280 -1.2612 -1.3803  1.0369
  212MOL0     H27929   0.521   7.532   2.061  1.5679 -0.0497 -0.5215
  212MOL0     H27930   0.425   7.412   2.137  1.1372 -3.8428  1.3474
  212MOL0     H27931   0.687   7.365   1.986  2.1187 -3.6678  2.4174
  212MOL0     H27932   0.520   7.330   1.927  0.4950 -3.7973  0.3803
  212MOL0     H27933   0.716   7.186   2.083  0.4617  1.9982 -1.6093
  212MOL0     H27934   0.549   7.181   2.155  1.4935  0.0705  0.1857
  212MOL0     H27935   0.595   6.992   1.971 -1.2216 -0.6372  1.5874
  212MOL0     H27936   0.592   7.119   1.862  1.6757 -3.5485 -0.8281
  212MOL0     H27937   0.390   6.985   2.152  0.1517  0.0881 -0.8314
  212MOL0     H27938   0.134   6.868   2.122  1.4237 -0.9833 -0.6203
  212MOL0     H27939   0.015   6.986   2.047 -0.3497  1.2272  1.3845
  212MOL0     H27940   0.188   7.012   2.299  0.4310  0.8013  0.3381
  212MOL0     H27941   0.007   6.994   2.310 -0.0329  2.9260  1.7752
  212MOL0     H27942   0.091   7.222   2.359 -0.3728  1.2668 -0.9049
  212MOL0     H27943   0.153   7.238   2.193  1.2458 -4.5759 -3.3773
  212MOL0     H27944  -0.042   7.228   2.090  3.1177 -3.9748  1.3946
  212MOL0     H27945  -0.065   7.347   2.217  1.3860  0.4425 -0.0332
  212MOL0     H27946  -0.262   7.369   2.079 -0.1891  0.1906  1.2521
  212MOL0     H27947  -0.454   7.347   1.970 -0.1206  0.2777 -1.0591
  212MOL0     H27948  -0.947   7.086   2.205  1.0350  0.9458 -0.8173
  212MOL0     H27949  -1.209   7.058   2.151 -1.4755 -2.5336 -0.6124
  212MOL0     H27950  -1.278   6.906   1.727 -1.0889  0.0043 -0.7450
  212MOL0     H27951  -1.326   7.080   1.722 -2.2752  0.7887 -0.5803
  212MOL0     H27952  -1.506   6.863   1.830 -0.3364  1.1455  2.8499
  212MOL0     H27953  -1.525   6.945   1.671  2.7300  3.5755 -1.7694
  212MOL0     H27954  -1.518   7.176   1.801  3.8020 -0.6532 -0.3874
  212MOL0     H27955  -1.522   7.071   1.942  0.9273  1.5184 -0.7093
  212MOL0     H27956  -1.735   7.093   1.726  1.0291 -0.4626 -0.3950
  212MOL0     H27957  -1.758   6.982   1.875 -3.6224  3.1544  0.9774
  212MOL0     H27958  -1.743   7.268   1.922 -0.5834  0.0321  0.7756
  212MOL0     H27959  -1.752   7.130   2.032 -0.5687  2.3886  0.5672
  212MOL0     H27960  -1.983   7.071   1.915 -0.0144 -0.9506 -2.6124
  212MOL0     H27961  -1.943   7.188   1.797 -2.4053 -2.0815  0.8990
  212MOL0     H27962  -2.018   7.244   2.097 -0.6237 -0.9375 -0.2385
  212MOL0     H27963  -1.967   7.375   1.992 -0.1075 -0.3210 -1.1428
  212MOL0     H27964  -2.147   7.374   1.859 -0.9837 -0.8681 -1.1802
  212MOL0     H27965  -2.197   7.368   2.030  0.9514 -0.7097  0.8984
  212MOL0     H27966  -1.087   7.011   1.736  1.6416  0.6509 -1.9170
  212MOL0     H27967  -0.849   7.036   1.800  0.8809  0.9924  0.3321
  212MOL0     H27968  -0.558   6.989   2.189  1.3166 -1.3561  0.4775
  212MOL0     H27969  -0.337   6.995   2.284  0.6242 -0.4618 -1.0632
  212MOL0     H27970   1.222   7.743   2.161  1.1077 -0.7018 -0.6998
  212MOL0     H27971   1.479   7.757   2.221 -0.1177 -0.3228 -0.9314
  212MOL0     H27972   1.808   7.578   2.472  1.0797 -0.3785  0.6443
  212MOL0     H27973   2.060   7.582   2.438 -0.0272  0.3615  1.6224
  212MOL0     H27974   2.273   7.973   2.460  0.8915  0.7147  0.5396
  212MOL0     H27975   2.274   7.930   2.297 -2.0757  0.3238  0.4414
  212MOL0     H27976   2.450   7.826   2.533 -1.6710  2.9701  0.9884
  212MOL0     H27977   2.488   7.792   2.358 -0.0738  1.1243 -0.8175
  212MOL0     H27978   2.477   8.054   2.507  1.7893  0.3195 -0.2640
  212MOL0     H27979   2.539   8.043   2.342 -1.5876  0.2409 -0.9498
  212MOL0     H27980   2.668   7.894   2.575 -1.8474  0.0230 -0.2872
  212MOL0     H27981   2.726   7.907   2.406 -1.8422 -0.5423 -1.1390
  212MOL0     H27982   2.845   8.283   2.554  2.2433 -0.9520  0.4459
  212MOL0     H27983   2.051   8.003   2.403 -0.9139 -0.1362  0.0864
  212MOL0     H27984   1.812   8.000   2.413 -1.8789 -0.9295  0.7286
  213MOL0     O27985   8.142   8.278   6.019  0.6353 -0.3690  0.5018
  213MOL0     C27986   8.112   8.164   6.032 -0.3753  0.1888  0.0468
  213MOL0     O27987   8.185   8.061   5.981  0.0264 -0.0429  0.4425
  213MOL0     C27988   8.301   8.081   5.910  0.1391  0.4901 -0.1597
  213MOL0     C27989   8.295   8.133   5.781 -0.8743  0.4994  0.5375
  213MOL0     C27990   8.412   8.132   5.706 -0.6693 -0.6082 -0.6118
  213MOL0     C27991   8.532   8.081   5.754 -0.3010 -0.1170 -0.4241
  213MOL0     O27992   8.630   8.090   5.664 -0.3396  1.0365  0.1919
  213MOL0     C27993   8.764   8.106   5.708  0.1387  0.4603 -0.0893
  213MOL0     C27994   8.806   8.251   5.660  0.3507  0.5664  0.8986
  213MOL0     C27995   8.959   8.263   5.678  0.0736 -0.6898 -0.9877
  213MOL0     C27996   9.017   8.382   5.597  0.1954  0.2986 -0.4293
  213MOL0     C27997   9.167   8.400   5.635  0.1315 -0.3195 -0.3515
  213MOL0     C27998   9.222   8.515   5.547 -0.1563 -0.6670  0.6248
  213MOL0     C27999   9.377   8.512   5.548  0.2851 -0.5354 -0.2041
  213MOL0     C28000   9.433   8.638   5.477 -1.4226 -0.0623  0.0070
  213MOL0     N28001   9.578   8.617   5.459 -0.8306  0.2059 -0.2129
  213MOL0     C28002   9.673   8.707   5.498  0.3787 -0.0051 -0.3148
  213MOL0     C28003   9.796   8.659   5.459  0.7664  0.1460  0.2403
  213MOL0     C28004   9.930   8.728   5.484 -0.6507 -1.0033  0.1861
  213MOL0     C28005   9.960   8.878   5.443 -0.1178  0.0574  0.8178
  213MOL0     C28006   9.986   8.885   5.297 -0.1881  0.0992 -0.2178
  213MOL0     C28007   9.855   8.879   5.220  0.2696 -0.1443  0.2864
  213MOL0     O28008   9.770   8.989   5.248 -0.3886  0.0615  0.3930
  213MOL0     C28009   9.636   8.968   5.259  0.1647 -0.5649 -0.4935
  213MOL0     C28010   9.566   9.026   5.366  0.6110 -0.0118  0.1646
  213MOL0     C28011   9.424   9.014   5.362 -0.1214  0.5809 -0.5076
  213MOL0     C28012   9.353   8.921   5.274 -1.0915  0.2702 -0.4542
  213MOL0     C28013   9.204   8.900   5.284  0.1623  0.2200 -0.0293
  213MOL0     O28014   9.157   8.783   5.226 -0.1564 -0.0684  0.0143
  213MOL0     C28015   9.025   8.756   5.233 -0.2729 -0.0590 -0.3405
  213MOL0     C28016   8.917   8.846   5.239 -0.5736 -0.0514  0.1303
  213MOL0     C28017   8.781   8.795   5.256  0.9781 -0.7175 -0.7763
  213MOL0     C28018   8.755   8.659   5.268 -0.2063 -0.8204 -0.9946
  213MOL0     O28019   8.630   8.627   5.301  0.6320  0.7787 -0.6664
  213MOL0     C28020   8.609   8.506   5.375  0.6792 -0.1004  0.3026
  213MOL0     C28021   8.468   8.503   5.431  0.1236  0.1583  0.5888
  213MOL0     C28022   8.376   8.469   5.306  0.6266 -0.2926 -0.1125
  213MOL0     C28023   8.219   8.457   5.336 -0.3696  0.8782  0.0551
  213MOL0     C28024   8.132   8.467   5.211 -0.6671  0.1866  0.6452
  213MOL0     C28025   7.991   8.480   5.248  0.4193 -0.1216 -0.4506
  213MOL0     C28026   7.887   8.477   5.130 -0.1985  0.5018 -0.5672
  213MOL0     C28027   7.927   8.570   5.013 -0.1379 -0.7912 -0.3823
  213MOL0    Cl28028   7.813   8.546   4.882 -0.2390 -0.1805  0.3753
  213MOL0     C28029   8.865   8.575   5.267  0.7498  1.1525 -0.0157
  213MOL0     C28030   8.990   8.623   5.238 -0.2475  0.9800 -0.1591
  213MOL0     O28031   9.140   8.981   5.354  0.5283  0.2028  0.0079
  213MOL0     C28032   9.433   8.868   5.170 -0.0299  0.3777 -0.7855
  213MOL0     C28033   9.569   8.899   5.163 -0.8167 -0.0834 -1.0094
  213MOL0     N28034   9.770   8.534   5.400 -0.1474  0.7030  0.2142
  213MOL0     N28035   9.643   8.517   5.396  0.1689  0.5352  0.1555
  213MOL0     C28036   8.535   8.041   5.883 -0.0155  0.2406 -0.1399
  213MOL0     C28037   8.423   8.050   5.967  0.3804  0.8237  0.7272
  213MOL0     C28038   7.989   8.124   6.104  0.3998 -1.3969  0.0268
  213MOL0     C28039   7.905   8.221   6.168  0.3244  1.1591  0.7437
  213MOL0     C28040   7.790   8.190   6.236  1.1336 -0.3310  0.6318
  213MOL0     C28041   7.745   8.057   6.234 -0.3377  0.5889  0.5847
  213MOL0     O28042   7.626   8.029   6.304 -0.3923  0.4766 -0.2668
  213MOL0     C28043   7.581   7.900   6.323  0.2583  1.2311  0.2557
  213MOL0     C28044   7.452   7.884   6.407  0.3257 -0.3103  0.0533
  213MOL0     C28045   7.337   7.951   6.331  1.1014  0.3687  0.1555
  213MOL0     C28046   7.207   7.910   6.395 -0.0815  0.1641  0.1093
  213MOL0     C28047   7.110   7.844   6.301  0.3888  0.1621 -0.2285
  213MOL0     C28048   7.024   7.793   6.230  0.0960  0.0087  0.8603
  213MOL0     C28049   7.826   7.958   6.167 -0.1660  0.7095  1.1675
  213MOL0     C28050   7.947   7.991   6.102 -0.1097  0.3178  0.0664
  213MOL0     H28051   8.198   8.151   5.735 -1.1496  1.5368  1.4782
  213MOL0     H28052   8.421   8.161   5.602  1.0318 -1.9925 -0.8863
  213MOL0     H28053   8.836   8.044   5.654  1.2643 -0.9172  2.7541
  213MOL0     H28054   8.773   8.086   5.816 -0.2698 -0.8990 -0.2854
  213MOL0     H28055   8.751   8.327   5.715 -0.0948  0.8582  0.0642
  213MOL0     H28056   8.788   8.270   5.554 -0.7243 -0.7875  0.8114
  213MOL0     H28057   9.012   8.168   5.664 -1.3133 -2.0298  1.8746
  213MOL0     H28058   8.983   8.279   5.784 -0.7609  3.5935 -1.2844
  213MOL0     H28059   9.006   8.362   5.490  1.1016  1.6603 -0.8064
  213MOL0     H28060   8.966   8.474   5.626  0.3339  0.4257 -0.5883
  213MOL0     H28061   9.222   8.306   5.622 -0.1683 -0.6700  0.8374
  213MOL0     H28062   9.170   8.438   5.737  2.8611 -1.8520  0.2370
  213MOL0     H28063   9.179   8.609   5.582 -1.3265 -1.1906  0.6499
  213MOL0     H28064   9.190   8.511   5.442 -0.3929 -0.3917  0.6857
  213MOL0     H28065   9.414   8.516   5.651  1.1461  0.4518 -0.5315
  213MOL0     H28066   9.411   8.418   5.504 -1.6737 -0.2623 -2.4864
  213MOL0     H28067   9.427   8.726   5.542  1.6123 -1.0883  1.8904
  213MOL0     H28068   9.384   8.659   5.382 -1.4233  0.0191  0.0246
  213MOL0     H28069   9.659   8.799   5.554 -0.5438 -0.4440  0.2026
  213MOL0     H28070  10.014   8.670   5.445 -0.8232 -0.8376 -0.4265
  213MOL0     H28071   9.938   8.710   5.592 -1.4040  0.2111  0.4626
  213MOL0     H28072  10.041   8.918   5.505 -1.3027  0.1577  2.3735
  213MOL0     H28073   9.872   8.937   5.471  1.5204  2.5029  1.0927
  213MOL0     H28074  10.042   8.978   5.278  2.4194 -0.9896  1.5988
  213MOL0     H28075  10.053   8.809   5.257 -1.3392  0.1480 -2.3816
  213MOL0     H28076   9.802   8.785   5.235 -0.2154 -0.2899 -1.9163
  213MOL0     H28077   9.871   8.890   5.112 -2.8030 -4.5342 -0.8993
  213MOL0     H28078   9.616   9.088   5.440 -2.0306  0.8766  1.3442
  213MOL0     H28079   9.366   9.055   5.444 -2.8853 -2.3374 -0.8091
  213MOL0     H28080   8.939   8.950   5.221 -0.6222  0.0073  0.4098
  213MOL0     H28081   8.695   8.861   5.261 -1.0685 -3.3013  1.2437
  213MOL0     H28082   8.681   8.502   5.458  2.1743  1.5630 -0.8224
  213MOL0     H28083   8.618   8.420   5.308 -2.8760 -1.2878  1.1481
  213MOL0     H28084   8.433   8.595   5.478 -0.2725  0.9952 -1.2436
  213MOL0     H28085   8.467   8.425   5.508 -0.2712 -2.3225 -1.7595
  213MOL0     H28086   8.415   8.376   5.264 -0.8403 -0.9925  0.0196
  213MOL0     H28087   8.391   8.555   5.240  1.6293 -0.4416 -0.0974
  213MOL0     H28088   8.202   8.363   5.390 -1.9854  0.7741 -0.5788
  213MOL0     H28089   8.188   8.536   5.406  1.0310  2.1275 -0.6811
  213MOL0     H28090   8.142   8.367   5.168 -1.7500  0.1846  0.3702
  213MOL0     H28091   8.162   8.547   5.144 -0.8314 -0.9536 -0.8300
  213MOL0     H28092   7.976   8.574   5.301 -1.8648  0.9523 -2.7968
  213MOL0     H28093   7.973   8.392   5.310  2.6993 -1.6185 -1.7578
  213MOL0     H28094   7.886   8.376   5.088  2.2263 -0.2901  1.0684
  213MOL0     H28095   7.788   8.514   5.159  0.2282  1.9481 -0.8705
  213MOL0     H28096   8.024   8.529   4.983  0.4552 -0.1813  0.6338
  213MOL0     H28097   7.941   8.672   5.050 -0.4260 -0.9141  0.0754
  213MOL0     H28098   8.844   8.470   5.286 -1.5129  1.9798  2.5841
  213MOL0     H28099   9.074   8.555   5.225  0.9711  2.3367  0.3645
  213MOL0     H28100   9.388   8.799   5.100 -0.9689  1.6035 -1.4168
  213MOL0     H28101   9.626   8.859   5.080  0.6875  0.1307 -0.1185
  213MOL0     H28102   8.627   8.006   5.929 -1.0516  0.5752  2.3730
  213MOL0     H28103   8.434   8.002   6.064  2.5219 -0.5666 -0.1122
  213MOL0     H28104   7.927   8.327   6.163  0.4628  1.1954  1.7723
  213MOL0     H28105   7.723   8.266   6.277 -0.6444 -0.6653 -1.4355
  213MOL0     H28106   7.655   7.838   6.375  1.5958  1.1103 -1.6917
  213MOL0     H28107   7.560   7.850   6.228 -1.5154  1.9205  0.2332
  213MOL0     H28108   7.429   7.777   6.410 -2.5787  0.2651  1.7246
  213MOL0     H28109   7.471   7.912   6.512  1.8680 -0.0835 -0.2591
  213MOL0     H28110   7.327   7.915   6.228  0.2178 -1.1772  0.7473
  213MOL0     H28111   7.346   8.060   6.330 -0.6711  0.5714 -2.1511
  213MOL0     H28112   7.226   7.849   6.483  1.2519  1.5137  0.7926
  213MOL0     H28113   7.165   8.008   6.419  1.4921  1.1923 -1.1076
  213MOL0     H28114   6.954   7.726   6.184 -0.8690  1.7605 -0.3215
  213MOL0     H28115   7.798   7.854   6.152 -1.2995  1.1523 -0.0474
  213MOL0     H28116   7.996   7.907   6.055 -2.0425  0.9376 -3.3389
  214MOL0     O28117   3.172   1.823   1.903 -0.2971 -0.5330 -0.1729
  214MOL0     C28118   3.141   1.938   1.938 -0.2166 -0.0570 -0.1959
  214MOL0     O28119   3.019   2.000   1.926  0.1881 -0.3773 -0.8360
  214MOL0     C28120   2.916   1.928   1.873 -0.4506 -0.1671 -0.7508
  214MOL0     C28121   2.861   1.958   1.742 -0.3571 -0.1154 -0.0853
  214MOL0     C28122   2.742   1.887   1.700 -0.0514 -0.0296 -0.7718
  214MOL0     C28123   2.687   1.780   1.780  0.0635  0.5576  0.1824
  214MOL0     O28124   2.602   1.686   1.731 -0.0068 -0.1157 -0.0238
  214MOL0     C28125   2.532   1.715   1.610 -0.7933  0.4777  0.1016
  214MOL0     C28126   2.436   1.604   1.566 -0.3235  0.2067 -0.6457
  214MOL0     C28127   2.301   1.624   1.645 -0.2334 -0.5150  0.7853
  214MOL0     C28128   2.201   1.513   1.624  0.0083  0.4481 -0.2833
  214MOL0     C28129   2.061   1.532   1.692 -0.1291  0.8013  0.3353
  214MOL0     C28130   1.959   1.445   1.621 -0.0873  0.5170  0.7277
  214MOL0     C28131   1.825   1.435   1.700 -0.2027 -0.1425  0.5203
  214MOL0     C28132   1.746   1.344   1.605  0.4075  0.4257  0.0886
  214MOL0     N28133   1.624   1.303   1.681  0.9349 -0.2842 -0.2103
  214MOL0     C28134   1.621   1.206   1.786  0.4985  0.4426  0.3040
  214MOL0     C28135   1.506   1.140   1.763  0.0806 -0.0302 -0.0389
  214MOL0     C28136   1.487   1.005   1.822  0.2606 -0.1038 -0.4278
  214MOL0     C28137   1.406   0.999   1.948 -0.1817  0.7189  0.3483
  214MOL0     C28138   1.264   1.056   1.938 -0.1522  0.8146 -0.5836
  214MOL0     C28139   1.169   0.988   1.849  0.0644 -0.3785  0.1084
  214MOL0     O28140   1.122   0.873   1.912  0.2669 -0.1687 -0.0158
  214MOL0     C28141   1.014   0.891   1.995  0.4418  0.0584  0.7438
  214MOL0     C28142   1.018   0.860   2.129 -0.1787  1.0237 -0.6339
  214MOL0     C28143   0.910   0.865   2.216  0.3868 -0.0374  0.5639
  214MOL0     C28144   0.789   0.918   2.163 -0.6130  0.8755 -0.4874
  214MOL0     C28145   0.663   0.932   2.254  0.0514 -0.1334 -0.2800
  214MOL0     O28146   0.678   0.906   2.381  0.1750 -0.2088 -0.0690
  214MOL0     C28147   0.568   0.939   2.455  0.6592 -0.3953  0.4613
  214MOL0     C28148   0.460   0.853   2.485 -0.4681  0.1821  0.3119
  214MOL0     C28149   0.362   0.891   2.577  0.1182  0.4685 -0.2422
  214MOL0     C28150   0.371   1.007   2.655 -0.1216 -0.6649 -0.1399
  214MOL0     O28151   0.283   1.052   2.752  0.1444  0.1312  0.5547
  214MOL0     C28152   0.194   0.964   2.821  0.5549  0.7462 -1.0485
  214MOL0     C28153   0.107   1.043   2.912 -0.3997 -0.2924 -0.3035
  214MOL0     C28154   0.176   1.124   3.017  0.1619 -0.6950  0.5618
  214MOL0     C28155   0.160   1.057   3.149 -0.5149  0.4617 -1.0264
  214MOL0     C28156   0.230   1.136   3.263  0.6216 -0.0924  0.0655
  214MOL0     C28157   0.278   1.047   3.377  0.1807  0.8883 -0.3687
  214MOL0     C28158   0.333   1.126   3.502  1.1152  0.2217  0.4465
  214MOL0     C28159   0.462   1.197   3.474 -0.2416 -0.4041  0.2070
  214MOL0    Cl28160   0.500   1.285   3.622 -0.2905 -0.7300  0.0969
  214MOL0     C28161   0.486   1.081   2.639 -0.5332 -0.0557  0.1511
  214MOL0     C28162   0.579   1.049   2.534  0.1221 -0.3766  0.4908
  214MOL0     O28163   0.561   0.978   2.204  0.4303 -0.3894  0.2221
  214MOL0     C28164   0.787   0.954   2.031  0.4174 -0.2746  0.9870
  214MOL0     C28165   0.894   0.927   1.940  0.0020  0.8434 -0.3222
  214MOL0     N28166   1.431   1.209   1.671  0.5562 -0.0053  0.3310
  214MOL0     N28167   1.505   1.308   1.620  0.4886  0.6770 -0.5387
  214MOL0     C28168   2.744   1.751   1.905 -1.4252 -0.0256 -0.3596
  214MOL0     C28169   2.848   1.832   1.961  0.8558  0.2681 -0.0061
  214MOL0     C28170   3.256   2.028   1.992 -0.6252  0.7708  0.0886
  214MOL0     C28171   3.225   2.147   2.055 -0.8194 -0.3245  0.3724
  214MOL0     C28172   3.328   2.237   2.094 -0.7397 -0.2986 -0.3054
  214MOL0     C28173   3.462   2.219   2.056 -0.3748  0.1093  0.5032
  214MOL0     O28174   3.556   2.315   2.097  1.0280 -0.3426 -0.9505
  214MOL0     C28175   3.682   2.315   2.042 -0.1686 -0.4470 -0.0500
  214MOL0     C28176   3.697   2.338   1.890  0.3820  0.0990 -0.3578
  214MOL0     C28177   3.660   2.477   1.832 -0.1899  0.6614 -0.3157
  214MOL0     C28178   3.685   2.502   1.681 -0.2100 -0.8242 -0.1730
  214MOL0     C28179   3.826   2.539   1.654  0.3792  0.3255  0.1836
  214MOL0     C28180   3.944   2.562   1.637  0.0443 -0.1277 -0.0181
  214MOL0     C28181   3.488   2.093   1.996  0.0587 -0.2299  0.2997
  214MOL0     C28182   3.388   1.997   1.963  0.1831 -0.1673  0.6456
  214MOL0     H28183   2.919   2.014   1.669  0.3897 -1.1940 -0.3482
  214MOL0     H28184   2.716   1.900   1.596 -3.0406 -0.5937 -0.2008
  214MOL0     H28185   2.607   1.713   1.530 -1.9786  2.3998 -1.1424
  214MOL0     H28186   2.483   1.813   1.601 -2.0427 -0.1466 -0.0351
  214MOL0     H28187   2.480   1.510   1.600  1.0967  1.2770  0.5916
  214MOL0     H28188   2.422   1.593   1.458 -1.0647 -1.7500 -0.3831
  214MOL0     H28189   2.247   1.715   1.616 -2.9241 -2.7767 -1.7524
  214MOL0     H28190   2.323   1.640   1.752  1.2534  0.9214  0.3133
  214MOL0     H28191   2.187   1.496   1.517  2.0993  0.6879 -0.6346
  214MOL0     H28192   2.246   1.419   1.656  1.4299  1.2761  0.2057
  214MOL0     H28193   2.027   1.635   1.682 -0.3737  0.7304  0.4433
  214MOL0     H28194   2.073   1.503   1.797  0.7338  0.6394  0.2071
  214MOL0     H28195   2.010   1.348   1.616 -2.1801 -0.5858 -2.1715
  214MOL0     H28196   1.942   1.474   1.517  1.1920 -0.4956  0.2046
  214MOL0     H28197   1.843   1.395   1.800 -0.5915  0.3991  0.8178
  214MOL0     H28198   1.778   1.533   1.716  3.4398  2.0442 -1.0364
  214MOL0     H28199   1.791   1.248   1.580 -0.8255 -0.2510  0.3806
  214MOL0     H28200   1.721   1.394   1.511  0.6682 -0.9722 -0.7552
  214MOL0     H28201   1.699   1.179   1.856  0.5809  2.8074  1.2076
  214MOL0     H28202   1.585   0.965   1.850  0.3163  1.6200  2.2457
  214MOL0     H28203   1.455   0.934   1.745  1.6117 -0.0269 -1.0876
  214MOL0     H28204   1.467   1.057   2.018  0.0305 -0.0486  0.8154
  214MOL0     H28205   1.396   0.895   1.980  0.9562  0.2556 -0.6992
  214MOL0     H28206   1.222   1.037   2.037  0.7618 -4.2079 -0.8746
  214MOL0     H28207   1.281   1.159   1.906  2.7413  0.0760 -1.8129
  214MOL0     H28208   1.214   0.960   1.754 -0.0361  2.7291 -0.9550
  214MOL0     H28209   1.087   1.056   1.824 -0.4717 -0.9542  0.2397
  214MOL0     H28210   1.111   0.832   2.175 -0.5412 -1.3047 -1.2007
  214MOL0     H28211   0.920   0.850   2.323 -1.2441  1.4604  0.9768
  214MOL0     H28212   0.451   0.759   2.432 -0.8339  1.2558 -1.5946
  214MOL0     H28213   0.273   0.829   2.580 -1.2513  2.3426 -0.6662
  214MOL0     H28214   0.236   0.881   2.878 -2.5046 -0.5374 -0.4842
  214MOL0     H28215   0.116   0.919   2.759 -1.5710  1.4599  0.9654
  214MOL0     H28216   0.034   0.971   2.952 -1.8152  0.0366 -2.1120
  214MOL0     H28217   0.055   1.119   2.852 -0.9669  1.8838  2.7026
  214MOL0     H28218   0.153   1.231   3.011  1.7337 -0.3976 -0.8215
  214MOL0     H28219   0.284   1.119   3.003  0.0093 -2.3658 -0.3061
  214MOL0     H28220   0.058   1.032   3.180 -0.1763  0.2952 -0.0252
  214MOL0     H28221   0.214   0.963   3.141 -0.2287  0.6326 -1.1344
  214MOL0     H28222   0.156   1.204   3.308  1.5507  0.9684  0.0438
  214MOL0     H28223   0.312   1.196   3.222 -0.8771  3.3281  1.6913
  214MOL0     H28224   0.356   0.982   3.337 -0.2602  0.5319 -0.6504
  214MOL0     H28225   0.199   0.976   3.406  0.2772 -0.3256 -2.8389
  214MOL0     H28226   0.256   1.201   3.524  2.3688  1.5725  0.3713
  214MOL0     H28227   0.355   1.060   3.587 -0.4351  0.7640  1.3143
  214MOL0     H28228   0.458   1.269   3.391 -1.6038 -0.8920 -0.1758
  214MOL0     H28229   0.547   1.131   3.456 -0.0728 -0.5688  1.5005
  214MOL0     H28230   0.520   1.176   2.680  1.6382 -0.8842  0.4263
  214MOL0     H28231   0.665   1.109   2.511 -1.0127  1.7047  1.4137
  214MOL0     H28232   0.691   0.994   1.999  0.4181 -0.6621  0.4794
  214MOL0     H28233   0.882   0.947   1.834  0.8612 -3.0400 -1.3129
  214MOL0     H28234   2.699   1.664   1.950 -1.4712  0.5249  0.6801
  214MOL0     H28235   2.891   1.800   2.055 -0.5045  1.8608  1.2287
  214MOL0     H28236   3.122   2.170   2.079 -1.2217 -2.9231  1.5525
  214MOL0     H28237   3.311   2.327   2.152  1.2782 -0.3628  0.4574
  214MOL0     H28238   3.749   2.235   2.075  2.0220  0.8479 -1.0867
  214MOL0     H28239   3.729   2.408   2.077 -0.3453  0.0168 -1.0013
  214MOL0     H28240   3.801   2.316   1.865  0.1457 -3.0883  0.9461
  214MOL0     H28241   3.643   2.258   1.838 -2.0383  1.5138 -0.1694
  214MOL0     H28242   3.721   2.552   1.885 -1.3617  1.4256 -0.0263
  214MOL0     H28243   3.556   2.485   1.864 -0.0508 -0.0037  0.3522
  214MOL0     H28244   3.661   2.411   1.626 -1.2969 -2.4309  2.7543
  214MOL0     H28245   3.619   2.585   1.653 -0.3663 -1.7573 -2.8522
  214MOL0     H28246   4.046   2.573   1.607 -0.2708  1.8402 -0.4861
  214MOL0     H28247   3.587   2.064   1.962  0.3823  1.0127  0.1301
  214MOL0     H28248   3.404   1.905   1.907  1.0951 -1.5717  3.0529
  215MOL0     O28249   9.261   2.788   6.774 -0.2325  0.3038  0.5614
  215MOL0     C28250   9.265   2.883   6.846 -0.6360 -0.2407 -0.4907
  215MOL0     O28251   9.164   2.946   6.913  0.3835  0.1110  0.6672
  215MOL0     C28252   9.037   2.901   6.869  0.4082  0.1962 -0.2799
  215MOL0     C28253   8.937   2.853   6.958  0.5623 -0.2642  0.0176
  215MOL0     C28254   8.815   2.819   6.910  0.2556 -0.6578  0.1055
  215MOL0     C28255   8.778   2.817   6.777  0.1901 -0.0281 -0.3550
  215MOL0     O28256   8.659   2.785   6.730  0.5542  0.3831  0.4297
  215MOL0     C28257   8.535   2.840   6.772  0.1852  0.7500  0.0343
  215MOL0     C28258   8.448   2.732   6.835  0.3592  0.0279 -0.2182
  215MOL0     C28259   8.304   2.787   6.864  0.2253 -1.1112 -0.2041
  215MOL0     C28260   8.200   2.686   6.893 -0.0064 -0.4125 -0.0391
  215MOL0     C28261   8.056   2.749   6.900 -0.0214 -0.1575 -0.2896
  215MOL0     C28262   7.964   2.642   6.960  1.1371  0.1864  1.0307
  215MOL0     C28263   7.829   2.706   6.997 -0.5192  0.6922 -0.0025
  215MOL0     C28264   7.738   2.606   7.063 -0.2118 -0.3533 -1.3570
  215MOL0     N28265   7.600   2.644   7.048  0.0733 -0.7880  0.2239
  215MOL0     C28266   7.512   2.599   6.952  0.2553  0.0111 -0.0740
  215MOL0     C28267   7.394   2.650   6.988  0.1972  0.6335 -0.5468
  215MOL0     C28268   7.266   2.599   6.924 -0.6435  0.1070  0.3301
  215MOL0     C28269   7.155   2.546   7.019 -0.4563 -0.0008  0.0244
  215MOL0     C28270   7.034   2.520   6.932  0.0543  0.6128  0.5541
  215MOL0     C28271   6.968   2.646   6.895 -0.8258 -0.2899  0.6885
  215MOL0     O28272   6.827   2.631   6.847  0.5412 -0.7888 -0.2892
  215MOL0     C28273   6.796   2.580   6.728  0.4878 -0.0276  0.7379
  215MOL0     C28274   6.664   2.550   6.694 -0.3976 -0.3154  0.2861
  215MOL0     C28275   6.632   2.505   6.570  0.3642 -0.0666  0.9963
  215MOL0     C28276   6.723   2.504   6.470 -0.7945  0.3022 -0.7134
  215MOL0     C28277   6.678   2.459   6.332 -0.4966  0.3824 -0.0722
  215MOL0     O28278   6.552   2.440   6.316  0.2461  0.0541 -0.3699
  215MOL0     C28279   6.492   2.417   6.195  1.1483 -0.3596 -0.2831
  215MOL0     C28280   6.544   2.342   6.086  0.0431 -0.9049  0.0613
  215MOL0     C28281   6.463   2.307   5.978  0.1713 -0.2764  1.7266
  215MOL0     C28282   6.332   2.345   5.971 -0.5301 -0.0645 -0.4848
  215MOL0     O28283   6.258   2.296   5.871 -0.1134  0.0700  0.2176
  215MOL0     C28284   6.121   2.258   5.896  0.0790 -0.4381  0.6343
  215MOL0     C28285   6.030   2.379   5.862 -0.8981  0.1577  0.7066
  215MOL0     C28286   5.955   2.359   5.727 -0.9279  0.6809 -0.1129
  215MOL0     C28287   5.820   2.273   5.728  0.5831 -0.3637  0.8058
  215MOL0     C28288   5.771   2.236   5.587  0.2727  0.1930 -0.5385
  215MOL0     C28289   5.689   2.110   5.578 -0.0081  0.5539  0.0990
  215MOL0     C28290   5.649   2.072   5.435  0.4606 -0.0242  0.3104
  215MOL0     C28291   5.537   1.968   5.421 -0.1124  0.6324  0.4006
  215MOL0    Cl28292   5.571   1.814   5.501  0.3636  0.1526  0.0366
  215MOL0     C28293   6.282   2.441   6.064  0.6429  0.2787  0.0699
  215MOL0     C28294   6.360   2.472   6.171 -1.0435 -0.6318 -0.5088
  215MOL0     O28295   6.764   2.453   6.247 -0.4550 -0.2804 -0.0351
  215MOL0     C28296   6.860   2.523   6.504 -0.0477 -0.2860  0.0756
  215MOL0     C28297   6.902   2.550   6.632  0.8207  0.4088 -0.5098
  215MOL0     N28298   7.411   2.722   7.105 -0.1281  0.6530  0.6094
  215MOL0     N28299   7.537   2.725   7.133  0.5597 -0.1425  0.4863
  215MOL0     C28300   8.879   2.848   6.684 -0.3098 -0.6801  0.4697
  215MOL0     C28301   9.001   2.896   6.730  0.4638 -0.1238 -1.0747
  215MOL0     C28302   9.390   2.955   6.862  0.5007  0.4614  0.6115
  215MOL0     C28303   9.491   2.921   6.772 -0.3597 -0.0794 -0.1993
  215MOL0     C28304   9.617   2.982   6.786 -0.5949 -0.7546 -0.2421
  215MOL0     C28305   9.642   3.078   6.883  0.7522 -0.1613  1.0081
  215MOL0     O28306   9.755   3.146   6.903 -0.8097 -0.1364  0.4826
  215MOL0     C28307   9.879   3.113   6.850 -0.1715 -0.0058 -0.1035
  215MOL0     C28308   9.977   3.231   6.843 -0.5668 -0.2374  0.7434
  215MOL0     C28309   9.942   3.345   6.948 -0.1374  0.0566  0.6705
  215MOL0     C28310   9.978   3.292   7.083 -0.1377  0.0672  0.0744
  215MOL0     C28311  10.122   3.297   7.112  0.5332 -0.1067 -0.6737
  215MOL0     C28312  10.235   3.304   7.159  0.4166  0.8005 -0.6012
  215MOL0     C28313   9.534   3.121   6.956 -0.2985  0.5519 -0.4781
  215MOL0     C28314   9.412   3.055   6.951  0.1441  0.2614 -0.3125
  215MOL0     H28315   8.939   2.861   7.066  0.1285 -1.4987  0.1283
  215MOL0     H28316   8.735   2.813   6.983 -0.9482  0.4352 -1.0684
  215MOL0     H28317   8.487   2.893   6.689 -1.6904  1.5069  1.5242
  215MOL0     H28318   8.553   2.919   6.846  0.0933  0.0710  0.8013
  215MOL0     H28319   8.493   2.696   6.928  0.1977 -0.3123 -0.2742
  215MOL0     H28320   8.444   2.644   6.770  0.0007 -1.0295  1.1902
  215MOL0     H28321   8.272   2.842   6.776 -4.1010 -2.7693  0.1034
  215MOL0     H28322   8.309   2.862   6.944 -0.3574  1.3120 -2.3055
  215MOL0     H28323   8.203   2.603   6.822 -0.9030  2.0835 -3.2404
  215MOL0     H28324   8.222   2.644   6.991 -0.3435  2.9392  1.6394
  215MOL0     H28325   8.030   2.775   6.797  1.4114  3.8050  0.1516
  215MOL0     H28326   8.053   2.841   6.960  0.6527 -2.6904  4.0177
  215MOL0     H28327   8.003   2.591   7.048 -0.5568  0.1186  1.7933
  215MOL0     H28328   7.938   2.568   6.884 -0.6159 -1.1706  2.8195
  215MOL0     H28329   7.851   2.792   7.060  1.8114 -0.2875  0.6036
  215MOL0     H28330   7.780   2.742   6.906 -1.0318  1.3541  0.5211
  215MOL0     H28331   7.752   2.612   7.172 -2.2244 -0.3497 -1.0633
  215MOL0     H28332   7.763   2.504   7.032  2.2701 -0.7926  1.6128
  215MOL0     H28333   7.526   2.515   6.885  3.5776  0.3236  0.0419
  215MOL0     H28334   7.307   2.534   6.846  0.8584  1.4579 -0.0803
  215MOL0     H28335   7.221   2.681   6.866  1.2185 -0.2739 -1.8039
  215MOL0     H28336   7.144   2.631   7.088  0.8218 -0.0372  0.2920
  215MOL0     H28337   7.186   2.456   7.073  0.8436  0.3195 -0.1596
  215MOL0     H28338   7.056   2.450   6.851 -1.6016 -0.3726  0.9034
  215MOL0     H28339   6.965   2.464   6.996  1.4806 -2.0457 -0.0988
  215MOL0     H28340   7.022   2.697   6.814  0.5815 -3.2410 -0.3843
  215MOL0     H28341   6.960   2.709   6.984 -1.6522 -1.9121  1.8144
  215MOL0     H28342   6.584   2.561   6.767  0.6179 -1.8225  1.7063
  215MOL0     H28343   6.526   2.487   6.550 -0.2331  3.7256  0.0452
  215MOL0     H28344   6.649   2.317   6.080  0.8129  1.9672  0.2171
  215MOL0     H28345   6.508   2.247   5.900 -0.2001 -0.6630  1.8029
  215MOL0     H28346   6.115   2.240   6.004 -0.3784 -0.3109  0.6315
  215MOL0     H28347   6.097   2.166   5.843  1.1363 -0.9917  1.0795
  215MOL0     H28348   6.092   2.469   5.854 -2.9110  1.6115  0.6673
  215MOL0     H28349   5.956   2.380   5.943 -0.4734  1.7124  1.1051
  215MOL0     H28350   6.025   2.311   5.658  0.3591  1.0038  0.9062
  215MOL0     H28351   5.932   2.459   5.690  0.3396  1.5169  1.2138
  215MOL0     H28352   5.838   2.179   5.781 -2.3282 -1.1144  0.6273
  215MOL0     H28353   5.735   2.324   5.774 -0.2559 -0.3855 -0.6579
  215MOL0     H28354   5.858   2.217   5.523  0.3220  0.0876 -0.4410
  215MOL0     H28355   5.707   2.316   5.548  0.6358  0.4924 -0.5322
  215MOL0     H28356   5.593   2.125   5.628 -1.5956 -0.3116 -2.4754
  215MOL0     H28357   5.739   2.027   5.629 -3.7599 -2.8426 -1.2412
  215MOL0     H28358   5.620   2.164   5.382  1.3273 -0.1414 -0.3899
  215MOL0     H28359   5.735   2.029   5.382 -0.5976 -2.2312  0.2702
  215MOL0     H28360   5.528   1.953   5.313 -0.6035  0.3496  0.4773
  215MOL0     H28361   5.442   2.011   5.454 -0.4229  1.7710 -1.8177
  215MOL0     H28362   6.177   2.466   6.055  1.2131  2.4003 -1.8765
  215MOL0     H28363   6.312   2.537   6.244  1.6478  1.4795 -0.4426
  215MOL0     H28364   6.936   2.502   6.429 -0.4673  0.2651 -0.5092
  215MOL0     H28365   7.007   2.542   6.659  0.7563  0.4330 -0.2456
  215MOL0     H28366   8.854   2.843   6.578  2.3939 -2.1170 -0.1939
  215MOL0     H28367   9.070   2.929   6.653  1.8778 -0.2101  0.0991
  215MOL0     H28368   9.484   2.843   6.697  1.4087 -1.1287  0.6527
  215MOL0     H28369   9.693   2.941   6.721  0.6931  0.3171  0.5350
  215MOL0     H28370   9.876   3.073   6.748 -0.3000 -0.1785 -0.0329
  215MOL0     H28371   9.918   3.030   6.909  1.6953 -0.4156 -1.8009
  215MOL0     H28372  10.078   3.191   6.839 -0.2037  0.7474 -0.5087
  215MOL0     H28373   9.958   3.281   6.748 -1.3885 -2.9598 -0.6353
  215MOL0     H28374   9.838   3.379   6.948  0.7595  3.0657  0.6959
  215MOL0     H28375  10.007   3.432   6.933 -1.1858  0.7001 -0.2103
  215MOL0     H28376   9.937   3.364   7.154 -1.0408  1.6755 -1.9686
  215MOL0     H28377   9.941   3.194   7.112 -0.7522  0.6750  1.4221
  215MOL0     H28378  10.326   3.318   7.214 -0.3989  1.0137  0.7334
  215MOL0     H28379   9.549   3.215   7.008  1.4228  2.3521 -3.9448
  215MOL0     H28380   9.333   3.104   7.008 -0.0797 -1.2837  0.7466
  216MOL0     O28381   9.724   0.218   5.303  0.1281  0.0267  0.3027
  216MOL0     C28382   9.736   0.314   5.386 -0.1268 -0.0758  0.3816
  216MOL0     O28383   9.633   0.403   5.415 -0.4543 -0.1172  0.0788
  216MOL0     C28384   9.526   0.406   5.335  0.0014  0.3659  0.0335
  216MOL0     C28385   9.532   0.416   5.195 -0.5575  0.7415 -0.3355
  216MOL0     C28386   9.407   0.414   5.128  0.2283  0.3310 -0.3221
  216MOL0     C28387   9.283   0.400   5.193 -0.2201 -0.0959  0.6128
  216MOL0     O28388   9.161   0.399   5.128  0.7426  0.2727  0.0573
  216MOL0     C28389   9.144   0.330   5.010 -0.7755  1.1805 -0.6892
  216MOL0     C28390   9.011   0.364   4.944  0.1418  0.3258 -0.3111
  216MOL0     C28391   8.977   0.273   4.827  0.3758 -0.0860 -0.2416
  216MOL0     C28392   9.075   0.286   4.714  0.9637 -0.5841 -0.8404
  216MOL0     C28393   9.000   0.250   4.581  0.5106  0.8443 -0.0350
  216MOL0     C28394   9.100   0.227   4.472  0.3185  0.1964 -0.0261
  216MOL0     C28395   9.180   0.345   4.437  0.7047  0.6012  0.2859
  216MOL0     C28396   9.273   0.312   4.319  0.0617 -0.2851  0.2476
  216MOL0     N28397   9.400   0.256   4.374  1.4234 -0.4150 -0.1782
  216MOL0     C28398   9.429   0.126   4.398  0.3805 -0.0000 -0.2370
  216MOL0     C28399   9.559   0.124   4.422  0.4110  0.1953 -0.0060
  216MOL0     C28400   9.654   0.002   4.418 -0.1281  0.1628 -0.0914
  216MOL0     C28401   9.602  -0.128   4.474  0.3148  0.0084  0.5319
  216MOL0     C28402   9.520  -0.220   4.382  0.2718  1.0064  0.0168
  216MOL0     C28403   9.607  -0.273   4.270 -0.3569 -0.1139  0.7902
  216MOL0     O28404   9.522  -0.345   4.176  0.1334 -0.1359 -0.4036
  216MOL0     C28405   9.432  -0.263   4.110  0.3198  0.6429 -0.3591
  216MOL0     C28406   9.459  -0.136   4.051  0.4564 -0.4415 -0.0535
  216MOL0     C28407   9.355  -0.066   3.984  0.0008  0.2173 -0.2964
  216MOL0     C28408   9.218  -0.114   3.993 -0.7714 -0.2916 -0.3627
  216MOL0     C28409   9.117  -0.041   3.907  0.5221 -0.2266 -0.3156
  216MOL0     O28410   8.997  -0.107   3.878  0.0486  0.3138  0.1153
  216MOL0     C28411   8.885  -0.029   3.858 -0.1069 -0.7262  0.1527
  216MOL0     C28412   8.875   0.066   3.758 -0.3215  0.3390 -0.1431
  216MOL0     C28413   8.754   0.136   3.744  0.6665  0.0956 -0.3432
  216MOL0     C28414   8.640   0.109   3.825  0.2732  0.3840  0.0701
  216MOL0     O28415   8.516   0.166   3.809 -0.2480  0.2859  0.9088
  216MOL0     C28416   8.493   0.250   3.692 -0.4916 -0.2267  0.7162
  216MOL0     C28417   8.358   0.312   3.699 -0.1034 -0.0816  0.3230
  216MOL0     C28418   8.249   0.217   3.693  0.0242  0.2254  0.6931
  216MOL0     C28419   8.127   0.309   3.707  0.0093  0.2951 -0.0117
  216MOL0     C28420   7.994   0.241   3.710  0.6363  0.0957  0.1388
  216MOL0     C28421   7.879   0.342   3.684  0.3478 -0.2136 -0.0001
  216MOL0     C28422   7.754   0.267   3.632  0.4039  0.7364  0.4169
  216MOL0     C28423   7.619   0.328   3.652  1.0180 -0.4728 -0.0178
  216MOL0    Cl28424   7.485   0.231   3.579  0.4365  0.7188 -0.3853
  216MOL0     C28425   8.656   0.012   3.923  0.1076  0.1823  0.0065
  216MOL0     C28426   8.772  -0.054   3.940  0.5993 -0.0881 -0.6974
  216MOL0     O28427   9.142   0.081   3.884  0.9393 -0.1720 -0.0683
  216MOL0     C28428   9.193  -0.236   4.053  0.2303  0.3826  0.2916
  216MOL0     C28429   9.301  -0.317   4.097 -0.1818 -0.1033 -0.0331
  216MOL0     N28430   9.616   0.249   4.411  0.6741 -0.0102  0.2819
  216MOL0     N28431   9.515   0.331   4.378  0.2650  0.8103  0.2505
  216MOL0     C28432   9.279   0.411   5.331 -0.9676  0.3870 -0.7894
  216MOL0     C28433   9.398   0.418   5.399  0.5031  0.8834 -0.3683
  216MOL0     C28434   9.863   0.347   5.448  0.0256  0.1981  0.5896
  216MOL0     C28435   9.875   0.455   5.537 -0.3398  0.6179 -0.3352
  216MOL0     C28436   9.999   0.481   5.606  0.1511  0.9786  0.0957
  216MOL0     C28437  10.116   0.403   5.584  1.1039 -0.2504  0.5497
  216MOL0     O28438  10.235   0.431   5.653  0.7047 -0.3068 -0.7674
  216MOL0     C28439  10.357   0.390   5.593  0.4520  0.1936 -0.0747
  216MOL0     C28440  10.467   0.470   5.657 -0.0478 -0.4948 -0.0821
  216MOL0     C28441  10.601   0.399   5.667 -0.5436  0.3063 -0.1816
  216MOL0     C28442  10.687   0.483   5.776  1.4076 -0.2374  1.2759
  216MOL0     C28443  10.818   0.414   5.810  0.0573 -0.8670 -0.5752
  216MOL0     C28444  10.925   0.364   5.833 -0.0831 -0.0179  0.4230
  216MOL0     C28445  10.096   0.296   5.485 -0.2375  0.0662  0.2783
  216MOL0     C28446   9.983   0.271   5.405 -0.9819 -0.0265 -0.8136
  216MOL0     H28447   9.618   0.406   5.130 -0.1380  0.7921  0.2039
  216MOL0     H28448   9.406   0.426   5.020 -1.6343  1.5909 -0.2127
  216MOL0     H28449   9.156   0.222   5.025 -4.7713  0.5420 -1.0704
  216MOL0     H28450   9.219   0.368   4.939 -2.0509  1.1003 -2.1422
  216MOL0     H28451   9.020   0.466   4.908  1.3550  0.2375 -0.2843
  216MOL0     H28452   8.932   0.350   5.019  1.6459 -1.4198  1.0531
  216MOL0     H28453   8.879   0.314   4.801  0.6132  0.6727  0.0261
  216MOL0     H28454   8.963   0.170   4.859  1.2870  0.3005  1.5010
  216MOL0     H28455   9.113   0.388   4.725 -0.5859 -0.0326 -0.3429
  216MOL0     H28456   9.154   0.214   4.736  0.2556 -0.8887  0.8899
  216MOL0     H28457   8.931   0.327   4.543  0.3854 -0.4961 -2.8074
  216MOL0     H28458   8.938   0.160   4.580  1.2354  0.3129 -1.8830
  216MOL0     H28459   9.050   0.177   4.389  0.0257 -1.1828  0.9470
  216MOL0     H28460   9.172   0.149   4.500  3.5105  2.2554 -1.8769
  216MOL0     H28461   9.123   0.426   4.392  0.0153  1.2700  2.2848
  216MOL0     H28462   9.239   0.382   4.521 -0.0709  0.5946  0.8491
  216MOL0     H28463   9.296   0.407   4.270  0.0323 -0.0983  0.5875
  216MOL0     H28464   9.217   0.245   4.254 -2.8308  0.1257  2.1382
  216MOL0     H28465   9.357   0.045   4.405  0.0262  0.3621  0.4695
  216MOL0     H28466   9.740   0.038   4.476 -1.9485  2.0635  1.5936
  216MOL0     H28467   9.677  -0.015   4.312 -0.3504 -1.0077  0.0478
  216MOL0     H28468   9.538  -0.093   4.556 -1.6436 -0.0843 -0.8879
  216MOL0     H28469   9.687  -0.185   4.514  0.5171 -1.0386 -1.2630
  216MOL0     H28470   9.475  -0.296   4.447 -0.1805 -0.2289 -1.6710
  216MOL0     H28471   9.439  -0.162   4.336  2.1173  2.4405 -1.6334
  216MOL0     H28472   9.679  -0.343   4.315  0.1955  0.5374  0.9365
  216MOL0     H28473   9.668  -0.188   4.240 -0.7769  1.0110  2.9363
  216MOL0     H28474   9.554  -0.085   4.065  0.1839  0.7759 -2.1476
  216MOL0     H28475   9.377   0.028   3.935 -2.6932 -0.1505 -2.4569
  216MOL0     H28476   8.954   0.096   3.689 -2.7625 -1.1576 -3.9369
  216MOL0     H28477   8.752   0.216   3.671  3.2587  2.1070  1.5830
  216MOL0     H28478   8.503   0.186   3.604  4.0435 -2.2192  2.3844
  216MOL0     H28479   8.569   0.326   3.677 -2.3704  1.3137 -1.9679
  216MOL0     H28480   8.354   0.381   3.614  2.7849 -0.1904 -0.0067
  216MOL0     H28481   8.366   0.363   3.795  2.2407 -0.2872  0.2869
  216MOL0     H28482   8.254   0.133   3.763  0.8864 -2.8144 -2.7373
  216MOL0     H28483   8.246   0.162   3.599 -0.6055  1.7114 -0.1864
  216MOL0     H28484   8.135   0.359   3.805 -1.5095  0.7439 -0.0847
  216MOL0     H28485   8.121   0.379   3.623 -3.3392 -2.0163 -1.9471
  216MOL0     H28486   7.974   0.185   3.802 -1.3028  0.3982 -0.0494
  216MOL0     H28487   7.986   0.167   3.629 -0.8063  1.2739 -0.8545
  216MOL0     H28488   7.901   0.419   3.609 -0.3695  0.2059  0.2106
  216MOL0     H28489   7.855   0.398   3.775  0.5012 -0.5377  0.2410
  216MOL0     H28490   7.765   0.220   3.534 -3.3034 -3.1910  1.5941
  216MOL0     H28491   7.755   0.178   3.696 -0.0157  0.2904 -0.1901
  216MOL0     H28492   7.628   0.424   3.601  0.8015  0.0330  0.8767
  216MOL0     H28493   7.600   0.335   3.759 -0.2154 -0.9666 -0.1801
  216MOL0     H28494   8.574  -0.015   3.989 -1.2000 -1.1466 -2.0518
  216MOL0     H28495   8.770  -0.122   4.025 -0.5575 -0.2585 -0.8377
  216MOL0     H28496   9.096  -0.283   4.047  0.1902  0.1442  2.1045
  216MOL0     H28497   9.285  -0.417   4.136  1.2821 -0.0672  0.7259
  216MOL0     H28498   9.179   0.410   5.373 -0.1763 -2.9359  1.4743
  216MOL0     H28499   9.398   0.415   5.508 -0.2413 -1.5074 -0.3738
  216MOL0     H28500   9.801   0.528   5.568 -1.4196 -1.1143  1.4202
  216MOL0     H28501  10.013   0.559   5.680 -0.8428  0.1469  1.2135
  216MOL0     H28502  10.358   0.406   5.485  0.6231 -0.3253 -0.1554
  216MOL0     H28503  10.377   0.282   5.594 -3.7950 -0.7823  0.6598
  216MOL0     H28504  10.474   0.558   5.593 -0.5755  0.5393  1.2331
  216MOL0     H28505  10.446   0.509   5.757 -1.0913  0.0135 -0.4877
  216MOL0     H28506  10.658   0.397   5.573  2.9093  3.2711  1.5807
  216MOL0     H28507  10.582   0.300   5.711  0.1525  0.1713 -0.1711
  216MOL0     H28508  10.710   0.583   5.738 -0.4792 -0.3500 -0.3408
  216MOL0     H28509  10.624   0.492   5.865  1.9788 -1.4726  1.8339
  216MOL0     H28510  11.022   0.323   5.815  0.7954  0.5112  3.3493
  216MOL0     H28511  10.185   0.241   5.457 -1.2662 -2.4642  1.5809
  216MOL0     H28512   9.983   0.202   5.322  1.6284 -0.0311 -0.8703
  217MOL0     O28513  10.214   2.139   3.949 -0.0269  0.0220 -0.1244
  217MOL0     C28514  10.160   2.033   4.000  0.3086 -0.2235  0.0065
  217MOL0     O28515  10.036   1.987   3.979 -0.6454  0.3693 -0.3083
  217MOL0     C28516   9.951   2.039   3.891  0.0271 -0.0053  0.6086
  217MOL0     C28517   9.843   1.964   3.850 -0.3798  0.6241 -0.0557
  217MOL0     C28518   9.733   2.016   3.781  0.0302 -0.5991  0.6817
  217MOL0     C28519   9.738   2.149   3.731 -0.0692 -0.6084  0.4827
  217MOL0     O28520   9.624   2.185   3.650  0.0372  0.6110  0.5063
  217MOL0     C28521   9.628   2.303   3.565 -0.3027 -0.0132 -0.7774
  217MOL0     C28522   9.495   2.323   3.487 -0.6392  0.3044 -0.1065
  217MOL0     C28523   9.450   2.214   3.382 -0.2290 -0.7020  0.0874
  217MOL0     C28524   9.308   2.251   3.328  0.1534  0.1745  0.0716
  217MOL0     C28525   9.280   2.140   3.224  0.3729 -0.4355  0.3689
  217MOL0     C28526   9.135   2.159   3.164 -0.8051  0.3616 -0.3913
  217MOL0     C28527   9.101   2.045   3.075 -0.5909 -0.5476  0.6111
  217MOL0     C28528   8.969   2.075   3.003  0.3421 -0.9293  0.6320
  217MOL0     N28529   8.850   2.067   3.093 -0.2109 -0.0762  0.3684
  217MOL0     C28530   8.742   2.159   3.094 -0.7694 -0.3952 -0.1490
  217MOL0     C28531   8.660   2.115   3.186  0.6889  0.1300 -0.0020
  217MOL0     C28532   8.533   2.197   3.224  0.8385 -0.0006 -0.3755
  217MOL0     C28533   8.438   2.243   3.118 -0.4613  0.2437  0.1697
  217MOL0     C28534   8.362   2.124   3.070 -0.2431 -0.6613 -0.1612
  217MOL0     C28535   8.252   2.149   2.970 -0.4582  0.5479 -0.9982
  217MOL0     O28536   8.141   2.211   3.041 -0.0862 -0.1482  0.4865
  217MOL0     C28537   8.031   2.263   2.975 -0.1430  1.1282 -0.1388
  217MOL0     C28538   7.981   2.217   2.854  0.3457  0.5818  0.3781
  217MOL0     C28539   7.868   2.271   2.794  0.7686 -0.2703 -0.7663
  217MOL0     C28540   7.803   2.384   2.851 -1.1059  0.6268  0.0698
  217MOL0     C28541   7.688   2.442   2.785  0.3735  0.0945  0.1440
  217MOL0     O28542   7.641   2.556   2.847  0.1340  0.6414  0.6065
  217MOL0     C28543   7.521   2.604   2.801  0.9331 -0.0858  0.6321
  217MOL0     C28544   7.397   2.559   2.842 -0.1650 -0.3234  0.5781
  217MOL0     C28545   7.282   2.627   2.802  0.6632  0.1380 -0.0613
  217MOL0     C28546   7.281   2.736   2.721  0.0690 -0.3293  0.6228
  217MOL0     O28547   7.163   2.784   2.665 -0.0593 -0.3228  0.1287
  217MOL0     C28548   7.153   2.922   2.627  0.1550  0.2509  0.0587
  217MOL0     C28549   7.014   2.929   2.565 -0.5697 -0.6868  0.6259
  217MOL0     C28550   6.903   2.910   2.668 -0.0463 -0.2694  0.4636
  217MOL0     C28551   6.774   2.950   2.602  0.3314  0.1029  0.1633
  217MOL0     C28552   6.647   2.897   2.676 -0.2164  0.0738 -0.3281
  217MOL0     C28553   6.524   2.940   2.604 -0.1735 -0.3340  0.6659
  217MOL0     C28554   6.401   2.872   2.676 -0.8694  0.3177 -0.1967
  217MOL0     C28555   6.287   2.874   2.575  0.1381  0.5055 -0.6245
  217MOL0    Cl28556   6.126   2.868   2.658 -0.0760 -0.2519  0.0112
  217MOL0     C28557   7.403   2.789   2.676 -0.2848 -0.4418  1.0035
  217MOL0     C28558   7.522   2.720   2.714 -0.5069 -0.0321 -0.2495
  217MOL0     O28559   7.637   2.392   2.686 -0.0451 -0.6038 -0.3834
  217MOL0     C28560   7.852   2.437   2.970  0.0675  0.8005 -0.2326
  217MOL0     C28561   7.956   2.367   3.034 -0.7771  0.0849  0.4419
  217MOL0     N28562   8.703   1.986   3.228 -0.2035 -0.0713 -0.0287
  217MOL0     N28563   8.817   1.958   3.170 -0.2094 -1.1273  0.0810
  217MOL0     C28564   9.854   2.229   3.757  0.6189  0.3196  0.4237
  217MOL0     C28565   9.955   2.177   3.838 -0.1981  0.1272  0.8116
  217MOL0     C28566  10.241   1.954   4.094  0.9670 -0.9243  0.0106
  217MOL0     C28567  10.349   2.022   4.163  0.1160  0.3370 -0.9394
  217MOL0     C28568  10.434   1.941   4.242  0.1514  0.4071  0.1213
  217MOL0     C28569  10.405   1.811   4.278 -0.0897  0.8681  0.2598
  217MOL0     O28570  10.497   1.744   4.366  0.1233 -0.5162  0.0790
  217MOL0     C28571  10.472   1.618   4.426 -0.0229 -0.0602 -0.3164
  217MOL0     C28572  10.345   1.620   4.509  0.8188  0.0823  0.3816
  217MOL0     C28573  10.332   1.473   4.559  0.0082 -0.9192  0.5614
  217MOL0     C28574  10.201   1.455   4.625 -0.3058 -0.4717  0.4896
  217MOL0     C28575  10.098   1.436   4.527 -0.2902  0.5074 -0.0330
  217MOL0     C28576  10.014   1.424   4.442  0.4780 -0.4172 -0.0885
  217MOL0     C28577  10.287   1.757   4.225  0.2027  0.4150  0.4168
  217MOL0     C28578  10.204   1.821   4.129 -1.2038 -0.0689 -0.3006
  217MOL0     H28579   9.847   1.861   3.885  1.1404  0.8514  0.5081
  217MOL0     H28580   9.647   1.958   3.750  0.4963 -0.1330 -1.6765
  217MOL0     H28581   9.710   2.291   3.494  1.0652  1.0587  0.5483
  217MOL0     H28582   9.655   2.391   3.625 -0.1902  0.2397 -1.1913
  217MOL0     H28583   9.508   2.420   3.438  1.3356  0.8193  1.3035
  217MOL0     H28584   9.419   2.348   3.561 -1.0329 -0.5207 -0.2243
  217MOL0     H28585   9.451   2.115   3.428  1.4221 -0.5547  0.4402
  217MOL0     H28586   9.530   2.231   3.309  1.1602  2.0027  2.0389
  217MOL0     H28587   9.231   2.250   3.406 -0.5710  0.4291 -0.6292
  217MOL0     H28588   9.300   2.346   3.274 -0.7097 -0.7769 -1.5538
  217MOL0     H28589   9.298   2.042   3.269 -0.9411 -1.4051 -1.1294
  217MOL0     H28590   9.354   2.139   3.143  0.8030 -0.6998  0.7557
  217MOL0     H28591   9.125   2.253   3.109 -1.7358 -1.0007 -2.6771
  217MOL0     H28592   9.062   2.158   3.245  1.1107  2.2363  1.5239
  217MOL0     H28593   9.176   2.041   2.996 -3.0816 -1.7870 -1.8975
  217MOL0     H28594   9.109   1.946   3.120  0.3023 -0.0316  1.6063
  217MOL0     H28595   8.952   2.009   2.918  0.7027 -1.9341  1.3230
  217MOL0     H28596   8.976   2.179   2.968  2.2155 -1.4680 -0.7697
  217MOL0     H28597   8.725   2.248   3.033 -1.8785 -0.6775 -0.2674
  217MOL0     H28598   8.560   2.290   3.274 -1.8700  1.0678 -0.7289
  217MOL0     H28599   8.485   2.137   3.302  4.0386 -0.7914  1.1730
  217MOL0     H28600   8.498   2.303   3.048  3.5447  0.7414  3.6443
  217MOL0     H28601   8.364   2.307   3.166 -2.5665 -1.8780 -0.1051
  217MOL0     H28602   8.435   2.062   3.016  1.6503  1.0971  0.2332
  217MOL0     H28603   8.323   2.068   3.155  0.6736  0.4731  1.0439
  217MOL0     H28604   8.212   2.056   2.930  0.0127  0.1051 -0.4715
  217MOL0     H28605   8.286   2.215   2.889  1.4069  3.4598  1.8962
  217MOL0     H28606   8.028   2.137   2.798  0.2126  1.0318 -0.3899
  217MOL0     H28607   7.842   2.225   2.699 -3.3779 -0.5540  0.3486
  217MOL0     H28608   7.400   2.472   2.908 -2.8630 -1.1124 -0.1833
  217MOL0     H28609   7.185   2.590   2.835  1.0899 -2.8788 -1.7972
  217MOL0     H28610   7.229   2.959   2.558  0.5639  3.9028  2.2140
  217MOL0     H28611   7.153   2.992   2.712  0.2282  1.8089 -1.1739
  217MOL0     H28612   7.000   2.851   2.489  0.6379  0.3590 -0.7317
  217MOL0     H28613   7.001   3.026   2.516 -1.2456  0.0469  2.1949
  217MOL0     H28614   6.923   2.967   2.759  4.3758  0.9889 -1.0474
  217MOL0     H28615   6.898   2.810   2.711  0.8603  0.0856  1.4340
  217MOL0     H28616   6.766   3.058   2.614  2.0908  0.4961 -1.6315
  217MOL0     H28617   6.760   2.927   2.496 -1.1790 -1.0147  0.5636
  217MOL0     H28618   6.642   2.935   2.779 -0.6839 -3.3585  1.0493
  217MOL0     H28619   6.665   2.789   2.678 -0.5009  0.0364  0.4708
  217MOL0     H28620   6.532   2.907   2.501 -1.7310  2.3566 -0.4261
  217MOL0     H28621   6.515   3.049   2.607 -0.8605 -0.2610 -1.8276
  217MOL0     H28622   6.422   2.767   2.699  0.1538 -0.3697 -3.7415
  217MOL0     H28623   6.371   2.933   2.762  0.3144  2.3395 -1.1357
  217MOL0     H28624   6.297   2.791   2.504 -1.1297  1.4769 -1.9972
  217MOL0     H28625   6.290   2.961   2.509  1.6610  0.2290 -0.9665
  217MOL0     H28626   7.412   2.871   2.605  0.7321  0.8223  2.5168
  217MOL0     H28627   7.614   2.764   2.676 -1.5061  1.5830 -0.8979
  217MOL0     H28628   7.807   2.519   3.026 -2.5580 -0.4611 -0.3623
  217MOL0     H28629   7.974   2.412   3.131 -2.1001  1.4397  0.1000
  217MOL0     H28630   9.872   2.330   3.720  0.7782  1.7742  4.0676
  217MOL0     H28631  10.040   2.239   3.865  1.1273 -1.5211  0.6412
  217MOL0     H28632  10.377   2.124   4.138 -1.9338  1.3261  0.4963
  217MOL0     H28633  10.519   1.989   4.291  0.1313  1.1941 -0.5855
  217MOL0     H28634  10.554   1.589   4.493 -1.1656 -0.5357  0.9174
  217MOL0     H28635  10.466   1.541   4.349 -2.1562  2.1524 -2.5720
  217MOL0     H28636  10.362   1.693   4.590 -1.0418  1.5147 -0.4457
  217MOL0     H28637  10.256   1.655   4.455  1.3523  1.2289  0.1990
  217MOL0     H28638  10.415   1.433   4.618 -0.4421 -5.6690 -1.5541
  217MOL0     H28639  10.337   1.409   4.470 -0.9358 -1.4611  0.8884
  217MOL0     H28640  10.200   1.362   4.683  4.0237 -1.9061 -1.2632
  217MOL0     H28641  10.180   1.529   4.703  3.3921  0.4160  0.8489
  217MOL0     H28642   9.958   1.426   4.351  0.2384  1.5828  0.0559
  217MOL0     H28643  10.255   1.659   4.259  0.7539  0.0246 -0.1690
  217MOL0     H28644  10.119   1.767   4.088 -0.5078 -1.8237  0.4745
  218MOL0     O28645  11.071   2.235   1.048 -0.7778  0.1769 -0.1184
  218MOL0     C28646  11.130   2.170   0.971 -0.5696 -0.1714 -0.1847
  218MOL0     O28647  11.071   2.067   0.899 -0.7932  0.4750 -0.0469
  218MOL0     C28648  10.935   2.072   0.862 -0.2599 -0.6180 -0.5042
  218MOL0     C28649  10.864   1.953   0.838 -0.1772 -0.5794  0.0987
  218MOL0     C28650  10.726   1.954   0.812  0.7504 -0.0991  0.4293
  218MOL0     C28651  10.666   2.070   0.770 -0.3412  0.6534 -0.0277
  218MOL0     O28652  10.535   2.058   0.726 -0.1161 -0.0238  0.4420
  218MOL0     C28653  10.456   2.174   0.724 -0.0033 -0.4210 -0.3757
  218MOL0     C28654  10.362   2.162   0.597  0.5556  0.5225 -0.9665
  218MOL0     C28655  10.224   2.108   0.635 -0.0914  0.1325 -0.8077
  218MOL0     C28656  10.152   2.033   0.516  0.1341  0.1362  0.0246
  218MOL0     C28657  10.006   1.989   0.549 -0.6295  0.3019 -0.4270
  218MOL0     C28658   9.946   1.896   0.453 -0.5675 -0.6208 -0.1727
  218MOL0     C28659   9.803   1.864   0.496  0.5815 -0.1840  0.1045
  218MOL0     C28660   9.737   1.781   0.386  0.2755  0.3550 -0.2158
  218MOL0     N28661   9.592   1.784   0.412  0.5239 -0.2852 -0.6481
  218MOL0     C28662   9.506   1.884   0.376  0.5837 -0.0128  0.3391
  218MOL0     C28663   9.385   1.842   0.413  1.0734  0.1022  0.1802
  218MOL0     C28664   9.261   1.914   0.388  0.2424 -0.3645 -1.3467
  218MOL0     C28665   9.144   1.825   0.335  0.2182  0.6016  0.0522
  218MOL0     C28666   9.017   1.901   0.282  0.0284  0.7480 -0.4587
  218MOL0     C28667   8.986   2.029   0.362  0.4828 -0.5674 -0.2397
  218MOL0     O28668   8.873   2.101   0.305 -0.0030 -0.1185  0.0290
  218MOL0     C28669   8.759   2.025   0.318  0.3735 -0.4922 -0.3180
  218MOL0     C28670   8.707   1.971   0.201  0.3098 -0.1026 -0.3103
  218MOL0     C28671   8.589   1.902   0.205  0.0143  0.5442 -0.8450
  218MOL0     C28672   8.511   1.905   0.322 -0.1748 -0.4229 -0.7765
  218MOL0     C28673   8.381   1.836   0.323 -0.6638 -1.5024  0.7098
  218MOL0     O28674   8.345   1.771   0.209 -0.0869  0.0492  1.0418
  218MOL0     C28675   8.214   1.728   0.213  0.1785 -0.5489  0.3568
  218MOL0     C28676   8.181   1.594   0.244  0.2601  0.2703 -0.5206
  218MOL0     C28677   8.044   1.560   0.259 -0.0592 -0.5224 -0.0809
  218MOL0     C28678   7.947   1.661   0.237 -0.9844  0.1780  0.5317
  218MOL0     O28679   7.816   1.624   0.249 -0.1341  0.4184  0.2612
  218MOL0     C28680   7.712   1.690   0.175  0.4027 -0.2072 -0.0812
  218MOL0     C28681   7.581   1.605   0.182 -0.6375 -0.2712 -0.4518
  218MOL0     C28682   7.462   1.695   0.159  0.2261  0.0513 -0.5590
  218MOL0     C28683   7.382   1.658   0.022 -0.6893  0.2717  0.4854
  218MOL0     C28684   7.259   1.744   0.009 -0.5146  0.8612 -0.3491
  218MOL0     C28685   7.153   1.700  -0.094  0.4552  1.1598  0.4316
  218MOL0     C28686   7.053   1.820  -0.113  0.5869  0.2009 -0.0950
  218MOL0     C28687   6.945   1.788  -0.218  0.0517 -0.3503 -0.3285
  218MOL0    Cl28688   7.022   1.756  -0.378 -0.1683 -0.0451  0.5865
  218MOL0     C28689   7.983   1.794   0.219 -0.0665 -0.3811  0.2066
  218MOL0     C28690   8.119   1.824   0.199  0.0985 -0.8888  0.5394
  218MOL0     O28691   8.306   1.856   0.420  0.4579  0.1325 -0.8513
  218MOL0     C28692   8.559   1.967   0.442  0.2339 -0.2114 -0.2728
  218MOL0     C28693   8.683   2.031   0.436 -0.6771 -0.3746  0.4468
  218MOL0     N28694   9.393   1.720   0.481  0.8251 -1.2521 -0.0566
  218MOL0     N28695   9.521   1.695   0.484 -0.2771  0.2693 -0.1466
  218MOL0     C28696  10.731   2.192   0.793  0.2361  0.4950  0.9696
  218MOL0     C28697  10.857   2.192   0.849  0.7872  0.0118  0.3515
  218MOL0     C28698  11.283   2.186   0.951  0.9299 -0.8950 -0.2214
  218MOL0     C28699  11.359   2.113   0.861  0.5034 -0.6027  0.0123
  218MOL0     C28700  11.501   2.130   0.847 -0.4105  0.6232 -0.4208
  218MOL0     C28701  11.569   2.218   0.928  0.3929  0.2410  0.0144
  218MOL0     O28702  11.702   2.243   0.928 -0.8312 -0.6977 -0.2555
  218MOL0     C28703  11.775   2.204   1.045  0.3109  0.4386  0.1230
  218MOL0     C28704  11.918   2.181   1.010  0.1171  0.4599 -0.5773
  218MOL0     C28705  12.010   2.310   0.998 -0.1261 -0.5635  0.1786
  218MOL0     C28706  12.168   2.269   0.980  0.0560  0.3615 -0.0277
  218MOL0     C28707  12.257   2.384   0.972 -0.0856  0.0429  0.6844
  218MOL0     C28708  12.345   2.469   0.973 -0.0902  0.2440  0.8016
  218MOL0     C28709  11.484   2.296   1.011  0.1104 -0.4777  0.5078
  218MOL0     C28710  11.347   2.283   1.027 -0.9701  0.1918 -0.2180
  218MOL0     H28711  10.913   1.856   0.837 -1.2305 -1.1158 -1.6295
  218MOL0     H28712  10.668   1.863   0.823  1.0675 -0.4534 -0.6821
  218MOL0     H28713  10.502   2.273   0.717 -2.1986  0.6768  0.0405
  218MOL0     H28714  10.399   2.183   0.817  0.2649 -2.4317  0.0306
  218MOL0     H28715  10.409   2.088   0.532  1.7208  0.0678  0.3557
  218MOL0     H28716  10.355   2.260   0.549  0.0601  0.1409 -1.6952
  218MOL0     H28717  10.158   2.182   0.682  0.7233 -0.7190  1.9188
  218MOL0     H28718  10.235   2.031   0.712  1.4765  1.4141  0.3161
  218MOL0     H28719  10.146   2.107   0.436 -0.6449  0.2632  0.1917
  218MOL0     H28720  10.202   1.943   0.480  0.6170 -0.3923  1.9275
  218MOL0     H28721   9.947   2.081   0.552  0.3144  0.9051  0.9090
  218MOL0     H28722  10.005   1.951   0.652 -1.2894 -0.0403 -0.5570
  218MOL0     H28723  10.002   1.802   0.453 -2.7957 -2.0485 -1.9812
  218MOL0     H28724   9.949   1.935   0.351 -0.4360 -2.8274 -1.0637
  218MOL0     H28725   9.791   1.815   0.593 -3.5700  3.2723  1.6823
  218MOL0     H28726   9.761   1.964   0.512  1.0990  0.4898 -2.3201
  218MOL0     H28727   9.772   1.678   0.394 -0.5417  0.1034  0.2947
  218MOL0     H28728   9.759   1.814   0.284 -2.4225  0.4563 -0.8490
  218MOL0     H28729   9.520   1.980   0.329 -2.1068  0.0867 -0.4299
  218MOL0     H28730   9.274   1.995   0.315  0.5416  1.7943  0.9527
  218MOL0     H28731   9.245   1.968   0.482  0.7611  0.7481 -1.8760
  218MOL0     H28732   9.097   1.759   0.408  1.7562 -0.9464 -0.2950
  218MOL0     H28733   9.176   1.752   0.260 -1.3396  1.1693 -1.2265
  218MOL0     H28734   9.043   1.914   0.177  1.0380  0.1761 -0.2923
  218MOL0     H28735   8.932   1.832   0.275  0.7805 -0.3654  0.9164
  218MOL0     H28736   9.077   2.090   0.359  1.3848 -1.8945 -3.0734
  218MOL0     H28737   8.976   2.008   0.469 -0.4674  0.5810 -0.0710
  218MOL0     H28738   8.772   1.989   0.116  1.1446  1.3075  0.5890
  218MOL0     H28739   8.562   1.857   0.110  1.6931 -2.3788 -0.0688
  218MOL0     H28740   8.258   1.520   0.262 -1.4559 -1.2241  0.9596
  218MOL0     H28741   8.013   1.461   0.290  0.3305 -0.7543 -0.4187
  218MOL0     H28742   7.754   1.713   0.076  2.0927  1.1285  0.8783
  218MOL0     H28743   7.689   1.785   0.224  1.2387 -1.8109  3.7894
  218MOL0     H28744   7.570   1.572   0.286  0.0292 -0.7425 -0.5301
  218MOL0     H28745   7.600   1.525   0.110  1.1429 -1.4710  1.2515
  218MOL0     H28746   7.492   1.800   0.162  1.6529 -0.3430 -0.4711
  218MOL0     H28747   7.392   1.674   0.241  1.0481  2.5213  0.8840
  218MOL0     H28748   7.434   1.664  -0.074 -1.5900  0.5951 -0.0035
  218MOL0     H28749   7.339   1.559   0.038 -1.2394  0.4259  0.0211
  218MOL0     H28750   7.277   1.848  -0.018  0.9571  0.8801  0.6052
  218MOL0     H28751   7.213   1.756   0.108  0.9551  1.9062  0.2418
  218MOL0     H28752   7.101   1.610  -0.061  2.0934 -0.8303 -2.0567
  218MOL0     H28753   7.199   1.665  -0.187 -0.0109 -2.7784  1.5068
  218MOL0     H28754   7.009   1.833  -0.014  0.1087  0.0893 -0.2935
  218MOL0     H28755   7.108   1.912  -0.138  1.2726 -0.1655  0.0266
  218MOL0     H28756   6.880   1.876  -0.223 -0.4739 -0.5495  1.7819
  218MOL0     H28757   6.887   1.698  -0.192  0.7513 -0.4952  0.8390
  218MOL0     H28758   7.915   1.879   0.218  0.4909  0.3257  4.2877
  218MOL0     H28759   8.154   1.921   0.166 -2.4715 -0.8350 -2.4840
  218MOL0     H28760   8.507   1.977   0.537 -0.5462 -0.0194 -0.7096
  218MOL0     H28761   8.711   2.095   0.519 -1.5386 -0.6463  0.9665
  218MOL0     H28762  10.685   2.288   0.770 -0.5203 -0.1248 -0.2228
  218MOL0     H28763  10.899   2.289   0.875 -1.1455  1.2208 -0.8333
  218MOL0     H28764  11.310   2.032   0.809  0.0472 -1.4314  1.6575
  218MOL0     H28765  11.559   2.090   0.764 -0.0516 -0.7137  0.4357
  218MOL0     H28766  11.731   2.116   1.093  0.5866  1.8969  3.3129
  218MOL0     H28767  11.766   2.283   1.120 -0.3070 -1.2485  1.9140
  218MOL0     H28768  11.959   2.109   1.082  0.5830  1.5076  0.2400
  218MOL0     H28769  11.912   2.126   0.916 -3.3917 -1.3754  0.5408
  218MOL0     H28770  12.001   2.361   1.094  1.8686 -1.3529  0.8287
  218MOL0     H28771  11.973   2.373   0.917 -1.3185  0.8107  1.7275
  218MOL0     H28772  12.201   2.221   1.072 -2.9370  0.8089  1.3912
  218MOL0     H28773  12.187   2.200   0.897  1.3660  1.7994 -0.9851
  218MOL0     H28774  12.422   2.543   0.965 -1.2241  1.2455 -3.8970
  218MOL0     H28775  11.528   2.363   1.084 -0.1773 -1.7967  1.9182
  218MOL0     H28776  11.298   2.345   1.101 -1.6962 -1.4415  0.7132
  219MOL0     O28777   0.941   6.830   7.762 -0.1768 -0.0318  0.2294
  219MOL0     C28778   0.989   6.936   7.715 -0.1916 -0.6806  0.4444
  219MOL0     O28779   0.930   7.062   7.714  0.8305  0.6502  0.2014
  219MOL0     C28780   0.791   7.051   7.739 -0.3028 -0.2583 -0.4728
  219MOL0     C28781   0.756   7.025   7.875  0.2220 -0.0251  0.3522
  219MOL0     C28782   0.623   7.025   7.915  0.5003 -0.0041  0.7124
  219MOL0     C28783   0.520   7.060   7.824  0.0989  0.3820  0.0785
  219MOL0     O28784   0.384   7.059   7.854 -0.4090  0.1231  0.3115
  219MOL0     C28785   0.323   7.006   7.967 -0.0535  0.2420 -0.9078
  219MOL0     C28786   0.178   6.951   7.935  0.4340 -0.5312 -0.0056
  219MOL0     C28787   0.117   7.070   7.858  1.0324  0.2225 -0.1536
  219MOL0     C28788  -0.035   7.040   7.838  0.1586  0.6555  0.2710
  219MOL0     C28789  -0.111   7.167   7.789  0.6642 -0.4618  0.7812
  219MOL0     C28790  -0.070   7.198   7.642 -0.5546 -0.5862  0.0512
  219MOL0     C28791  -0.169   7.299   7.578  0.1795  0.2817  0.0411
  219MOL0     C28792  -0.124   7.340   7.434 -0.2066 -0.2233 -0.6960
  219MOL0     N28793  -0.217   7.434   7.368 -0.0414  0.1818  0.1595
  219MOL0     C28794  -0.311   7.395   7.268 -0.3802 -0.2190  0.0628
  219MOL0     C28795  -0.374   7.512   7.226 -0.1654 -0.0899 -0.1042
  219MOL0     C28796  -0.473   7.549   7.116  0.2630 -0.2011 -0.3643
  219MOL0     C28797  -0.616   7.571   7.156 -0.7564 -0.4912  0.5556
  219MOL0     C28798  -0.694   7.445   7.194  0.7558  0.3855  0.4988
  219MOL0     C28799  -0.847   7.471   7.218 -0.0396  0.3906  0.0550
  219MOL0     O28800  -0.868   7.575   7.323 -0.5523  0.0440 -0.1570
  219MOL0     C28801  -0.993   7.630   7.332  0.5874 -0.1152  0.2843
  219MOL0     C28802  -1.112   7.605   7.246 -0.2971  0.4905 -0.1010
  219MOL0     C28803  -1.235   7.671   7.261 -0.3012  0.4633  0.7664
  219MOL0     C28804  -1.252   7.770   7.357  0.0988 -0.1047  0.1772
  219MOL0     C28805  -1.381   7.842   7.365  0.2826 -0.0681  0.1514
  219MOL0     O28806  -1.495   7.784   7.306 -0.0574 -0.2394  0.0968
  219MOL0     C28807  -1.605   7.845   7.334 -0.2433 -0.4441 -0.9891
  219MOL0     C28808  -1.699   7.786   7.423 -0.0805  0.6125 -0.1654
  219MOL0     C28809  -1.824   7.854   7.458  0.2026  0.2571  0.5931
  219MOL0     C28810  -1.850   7.975   7.392 -0.1474  0.8924  0.8136
  219MOL0     O28811  -1.967   8.049   7.402  0.2867  0.3401  0.3358
  219MOL0     C28812  -2.058   8.007   7.511 -0.2609  0.3939 -0.3322
  219MOL0     C28813  -2.155   7.900   7.456 -0.0286  0.0205 -0.1357
  219MOL0     C28814  -2.236   7.952   7.332  0.3235 -0.3573  0.9470
  219MOL0     C28815  -2.336   8.053   7.363 -0.2319 -0.4748  0.6671
  219MOL0     C28816  -2.414   8.101   7.240 -0.0363  0.4544 -0.3171
  219MOL0     C28817  -2.549   8.162   7.280 -0.7752  0.1846  0.7763
  219MOL0     C28818  -2.605   8.254   7.170 -0.0806 -0.0263  0.4849
  219MOL0     C28819  -2.678   8.376   7.228  0.1810 -0.4082 -0.1469
  219MOL0    Cl28820  -2.834   8.321   7.296 -0.4777  0.0030 -0.3055
  219MOL0     C28821  -1.754   8.030   7.300 -0.0454 -0.3836 -0.2741
  219MOL0     C28822  -1.642   7.955   7.265  0.9474 -1.0492  0.0858
  219MOL0     O28823  -1.384   7.940   7.440  0.4705 -0.3679 -0.4647
  219MOL0     C28824  -1.151   7.790   7.445 -0.5369  0.4574  0.8886
  219MOL0     C28825  -1.022   7.721   7.433 -0.5710 -0.5124  0.7348
  219MOL0     N28826  -0.306   7.613   7.298 -0.1209 -0.4649  0.5010
  219MOL0     N28827  -0.209   7.570   7.377  0.3726 -0.5177 -0.0036
  219MOL0     C28828   0.551   7.097   7.694  0.8455  0.4774  0.0035
  219MOL0     C28829   0.688   7.092   7.655 -0.6214 -0.2035 -0.0722
  219MOL0     C28830   1.131   6.946   7.674  0.8430 -0.1415  0.4067
  219MOL0     C28831   1.193   6.840   7.600  0.1372 -0.3124 -0.2277
  219MOL0     C28832   1.327   6.853   7.556 -0.1756  1.4055 -0.2672
  219MOL0     C28833   1.406   6.964   7.592  0.5108  0.1004 -0.7863
  219MOL0     O28834   1.535   6.989   7.543 -0.4782 -0.4174  0.6381
  219MOL0     C28835   1.579   6.900   7.440 -0.0842 -1.5154 -0.5355
  219MOL0     C28836   1.627   6.767   7.498  0.5831  0.1939  0.0843
  219MOL0     C28837   1.624   6.649   7.401  0.1147  0.3597  0.5288
  219MOL0     C28838   1.749   6.656   7.317 -0.5199  0.5270 -0.8902
  219MOL0     C28839   1.773   6.518   7.269  0.1035 -0.9632  0.4998
  219MOL0     C28840   1.811   6.408   7.222 -0.8003 -0.0012  0.7687
  219MOL0     C28841   1.343   7.064   7.669  0.0158 -0.6967 -0.7847
  219MOL0     C28842   1.210   7.059   7.714 -0.0373 -0.0218  0.6157
  219MOL0     H28843   0.820   7.000   7.959 -0.4513  1.5152  1.3752
  219MOL0     H28844   0.590   7.012   8.018 -3.4106  2.1719 -0.0618
  219MOL0     H28845   0.324   7.085   8.042  1.1363 -0.2341 -0.3949
  219MOL0     H28846   0.391   6.928   8.002 -1.3774 -1.1503 -1.3284
  219MOL0     H28847   0.119   6.914   8.019  2.1297 -2.6041  0.3698
  219MOL0     H28848   0.191   6.863   7.872  1.7932  0.4792 -1.2131
  219MOL0     H28849   0.164   7.078   7.759 -1.9994 -1.0488 -1.8645
  219MOL0     H28850   0.116   7.164   7.913  2.7514 -0.3659  0.9444
  219MOL0     H28851  -0.028   6.960   7.764  4.0612  1.7283 -0.7513
  219MOL0     H28852  -0.076   6.994   7.928 -2.0180 -0.8699 -1.3988
  219MOL0     H28853  -0.108   7.254   7.854 -1.0675 -1.8190  2.7953
  219MOL0     H28854  -0.216   7.138   7.777  0.6551  0.0500 -0.5616
  219MOL0     H28855  -0.052   7.110   7.580  5.4790  0.1037  0.2148
  219MOL0     H28856   0.027   7.247   7.652 -0.9757  0.5965 -1.2884
  219MOL0     H28857  -0.265   7.247   7.569  1.1732 -1.4068 -1.6942
  219MOL0     H28858  -0.177   7.384   7.646  1.5942  1.4024 -1.1417
  219MOL0     H28859  -0.106   7.258   7.364  0.7644  0.6239 -1.4920
  219MOL0     H28860  -0.028   7.394   7.439 -0.6199  0.5025  3.6954
  219MOL0     H28861  -0.326   7.297   7.223 -0.7325  0.3706 -1.1455
  219MOL0     H28862  -0.468   7.467   7.043 -0.6461 -0.8104  0.2310
  219MOL0     H28863  -0.424   7.632   7.063  3.1341 -0.6318  1.3761
  219MOL0     H28864  -0.661   7.630   7.076  3.3030  2.6966  0.2610
  219MOL0     H28865  -0.612   7.637   7.243  2.2927  0.2511 -0.0194
  219MOL0     H28866  -0.680   7.366   7.119  1.9413  0.4638  0.6027
  219MOL0     H28867  -0.651   7.395   7.281 -2.3632 -2.0762  0.7997
  219MOL0     H28868  -0.898   7.381   7.254 -0.9264  0.9271  0.1837
  219MOL0     H28869  -0.896   7.501   7.125 -1.5768  2.3070  1.4018
  219MOL0     H28870  -1.114   7.530   7.167 -0.4531  0.2341  0.1457
  219MOL0     H28871  -1.310   7.642   7.188  1.4183 -1.4615 -0.3616
  219MOL0     H28872  -1.685   7.689   7.468  1.2839  0.5279 -0.6997
  219MOL0     H28873  -1.886   7.804   7.532 -1.1762  2.2655  0.8859
  219MOL0     H28874  -2.108   8.095   7.551  0.3323  1.4953 -1.9076
  219MOL0     H28875  -1.995   7.980   7.596  0.4299  1.3569 -0.5227
  219MOL0     H28876  -2.218   7.887   7.545  0.2142  1.3482  0.2510
  219MOL0     H28877  -2.107   7.806   7.430 -1.3037 -0.6110 -0.2905
  219MOL0     H28878  -2.270   7.858   7.286 -0.8769  1.4208 -2.0972
  219MOL0     H28879  -2.169   7.991   7.254  1.0509  1.5780  2.4727
  219MOL0     H28880  -2.403   8.014   7.440  0.1210 -3.1165 -0.2785
  219MOL0     H28881  -2.280   8.139   7.403  0.4855 -0.5589 -0.1274
  219MOL0     H28882  -2.437   8.012   7.181  1.0226  0.2393 -0.4176
  219MOL0     H28883  -2.358   8.166   7.173 -0.6891  0.1480 -1.1781
  219MOL0     H28884  -2.530   8.218   7.372 -1.5730 -0.2149  1.1986
  219MOL0     H28885  -2.614   8.083   7.318  1.2442 -2.4610 -0.8623
  219MOL0     H28886  -2.520   8.291   7.112 -0.0395  1.4552  1.4565
  219MOL0     H28887  -2.666   8.201   7.096  0.6355 -0.6601  0.3226
  219MOL0     H28888  -2.698   8.439   7.141 -0.9576  1.8228  1.6369
  219MOL0     H28889  -2.621   8.438   7.297 -0.4258  2.5188 -2.1013
  219MOL0     H28890  -1.766   8.123   7.244  0.5532  0.4331  0.9245
  219MOL0     H28891  -1.560   7.997   7.208  0.3204  0.2720  0.1180
  219MOL0     H28892  -1.165   7.857   7.530  2.5272  0.6344  1.3450
  219MOL0     H28893  -0.942   7.737   7.504 -0.0692  1.8963 -0.2610
  219MOL0     H28894   0.481   7.140   7.623 -0.2605  0.5117  1.0848
  219MOL0     H28895   0.721   7.131   7.559  0.7482  0.5575  0.6688
  219MOL0     H28896   1.126   6.769   7.551  1.2496  0.2740 -2.7448
  219MOL0     H28897   1.354   6.765   7.498 -0.2486  2.5026 -2.0432
  219MOL0     H28898   1.666   6.954   7.401  0.0700 -1.4299 -0.0851
  219MOL0     H28899   1.516   6.884   7.353  0.3664 -0.7103 -1.0299
  219MOL0     H28900   1.731   6.784   7.530  0.2239  0.0131  1.4169
  219MOL0     H28901   1.572   6.730   7.585  1.0024 -0.5932  0.0235
  219MOL0     H28902   1.528   6.653   7.349 -0.1016 -0.6869  0.8306
  219MOL0     H28903   1.635   6.561   7.464 -0.3394  0.3164  0.5545
  219MOL0     H28904   1.732   6.727   7.236 -0.7524  0.9181 -0.5042
  219MOL0     H28905   1.835   6.689   7.376 -0.7071 -0.3834 -0.0726
  219MOL0     H28906   1.843   6.320   7.170  1.2517  1.7779 -1.2122
  219MOL0     H28907   1.400   7.152   7.697  1.4389 -0.6655 -3.3849
  219MOL0     H28908   1.164   7.134   7.779 -2.8018 -2.1320  1.3104
  220MOL0     O28909   8.788   8.409   3.332  0.2125 -0.1202  0.3747
  220MOL0     C28910   8.841   8.337   3.246  1.0283 -0.1994 -0.0351
  220MOL0     O28911   8.772   8.277   3.144  0.1187  0.4967 -0.1666
  220MOL0     C28912   8.638   8.292   3.139 -0.0020 -0.1744 -0.5963
  220MOL0     C28913   8.558   8.222   3.223  0.0879  0.2583 -0.5440
  220MOL0     C28914   8.419   8.266   3.241 -0.3306 -0.4845 -0.8790
  220MOL0     C28915   8.369   8.370   3.160  0.3367 -0.4998 -0.4638
  220MOL0     O28916   8.234   8.397   3.189  0.5143  0.7785  1.0865
  220MOL0     C28917   8.153   8.490   3.108  0.2980 -0.9192 -0.2579
  220MOL0     C28918   8.012   8.504   3.174 -0.0518 -0.0757  0.2900
  220MOL0     C28919   7.906   8.398   3.132  0.3237 -0.4055  0.0239
  220MOL0     C28920   7.759   8.427   3.199 -0.3044 -0.5321  0.2903
  220MOL0     C28921   7.658   8.322   3.142  0.6991 -0.2478  0.4430
  220MOL0     C28922   7.518   8.355   3.191  0.3990  0.0949 -0.4355
  220MOL0     C28923   7.480   8.495   3.145 -0.1840 -0.1615  0.3194
  220MOL0     C28924   7.323   8.510   3.160 -0.4782 -0.2285 -0.0850
  220MOL0     N28925   7.286   8.650   3.124 -0.4404  0.0456  0.0003
  220MOL0     C28926   7.287   8.743   3.222  0.1511  0.1829  0.3609
  220MOL0     C28927   7.216   8.851   3.164  0.4402  0.4667 -0.6923
  220MOL0     C28928   7.164   8.967   3.244 -0.0717  0.0656  0.7112
  220MOL0     C28929   7.028   8.951   3.307 -0.4163  0.0549 -0.7638
  220MOL0     C28930   6.909   8.992   3.214  0.5209  0.8304  0.0287
  220MOL0     C28931   6.789   8.935   3.287  0.2019 -0.0724 -0.1246
  220MOL0     O28932   6.673   8.972   3.217 -0.0608 -0.3928  0.5139
  220MOL0     C28933   6.548   8.955   3.273 -0.2165 -0.6420 -0.1952
  220MOL0     C28934   6.441   8.991   3.193  0.2851  0.1886 -0.4095
  220MOL0     C28935   6.311   8.955   3.226 -0.2311  0.1295  0.5292
  220MOL0     C28936   6.285   8.911   3.357  0.0354  0.6280 -0.2522
  220MOL0     C28937   6.145   8.896   3.410  0.0886  0.8776  0.7035
  220MOL0     O28938   6.048   8.919   3.317 -0.2170 -0.3848  0.4234
  220MOL0     C28939   5.913   8.904   3.335 -0.5088 -0.2259  1.3726
  220MOL0     C28940   5.845   8.831   3.428 -0.0319  0.2721  0.9075
  220MOL0     C28941   5.701   8.815   3.425 -1.2742 -0.8076 -0.2880
  220MOL0     C28942   5.634   8.867   3.317  0.6808 -0.1156  0.5944
  220MOL0     O28943   5.500   8.852   3.290 -0.2192  0.1025  0.3500
  220MOL0     C28944   5.427   8.836   3.411  0.2567  1.0551 -0.3352
  220MOL0     C28945   5.283   8.843   3.409 -0.0968 -0.4438 -0.3596
  220MOL0     C28946   5.225   8.743   3.315 -0.1903 -0.2724  0.1773
  220MOL0     C28947   5.075   8.773   3.281  0.3279  0.0576  0.1554
  220MOL0     C28948   5.012   8.663   3.187  0.1768 -0.1102  0.1775
  220MOL0     C28949   4.857   8.635   3.196  1.0899  0.6407  0.3796
  220MOL0     C28950   4.815   8.509   3.121 -0.1070  0.7257  0.7763
  220MOL0     C28951   4.671   8.464   3.154  0.9123 -0.7129 -0.1271
  220MOL0    Cl28952   4.662   8.352   3.291 -0.1473 -0.0877 -0.2209
  220MOL0     C28953   5.697   8.947   3.224 -0.6797  0.2602 -0.2977
  220MOL0     C28954   5.839   8.965   3.229 -0.3935  0.5654 -1.2515
  220MOL0     O28955   6.120   8.873   3.530 -0.0771 -0.7348 -0.3615
  220MOL0     C28956   6.389   8.892   3.446  1.1338 -0.1663 -0.5815
  220MOL0     C28957   6.521   8.911   3.401  0.1240  0.2205 -0.1876
  220MOL0     N28958   7.182   8.811   3.029 -0.0729 -0.6795 -0.3001
  220MOL0     N28959   7.233   8.695   3.006  0.8080  0.4340  0.4139
  220MOL0     C28960   8.452   8.438   3.074 -0.1004  0.6348  0.7025
  220MOL0     C28961   8.577   8.390   3.060 -0.1685 -0.2572 -0.1641
  220MOL0     C28962   8.995   8.312   3.248  0.4198 -0.0446 -0.5296
  220MOL0     C28963   9.052   8.207   3.179  0.7019 -0.6587 -0.4435
  220MOL0     C28964   9.187   8.189   3.184 -0.0939 -0.5876 -0.6519
  220MOL0     C28965   9.273   8.266   3.258 -0.1820 -0.4395 -0.9712
  220MOL0     O28966   9.403   8.235   3.276 -0.3426  0.0099  0.0828
  220MOL0     C28967   9.494   8.336   3.217  0.6837 -0.1635 -0.5101
  220MOL0     C28968   9.613   8.276   3.150 -0.3868 -0.1500  0.3847
  220MOL0     C28969   9.685   8.388   3.083 -0.3342  0.3917 -0.1138
  220MOL0     C28970   9.796   8.341   2.988  0.7272  0.1330  0.7193
  220MOL0     C28971   9.897   8.454   2.951 -0.1019  0.5538  0.3783
  220MOL0     C28972   9.984   8.530   2.921  0.4780 -0.3600 -0.3407
  220MOL0     C28973   9.217   8.369   3.338  0.8313 -0.1612  0.6259
  220MOL0     C28974   9.079   8.383   3.333 -0.2587 -0.7871  0.2419
  220MOL0     H28975   8.596   8.144   3.289 -1.2783  0.5316  0.6136
  220MOL0     H28976   8.350   8.221   3.311  2.1177 -0.9654  1.4139
  220MOL0     H28977   8.152   8.461   3.003  1.1300 -0.3811 -0.4255
  220MOL0     H28978   8.192   8.592   3.116 -2.3511  0.1030  0.9408
  220MOL0     H28979   7.979   8.606   3.153  3.1121  1.1295  0.5128
  220MOL0     H28980   8.021   8.498   3.283  1.9150  0.5708  0.2095
  220MOL0     H28981   7.934   8.293   3.144  0.2900 -0.2359  2.0580
  220MOL0     H28982   7.906   8.413   3.024  0.8950  0.6253  0.1484
  220MOL0     H28983   7.759   8.409   3.307 -1.0724 -4.6015 -0.2390
  220MOL0     H28984   7.735   8.531   3.172  3.5073 -0.2391 -2.7815
  220MOL0     H28985   7.683   8.219   3.171 -0.2169 -1.8145 -3.6595
  220MOL0     H28986   7.662   8.323   3.033 -1.6097  0.3253  0.3130
  220MOL0     H28987   7.502   8.340   3.298 -1.9295  0.3184 -0.6914
  220MOL0     H28988   7.448   8.279   3.154 -0.1815 -0.2109  1.2215
  220MOL0     H28989   7.531   8.574   3.201 -1.6183  2.2276 -1.5043
  220MOL0     H28990   7.490   8.504   3.036 -1.2146 -0.6606  0.1744
  220MOL0     H28991   7.279   8.498   3.260  1.2865 -2.8037  0.4873
  220MOL0     H28992   7.281   8.440   3.087 -1.8730  0.7377 -0.2400
  220MOL0     H28993   7.309   8.731   3.327 -0.0129 -0.0945  0.3642
  220MOL0     H28994   7.156   9.060   3.186  0.8738 -1.4484 -2.0082
  220MOL0     H28995   7.231   8.980   3.329  0.0668  0.1588  0.5879
  220MOL0     H28996   7.021   9.008   3.399 -1.7847 -1.2845  0.0076
  220MOL0     H28997   7.024   8.845   3.333 -0.8738  0.2030 -0.2076
  220MOL0     H28998   6.904   9.101   3.200 -2.1357  0.8407  0.5647
  220MOL0     H28999   6.920   8.936   3.120  1.3822  3.0044 -1.2498
  220MOL0     H29000   6.785   8.978   3.388  0.6402  0.3708 -0.2892
  220MOL0     H29001   6.804   8.827   3.283  4.3342  0.2474  1.5209
  220MOL0     H29002   6.451   9.039   3.096 -1.1565 -0.4055 -0.8845
  220MOL0     H29003   6.230   8.968   3.155 -0.0271  1.2228  0.4881
  220MOL0     H29004   5.898   8.793   3.515  0.8630 -1.8929 -0.4979
  220MOL0     H29005   5.644   8.778   3.509  0.9130 -1.1669  1.1046
  220MOL0     H29006   5.448   8.924   3.472 -1.8679  0.6679  1.0706
  220MOL0     H29007   5.445   8.735   3.449 -0.9509  0.7959 -0.3995
  220MOL0     H29008   5.250   8.946   3.391 -1.8145 -1.1579 -1.5839
  220MOL0     H29009   5.262   8.822   3.514  3.0387  1.4765  0.7895
  220MOL0     H29010   5.234   8.648   3.367 -1.5903  1.4137  3.8345
  220MOL0     H29011   5.292   8.735   3.228  1.9110  0.7972  1.6087
  220MOL0     H29012   5.018   8.789   3.373 -0.7338  1.2148 -0.6716
  220MOL0     H29013   5.070   8.868   3.226  1.7975  1.6740  2.6211
  220MOL0     H29014   5.065   8.569   3.208  3.5436  1.7907  0.9591
  220MOL0     H29015   5.038   8.686   3.083  1.3108  0.1733  0.5085
  220MOL0     H29016   4.802   8.718   3.153 -0.4183 -1.1514 -1.3347
  220MOL0     H29017   4.816   8.630   3.297 -3.4526 -2.8980 -1.3149
  220MOL0     H29018   4.836   8.541   3.018  2.6170  2.0397  1.6351
  220MOL0     H29019   4.886   8.429   3.143 -1.4157 -0.8506 -0.5130
  220MOL0     H29020   4.625   8.415   3.067  2.0815  1.9118 -2.4054
  220MOL0     H29021   4.613   8.553   3.180  1.6617 -0.4277  0.6407
  220MOL0     H29022   5.634   8.979   3.142 -0.0419 -1.3937 -1.5065
  220MOL0     H29023   5.877   9.015   3.140  1.5058  0.9021 -0.3041
  220MOL0     H29024   6.368   8.850   3.544  1.5896 -1.6450 -1.0773
  220MOL0     H29025   6.612   8.896   3.458  1.8676  0.6652 -2.6962
  220MOL0     H29026   8.426   8.518   3.006 -0.4169 -1.3972 -1.7224
  220MOL0     H29027   8.648   8.451   3.004  1.1598 -1.6482 -0.0428
  220MOL0     H29028   8.991   8.150   3.110  0.4295 -1.3315  0.3348
  220MOL0     H29029   9.238   8.113   3.125 -0.8875 -1.0992 -0.6989
  220MOL0     H29030   9.525   8.406   3.295 -0.1899  0.3296 -0.5988
  220MOL0     H29031   9.436   8.381   3.136 -1.3905  1.4928  1.7359
  220MOL0     H29032   9.675   8.220   3.220 -0.9892  2.4518  3.2162
  220MOL0     H29033   9.574   8.210   3.072 -0.0799  2.4479 -2.1265
  220MOL0     H29034   9.729   8.450   3.162 -2.2782 -0.2588  1.5760
  220MOL0     H29035   9.609   8.451   3.035 -1.6353  1.4154  3.0143
  220MOL0     H29036   9.858   8.270   3.044  0.9010 -1.1750 -1.0172
  220MOL0     H29037   9.751   8.282   2.908  1.1465  0.5048  0.1973
  220MOL0     H29038  10.051   8.604   2.882  1.2569 -1.2836 -0.8031
  220MOL0     H29039   9.273   8.430   3.407  0.1942  0.8058  0.3077
  220MOL0     H29040   9.027   8.456   3.395  0.1467  1.7463 -2.1904
  221MOL0     O29041   4.262   9.066   4.775  0.1857 -0.2668 -0.3094
  221MOL0     C29042   4.293   9.181   4.805  0.1124 -0.6188  0.6997
  221MOL0     O29043   4.208   9.287   4.779 -1.0712 -0.4164 -0.0320
  221MOL0     C29044   4.071   9.271   4.767 -1.0408  0.0155  0.2508
  221MOL0     C29045   4.002   9.158   4.822  0.0852 -0.2090  0.0060
  221MOL0     C29046   3.862   9.133   4.810 -0.6046 -0.3426 -0.4719
  221MOL0     C29047   3.789   9.228   4.751 -0.2495  0.3865 -0.1033
  221MOL0     O29048   3.654   9.209   4.762 -0.0301 -0.1021  0.3737
  221MOL0     C29049   3.573   9.310   4.707 -0.7003 -0.1080 -0.2184
  221MOL0     C29050   3.428   9.255   4.714  0.1146  0.1833  0.8997
  221MOL0     C29051   3.400   9.133   4.639 -0.0206 -0.8674  0.4752
  221MOL0     C29052   3.378   9.157   4.489  0.8005 -0.2651  0.2143
  221MOL0     C29053   3.344   9.028   4.419 -1.5224 -0.2004 -0.0181
  221MOL0     C29054   3.339   9.038   4.269  0.7791 -0.3979 -0.3088
  221MOL0     C29055   3.222   9.122   4.210  0.7455  0.3841 -0.1244
  221MOL0     C29056   3.084   9.078   4.254 -0.2863 -0.5497 -0.9695
  221MOL0     N29057   3.041   8.939   4.227  1.3029 -0.0354 -0.2057
  221MOL0     C29058   2.910   8.914   4.188  0.6565 -0.2089 -0.1333
  221MOL0     C29059   2.898   8.780   4.201 -0.1469  0.6784 -0.7636
  221MOL0     C29060   2.770   8.705   4.173 -0.3233  0.0650  0.3677
  221MOL0     C29061   2.797   8.563   4.133 -0.5291 -0.4978  0.3386
  221MOL0     C29062   2.676   8.468   4.139  0.1187 -0.4859 -0.5467
  221MOL0     C29063   2.713   8.339   4.069  0.8901  0.6241  0.2057
  221MOL0     O29064   2.633   8.224   4.103  0.3591  0.3040 -0.5603
  221MOL0     C29065   2.503   8.215   4.068 -0.6831 -0.0223 -0.7704
  221MOL0     C29066   2.436   8.291   3.977  0.3237 -0.7349 -0.1823
  221MOL0     C29067   2.298   8.274   3.955  0.6695  0.1634  0.6706
  221MOL0     C29068   2.229   8.162   4.006 -0.4301  0.5314 -1.1180
  221MOL0     C29069   2.086   8.136   3.976  0.5273 -0.5842 -0.0993
  221MOL0     O29070   2.011   8.105   4.087 -0.0009 -0.2972 -0.0671
  221MOL0     C29071   1.872   8.101   4.075 -0.4294  0.5022 -0.1816
  221MOL0     C29072   1.798   8.209   4.122 -0.3409  0.1121  0.3012
  221MOL0     C29073   1.653   8.196   4.110  0.7139 -0.1484 -0.5700
  221MOL0     C29074   1.591   8.074   4.070 -0.8074  0.2083 -0.0366
  221MOL0     O29075   1.457   8.053   4.068 -0.7428 -0.0937  0.2201
  221MOL0     C29076   1.378   8.145   4.142  0.6340 -0.2471  0.5854
  221MOL0     C29077   1.225   8.109   4.157 -0.7108 -0.5332  0.0247
  221MOL0     C29078   1.157   8.209   4.242 -0.5942 -0.6607 -0.1023
  221MOL0     C29079   1.013   8.180   4.268 -0.3916  0.5652  0.5706
  221MOL0     C29080   0.927   8.297   4.332 -0.1711 -0.1664 -0.1110
  221MOL0     C29081   0.781   8.257   4.375 -0.2983  0.1579 -0.3480
  221MOL0     C29082   0.714   8.370   4.449  0.3031  0.2612  0.9254
  221MOL0     C29083   0.564   8.328   4.464 -0.7191 -0.7487  0.6515
  221MOL0    Cl29084   0.467   8.482   4.488  0.3489 -0.6147 -0.0038
  221MOL0     C29085   1.678   7.970   4.025  0.9644  0.5405 -0.4408
  221MOL0     C29086   1.815   7.985   4.027 -0.4395  0.5430  0.5716
  221MOL0     O29087   2.044   8.153   3.865  0.3393  0.3880  0.0125
  221MOL0     C29088   2.299   8.071   4.084  0.4767  0.5533  0.2968
  221MOL0     C29089   2.436   8.104   4.118  0.2746 -0.1797  0.2887
  221MOL0     N29090   3.022   8.730   4.240  0.2178  0.7027  0.4137
  221MOL0     N29091   3.103   8.829   4.264 -0.7582  0.2940  0.7205
  221MOL0     C29092   3.855   9.349   4.692  0.8191 -0.2642  0.1352
  221MOL0     C29093   3.992   9.368   4.705 -1.1557  0.9003 -0.3950
  221MOL0     C29094   4.428   9.211   4.845  0.4657  0.3215 -0.1466
  221MOL0     C29095   4.533   9.111   4.844  0.2252  0.1386 -0.7594
  221MOL0     C29096   4.670   9.142   4.862  0.1652 -0.5085  0.0735
  221MOL0     C29097   4.710   9.276   4.880 -0.2789  0.2431 -0.0964
  221MOL0     O29098   4.845   9.313   4.886  0.5569  0.5327  0.2754
  221MOL0     C29099   4.939   9.206   4.902 -0.7190 -0.3054 -0.5453
  221MOL0     C29100   5.070   9.269   4.962  0.1517  0.8275  0.5392
  221MOL0     C29101   5.174   9.161   4.955 -0.2934  0.6144 -0.1796
  221MOL0     C29102   5.295   9.196   5.041 -0.1230 -0.1265  0.7279
  221MOL0     C29103   5.284   9.174   5.185  0.0846  0.1345  0.4148
  221MOL0     C29104   5.269   9.144   5.309  0.4973  0.3982  0.4067
  221MOL0     C29105   4.611   9.374   4.868 -0.8019  0.3049 -0.0553
  221MOL0     C29106   4.476   9.352   4.854 -0.1148  0.9273  0.5116
  221MOL0     H29107   4.050   9.080   4.880  0.5208  1.1352  1.5216
  221MOL0     H29108   3.823   9.037   4.845 -1.7049  0.5672  0.9225
  221MOL0     H29109   3.584   9.324   4.599  0.9230 -2.4012 -0.4285
  221MOL0     H29110   3.588   9.398   4.770 -4.6862  0.4376  0.2577
  221MOL0     H29111   3.357   9.330   4.677 -0.1061 -0.6680 -0.4645
  221MOL0     H29112   3.408   9.243   4.820 -0.8642 -1.7522  0.5365
  221MOL0     H29113   3.314   9.084   4.684  0.0830  0.1926  1.8771
  221MOL0     H29114   3.486   9.068   4.657 -0.2746 -0.4426  3.8915
  221MOL0     H29115   3.301   9.231   4.463  2.5199  1.7038  0.5044
  221MOL0     H29116   3.472   9.195   4.448  1.9552 -0.4899  2.4898
  221MOL0     H29117   3.249   8.994   4.461  0.3107 -2.6902  2.4529
  221MOL0     H29118   3.427   8.965   4.454 -1.3511  1.4029  2.7392
  221MOL0     H29119   3.320   8.941   4.223  2.0839 -0.9045  0.1646
  221MOL0     H29120   3.431   9.074   4.223  0.3621 -2.0597 -2.6218
  221MOL0     H29121   3.241   9.225   4.241 -2.6848  0.9556  0.5353
  221MOL0     H29122   3.221   9.126   4.100  3.4147 -0.6271 -0.2541
  221MOL0     H29123   3.018   9.153   4.210  0.7420  2.5904  2.3228
  221MOL0     H29124   3.081   9.098   4.362 -1.1346  1.3561 -1.3006
  221MOL0     H29125   2.828   8.979   4.160 -1.4983 -1.5350  2.6168
  221MOL0     H29126   2.713   8.751   4.092  3.3075  0.4747 -2.1923
  221MOL0     H29127   2.709   8.703   4.264 -3.0888 -1.1157 -1.3750
  221MOL0     H29128   2.878   8.525   4.194  0.0024  1.4030  0.8891
  221MOL0     H29129   2.829   8.571   4.028 -3.7346  0.9726 -0.6761
  221MOL0     H29130   2.661   8.451   4.246 -3.2807 -1.1915 -1.0105
  221MOL0     H29131   2.583   8.505   4.093  0.4049 -0.7517 -1.3647
  221MOL0     H29132   2.815   8.311   4.098  0.5839  0.8827  1.6098
  221MOL0     H29133   2.723   8.357   3.962  1.7425 -3.9933 -0.6915
  221MOL0     H29134   2.481   8.369   3.916  1.4933 -1.2920 -0.0631
  221MOL0     H29135   2.245   8.340   3.888 -1.2414 -1.9447 -0.0221
  221MOL0     H29136   1.851   8.281   4.183  1.4258 -1.8748  1.2379
  221MOL0     H29137   1.594   8.276   4.155  1.9910 -0.0112  0.9445
  221MOL0     H29138   1.384   8.250   4.114 -1.7093  0.6670  3.0516
  221MOL0     H29139   1.425   8.140   4.240  1.4590 -0.5809  0.1846
  221MOL0     H29140   1.218   8.008   4.199 -3.0768 -1.4401 -2.2548
  221MOL0     H29141   1.177   8.103   4.059  2.3639 -0.2040 -1.6207
  221MOL0     H29142   1.168   8.309   4.200  3.4196 -1.3651 -1.1142
  221MOL0     H29143   1.201   8.208   4.343 -0.9767 -2.7634  0.0954
  221MOL0     H29144   0.969   8.149   4.173  0.5379 -1.4218  0.7380
  221MOL0     H29145   1.003   8.092   4.332  2.0441  0.6841  1.2183
  221MOL0     H29146   0.922   8.382   4.263 -0.3131 -0.2660 -0.2223
  221MOL0     H29147   0.974   8.342   4.420  0.0975  2.9904 -1.7172
  221MOL0     H29148   0.786   8.164   4.433  2.2028  0.5462  0.1529
  221MOL0     H29149   0.728   8.230   4.283  1.1315 -2.5849 -0.4676
  221MOL0     H29150   0.766   8.382   4.544 -0.5269  0.5879  1.3484
  221MOL0     H29151   0.716   8.463   4.390  0.2524 -1.1562 -1.4480
  221MOL0     H29152   0.539   8.262   4.547  1.5616 -1.5378  0.7902
  221MOL0     H29153   0.533   8.277   4.373 -0.1331  2.1289 -1.2818
  221MOL0     H29154   1.629   7.875   4.006  2.3507 -0.1600 -0.6981
  221MOL0     H29155   1.883   7.903   4.004  0.3085  1.2578  0.1451
  221MOL0     H29156   2.268   7.969   4.105  1.0073  0.7752  2.3710
  221MOL0     H29157   2.501   8.046   4.183  3.0209  1.7635 -0.5469
  221MOL0     H29158   3.787   9.425   4.656 -0.5316 -0.1622  2.6937
  221MOL0     H29159   4.050   9.451   4.666 -0.1889 -0.8084 -2.8603
  221MOL0     H29160   4.498   9.010   4.825 -0.7682 -0.6408  3.8759
  221MOL0     H29161   4.752   9.072   4.845  0.5305  0.5501 -3.1880
  221MOL0     H29162   4.964   9.163   4.804  0.5833 -0.1421 -0.3108
  221MOL0     H29163   4.917   9.123   4.970  0.9974 -1.5772 -1.4383
  221MOL0     H29164   5.110   9.353   4.906  0.0435 -0.1031 -0.9944
  221MOL0     H29165   5.040   9.297   5.064 -1.8262  1.3717 -0.1592
  221MOL0     H29166   5.209   9.143   4.853 -1.4811 -0.9989 -0.3503
  221MOL0     H29167   5.141   9.061   4.984 -0.1966  0.4125 -0.7364
  221MOL0     H29168   5.374   9.130   5.004 -1.0925 -1.9449  1.7750
  221MOL0     H29169   5.328   9.300   5.030 -1.9238  0.3307 -0.9457
  221MOL0     H29170   5.240   9.113   5.408  2.5639 -0.9594  0.6641
  221MOL0     H29171   4.653   9.473   4.868  1.9214 -0.7655 -0.7753
  221MOL0     H29172   4.403   9.427   4.828 -1.3312 -1.6106 -4.5948
  222MOL0     O29173   9.945   4.438   4.245 -0.1911 -0.5034  0.0787
  222MOL0     C29174   9.916   4.545   4.198 -0.8522  0.3054  0.2561
  222MOL0     O29175   9.788   4.586   4.189  0.3285 -0.4358 -0.3144
  222MOL0     C29176   9.682   4.508   4.233  0.2965  0.8371  0.5383
  222MOL0     C29177   9.673   4.425   4.351 -0.1580  0.0599  0.5091
  222MOL0     C29178   9.553   4.369   4.387  0.6217  0.9059  0.1051
  222MOL0     C29179   9.445   4.372   4.306 -0.1152 -0.4810 -0.7813
  222MOL0     O29180   9.330   4.317   4.354 -0.4428  1.0115 -0.6742
  222MOL0     C29181   9.222   4.288   4.272  0.5846 -0.3866 -0.5600
  222MOL0     C29182   9.131   4.193   4.356 -0.2561  0.2667  0.8273
  222MOL0     C29183   9.020   4.132   4.267  0.1570  0.8806  0.5540
  222MOL0     C29184   8.938   4.019   4.337  0.0236 -0.3984  0.4319
  222MOL0     C29185   8.798   4.003   4.268 -0.0233  0.0545 -1.0841
  222MOL0     C29186   8.750   3.863   4.284  0.0705  0.4724 -0.9281
  222MOL0     C29187   8.591   3.866   4.286 -0.4201  0.4190 -0.7046
  222MOL0     C29188   8.526   3.731   4.330  0.1098 -0.4314 -0.3616
  222MOL0     N29189   8.377   3.739   4.320 -0.8655  1.2361  0.5732
  222MOL0     C29190   8.301   3.701   4.218 -0.0797  0.2531  0.3154
  222MOL0     C29191   8.172   3.730   4.248 -0.1042 -0.0221  0.6735
  222MOL0     C29192   8.056   3.692   4.165  0.5947 -0.3958 -0.8828
  222MOL0     C29193   7.916   3.727   4.233 -0.6909 -0.8937 -0.8740
  222MOL0     C29194   7.786   3.701   4.145 -0.0075 -0.3400  1.2475
  222MOL0     C29195   7.659   3.710   4.229  0.3607 -0.5270  0.1759
  222MOL0     O29196   7.549   3.710   4.136 -0.6322  0.2285  0.1534
  222MOL0     C29197   7.431   3.720   4.203 -0.0238 -0.7921  0.2809
  222MOL0     C29198   7.359   3.840   4.194 -0.7927 -0.3518 -0.6460
  222MOL0     C29199   7.250   3.852   4.270  0.6543  0.3747 -0.1171
  222MOL0     C29200   7.197   3.749   4.353  0.0743  0.6861  0.1586
  222MOL0     C29201   7.063   3.746   4.415 -0.4970 -0.5612 -0.4847
  222MOL0     O29202   7.031   3.639   4.499 -0.9318  0.0596  0.0295
  222MOL0     C29203   6.906   3.646   4.536 -0.1331 -0.0724 -1.0213
  222MOL0     C29204   6.811   3.550   4.484 -0.2016 -0.0391  0.2898
  222MOL0     C29205   6.676   3.557   4.525 -0.2623  1.1595 -0.0313
  222MOL0     C29206   6.637   3.661   4.608 -0.0749  1.4177 -0.4619
  222MOL0     O29207   6.507   3.672   4.652  1.5509  0.1145 -0.0258
  222MOL0     C29208   6.473   3.768   4.756 -0.0989  0.2819 -0.6880
  222MOL0     C29209   6.331   3.735   4.813 -0.3132 -0.4048  0.2518
  222MOL0     C29210   6.223   3.809   4.739 -0.5924 -0.2523 -0.8141
  222MOL0     C29211   6.090   3.726   4.755 -0.9301 -0.1153 -0.5771
  222MOL0     C29212   6.002   3.750   4.625 -0.3729  0.9753 -0.0811
  222MOL0     C29213   5.881   3.657   4.635 -0.5824 -0.2163 -0.8417
  222MOL0     C29214   5.821   3.658   4.496  0.4317  0.2661 -0.1799
  222MOL0     C29215   5.702   3.565   4.492  1.5123 -0.2825 -0.8001
  222MOL0    Cl29216   5.741   3.402   4.498  0.2404 -0.3526 -0.1226
  222MOL0     C29217   6.735   3.742   4.666  0.0244  0.0041  0.5983
  222MOL0     C29218   6.868   3.739   4.631  0.7885  1.1063  0.4911
  222MOL0     O29219   6.983   3.841   4.391 -0.2693 -0.2595 -0.1205
  222MOL0     C29220   7.270   3.629   4.354 -0.6414 -0.2240 -0.0480
  222MOL0     C29221   7.393   3.620   4.291  0.4903  0.3357  0.6707
  222MOL0     N29222   8.170   3.780   4.370 -0.1618 -0.5427 -0.1749
  222MOL0     N29223   8.294   3.795   4.408  0.6127 -0.3363 -0.4310
  222MOL0     C29224   9.453   4.446   4.189 -0.8359 -0.1315  0.9704
  222MOL0     C29225   9.575   4.516   4.155  0.0014 -1.1469 -0.1186
  222MOL0     C29226  10.032   4.643   4.175  0.5439  0.5092 -0.3906
  222MOL0     C29227  10.166   4.607   4.211 -0.0370 -0.3856 -0.1289
  222MOL0     C29228  10.266   4.705   4.209 -0.1339 -0.4053  0.1883
  222MOL0     C29229  10.236   4.836   4.168 -0.0545  0.4102  0.4818
  222MOL0     O29230  10.331   4.932   4.149 -0.2498  0.3977 -0.1871
  222MOL0     C29231  10.469   4.907   4.156  0.1249 -0.0879 -0.2051
  222MOL0     C29232  10.545   5.034   4.193 -0.1272  0.4278  1.3929
  222MOL0     C29233  10.696   5.019   4.187  0.0515  0.1065 -0.0964
  222MOL0     C29234  10.758   5.065   4.049 -0.2686  0.5606  0.4065
  222MOL0     C29235  10.902   5.011   4.032 -0.4123  0.3753  0.1315
  222MOL0     C29236  11.019   4.979   4.025 -0.1017  0.8197 -0.0270
  222MOL0     C29237  10.111   4.863   4.121  0.0276  0.7470  0.1468
  222MOL0     C29238  10.003   4.773   4.135 -0.9387  0.2363  0.5301
  222MOL0     H29239   9.760   4.426   4.416  0.7510  2.4386 -0.5927
  222MOL0     H29240   9.540   4.339   4.490 -0.8564  1.8752  0.2260
  222MOL0     H29241   9.260   4.232   4.186  0.3084 -0.6911 -0.4884
  222MOL0     H29242   9.164   4.373   4.234  1.2824  1.1385  1.5601
  222MOL0     H29243   9.081   4.230   4.446 -0.0155  1.4485  0.4982
  222MOL0     H29244   9.195   4.111   4.390  1.4737  0.2878 -2.0695
  222MOL0     H29245   9.076   4.098   4.180  0.0054 -0.3137  0.9031
  222MOL0     H29246   8.958   4.216   4.238 -1.0126 -0.6994 -1.8589
  222MOL0     H29247   8.990   3.923   4.332  1.6762  0.4903  0.1187
  222MOL0     H29248   8.912   4.034   4.442 -0.6848 -0.9859  0.3531
  222MOL0     H29249   8.814   4.046   4.168 -0.1639 -0.9859 -1.5662
  222MOL0     H29250   8.726   4.070   4.316  1.3681  1.1888 -0.5089
  222MOL0     H29251   8.777   3.819   4.380 -0.2525 -1.2442 -1.5900
  222MOL0     H29252   8.790   3.791   4.212  0.4947 -1.7746  1.4221
  222MOL0     H29253   8.561   3.941   4.360 -1.0383  0.9842 -1.5079
  222MOL0     H29254   8.549   3.896   4.190  0.6538  3.0401 -0.4204
  222MOL0     H29255   8.540   3.707   4.436 -0.7349 -1.5316 -0.4877
  222MOL0     H29256   8.569   3.654   4.266  1.1001 -0.1700 -0.0380
  222MOL0     H29257   8.344   3.662   4.126  1.9357  1.6456  0.6147
  222MOL0     H29258   8.065   3.585   4.144 -0.7627 -0.6447 -0.3061
  222MOL0     H29259   8.065   3.749   4.072  0.1835 -0.2270 -0.8197
  222MOL0     H29260   7.911   3.833   4.260  0.8294 -1.1460  0.5693
  222MOL0     H29261   7.903   3.670   4.326  1.9110  1.5275  1.1636
  222MOL0     H29262   7.787   3.767   4.059  2.0937  0.0503  1.5162
  222MOL0     H29263   7.781   3.602   4.098 -1.8339  0.2179  0.2040
  222MOL0     H29264   7.666   3.800   4.291 -0.3073 -0.9097  0.8216
  222MOL0     H29265   7.646   3.619   4.289 -0.6047 -0.1960  0.4905
  222MOL0     H29266   7.394   3.924   4.135 -0.8171  0.6911  0.7644
  222MOL0     H29267   7.189   3.941   4.261 -0.0251  0.0408  0.9494
  222MOL0     H29268   6.836   3.466   4.419  3.5261 -1.3249  3.0233
  222MOL0     H29269   6.601   3.483   4.500 -0.4115  0.5831  1.8985
  222MOL0     H29270   6.477   3.870   4.716  1.8560  1.2256  1.6089
  222MOL0     H29271   6.540   3.764   4.842  1.9948  0.7705 -2.2127
  222MOL0     H29272   6.327   3.754   4.921 -0.3779  1.9485 -0.1121
  222MOL0     H29273   6.327   3.626   4.804  0.2589 -0.6932  2.6837
  222MOL0     H29274   6.257   3.828   4.636 -1.9756 -1.1329 -1.4619
  222MOL0     H29275   6.209   3.905   4.789  2.5501 -0.1509  0.0955
  222MOL0     H29276   6.120   3.622   4.740  0.8264  0.2758  0.0189
  222MOL0     H29277   6.040   3.747   4.850 -0.7261 -4.1725  0.6168
  222MOL0     H29278   6.067   3.737   4.538 -1.5571  0.4251 -0.9116
  222MOL0     H29279   5.972   3.854   4.618 -0.2922  1.0116  0.1064
  222MOL0     H29280   5.819   3.703   4.713  2.0234  0.4650  0.9518
  222MOL0     H29281   5.910   3.556   4.666 -1.0310 -0.7013 -1.9362
  222MOL0     H29282   5.793   3.761   4.470  0.2220 -0.7077 -4.7513
  222MOL0     H29283   5.881   3.621   4.412 -3.4514 -2.1100 -2.2374
  222MOL0     H29284   5.650   3.577   4.396  1.1559 -0.2394 -0.6036
  222MOL0     H29285   5.628   3.591   4.569 -1.0255 -1.5815 -2.6514
  222MOL0     H29286   6.711   3.818   4.739  0.8648 -0.2026  1.1043
  222MOL0     H29287   6.938   3.821   4.644  2.4415  0.0029 -1.0497
  222MOL0     H29288   7.240   3.541   4.410 -3.9485  1.6386  1.4020
  222MOL0     H29289   7.457   3.533   4.294  0.2814  0.2081  2.0197
  222MOL0     H29290   9.374   4.427   4.117 -0.3474 -0.9191  0.6338
  222MOL0     H29291   9.577   4.582   4.069  1.0820  1.6710  1.9502
  222MOL0     H29292  10.186   4.509   4.253 -1.6500 -0.1833  1.2362
  222MOL0     H29293  10.355   4.674   4.262 -0.7930 -1.6349  0.6318
  222MOL0     H29294  10.499   4.864   4.060  1.6990 -0.4208  0.4096
  222MOL0     H29295  10.485   4.834   4.236  0.9507 -2.5307 -2.4550
  222MOL0     H29296  10.505   5.107   4.122 -0.2124 -1.8152 -1.0274
  222MOL0     H29297  10.523   5.063   4.296  2.4835 -0.0515  2.1542
  222MOL0     H29298  10.727   4.918   4.214  2.7171  0.6329 -0.8803
  222MOL0     H29299  10.741   5.081   4.266  1.6468 -0.8744 -0.1837
  222MOL0     H29300  10.701   5.021   3.968 -0.9014  2.7860 -0.4190
  222MOL0     H29301  10.762   5.173   4.032 -0.4096  0.4610 -0.2785
  222MOL0     H29302  11.123   4.959   4.041 -0.2187  1.6840  2.0505
  222MOL0     H29303  10.097   4.965   4.086  1.3650  1.3058  1.1708
  222MOL0     H29304   9.901   4.799   4.108 -0.9776 -0.0167  0.4242
  223MOL0     O29305   6.088   6.827   9.381  0.0768 -0.9893  0.4939
  223MOL0     C29306   6.086   6.890   9.273 -0.0952  0.1084 -0.6198
  223MOL0     O29307   5.982   6.967   9.222  0.5185 -0.2118 -0.0255
  223MOL0     C29308   5.864   6.962   9.280  0.2857 -0.4213  0.1190
  223MOL0     C29309   5.756   6.910   9.215 -0.3464  0.3984 -0.4879
  223MOL0     C29310   5.627   6.912   9.275 -0.2288  0.3700 -0.2540
  223MOL0     C29311   5.603   6.991   9.395 -0.2646  0.0164  0.3060
  223MOL0     O29312   5.481   6.982   9.454  0.4583  0.1501  0.2986
  223MOL0     C29313   5.418   7.109   9.486  0.4174  0.8228 -0.6984
  223MOL0     C29314   5.328   7.088   9.606  0.1455 -0.7815 -0.6663
  223MOL0     C29315   5.185   7.052   9.583 -0.1228  0.3025 -0.1716
  223MOL0     C29316   5.110   7.167   9.532 -0.8166  0.0533  0.3572
  223MOL0     C29317   4.966   7.145   9.579 -0.0498 -0.2686  0.6453
  223MOL0     C29318   4.872   7.252   9.508 -0.2730  0.6441 -0.1487
  223MOL0     C29319   4.730   7.242   9.569 -0.2310  0.8038  0.9768
  223MOL0     C29320   4.713   7.315   9.696  0.1929  0.2399 -0.4954
  223MOL0     N29321   4.571   7.335   9.730 -0.5534  1.2007  0.4782
  223MOL0     C29322   4.484   7.236   9.755  0.4221 -0.2434  0.6176
  223MOL0     C29323   4.356   7.290   9.744  0.4954  0.2719  0.0049
  223MOL0     C29324   4.215   7.229   9.770  0.0430  1.2419  0.6968
  223MOL0     C29325   4.188   7.090   9.709  0.7693  0.3175 -0.2230
  223MOL0     C29326   4.219   7.088   9.558  0.2960  0.4314  0.1801
  223MOL0     C29327   4.214   6.954   9.501 -0.2138 -0.5765  0.3924
  223MOL0     O29328   4.281   6.926   9.375  0.1725 -0.6629  0.0418
  223MOL0     C29329   4.418   6.911   9.366 -0.0365  0.3527  0.2067
  223MOL0     C29330   4.511   6.932   9.470 -0.2760  0.4796 -0.1709
  223MOL0     C29331   4.640   6.904   9.450 -0.4846  0.2218 -0.4085
  223MOL0     C29332   4.690   6.865   9.329  0.1344  0.0433 -0.2331
  223MOL0     C29333   4.837   6.866   9.307 -0.4570 -0.3105 -0.1204
  223MOL0     O29334   4.875   6.904   9.190 -0.3355  0.0205  0.3348
  223MOL0     C29335   5.001   6.901   9.143  0.3281 -0.0666  0.9324
  223MOL0     C29336   5.110   6.951   9.214  0.2436 -0.6741 -0.6167
  223MOL0     C29337   5.245   6.921   9.171  0.1247  0.2332  0.1479
  223MOL0     C29338   5.265   6.860   9.045  0.5669 -0.6966 -0.2111
  223MOL0     O29339   5.394   6.837   9.006  0.0217  0.2752  0.4788
  223MOL0     C29340   5.434   6.759   8.891  0.3750 -0.6420 -0.6584
  223MOL0     C29341   5.530   6.645   8.951 -0.0403  0.2569 -0.2510
  223MOL0     C29342   5.672   6.657   8.898  0.6262 -0.9004 -0.1037
  223MOL0     C29343   5.685   6.587   8.765 -0.3134  0.8610  0.4046
  223MOL0     C29344   5.814   6.630   8.686 -0.0409 -0.1605  0.4652
  223MOL0     C29345   5.947   6.601   8.748  0.5976 -0.1708  0.1791
  223MOL0     C29346   6.058   6.626   8.647 -0.9150 -0.0304  1.0826
  223MOL0     C29347   6.186   6.548   8.685  0.5278 -0.1893 -0.0536
  223MOL0    Cl29348   6.154   6.364   8.666 -0.1521  0.0820 -0.2293
  223MOL0     C29349   5.153   6.808   8.985  1.5818  0.5017  0.2010
  223MOL0     C29350   5.021   6.821   9.025 -0.8827 -0.6622  0.1429
  223MOL0     O29351   4.907   6.838   9.404 -0.2398  0.0645 -0.2958
  223MOL0     C29352   4.602   6.847   9.228  0.3109  0.2271 -0.4932
  223MOL0     C29353   4.467   6.868   9.245  0.2992 -0.6324  0.1957
  223MOL0     N29354   4.371   7.425   9.711  0.1204 -0.0309 -0.3685
  223MOL0     N29355   4.498   7.451   9.715  0.2023  0.4170  0.4222
  223MOL0     C29356   5.717   7.042   9.457  0.9314 -0.8961  0.8262
  223MOL0     C29357   5.845   7.025   9.398 -0.2999  0.5765  1.1579
  223MOL0     C29358   6.206   6.878   9.185  0.0371  0.3764 -0.3598
  223MOL0     C29359   6.195   6.905   9.042 -0.7122  0.3827 -0.6213
  223MOL0     C29360   6.309   6.887   8.960  0.0088 -0.8107 -0.5084
  223MOL0     C29361   6.424   6.832   9.009 -0.3343  0.2695 -0.6581
  223MOL0     O29362   6.539   6.841   8.937  0.9797  0.0304 -0.2982
  223MOL0     C29363   6.572   6.725   8.867 -0.0858 -0.5074  0.3008
  223MOL0     C29364   6.711   6.742   8.806  0.4349 -0.3184  0.3562
  223MOL0     C29365   6.806   6.755   8.922  0.4448  0.0955  0.3084
  223MOL0     C29366   6.945   6.778   8.857 -0.2959 -0.4737  0.3361
  223MOL0     C29367   7.046   6.780   8.966 -1.2793  0.2047  0.4743
  223MOL0     C29368   7.114   6.785   9.070  0.1177 -0.6364  0.0742
  223MOL0     C29369   6.429   6.810   9.151 -0.9174  0.6953 -0.6392
  223MOL0     C29370   6.326   6.837   9.240  0.1499  0.5246 -0.1082
  223MOL0     H29371   5.765   6.867   9.116  0.0955 -0.2906 -0.1561
  223MOL0     H29372   5.548   6.858   9.224  1.0200  0.2139 -2.1362
  223MOL0     H29373   5.356   7.136   9.399  0.5345  0.6330 -0.8414
  223MOL0     H29374   5.491   7.190   9.494  3.6637 -1.9200 -0.5689
  223MOL0     H29375   5.336   7.173   9.675 -0.1036 -1.8089  0.6917
  223MOL0     H29376   5.374   7.004   9.660  2.6959  2.3049  2.4737
  223MOL0     H29377   5.132   7.016   9.672 -1.5120 -2.1159 -1.8415
  223MOL0     H29378   5.176   6.969   9.512  0.3371  0.2311 -0.1473
  223MOL0     H29379   5.142   7.266   9.566 -0.0061  0.1804 -0.7033
  223MOL0     H29380   5.127   7.175   9.425  2.0706  0.4998  0.7596
  223MOL0     H29381   4.953   7.166   9.686 -4.8524 -0.6934  0.3589
  223MOL0     H29382   4.931   7.045   9.553 -0.2369 -0.9030  3.0639
  223MOL0     H29383   4.864   7.234   9.400  0.4359  2.0246 -0.4528
  223MOL0     H29384   4.913   7.353   9.513  1.4136 -0.0585  1.5917
  223MOL0     H29385   4.665   7.279   9.489 -0.3433 -0.0415  0.6700
  223MOL0     H29386   4.724   7.135   9.590  1.9684  0.0778 -1.5392
  223MOL0     H29387   4.769   7.409   9.692  0.6385  0.1253  1.7977
  223MOL0     H29388   4.765   7.253   9.769  0.4970 -2.3406 -2.7201
  223MOL0     H29389   4.505   7.129   9.755 -0.7361 -0.5355 -1.5302
  223MOL0     H29390   4.143   7.294   9.720 -2.2779 -1.4048  0.3965
  223MOL0     H29391   4.208   7.227   9.879 -3.6804 -1.4413  0.5793
  223MOL0     H29392   4.086   7.056   9.727  1.0818 -0.8507 -0.5574
  223MOL0     H29393   4.256   7.019   9.758 -0.1481 -0.8304 -0.5925
  223MOL0     H29394   4.140   7.140   9.503 -2.5781 -2.2428  1.4878
  223MOL0     H29395   4.314   7.137   9.534  0.0081  0.8826 -0.0558
  223MOL0     H29396   4.107   6.929   9.498 -0.3755 -0.1189  1.6724
  223MOL0     H29397   4.250   6.885   9.578 -1.4484  0.4579  1.9565
  223MOL0     H29398   4.470   6.991   9.551  0.1428  1.4203 -0.6255
  223MOL0     H29399   4.698   6.919   9.540 -2.9351 -0.9702  1.5087
  223MOL0     H29400   5.091   7.007   9.305  1.5601  1.1245 -1.3869
  223MOL0     H29401   5.326   6.965   9.228  1.7637  0.2732 -2.0901
  223MOL0     H29402   5.495   6.830   8.834  3.7315  0.4233  3.6588
  223MOL0     H29403   5.353   6.715   8.833 -0.9068 -0.5533  0.9886
  223MOL0     H29404   5.479   6.552   8.926 -1.3438  0.4733  1.4535
  223MOL0     H29405   5.548   6.653   9.059  1.3959 -1.1331 -0.3479
  223MOL0     H29406   5.740   6.602   8.964 -1.6874 -4.3665 -0.3598
  223MOL0     H29407   5.700   6.763   8.890  1.6218 -1.2729 -2.3620
  223MOL0     H29408   5.702   6.479   8.773 -2.8747  0.3493 -0.2166
  223MOL0     H29409   5.590   6.603   8.712 -1.2457 -1.7322  1.1374
  223MOL0     H29410   5.808   6.735   8.655  0.8164 -0.8614 -2.3781
  223MOL0     H29411   5.806   6.561   8.602 -2.5988 -0.4891  0.9038
  223MOL0     H29412   5.954   6.496   8.779 -1.2775 -0.9605 -1.7954
  223MOL0     H29413   5.976   6.661   8.834  1.8292 -1.1858  0.4893
  223MOL0     H29414   6.025   6.593   8.548  1.3730 -1.0572  0.6016
  223MOL0     H29415   6.086   6.732   8.643  4.4982 -1.1695 -2.5052
  223MOL0     H29416   6.196   6.575   8.791  1.3300 -2.2036  0.4365
  223MOL0     H29417   6.278   6.576   8.632 -0.1407 -1.7179 -2.1336
  223MOL0     H29418   5.172   6.733   8.909  1.0532 -1.3090  1.7663
  223MOL0     H29419   4.935   6.773   8.978  1.0263 -1.6840 -2.5386
  223MOL0     H29420   4.638   6.826   9.128  0.7043 -1.9737  0.0797
  223MOL0     H29421   4.405   6.850   9.158  1.2624 -2.5207 -0.1474
  223MOL0     H29422   5.687   7.094   9.548 -0.4521 -4.0830  2.3655
  223MOL0     H29423   5.932   7.059   9.454  1.1777 -2.3086  0.8323
  223MOL0     H29424   6.103   6.938   8.993 -1.6712 -0.6150  0.4473
  223MOL0     H29425   6.311   6.923   8.858  0.9348  3.1842  0.7389
  223MOL0     H29426   6.505   6.721   8.780 -1.6626 -1.4907  1.4901
  223MOL0     H29427   6.562   6.639   8.934  1.8722 -1.9925 -1.1869
  223MOL0     H29428   6.744   6.654   8.750  1.6009  0.6019 -0.4421
  223MOL0     H29429   6.720   6.825   8.735  3.9948 -0.4533  0.4856
  223MOL0     H29430   6.815   6.660   8.974 -0.3045 -0.8329 -1.1875
  223MOL0     H29431   6.780   6.847   8.975 -2.2003  1.1076 -2.4251
  223MOL0     H29432   6.973   6.704   8.783 -1.4801  2.4078 -3.3086
  223MOL0     H29433   6.939   6.872   8.801  0.1792 -0.4084  0.3922
  223MOL0     H29434   7.174   6.812   9.154  1.0027  0.9607 -1.0082
  223MOL0     H29435   6.526   6.780   9.188 -1.5166 -2.4035 -1.3039
  223MOL0     H29436   6.344   6.827   9.347  2.0581 -1.0683 -0.5288
  224MOL0     O29437   2.244   3.291   1.063 -0.0791 -0.6477  0.1298
  224MOL0     C29438   2.316   3.269   1.160  0.6106 -0.5109  0.4612
  224MOL0     O29439   2.305   3.156   1.245  0.2052 -0.0789 -0.3906
  224MOL0     C29440   2.203   3.063   1.233  0.7414 -0.3490  0.0667
  224MOL0     C29441   2.218   2.926   1.212  0.0274  1.0216  0.1593
  224MOL0     C29442   2.102   2.850   1.188 -0.4859  0.3507 -0.8690
  224MOL0     C29443   1.976   2.903   1.191  0.2758  0.2298  0.3604
  224MOL0     O29444   1.871   2.821   1.158 -0.0218  0.4048 -0.0651
  224MOL0     C29445   1.740   2.869   1.127  0.0795  0.7384  0.5586
  224MOL0     C29446   1.656   2.877   1.258 -0.3010  0.2041 -0.4364
  224MOL0     C29447   1.517   2.935   1.235  0.2664  0.0396  0.8450
  224MOL0     C29448   1.412   2.896   1.350  0.4577  0.3692 -0.4998
  224MOL0     C29449   1.263   2.924   1.316  0.2312 -0.0515 -0.2282
  224MOL0     C29450   1.210   2.821   1.222 -0.5621  0.1490  0.1652
  224MOL0     C29451   1.060   2.814   1.198 -0.3323 -0.0624  0.8834
  224MOL0     C29452   0.987   2.742   1.319 -0.6108 -0.0214 -0.0048
  224MOL0     N29453   0.843   2.750   1.301 -0.4959  0.8475  0.5472
  224MOL0     C29454   0.757   2.647   1.279 -0.0386 -0.2286 -0.6682
  224MOL0     C29455   0.631   2.702   1.262 -0.8196 -0.2075  1.3487
  224MOL0     C29456   0.501   2.631   1.228  0.4714 -0.5789 -0.6008
  224MOL0     C29457   0.393   2.656   1.336 -1.0128  0.3735 -0.4666
  224MOL0     C29458   0.282   2.547   1.317  0.4080 -0.2020 -0.2771
  224MOL0     C29459   0.185   2.579   1.434 -0.1990 -0.2078  0.5139
  224MOL0     O29460   0.076   2.488   1.429 -0.1797  0.1351 -0.0364
  224MOL0     C29461  -0.043   2.507   1.355 -0.7631  0.2561 -0.1324
  224MOL0     C29462  -0.062   2.604   1.260 -1.0296  0.2312  0.3410
  224MOL0     C29463  -0.183   2.619   1.194  0.4813 -0.0021 -0.4634
  224MOL0     C29464  -0.296   2.532   1.222  0.3582  0.1244 -1.2505
  224MOL0     C29465  -0.418   2.536   1.142  0.5376 -0.1907 -1.0144
  224MOL0     O29466  -0.515   2.461   1.185  0.2231  0.7945 -0.0520
  224MOL0     C29467  -0.639   2.483   1.136  0.0075 -0.2219  0.3015
  224MOL0     C29468  -0.671   2.437   1.009  0.5427 -0.1682  0.9343
  224MOL0     C29469  -0.802   2.454   0.958 -0.4596  0.3001 -0.4717
  224MOL0     C29470  -0.903   2.507   1.040  0.4343 -0.3919 -0.2560
  224MOL0     O29471  -1.029   2.527   0.991 -0.5698 -0.3774 -0.0356
  224MOL0     C29472  -1.057   2.473   0.859  0.8348  0.5307 -1.3298
  224MOL0     C29473  -1.194   2.515   0.798 -0.0272  0.0532 -0.3872
  224MOL0     C29474  -1.203   2.494   0.647  0.0871  0.7890 -0.5089
  224MOL0     C29475  -1.355   2.476   0.606 -0.2490 -0.4165  0.7570
  224MOL0     C29476  -1.400   2.336   0.628  1.0342  0.2327  0.1460
  224MOL0     C29477  -1.534   2.304   0.555 -0.2397 -0.6144 -0.4493
  224MOL0     C29478  -1.657   2.367   0.623 -0.1990  0.3962 -0.2087
  224MOL0     C29479  -1.785   2.320   0.550 -0.0179  0.1998  0.0771
  224MOL0    Cl29480  -1.789   2.370   0.378 -0.1417 -0.3014 -0.0505
  224MOL0     C29481  -0.880   2.527   1.172 -1.0716 -0.6740 -0.2455
  224MOL0     C29482  -0.743   2.524   1.220  0.0176 -0.0316  0.1621
  224MOL0     O29483  -0.432   2.615   1.052 -0.1276 -0.4203 -0.2276
  224MOL0     C29484  -0.273   2.436   1.320 -0.3146  0.8493  0.0399
  224MOL0     C29485  -0.150   2.427   1.378 -0.2558 -0.0597 -0.2134
  224MOL0     N29486   0.646   2.842   1.269 -0.4724 -0.3380 -0.8646
  224MOL0     N29487   0.772   2.860   1.284  1.2060  0.1775 -0.1466
  224MOL0     C29488   1.960   3.038   1.216  0.2090 -0.8998 -0.2937
  224MOL0     C29489   2.068   3.116   1.244  0.2311 -0.7332 -0.0328
  224MOL0     C29490   2.415   3.374   1.191 -0.2280  0.5935 -1.0912
  224MOL0     C29491   2.461   3.385   1.326 -0.2485  0.6386  0.4937
  224MOL0     C29492   2.544   3.484   1.363  0.3871  0.6727  0.8425
  224MOL0     C29493   2.592   3.576   1.266  0.4640 -0.1327  0.0960
  224MOL0     O29494   2.687   3.665   1.305  0.2707  0.1125 -0.1109
  224MOL0     C29495   2.694   3.791   1.242  0.0601 -0.6685  0.2093
  224MOL0     C29496   2.769   3.886   1.334 -0.7519  0.4925  1.0724
  224MOL0     C29497   2.771   4.029   1.277  0.6265 -0.7206 -1.0162
  224MOL0     C29498   2.893   4.108   1.319 -0.6018 -0.1558 -0.3233
  224MOL0     C29499   2.886   4.132   1.460  0.7355 -0.8604  0.2725
  224MOL0     C29500   2.899   4.154   1.578  0.2722  0.1863  0.2308
  224MOL0     C29501   2.536   3.568   1.137  0.2342  0.6122 -0.9526
  224MOL0     C29502   2.447   3.468   1.100 -0.4249 -0.3968  0.1997
  224MOL0     H29503   2.319   2.885   1.214 -0.4046 -0.1837 -1.2760
  224MOL0     H29504   2.122   2.744   1.175  4.3990  0.8707  0.4148
  224MOL0     H29505   1.688   2.805   1.055 -1.4221  0.4362  1.8605
  224MOL0     H29506   1.738   2.969   1.083 -1.0037  0.1376 -0.8601
  224MOL0     H29507   1.713   2.947   1.320  0.8860  0.0843 -1.3474
  224MOL0     H29508   1.654   2.775   1.297 -1.1384  1.4898  3.2377
  224MOL0     H29509   1.470   2.904   1.141 -0.9850 -3.1874  2.3629
  224MOL0     H29510   1.520   3.044   1.225 -2.3706 -0.0088 -1.6538
  224MOL0     H29511   1.408   2.790   1.374 -0.0704  0.7182  1.0638
  224MOL0     H29512   1.435   2.950   1.442 -1.6734 -1.0433  0.9461
  224MOL0     H29513   1.251   3.025   1.274 -2.2428  0.4559  1.4607
  224MOL0     H29514   1.212   2.912   1.412  1.0404 -0.9032  0.1109
  224MOL0     H29515   1.246   2.720   1.245  1.1831  0.6250 -0.3093
  224MOL0     H29516   1.251   2.852   1.125  1.4362 -0.9755  0.5926
  224MOL0     H29517   1.024   2.916   1.183 -0.2374 -0.2341 -0.7040
  224MOL0     H29518   1.041   2.765   1.102  0.4501  1.1703  0.0593
  224MOL0     H29519   1.013   2.798   1.410  0.1112  1.1020 -0.8755
  224MOL0     H29520   1.027   2.641   1.326 -0.0321 -0.1900 -3.8510
  224MOL0     H29521   0.780   2.542   1.295  0.9067  0.2850  1.8569
  224MOL0     H29522   0.511   2.522   1.233 -1.4666 -0.7733 -0.1767
  224MOL0     H29523   0.461   2.670   1.134 -2.8004  1.4562  1.4266
  224MOL0     H29524   0.348   2.756   1.330  0.2539  1.2796  2.7070
  224MOL0     H29525   0.438   2.641   1.435 -0.1046  0.9748 -0.7695
  224MOL0     H29526   0.228   2.559   1.222 -0.1410 -0.3595  0.0105
  224MOL0     H29527   0.321   2.446   1.328 -0.7824 -0.5589  0.8559
  224MOL0     H29528   0.149   2.682   1.426 -0.9295 -0.6140 -3.2069
  224MOL0     H29529   0.236   2.562   1.530 -1.8981 -1.1194  1.2899
  224MOL0     H29530   0.014   2.677   1.233 -2.6118  2.2363  1.0658
  224MOL0     H29531  -0.190   2.684   1.108  0.2442  0.8913  0.2097
  224MOL0     H29532  -0.603   2.394   0.936  0.0317 -0.4610  0.6267
  224MOL0     H29533  -0.804   2.436   0.851 -0.1596  0.9782 -0.5990
  224MOL0     H29534  -1.051   2.364   0.864  0.6629  0.5708  1.0794
  224MOL0     H29535  -0.982   2.510   0.789 -0.8134  1.0988 -2.8407
  224MOL0     H29536  -1.202   2.622   0.819 -0.0676  0.5063 -2.4919
  224MOL0     H29537  -1.273   2.457   0.846  0.1086 -1.9814 -2.4365
  224MOL0     H29538  -1.148   2.406   0.610  0.4461  0.7450  0.1150
  224MOL0     H29539  -1.159   2.579   0.594  2.8779  1.5191  2.6239
  224MOL0     H29540  -1.418   2.546   0.660 -2.3045 -1.8382  0.3259
  224MOL0     H29541  -1.365   2.497   0.499 -0.1799 -1.1407  0.5974
  224MOL0     H29542  -1.410   2.308   0.733  1.4655 -2.3060 -0.4079
  224MOL0     H29543  -1.316   2.278   0.590  1.9070  0.6387  1.4038
  224MOL0     H29544  -1.547   2.196   0.553  1.5268 -0.9407  1.7806
  224MOL0     H29545  -1.521   2.338   0.452 -1.3704 -0.6702 -0.6231
  224MOL0     H29546  -1.663   2.325   0.724 -0.6927  1.4963  0.2390
  224MOL0     H29547  -1.649   2.475   0.633 -1.9576  0.3202  3.8363
  224MOL0     H29548  -1.876   2.348   0.603  1.7216  2.1438  2.2297
  224MOL0     H29549  -1.784   2.211   0.557 -0.2702  0.0315 -1.9354
  224MOL0     H29550  -0.967   2.561   1.227  0.0216  0.5656  0.7922
  224MOL0     H29551  -0.724   2.554   1.322 -0.2393 -0.3866  0.3175
  224MOL0     H29552  -0.358   2.377   1.354 -0.5890  0.7093 -0.8638
  224MOL0     H29553  -0.135   2.358   1.460  0.0905 -1.2565 -1.2504
  224MOL0     H29554   1.862   3.084   1.211  0.4665 -0.2777  0.1676
  224MOL0     H29555   2.061   3.222   1.267 -1.1211 -1.0443  1.1456
  224MOL0     H29556   2.434   3.309   1.398 -0.3661 -2.6096 -2.7001
  224MOL0     H29557   2.586   3.505   1.460  4.4947 -1.1289 -0.3066
  224MOL0     H29558   2.591   3.826   1.227  0.1470 -0.7216 -0.5497
  224MOL0     H29559   2.740   3.786   1.143 -0.1168  0.9311  0.0260
  224MOL0     H29560   2.719   3.886   1.431 -2.0305 -0.2069  0.4420
  224MOL0     H29561   2.874   3.857   1.349 -1.0627 -1.1546  0.3155
  224MOL0     H29562   2.680   4.077   1.312  0.9194  0.3718 -1.6914
  224MOL0     H29563   2.769   4.035   1.168  0.1480 -2.9905 -1.1802
  224MOL0     H29564   2.980   4.049   1.290 -1.3912 -1.6753  0.2609
  224MOL0     H29565   2.894   4.205   1.269 -1.2105 -0.1122 -0.2648
  224MOL0     H29566   2.931   4.177   1.678 -0.8096  0.9280  0.4237
  224MOL0     H29567   2.565   3.644   1.065 -0.6981  1.5452 -0.3595
  224MOL0     H29568   2.414   3.461   0.997 -1.3189  0.8536  0.3738
  225MOL0     O29569   8.536   8.792   2.058 -0.6673  0.2968 -0.3316
  225MOL0     C29570   8.584   8.692   2.124  0.1384 -1.1957 -0.1945
  225MOL0     O29571   8.512   8.594   2.181  0.4176  0.6995  0.3454
  225MOL0     C29572   8.373   8.590   2.180  0.0492  0.1160 -1.0146
  225MOL0     C29573   8.282   8.653   2.087  0.0395  0.1418  0.1399
  225MOL0     C29574   8.144   8.636   2.097 -1.0500 -0.0257 -0.0047
  225MOL0     C29575   8.091   8.562   2.202  0.7639 -1.0108 -0.6312
  225MOL0     O29576   7.951   8.547   2.203  0.2001  0.2775  0.7538
  225MOL0     C29577   7.893   8.449   2.282  0.4926  0.4611 -0.5324
  225MOL0     C29578   7.739   8.428   2.259  0.6652 -0.7526  0.2958
  225MOL0     C29579   7.698   8.295   2.331  0.2916  0.1861  1.1600
  225MOL0     C29580   7.555   8.256   2.306  0.5980 -0.3424  0.3371
  225MOL0     C29581   7.501   8.161   2.397 -0.2484  0.6189  0.5447
  225MOL0     C29582   7.383   8.071   2.333  0.2863 -0.0675 -0.5228
  225MOL0     C29583   7.268   8.155   2.279  1.0564  0.7727 -0.5061
  225MOL0     C29584   7.207   8.249   2.385 -0.1329  0.4567 -0.1800
  225MOL0     N29585   7.092   8.323   2.333  0.7538  0.1807  0.0289
  225MOL0     C29586   7.085   8.441   2.270  0.5464 -0.3745  0.1381
  225MOL0     C29587   6.954   8.470   2.245 -0.8099  0.6285  0.1585
  225MOL0     C29588   6.907   8.586   2.157  0.8301 -0.8443 -0.6172
  225MOL0     C29589   6.853   8.692   2.251  1.0121  0.0493 -0.1159
  225MOL0     C29590   6.821   8.834   2.196 -0.5197  0.8378  0.1918
  225MOL0     C29591   6.768   8.939   2.302 -0.1152  0.0186 -0.5203
  225MOL0     O29592   6.660   8.887   2.391  0.0737  0.6716  0.0056
  225MOL0     C29593   6.542   8.903   2.327 -0.0667 -0.5827 -0.7379
  225MOL0     C29594   6.489   8.786   2.269 -0.0624 -0.2841  0.2482
  225MOL0     C29595   6.359   8.787   2.223  0.2216  0.2059 -0.0302
  225MOL0     C29596   6.282   8.912   2.242 -0.4761 -0.4709  0.3414
  225MOL0     C29597   6.145   8.922   2.194 -0.1642 -0.3875 -0.3270
  225MOL0     O29598   6.071   9.014   2.265 -0.1571 -0.3661 -0.2570
  225MOL0     C29599   5.938   9.007   2.237  0.1246 -1.2534  0.3030
  225MOL0     C29600   5.855   8.902   2.272  0.6199 -0.9958 -0.2370
  225MOL0     C29601   5.720   8.894   2.244  0.3673 -0.3035 -0.2106
  225MOL0     C29602   5.660   8.994   2.175  0.2703  0.5220  0.3654
  225MOL0     O29603   5.528   8.996   2.159  0.4523 -0.0203 -0.3366
  225MOL0     C29604   5.443   8.967   2.273  0.0927  0.0933 -0.5938
  225MOL0     C29605   5.356   9.086   2.307  0.2031  0.8098 -0.6361
  225MOL0     C29606   5.440   9.185   2.385 -0.3928 -0.4536  0.5310
  225MOL0     C29607   5.367   9.320   2.361  0.3786 -0.1674  0.0689
  225MOL0     C29608   5.393   9.415   2.467 -0.3193 -0.2080  0.2205
  225MOL0     C29609   5.536   9.465   2.477  0.2672 -0.2825  0.1527
  225MOL0     C29610   5.553   9.527   2.615 -0.4338 -0.4079 -0.0486
  225MOL0     C29611   5.671   9.620   2.624 -0.7993 -0.1701  0.2225
  225MOL0    Cl29612   5.626   9.763   2.532 -0.4051 -0.3028  0.2103
  225MOL0     C29613   5.740   9.108   2.134  0.3701  0.2543  0.0955
  225MOL0     C29614   5.876   9.112   2.166 -0.5880  0.2647 -0.9133
  225MOL0     O29615   6.104   8.855   2.094 -0.3224 -0.8994 -0.3444
  225MOL0     C29616   6.342   9.028   2.295 -0.4142  0.4105 -0.4865
  225MOL0     C29617   6.472   9.024   2.344 -0.2425 -0.5153 -0.0971
  225MOL0     N29618   6.875   8.375   2.299 -0.6063 -0.1301  0.1364
  225MOL0     N29619   6.959   8.286   2.356 -0.3128 -0.5464  0.5338
  225MOL0     C29620   8.172   8.505   2.295 -0.3440 -0.5785 -0.8704
  225MOL0     C29621   8.310   8.518   2.290 -0.8241 -0.3927 -0.3932
  225MOL0     C29622   8.728   8.686   2.133  0.1948 -0.5097 -1.3616
  225MOL0     C29623   8.801   8.632   2.247 -0.2072  0.1948  0.1281
  225MOL0     C29624   8.935   8.622   2.240 -0.6934  0.8078  0.3379
  225MOL0     C29625   9.010   8.649   2.125 -0.1298  0.6038  0.4296
  225MOL0     O29626   9.145   8.618   2.142 -0.2055 -0.0150  0.1470
  225MOL0     C29627   9.233   8.642   2.032 -0.1884  0.2498 -0.0525
  225MOL0     C29628   9.383   8.643   2.074 -0.0474  0.3739 -0.3094
  225MOL0     C29629   9.406   8.749   2.179  0.0931 -0.1689  0.1124
  225MOL0     C29630   9.551   8.792   2.206  0.8767  0.7091 -0.3092
  225MOL0     C29631   9.558   8.906   2.296  0.2165 -1.0622 -0.4990
  225MOL0     C29632   9.566   8.993   2.384  0.6014  0.2531 -0.1895
  225MOL0     C29633   8.947   8.702   2.014  0.1063 -0.9275  0.0950
  225MOL0     C29634   8.805   8.728   2.019  0.4471 -0.2457  0.1822
  225MOL0     H29635   8.332   8.716   2.014  0.3556 -0.0811  0.1617
  225MOL0     H29636   8.072   8.687   2.033 -0.7704 -0.1131 -0.3921
  225MOL0     H29637   7.913   8.475   2.386  2.3775  1.7053 -1.1541
  225MOL0     H29638   7.941   8.353   2.261 -0.8334 -0.7183  1.4911
  225MOL0     H29639   7.726   8.418   2.150  1.3496 -2.2286  0.3300
  225MOL0     H29640   7.686   8.518   2.292  1.2334 -0.9666  1.8494
  225MOL0     H29641   7.712   8.306   2.439  0.4897  0.1532  1.1380
  225MOL0     H29642   7.764   8.212   2.301 -0.1402 -0.2082  1.2870
  225MOL0     H29643   7.498   8.349   2.313 -1.7514 -1.7416  0.7116
  225MOL0     H29644   7.560   8.232   2.199  1.1084 -0.0710  0.2944
  225MOL0     H29645   7.461   8.205   2.488 -0.6870 -2.0188  1.7274
  225MOL0     H29646   7.574   8.088   2.432 -1.9643 -0.7926  1.3058
  225MOL0     H29647   7.332   8.016   2.413 -0.0843 -1.1785 -1.4973
  225MOL0     H29648   7.424   7.993   2.267 -0.7620 -1.6402  0.6128
  225MOL0     H29649   7.309   8.216   2.197 -1.9474  1.6416 -1.4963
  225MOL0     H29650   7.195   8.085   2.236 -0.8145  0.2986  3.1076
  225MOL0     H29651   7.289   8.318   2.405 -0.4435  1.1194 -1.1308
  225MOL0     H29652   7.191   8.193   2.478 -0.7416  2.5325  1.0193
  225MOL0     H29653   7.166   8.502   2.230 -2.0457  2.1886 -1.6003
  225MOL0     H29654   6.829   8.542   2.094 -0.4013  0.0635  0.2419
  225MOL0     H29655   6.974   8.636   2.087 -0.4046  1.0359 -0.5344
  225MOL0     H29656   6.924   8.709   2.332  2.0264  0.0755 -0.9919
  225MOL0     H29657   6.761   8.649   2.292  0.6132  0.6712 -0.3451
  225MOL0     H29658   6.918   8.874   2.167  0.1107 -0.5109  0.3762
  225MOL0     H29659   6.759   8.837   2.106  0.6456  1.4048 -0.6131
  225MOL0     H29660   6.739   9.037   2.262  2.2290  1.1222  0.3250
  225MOL0     H29661   6.857   8.962   2.361  0.0900  0.5088 -1.0127
  225MOL0     H29662   6.544   8.694   2.254 -0.2551 -0.5289  1.0306
  225MOL0     H29663   6.311   8.700   2.181  0.3529 -1.8253  3.5948
  225MOL0     H29664   5.902   8.818   2.323 -0.9912 -1.1635  1.0808
  225MOL0     H29665   5.668   8.803   2.273 -0.3006  0.0651 -0.2144
  225MOL0     H29666   5.497   8.927   2.359 -0.4407 -0.4641 -0.5097
  225MOL0     H29667   5.384   8.878   2.248  0.4292 -0.4486  0.4904
  225MOL0     H29668   5.262   9.055   2.353  0.0135  0.3595 -1.3157
  225MOL0     H29669   5.321   9.131   2.213 -0.4401  0.0878 -0.7475
  225MOL0     H29670   5.546   9.183   2.357 -0.2399 -0.0686  1.0542
  225MOL0     H29671   5.437   9.160   2.492 -0.6820 -2.0981  0.1672
  225MOL0     H29672   5.393   9.361   2.263 -1.2734  0.3145 -0.2019
  225MOL0     H29673   5.259   9.300   2.365  0.3666 -0.1045  0.0518
  225MOL0     H29674   5.369   9.367   2.562 -1.9147 -0.2717 -0.1828
  225MOL0     H29675   5.316   9.491   2.451 -1.9664 -0.3786  5.5079
  225MOL0     H29676   5.550   9.539   2.397 -2.0472  0.1320  0.0592
  225MOL0     H29677   5.614   9.389   2.466  1.4205  0.9955 -0.8356
  225MOL0     H29678   5.461   9.579   2.645 -1.8436 -0.6923 -3.5147
  225MOL0     H29679   5.567   9.444   2.685 -0.2853 -0.5976 -0.3048
  225MOL0     H29680   5.760   9.573   2.581  0.5903 -1.1514  3.7954
  225MOL0     H29681   5.714   9.642   2.722  1.5773  1.1295 -1.0140
  225MOL0     H29682   5.697   9.177   2.062 -0.8989  0.9229  1.4253
  225MOL0     H29683   5.936   9.196   2.134  1.6925 -0.7555  0.4491
  225MOL0     H29684   6.292   9.123   2.306  3.3749  2.3717  2.6167
  225MOL0     H29685   6.525   9.105   2.393 -0.3231  0.3372 -1.3718
  225MOL0     H29686   8.127   8.445   2.373  3.5046 -3.8864 -0.8727
  225MOL0     H29687   8.374   8.461   2.356 -1.0699 -1.2365 -0.8686
  225MOL0     H29688   8.743   8.605   2.335  0.7353  3.0316  1.7324
  225MOL0     H29689   8.988   8.583   2.327 -4.4477  0.4613  2.7113
  225MOL0     H29690   9.214   8.737   1.981 -0.8914  0.6439  0.9107
  225MOL0     H29691   9.215   8.560   1.961  0.7351 -0.7050  0.7851
  225MOL0     H29692   9.415   8.546   2.115 -2.5992  0.6896  2.7831
  225MOL0     H29693   9.442   8.661   1.983 -0.7102  1.5672 -0.5165
  225MOL0     H29694   9.370   8.711   2.275  0.5074  0.2260  0.4302
  225MOL0     H29695   9.353   8.838   2.145  0.3856  0.1736  0.5396
  225MOL0     H29696   9.602   8.708   2.254 -1.2547 -2.4380 -3.1603
  225MOL0     H29697   9.600   8.822   2.113 -0.5282  0.0049 -1.3079
  225MOL0     H29698   9.582   9.066   2.460  1.5201 -1.0278  0.9111
  225MOL0     H29699   9.009   8.726   1.928  0.8995 -0.7749  0.6946
  225MOL0     H29700   8.757   8.758   1.926  0.9441 -0.8510 -0.2821
  226MOL0     O29701   0.816  11.114   6.207 -0.7577  0.5902  0.1576
  226MOL0     C29702   0.905  11.037   6.240 -0.1931  0.0702  0.0258
  226MOL0     O29703   0.891  10.924   6.316  0.2347 -0.1175  0.1666
  226MOL0     C29704   0.789  10.898   6.404  0.0958  0.7803  0.9143
  226MOL0     C29705   0.786  10.768   6.453  1.0318  0.7636 -0.0181
  226MOL0     C29706   0.688  10.730   6.548  0.6350 -0.0776 -0.1879
  226MOL0     C29707   0.604  10.832   6.605 -0.6365 -0.4997  0.7392
  226MOL0     O29708   0.529  10.785   6.713  0.1860  0.1042  0.3619
  226MOL0     C29709   0.413  10.864   6.731  0.2452 -0.4237 -0.7853
  226MOL0     C29710   0.304  10.855   6.629 -0.3513 -0.6247 -0.0211
  226MOL0     C29711   0.249  10.718   6.602 -0.5439 -0.1295 -0.7655
  226MOL0     C29712   0.183  10.652   6.728  0.1974  0.5324  0.8551
  226MOL0     C29713   0.127  10.505   6.702 -0.6533  0.0573 -0.7114
  226MOL0     C29714  -0.005  10.486   6.623  0.1441  0.3004 -0.2998
  226MOL0     C29715  -0.038  10.344   6.647 -0.7491  0.6817 -0.0099
  226MOL0     C29716  -0.147  10.288   6.554 -0.3124 -0.2827  0.0326
  226MOL0     N29717  -0.269  10.363   6.551 -0.6817  0.0396 -0.8235
  226MOL0     C29718  -0.379  10.328   6.627 -0.2787 -0.6509 -0.8405
  226MOL0     C29719  -0.478  10.401   6.576 -0.8662 -0.4454  0.1123
  226MOL0     C29720  -0.626  10.409   6.613 -0.3445 -0.0835 -0.2498
  226MOL0     C29721  -0.663  10.427   6.759 -1.0653  0.5044  0.1628
  226MOL0     C29722  -0.631  10.558   6.828  0.0076 -0.5524 -0.3138
  226MOL0     C29723  -0.479  10.604   6.836  0.3395  0.6719  0.1579
  226MOL0     O29724  -0.477  10.728   6.911 -0.5639 -0.3239 -0.2228
  226MOL0     C29725  -0.353  10.777   6.923  0.0734  0.2699  0.0244
  226MOL0     C29726  -0.337  10.910   6.961  0.3396 -0.1101  0.1818
  226MOL0     C29727  -0.208  10.958   6.990  0.1157 -0.6624  0.1665
  226MOL0     C29728  -0.088  10.885   6.972 -0.0954 -0.4428  0.5657
  226MOL0     C29729   0.041  10.935   7.019  0.2463 -0.1309  0.7386
  226MOL0     O29730   0.035  11.016   7.128 -0.0732 -0.1442 -0.2236
  226MOL0     C29731   0.149  11.077   7.183 -0.6793  0.8631 -0.2808
  226MOL0     C29732   0.156  11.095   7.322 -0.1219 -1.0939 -1.0913
  226MOL0     C29733   0.264  11.158   7.390  0.2275  0.2671  0.8421
  226MOL0     C29734   0.365  11.219   7.309 -0.6537  0.3843 -0.0353
  226MOL0     O29735   0.486  11.265   7.364  0.3213 -0.4010  0.6146
  226MOL0     C29736   0.583  11.162   7.377 -0.5282  0.4995 -0.5441
  226MOL0     C29737   0.680  11.193   7.488  0.5340 -0.2269 -0.3015
  226MOL0     C29738   0.823  11.139   7.467 -0.4576  0.0072  0.4099
  226MOL0     C29739   0.828  10.984   7.480  0.2857  1.0231  0.1755
  226MOL0     C29740   0.958  10.940   7.537 -0.3555  0.4177 -0.3025
  226MOL0     C29741   1.035  10.873   7.421  0.0682  1.2333 -0.4781
  226MOL0     C29742   1.073  10.959   7.311  0.0309 -0.1538 -0.4048
  226MOL0     C29743   1.170  10.887   7.218  0.1517  0.2646 -0.3020
  226MOL0    Cl29744   1.205  10.974   7.076  0.3703  0.1155 -0.3169
  226MOL0     C29745   0.354  11.206   7.172 -0.2812  0.4782 -0.5735
  226MOL0     C29746   0.260  11.137   7.108  0.3710 -0.0600  0.2260
  226MOL0     O29747   0.140  10.901   6.957 -0.4476 -0.1201  0.0357
  226MOL0     C29748  -0.109  10.753   6.927  0.4532 -0.3649  0.2312
  226MOL0     C29749  -0.233  10.700   6.898  0.0020  0.0326 -0.1095
  226MOL0     N29750  -0.429  10.468   6.467 -0.5912 -0.5034  0.7146
  226MOL0     N29751  -0.302  10.448   6.457  0.3082 -0.0869  0.2706
  226MOL0     C29752   0.617  10.961   6.561  0.2580  0.0651  0.1540
  226MOL0     C29753   0.707  10.990   6.459  1.3354  0.9581  0.3441
  226MOL0     C29754   1.044  11.048   6.183  0.6635 -0.3743 -0.2082
  226MOL0     C29755   1.100  11.174   6.161 -0.1940 -0.4640  0.0707
  226MOL0     C29756   1.228  11.180   6.096  0.2477 -0.4849 -1.5112
  226MOL0     C29757   1.312  11.061   6.088  0.9643 -0.9315  0.3672
  226MOL0     O29758   1.436  11.052   6.035  0.1404 -0.2510 -0.4082
  226MOL0     C29759   1.526  11.160   6.076 -0.3074  0.2617  0.3869
  226MOL0     C29760   1.670  11.115   6.056 -0.5043 -0.4697  0.7636
  226MOL0     C29761   1.738  11.069   6.178  0.3187  0.4404 -0.3436
  226MOL0     C29762   1.891  11.056   6.158 -0.3337  0.3438 -0.5992
  226MOL0     C29763   1.949  11.014   6.282 -0.5972  0.7891  0.1763
  226MOL0     C29764   1.997  10.962   6.382  0.3952  0.0989  0.3693
  226MOL0     C29765   1.262  10.938   6.122  0.4751 -0.3235 -0.4685
  226MOL0     C29766   1.127  10.926   6.166  0.4432  0.3675  1.1879
  226MOL0     H29767   0.857  10.701   6.405 -0.5343 -0.3912 -0.7899
  226MOL0     H29768   0.674  10.629   6.585 -2.6480  0.0553 -0.7840
  226MOL0     H29769   0.442  10.969   6.746 -4.2739  1.4220 -3.0452
  226MOL0     H29770   0.375  10.824   6.825 -1.7442  0.9475 -0.9603
  226MOL0     H29771   0.342  10.890   6.532  0.1270  0.3055  0.4866
  226MOL0     H29772   0.226  10.927   6.652 -0.1135  0.1574 -1.5550
  226MOL0     H29773   0.329  10.657   6.559 -1.0224 -0.2423 -1.5216
  226MOL0     H29774   0.167  10.729   6.531 -1.2622 -3.6857 -0.7095
  226MOL0     H29775   0.259  10.649   6.807  0.5662  1.9818  0.5837
  226MOL0     H29776   0.110  10.731   6.748  1.1944  1.4773  0.8192
  226MOL0     H29777   0.122  10.457   6.800 -1.2687  1.4163 -0.0513
  226MOL0     H29778   0.207  10.454   6.648  0.5923 -0.6645  1.6833
  226MOL0     H29779   0.003  10.510   6.517 -1.9627 -1.3513 -0.9032
  226MOL0     H29780  -0.079  10.553   6.668  0.3858 -0.3744  1.1448
  226MOL0     H29781   0.056  10.289   6.634 -1.3998 -0.1130 -1.5603
  226MOL0     H29782  -0.076  10.336   6.749  1.3681  0.1574  0.7983
  226MOL0     H29783  -0.174  10.191   6.598 -1.9842  0.3243  0.3994
  226MOL0     H29784  -0.116  10.278   6.449 -1.0834  1.7936 -0.4375
  226MOL0     H29785  -0.373  10.244   6.696  2.2876  0.4421  0.3947
  226MOL0     H29786  -0.672  10.318   6.574  0.7785  0.9275 -4.4027
  226MOL0     H29787  -0.679  10.489   6.561  2.9015  2.5549  0.1658
  226MOL0     H29788  -0.608  10.353   6.817 -1.9237  0.3747  0.8323
  226MOL0     H29789  -0.770  10.419   6.782 -1.0176  0.4734  0.3751
  226MOL0     H29790  -0.685  10.633   6.769 -0.0864  0.2225  0.7356
  226MOL0     H29791  -0.665  10.549   6.931  0.3329 -0.8674 -0.2319
  226MOL0     H29792  -0.450  10.627   6.733 -1.9102 -1.0478 -0.9477
  226MOL0     H29793  -0.415  10.528   6.881 -0.2372  0.5489  0.8118
  226MOL0     H29794  -0.417  10.983   6.963  0.4834  0.0872 -0.9165
  226MOL0     H29795  -0.205  11.060   7.027 -3.8699 -0.5288  0.5535
  226MOL0     H29796   0.074  11.064   7.386 -0.0921 -0.0977 -0.5586
  226MOL0     H29797   0.249  11.175   7.496 -1.6233 -0.7028  0.7822
  226MOL0     H29798   0.640  11.146   7.285  0.0695 -0.6711 -0.0009
  226MOL0     H29799   0.531  11.069   7.404 -1.3600  1.4484  1.3041
  226MOL0     H29800   0.643  11.164   7.587  0.8566  0.5097  0.0388
  226MOL0     H29801   0.690  11.302   7.488 -0.1141 -0.1647 -0.4421
  226MOL0     H29802   0.894  11.181   7.539  1.0364 -0.9267 -0.4712
  226MOL0     H29803   0.855  11.182   7.372 -0.8910  1.4243  0.8850
  226MOL0     H29804   0.749  10.949   7.548  1.5254 -1.7317  0.3072
  226MOL0     H29805   0.802  10.939   7.384 -0.1276  3.9778 -1.2195
  226MOL0     H29806   0.941  10.860   7.610  3.6571 -2.1961 -1.8766
  226MOL0     H29807   1.016  11.022   7.580 -1.2413  0.3355  1.1122
  226MOL0     H29808   0.969  10.799   7.375  0.8205  0.7523 -0.7997
  226MOL0     H29809   1.116  10.819   7.470 -2.0911  0.2517  2.2743
  226MOL0     H29810   0.984  10.987   7.253 -0.5619  1.7985  1.3322
  226MOL0     H29811   1.117  11.048   7.355 -0.3093  0.7072 -1.7453
  226MOL0     H29812   1.128  10.793   7.180 -3.6157  1.3721  0.7237
  226MOL0     H29813   1.267  10.868   7.266  0.2559 -0.2750 -0.7126
  226MOL0     H29814   0.431  11.248   7.107 -0.3139 -0.5922 -1.3508
  226MOL0     H29815   0.262  11.135   7.000  1.0698  1.0054  0.2002
  226MOL0     H29816  -0.022  10.688   6.935  3.9785  3.9481  1.0613
  226MOL0     H29817  -0.231  10.593   6.878 -0.6951 -0.0220  0.0741
  226MOL0     H29818   0.576  11.049   6.609 -0.7424  1.5354 -3.1150
  226MOL0     H29819   0.734  11.091   6.429  3.7952  0.9490  2.2610
  226MOL0     H29820   1.039  11.262   6.178 -2.2883 -1.9976  0.8842
  226MOL0     H29821   1.271  11.275   6.069 -1.5348  0.5486 -0.8697
  226MOL0     H29822   1.499  11.194   6.176 -0.0539  2.3274 -0.2107
  226MOL0     H29823   1.507  11.244   6.008  2.8665  1.6014  0.9849
  226MOL0     H29824   1.676  11.041   5.976 -1.0931  1.3746 -1.0777
  226MOL0     H29825   1.738  11.192   6.019  0.8040 -1.6314  0.6508
  226MOL0     H29826   1.693  10.976   6.213  0.5610  0.3787 -0.1895
  226MOL0     H29827   1.719  11.134   6.263 -2.8527 -2.4598  1.4198
  226MOL0     H29828   1.899  10.976   6.084 -2.1948 -1.5589  1.1282
  226MOL0     H29829   1.936  11.148   6.120 -0.8752  0.1654 -1.7190
  226MOL0     H29830   2.052  10.905   6.454  0.8038 -0.9112 -0.7014
  226MOL0     H29831   1.320  10.847   6.113 -3.0079 -2.6483 -1.8088
  226MOL0     H29832   1.088  10.829   6.197  3.5284 -1.3467  0.2050
  227MOL0     O29833   4.534   3.124   4.854 -0.4495 -0.2664  0.0440
  227MOL0     C29834   4.651   3.099   4.875 -0.4324 -0.0660 -0.3816
  227MOL0     O29835   4.696   3.047   4.991 -0.0218 -0.3203 -0.0374
  227MOL0     C29836   4.610   3.040   5.098 -0.1141 -0.2604 -0.1415
  227MOL0     C29837   4.622   3.122   5.213 -0.1163 -0.6405  0.2802
  227MOL0     C29838   4.545   3.095   5.332  1.1235 -0.2671  0.2379
  227MOL0     C29839   4.464   2.975   5.336  0.5561  0.1460  0.5330
  227MOL0     O29840   4.375   2.940   5.439 -0.0128 -0.0759 -0.4127
  227MOL0     C29841   4.420   2.971   5.577 -0.2568 -0.0388  1.1265
  227MOL0     C29842   4.336   2.909   5.683 -0.3101  0.8340 -0.4468
  227MOL0     C29843   4.191   2.941   5.678  0.6098 -0.6460 -0.6947
  227MOL0     C29844   4.104   2.832   5.607 -0.1510  0.1041 -0.0861
  227MOL0     C29845   3.969   2.880   5.566  0.2958 -0.0254 -0.1084
  227MOL0     C29846   3.883   2.762   5.505 -0.0985  0.3286  0.1198
  227MOL0     C29847   3.744   2.821   5.452 -0.3152  0.5288  0.0013
  227MOL0     C29848   3.668   2.711   5.373 -0.7056 -0.8742  0.2542
  227MOL0     N29849   3.607   2.622   5.469 -0.1552  0.8723  0.1253
  227MOL0     C29850   3.510   2.660   5.556  0.4665  0.1684 -0.2993
  227MOL0     C29851   3.495   2.561   5.649 -0.3763 -0.1659 -0.1481
  227MOL0     C29852   3.404   2.553   5.777 -1.6630 -0.4877  0.7790
  227MOL0     C29853   3.264   2.503   5.735 -0.8632  0.2619 -0.3682
  227MOL0     C29854   3.170   2.518   5.850  0.6436  0.3654  0.0496
  227MOL0     C29855   3.036   2.437   5.823 -0.0743 -0.8460  0.3391
  227MOL0     O29856   2.983   2.424   5.956 -0.4068 -0.3900 -0.5044
  227MOL0     C29857   2.852   2.402   5.971  0.0452  0.2424  0.2251
  227MOL0     C29858   2.770   2.325   5.889  0.3560  0.3620 -0.3597
  227MOL0     C29859   2.635   2.297   5.923 -0.3943 -0.4549 -0.1928
  227MOL0     C29860   2.580   2.359   6.032  0.0474  0.3029  0.9759
  227MOL0     C29861   2.442   2.341   6.049  0.7930  0.1983  0.4015
  227MOL0     O29862   2.373   2.286   5.943 -0.2933  0.1140  0.5127
  227MOL0     C29863   2.244   2.246   5.946 -0.2543 -0.0166 -0.0754
  227MOL0     C29864   2.173   2.217   6.068 -0.2975 -0.5188 -1.2205
  227MOL0     C29865   2.044   2.156   6.074 -1.0137 -0.0800 -0.2515
  227MOL0     C29866   1.971   2.140   5.955  0.4641  0.9781  0.9486
  227MOL0     O29867   1.848   2.082   5.933  0.3902  0.2078 -0.2370
  227MOL0     C29868   1.757   2.066   6.037 -0.0197 -0.4712 -0.9530
  227MOL0     C29869   1.621   2.020   5.987  0.6249  0.2377 -0.5796
  227MOL0     C29870   1.617   1.875   5.961 -0.3120  0.2226  0.2948
  227MOL0     C29871   1.475   1.831   5.945  0.6302 -0.9530  0.2637
  227MOL0     C29872   1.469   1.684   5.940  0.8037  0.4409 -0.3406
  227MOL0     C29873   1.321   1.645   5.919  0.0367 -0.0012 -0.4591
  227MOL0     C29874   1.290   1.495   5.961  0.0740 -0.3992  0.1511
  227MOL0     C29875   1.152   1.455   5.932  0.5034 -0.6221  0.1862
  227MOL0    Cl29876   1.034   1.520   6.061 -0.1646  0.3711  0.1755
  227MOL0     C29877   2.042   2.171   5.834  0.5410  0.6106 -0.5041
  227MOL0     C29878   2.169   2.210   5.831 -1.0469 -0.0887 -0.0838
  227MOL0     O29879   2.382   2.388   6.148 -1.0456  0.5442 -0.1016
  227MOL0     C29880   2.660   2.442   6.120 -0.5684  0.1498 -0.4029
  227MOL0     C29881   2.795   2.447   6.090 -0.9875  0.0513 -0.3481
  227MOL0     N29882   3.587   2.454   5.612 -0.4836  0.3683 -0.3427
  227MOL0     N29883   3.655   2.500   5.504  0.4169  0.2243  0.1723
  227MOL0     C29884   4.456   2.900   5.222 -0.2495 -0.4089  0.3550
  227MOL0     C29885   4.523   2.933   5.098 -0.0187 -0.2494 -0.5077
  227MOL0     C29886   4.755   3.149   4.776  0.4172  0.5850 -0.2691
  227MOL0     C29887   4.724   3.214   4.659 -0.3353 -0.4436  0.4351
  227MOL0     C29888   4.819   3.257   4.569  0.4915 -1.1330 -0.2531
  227MOL0     C29889   4.954   3.249   4.600 -0.0326  0.3506 -0.1134
  227MOL0     O29890   5.044   3.308   4.520  0.0430  0.2681  0.3439
  227MOL0     C29891   5.190   3.282   4.537 -0.1226 -0.1876 -0.3765
  227MOL0     C29892   5.271   3.341   4.424  0.8266  0.0850 -0.1664
  227MOL0     C29893   5.234   3.279   4.291 -0.2996 -0.2992  0.1479
  227MOL0     C29894   5.351   3.277   4.193  0.2624 -0.0566  0.1992
  227MOL0     C29895   5.375   3.417   4.147  0.0379  0.3412  0.6646
  227MOL0     C29896   5.399   3.533   4.110 -0.3168  0.4759 -0.6153
  227MOL0     C29897   4.990   3.192   4.725  0.3521 -0.1752 -0.8157
  227MOL0     C29898   4.888   3.145   4.811  0.5333 -0.3971 -0.4564
  227MOL0     H29899   4.685   3.211   5.206 -1.2873  0.5052  3.0182
  227MOL0     H29900   4.555   3.157   5.420  5.0543 -0.2274 -0.0296
  227MOL0     H29901   4.414   3.079   5.591  1.1224  0.6505 -2.5019
  227MOL0     H29902   4.525   2.940   5.572 -0.2897 -0.0325  0.2407
  227MOL0     H29903   4.377   2.930   5.782 -1.7822 -0.2999  0.4468
  227MOL0     H29904   4.357   2.803   5.672  1.1798  0.9311  1.1017
  227MOL0     H29905   4.173   3.032   5.620 -2.0746 -1.2616 -0.9642
  227MOL0     H29906   4.167   2.950   5.784  0.4102 -1.1203 -0.6989
  227MOL0     H29907   4.144   2.793   5.513  0.2125  1.9758 -0.7542
  227MOL0     H29908   4.090   2.749   5.677 -0.3185  0.8977  0.8532
  227MOL0     H29909   3.965   2.970   5.504  0.2352  1.1351  1.5012
  227MOL0     H29910   3.924   2.908   5.662  1.0905 -0.9093  0.5397
  227MOL0     H29911   3.867   2.685   5.581  0.1545  1.7781  1.7045
  227MOL0     H29912   3.936   2.727   5.416 -0.3386  1.3684 -0.4417
  227MOL0     H29913   3.696   2.862   5.541 -1.5028  2.9573 -1.6317
  227MOL0     H29914   3.767   2.902   5.381  2.7010 -3.1103 -3.6663
  227MOL0     H29915   3.725   2.652   5.301 -0.0778 -0.9471  0.8037
  227MOL0     H29916   3.596   2.766   5.311 -1.0408 -1.0692  0.4697
  227MOL0     H29917   3.455   2.753   5.548  0.9258  0.6408  1.6282
  227MOL0     H29918   3.406   2.654   5.821  2.5298  0.2802 -0.6710
  227MOL0     H29919   3.453   2.492   5.853  1.9055  0.4944 -0.5123
  227MOL0     H29920   3.270   2.395   5.721 -1.6328 -0.0290  1.2633
  227MOL0     H29921   3.230   2.557   5.646  2.0138  0.8033 -1.2491
  227MOL0     H29922   3.204   2.464   5.939 -1.5271 -0.8044  0.2467
  227MOL0     H29923   3.150   2.620   5.882  0.9946  0.2296  0.7146
  227MOL0     H29924   3.053   2.340   5.777  1.2032 -1.2677  1.6147
  227MOL0     H29925   2.980   2.501   5.754  1.1208 -0.8970 -0.7120
  227MOL0     H29926   2.816   2.288   5.798  1.6563  1.6812 -0.2816
  227MOL0     H29927   2.579   2.240   5.850  1.7551  0.1135 -2.4138
  227MOL0     H29928   2.220   2.233   6.164  0.8185  0.9819 -1.9876
  227MOL0     H29929   1.998   2.119   6.165  0.6265  1.2968  1.2105
  227MOL0     H29930   1.741   2.165   6.081 -1.1432 -1.3445  0.7271
  227MOL0     H29931   1.801   1.995   6.108 -1.1798  0.5690  0.8934
  227MOL0     H29932   1.594   2.085   5.904 -2.3872  1.3413  1.1048
  227MOL0     H29933   1.545   2.042   6.063 -0.5831  0.5228 -1.8460
  227MOL0     H29934   1.673   1.817   6.035  4.1941  2.7674 -0.7510
  227MOL0     H29935   1.675   1.860   5.870  0.7505 -0.8639  1.1221
  227MOL0     H29936   1.418   1.866   6.031  0.0496  0.4972 -0.6610
  227MOL0     H29937   1.435   1.872   5.852  3.0104 -1.0968 -0.9186
  227MOL0     H29938   1.498   1.651   6.040 -3.1024  1.6466  1.3957
  227MOL0     H29939   1.533   1.648   5.859  0.0632  0.5669 -0.9913
  227MOL0     H29940   1.320   1.648   5.809  0.3741  0.8074 -0.4484
  227MOL0     H29941   1.263   1.721   5.972  0.7188 -0.7135  1.3799
  227MOL0     H29942   1.358   1.429   5.906 -2.1269 -0.7277 -2.4095
  227MOL0     H29943   1.311   1.481   6.067  0.3549 -3.1283 -0.1921
  227MOL0     H29944   1.144   1.346   5.944  2.0435 -0.5811  1.9413
  227MOL0     H29945   1.123   1.463   5.827 -0.3270  0.8522  0.4929
  227MOL0     H29946   2.007   2.149   5.734  2.7656  0.1647 -1.2442
  227MOL0     H29947   2.227   2.221   5.739 -0.2037 -1.0596  0.3005
  227MOL0     H29948   2.611   2.490   6.205 -1.6367  0.2133 -1.0346
  227MOL0     H29949   2.864   2.491   6.162  0.1071 -1.7516 -0.2209
  227MOL0     H29950   4.401   2.807   5.224  0.3013 -0.8573 -2.3427
  227MOL0     H29951   4.505   2.862   5.017  0.8801 -0.4475 -0.5438
  227MOL0     H29952   4.620   3.217   4.629 -0.2516 -0.3565  0.1487
  227MOL0     H29953   4.794   3.317   4.482  4.5464  0.2242 -0.7310
  227MOL0     H29954   5.212   3.176   4.552 -0.9436 -0.2067  0.7661
  227MOL0     H29955   5.222   3.331   4.629  2.1633  1.2298 -1.7931
  227MOL0     H29956   5.253   3.448   4.417  0.9806  0.2328  1.3213
  227MOL0     H29957   5.373   3.317   4.457  0.5463  0.3630  0.9369
  227MOL0     H29958   5.144   3.318   4.243  0.1257 -2.6311 -2.8558
  227MOL0     H29959   5.211   3.177   4.323  2.4400 -1.0285  0.0229
  227MOL0     H29960   5.437   3.234   4.245  1.6982  1.3845 -0.9014
  227MOL0     H29961   5.314   3.217   4.109  0.3461  0.5610 -0.2871
  227MOL0     H29962   5.439   3.628   4.081  0.4708  0.8864  1.6319
  227MOL0     H29963   5.093   3.185   4.759 -0.5230 -0.2555  2.0161
  227MOL0     H29964   4.923   3.100   4.904  0.5808 -0.3262 -0.4398
  228MOL0     O29965   0.595   8.613   6.906  0.4147 -0.4996 -0.6954
  228MOL0     C29966   0.549   8.508   6.942 -0.3055  0.6725 -0.6476
  228MOL0     O29967   0.421   8.474   6.957  0.4080 -0.0913 -0.4072
  228MOL0     C29968   0.322   8.567   6.924  0.6744 -0.9042  0.2635
  228MOL0     C29969   0.334   8.653   6.808 -0.7335  0.5726 -0.3833
  228MOL0     C29970   0.221   8.728   6.771 -0.0504 -0.4557 -0.0079
  228MOL0     C29971   0.100   8.715   6.847 -0.2310  0.0452  0.1508
  228MOL0     O29972  -0.016   8.765   6.811  0.5758  0.6644  0.0254
  228MOL0     C29973  -0.016   8.881   6.720  0.3687 -0.2068 -0.1447
  228MOL0     C29974  -0.160   8.929   6.725 -0.2274  0.3466  0.0421
  228MOL0     C29975  -0.183   9.026   6.612 -0.9857 -0.5191 -0.1783
  228MOL0     C29976  -0.071   9.134   6.609 -0.5254 -0.4901 -0.5888
  228MOL0     C29977  -0.108   9.241   6.507  0.5239 -0.0536 -0.1977
  228MOL0     C29978  -0.197   9.349   6.560  0.1609 -0.7646 -0.1933
  228MOL0     C29979  -0.135   9.427   6.675  0.1120 -0.5954  0.3012
  228MOL0     C29980  -0.205   9.556   6.719  0.9001 -0.2679  0.4291
  228MOL0     N29981  -0.232   9.655   6.608  0.3296  0.4125 -0.3829
  228MOL0     C29982  -0.157   9.754   6.555  0.3899  0.9607  0.1020
  228MOL0     C29983  -0.237   9.818   6.459 -0.7614 -0.4511 -0.7480
  228MOL0     C29984  -0.207   9.937   6.381 -1.2854 -0.2992  1.3256
  228MOL0     C29985  -0.135   9.905   6.243 -0.5251  0.9308  0.2872
  228MOL0     C29986  -0.086  10.036   6.188 -0.4378 -0.7564 -0.2803
  228MOL0     C29987  -0.208  10.132   6.152  0.1112  0.1825 -1.0834
  228MOL0     O29988  -0.313  10.063   6.078 -0.2922  0.4075 -1.0002
  228MOL0     C29989  -0.435  10.121   6.089  0.6340  0.4809  0.2070
  228MOL0     C29990  -0.469  10.248   6.142 -0.7887  0.3636 -0.1080
  228MOL0     C29991  -0.595  10.283   6.154 -0.7082 -0.3166 -0.1875
  228MOL0     C29992  -0.706  10.212   6.106  0.9889 -0.4917 -0.5427
  228MOL0     C29993  -0.836  10.279   6.111 -0.1783  0.6910 -0.5583
  228MOL0     O29994  -0.903  10.255   5.998 -0.7052 -0.1442  0.3047
  228MOL0     C29995  -1.032  10.309   5.989 -0.1868  0.0761 -0.1551
  228MOL0     C29996  -1.081  10.432   6.034  0.1693 -0.3163  0.2634
  228MOL0     C29997  -1.212  10.485   6.025  0.6282  1.0940 -0.1922
  228MOL0     C29998  -1.287  10.414   5.941  1.0601 -0.4530  0.9582
  228MOL0     O29999  -1.414  10.458   5.906 -0.4715 -0.5330  0.1846
  228MOL0     C30000  -1.519  10.375   5.854 -0.0395  0.4171 -0.4698
  228MOL0     C30001  -1.653  10.439   5.880 -0.6980  0.7054 -0.9607
  228MOL0     C30002  -1.763  10.341   5.825 -0.2004 -0.3796 -0.3353
  228MOL0     C30003  -1.898  10.408   5.834 -0.1834  0.3080  0.3344
  228MOL0     C30004  -2.018  10.320   5.795  0.1762 -0.1018 -0.3998
  228MOL0     C30005  -2.151  10.406   5.784  0.1832  0.4659 -0.2844
  228MOL0     C30006  -2.275  10.319   5.738  0.0052  0.1362  1.2273
  228MOL0     C30007  -2.345  10.241   5.857 -0.3379  0.0623 -0.2862
  228MOL0    Cl30008  -2.422  10.111   5.778  0.5367  0.0544 -0.0412
  228MOL0     C30009  -1.242  10.294   5.892 -0.4637 -0.4548  0.2696
  228MOL0     C30010  -1.119  10.236   5.922 -0.0542  0.3804  0.5528
  228MOL0     O30011  -0.864  10.355   6.202  0.4560 -0.6980  0.3330
  228MOL0     C30012  -0.673  10.090   6.042  0.2741 -0.4045 -0.5490
  228MOL0     C30013  -0.546  10.047   6.038  0.2367 -1.1146  0.1305
  228MOL0     N30014  -0.358   9.751   6.461  0.5568  0.3211 -0.3356
  228MOL0     N30015  -0.354   9.653   6.548 -0.7068  0.5441  0.4357
  228MOL0     C30016   0.100   8.635   6.960  0.1121 -0.3409 -0.1954
  228MOL0     C30017   0.205   8.559   6.993 -0.8913 -0.0771 -0.3279
  228MOL0     C30018   0.639   8.394   6.940  0.2010 -0.6310  0.3490
  228MOL0     C30019   0.598   8.266   6.926  0.9134  0.1328 -0.1374
  228MOL0     C30020   0.680   8.154   6.931  0.4605 -0.0918  0.4855
  228MOL0     C30021   0.815   8.171   6.965  0.1586 -0.1239  0.5785
  228MOL0     O30022   0.887   8.053   6.961  0.0748  0.7686 -0.1311
  228MOL0     C30023   1.033   8.055   6.951  0.2932  0.2694 -0.1630
  228MOL0     C30024   1.074   7.934   6.873 -0.5992 -0.6813 -0.7706
  228MOL0     C30025   1.056   7.945   6.718  0.8326  0.2013  0.3836
  228MOL0     C30026   1.085   7.806   6.642 -0.3480  0.2036 -0.3150
  228MOL0     C30027   1.230   7.796   6.608 -0.1091 -0.1018 -0.0855
  228MOL0     C30028   1.335   7.815   6.552 -0.0734 -0.4285 -0.0696
  228MOL0     C30029   0.860   8.300   6.993  0.0196 -0.0978  0.3984
  228MOL0     C30030   0.775   8.415   6.984  0.1724  0.1498  0.2408
  228MOL0     H30031   0.422   8.647   6.744 -0.5928 -3.0865 -0.0578
  228MOL0     H30032   0.214   8.782   6.677 -0.6115 -1.7732 -0.7624
  228MOL0     H30033   0.019   8.859   6.619 -1.5798 -5.2341 -0.0324
  228MOL0     H30034   0.044   8.960   6.767 -3.0215  2.4105  0.1347
  228MOL0     H30035  -0.177   8.981   6.820  0.8916 -1.5546  1.3417
  228MOL0     H30036  -0.224   8.842   6.715 -0.0454  0.3701 -1.6230
  228MOL0     H30037  -0.284   9.067   6.617 -0.2891  1.2160  0.6726
  228MOL0     H30038  -0.169   8.978   6.515 -1.2080 -0.2040 -0.3645
  228MOL0     H30039  -0.042   9.173   6.707  0.8889 -1.3659 -0.6276
  228MOL0     H30040   0.018   9.093   6.560 -2.1317 -0.4080 -3.8006
  228MOL0     H30041  -0.163   9.192   6.426  0.0806 -0.7347  0.4978
  228MOL0     H30042  -0.017   9.288   6.470  1.8395 -1.4524  1.0960
  228MOL0     H30043  -0.292   9.301   6.587  0.6179 -1.3026  0.4801
  228MOL0     H30044  -0.212   9.409   6.470 -1.3195 -0.5048  0.1951
  228MOL0     H30045  -0.121   9.357   6.759  3.1905  0.1162  0.5086
  228MOL0     H30046  -0.037   9.459   6.641  0.3949 -2.2730 -0.5950
  228MOL0     H30047  -0.149   9.605   6.799  2.7156 -3.5359  1.3058
  228MOL0     H30048  -0.301   9.532   6.765  0.2477  0.0769 -0.6970
  228MOL0     H30049  -0.058   9.785   6.589  0.6517  0.5606 -0.2764
  228MOL0     H30050  -0.157  10.010   6.445 -0.2679 -0.5812  0.8763
  228MOL0     H30051  -0.302   9.990   6.368 -1.3625 -0.5486  0.8319
  228MOL0     H30052  -0.201   9.858   6.170  1.1900 -0.6675 -0.3213
  228MOL0     H30053  -0.050   9.837   6.260 -0.3284  0.4497 -2.2041
  228MOL0     H30054  -0.010  10.084   6.250 -0.2864  0.4975 -1.3722
  228MOL0     H30055  -0.033  10.021   6.094  0.4616 -2.4302  0.4597
  228MOL0     H30056  -0.180  10.225   6.101 -0.5373 -0.0979 -1.9604
  228MOL0     H30057  -0.242  10.168   6.250 -0.7363  2.4277 -2.1305
  228MOL0     H30058  -0.392  10.314   6.181 -0.6522  0.0112  0.2251
  228MOL0     H30059  -0.604  10.384   6.193  0.3504 -0.4119  0.3306
  228MOL0     H30060  -1.022  10.496   6.099  2.0203  0.1836 -1.7863
  228MOL0     H30061  -1.240  10.579   6.070 -1.2054 -0.0067  1.0958
  228MOL0     H30062  -1.522  10.274   5.897 -2.4078  0.3755 -0.6102
  228MOL0     H30063  -1.513  10.360   5.745 -3.0258 -2.0707 -0.4310
  228MOL0     H30064  -1.659  10.541   5.841  1.2482  1.3485  0.2525
  228MOL0     H30065  -1.661  10.434   5.989 -0.4009 -2.0931 -0.9865
  228MOL0     H30066  -1.760  10.258   5.895  1.9650 -1.1158 -1.2077
  228MOL0     H30067  -1.751  10.307   5.722  1.7898  1.0255 -0.6214
  228MOL0     H30068  -1.926  10.443   5.933 -2.3680  0.5838 -0.3291
  228MOL0     H30069  -1.890  10.496   5.769  3.2552 -0.1891 -0.1418
  228MOL0     H30070  -2.030  10.240   5.869  0.7103 -0.5164 -0.7612
  228MOL0     H30071  -1.991  10.275   5.699 -0.2061 -1.5045  0.1139
  228MOL0     H30072  -2.134  10.481   5.707 -1.0093 -1.5849 -2.7120
  228MOL0     H30073  -2.177  10.446   5.883 -1.0529  0.0193 -0.4007
  228MOL0     H30074  -2.358  10.382   5.703 -0.3680 -1.8574 -1.8738
  228MOL0     H30075  -2.251  10.252   5.655  2.5073  2.1490  0.1665
  228MOL0     H30076  -2.419  10.297   5.915 -1.1966 -0.7963 -0.5273
  228MOL0     H30077  -2.270  10.200   5.924 -1.9474 -1.6565  0.5453
  228MOL0     H30078  -1.306  10.260   5.810 -0.8042 -0.2852  0.4615
  228MOL0     H30079  -1.092  10.146   5.867 -1.7830  0.0145  0.2221
  228MOL0     H30080  -0.760  10.033   6.010 -0.6986  1.2901 -1.0347
  228MOL0     H30081  -0.533   9.946   5.999 -1.1730 -2.6460  3.2500
  228MOL0     H30082   0.011   8.601   7.013  2.1154 -0.4014  3.4567
  228MOL0     H30083   0.190   8.483   7.069 -0.3895  2.0279  2.0046
  228MOL0     H30084   0.495   8.253   6.894  1.1097 -1.1424 -0.3141
  228MOL0     H30085   0.634   8.057   6.917  0.0660 -0.2963  2.7687
  228MOL0     H30086   1.071   8.049   7.053  0.9157 -0.0468 -0.4102
  228MOL0     H30087   1.077   8.144   6.905  0.4971  0.3915  0.2639
  228MOL0     H30088   1.177   7.913   6.900 -1.4784 -2.1779  1.7861
  228MOL0     H30089   1.020   7.847   6.913 -1.5410  0.2725  0.0830
  228MOL0     H30090   1.123   8.018   6.672 -1.2220  2.6557  1.0311
  228MOL0     H30091   0.957   7.988   6.700  1.4332  0.1596 -3.8093
  228MOL0     H30092   1.060   7.726   6.712  0.8282 -0.6089 -0.8019
  228MOL0     H30093   1.023   7.783   6.555 -0.4165 -2.2853  0.3275
  228MOL0     H30094   1.431   7.828   6.508 -0.4056 -2.0384 -1.3607
  228MOL0     H30095   0.965   8.313   7.017  0.2710  1.4959 -1.3280
  228MOL0     H30096   0.814   8.515   7.001 -2.2548  2.1524 -4.3329
  229MOL0     O30097   6.917   5.931   0.576 -0.3671  0.2611  0.0747
  229MOL0     C30098   7.004   5.965   0.655  0.7070 -0.1299 -0.2373
  229MOL0     O30099   7.002   6.089   0.723  0.6820 -0.4119 -0.5567
  229MOL0     C30100   6.871   6.142   0.736 -0.6931 -0.9571 -0.0404
  229MOL0     C30101   6.798   6.134   0.860 -0.5299  0.2256  1.6286
  229MOL0     C30102   6.670   6.189   0.861 -0.4118 -1.0849 -0.5304
  229MOL0     C30103   6.623   6.272   0.752  0.5299  0.0288 -0.3765
  229MOL0     O30104   6.504   6.336   0.767  0.0949  0.0245  0.5851
  229MOL0     C30105   6.487   6.460   0.694 -0.0661 -0.3860  0.3374
  229MOL0     C30106   6.349   6.513   0.749 -0.2703  0.0386 -0.8898
  229MOL0     C30107   6.248   6.467   0.645  0.4259  0.3811 -0.6119
  229MOL0     C30108   6.105   6.514   0.671 -0.3634 -0.0949 -0.0158
  229MOL0     C30109   6.005   6.502   0.560  0.6935  0.2160 -0.1508
  229MOL0     C30110   5.996   6.359   0.509  0.6340 -0.1404 -0.5799
  229MOL0     C30111   5.889   6.331   0.400 -0.9686  0.1877  0.2587
  229MOL0     C30112   5.850   6.186   0.393  0.8509  0.2416  0.4474
  229MOL0     N30113   5.721   6.173   0.312  0.0903  0.6165  0.9403
  229MOL0     C30114   5.593   6.224   0.334  0.5394  0.3625 -0.1937
  229MOL0     C30115   5.522   6.178   0.224  0.5780  0.1885 -0.6400
  229MOL0     C30116   5.381   6.211   0.206  0.3954  0.2532 -1.1569
  229MOL0     C30117   5.274   6.114   0.248  0.1967  0.5464 -0.1445
  229MOL0     C30118   5.285   6.083   0.395  0.1113  0.2798  0.3156
  229MOL0     C30119   5.172   5.996   0.427 -0.0240 -0.7258 -0.6005
  229MOL0     O30120   5.053   6.080   0.453 -0.3736  0.9255  0.2356
  229MOL0     C30121   4.944   6.037   0.391 -0.7082 -0.6120  0.5208
  229MOL0     C30122   4.937   6.006   0.259 -0.1209 -0.3140 -0.5737
  229MOL0     C30123   4.807   5.969   0.205  0.3873 -0.8491  0.4216
  229MOL0     C30124   4.691   5.967   0.288  0.4118  0.4470  0.4550
  229MOL0     C30125   4.556   5.944   0.221  0.0581 -0.6979 -0.3433
  229MOL0     O30126   4.446   5.981   0.290 -0.1574  0.6153  0.3889
  229MOL0     C30127   4.323   5.979   0.227  0.6218  0.3670  0.2653
  229MOL0     C30128   4.295   5.969   0.091  0.2264 -0.6819 -0.0285
  229MOL0     C30129   4.166   5.991   0.042 -0.6929  0.8016 -0.1007
  229MOL0     C30130   4.061   6.011   0.133  0.4380  0.2563 -0.5818
  229MOL0     O30131   3.932   6.001   0.080  0.0665 -0.0155 -0.7224
  229MOL0     C30132   3.818   5.999   0.167 -0.4724 -0.3302  0.2300
  229MOL0     C30133   3.692   6.033   0.084  0.3695  0.2974 -0.3900
  229MOL0     C30134   3.569   6.037   0.179  0.3656 -1.2137  0.8979
  229MOL0     C30135   3.432   6.045   0.103 -0.3267 -0.4458 -0.1583
  229MOL0     C30136   3.308   6.027   0.191  0.4019  0.0102  0.9934
  229MOL0     C30137   3.304   6.131   0.301 -0.1520  1.1366 -0.2084
  229MOL0     C30138   3.171   6.162   0.359  0.7379 -0.9254 -0.3473
  229MOL0     C30139   3.179   6.254   0.478  0.7251  0.1344 -0.4333
  229MOL0    Cl30140   3.227   6.168   0.619 -0.1055 -0.5198  0.0212
  229MOL0     C30141   4.090   6.003   0.268  0.4271  0.1677  0.1654
  229MOL0     C30142   4.218   5.987   0.318  0.8316 -0.2196  0.3511
  229MOL0     O30143   4.559   5.891   0.110  0.1577  0.0995 -0.4553
  229MOL0     C30144   4.704   6.004   0.422 -0.9268  0.0730 -0.8358
  229MOL0     C30145   4.832   6.033   0.474  0.4110 -0.1513  0.8152
  229MOL0     N30146   5.604   6.102   0.147  0.2956 -0.7178  0.0572
  229MOL0     N30147   5.720   6.104   0.195  0.4944 -0.3843 -0.8019
  229MOL0     C30148   6.702   6.281   0.640  0.7895  0.1945 -0.0860
  229MOL0     C30149   6.811   6.209   0.631  0.0665  0.6485 -0.9182
  229MOL0     C30150   7.127   5.886   0.658 -0.2137 -0.0640 -0.9925
  229MOL0     C30151   7.152   5.784   0.566  0.0233 -0.3520 -0.6099
  229MOL0     C30152   7.271   5.713   0.566  0.6451  0.1891  0.1279
  229MOL0     C30153   7.370   5.739   0.667  0.2606 -0.3202  0.7594
  229MOL0     O30154   7.489   5.673   0.664  0.0716  0.1931  0.6231
  229MOL0     C30155   7.584   5.691   0.773  0.4883 -0.1467  0.7641
  229MOL0     C30156   7.702   5.608   0.741  0.0298 -0.3530 -0.9419
  229MOL0     C30157   7.670   5.458   0.757  0.6595 -0.1764 -0.3400
  229MOL0     C30158   7.765   5.378   0.678  0.1774 -0.1502 -0.0647
  229MOL0     C30159   7.897   5.376   0.739 -0.3066  0.4465  0.2698
  229MOL0     C30160   8.007   5.388   0.786 -0.0913 -0.1156  0.3161
  229MOL0     C30161   7.347   5.849   0.751 -0.1101 -0.3039 -0.4118
  229MOL0     C30162   7.229   5.919   0.751 -0.6465 -0.1080  0.3345
  229MOL0     H30163   6.839   6.112   0.959  0.1783  1.7812  1.7160
  229MOL0     H30164   6.612   6.188   0.953 -0.3772 -0.8344 -0.5037
  229MOL0     H30165   6.486   6.432   0.589  1.4416 -0.7781  0.4074
  229MOL0     H30166   6.564   6.534   0.718 -0.2172 -0.0563 -0.1892
  229MOL0     H30167   6.344   6.623   0.754  0.4721  0.0336  0.2653
  229MOL0     H30168   6.327   6.464   0.844  1.1058 -3.1956 -2.1018
  229MOL0     H30169   6.249   6.358   0.652 -1.7742  0.3752  0.2538
  229MOL0     H30170   6.278   6.492   0.543 -0.5644 -1.5327 -1.4275
  229MOL0     H30171   6.081   6.463   0.764 -0.9752  0.4369  0.1275
  229MOL0     H30172   6.106   6.621   0.696  0.3403  0.3146 -1.6608
  229MOL0     H30173   6.023   6.569   0.476  2.4365 -1.0391 -0.8571
  229MOL0     H30174   5.910   6.529   0.607 -0.5187  0.0640 -2.3581
  229MOL0     H30175   5.978   6.295   0.596 -2.8675  1.0429 -0.2685
  229MOL0     H30176   6.091   6.335   0.460 -0.5747 -2.2970 -2.0492
  229MOL0     H30177   5.801   6.393   0.423  0.3272  2.2620 -0.0924
  229MOL0     H30178   5.922   6.355   0.298 -0.7596  2.6984  0.8524
  229MOL0     H30179   5.828   6.146   0.492 -0.4116 -1.2036 -0.3605
  229MOL0     H30180   5.927   6.124   0.347  0.7442 -1.0443  1.9215
  229MOL0     H30181   5.562   6.293   0.412 -0.6505  0.1285 -0.4364
  229MOL0     H30182   5.348   6.231   0.104 -4.4862 -2.5327 -0.4366
  229MOL0     H30183   5.366   6.307   0.257 -0.7560 -0.8040  0.6313
  229MOL0     H30184   5.280   6.018   0.196 -3.6494 -0.4866  0.9950
  229MOL0     H30185   5.178   6.162   0.225  0.2184  1.4296  1.4493
  229MOL0     H30186   5.374   6.020   0.401 -0.0672 -0.0194 -0.1115
  229MOL0     H30187   5.287   6.169   0.463 -1.8950 -2.8594  4.8348
  229MOL0     H30188   5.189   5.949   0.524  0.3412  1.6850  0.5760
  229MOL0     H30189   5.156   5.916   0.354 -1.1730 -2.1971  1.1720
  229MOL0     H30190   5.026   6.021   0.198 -0.2609  0.1509 -0.6689
  229MOL0     H30191   4.797   5.948   0.099 -1.5240 -0.2447  0.4349
  229MOL0     H30192   4.369   5.957   0.012  0.2578  3.3931 -0.8812
  229MOL0     H30193   4.147   5.988  -0.065  1.3075  0.2271 -0.4837
  229MOL0     H30194   3.825   6.078   0.243  0.7335 -1.2037  1.0611
  229MOL0     H30195   3.811   5.898   0.207  2.2447 -1.6145 -2.1771
  229MOL0     H30196   3.676   5.963   0.001 -1.5000  0.0152  0.1542
  229MOL0     H30197   3.693   6.130   0.033  1.3337 -0.4162 -1.7946
  229MOL0     H30198   3.569   6.128   0.240  1.4257  2.2291 -3.7072
  229MOL0     H30199   3.568   5.943   0.235  2.8519 -4.4450 -3.8362
  229MOL0     H30200   3.426   6.136   0.043 -1.1192 -2.0305 -2.6691
  229MOL0     H30201   3.440   5.962   0.032  2.0081  0.0463 -0.5344
  229MOL0     H30202   3.309   5.925   0.231 -0.9747  0.0782  1.2710
  229MOL0     H30203   3.220   6.029   0.125  2.8120 -0.5809 -2.4909
  229MOL0     H30204   3.350   6.223   0.263  1.7784 -0.6639 -2.6016
  229MOL0     H30205   3.370   6.091   0.379 -0.3618 -1.0693 -1.0855
  229MOL0     H30206   3.107   6.212   0.286 -2.1079 -2.9414  0.5882
  229MOL0     H30207   3.119   6.068   0.382  2.5459 -1.8765  0.1027
  229MOL0     H30208   3.081   6.295   0.504  1.0342 -0.5528  2.1042
  229MOL0     H30209   3.249   6.336   0.460  2.4374 -1.2056 -0.1640
  229MOL0     H30210   4.013   6.002   0.344  1.0228 -4.1905  0.9783
  229MOL0     H30211   4.229   5.980   0.426  0.7570  2.2598  0.5919
  229MOL0     H30212   4.622   6.007   0.493 -0.2984 -4.2537  0.3820
  229MOL0     H30213   4.847   6.058   0.578  0.0228  1.2844  0.5602
  229MOL0     H30214   6.676   6.349   0.559  0.0202  2.8794  2.2617
  229MOL0     H30215   6.851   6.203   0.530 -2.4862  1.1706 -2.0298
  229MOL0     H30216   7.072   5.742   0.506 -1.6961 -1.2101  2.0757
  229MOL0     H30217   7.277   5.634   0.493 -1.1165 -1.7785  1.9541
  229MOL0     H30218   7.544   5.649   0.866 -0.5586 -7.5838 -2.2923
  229MOL0     H30219   7.616   5.795   0.767 -1.7784  0.5370 -1.5370
  229MOL0     H30220   7.727   5.626   0.636  0.0314 -3.0426 -1.4785
  229MOL0     H30221   7.780   5.644   0.809 -1.0722  1.8549 -0.7434
  229MOL0     H30222   7.569   5.444   0.718 -0.8728 -0.1274  3.2227
  229MOL0     H30223   7.672   5.433   0.864 -0.8572  1.8038  0.2095
  229MOL0     H30224   7.719   5.280   0.666  2.3028 -1.1355 -0.6916
  229MOL0     H30225   7.780   5.407   0.573  1.3959  0.9865  0.3904
  229MOL0     H30226   8.104   5.387   0.831 -0.7338 -1.0804  1.7438
  229MOL0     H30227   7.416   5.879   0.830  0.2567 -0.1640 -0.7831
  229MOL0     H30228   7.215   6.002   0.820  1.2243 -0.1562  0.8073
  230MOL0     O30229   1.539   7.088   6.652  0.1070  0.6399  0.0844
  230MOL0     C30230   1.656   7.064   6.674  0.5496 -0.0887 -0.4486
  230MOL0     O30231   1.700   6.983   6.770 -0.3059  1.0989 -0.1744
  230MOL0     C30232   1.607   6.914   6.837 -0.6958 -0.0125  0.2994
  230MOL0     C30233   1.527   6.977   6.930  0.0518  0.5576  0.4209
  230MOL0     C30234   1.459   6.895   7.021  0.1681 -0.2478  0.4302
  230MOL0     C30235   1.474   6.756   7.023 -0.0133  0.0147  0.5000
  230MOL0     O30236   1.390   6.699   7.117 -0.2159 -0.0866 -0.4956
  230MOL0     C30237   1.342   6.563   7.104 -0.8563 -0.0920  0.2202
  230MOL0     C30238   1.231   6.556   7.204  0.4873  0.5824 -1.0755
  230MOL0     C30239   1.165   6.419   7.250 -0.4112  0.1443  0.1585
  230MOL0     C30240   1.047   6.445   7.338  0.3580 -0.1950  0.0759
  230MOL0     C30241   0.968   6.318   7.362 -0.3169 -0.3147  0.0583
  230MOL0     C30242   0.907   6.257   7.231 -0.0611  0.3275 -0.3101
  230MOL0     C30243   0.803   6.153   7.270 -0.9214  0.1598  0.0580
  230MOL0     C30244   0.867   6.032   7.344 -1.6376 -0.8931 -0.2112
  230MOL0     N30245   0.761   5.940   7.385 -0.3964  0.0779 -1.0841
  230MOL0     C30246   0.682   5.856   7.310 -0.4562  0.4258  0.3463
  230MOL0     C30247   0.621   5.773   7.407  0.9564  0.1174 -0.1114
  230MOL0     C30248   0.517   5.668   7.380  0.4132 -0.0961 -1.0418
  230MOL0     C30249   0.380   5.724   7.356 -0.7893 -0.7818 -0.4838
  230MOL0     C30250   0.306   5.777   7.480 -0.1546 -1.3783  0.4901
  230MOL0     C30251   0.157   5.806   7.442  0.0170 -1.2792  0.6730
  230MOL0     O30252   0.080   5.828   7.563  0.5989  0.2309  0.0233
  230MOL0     C30253  -0.058   5.833   7.556  0.1436 -0.0909  0.1113
  230MOL0     C30254  -0.133   5.866   7.668 -0.1408  0.2766  0.2704
  230MOL0     C30255  -0.276   5.874   7.660  0.5759 -0.5150 -0.1108
  230MOL0     C30256  -0.347   5.845   7.545 -0.9834  1.2058  0.7392
  230MOL0     C30257  -0.492   5.843   7.535  0.5494  0.3397 -0.8008
  230MOL0     O30258  -0.574   5.845   7.641  0.6031 -0.2820  0.2148
  230MOL0     C30259  -0.713   5.852   7.624 -0.9470  0.5848  0.0060
  230MOL0     C30260  -0.786   5.761   7.700  0.5131 -0.1404 -0.2098
  230MOL0     C30261  -0.919   5.746   7.693 -0.2295 -0.2125  0.1758
  230MOL0     C30262  -0.999   5.829   7.618 -0.0282  0.0319  0.4213
  230MOL0     O30263  -1.135   5.795   7.614  0.8369  0.1674  0.1735
  230MOL0     C30264  -1.219   5.866   7.525 -0.9091 -0.3217  0.0581
  230MOL0     C30265  -1.357   5.806   7.509  0.0198  0.1429  0.4491
  230MOL0     C30266  -1.425   5.819   7.644  0.5159  1.0602  0.5019
  230MOL0     C30267  -1.558   5.746   7.658  0.2186 -0.1302 -0.1158
  230MOL0     C30268  -1.638   5.775   7.784  0.3793 -0.3455  0.4641
  230MOL0     C30269  -1.767   5.688   7.793  0.0051  0.2487  0.3443
  230MOL0     C30270  -1.848   5.685   7.661  0.6402  0.0911  0.2270
  230MOL0     C30271  -1.997   5.673   7.690  0.3436 -0.2132  0.1046
  230MOL0    Cl30272  -2.072   5.829   7.751 -0.0114 -0.3615  0.0204
  230MOL0     C30273  -0.935   5.931   7.547  0.0954  0.4744  0.0016
  230MOL0     C30274  -0.790   5.938   7.546  0.2552 -0.2796 -0.1271
  230MOL0     O30275  -0.530   5.836   7.419  0.6644 -0.5496  0.2556
  230MOL0     C30276  -0.258   5.812   7.438  0.7483  0.4337  1.0177
  230MOL0     C30277  -0.126   5.804   7.436  0.0659 -1.1163 -0.7265
  230MOL0     N30278   0.652   5.824   7.527 -0.2561 -0.7656 -0.9671
  230MOL0     N30279   0.736   5.915   7.519 -0.7336 -0.6743 -0.0876
  230MOL0     C30280   1.541   6.693   6.917  0.4148  0.3029  1.0977
  230MOL0     C30281   1.613   6.773   6.826 -0.7248  0.9792 -0.5181
  230MOL0     C30282   1.760   7.115   6.583  0.7394 -0.5092  0.1614
  230MOL0     C30283   1.731   7.181   6.466 -0.4964  0.4847  0.8110
  230MOL0     C30284   1.833   7.239   6.390 -0.1657  0.4039  0.2438
  230MOL0     C30285   1.961   7.236   6.427 -0.2165  0.0342  0.4608
  230MOL0     O30286   2.053   7.290   6.343 -0.0735  0.1143  0.6076
  230MOL0     C30287   2.190   7.292   6.365 -0.1902  0.9694  0.0965
  230MOL0     C30288   2.258   7.389   6.265  0.1862  0.6238  0.0127
  230MOL0     C30289   2.407   7.398   6.246 -0.6224 -0.3832 -0.7825
  230MOL0     C30290   2.481   7.449   6.380  0.1060  0.9230 -0.4570
  230MOL0     C30291   2.448   7.585   6.416 -0.4170  0.4984  0.5597
  230MOL0     C30292   2.411   7.701   6.433 -0.7332  0.0334  0.2249
  230MOL0     C30293   1.993   7.170   6.545 -0.1174 -0.2487  1.1071
  230MOL0     C30294   1.891   7.105   6.618 -0.1987  0.1102  0.2678
  230MOL0     H30295   1.523   7.085   6.932 -0.3349  0.5435  0.6730
  230MOL0     H30296   1.396   6.940   7.097 -0.7240  1.0799 -1.0323
  230MOL0     H30297   1.418   6.489   7.132 -0.4690 -1.0081 -2.8957
  230MOL0     H30298   1.315   6.536   7.002 -0.0836 -1.3985  0.3383
  230MOL0     H30299   1.149   6.615   7.161 -1.1943  0.4985  1.8091
  230MOL0     H30300   1.268   6.602   7.296  1.0514 -1.6578 -0.1090
  230MOL0     H30301   1.244   6.349   7.278 -1.2535 -2.3691 -3.1375
  230MOL0     H30302   1.132   6.375   7.156 -0.7650  2.5754 -0.9428
  230MOL0     H30303   1.088   6.472   7.436  0.5641 -2.1539  0.5833
  230MOL0     H30304   0.987   6.527   7.300  0.8837 -0.8377 -2.2767
  230MOL0     H30305   0.889   6.340   7.434 -0.2635 -1.4209  0.4737
  230MOL0     H30306   1.033   6.243   7.407 -0.3774  1.2887  3.0767
  230MOL0     H30307   0.974   6.191   7.176 -0.4089 -0.3404  0.0418
  230MOL0     H30308   0.868   6.338   7.169  0.5785  2.4893  1.9686
  230MOL0     H30309   0.730   6.202   7.335 -0.6951  2.9335 -1.5914
  230MOL0     H30310   0.751   6.115   7.181 -2.6756  0.8430  0.7435
  230MOL0     H30311   0.925   6.075   7.426  1.0442  1.9308 -3.3162
  230MOL0     H30312   0.942   5.978   7.286 -0.0155 -0.5663  1.5043
  230MOL0     H30313   0.682   5.846   7.202  1.8760 -1.4900  0.4068
  230MOL0     H30314   0.511   5.593   7.459  0.8053  1.1903  0.2483
  230MOL0     H30315   0.553   5.615   7.292  1.1816  2.1267 -2.1217
  230MOL0     H30316   0.312   5.652   7.310 -1.6466  0.6137 -1.4771
  230MOL0     H30317   0.382   5.807   7.284  0.0223  0.5291  0.9939
  230MOL0     H30318   0.308   5.706   7.563 -0.7353  0.6695  2.3464
  230MOL0     H30319   0.353   5.867   7.521 -0.6359 -0.6836 -0.4458
  230MOL0     H30320   0.132   5.715   7.387  1.0897 -1.7633  0.9584
  230MOL0     H30321   0.172   5.896   7.382  3.0066 -0.7025  2.0969
  230MOL0     H30322  -0.077   5.877   7.761  1.1407 -2.4380 -0.0780
  230MOL0     H30323  -0.331   5.900   7.750  2.3607  2.1078  0.3244
  230MOL0     H30324  -0.741   5.702   7.780  0.4713  0.4481  0.2506
  230MOL0     H30325  -0.977   5.669   7.745 -0.8813 -0.5654 -1.0309
  230MOL0     H30326  -1.176   5.880   7.425 -1.0652  1.2558  0.1970
  230MOL0     H30327  -1.234   5.962   7.574  0.3683 -0.4204  0.6899
  230MOL0     H30328  -1.345   5.699   7.486 -1.0875 -0.0624  0.7937
  230MOL0     H30329  -1.411   5.865   7.434  0.2865  2.5788  2.0785
  230MOL0     H30330  -1.433   5.927   7.661  0.0109  0.8513  1.7300
  230MOL0     H30331  -1.359   5.766   7.714 -0.7152 -2.4376 -0.7612
  230MOL0     H30332  -1.620   5.760   7.568  0.5454  1.2881 -0.1376
  230MOL0     H30333  -1.532   5.640   7.660  2.0080  0.2925  0.9505
  230MOL0     H30334  -1.675   5.877   7.777  0.5246 -0.3629 -0.9267
  230MOL0     H30335  -1.576   5.751   7.871  2.4680  2.5359 -0.0914
  230MOL0     H30336  -1.824   5.727   7.878  0.0326  1.5641 -0.2233
  230MOL0     H30337  -1.731   5.586   7.807  0.9903  0.1432 -2.3922
  230MOL0     H30338  -1.832   5.781   7.611 -0.0253  0.2544  0.3171
  230MOL0     H30339  -1.821   5.599   7.598 -2.1445  0.6746 -2.0042
  230MOL0     H30340  -2.019   5.581   7.746  0.3479 -1.6725 -2.1835
  230MOL0     H30341  -2.038   5.667   7.589  1.1419 -0.3703 -0.2216
  230MOL0     H30342  -0.991   6.007   7.494  1.2457  2.9668  2.1211
  230MOL0     H30343  -0.735   6.009   7.484 -0.6022  1.1358  0.6759
  230MOL0     H30344  -0.316   5.770   7.357  0.7359 -0.8752  1.6834
  230MOL0     H30345  -0.088   5.775   7.338  2.6204  0.2789 -0.2406
  230MOL0     H30346   1.534   6.586   6.903  2.3634  0.2700  0.0465
  230MOL0     H30347   1.647   6.733   6.731 -0.1704  3.6613 -1.5348
  230MOL0     H30348   1.629   7.176   6.429 -0.3520  0.3801  0.4218
  230MOL0     H30349   1.806   7.299   6.304  1.8757 -0.4995 -1.0836
  230MOL0     H30350   2.228   7.191   6.347 -1.4178  0.9232 -2.8062
  230MOL0     H30351   2.204   7.321   6.469 -1.0950  0.9271  0.2386
  230MOL0     H30352   2.214   7.368   6.168 -1.2870 -0.4029  0.8675
  230MOL0     H30353   2.226   7.493   6.273 -1.8271  0.1286 -0.9552
  230MOL0     H30354   2.420   7.475   6.169  0.0307 -1.8116 -2.1637
  230MOL0     H30355   2.454   7.305   6.214 -1.1088 -1.0586  0.4048
  230MOL0     H30356   2.452   7.382   6.462 -1.7039  1.0129 -0.9776
  230MOL0     H30357   2.589   7.439   6.362  0.5039  2.4439  0.8747
  230MOL0     H30358   2.367   7.796   6.454  0.4596  0.0500  3.0938
  230MOL0     H30359   2.095   7.165   6.581 -0.5898  1.2952  2.8372
  230MOL0     H30360   1.908   7.074   6.721 -3.9857 -1.9832  0.4586
  231MOL0     O30361   4.976   4.829   1.896  0.2025  0.8399  0.3022
  231MOL0     C30362   4.999   4.872   2.006  0.0335  0.1797 -0.1741
  231MOL0     O30363   4.915   4.855   2.115  0.2284 -0.5575  0.5793
  231MOL0     C30364   4.784   4.801   2.091  0.5391  0.3556 -0.1500
  231MOL0     C30365   4.760   4.664   2.067 -0.4485  0.2329 -0.0544
  231MOL0     C30366   4.625   4.623   2.038  1.0486 -0.8224 -0.4386
  231MOL0     C30367   4.519   4.715   2.037 -0.1203 -0.9339  0.3545
  231MOL0     O30368   4.388   4.687   2.017 -0.0431 -0.4766 -0.4697
  231MOL0     C30369   4.335   4.558   2.061 -0.5644 -0.2011  0.5394
  231MOL0     C30370   4.192   4.591   2.079 -0.0263 -0.0262 -0.9707
  231MOL0     C30371   4.104   4.466   2.099 -0.4711  1.1239  0.0604
  231MOL0     C30372   3.958   4.499   2.104 -0.4389 -0.6845  0.0668
  231MOL0     C30373   3.875   4.373   2.139  0.7706  0.0732 -0.1395
  231MOL0     C30374   3.719   4.404   2.133 -0.5064  0.3146 -1.2345
  231MOL0     C30375   3.645   4.277   2.166 -0.7922 -0.9320  0.0996
  231MOL0     C30376   3.490   4.300   2.162  0.3842 -0.5823 -1.6244
  231MOL0     N30377   3.413   4.178   2.167  0.6175  0.2848 -0.1310
  231MOL0     C30378   3.429   4.063   2.096 -0.2706 -0.7558 -0.1028
  231MOL0     C30379   3.318   3.985   2.128 -0.4668  0.2810 -0.1199
  231MOL0     C30380   3.292   3.841   2.093  0.5193 -0.3695  0.3336
  231MOL0     C30381   3.362   3.744   2.181  0.3717 -0.2098 -0.3057
  231MOL0     C30382   3.334   3.748   2.330  0.3443  0.3356  0.7705
  231MOL0     C30383   3.195   3.706   2.384 -0.6461  0.1792  0.4532
  231MOL0     O30384   3.152   3.585   2.328 -0.1362  0.9808 -0.0932
  231MOL0     C30385   3.029   3.535   2.345 -0.4505  0.2466 -0.4100
  231MOL0     C30386   2.937   3.586   2.443  0.2866 -0.3538 -0.1214
  231MOL0     C30387   2.821   3.510   2.468 -0.0353 -0.6078  0.6654
  231MOL0     C30388   2.793   3.396   2.396 -0.5077 -0.0040  0.1240
  231MOL0     C30389   2.675   3.320   2.424  0.7957 -0.5050 -0.3645
  231MOL0     O30390   2.585   3.364   2.519 -0.3352 -0.0168  0.3908
  231MOL0     C30391   2.461   3.302   2.517  0.7481  0.4902  0.0205
  231MOL0     C30392   2.422   3.222   2.630 -0.2864 -0.9011  0.3040
  231MOL0     C30393   2.301   3.151   2.634  0.3062  0.2149  0.0689
  231MOL0     C30394   2.216   3.160   2.525 -0.1768 -1.2051 -0.6230
  231MOL0     O30395   2.097   3.095   2.536 -0.4243 -0.3288  0.0542
  231MOL0     C30396   1.990   3.143   2.445 -0.6036 -0.2234 -0.0404
  231MOL0     C30397   1.856   3.127   2.504  0.9751 -0.9567  0.2115
  231MOL0     C30398   1.808   2.979   2.485  0.0236 -0.1653 -0.0439
  231MOL0     C30399   1.723   2.923   2.603 -0.5821  0.4315 -0.5685
  231MOL0     C30400   1.588   2.994   2.621 -0.5697 -0.0194  0.4453
  231MOL0     C30401   1.473   2.904   2.669  0.5891 -0.1687  0.3071
  231MOL0     C30402   1.343   2.983   2.645  0.2938  0.6936  0.2769
  231MOL0     C30403   1.218   2.936   2.723  0.5086 -0.4372 -0.4220
  231MOL0    Cl30404   1.090   3.062   2.697  0.7269  0.4764 -0.4665
  231MOL0     C30405   2.258   3.234   2.410 -0.5874 -1.2615 -0.4803
  231MOL0     C30406   2.368   3.313   2.413  0.0199 -0.4907  0.1497
  231MOL0     O30407   2.660   3.210   2.371  0.2302 -0.1522 -0.2487
  231MOL0     C30408   2.886   3.352   2.301 -0.5211  0.3286 -0.8355
  231MOL0     C30409   3.008   3.411   2.288 -0.0700 -1.1103  0.1431
  231MOL0     N30410   3.226   4.062   2.187  0.1413 -0.4315 -0.2796
  231MOL0     N30411   3.283   4.177   2.207 -0.7856  0.5684  0.4303
  231MOL0     C30412   4.553   4.848   2.074 -0.7792  0.6924  0.0307
  231MOL0     C30413   4.683   4.892   2.096 -0.0980 -0.0227  0.1553
  231MOL0     C30414   5.133   4.934   2.038 -0.0833  0.0177 -0.0520
  231MOL0     C30415   5.145   5.032   2.141 -0.1119 -0.1677  0.3519
  231MOL0     C30416   5.271   5.103   2.153  0.1845 -0.6435 -0.0876
  231MOL0     C30417   5.379   5.080   2.069  0.1684 -0.1113  0.3933
  231MOL0     O30418   5.506   5.130   2.083  0.3274 -0.4688  0.1743
  231MOL0     C30419   5.551   5.124   2.223 -0.3313 -0.4722 -0.7112
  231MOL0     C30420   5.704   5.133   2.239 -0.3380 -0.9422 -0.5313
  231MOL0     C30421   5.763   5.266   2.200 -0.0357 -0.2122  0.3117
  231MOL0     C30422   5.920   5.260   2.169 -0.6719  0.0931  0.6051
  231MOL0     C30423   5.983   5.201   2.287  0.0795 -0.0284 -0.3500
  231MOL0     C30424   6.047   5.148   2.377 -1.3257 -0.4384  0.0241
  231MOL0     C30425   5.364   4.982   1.971 -0.5533 -0.7274  0.0165
  231MOL0     C30426   5.244   4.912   1.953 -0.9154 -0.8968 -0.8174
  231MOL0     H30427   4.837   4.590   2.050 -0.8354  0.1674 -1.6167
  231MOL0     H30428   4.620   4.516   2.020  1.4333 -1.0384  0.6767
  231MOL0     H30429   4.386   4.519   2.149  2.5461 -0.0907 -1.0831
  231MOL0     H30430   4.344   4.483   1.981 -1.1043  0.5739 -0.2800
  231MOL0     H30431   4.154   4.658   2.002 -0.1868  2.5370  1.1837
  231MOL0     H30432   4.192   4.646   2.174  0.9939  0.4892 -1.2517
  231MOL0     H30433   4.124   4.409   2.190  3.5227  0.9865 -0.7500
  231MOL0     H30434   4.106   4.390   2.020 -1.5768 -0.0964  1.1503
  231MOL0     H30435   3.940   4.559   2.194  0.3849  0.0923 -0.2743
  231MOL0     H30436   3.923   4.552   2.015 -0.7855  1.9139  1.6381
  231MOL0     H30437   3.900   4.344   2.242 -0.5351  1.9493  0.7635
  231MOL0     H30438   3.896   4.290   2.071 -0.2034  0.0635 -0.4443
  231MOL0     H30439   3.694   4.443   2.034  2.0738  0.7053 -1.8055
  231MOL0     H30440   3.702   4.484   2.206  1.4432 -0.9791  0.7663
  231MOL0     H30441   3.682   4.214   2.085  2.8030  1.9566 -0.7417
  231MOL0     H30442   3.671   4.245   2.267  0.5287  0.7234  0.3233
  231MOL0     H30443   3.474   4.352   2.067 -0.3698 -1.0489 -1.7644
  231MOL0     H30444   3.465   4.363   2.249  2.8806  0.4244 -1.5636
  231MOL0     H30445   3.503   4.040   2.020 -1.1256 -1.4409 -0.7421
  231MOL0     H30446   3.335   3.824   1.994 -0.5174  1.0001 -0.3777
  231MOL0     H30447   3.184   3.823   2.088  0.7186 -2.5372  2.2226
  231MOL0     H30448   3.469   3.767   2.168  0.1662 -0.2418 -2.4845
  231MOL0     H30449   3.360   3.643   2.140 -0.6309 -0.3669  0.1013
  231MOL0     H30450   3.414   3.686   2.372  0.8243  0.0566 -0.5125
  231MOL0     H30451   3.354   3.846   2.375 -0.2249  0.6604  0.3257
  231MOL0     H30452   3.134   3.790   2.352  0.1060  0.3533 -0.5781
  231MOL0     H30453   3.203   3.701   2.493  2.3418  0.4408  0.3377
  231MOL0     H30454   2.963   3.671   2.506  1.4401 -2.5905  2.6379
  231MOL0     H30455   2.756   3.536   2.551  0.5047  0.6437  0.7194
  231MOL0     H30456   2.497   3.218   2.709  1.6672 -0.4857 -1.4257
  231MOL0     H30457   2.272   3.083   2.713 -1.0823 -0.4060 -0.9448
  231MOL0     H30458   1.997   3.093   2.348 -0.1771 -0.5010  0.1281
  231MOL0     H30459   2.008   3.249   2.428 -0.0640 -0.4057 -0.6196
  231MOL0     H30460   1.792   3.191   2.443  0.8523  1.5518  2.7358
  231MOL0     H30461   1.854   3.161   2.608  0.8593 -1.5110  0.3948
  231MOL0     H30462   1.895   2.913   2.481 -0.1144 -0.3744  0.3821
  231MOL0     H30463   1.757   2.982   2.388 -1.2025  2.8079  0.5740
  231MOL0     H30464   1.710   2.816   2.582 -1.7691  0.9733 -2.8834
  231MOL0     H30465   1.772   2.946   2.698 -0.8464 -1.3779  0.0428
  231MOL0     H30466   1.562   3.031   2.521 -1.4872  0.6581  0.9295
  231MOL0     H30467   1.607   3.082   2.683 -0.6075  0.6557 -0.4844
  231MOL0     H30468   1.488   2.874   2.773 -1.8196  2.1638  1.4412
  231MOL0     H30469   1.469   2.812   2.610 -0.8136 -0.7546  1.2616
  231MOL0     H30470   1.352   3.086   2.681 -3.4880  0.3011  2.8898
  231MOL0     H30471   1.323   2.981   2.537  0.9543  0.1760  0.1566
  231MOL0     H30472   1.235   2.927   2.831  0.4881  2.0257 -0.1570
  231MOL0     H30473   1.195   2.831   2.704  0.0097 -0.0220 -2.2994
  231MOL0     H30474   2.199   3.245   2.320 -2.9769  1.0431  1.2384
  231MOL0     H30475   2.391   3.386   2.336  0.1938 -0.3387  0.3450
  231MOL0     H30476   2.865   3.268   2.235  0.7623  1.3076 -2.5845
  231MOL0     H30477   3.095   3.364   2.242  0.7742 -0.7594  1.3388
  231MOL0     H30478   4.463   4.907   2.080 -2.0115 -1.1995  0.9772
  231MOL0     H30479   4.691   4.997   2.125  1.4700  0.3969 -1.6145
  231MOL0     H30480   5.063   5.052   2.210  1.0399  2.4322  1.1069
  231MOL0     H30481   5.272   5.174   2.235 -2.0019 -1.6831  0.9466
  231MOL0     H30482   5.526   5.029   2.271  1.8923 -0.4416  0.6459
  231MOL0     H30483   5.511   5.212   2.274 -2.9584 -1.9909  0.0767
  231MOL0     H30484   5.726   5.111   2.343  0.4857 -1.3165 -0.7751
  231MOL0     H30485   5.746   5.054   2.176  0.3357 -1.1185  0.1283
  231MOL0     H30486   5.757   5.330   2.289  2.5328  2.1584 -1.0437
  231MOL0     H30487   5.703   5.319   2.125  1.3930  0.1710 -0.6063
  231MOL0     H30488   5.947   5.199   2.082  1.5614  2.1191 -0.2477
  231MOL0     H30489   5.962   5.358   2.145  0.4626 -1.0347 -2.6734
  231MOL0     H30490   6.097   5.105   2.461 -1.7304  1.5809  1.3783
  231MOL0     H30491   5.446   4.958   1.904  0.9306  2.4394  0.5122
  231MOL0     H30492   5.229   4.846   1.868 -1.6356 -0.2721 -1.1898
  232MOL0     O30493   5.094   3.571   8.772  0.0040 -0.2192 -0.4172
  232MOL0     C30494   5.040   3.486   8.705  0.1409  0.0815  0.4221
  232MOL0     O30495   5.099   3.366   8.661 -0.8563 -0.0125  0.5577
  232MOL0     C30496   5.233   3.354   8.691  0.0746  0.0305 -0.4240
  232MOL0     C30497   5.285   3.233   8.742  0.1502  0.0655 -0.0219
  232MOL0     C30498   5.428   3.210   8.749  0.4054  0.3811 -0.0499
  232MOL0     C30499   5.519   3.316   8.725  0.2807  0.9463  0.6662
  232MOL0     O30500   5.661   3.301   8.720  0.5416  0.4824  0.3646
  232MOL0     C30501   5.715   3.179   8.774  0.3679 -0.0680  0.2672
  232MOL0     C30502   5.865   3.183   8.809  0.3016  0.3428  0.3757
  232MOL0     C30503   5.887   3.271   8.926 -0.4662  0.5160 -0.1610
  232MOL0     C30504   5.848   3.215   9.060  1.7340 -1.0046 -0.2651
  232MOL0     C30505   5.905   3.303   9.173  0.5158  0.7293  0.6095
  232MOL0     C30506   5.838   3.272   9.315 -0.1967 -0.8619  0.1710
  232MOL0     C30507   5.853   3.129   9.367  0.3485 -0.1138 -0.5462
  232MOL0     C30508   5.996   3.085   9.407 -0.2224 -0.2247  0.6214
  232MOL0     N30509   6.003   2.949   9.448 -0.4250  0.2642  0.1608
  232MOL0     C30510   5.913   2.879   9.522  0.6207 -0.0959  0.8045
  232MOL0     C30511   5.949   2.743   9.511 -0.1277 -0.6689  0.1998
  232MOL0     C30512   5.884   2.631   9.588  0.3067  0.2672 -0.4326
  232MOL0     C30513   5.763   2.569   9.520 -0.6206 -0.2811  0.2469
  232MOL0     C30514   5.648   2.652   9.540  0.3057  0.2976  0.5519
  232MOL0     C30515   5.517   2.571   9.521  0.0876  0.4539 -0.4327
  232MOL0     O30516   5.420   2.664   9.557  0.9117  0.5373  0.3977
  232MOL0     C30517   5.290   2.620   9.561 -0.2550 -0.6459  0.2834
  232MOL0     C30518   5.201   2.669   9.660 -0.0459 -0.5473  0.2072
  232MOL0     C30519   5.069   2.637   9.651 -0.2044  0.5888 -0.2074
  232MOL0     C30520   5.014   2.547   9.554  1.2841  0.1036  0.0288
  232MOL0     C30521   4.872   2.493   9.548  0.0547 -0.6749  0.6723
  232MOL0     O30522   4.826   2.424   9.438 -0.4466  0.1306  0.5915
  232MOL0     C30523   4.692   2.395   9.407  0.3531  0.3694 -0.1239
  232MOL0     C30524   4.672   2.300   9.307  1.1264  0.0131 -0.1070
  232MOL0     C30525   4.540   2.271   9.259 -0.6513  0.1551 -0.5363
  232MOL0     C30526   4.426   2.330   9.317  0.3977 -0.1097 -0.3788
  232MOL0     O30527   4.304   2.285   9.277 -0.0363  0.2838 -0.3113
  232MOL0     C30528   4.198   2.312   9.375 -0.7918  0.1921  0.2978
  232MOL0     C30529   4.085   2.240   9.311  0.2651  0.4061  0.0181
  232MOL0     C30530   3.968   2.221   9.410 -0.6875 -0.1649  0.1866
  232MOL0     C30531   3.988   2.098   9.489  0.2977 -0.0140 -1.0549
  232MOL0     C30532   3.859   2.061   9.556  0.5738  0.1119  0.2517
  232MOL0     C30533   3.885   1.938   9.646 -0.5365 -0.1134 -0.7820
  232MOL0     C30534   3.754   1.872   9.691 -0.0331 -0.4516  0.8517
  232MOL0     C30535   3.767   1.788   9.818 -0.3847  0.3192 -0.1435
  232MOL0    Cl30536   3.617   1.708   9.872  0.6815 -0.0306  0.1060
  232MOL0     C30537   4.457   2.429   9.418  0.5228 -0.7011 -0.1568
  232MOL0     C30538   4.585   2.462   9.459  0.0350 -0.1358 -1.2827
  232MOL0     O30539   4.796   2.524   9.645  0.6806 -0.1972  0.4777
  232MOL0     C30540   5.104   2.491   9.466 -0.2236  0.1937  0.3545
  232MOL0     C30541   5.240   2.527   9.466 -0.2284 -0.3415  0.1275
  232MOL0     N30542   6.071   2.743   9.445 -0.3295 -0.1977  0.1966
  232MOL0     N30543   6.097   2.859   9.401  0.4028  0.0160  0.5327
  232MOL0     C30544   5.465   3.431   8.669 -0.1296  0.1443 -0.1224
  232MOL0     C30545   5.328   3.454   8.653  0.3054 -0.5665  0.1142
  232MOL0     C30546   4.896   3.502   8.662 -0.6964  1.0929  0.4203
  232MOL0     C30547   4.822   3.616   8.697  0.3556  0.9360 -0.1009
  232MOL0     C30548   4.692   3.633   8.660 -0.7922  0.1033 -1.4495
  232MOL0     C30549   4.626   3.520   8.606  0.1206  0.0602  0.1173
  232MOL0     O30550   4.495   3.525   8.569  0.3339  0.1126  0.2511
  232MOL0     C30551   4.409   3.622   8.642 -0.2394  0.4702  0.2291
  232MOL0     C30552   4.258   3.590   8.614 -0.1362  0.6756  0.1452
  232MOL0     C30553   4.231   3.572   8.461 -0.6929  0.1132 -0.3574
  232MOL0     C30554   4.083   3.534   8.447 -0.2006  0.2405  0.3874
  232MOL0     C30555   4.059   3.454   8.326  0.3055 -0.1506 -0.1236
  232MOL0     C30556   4.049   3.386   8.227  0.2082  0.1905  0.0468
  232MOL0     C30557   4.694   3.398   8.593  1.0992 -0.1117 -0.7513
  232MOL0     C30558   4.827   3.390   8.615 -0.6576 -0.7191  0.3315
  232MOL0     H30559   5.225   3.143   8.751  2.2768 -1.5585 -1.0533
  232MOL0     H30560   5.461   3.109   8.770  0.1571 -0.0946 -1.7641
  232MOL0     H30561   5.699   3.105   8.695 -2.9606  1.4824 -0.7097
  232MOL0     H30562   5.659   3.148   8.863  1.9018 -0.6426  1.0690
  232MOL0     H30563   5.925   3.222   8.727  0.9337 -0.8007  0.2790
  232MOL0     H30564   5.887   3.079   8.832 -2.1324 -0.3452 -0.0613
  232MOL0     H30565   5.837   3.366   8.905 -2.7912 -0.2980  1.3115
  232MOL0     H30566   5.994   3.294   8.934 -0.5908  0.7155  1.1431
  232MOL0     H30567   5.739   3.228   9.060  2.0673  3.3250  0.6626
  232MOL0     H30568   5.878   3.110   9.070  1.6816 -1.1114 -1.1849
  232MOL0     H30569   5.878   3.407   9.150 -1.2014  0.3610  0.8194
  232MOL0     H30570   6.014   3.305   9.179  0.7310  0.1059 -2.0117
  232MOL0     H30571   5.730   3.286   9.305 -0.0436 -0.5682 -1.2540
  232MOL0     H30572   5.873   3.347   9.386 -1.3059 -1.1289  1.0262
  232MOL0     H30573   5.784   3.110   9.450 -0.9825  1.7574 -1.1511
  232MOL0     H30574   5.810   3.063   9.292  0.5618 -0.2732 -0.5301
  232MOL0     H30575   6.034   3.137   9.496 -1.8408 -0.4531  1.4906
  232MOL0     H30576   6.058   3.103   9.319  0.4251 -2.0264  0.6739
  232MOL0     H30577   5.821   2.915   9.567 -1.0479  0.5002 -2.7202
  232MOL0     H30578   5.855   2.670   9.685 -0.6775 -0.5457 -0.3763
  232MOL0     H30579   5.958   2.554   9.612 -1.1077 -1.1755 -0.4767
  232MOL0     H30580   5.740   2.471   9.564 -2.2761 -0.7996 -1.5871
  232MOL0     H30581   5.789   2.564   9.413  0.6335  2.0365  0.3926
  232MOL0     H30582   5.650   2.693   9.641 -0.2711  0.6371  0.4329
  232MOL0     H30583   5.647   2.726   9.459 -1.8601  0.2305  0.4625
  232MOL0     H30584   5.515   2.481   9.583  3.1193 -0.0440 -0.8836
  232MOL0     H30585   5.513   2.528   9.420 -1.5651 -2.4309  0.7462
  232MOL0     H30586   5.249   2.738   9.729 -1.6984  0.2674  0.5794
  232MOL0     H30587   5.012   2.677   9.734  1.6466  0.6750  1.0810
  232MOL0     H30588   4.754   2.241   9.270 -0.0868 -1.0270 -1.2494
  232MOL0     H30589   4.530   2.194   9.183  2.4395 -1.8022  0.8506
  232MOL0     H30590   4.176   2.419   9.372  3.8258  1.3785 -0.3062
  232MOL0     H30591   4.202   2.272   9.477 -3.3618  0.1184  0.4222
  232MOL0     H30592   4.105   2.139   9.276  0.4914  0.3250  0.3823
  232MOL0     H30593   4.038   2.294   9.228 -3.1557 -2.9627 -0.5130
  232MOL0     H30594   3.883   2.198   9.345 -1.1835 -1.2859  1.1962
  232MOL0     H30595   3.948   2.309   9.472 -0.9079 -0.0275 -0.0786
  232MOL0     H30596   4.005   2.013   9.422  1.3142 -1.2556  0.7189
  232MOL0     H30597   4.077   2.105   9.552 -0.9645  2.4289  0.6060
  232MOL0     H30598   3.773   2.052   9.488  0.8268  1.6650 -0.3138
  232MOL0     H30599   3.820   2.143   9.618 -0.5651  0.4154 -0.8079
  232MOL0     H30600   3.933   1.964   9.741 -3.6793 -1.3794  1.3249
  232MOL0     H30601   3.954   1.869   9.597  1.1831  1.4638 -0.6725
  232MOL0     H30602   3.690   1.960   9.706  3.3793  2.2468  0.8672
  232MOL0     H30603   3.715   1.811   9.609 -0.5921  3.0744 -1.7753
  232MOL0     H30604   3.800   1.850   9.902 -1.4715  0.7167  0.0078
  232MOL0     H30605   3.833   1.702   9.803 -2.7445 -1.4272 -1.0975
  232MOL0     H30606   4.371   2.481   9.459 -0.1993  0.2863 -2.7034
  232MOL0     H30607   4.581   2.546   9.527 -1.6589 -0.1539 -1.3105
  232MOL0     H30608   5.075   2.420   9.389  2.9156 -1.8656  0.8842
  232MOL0     H30609   5.308   2.487   9.390  1.5624  1.1063  0.8896
  232MOL0     H30610   5.543   3.505   8.655  1.3728 -1.1435  1.0473
  232MOL0     H30611   5.300   3.552   8.616  0.9097 -1.3204 -2.5798
  232MOL0     H30612   4.868   3.706   8.738 -0.4302  1.7819 -1.0319
  232MOL0     H30613   4.637   3.726   8.674  1.6061  1.8292 -2.7198
  232MOL0     H30614   4.435   3.723   8.609 -1.8514  0.7543 -0.2124
  232MOL0     H30615   4.424   3.608   8.750 -1.2007 -1.7294  0.1294
  232MOL0     H30616   4.225   3.506   8.675 -2.9404  1.9387  0.5257
  232MOL0     H30617   4.188   3.666   8.649 -1.0991 -1.7211  4.1037
  232MOL0     H30618   4.301   3.498   8.421 -0.9808  0.7562 -2.0959
  232MOL0     H30619   4.267   3.659   8.406  3.2398  0.5418  2.4437
  232MOL0     H30620   4.044   3.471   8.528 -1.4179  2.5977  1.7666
  232MOL0     H30621   4.023   3.626   8.442 -0.2482  0.2072  0.3518
  232MOL0     H30622   4.041   3.324   8.141  1.5057  1.7202 -1.2423
  232MOL0     H30623   4.640   3.307   8.572  3.9268 -1.7863 -1.3355
  232MOL0     H30624   4.878   3.295   8.607  1.5555  0.4543 -0.2838
  233MOL0     O30625   7.801  10.774   1.596 -0.4658  0.6861  0.2261
  233MOL0     C30626   7.784  10.877   1.534  0.1260  0.6139  0.1819
  233MOL0     O30627   7.690  10.973   1.558  0.2018 -0.1337 -0.5668
  233MOL0     C30628   7.595  10.948   1.655  0.2132 -0.5724 -0.6645
  233MOL0     C30629   7.548  11.061   1.725 -0.2660  0.3514 -0.4125
  233MOL0     C30630   7.448  11.044   1.817 -0.6444 -0.4271  0.0816
  233MOL0     C30631   7.398  10.916   1.849  0.6145  0.4872 -0.3341
  233MOL0     O30632   7.310  10.917   1.951  0.0691 -0.4126  0.0217
  233MOL0     C30633   7.206  10.807   1.938 -0.4900  0.0588 -0.0082
  233MOL0     C30634   7.079  10.823   2.027  0.5758 -0.0424 -0.4141
  233MOL0     C30635   6.991  10.693   2.050 -0.6061 -0.7416 -0.0326
  233MOL0     C30636   6.921  10.646   1.926  0.1896  1.2597  0.4625
  233MOL0     C30637   6.772  10.670   1.923 -0.5833 -1.1314 -0.3212
  233MOL0     C30638   6.712  10.602   1.797  1.9234  0.3132 -0.4125
  233MOL0     C30639   6.565  10.612   1.798  1.0258  1.0295 -0.2833
  233MOL0     C30640   6.491  10.508   1.881  0.3087 -0.4415  0.5453
  233MOL0     N30641   6.344  10.520   1.866  0.7525 -0.1964  0.6070
  233MOL0     C30642   6.271  10.616   1.921 -0.9035 -0.0209 -0.2916
  233MOL0     C30643   6.154  10.615   1.856 -0.9192 -0.7129  0.4790
  233MOL0     C30644   6.057  10.735   1.852  0.5287 -0.3835 -0.0176
  233MOL0     C30645   5.913  10.690   1.872  1.1301  0.4045 -0.2685
  233MOL0     C30646   5.812  10.805   1.880 -0.0262  0.2742 -0.1370
  233MOL0     C30647   5.667  10.763   1.896 -0.1518 -0.2775  0.3260
  233MOL0     O30648   5.622  10.684   1.783  0.5392 -0.0494 -0.6597
  233MOL0     C30649   5.498  10.705   1.734  0.5161  0.1388 -0.0571
  233MOL0     C30650   5.485  10.670   1.597 -0.0861 -0.2332 -0.7662
  233MOL0     C30651   5.355  10.674   1.538  0.1607  0.1740  0.1207
  233MOL0     C30652   5.244  10.714   1.619 -0.1651 -0.2509 -0.6188
  233MOL0     C30653   5.108  10.719   1.567  0.0327 -0.7895 -0.3526
  233MOL0     O30654   5.002  10.751   1.655 -0.5856  0.5205 -0.0077
  233MOL0     C30655   4.881  10.734   1.597 -0.5547 -0.6924  0.3018
  233MOL0     C30656   4.811  10.614   1.614 -1.2317 -0.0270 -0.3908
  233MOL0     C30657   4.682  10.601   1.578 -0.1466  0.4648  1.6581
  233MOL0     C30658   4.614  10.695   1.504 -1.4437 -0.3563  0.1791
  233MOL0     O30659   4.480  10.671   1.491 -0.5763  0.0581 -0.2263
  233MOL0     C30660   4.421  10.723   1.371  0.7631 -0.1749 -0.0276
  233MOL0     C30661   4.265  10.695   1.369 -0.3877  0.5114 -0.1038
  233MOL0     C30662   4.226  10.549   1.409 -0.1137 -0.6591  0.1306
  233MOL0     C30663   4.074  10.529   1.421  0.0859  0.0284  0.0583
  233MOL0     C30664   4.038  10.415   1.511  0.5820 -0.0247 -0.6833
  233MOL0     C30665   3.891  10.363   1.478 -0.4055 -0.6358 -0.0758
  233MOL0     C30666   3.775  10.455   1.526  0.9876 -0.3782 -0.8486
  233MOL0     C30667   3.648  10.384   1.491 -0.7209  0.1328  1.2345
  233MOL0    Cl30668   3.496  10.472   1.511  0.0010 -0.2836 -0.0971
  233MOL0     C30669   4.684  10.806   1.471  0.1703 -0.1733  0.8226
  233MOL0     C30670   4.811  10.832   1.529 -0.0747 -0.6586 -0.1731
  233MOL0     O30671   5.091  10.696   1.444  0.2602 -0.0227 -0.1068
  233MOL0     C30672   5.267  10.756   1.747  0.9384  0.1157 -0.5823
  233MOL0     C30673   5.394  10.748   1.807 -0.0118  0.5688 -0.0871
  233MOL0     N30674   6.158  10.516   1.762  0.4924  0.0866  0.8192
  233MOL0     N30675   6.268  10.455   1.772 -0.0616 -0.0921 -0.6436
  233MOL0     C30676   7.441  10.807   1.784 -0.7482  0.3827  0.2967
  233MOL0     C30677   7.531  10.825   1.679  0.3406 -0.1852  0.0492
  233MOL0     C30678   7.889  10.912   1.440 -0.7232 -0.6765 -0.4583
  233MOL0     C30679   8.001  10.827   1.403 -0.1940 -0.6969 -0.0672
  233MOL0     C30680   8.092  10.856   1.304  0.3433  0.1107 -0.3131
  233MOL0     C30681   8.078  10.975   1.233 -0.2623  0.5067 -0.7661
  233MOL0     O30682   8.158  11.018   1.131  0.2030  0.3779  0.1690
  233MOL0     C30683   8.291  10.955   1.116 -0.0684  0.0114 -0.4171
  233MOL0     C30684   8.370  11.009   1.236  0.3051  0.8874 -0.3141
  233MOL0     C30685   8.482  10.912   1.278 -0.4392  0.0646  0.1040
  233MOL0     C30686   8.562  10.979   1.397 -0.5426 -0.5623 -0.5274
  233MOL0     C30687   8.494  10.981   1.527 -0.2870 -0.3099 -0.1093
  233MOL0     C30688   8.428  10.964   1.625  0.6448 -0.1730  0.3129
  233MOL0     C30689   7.971  11.057   1.264  0.4339  0.3522 -0.4099
  233MOL0     C30690   7.876  11.034   1.365  0.2119 -1.3192  0.0083
  233MOL0     H30691   7.584  11.162   1.705  4.2198 -0.7760  0.8232
  233MOL0     H30692   7.412  11.130   1.872  0.1529  0.9296 -1.4112
  233MOL0     H30693   7.251  10.708   1.953 -0.5923 -0.3600 -2.1239
  233MOL0     H30694   7.178  10.798   1.832 -0.9746  2.8508 -0.1954
  233MOL0     H30695   7.017  10.907   1.994 -1.3921 -1.0706  0.4263
  233MOL0     H30696   7.107  10.849   2.129  0.1120 -3.1132  0.6242
  233MOL0     H30697   6.919  10.697   2.133  0.6385  0.2232  1.0515
  233MOL0     H30698   7.063  10.617   2.081  1.2250  0.1365 -1.8900
  233MOL0     H30699   6.971  10.681   1.836  0.0204 -0.6362 -0.4029
  233MOL0     H30700   6.934  10.537   1.929  0.1460  1.2687  1.3790
  233MOL0     H30701   6.759  10.779   1.929 -2.4797 -1.3918  2.4805
  233MOL0     H30702   6.735  10.622   2.014 -1.4258  1.8259  1.0220
  233MOL0     H30703   6.730  10.494   1.796 -2.5491 -0.7061  1.6167
  233MOL0     H30704   6.759  10.638   1.705  3.6778 -0.5995  0.0870
  233MOL0     H30705   6.536  10.712   1.830 -0.1825  0.3537  0.8546
  233MOL0     H30706   6.535  10.604   1.693  0.1973 -0.9395  0.0513
  233MOL0     H30707   6.517  10.519   1.987  0.3998  2.0958  0.3210
  233MOL0     H30708   6.523  10.404   1.871  0.7825 -0.6797  3.5318
  233MOL0     H30709   6.310  10.692   1.989  1.0738 -3.0222  2.2075
  233MOL0     H30710   6.056  10.780   1.753 -0.3473 -2.9363 -1.2779
  233MOL0     H30711   6.093  10.807   1.925 -1.7640  0.3975  0.4353
  233MOL0     H30712   5.897  10.630   1.962  0.0774  3.7515  1.9390
  233MOL0     H30713   5.891  10.628   1.784  1.8339 -1.4143  0.7696
  233MOL0     H30714   5.829  10.868   1.968  0.6975 -2.2210  1.6242
  233MOL0     H30715   5.819  10.871   1.793 -1.9602  3.0602  1.6504
  233MOL0     H30716   5.607  10.852   1.915 -2.5209 -1.4730 -1.1312
  233MOL0     H30717   5.658  10.697   1.983 -2.4183 -0.4961 -0.0374
  233MOL0     H30718   5.571  10.643   1.537 -0.5657  0.7613 -1.9464
  233MOL0     H30719   5.352  10.638   1.436 -0.9468  2.1439 -0.6048
  233MOL0     H30720   4.863  10.528   1.655  0.4614  0.2794 -1.7837
  233MOL0     H30721   4.629  10.508   1.598  1.7893 -1.0499  0.2320
  233MOL0     H30722   4.451  10.677   1.277 -3.2785  1.0950 -2.1711
  233MOL0     H30723   4.431  10.832   1.373  1.7906 -0.2642  1.2423
  233MOL0     H30724   4.222  10.731   1.275 -1.2982  3.6147  1.3503
  233MOL0     H30725   4.224  10.765   1.443  1.2817  1.5930 -0.1426
  233MOL0     H30726   4.275  10.526   1.505 -0.1844 -0.9300  0.1017
  233MOL0     H30727   4.267  10.485   1.331  0.5768  1.3269 -1.2200
  233MOL0     H30728   4.018  10.618   1.452 -0.4114 -0.0522 -0.5992
  233MOL0     H30729   4.045  10.512   1.317  2.2566 -1.2951 -0.3849
  233MOL0     H30730   4.055  10.431   1.618  3.0318  0.2983 -1.0778
  233MOL0     H30731   4.115  10.342   1.483  0.7702  1.1223 -3.4913
  233MOL0     H30732   3.892  10.263   1.522  1.9446 -1.7750 -2.3950
  233MOL0     H30733   3.891  10.348   1.369 -1.4953 -2.3185  0.1089
  233MOL0     H30734   3.767  10.469   1.634  0.0061  1.8538 -1.1461
  233MOL0     H30735   3.781  10.555   1.482  1.8407  0.7551  1.6436
  233MOL0     H30736   3.636  10.295   1.554 -2.3265 -0.1972  0.5046
  233MOL0     H30737   3.654  10.355   1.386 -0.4121  0.4932  1.1528
  233MOL0     H30738   4.633  10.885   1.416 -1.5729 -0.6453  1.6870
  233MOL0     H30739   4.859  10.924   1.499 -5.3663  1.3769 -4.0606
  233MOL0     H30740   5.177  10.782   1.802  0.0687 -2.1451 -0.8563
  233MOL0     H30741   5.396  10.781   1.911  1.6029 -0.1431  0.1452
  233MOL0     H30742   7.417  10.707   1.820  2.1621 -0.0771  1.2370
  233MOL0     H30743   7.558  10.738   1.619  0.5015 -1.3177  1.7037
  233MOL0     H30744   8.034  10.739   1.458 -0.9012 -1.8731 -1.4586
  233MOL0     H30745   8.177  10.794   1.278 -0.6115 -1.0258 -0.8014
  233MOL0     H30746   8.327  10.985   1.017 -2.6257  2.4724 -0.7271
  233MOL0     H30747   8.284  10.846   1.111 -0.3709  0.0960 -2.9777
  233MOL0     H30748   8.425  11.100   1.210  1.0913 -0.1215 -2.3672
  233MOL0     H30749   8.307  11.017   1.325 -2.7462 -2.3871 -1.9130
  233MOL0     H30750   8.550  10.874   1.200 -0.5591 -0.6834  0.3535
  233MOL0     H30751   8.432  10.825   1.321 -1.0260 -0.6285 -1.8737
  233MOL0     H30752   8.659  10.930   1.403 -0.6698 -0.6505  1.4129
  233MOL0     H30753   8.580  11.084   1.373 -0.9020 -0.6234 -1.0849
  233MOL0     H30754   8.374  10.958   1.717  1.5070 -0.5374  0.8028
  233MOL0     H30755   7.969  11.153   1.212 -2.3715  0.4735 -0.2725
  233MOL0     H30756   7.801  11.113   1.371 -0.4342 -1.5862 -2.9905
  234MOL0     O30757   6.714   6.369  10.325  0.0719  0.4291  0.2984
  234MOL0     C30758   6.720   6.262  10.389 -0.5217  0.7329 -0.5477
  234MOL0     O30759   6.841   6.204  10.426  0.8278 -0.2531 -0.6409
  234MOL0     C30760   6.969   6.261  10.415  0.5121  0.6568  0.0386
  234MOL0     C30761   7.005   6.393  10.377 -0.0765  0.3539  0.2966
  234MOL0     C30762   7.136   6.432  10.366 -0.5730 -0.2509 -0.2874
  234MOL0     C30763   7.241   6.351  10.404  0.0880 -0.0033  0.9117
  234MOL0     O30764   7.373   6.388  10.407  0.6457  0.1923 -0.1024
  234MOL0     C30765   7.411   6.529  10.405  0.6544  0.1351 -0.3895
  234MOL0     C30766   7.566   6.532  10.412 -0.0325 -0.1363  0.1047
  234MOL0     C30767   7.617   6.543  10.269 -0.3664  0.2157 -0.3434
  234MOL0     C30768   7.772   6.591  10.267  0.4104  0.0299 -0.2378
  234MOL0     C30769   7.821   6.615  10.128  0.0494 -0.7745 -0.1478
  234MOL0     C30770   7.780   6.753  10.082 -0.0457  0.7763  0.3746
  234MOL0     C30771   7.837   6.772   9.941 -0.6452  0.6450 -0.1404
  234MOL0     C30772   7.813   6.908   9.881  0.7782  0.1043 -0.0349
  234MOL0     N30773   7.666   6.927   9.854  0.1576 -0.2430 -0.2338
  234MOL0     C30774   7.593   6.824   9.799  0.6686  0.5936  0.2295
  234MOL0     C30775   7.467   6.870   9.799 -0.7368 -0.0524  0.0921
  234MOL0     C30776   7.351   6.780   9.770 -0.6714  0.2215  0.0699
  234MOL0     C30777   7.278   6.843   9.653 -0.3019  0.5762 -0.5032
  234MOL0     C30778   7.156   6.757   9.622  0.0779 -0.6989 -0.3670
  234MOL0     C30779   7.088   6.793   9.491 -0.2135 -0.4918  0.9542
  234MOL0     O30780   7.008   6.910   9.487  0.3813 -0.3169  0.8412
  234MOL0     C30781   6.884   6.909   9.546 -0.0048  0.8771  0.2726
  234MOL0     C30782   6.816   7.027   9.554 -0.5864 -0.7599 -0.2633
  234MOL0     C30783   6.705   7.047   9.630 -0.4200 -0.3542 -1.0282
  234MOL0     C30784   6.642   6.934   9.680  0.0189 -0.5248  0.1535
  234MOL0     C30785   6.506   6.961   9.736 -0.5832  0.6538 -0.3102
  234MOL0     O30786   6.451   7.086   9.723 -0.5134 -0.3550 -0.8786
  234MOL0     C30787   6.329   7.102   9.783  0.8128  0.5788 -0.9614
  234MOL0     C30788   6.318   7.184   9.901 -0.0023  0.1134  0.1011
  234MOL0     C30789   6.194   7.212   9.958 -0.2513  0.7053 -0.2430
  234MOL0     C30790   6.075   7.169   9.899  1.0306 -1.2548  0.0201
  234MOL0     O30791   5.948   7.196   9.946  0.8046  0.2286 -0.5562
  234MOL0     C30792   5.943   7.256  10.077  0.3426 -0.6263  0.0133
  234MOL0     C30793   5.794   7.261  10.114  0.1370  0.0970 -0.6257
  234MOL0     C30794   5.700   7.304  10.003 -0.2831 -0.7920 -0.2524
  234MOL0     C30795   5.550   7.302  10.050  0.2437 -0.3391  0.6152
  234MOL0     C30796   5.440   7.385   9.957  0.0003  1.2551 -0.1759
  234MOL0     C30797   5.304   7.319   9.967 -0.1387  0.5137 -0.3358
  234MOL0     C30798   5.218   7.373  10.083 -0.3812  0.1548 -1.3679
  234MOL0     C30799   5.097   7.279  10.125  0.2055  0.3423  0.3908
  234MOL0    Cl30800   4.962   7.277  10.000  0.2889  0.1438 -0.2445
  234MOL0     C30801   6.083   7.098   9.778 -0.6192 -0.0863 -0.1910
  234MOL0     C30802   6.211   7.056   9.730 -0.4520 -0.0340 -0.3111
  234MOL0     O30803   6.454   6.861   9.793 -0.1202  0.2953 -0.1364
  234MOL0     C30804   6.709   6.811   9.684  0.1068  0.2733 -0.2448
  234MOL0     C30805   6.828   6.802   9.619  0.4834 -0.5712 -0.4331
  234MOL0     N30806   7.468   6.999   9.848  0.5886 -0.2130  0.0355
  234MOL0     N30807   7.589   7.030   9.882 -0.0508  0.3533  0.0143
  234MOL0     C30808   7.205   6.221  10.446  0.2803  0.7082  0.8760
  234MOL0     C30809   7.070   6.176  10.447 -1.3166 -0.5400 -0.6311
  234MOL0     C30810   6.589   6.200  10.431  0.9136 -0.1560  0.2863
  234MOL0     C30811   6.461   6.265  10.415 -0.2238  0.3805  0.0934
  234MOL0     C30812   6.347   6.193  10.443  0.1215 -0.8558 -0.2172
  234MOL0     C30813   6.349   6.064  10.496  0.1620  0.1790 -0.6331
  234MOL0     O30814   6.233   5.995  10.521 -0.0918 -0.0776  0.0315
  234MOL0     C30815   6.109   6.046  10.465 -0.2396 -0.3335 -0.4172
  234MOL0     C30816   6.001   5.942  10.469  0.1763  0.2219 -0.1822
  234MOL0     C30817   6.001   5.866  10.606 -0.3794  0.8922 -0.0571
  234MOL0     C30818   5.859   5.799  10.635  1.0398 -0.4463  0.2781
  234MOL0     C30819   5.869   5.701  10.748  0.4344  0.6289 -0.0403
  234MOL0     C30820   5.870   5.632  10.842  0.0173  0.7922 -0.6438
  234MOL0     C30821   6.474   6.011  10.533 -0.2905 -0.4143  0.6707
  234MOL0     C30822   6.594   6.075  10.496  0.4996 -0.0407 -1.2101
  234MOL0     H30823   6.926   6.463  10.355  0.0654  0.3418 -0.2829
  234MOL0     H30824   7.150   6.533  10.330 -0.3952  0.2417  1.1069
  234MOL0     H30825   7.354   6.572  10.488  1.4665 -0.3504  0.4384
  234MOL0     H30826   7.375   6.573  10.311  1.0094  0.4354 -0.3876
  234MOL0     H30827   7.603   6.435  10.445 -2.3906 -1.4751 -0.9367
  234MOL0     H30828   7.601   6.613  10.476  0.4456 -1.5515  1.7126
  234MOL0     H30829   7.556   6.616  10.214 -0.4388  1.3661  1.2080
  234MOL0     H30830   7.593   6.442  10.235 -1.6646 -0.9092  3.4073
  234MOL0     H30831   7.773   6.683  10.325  1.2013  0.2352 -0.5608
  234MOL0     H30832   7.828   6.510  10.314 -0.2730 -1.0395 -1.1945
  234MOL0     H30833   7.766   6.552  10.058 -3.2718  0.2407  1.3188
  234MOL0     H30834   7.929   6.613  10.113  0.0049  1.8467 -1.3981
  234MOL0     H30835   7.822   6.823  10.155 -0.9191  0.7757  0.8898
  234MOL0     H30836   7.672   6.761  10.100 -0.5542 -2.5291 -0.5711
  234MOL0     H30837   7.945   6.756   9.941 -0.4743  1.6286  1.1626
  234MOL0     H30838   7.798   6.694   9.875  1.9021 -2.1470  1.4461
  234MOL0     H30839   7.861   6.916   9.783  1.6384 -0.5112  0.3239
  234MOL0     H30840   7.851   6.975   9.959 -0.7738 -0.2077  1.0478
  234MOL0     H30841   7.627   6.734   9.750  0.7800  1.8006 -2.0596
  234MOL0     H30842   7.286   6.784   9.858 -0.5357  1.0823  0.1427
  234MOL0     H30843   7.388   6.679   9.752  0.8074  0.6129  0.7443
  234MOL0     H30844   7.343   6.849   9.566 -0.7398 -0.6783 -0.9439
  234MOL0     H30845   7.237   6.939   9.685 -2.6284 -0.6502  0.4632
  234MOL0     H30846   7.186   6.652   9.616 -0.6638 -1.0528  1.4010
  234MOL0     H30847   7.085   6.762   9.705  1.0514 -0.8682  0.4905
  234MOL0     H30848   7.019   6.713   9.464 -0.8938 -0.1421  1.6239
  234MOL0     H30849   7.162   6.804   9.411  0.6962 -3.3008  1.3036
  234MOL0     H30850   6.868   7.113   9.512 -2.0013  0.3310  0.1460
  234MOL0     H30851   6.660   7.143   9.651 -1.7305 -1.2078  0.3049
  234MOL0     H30852   6.413   7.222   9.937 -0.2616 -1.0137  2.1147
  234MOL0     H30853   6.198   7.265  10.053  1.5118  1.7924 -0.8687
  234MOL0     H30854   5.991   7.353  10.066 -3.6076  1.4531 -0.6789
  234MOL0     H30855   5.997   7.203  10.156  1.8246 -0.1821 -0.6630
  234MOL0     H30856   5.796   7.332  10.198  2.7091 -0.5200 -0.0862
  234MOL0     H30857   5.766   7.164  10.157 -0.5404  0.4638 -0.2202
  234MOL0     H30858   5.719   7.248   9.911  0.4315 -1.9601  0.5704
  234MOL0     H30859   5.727   7.405   9.970 -0.8875  0.0014  1.5836
  234MOL0     H30860   5.508   7.202  10.063 -2.3722  0.3226 -1.8586
  234MOL0     H30861   5.554   7.348  10.150 -0.4582  1.8907 -0.3233
  234MOL0     H30862   5.476   7.388   9.854 -0.9361  1.6149 -0.4967
  234MOL0     H30863   5.428   7.491   9.980 -0.3303  1.1772  0.0128
  234MOL0     H30864   5.322   7.212   9.983  0.4360  0.6688  0.0785
  234MOL0     H30865   5.250   7.328   9.872  1.7716  0.2217 -1.4992
  234MOL0     H30866   5.275   7.380  10.176  0.1711 -0.9817 -1.5916
  234MOL0     H30867   5.177   7.468  10.047  2.4753  0.9534 -2.8583
  234MOL0     H30868   5.063   7.316  10.223 -0.4154 -2.8881  1.5366
  234MOL0     H30869   5.132   7.178  10.150  0.0764 -0.6502 -3.0523
  234MOL0     H30870   5.992   7.064   9.729 -0.4544 -1.5035  0.4225
  234MOL0     H30871   6.199   6.992   9.643 -3.2825 -2.0471  1.3825
  234MOL0     H30872   6.667   6.713   9.705  4.4137 -1.8748 -0.5521
  234MOL0     H30873   6.851   6.699   9.595  0.2791 -0.4594 -1.1472
  234MOL0     H30874   7.280   6.143  10.459 -3.0732 -3.9632 -3.5526
  234MOL0     H30875   7.041   6.076  10.478 -1.9193  0.4390  2.2955
  234MOL0     H30876   6.451   6.361  10.364 -3.4310 -1.0568 -2.3886
  234MOL0     H30877   6.253   6.239  10.415 -0.1108 -0.5717  0.9728
  234MOL0     H30878   6.137   6.073  10.363 -1.0973  1.0000 -0.3319
  234MOL0     H30879   6.069   6.134  10.517 -1.9213 -1.2707 -0.0400
  234MOL0     H30880   5.908   5.996  10.452  0.9049  2.2552  1.7898
  234MOL0     H30881   6.030   5.871  10.390 -0.6997  0.1152 -0.4126
  234MOL0     H30882   6.027   5.923  10.696 -0.7943  0.3494  0.4195
  234MOL0     H30883   6.072   5.783  10.603 -1.8298 -0.4806  1.3655
  234MOL0     H30884   5.798   5.878  10.682 -0.7702 -0.2008 -2.3010
  234MOL0     H30885   5.803   5.768  10.547 -1.5300 -0.1310  1.7017
  234MOL0     H30886   5.882   5.571  10.929 -1.0635  1.2031 -0.1913
  234MOL0     H30887   6.475   5.915  10.583  0.7224  0.4747  2.4931
  234MOL0     H30888   6.690   6.028  10.514  1.5307  2.7391  1.4444
  235MOL0     O30889   8.705   1.874   8.782 -0.3170  0.6387  0.5432
  235MOL0     C30890   8.720   1.964   8.695  0.8978  0.1384  0.1292
  235MOL0     O30891   8.626   1.998   8.600  0.1837 -0.5160  0.0932
  235MOL0     C30892   8.520   1.914   8.581 -0.0792  0.0282 -0.0234
  235MOL0     C30893   8.386   1.961   8.601  0.2049 -0.3413  0.5199
  235MOL0     C30894   8.280   1.878   8.574  0.0514 -0.0979 -1.4567
  235MOL0     C30895   8.291   1.757   8.520  0.5545  0.2799  0.1630
  235MOL0     O30896   8.191   1.683   8.465 -0.7328 -0.0578 -0.5342
  235MOL0     C30897   8.091   1.644   8.572  0.4092 -0.0899  0.5420
  235MOL0     C30898   7.951   1.602   8.523  0.9741 -0.0573  0.6856
  235MOL0     C30899   7.874   1.553   8.640  0.7740 -0.1757 -0.8011
  235MOL0     C30900   7.720   1.540   8.613 -0.0079 -0.6341  0.6787
  235MOL0     C30901   7.671   1.417   8.536  0.3092 -0.4114  0.6798
  235MOL0     C30902   7.565   1.452   8.433 -0.0849  0.6971  0.0809
  235MOL0     C30903   7.518   1.321   8.357  0.7487 -0.3779 -0.1976
  235MOL0     C30904   7.422   1.334   8.235  0.2290 -0.2810 -0.4123
  235MOL0     N30905   7.288   1.361   8.272  0.4238 -0.0085  0.1942
  235MOL0     C30906   7.221   1.485   8.250 -0.1424  0.2395 -0.9846
  235MOL0     C30907   7.094   1.464   8.280  0.3941  0.0023  0.6087
  235MOL0     C30908   6.980   1.563   8.254 -0.4897  0.3600 -0.0062
  235MOL0     C30909   6.932   1.615   8.391  0.2866 -0.6187  0.2931
  235MOL0     C30910   6.806   1.702   8.358 -0.4378  0.0451  0.4192
  235MOL0     C30911   6.693   1.631   8.304  0.2172  0.1990 -0.8515
  235MOL0     O30912   6.662   1.504   8.366  0.1921  0.1146 -0.4290
  235MOL0     C30913   6.532   1.470   8.347 -0.3508 -0.0944  0.2572
  235MOL0     C30914   6.457   1.415   8.450  0.3193  0.7587 -0.5639
  235MOL0     C30915   6.321   1.373   8.426  0.8594  0.2867  0.1449
  235MOL0     C30916   6.253   1.398   8.310 -0.6034  0.0618  0.8064
  235MOL0     C30917   6.108   1.360   8.299 -0.5306  0.3792 -0.5097
  235MOL0     O30918   6.050   1.329   8.411  0.1594  0.3781 -0.0754
  235MOL0     C30919   5.915   1.324   8.414  0.4951 -0.1801  0.2868
  235MOL0     C30920   5.864   1.204   8.456  0.3210 -0.1348 -0.3051
  235MOL0     C30921   5.728   1.176   8.454 -0.2136  0.1049 -0.7267
  235MOL0     C30922   5.636   1.257   8.384 -0.4477 -0.6343  0.1961
  235MOL0     O30923   5.509   1.233   8.357  0.3305  0.2572  0.3647
  235MOL0     C30924   5.442   1.110   8.395 -0.3199 -0.4433 -0.3763
  235MOL0     C30925   5.286   1.110   8.359 -0.0531 -0.5257  0.2789
  235MOL0     C30926   5.224   0.987   8.417 -0.3039 -0.8152  0.8991
  235MOL0     C30927   5.069   1.004   8.406 -0.9546 -0.5516  0.5365
  235MOL0     C30928   4.997   0.878   8.449  0.2427 -0.1322 -0.0311
  235MOL0     C30929   4.848   0.893   8.412  0.4719 -0.2964  0.9761
  235MOL0     C30930   4.779   0.776   8.474  0.0598  0.8548 -0.0501
  235MOL0     C30931   4.625   0.787   8.497  0.3141 -0.2371 -0.6949
  235MOL0    Cl30932   4.553   0.760   8.334 -0.2878 -0.3331  0.6560
  235MOL0     C30933   5.689   1.387   8.349  1.0550 -0.5351  0.6016
  235MOL0     C30934   5.825   1.419   8.361 -0.4047  0.7647 -0.3434
  235MOL0     O30935   6.051   1.367   8.194 -0.0698  0.5059  0.3688
  235MOL0     C30936   6.328   1.460   8.213  0.7556 -0.0562  0.8420
  235MOL0     C30937   6.458   1.496   8.233 -0.0148 -0.2008  0.8341
  235MOL0     N30938   7.072   1.334   8.322 -0.5721  0.2188  0.3306
  235MOL0     N30939   7.187   1.275   8.318  0.6533  0.3237 -0.8145
  235MOL0     C30940   8.427   1.710   8.506 -0.3046  0.5948 -0.4831
  235MOL0     C30941   8.538   1.784   8.537 -0.5403 -0.1810 -0.2148
  235MOL0     C30942   8.839   2.048   8.707  0.5388 -0.3096  0.2015
  235MOL0     C30943   8.943   2.014   8.797 -0.0086  0.3621  0.2260
  235MOL0     C30944   9.052   2.101   8.823 -0.4252  0.2424 -0.3274
  235MOL0     C30945   9.049   2.227   8.771  0.4785 -0.4430 -0.7003
  235MOL0     O30946   9.143   2.324   8.789  0.5845 -0.1975  0.0355
  235MOL0     C30947   9.254   2.296   8.868  0.8404 -0.8390 -0.3063
  235MOL0     C30948   9.299   2.443   8.905 -0.2351  0.5501 -0.1703
  235MOL0     C30949   9.433   2.444   8.987  0.1583 -0.2204 -0.2342
  235MOL0     C30950   9.486   2.587   8.983 -0.7221 -0.2106  0.3429
  235MOL0     C30951   9.618   2.609   9.048  0.1047 -0.3127 -1.1481
  235MOL0     C30952   9.728   2.621   9.091 -0.9712  0.2670  0.0466
  235MOL0     C30953   8.946   2.260   8.684 -0.0460  0.1716  0.4009
  235MOL0     C30954   8.842   2.177   8.654 -0.2535  0.5522  0.6005
  235MOL0     H30955   8.371   2.064   8.631  1.0251  0.1372 -0.6275
  235MOL0     H30956   8.178   1.910   8.587 -0.0352 -0.8371 -0.1431
  235MOL0     H30957   8.089   1.727   8.643  0.8343 -0.5221  1.0664
  235MOL0     H30958   8.116   1.554   8.629 -0.7167 -0.3514  0.6401
  235MOL0     H30959   7.963   1.517   8.455  2.3786 -0.1290  0.9866
  235MOL0     H30960   7.899   1.686   8.478  2.1052 -0.2879 -1.1712
  235MOL0     H30961   7.892   1.621   8.724 -2.2263  1.1159 -1.0530
  235MOL0     H30962   7.908   1.458   8.683  1.9786  1.4711  2.2190
  235MOL0     H30963   7.666   1.544   8.708  0.4281  1.7463  0.8973
  235MOL0     H30964   7.688   1.617   8.542 -1.6265 -2.1302 -0.3121
  235MOL0     H30965   7.635   1.345   8.610 -0.6432 -0.4835  0.1623
  235MOL0     H30966   7.754   1.370   8.483 -0.2478  0.8180 -1.3707
  235MOL0     H30967   7.617   1.520   8.365  1.2819 -0.7861 -0.4317
  235MOL0     H30968   7.483   1.499   8.488  2.6886  1.1423  4.2794
  235MOL0     H30969   7.609   1.266   8.334  0.2175 -1.2225 -0.3271
  235MOL0     H30970   7.467   1.262   8.433  0.7955  1.1570  1.0741
  235MOL0     H30971   7.417   1.231   8.198 -1.4402 -0.0899 -0.7618
  235MOL0     H30972   7.462   1.398   8.156  0.1120  0.5822  0.2184
  235MOL0     H30973   7.260   1.581   8.217  0.5693 -0.4661 -2.2804
  235MOL0     H30974   6.913   1.498   8.197 -0.2118 -0.2985  0.4057
  235MOL0     H30975   7.023   1.641   8.191 -2.3499 -0.0123 -1.8266
  235MOL0     H30976   7.006   1.674   8.446 -1.9304 -0.0265  2.9079
  235MOL0     H30977   6.898   1.539   8.462 -1.0368 -1.7859 -1.5162
  235MOL0     H30978   6.779   1.743   8.456  4.0589  1.8938  1.1488
  235MOL0     H30979   6.835   1.784   8.291  1.0967 -2.3220 -2.0356
  235MOL0     H30980   6.702   1.618   8.196 -1.6807  1.1562 -1.1649
  235MOL0     H30981   6.603   1.692   8.314  0.5006  1.2647 -3.7479
  235MOL0     H30982   6.509   1.389   8.542  0.5425  0.2742 -0.8266
  235MOL0     H30983   6.280   1.323   8.514  2.8499  1.4155  1.8001
  235MOL0     H30984   5.936   1.142   8.508  1.6430  1.6427  0.0814
  235MOL0     H30985   5.688   1.082   8.490  1.3622 -2.0678 -4.1341
  235MOL0     H30986   5.442   1.105   8.505 -1.0409 -1.3851 -0.3964
  235MOL0     H30987   5.479   1.014   8.358 -1.2729 -0.7286 -0.6184
  235MOL0     H30988   5.273   1.118   8.251  0.7957  0.3812  0.2264
  235MOL0     H30989   5.256   1.200   8.414  0.9842 -0.2684  0.4581
  235MOL0     H30990   5.244   0.979   8.524 -3.2727 -0.4261  1.5809
  235MOL0     H30991   5.258   0.898   8.364  0.5991 -1.1832  2.0778
  235MOL0     H30992   5.039   1.085   8.474 -1.0780 -0.3342  0.2209
  235MOL0     H30993   5.050   1.040   8.305  1.1948  0.9209  0.5843
  235MOL0     H30994   5.007   0.854   8.555 -2.3585 -0.5755  0.1797
  235MOL0     H30995   5.032   0.793   8.390 -0.7853  0.5050 -1.6520
  235MOL0     H30996   4.823   0.911   8.307  3.1612 -4.4797 -0.6629
  235MOL0     H30997   4.821   0.984   8.466  1.2246  0.2047  0.5252
  235MOL0     H30998   4.793   0.692   8.404 -4.2116  1.3985 -1.8187
  235MOL0     H30999   4.820   0.749   8.571  1.3444  2.2865 -0.1514
  235MOL0     H31000   4.595   0.883   8.542  2.2499  0.4324 -0.7507
  235MOL0     H31001   4.607   0.710   8.573 -0.6474  0.5961 -0.0512
  235MOL0     H31002   5.626   1.449   8.286  3.7935 -0.6248 -2.5044
  235MOL0     H31003   5.859   1.517   8.331  0.6376  1.1104  1.7639
  235MOL0     H31004   6.297   1.475   8.110  0.7406 -1.0681  0.6932
  235MOL0     H31005   6.511   1.530   8.144 -0.8239 -0.0620  0.3934
  235MOL0     H31006   8.441   1.625   8.440  1.9845  0.0989  0.5693
  235MOL0     H31007   8.636   1.744   8.513 -0.6545  0.7241 -2.4098
  235MOL0     H31008   8.936   1.919   8.848 -0.5216  0.0161 -0.4615
  235MOL0     H31009   9.135   2.078   8.889 -0.0981  1.7055 -0.1948
  235MOL0     H31010   9.326   2.236   8.812 -1.4337 -4.2142  0.1133
  235MOL0     H31011   9.229   2.244   8.961  2.8678 -0.7780  0.3348
  235MOL0     H31012   9.321   2.506   8.818  2.9837  1.1454  0.9292
  235MOL0     H31013   9.224   2.492   8.967 -0.2609 -0.2486  0.4361
  235MOL0     H31014   9.509   2.378   8.943  2.0228  0.6513  1.5554
  235MOL0     H31015   9.425   2.414   9.092  0.1402  0.7101  0.0327
  235MOL0     H31016   9.496   2.613   8.878 -2.0361  2.2402  0.7450
  235MOL0     H31017   9.411   2.649   9.032  0.4274  0.6853  1.0385
  235MOL0     H31018   9.822   2.632   9.141  0.3639  1.0249 -2.4583
  235MOL0     H31019   8.943   2.361   8.644 -2.2979  0.3258  0.8008
  235MOL0     H31020   8.761   2.213   8.592 -2.2685 -3.5264  0.4838
  236MOL0     O31021   1.216   7.129   1.275 -0.0463  0.2788 -1.5188
  236MOL0     C31022   1.164   7.239   1.247  0.4716  0.2091 -0.1878
  236MOL0     O31023   1.030   7.253   1.196 -0.4942  0.6121 -0.7035
  236MOL0     C31024   0.941   7.149   1.180 -0.1272  0.3652 -0.8719
  236MOL0     C31025   0.976   7.021   1.152 -0.9826 -0.7522  0.4988
  236MOL0     C31026   0.886   6.917   1.134  0.3196  0.2113 -0.6523
  236MOL0     C31027   0.748   6.950   1.153  0.1602 -0.2138 -0.5081
  236MOL0     O31028   0.667   6.853   1.108  0.6130 -0.2841 -0.0843
  236MOL0     C31029   0.531   6.879   1.131 -0.1445 -0.5928  0.6221
  236MOL0     C31030   0.440   6.745   1.122 -0.8191  0.2743  0.2069
  236MOL0     C31031   0.289   6.775   1.140  0.1352  0.3248  0.8970
  236MOL0     C31032   0.219   6.649   1.120  0.7302  0.6883 -0.1590
  236MOL0     C31033   0.065   6.670   1.110 -0.9858  0.5254  0.1590
  236MOL0     C31034   0.000   6.540   1.062  0.0199 -0.0261 -0.5545
  236MOL0     C31035  -0.153   6.560   1.043 -0.3256  0.7965 -0.3419
  236MOL0     C31036  -0.235   6.573   1.174 -0.5679 -0.0362  0.7355
  236MOL0     N31037  -0.370   6.621   1.133 -0.4859  0.2803 -0.1824
  236MOL0     C31038  -0.396   6.750   1.113 -0.2251  0.5099  0.0512
  236MOL0     C31039  -0.529   6.757   1.072  0.1251 -0.0482  0.6423
  236MOL0     C31040  -0.605   6.870   1.019 -0.2123  0.5146  0.8930
  236MOL0     C31041  -0.759   6.866   1.035  0.0150  0.4870 -0.6790
  236MOL0     C31042  -0.805   7.012   1.038  0.6427 -0.0424 -0.0249
  236MOL0     C31043  -0.801   7.081   0.898  0.5837 -0.1699 -0.8279
  236MOL0     O31044  -0.856   7.016   0.786 -0.1034 -0.5544 -0.1845
  236MOL0     C31045  -0.991   7.012   0.784 -0.0240 -0.2082  0.9849
  236MOL0     C31046  -1.041   6.900   0.711 -0.2239  0.3282 -0.7208
  236MOL0     C31047  -1.172   6.869   0.712  0.0226  0.1419  0.7325
  236MOL0     C31048  -1.265   6.940   0.781  0.1739  0.5657 -0.5064
  236MOL0     C31049  -1.410   6.904   0.775  0.5009 -0.0530 -0.0960
  236MOL0     O31050  -1.438   6.786   0.715  0.3967 -0.3937  1.1753
  236MOL0     C31051  -1.563   6.733   0.679 -0.4311 -0.8500 -0.5301
  236MOL0     C31052  -1.561   6.626   0.585 -0.9194  0.3852 -0.0822
  236MOL0     C31053  -1.674   6.582   0.531  0.7236  0.1767 -0.2887
  236MOL0     C31054  -1.799   6.626   0.581 -0.5162  0.1262 -0.9105
  236MOL0     O31055  -1.922   6.581   0.530  0.3910 -0.2711  0.4409
  236MOL0     C31056  -1.938   6.458   0.455 -0.8346 -0.3345  0.4228
  236MOL0     C31057  -2.081   6.431   0.426  0.6360 -0.4838 -0.7824
  236MOL0     C31058  -2.162   6.406   0.552 -0.1767  0.7359 -0.9887
  236MOL0     C31059  -2.300   6.356   0.517 -0.4646  0.4957 -0.3836
  236MOL0     C31060  -2.402   6.369   0.633 -0.2074 -0.3635  0.1315
  236MOL0     C31061  -2.541   6.376   0.588  0.7669  0.0456  1.1985
  236MOL0     C31062  -2.610   6.247   0.580 -0.6683 -0.2780  0.2504
  236MOL0     C31063  -2.716   6.246   0.463  0.5055 -0.6591 -0.6977
  236MOL0    Cl31064  -2.851   6.374   0.497 -0.2544  0.1328 -0.0792
  236MOL0     C31065  -1.803   6.722   0.685 -0.3451  0.1332  0.2359
  236MOL0     C31066  -1.684   6.781   0.730  0.0987 -0.3155 -0.1214
  236MOL0     O31067  -1.489   6.988   0.806  0.5975 -0.1104 -0.6681
  236MOL0     C31068  -1.222   7.059   0.852 -0.0928  0.0590 -0.0904
  236MOL0     C31069  -1.088   7.096   0.846  0.3863  0.1936  0.0391
  236MOL0     N31070  -0.582   6.631   1.077 -0.3227 -0.4459 -0.8219
  236MOL0     N31071  -0.493   6.553   1.119  1.0896  0.1007 -0.3282
  236MOL0     C31072   0.714   7.085   1.179 -0.0847 -1.3105  0.7543
  236MOL0     C31073   0.806   7.180   1.195 -0.5215 -0.5682 -0.5586
  236MOL0     C31074   1.251   7.360   1.255  0.8867  0.3712  0.2574
  236MOL0     C31075   1.205   7.475   1.189 -0.2931  0.6244 -0.9309
  236MOL0     C31076   1.282   7.592   1.193  0.7475  0.5269 -0.2228
  236MOL0     C31077   1.408   7.589   1.257  0.3563  0.6680 -0.8005
  236MOL0     O31078   1.471   7.709   1.268  0.3627 -0.2348 -0.1538
  236MOL0     C31079   1.611   7.712   1.302  0.1534 -0.5374 -0.3037
  236MOL0     C31080   1.621   7.739   1.454  0.2031 -0.2908  0.3540
  236MOL0     C31081   1.771   7.742   1.500 -0.1177 -0.9862 -0.1394
  236MOL0     C31082   1.776   7.786   1.643  0.3378 -0.3254 -0.4977
  236MOL0     C31083   1.864   7.904   1.657 -0.7942  0.0448  0.7256
  236MOL0     C31084   1.917   8.014   1.662 -0.2659 -0.3669 -0.3880
  236MOL0     C31085   1.451   7.472   1.328 -0.5065 -0.7262 -0.4573
  236MOL0     C31086   1.374   7.356   1.318 -0.3958  0.0072 -0.4735
  236MOL0     H31087   1.080   7.008   1.125 -1.1427  0.3122 -0.7654
  236MOL0     H31088   0.904   6.819   1.091 -1.1070 -2.1476  3.5223
  236MOL0     H31089   0.487   6.945   1.056 -0.3679 -1.0018  0.3892
  236MOL0     H31090   0.507   6.923   1.228 -0.9587 -0.0353  0.1725
  236MOL0     H31091   0.464   6.669   1.196  0.3277 -0.1560 -0.5782
  236MOL0     H31092   0.458   6.700   1.024  0.4647  2.4422 -0.6446
  236MOL0     H31093   0.267   6.846   1.059 -1.1218  0.0444  0.9662
  236MOL0     H31094   0.285   6.818   1.240  2.8719  0.1136  1.1821
  236MOL0     H31095   0.252   6.583   1.039 -1.1267 -1.6882  0.9199
  236MOL0     H31096   0.228   6.591   1.212 -2.4595  0.1121 -0.1097
  236MOL0     H31097   0.038   6.747   1.037 -3.7072  0.0742  0.5688
  236MOL0     H31098   0.020   6.692   1.207 -0.6386 -0.6939  0.6128
  236MOL0     H31099   0.028   6.458   1.130  1.4899  0.2381 -0.8086
  236MOL0     H31100   0.032   6.506   0.963 -1.3207 -1.1758 -0.6263
  236MOL0     H31101  -0.177   6.638   0.970  1.5280  0.5493 -1.2725
  236MOL0     H31102  -0.181   6.465   0.998  2.7633 -1.7857  2.6121
  236MOL0     H31103  -0.195   6.645   1.246  0.8204  2.6027 -2.4575
  236MOL0     H31104  -0.237   6.473   1.219 -1.9237 -1.0404 -1.4003
  236MOL0     H31105  -0.323   6.830   1.116  1.1105 -0.5432 -2.1519
  236MOL0     H31106  -0.594   6.876   0.911  3.8761  2.4109  1.2177
  236MOL0     H31107  -0.562   6.960   1.064  2.1012  0.0557 -0.2589
  236MOL0     H31108  -0.785   6.826   1.134 -1.8275 -0.5659 -1.5474
  236MOL0     H31109  -0.801   6.803   0.957  1.9913 -0.2549 -1.1957
  236MOL0     H31110  -0.912   7.003   1.058  0.9049 -1.1465  0.9640
  236MOL0     H31111  -0.773   7.083   1.115  0.3294  0.1440 -0.0632
  236MOL0     H31112  -0.695   7.099   0.877  1.0308  1.7906  2.3466
  236MOL0     H31113  -0.851   7.179   0.900 -0.6998 -0.8140  0.4574
  236MOL0     H31114  -0.972   6.840   0.653  2.3500  0.5165  1.8795
  236MOL0     H31115  -1.207   6.782   0.656 -0.9306  0.1709  1.2559
  236MOL0     H31116  -1.461   6.595   0.557 -1.4401 -2.2476  0.6942
  236MOL0     H31117  -1.680   6.506   0.454  0.1258 -0.1645  0.0857
  236MOL0     H31118  -1.921   6.372   0.520  0.2490  1.1788  2.2567
  236MOL0     H31119  -1.865   6.450   0.374 -1.5188  0.2663 -0.2586
  236MOL0     H31120  -2.103   6.344   0.362 -4.5468  0.5904 -0.8728
  236MOL0     H31121  -2.117   6.524   0.381  1.2579  0.0422 -0.2170
  236MOL0     H31122  -2.172   6.493   0.617  1.5620 -0.8179  1.5372
  236MOL0     H31123  -2.126   6.328   0.619 -0.1253  0.2557 -1.5644
  236MOL0     H31124  -2.343   6.405   0.429 -0.6920  0.9903  0.0052
  236MOL0     H31125  -2.295   6.251   0.485 -0.2846 -0.5995  2.9180
  236MOL0     H31126  -2.379   6.461   0.687 -0.3371  0.3353 -0.9956
  236MOL0     H31127  -2.383   6.295   0.712  1.7251  1.0688  1.0942
  236MOL0     H31128  -2.541   6.432   0.494 -2.1442 -1.1831  0.3586
  236MOL0     H31129  -2.591   6.449   0.652 -0.9151  2.4895 -2.5297
  236MOL0     H31130  -2.530   6.174   0.566 -1.6224 -1.3831  0.3945
  236MOL0     H31131  -2.660   6.212   0.671 -0.9915 -0.3823  0.0354
  236MOL0     H31132  -2.763   6.147   0.459 -0.0236 -0.3709 -3.0415
  236MOL0     H31133  -2.665   6.263   0.368  2.5530 -1.5764  0.1842
  236MOL0     H31134  -1.890   6.761   0.737  0.8075  1.6872  1.0840
  236MOL0     H31135  -1.674   6.860   0.804  1.3662  1.4914 -2.1252
  236MOL0     H31136  -1.286   7.130   0.903  0.0093  1.5112 -1.9117
  236MOL0     H31137  -1.073   7.189   0.900  3.4884  0.1518 -0.5925
  236MOL0     H31138   0.610   7.116   1.183 -0.3309 -2.1517  1.0053
  236MOL0     H31139   0.790   7.281   1.231  1.2160 -0.6207  0.4977
  236MOL0     H31140   1.111   7.471   1.134 -0.4512 -0.4614 -0.5989
  236MOL0     H31141   1.268   7.689   1.144  3.6630  2.1763  1.9312
  236MOL0     H31142   1.652   7.800   1.252  0.3361 -0.4664 -0.0339
  236MOL0     H31143   1.668   7.623   1.275  1.8179  0.0486  1.0704
  236MOL0     H31144   1.575   7.833   1.484  0.7525 -0.4605  1.7807
  236MOL0     H31145   1.569   7.660   1.508 -2.6738  2.0671  1.2779
  236MOL0     H31146   1.807   7.824   1.437 -1.7529  2.3243  2.8862
  236MOL0     H31147   1.820   7.646   1.480  5.9498  1.0229  2.6231
  236MOL0     H31148   1.679   7.826   1.675  1.5369  1.1797  1.4553
  236MOL0     H31149   1.804   7.710   1.716  1.3712  0.0360 -0.5084
  236MOL0     H31150   1.942   8.118   1.667 -3.5559  0.6702 -2.4982
  236MOL0     H31151   1.542   7.474   1.387 -1.5006  2.1603  1.1462
  236MOL0     H31152   1.398   7.269   1.379 -1.1275  1.4416  1.9824
  237MOL0     O31153   6.673   6.946   3.970  0.7589  0.1399  0.7206
  237MOL0     C31154   6.728   6.903   4.070 -0.0845  0.1392 -0.2024
  237MOL0     O31155   6.670   6.824   4.164 -0.0649  0.3761  0.5178
  237MOL0     C31156   6.531   6.804   4.149 -0.3545 -0.0236  0.0389
  237MOL0     C31157   6.447   6.844   4.257 -0.0355 -0.6452  0.9714
  237MOL0     C31158   6.307   6.838   4.250 -0.3241 -0.1710  0.2242
  237MOL0     C31159   6.250   6.774   4.137  0.7996 -0.6064  0.5078
  237MOL0     O31160   6.118   6.753   4.145  0.3058  0.1103  0.2788
  237MOL0     C31161   6.034   6.693   4.044  0.1204 -0.7524  0.1898
  237MOL0     C31162   5.897   6.685   4.103  0.0223  0.7429  0.0530
  237MOL0     C31163   5.830   6.813   4.140  0.9075 -1.7716  0.6984
  237MOL0     C31164   5.814   6.905   4.022 -0.3456  0.1327 -0.2974
  237MOL0     C31165   5.722   7.016   4.051 -0.1768 -0.1153 -0.0673
  237MOL0     C31166   5.574   6.985   4.024 -0.1299  0.0916 -0.2230
  237MOL0     C31167   5.493   7.110   4.017  0.7005  0.1093  0.5147
  237MOL0     C31168   5.344   7.084   3.990  0.1934 -0.4398  0.3992
  237MOL0     N31169   5.282   7.029   4.115  0.3423  0.6180 -0.4278
  237MOL0     C31170   5.258   6.895   4.135 -0.1352  0.6239 -0.6849
  237MOL0     C31171   5.231   6.881   4.266  0.4671  0.8496  0.1493
  237MOL0     C31172   5.172   6.754   4.312  0.0253 -0.4288 -0.5802
  237MOL0     C31173   5.013   6.759   4.296 -0.7358 -0.4192  0.6824
  237MOL0     C31174   4.944   6.630   4.298  0.4359  0.8258  0.4076
  237MOL0     C31175   4.798   6.644   4.307 -0.2960 -0.6625 -0.5557
  237MOL0     O31176   4.746   6.515   4.316  0.3479  0.1320  0.4995
  237MOL0     C31177   4.611   6.507   4.306 -0.6644  0.2136  0.2411
  237MOL0     C31178   4.572   6.374   4.310  0.4176 -0.5688  0.1340
  237MOL0     C31179   4.431   6.354   4.305 -0.3360  0.3738 -0.4357
  237MOL0     C31180   4.338   6.456   4.315  0.4344 -0.7672  0.4133
  237MOL0     C31181   4.189   6.431   4.321 -0.0199 -0.0136 -0.0404
  237MOL0     O31182   4.155   6.300   4.293 -0.1171 -0.3904 -0.8140
  237MOL0     C31183   4.023   6.268   4.269 -0.0893  0.0329 -0.0275
  237MOL0     C31184   3.932   6.256   4.378 -0.2054 -0.1564  0.0643
  237MOL0     C31185   3.803   6.210   4.365 -0.1170  0.2669 -0.7795
  237MOL0     C31186   3.758   6.168   4.243 -0.1101  0.4461 -0.0024
  237MOL0     O31187   3.639   6.097   4.221 -0.1906  0.0668 -0.1271
  237MOL0     C31188   3.520   6.163   4.271 -0.2132  0.4814  0.2054
  237MOL0     C31189   3.407   6.090   4.189  0.0971 -0.1758  0.5439
  237MOL0     C31190   3.276   6.162   4.213  0.5112  0.1506  0.5210
  237MOL0     C31191   3.186   6.150   4.093  0.2714 -0.5995  0.2297
  237MOL0     C31192   3.044   6.198   4.115 -1.2689 -0.0964  0.0565
  237MOL0     C31193   2.974   6.139   4.243 -0.9008 -0.4755  0.5611
  237MOL0     C31194   2.822   6.153   4.231  0.8771 -1.0038  0.2363
  237MOL0     C31195   2.754   6.046   4.315  0.1329 -0.3401  0.8095
  237MOL0    Cl31196   2.621   6.129   4.405 -0.3004 -0.1927  0.1141
  237MOL0     C31197   3.838   6.185   4.132  0.2222 -0.4043  0.2742
  237MOL0     C31198   3.967   6.230   4.144  0.4505 -1.0429 -1.6180
  237MOL0     O31199   4.113   6.524   4.333  0.3902 -0.2598 -0.3618
  237MOL0     C31200   4.395   6.587   4.319  0.3935 -1.2868  0.1625
  237MOL0     C31201   4.526   6.609   4.302 -0.1631 -0.6143  0.1465
  237MOL0     N31202   5.248   7.001   4.324 -0.3583  0.3673  0.0947
  237MOL0     N31203   5.284   7.087   4.236 -0.5234 -0.3993  0.6585
  237MOL0     C31204   6.326   6.725   4.033 -0.0255  0.3570 -0.1668
  237MOL0     C31205   6.465   6.750   4.036  1.1159 -0.2155 -0.4966
  237MOL0     C31206   6.860   6.947   4.103 -0.1570  0.3218  0.3451
  237MOL0     C31207   6.932   7.041   4.027  0.0900 -0.2232  0.1949
  237MOL0     C31208   7.068   7.067   4.053  0.4000 -0.1936 -0.0580
  237MOL0     C31209   7.130   7.011   4.163  0.9753 -0.1242 -0.3859
  237MOL0     O31210   7.251   7.051   4.223  0.6785  0.2399 -0.4081
  237MOL0     C31211   7.321   7.157   4.154 -0.1204  0.2170  0.3819
  237MOL0     C31212   7.397   7.107   4.019  0.3474  0.5007 -0.5758
  237MOL0     C31213   7.505   7.013   4.067 -1.1232  0.0633 -0.0903
  237MOL0     C31214   7.609   6.991   3.948 -0.1388  0.0284 -0.4582
  237MOL0     C31215   7.695   6.873   3.972  0.5334  0.1869 -0.1321
  237MOL0     C31216   7.762   6.770   4.001  0.0121 -0.0940  0.1327
  237MOL0     C31217   7.067   6.919   4.245 -0.3328 -0.1561 -0.2342
  237MOL0     C31218   6.928   6.892   4.217 -0.1678  0.7061 -0.3452
  237MOL0     H31219   6.499   6.874   4.348  2.9642 -0.6666 -0.5792
  237MOL0     H31220   6.253   6.888   4.330 -0.6661 -0.5637  0.2432
  237MOL0     H31221   6.053   6.588   4.019 -2.0402 -0.6524 -2.3306
  237MOL0     H31222   6.029   6.752   3.952  1.0473 -1.7359 -0.5059
  237MOL0     H31223   5.902   6.622   4.192  1.7197  0.7295 -0.0198
  237MOL0     H31224   5.837   6.633   4.027 -1.0845  1.1292  0.6598
  237MOL0     H31225   5.895   6.853   4.218 -0.4674  2.0593  0.0877
  237MOL0     H31226   5.729   6.796   4.180 -0.3629  3.5645  0.5200
  237MOL0     H31227   5.914   6.947   4.007 -1.1468  2.6097  0.8927
  237MOL0     H31228   5.781   6.856   3.929 -1.6528  3.0313 -1.4945
  237MOL0     H31229   5.737   7.102   3.985 -0.1822  0.9109  1.2353
  237MOL0     H31230   5.732   7.042   4.156 -0.4302  0.5996 -0.2154
  237MOL0     H31231   5.538   6.912   4.096  1.2030 -2.4437 -1.9483
  237MOL0     H31232   5.575   6.926   3.931  3.8626 -1.5766  0.6478
  237MOL0     H31233   5.504   7.164   4.111  1.6487 -1.3868  1.2893
  237MOL0     H31234   5.533   7.176   3.939  1.1472  0.6841  1.2208
  237MOL0     H31235   5.350   7.017   3.904 -0.8733  0.2034 -0.2037
  237MOL0     H31236   5.285   7.171   3.959  1.8508  0.4613 -0.3707
  237MOL0     H31237   5.254   6.823   4.054  0.7198 -0.3919  0.1429
  237MOL0     H31238   5.203   6.746   4.417  2.8561 -2.5111 -1.4597
  237MOL0     H31239   5.221   6.670   4.263  0.4552 -0.1410 -0.6468
  237MOL0     H31240   4.997   6.801   4.196  0.6436  0.6734  0.8911
  237MOL0     H31241   4.963   6.821   4.372 -0.2653 -3.6377  3.8735
  237MOL0     H31242   4.976   6.572   4.212 -1.4115 -1.9969  1.4808
  237MOL0     H31243   4.983   6.568   4.379  1.7557 -0.5945 -1.2491
  237MOL0     H31244   4.754   6.694   4.220 -3.1578  0.7348  1.5425
  237MOL0     H31245   4.779   6.702   4.398  2.8579 -3.8757  2.4635
  237MOL0     H31246   4.644   6.294   4.299  0.5535 -0.8242  2.5264
  237MOL0     H31247   4.392   6.252   4.300 -0.3211  0.3655 -0.3825
  237MOL0     H31248   3.963   6.304   4.471 -1.1412  3.4541 -1.3012
  237MOL0     H31249   3.738   6.206   4.451  0.8996 -0.0335 -0.0026
  237MOL0     H31250   3.532   6.269   4.249  1.9127  0.2825  0.1953
  237MOL0     H31251   3.497   6.139   4.375  0.0253 -0.5191  0.0395
  237MOL0     H31252   3.395   5.982   4.207  1.8060 -1.5308 -4.6694
  237MOL0     H31253   3.440   6.106   4.086  4.0689 -0.4375  1.6043
  237MOL0     H31254   3.301   6.265   4.241  0.3637  0.0641  0.9881
  237MOL0     H31255   3.237   6.120   4.307  3.8270 -0.3526  1.8101
  237MOL0     H31256   3.227   6.221   4.021  0.0152  0.8540  1.4630
  237MOL0     H31257   3.177   6.050   4.050 -3.6060  0.1005 -0.9175
  237MOL0     H31258   2.992   6.187   4.019  0.2360 -1.1826 -0.6842
  237MOL0     H31259   3.056   6.305   4.131 -0.2455  0.0268 -1.3097
  237MOL0     H31260   3.008   6.202   4.326  0.1325  0.8598 -0.8256
  237MOL0     H31261   3.008   6.035   4.249 -0.9309 -0.5178  0.0414
  237MOL0     H31262   2.784   6.251   4.262 -2.4951 -1.5625 -1.6268
  237MOL0     H31263   2.798   6.145   4.124 -1.6015  0.2108  0.6189
  237MOL0     H31264   2.826   5.995   4.380 -0.5068 -0.7811  1.1771
  237MOL0     H31265   2.712   5.974   4.244  0.5421  0.3637 -0.1763
  237MOL0     H31266   3.802   6.164   4.032 -1.2830  0.3327  0.6221
  237MOL0     H31267   4.034   6.242   4.059  1.3004 -2.6495 -1.2320
  237MOL0     H31268   4.328   6.668   4.345  1.6487 -0.4567  0.9342
  237MOL0     H31269   4.563   6.712   4.302  0.9298 -0.9793  1.6290
  237MOL0     H31270   6.286   6.676   3.945  0.7551 -2.5920  1.0040
  237MOL0     H31271   6.529   6.727   3.951  0.0921  0.9462 -1.6220
  237MOL0     H31272   6.887   7.086   3.939  0.7397  3.7026  1.6512
  237MOL0     H31273   7.124   7.128   3.983 -1.3545  2.5313  0.7489
  237MOL0     H31274   7.387   7.197   4.232 -1.3425  0.1036  1.5239
  237MOL0     H31275   7.246   7.230   4.121  1.0969  0.7427 -1.3029
  237MOL0     H31276   7.325   7.055   3.955 -1.3492  1.6090  0.3527
  237MOL0     H31277   7.439   7.192   3.964 -0.9212  1.4597 -0.1309
  237MOL0     H31278   7.474   6.920   4.115  0.8672  0.8826  3.0729
  237MOL0     H31279   7.565   7.047   4.151 -0.8904 -1.5471  0.4309
  237MOL0     H31280   7.560   6.971   3.852 -0.8068  2.7596 -0.7635
  237MOL0     H31281   7.669   7.082   3.939 -0.4142  0.3844  1.0731
  237MOL0     H31282   7.832   6.692   4.021 -2.2316 -2.3625 -0.3488
  237MOL0     H31283   7.132   6.889   4.326  0.1545  1.0836 -0.1354
  237MOL0     H31284   6.876   6.810   4.267 -2.9278  2.2149 -0.5385
  238MOL0     O31285   0.678   4.590   0.569 -1.0589 -0.0794 -0.6330
  238MOL0     C31286   0.729   4.526   0.479 -0.5040  0.2334 -0.0567
  238MOL0     O31287   0.668   4.428   0.401  0.0132  0.0011  0.0480
  238MOL0     C31288   0.535   4.417   0.427  0.6774 -0.6165 -0.1208
  238MOL0     C31289   0.487   4.309   0.496 -0.0913 -0.3461  0.9162
  238MOL0     C31290   0.355   4.298   0.516  0.2620 -0.3725 -0.0317
  238MOL0     C31291   0.262   4.398   0.472  0.0348 -0.2399 -0.1510
  238MOL0     O31292   0.128   4.378   0.500 -0.0426  0.3531  0.5712
  238MOL0     C31293   0.054   4.497   0.529 -0.4944 -0.6128 -0.1308
  238MOL0     C31294  -0.012   4.526   0.382 -0.1391  0.8954  0.2923
  238MOL0     C31295  -0.159   4.537   0.400  0.6604 -0.2396 -0.5512
  238MOL0     C31296  -0.224   4.588   0.266  0.3495 -0.1124  0.2307
  238MOL0     C31297  -0.381   4.621   0.281  0.3167 -0.0220 -0.2989
  238MOL0     C31298  -0.449   4.509   0.358 -0.8288  0.6133 -0.3139
  238MOL0     C31299  -0.601   4.529   0.354 -0.2139 -0.2103 -0.2829
  238MOL0     C31300  -0.668   4.426   0.436  0.5545  0.1517  0.4235
  238MOL0     N31301  -0.814   4.452   0.448 -0.1675 -0.2651  0.2192
  238MOL0     C31302  -0.912   4.455   0.349 -0.1915 -0.0414  0.3498
  238MOL0     C31303  -1.028   4.492   0.416  0.6848  0.1648  0.6654
  238MOL0     C31304  -1.156   4.514   0.346  0.0646  1.1014  0.8243
  238MOL0     C31305  -1.228   4.381   0.338  0.7820  0.0291  0.2769
  238MOL0     C31306  -1.337   4.388   0.227 -1.3775 -0.4660 -0.6630
  238MOL0     C31307  -1.417   4.264   0.230  0.6411 -0.3894  0.5551
  238MOL0     O31308  -1.517   4.249   0.123 -0.6892 -0.1201  0.4180
  238MOL0     C31309  -1.619   4.337   0.127 -0.4139 -0.5347  0.2546
  238MOL0     C31310  -1.679   4.382   0.242  0.4686  0.5108 -0.5612
  238MOL0     C31311  -1.794   4.472   0.234  0.1899  0.6234 -0.1633
  238MOL0     C31312  -1.832   4.516   0.104  0.4603  0.5293 -0.3805
  238MOL0     C31313  -1.934   4.623   0.079  0.4931  0.1065 -0.5878
  238MOL0     O31314  -1.997   4.660   0.190  0.0270  0.3135 -0.3216
  238MOL0     C31315  -2.107   4.740   0.178 -0.1919 -0.0939 -0.2827
  238MOL0     C31316  -2.078   4.878   0.159  0.3149  0.0444  0.3720
  238MOL0     C31317  -2.187   4.968   0.157  0.8053  0.4435  0.2950
  238MOL0     C31318  -2.322   4.921   0.147 -0.5546  0.3753 -0.7676
  238MOL0     O31319  -2.438   4.989   0.146  0.5591  0.9134 -0.2132
  238MOL0     C31320  -2.462   5.079   0.256  0.3120 -0.3265  0.0457
  238MOL0     C31321  -2.605   5.141   0.262 -0.1592 -0.0897  0.6562
  238MOL0     C31322  -2.632   5.247   0.158 -0.1033  1.4632  0.6867
  238MOL0     C31323  -2.771   5.313   0.175  0.1261  0.7165 -0.0548
  238MOL0     C31324  -2.772   5.432   0.070 -0.5693 -0.1905 -0.9808
  238MOL0     C31325  -2.909   5.483   0.042 -0.2367 -0.0294 -0.0712
  238MOL0     C31326  -2.983   5.377  -0.042 -0.2889 -0.1583  0.6990
  238MOL0     C31327  -3.087   5.443  -0.126  0.9447 -0.5445 -0.2170
  238MOL0    Cl31328  -3.203   5.531  -0.016  0.6899  0.0087 -0.4122
  238MOL0     C31329  -2.346   4.788   0.171  0.1873 -0.7442  0.0273
  238MOL0     C31330  -2.242   4.699   0.179 -0.1204 -0.2226 -0.5689
  238MOL0     O31331  -1.964   4.662  -0.034 -0.0320  0.1883 -0.9892
  238MOL0     C31332  -1.778   4.454  -0.011 -0.9427 -0.1145  0.2015
  238MOL0     C31333  -1.667   4.367  -0.001  0.5846  0.4713  0.1970
  238MOL0     N31334  -1.005   4.499   0.546 -0.2479  0.2033 -0.3805
  238MOL0     N31335  -0.875   4.481   0.565  0.5051  0.4738  0.6425
  238MOL0     C31336   0.315   4.508   0.402  0.2712 -0.3391  0.5377
  238MOL0     C31337   0.455   4.516   0.376  0.0723  0.0860 -0.0116
  238MOL0     C31338   0.872   4.560   0.459 -0.7013  0.0593  0.3414
  238MOL0     C31339   0.952   4.624   0.567 -0.1961  0.3939 -0.2161
  238MOL0     C31340   1.091   4.627   0.558 -0.0477 -0.6775  0.4238
  238MOL0     C31341   1.159   4.592   0.443  0.1332  0.3270  0.0726
  238MOL0     O31342   1.296   4.610   0.430 -0.0920  1.0723  0.5114
  238MOL0     C31343   1.344   4.606   0.296 -0.3811  0.0070  0.2728
  238MOL0     C31344   1.475   4.688   0.287  0.6888  0.7754 -0.1134
  238MOL0     C31345   1.531   4.693   0.148 -0.5509 -0.2942  1.1447
  238MOL0     C31346   1.653   4.781   0.133  0.0247  0.0309  0.2086
  238MOL0     C31347   1.684   4.787  -0.005 -0.4772 -0.0213 -0.2125
  238MOL0     C31348   1.720   4.794  -0.123 -0.3692 -0.7821 -0.2150
  238MOL0     C31349   1.084   4.535   0.338 -0.3469  0.4793 -0.1058
  238MOL0     C31350   0.947   4.513   0.346  0.0509 -0.2854  0.0341
  238MOL0     H31351   0.554   4.230   0.530 -0.1516 -0.2321  1.3111
  238MOL0     H31352   0.325   4.208   0.568  1.3133 -0.4414  0.4825
  238MOL0     H31353   0.111   4.586   0.556 -0.6715 -0.4313 -0.3462
  238MOL0     H31354  -0.027   4.480   0.600 -2.7912  1.3998 -2.0583
  238MOL0     H31355   0.015   4.434   0.328 -0.5555  0.0650  1.4603
  238MOL0     H31356   0.032   4.611   0.329  0.7947 -0.4384 -1.1483
  238MOL0     H31357  -0.177   4.611   0.478 -0.1477 -1.1277  0.1191
  238MOL0     H31358  -0.209   4.447   0.435 -1.2402  0.4521 -1.3385
  238MOL0     H31359  -0.177   4.680   0.231  1.0909 -1.2820 -2.0042
  238MOL0     H31360  -0.205   4.517   0.185  1.4014  1.3840 -0.8786
  238MOL0     H31361  -0.430   4.646   0.186 -1.6761 -0.0120  0.6642
  238MOL0     H31362  -0.394   4.719   0.327  0.0457  1.4429 -3.2646
  238MOL0     H31363  -0.406   4.496   0.457  0.0387 -4.9654 -1.0705
  238MOL0     H31364  -0.416   4.410   0.323 -1.4625 -0.5041  2.0587
  238MOL0     H31365  -0.614   4.627   0.402  2.6995  0.1520 -0.0308
  238MOL0     H31366  -0.635   4.528   0.250 -0.7538 -1.8049 -0.1208
  238MOL0     H31367  -0.621   4.411   0.534  3.5545  0.4912 -0.8566
  238MOL0     H31368  -0.643   4.336   0.380 -2.5320 -0.7040  0.2053
  238MOL0     H31369  -0.898   4.427   0.245 -0.0107 -1.5858  0.7569
  238MOL0     H31370  -1.137   4.558   0.248  2.7534 -0.8712  0.3342
  238MOL0     H31371  -1.209   4.585   0.410 -0.5835  1.3052  0.0763
  238MOL0     H31372  -1.267   4.353   0.436  3.2124 -0.0022  1.2960
  238MOL0     H31373  -1.155   4.303   0.313  1.4133  1.5186 -3.1607
  238MOL0     H31374  -1.412   4.467   0.234 -2.3557 -1.1490 -2.6517
  238MOL0     H31375  -1.291   4.383   0.127 -0.8796 -1.7506 -0.3850
  238MOL0     H31376  -1.469   4.251   0.325 -2.5587  1.2057 -0.8357
  238MOL0     H31377  -1.342   4.185   0.218  0.9965 -0.4969  3.0106
  238MOL0     H31378  -1.645   4.349   0.340 -0.0553  1.5608  0.0028
  238MOL0     H31379  -1.835   4.511   0.327 -2.6995 -0.4190 -0.8935
  238MOL0     H31380  -1.976   4.914   0.167  0.5982 -1.0619  2.3945
  238MOL0     H31381  -2.159   5.072   0.165  1.7408  0.0799  2.8627
  238MOL0     H31382  -2.402   5.170   0.248  2.2462 -1.6513 -1.7180
  238MOL0     H31383  -2.442   5.025   0.349 -1.4872  1.6467  1.6772
  238MOL0     H31384  -2.623   5.166   0.367  1.9291 -0.0899  1.0561
  238MOL0     H31385  -2.678   5.065   0.233  1.4978 -0.4419 -3.0942
  238MOL0     H31386  -2.614   5.197   0.063 -1.6051  1.5567  0.3269
  238MOL0     H31387  -2.552   5.322   0.161 -0.6943  2.1858 -0.5648
  238MOL0     H31388  -2.846   5.235   0.169  2.5926 -1.7735 -0.5886
  238MOL0     H31389  -2.788   5.359   0.273  1.0104 -2.8167  1.9044
  238MOL0     H31390  -2.725   5.403  -0.024 -0.5826 -0.0573 -1.0289
  238MOL0     H31391  -2.716   5.518   0.108  1.7184 -1.2381 -1.8255
  238MOL0     H31392  -2.896   5.579  -0.009  0.9036  0.0730  0.3689
  238MOL0     H31393  -2.958   5.489   0.139 -5.1647 -1.7266 -2.1035
  238MOL0     H31394  -2.913   5.320  -0.104  3.7928  2.1003  2.7765
  238MOL0     H31395  -3.031   5.307   0.027 -0.1870  0.9603  1.9523
  238MOL0     H31396  -3.147   5.372  -0.183 -1.7194 -0.5671  2.3926
  238MOL0     H31397  -3.044   5.516  -0.196  0.6534  0.4849  0.6395
  238MOL0     H31398  -2.452   4.763   0.179 -0.4837  1.9264  0.4042
  238MOL0     H31399  -2.285   4.602   0.200  1.3776 -0.7412  0.1693
  238MOL0     H31400  -1.804   4.499  -0.107 -0.5450  2.1867  1.1079
  238MOL0     H31401  -1.605   4.322  -0.078  2.5570 -0.3214  2.1358
  238MOL0     H31402   0.242   4.576   0.362 -0.9430 -1.1785  1.2466
  238MOL0     H31403   0.486   4.606   0.324 -0.2889  0.5106  0.5032
  238MOL0     H31404   0.896   4.644   0.658 -2.6778 -2.1814 -1.0372
  238MOL0     H31405   1.147   4.661   0.644 -0.6047 -1.8462  1.2833
  238MOL0     H31406   1.269   4.654   0.232 -0.9287 -2.6723 -1.2155
  238MOL0     H31407   1.350   4.504   0.257 -1.8585 -0.7512  1.8510
  238MOL0     H31408   1.445   4.789   0.315 -3.3048  0.1526 -1.5799
  238MOL0     H31409   1.549   4.654   0.361 -3.1170 -0.4722  3.5208
  238MOL0     H31410   1.448   4.721   0.082  0.1374 -4.2308 -1.7235
  238MOL0     H31411   1.559   4.594   0.112 -1.4663 -0.2061  0.1123
  238MOL0     H31412   1.629   4.878   0.178 -0.1060  0.6766 -1.1845
  238MOL0     H31413   1.736   4.737   0.188  0.1160 -0.8373 -0.5959
  238MOL0     H31414   1.755   4.813  -0.222  1.3482  2.8638  0.9034
  238MOL0     H31415   1.134   4.482   0.257  2.8997  2.8026  0.1947
  238MOL0     H31416   0.908   4.461   0.259  2.2446 -1.1549 -0.4861
  239MOL0     O31417   5.571   4.637   3.811  0.3227 -0.9302 -0.4376
  239MOL0     C31418   5.520   4.747   3.829  0.2884 -0.0133  0.1841
  239MOL0     O31419   5.592   4.856   3.870  0.0235 -0.2605 -0.5258
  239MOL0     C31420   5.733   4.864   3.858  0.8442 -0.5676 -0.2073
  239MOL0     C31421   5.807   4.802   3.756  0.1779  0.3941  0.4733
  239MOL0     C31422   5.941   4.819   3.743  0.2070 -0.7526  0.1518
  239MOL0     C31423   6.022   4.893   3.830  0.1542  0.3204 -0.9862
  239MOL0     O31424   6.155   4.887   3.805 -0.6438 -0.3631  0.6309
  239MOL0     C31425   6.241   4.907   3.918  0.1221  0.1819  0.1114
  239MOL0     C31426   6.385   4.850   3.886 -0.7656 -0.2632  0.9399
  239MOL0     C31427   6.449   4.951   3.800 -0.6032  0.4313  0.2402
  239MOL0     C31428   6.499   5.070   3.882 -0.5451  0.2099 -0.5971
  239MOL0     C31429   6.648   5.095   3.871  0.0429 -0.5788 -0.5523
  239MOL0     C31430   6.701   5.223   3.954 -0.4099  0.0072  0.6594
  239MOL0     C31431   6.852   5.221   3.978  0.0315  0.7108  0.4032
  239MOL0     C31432   6.940   5.290   3.879 -0.3120  0.0496 -0.5832
  239MOL0     N31433   6.948   5.225   3.744  0.7460 -0.3779  0.4719
  239MOL0     C31434   6.993   5.102   3.716 -0.7653 -0.5563 -0.0976
  239MOL0     C31435   7.011   5.098   3.583  0.4268  0.6462 -0.3840
  239MOL0     C31436   7.069   4.981   3.514 -0.0684 -0.9220  0.0180
  239MOL0     C31437   6.958   4.902   3.448 -0.5468  0.6349  0.0164
  239MOL0     C31438   6.829   4.849   3.539 -0.0863 -0.4765 -0.1562
  239MOL0     C31439   6.701   4.807   3.460  0.7058  0.6210 -0.3161
  239MOL0     O31440   6.635   4.930   3.440  0.1057 -0.2955 -0.2026
  239MOL0     C31441   6.501   4.934   3.407 -0.7975 -0.3606  0.3145
  239MOL0     C31442   6.415   5.045   3.443 -0.0879 -0.4287  0.6481
  239MOL0     C31443   6.284   5.039   3.406 -0.1539 -0.0112  0.1844
  239MOL0     C31444   6.235   4.930   3.334 -1.0951 -0.4190  0.0313
  239MOL0     C31445   6.085   4.918   3.325  0.5715  0.4078  0.2083
  239MOL0     O31446   6.008   4.993   3.411 -0.6310 -0.0229 -0.6490
  239MOL0     C31447   5.872   4.994   3.408  0.6574  0.6589  0.2135
  239MOL0     C31448   5.813   5.033   3.529 -0.1240  0.1767  0.0225
  239MOL0     C31449   5.675   5.043   3.545  0.4616  0.4146 -0.2780
  239MOL0     C31450   5.594   5.011   3.433  0.4971  0.1146  0.6699
  239MOL0     O31451   5.461   5.011   3.429  0.1795 -0.4471  0.0683
  239MOL0     C31452   5.382   5.068   3.537  0.2510  0.3827 -1.2870
  239MOL0     C31453   5.226   5.056   3.507 -0.6162  0.2119 -0.0153
  239MOL0     C31454   5.176   5.102   3.374  0.0508  0.2722 -0.0120
  239MOL0     C31455   5.038   5.046   3.332 -0.1785  0.2396 -0.0713
  239MOL0     C31456   5.011   5.091   3.189  0.3008 -0.6538  0.1776
  239MOL0     C31457   4.874   5.037   3.143  0.7408 -0.4333  0.0925
  239MOL0     C31458   4.856   5.097   3.005  0.6655 -0.2761 -0.1196
  239MOL0     C31459   4.712   5.100   2.966 -0.5553 -0.4262 -0.1258
  239MOL0    Cl31460   4.624   5.195   3.070 -0.0191  0.1834  0.1493
  239MOL0     C31461   5.659   4.969   3.314  0.7300 -0.1528  0.4496
  239MOL0     C31462   5.794   4.968   3.298 -0.7608  0.5509 -0.0524
  239MOL0     O31463   6.038   4.836   3.251 -0.4602  0.0366  0.0644
  239MOL0     C31464   6.313   4.821   3.310  0.2062 -0.7274  0.2995
  239MOL0     C31465   6.447   4.826   3.339  0.1526  0.0614 -0.1914
  239MOL0     N31466   6.970   5.216   3.530 -0.1665 -0.4459  0.5900
  239MOL0     N31467   6.923   5.284   3.628 -0.3136  0.3763 -0.7219
  239MOL0     C31468   5.955   4.946   3.941  0.2733 -1.2799 -0.4616
  239MOL0     C31469   5.810   4.942   3.944  0.0737  0.1908 -0.2504
  239MOL0     C31470   5.376   4.771   3.808  0.1041  0.1729 -0.6230
  239MOL0     C31471   5.307   4.892   3.829 -0.3327 -0.8171  1.1059
  239MOL0     C31472   5.170   4.905   3.796 -0.6409 -0.4978  0.0362
  239MOL0     C31473   5.092   4.797   3.764 -0.4944 -1.1886  0.1716
  239MOL0     O31474   4.966   4.828   3.726 -0.3161  0.2230 -0.8486
  239MOL0     C31475   4.914   4.736   3.633 -0.4822  0.6102  0.5810
  239MOL0     C31476   4.793   4.799   3.558  0.3864 -0.6489 -0.1454
  239MOL0     C31477   4.744   4.726   3.436  0.1099  0.9021  0.0611
  239MOL0     C31478   4.622   4.789   3.380  0.9569 -0.1655  0.0068
  239MOL0     C31479   4.575   4.711   3.266 -0.2385  0.0246  0.6594
  239MOL0     C31480   4.510   4.652   3.186 -0.0469  0.5661 -0.8951
  239MOL0     C31481   5.161   4.670   3.752 -0.5151 -0.4260  0.0377
  239MOL0     C31482   5.295   4.659   3.780  0.6558 -0.4653  0.0897
  239MOL0     H31483   5.756   4.757   3.672  0.5592  0.3608  0.2536
  239MOL0     H31484   5.989   4.768   3.660 -1.1959 -2.8273  0.5280
  239MOL0     H31485   6.201   4.847   4.000 -0.4451 -0.5853 -0.7043
  239MOL0     H31486   6.235   5.011   3.953  2.1875  0.8436 -1.2909
  239MOL0     H31487   6.385   4.760   3.824 -0.3791  1.5765 -1.9195
  239MOL0     H31488   6.454   4.852   3.971 -0.8709  1.9460  1.0148
  239MOL0     H31489   6.381   4.993   3.725  1.4798  1.5085 -1.1182
  239MOL0     H31490   6.531   4.905   3.745 -1.1490 -0.9936  0.5740
  239MOL0     H31491   6.449   5.160   3.845 -0.2743  0.3174 -0.7048
  239MOL0     H31492   6.475   5.059   3.988 -0.2016 -0.2097 -0.5604
  239MOL0     H31493   6.664   5.104   3.763 -1.1477 -0.2488 -0.7092
  239MOL0     H31494   6.693   5.003   3.911  0.5963 -1.6389 -3.3874
  239MOL0     H31495   6.650   5.235   4.050  0.8404  4.7505  0.9576
  239MOL0     H31496   6.673   5.316   3.904 -1.6375 -0.7087 -0.0476
  239MOL0     H31497   6.868   5.274   4.072  0.3097 -1.0314  1.3836
  239MOL0     H31498   6.887   5.120   4.002 -0.2981  1.0311  2.3982
  239MOL0     H31499   7.044   5.291   3.914  0.3251 -2.0041 -2.2215
  239MOL0     H31500   6.907   5.392   3.855 -0.8812 -0.0375 -0.1856
  239MOL0     H31501   7.023   5.023   3.783 -1.9450 -1.1667 -0.2688
  239MOL0     H31502   7.118   4.916   3.588  2.3485 -0.1518 -0.8011
  239MOL0     H31503   7.138   5.027   3.442 -1.2031  1.5257  0.3811
  239MOL0     H31504   6.993   4.812   3.397  1.1613  0.6552  1.0793
  239MOL0     H31505   6.917   4.966   3.369 -0.2802 -0.8330 -1.3736
  239MOL0     H31506   6.860   4.756   3.589  0.8633 -1.0708 -1.7719
  239MOL0     H31507   6.801   4.916   3.620  0.4670  1.8442 -1.7860
  239MOL0     H31508   6.635   4.743   3.519  0.7217 -1.0454 -2.0158
  239MOL0     H31509   6.726   4.751   3.369  0.6971  1.8969 -1.1297
  239MOL0     H31510   6.452   5.134   3.494 -0.7865 -0.2182  0.7931
  239MOL0     H31511   6.227   5.127   3.435  0.1016 -0.0261  0.7443
  239MOL0     H31512   5.873   5.042   3.619  0.0036 -1.3115  0.1019
  239MOL0     H31513   5.640   5.068   3.645 -1.1765  0.7827 -0.9037
  239MOL0     H31514   5.405   5.173   3.560 -2.6875  0.3508  3.1390
  239MOL0     H31515   5.403   4.999   3.619  1.1500  1.2206 -0.7859
  239MOL0     H31516   5.178   5.117   3.584 -0.1967  0.9551 -0.3299
  239MOL0     H31517   5.200   4.950   3.514 -1.2171  0.2693 -1.0954
  239MOL0     H31518   5.252   5.079   3.299 -0.0044 -1.0327  0.3090
  239MOL0     H31519   5.176   5.212   3.375 -0.2128  0.2963 -1.1404
  239MOL0     H31520   5.052   4.938   3.327  2.9123  0.5889 -2.0878
  239MOL0     H31521   4.959   5.081   3.399  0.5073  3.5304 -0.7773
  239MOL0     H31522   5.078   5.057   3.109 -1.2147 -0.0379 -1.4287
  239MOL0     H31523   5.013   5.200   3.182  0.8082 -0.7606 -2.3605
  239MOL0     H31524   4.793   5.079   3.203 -0.3881 -3.5177  0.9217
  239MOL0     H31525   4.862   4.929   3.147 -1.0551 -0.2917 -0.3349
  239MOL0     H31526   4.886   5.203   3.003  0.3384 -0.1890 -0.4969
  239MOL0     H31527   4.920   5.044   2.934  1.3539 -0.5923  0.7150
  239MOL0     H31528   4.665   5.001   2.961 -3.9769  1.0818 -1.0753
  239MOL0     H31529   4.696   5.137   2.864 -2.0073 -0.2012  0.1576
  239MOL0     H31530   5.598   4.944   3.228  1.7654  1.2311 -0.7563
  239MOL0     H31531   5.843   4.946   3.204  2.6977 -0.6801  1.8590
  239MOL0     H31532   6.276   4.734   3.258  0.4770 -0.0649 -1.0567
  239MOL0     H31533   6.506   4.740   3.310  0.5036 -0.5223  2.0531
  239MOL0     H31534   6.007   5.018   4.004  2.4903 -1.0298 -2.4401
  239MOL0     H31535   5.759   5.000   4.021 -1.0307 -1.4123  0.2732
  239MOL0     H31536   5.365   4.979   3.860 -0.8849  0.3798 -1.0100
  239MOL0     H31537   5.123   5.003   3.790 -0.1003 -0.2865 -1.0513
  239MOL0     H31538   4.889   4.644   3.687 -6.6123  0.9858 -0.8870
  239MOL0     H31539   4.992   4.722   3.559  2.2999  1.6372  3.1288
  239MOL0     H31540   4.707   4.797   3.625  0.7996 -1.5152  0.3704
  239MOL0     H31541   4.829   4.893   3.514 -1.4338 -0.3499 -1.0632
  239MOL0     H31542   4.713   4.625   3.466  1.4555  0.0534 -1.2442
  239MOL0     H31543   4.823   4.716   3.361 -0.4540 -0.3439 -0.4011
  239MOL0     H31544   4.543   4.788   3.455  2.4565  1.8434  1.7308
  239MOL0     H31545   4.645   4.892   3.349 -1.0978 -0.1352 -1.6573
  239MOL0     H31546   4.457   4.601   3.109 -0.2164 -1.2188  0.3513
  239MOL0     H31547   5.109   4.580   3.722 -0.8906 -0.2985  0.2936
  239MOL0     H31548   5.338   4.559   3.775 -0.6145 -1.1043  1.3168
  240MOL0     O31549   0.170   6.620   5.040  0.2103 -0.5496  0.0526
  240MOL0     C31550   0.077   6.649   5.124 -0.4518 -0.1052  1.1102
  240MOL0     O31551   0.095   6.727   5.233  0.1816  0.2349  0.4134
  240MOL0     C31552   0.215   6.752   5.294  0.1123  0.1887 -0.0740
  240MOL0     C31553   0.326   6.784   5.214 -0.0456 -0.4261 -0.7563
  240MOL0     C31554   0.453   6.806   5.275  0.8194  0.5085  0.1550
  240MOL0     C31555   0.464   6.801   5.415 -0.1441 -0.1837 -0.0893
  240MOL0     O31556   0.568   6.846   5.482  0.1585 -0.3138 -0.2695
  240MOL0     C31557   0.700   6.813   5.434 -0.2818 -0.0529  0.0185
  240MOL0     C31558   0.780   6.856   5.553 -0.4537 -0.0895  0.1535
  240MOL0     C31559   0.928   6.885   5.528  0.4339 -0.2448  0.3502
  240MOL0     C31560   0.992   6.810   5.405 -0.8201  0.4331 -0.0102
  240MOL0     C31561   1.119   6.886   5.356 -0.4768  0.6033  0.2722
  240MOL0     C31562   1.216   6.916   5.472  0.5383  0.0652  0.5781
  240MOL0     C31563   1.354   6.963   5.446  1.1533 -0.4898 -0.3793
  240MOL0     C31564   1.342   7.089   5.356 -0.5000 -0.2500  0.2107
  240MOL0     N31565   1.465   7.160   5.352 -0.7371  0.0283  0.1783
  240MOL0     C31566   1.527   7.240   5.450  0.2387  0.7847  0.2061
  240MOL0     C31567   1.630   7.303   5.389  0.0211  0.4284 -0.4694
  240MOL0     C31568   1.726   7.390   5.445  0.4275 -0.2622 -0.4054
  240MOL0     C31569   1.744   7.516   5.347 -0.9470 -0.2670 -0.0435
  240MOL0     C31570   1.620   7.599   5.318  0.9289 -0.2334  0.2875
  240MOL0     C31571   1.559   7.659   5.441 -0.1149  0.6359  0.1897
  240MOL0     O31572   1.479   7.563   5.510  0.1422  0.2572 -0.1133
  240MOL0     C31573   1.345   7.558   5.497  0.3934  0.3667  0.9664
  240MOL0     C31574   1.264   7.645   5.414 -0.0697  0.5382 -0.1823
  240MOL0     C31575   1.126   7.624   5.408 -0.2557 -0.1712  1.3124
  240MOL0     C31576   1.071   7.508   5.457  0.4815  0.1036  0.0772
  240MOL0     C31577   0.921   7.486   5.456  0.4548 -0.3492 -0.2575
  240MOL0     O31578   0.869   7.359   5.487  0.0286 -0.4614 -0.8046
  240MOL0     C31579   0.738   7.321   5.494 -0.2847  0.7570  0.2352
  240MOL0     C31580   0.687   7.212   5.442 -0.0934 -0.0508 -0.3824
  240MOL0     C31581   0.550   7.178   5.448 -0.7765 -0.5057  0.0719
  240MOL0     C31582   0.461   7.258   5.518  0.3142  0.4869 -0.5654
  240MOL0     O31583   0.320   7.236   5.535 -0.1840  0.0812 -0.3081
  240MOL0     C31584   0.253   7.121   5.471  0.4919 -0.8094 -0.5264
  240MOL0     C31585   0.227   7.146   5.326 -0.7430  0.3215  0.2672
  240MOL0     C31586   0.100   7.227   5.302  0.1394  1.0547 -0.4543
  240MOL0     C31587  -0.022   7.146   5.335  0.3050  1.1358 -0.2669
  240MOL0     C31588  -0.147   7.205   5.263  0.1628 -0.1272  0.0514
  240MOL0     C31589  -0.285   7.129   5.289 -0.2832 -0.1799  0.0827
  240MOL0     C31590  -0.408   7.186   5.220 -1.1766  0.7460 -0.9239
  240MOL0     C31591  -0.533   7.113   5.268  0.4413 -0.0316 -0.0864
  240MOL0    Cl31592  -0.666   7.111   5.141 -0.2490  0.8648  0.2928
  240MOL0     C31593   0.513   7.374   5.575  0.4522 -0.8939  0.6930
  240MOL0     C31594   0.649   7.410   5.560 -0.0854  0.6500 -0.6345
  240MOL0     O31595   0.855   7.587   5.425 -0.7799 -0.1453  0.2292
  240MOL0     C31596   1.149   7.415   5.522 -0.6222 -0.3848  0.8628
  240MOL0     C31597   1.282   7.449   5.553  0.7088  0.2369  0.3127
  240MOL0     N31598   1.648   7.247   5.267 -0.0106 -0.2243  0.0276
  240MOL0     N31599   1.542   7.169   5.239 -0.1856  0.7318  0.4259
  240MOL0     C31600   0.344   6.760   5.492 -0.1035 -0.0391 -0.0517
  240MOL0     C31601   0.225   6.738   5.436  0.7144 -0.0851  0.7178
  240MOL0     C31602  -0.048   6.575   5.096 -0.4859  0.5512  0.9945
  240MOL0     C31603  -0.060   6.486   4.985  0.2544 -0.3217 -0.3518
  240MOL0     C31604  -0.174   6.402   4.978  0.2141 -0.0407  0.5662
  240MOL0     C31605  -0.276   6.410   5.071 -0.4081  0.3741 -0.2052
  240MOL0     O31606  -0.383   6.328   5.061 -0.3635  0.0587  0.1877
  240MOL0     C31607  -0.411   6.229   5.154  0.6597  0.9942 -0.2825
  240MOL0     C31608  -0.464   6.097   5.077 -0.7215  0.2176 -0.4681
  240MOL0     C31609  -0.350   6.027   4.998 -0.7537 -0.8237  0.2819
  240MOL0     C31610  -0.401   5.917   4.910 -0.7277  0.0448  0.4138
  240MOL0     C31611  -0.457   5.803   4.979 -0.1881  0.1509  0.5907
  240MOL0     C31612  -0.507   5.697   5.021  0.6160 -0.2135 -0.6706
  240MOL0     C31613  -0.264   6.500   5.178 -0.4593 -0.4279  0.1996
  240MOL0     C31614  -0.146   6.576   5.192  1.0360  0.0662  0.2618
  240MOL0     H31615   0.318   6.799   5.107 -1.8321 -0.0035 -0.5945
  240MOL0     H31616   0.529   6.833   5.202 -0.4498 -0.6097 -1.6651
  240MOL0     H31617   0.726   6.879   5.351  0.3076 -0.7190 -0.3437
  240MOL0     H31618   0.714   6.709   5.400 -0.2922  0.7412 -2.5806
  240MOL0     H31619   0.781   6.768   5.618  3.6831 -0.9479 -0.7827
  240MOL0     H31620   0.733   6.934   5.614 -2.1539 -0.8867 -0.0779
  240MOL0     H31621   0.966   6.873   5.630 -2.9170  3.1956  2.2933
  240MOL0     H31622   0.939   6.990   5.502  1.1045 -0.5077 -0.4771
  240MOL0     H31623   1.011   6.713   5.451  1.6964  1.9448  2.4524
  240MOL0     H31624   0.925   6.801   5.319  0.9882 -2.3721 -1.2732
  240MOL0     H31625   1.084   6.982   5.315 -2.1960  0.2669  0.8686
  240MOL0     H31626   1.170   6.822   5.283 -0.5374  0.8711 -0.0100
  240MOL0     H31627   1.231   6.822   5.526 -3.0922 -0.4835  0.8403
  240MOL0     H31628   1.175   6.990   5.541  2.1316  1.1088  0.4769
  240MOL0     H31629   1.403   6.983   5.541 -1.5542 -2.7084  1.6693
  240MOL0     H31630   1.409   6.887   5.390  1.6240 -0.1557 -0.3764
  240MOL0     H31631   1.256   7.154   5.374 -0.2182 -0.1917  1.4316
  240MOL0     H31632   1.326   7.056   5.253  1.3466  1.0847 -0.5764
  240MOL0     H31633   1.486   7.244   5.550 -1.4870 -1.9780 -0.2956
  240MOL0     H31634   1.822   7.339   5.459  1.8732  1.6837 -2.3026
  240MOL0     H31635   1.700   7.433   5.542  1.8568 -0.7662  0.2293
  240MOL0     H31636   1.791   7.487   5.253  1.6172 -1.5579  1.5297
  240MOL0     H31637   1.822   7.580   5.389  0.4846 -1.7327 -0.3842
  240MOL0     H31638   1.638   7.690   5.261 -2.6540  0.3500 -0.1135
  240MOL0     H31639   1.545   7.541   5.263 -1.0152  3.5648 -1.3741
  240MOL0     H31640   1.502   7.751   5.431 -0.5353  0.3657  0.0928
  240MOL0     H31641   1.643   7.692   5.503  0.2615  3.1491 -1.5020
  240MOL0     H31642   1.293   7.742   5.375 -0.1168  0.8308  0.4803
  240MOL0     H31643   1.062   7.698   5.361 -1.2697 -0.4004  2.2852
  240MOL0     H31644   0.756   7.148   5.388  0.2336  0.2888 -0.3787
  240MOL0     H31645   0.520   7.084   5.402  0.2000  0.3668 -2.4948
  240MOL0     H31646   0.162   7.110   5.531  0.7583  0.2018  0.0905
  240MOL0     H31647   0.312   7.029   5.478 -0.0090 -1.2107 -1.4660
  240MOL0     H31648   0.209   7.052   5.275  0.2794  0.4000 -0.2544
  240MOL0     H31649   0.307   7.193   5.268 -0.4516 -2.9956 -2.3063
  240MOL0     H31650   0.080   7.257   5.199  1.2618  0.0214 -0.9879
  240MOL0     H31651   0.101   7.319   5.362  0.1114  1.3624 -0.9133
  240MOL0     H31652  -0.012   7.042   5.302 -1.6476  0.4194  1.2214
  240MOL0     H31653  -0.046   7.137   5.441  0.8595  0.7577 -0.1687
  240MOL0     H31654  -0.130   7.198   5.156 -0.4024  0.5991 -0.0950
  240MOL0     H31655  -0.152   7.314   5.276 -1.5628  0.0749 -1.8695
  240MOL0     H31656  -0.315   7.135   5.394  0.2043 -1.9861  0.3679
  240MOL0     H31657  -0.281   7.023   5.263 -0.3724  0.1299 -1.2649
  240MOL0     H31658  -0.408   7.293   5.242  2.3123  0.4770  1.1025
  240MOL0     H31659  -0.405   7.179   5.111  1.7626  0.8474 -0.9242
  240MOL0     H31660  -0.566   7.148   5.366  0.1711  1.3362 -0.6445
  240MOL0     H31661  -0.518   7.006   5.283 -0.0709 -0.3019 -1.3156
  240MOL0     H31662   0.443   7.446   5.616 -1.7032 -0.7443 -2.7675
  240MOL0     H31663   0.690   7.496   5.610  0.2160 -0.5600  1.3330
  240MOL0     H31664   1.101   7.319   5.539 -2.1918 -0.0590 -1.3614
  240MOL0     H31665   1.353   7.386   5.605  0.9662 -0.5403 -0.9225
  240MOL0     H31666   0.358   6.750   5.599 -0.1001 -1.3958 -0.1625
  240MOL0     H31667   0.136   6.707   5.489 -0.8738  0.0716 -1.7090
  240MOL0     H31668   0.016   6.475   4.908  0.4643  0.0516 -0.2025
  240MOL0     H31669  -0.173   6.336   4.892  1.8115  0.7235 -0.0368
  240MOL0     H31670  -0.495   6.243   5.222  0.3817 -2.0005  0.1241
  240MOL0     H31671  -0.322   6.205   5.212  0.8997 -1.0342 -1.4172
  240MOL0     H31672  -0.513   6.040   5.156 -1.2148  0.9336 -0.2477
  240MOL0     H31673  -0.541   6.120   5.002 -1.7575 -2.0510 -0.2008
  240MOL0     H31674  -0.285   5.977   5.070 -0.2064  0.0539  0.4213
  240MOL0     H31675  -0.296   6.096   4.931 -3.4060  1.4268  0.2724
  240MOL0     H31676  -0.479   5.954   4.843 -0.1570  1.9753  0.7706
  240MOL0     H31677  -0.323   5.870   4.851  1.6117  1.1412  2.4465
  240MOL0     H31678  -0.547   5.608   5.066 -1.5772  0.5782 -0.9229
  240MOL0     H31679  -0.347   6.497   5.247  0.1038  1.7692  1.0680
  240MOL0     H31680  -0.134   6.636   5.282  0.4463  0.7909 -0.1391
  241MOL0     O31681  10.581   9.794   3.938 -0.0446  0.2060  0.3049
  241MOL0     C31682  10.676   9.752   3.863 -0.0568  0.1011  0.2524
  241MOL0     O31683  10.703   9.790   3.737 -0.1335 -0.0645  0.3471
  241MOL0     C31684  10.600   9.878   3.691  0.2275 -0.4173 -0.1723
  241MOL0     C31685  10.632   9.999   3.632  0.0558  0.9096  0.0381
  241MOL0     C31686  10.543  10.066   3.554 -1.2054  0.0544 -0.6039
  241MOL0     C31687  10.411  10.015   3.541 -0.8008  0.4198 -0.2139
  241MOL0     O31688  10.315  10.085   3.469  0.1766  0.7925 -0.7323
  241MOL0     C31689  10.357  10.184   3.371 -0.0140  0.2247 -0.9544
  241MOL0     C31690  10.256  10.215   3.264  0.5618  0.3687  0.2830
  241MOL0     C31691  10.120  10.246   3.321 -0.1284  1.0492 -0.4964
  241MOL0     C31692  10.021  10.307   3.214  0.0083  0.6180 -0.8970
  241MOL0     C31693   9.877  10.293   3.255  0.3773  0.3553 -0.0303
  241MOL0     C31694   9.774  10.334   3.143 -0.6499  0.0975  0.3485
  241MOL0     C31695   9.630  10.341   3.179 -0.5512 -0.0415  0.1976
  241MOL0     C31696   9.559  10.205   3.172 -0.2725 -0.6133  0.4132
  241MOL0     N31697   9.417  10.212   3.207 -0.3228  0.6790  0.0184
  241MOL0     C31698   9.322  10.281   3.132  0.3005 -0.2593 -0.2988
  241MOL0     C31699   9.203  10.233   3.182 -0.3343 -0.6796 -0.0797
  241MOL0     C31700   9.069  10.277   3.134  0.2210 -0.4632 -0.1164
  241MOL0     C31701   8.956  10.261   3.237 -0.1899  0.1248  0.0725
  241MOL0     C31702   8.826  10.300   3.162  0.0907 -0.0758 -0.2542
  241MOL0     C31703   8.709  10.336   3.259 -0.4191  0.0814  0.0197
  241MOL0     O31704   8.588  10.384   3.189 -0.7299  0.5757  0.9291
  241MOL0     C31705   8.466  10.420   3.239 -0.3691  0.4027 -0.3040
  241MOL0     C31706   8.449  10.420   3.379  0.3173 -0.8043  0.5052
  241MOL0     C31707   8.319  10.452   3.424  0.5457  0.6473 -0.3815
  241MOL0     C31708   8.213  10.484   3.331 -0.0506 -0.3840 -0.4672
  241MOL0     C31709   8.078  10.535   3.382  0.1833  0.4925 -0.7361
  241MOL0     O31710   7.990  10.599   3.298  0.6241 -0.1457 -0.0402
  241MOL0     C31711   7.891  10.676   3.353  0.5779  0.1789 -1.0129
  241MOL0     C31712   7.916  10.809   3.368  0.0021  0.3681  0.1007
  241MOL0     C31713   7.815  10.898   3.411 -0.6925 -0.5058 -0.1881
  241MOL0     C31714   7.693  10.850   3.463 -0.2632 -0.2024  0.1385
  241MOL0     O31715   7.606  10.945   3.504 -0.3001  0.0146 -0.6579
  241MOL0     C31716   7.466  10.936   3.484  0.5447  0.3351 -0.1206
  241MOL0     C31717   7.403  11.077   3.476  0.0836  0.0926  1.1592
  241MOL0     C31718   7.393  11.118   3.322 -0.6608  0.3119  0.2510
  241MOL0     C31719   7.299  11.242   3.312 -0.9530 -0.2487 -0.0758
  241MOL0     C31720   7.273  11.274   3.164 -0.3723 -0.1471 -0.1005
  241MOL0     C31721   7.182  11.398   3.151 -0.1588 -0.4870  0.3083
  241MOL0     C31722   7.263  11.514   3.116 -0.6941  0.2333  0.0456
  241MOL0     C31723   7.173  11.633   3.097  0.5007 -0.3750 -0.2102
  241MOL0    Cl31724   7.107  11.682   3.254  0.0174  0.2187 -0.2656
  241MOL0     C31725   7.667  10.711   3.456 -0.3494  0.5376 -0.0639
  241MOL0     C31726   7.761  10.625   3.392 -0.1585 -0.8579 -0.1781
  241MOL0     O31727   8.060  10.540   3.510 -0.3033  0.3146  0.0982
  241MOL0     C31728   8.236  10.488   3.198 -0.5388  0.1628 -0.6631
  241MOL0     C31729   8.364  10.457   3.145  0.0935  0.5827 -1.0300
  241MOL0     N31730   9.234  10.126   3.277  0.5612 -0.1768  1.1808
  241MOL0     N31731   9.361  10.124   3.289 -0.1357  0.3306  0.5656
  241MOL0     C31732  10.382   9.895   3.600 -0.5218 -0.5668 -0.5875
  241MOL0     C31733  10.475   9.828   3.676 -0.6557  0.5253  0.5577
  241MOL0     C31734  10.775   9.652   3.916  0.4378  0.2513  0.6212
  241MOL0     C31735  10.745   9.561   4.012  1.1577 -0.5728  0.3746
  241MOL0     C31736  10.843   9.471   4.054 -0.9295 -0.2912 -0.1787
  241MOL0     C31737  10.967   9.471   3.983  0.2204 -0.1607 -0.4157
  241MOL0     O31738  11.055   9.395   4.051  0.3118 -0.6105  0.3594
  241MOL0     C31739  11.073   9.255   4.011 -0.1506  0.5509 -0.1851
  241MOL0     C31740  11.153   9.189   4.119  0.7284  0.6022  0.3073
  241MOL0     C31741  11.180   9.043   4.100  0.5264 -0.0764  0.3209
  241MOL0     C31742  11.263   8.987   4.213 -0.0261  0.5742 -0.2462
  241MOL0     C31743  11.406   9.009   4.174  0.4609  0.4474  0.6039
  241MOL0     C31744  11.527   9.016   4.156  0.8788  0.1303 -0.0700
  241MOL0     C31745  10.988   9.546   3.873 -0.9346 -0.4393 -0.6574
  241MOL0     C31746  10.891   9.639   3.841 -1.1095 -0.1301  0.3910
  241MOL0     H31747  10.731  10.040   3.645 -0.8711  3.7793 -1.0786
  241MOL0     H31748  10.568  10.158   3.502 -2.2356  2.6826  3.1254
  241MOL0     H31749  10.443  10.142   3.318 -1.2760  0.5490 -3.3855
  241MOL0     H31750  10.383  10.281   3.415 -0.6348  0.1960 -0.5082
  241MOL0     H31751  10.257  10.130   3.195  2.6835  0.8382 -0.3375
  241MOL0     H31752  10.292  10.305   3.213  2.8015  1.0719  2.8603
  241MOL0     H31753  10.150  10.314   3.401  0.3474  0.0005  0.2204
  241MOL0     H31754  10.075  10.157   3.365  2.2783  0.2495  0.5135
  241MOL0     H31755  10.052  10.411   3.198  3.1689  0.0043  0.4797
  241MOL0     H31756  10.043  10.262   3.116  0.2386  3.2059 -2.1233
  241MOL0     H31757   9.853  10.352   3.344 -2.1075 -2.5238  1.3718
  241MOL0     H31758   9.866  10.187   3.280  2.5822 -0.5553 -2.5035
  241MOL0     H31759   9.795  10.270   3.056 -2.1764  0.9531 -0.6994
  241MOL0     H31760   9.793  10.435   3.103  3.3788 -0.1451  1.2332
  241MOL0     H31761   9.620  10.378   3.282 -2.1689 -2.1361  0.8715
  241MOL0     H31762   9.584  10.416   3.114 -0.4854 -1.4374 -1.5551
  241MOL0     H31763   9.595  10.127   3.241 -2.9860 -2.0944  0.3181
  241MOL0     H31764   9.565  10.168   3.069  1.5664 -0.3455  0.3980
  241MOL0     H31765   9.338  10.351   3.051  0.9632  0.0309  0.0757
  241MOL0     H31766   9.041  10.222   3.044 -2.7653  1.5810 -0.5848
  241MOL0     H31767   9.079  10.381   3.103 -0.7061 -0.5293 -0.6685
  241MOL0     H31768   8.962  10.329   3.323 -0.7026 -0.8936  0.9386
  241MOL0     H31769   8.939  10.159   3.272  0.5324  0.2054  0.6599
  241MOL0     H31770   8.852  10.382   3.095  0.5263 -1.4086 -1.7956
  241MOL0     H31771   8.802  10.216   3.096  1.7730 -0.0234 -1.0032
  241MOL0     H31772   8.735  10.417   3.329 -1.1361  0.4742 -0.1531
  241MOL0     H31773   8.667  10.259   3.324 -1.7158  1.8373  1.3787
  241MOL0     H31774   8.528  10.409   3.452  1.7404  1.3719 -0.6036
  241MOL0     H31775   8.294  10.459   3.530  1.4605 -0.2181 -0.0957
  241MOL0     H31776   8.018  10.839   3.347 -0.2321  0.2715 -1.3137
  241MOL0     H31777   7.838  11.004   3.418 -2.0642 -0.2858  1.7245
  241MOL0     H31778   7.435  10.880   3.573 -0.1492  0.2543 -0.4144
  241MOL0     H31779   7.439  10.888   3.390 -0.1493  3.3912 -1.6095
  241MOL0     H31780   7.455  11.153   3.534 -2.2855 -0.0182  3.6118
  241MOL0     H31781   7.300  11.059   3.510  0.2919 -1.4110  1.0899
  241MOL0     H31782   7.343  11.033   3.276 -0.0871 -0.8519  1.6889
  241MOL0     H31783   7.491  11.130   3.276 -0.4110 -2.8371 -0.2421
  241MOL0     H31784   7.204  11.211   3.357  0.4015 -2.1989  1.6077
  241MOL0     H31785   7.337  11.334   3.358  0.9535 -0.9562 -0.1682
  241MOL0     H31786   7.218  11.195   3.113  1.6338 -1.5225 -0.2417
  241MOL0     H31787   7.366  11.292   3.109  0.0775  0.9032  0.9705
  241MOL0     H31788   7.113  11.397   3.235 -1.2257 -0.7089 -0.5444
  241MOL0     H31789   7.117  11.372   3.067  1.5725  0.1370 -1.3052
  241MOL0     H31790   7.348  11.524   3.183 -0.7001 -1.5916  0.3768
  241MOL0     H31791   7.315  11.493   3.022  2.8640  0.4388  1.7830
  241MOL0     H31792   7.089  11.606   3.033  0.1293  0.6223 -0.1692
  241MOL0     H31793   7.233  11.710   3.047  1.6330  0.1207  1.8412
  241MOL0     H31794   7.573  10.673   3.494  1.0534  0.1295  3.3304
  241MOL0     H31795   7.742  10.518   3.401 -1.5142 -0.4543  3.4874
  241MOL0     H31796   8.147  10.498   3.135  1.2110 -1.0216 -3.5241
  241MOL0     H31797   8.381  10.450   3.038 -0.1583 -2.2468 -0.9383
  241MOL0     H31798  10.279   9.860   3.590 -1.5938  1.8450  1.0840
  241MOL0     H31799  10.460   9.725   3.708 -1.6699 -0.0362 -1.5465
  241MOL0     H31800  10.660   9.558   4.080 -1.0796  1.6819 -2.0511
  241MOL0     H31801  10.827   9.414   4.145  2.1892 -0.9251  0.1006
  241MOL0     H31802  11.121   9.238   3.914 -1.6041  1.7069 -1.1549
  241MOL0     H31803  10.978   9.204   3.994  1.7763 -2.9375 -1.4385
  241MOL0     H31804  11.254   9.231   4.109  0.9932 -0.2443 -0.7825
  241MOL0     H31805  11.119   9.206   4.222 -1.8869  0.2956 -0.4391
  241MOL0     H31806  11.231   9.029   4.004 -0.6189  1.5645 -0.5706
  241MOL0     H31807  11.080   8.997   4.100 -1.2371  3.4592  0.0225
  241MOL0     H31808  11.256   9.031   4.312 -2.4092  1.0438 -0.5708
  241MOL0     H31809  11.246   8.881   4.233  1.9821 -0.3617 -2.8681
  241MOL0     H31810  11.629   8.989   4.172  1.0731  0.6412 -0.4319
  241MOL0     H31811  11.081   9.550   3.818 -1.3020 -2.1437 -1.4859
  241MOL0     H31812  10.919   9.699   3.755 -1.3322  0.5563  0.7979
  242MOL0     O31813  10.193   1.636   9.642 -0.2017 -0.7767 -0.0965
  242MOL0     C31814  10.280   1.605   9.565  1.0103 -0.2965 -1.3350
  242MOL0     O31815  10.271   1.524   9.466  0.4315  0.8117  0.2162
  242MOL0     C31816  10.153   1.474   9.430  0.6220 -1.1275  0.2531
  242MOL0     C31817  10.069   1.542   9.339 -0.0722 -0.2340 -0.0839
  242MOL0     C31818   9.944   1.493   9.309  0.1662  0.2986 -1.0195
  242MOL0     C31819   9.910   1.374   9.360  0.3794  0.5715  0.0775
  242MOL0     O31820   9.790   1.328   9.299 -0.2863  0.0829  0.3262
  242MOL0     C31821   9.702   1.238   9.368 -0.1746  0.7895  0.7599
  242MOL0     C31822   9.644   1.305   9.489  0.0863 -0.4930  0.2829
  242MOL0     C31823   9.579   1.440   9.452  0.1350  0.3845 -0.7473
  242MOL0     C31824   9.477   1.426   9.337 -0.3407 -0.7041  0.2538
  242MOL0     C31825   9.379   1.548   9.320 -0.2264  0.0968  0.5311
  242MOL0     C31826   9.300   1.555   9.190 -0.2662 -0.6779 -0.3207
  242MOL0     C31827   9.200   1.443   9.174 -0.6745 -0.3331  0.0472
  242MOL0     C31828   9.103   1.466   9.064  0.2514 -0.0780 -0.1195
  242MOL0     N31829   8.990   1.373   9.062  0.4799 -0.2474  0.4543
  242MOL0     C31830   8.885   1.373   8.968 -0.4924  0.3888 -0.3579
  242MOL0     C31831   8.805   1.271   8.992 -0.0156 -0.1605 -0.8160
  242MOL0     C31832   8.674   1.249   8.928 -0.0052 -0.0423  0.4562
  242MOL0     C31833   8.585   1.372   8.915 -0.3044 -0.6168  0.6791
  242MOL0     C31834   8.511   1.417   9.037 -0.1093 -0.5573 -0.2355
  242MOL0     C31835   8.604   1.468   9.154 -0.3850 -0.5229  0.4476
  242MOL0     O31836   8.672   1.587   9.102  0.4909  0.8913 -0.2861
  242MOL0     C31837   8.766   1.651   9.181  0.7047  0.2291 -0.6684
  242MOL0     C31838   8.830   1.763   9.130  0.3977  0.3429  0.9262
  242MOL0     C31839   8.946   1.823   9.195  0.0512 -0.5185  0.1695
  242MOL0     C31840   8.999   1.769   9.314 -0.3722 -1.2336  0.4581
  242MOL0     C31841   9.108   1.843   9.383 -0.0896  0.5109 -0.6189
  242MOL0     O31842   9.139   1.970   9.332  0.7103  0.1004  0.0652
  242MOL0     C31843   9.256   2.038   9.368 -0.1061 -0.2159  0.1581
  242MOL0     C31844   9.259   2.168   9.302 -0.2996  0.1689  0.2310
  242MOL0     C31845   9.371   2.248   9.318 -0.4187  0.1998  0.0061
  242MOL0     C31846   9.486   2.201   9.396  0.5677 -0.8244  0.6648
  242MOL0     O31847   9.603   2.276   9.427  0.0684 -0.1922 -0.2714
  242MOL0     C31848   9.624   2.394   9.359  0.2512 -0.4938  0.3299
  242MOL0     C31849   9.755   2.462   9.415  0.2334 -0.2847  0.7530
  242MOL0     C31850   9.875   2.383   9.359  0.9128 -0.2108 -0.3079
  242MOL0     C31851   9.991   2.481   9.346 -0.0682  0.7013  0.2708
  242MOL0     C31852  10.036   2.557   9.474 -0.4383  0.1535 -0.7836
  242MOL0     C31853  10.155   2.649   9.441  0.0586 -0.4167 -0.2624
  242MOL0     C31854  10.198   2.739   9.564  0.2264 -0.3628  0.4961
  242MOL0     C31855  10.296   2.840   9.525 -0.2872  0.0778 -0.1232
  242MOL0    Cl31856  10.456   2.766   9.507 -0.3833  0.0522 -0.1232
  242MOL0     C31857   9.481   2.079   9.453 -0.1725  0.0164 -0.7379
  242MOL0     C31858   9.372   1.995   9.435  0.1227 -0.2997 -0.7250
  242MOL0     O31859   9.167   1.787   9.476  0.3560 -1.0293  0.6618
  242MOL0     C31860   8.938   1.660   9.370 -0.2387  0.7687  0.0831
  242MOL0     C31861   8.818   1.606   9.309  0.0880  0.4404  0.0592
  242MOL0     N31862   8.862   1.193   9.093 -0.6449  0.4906  0.0081
  242MOL0     N31863   8.964   1.260   9.136 -0.5386  0.3632 -0.2347
  242MOL0     C31864   9.991   1.293   9.451  0.0801 -0.5705  0.7262
  242MOL0     C31865  10.109   1.353   9.484  0.4103 -0.1357  0.6006
  242MOL0     C31866  10.404   1.687   9.570  0.2209 -0.3864  0.5910
  242MOL0     C31867  10.447   1.767   9.676 -0.6093 -1.3561 -0.4361
  242MOL0     C31868  10.569   1.842   9.674 -0.2427 -0.5401 -0.0728
  242MOL0     C31869  10.652   1.830   9.560 -0.2729  0.0427 -0.1898
  242MOL0     O31870  10.774   1.899   9.546 -1.3626  0.2845 -0.4024
  242MOL0     C31871  10.793   2.027   9.608  0.2799 -0.1632  0.3268
  242MOL0     C31872  10.928   2.093   9.567 -0.1552 -0.3475  0.6128
  242MOL0     C31873  10.961   2.214   9.660 -0.2274 -0.3754  0.0263
  242MOL0     C31874  11.084   2.292   9.621  0.5919  0.0284  0.3668
  242MOL0     C31875  11.111   2.407   9.713 -0.4970 -0.8575 -0.7826
  242MOL0     C31876  11.144   2.513   9.775  0.5400 -0.0278 -0.2554
  242MOL0     C31877  10.603   1.760   9.451 -0.1175  0.7800 -0.7616
  242MOL0     C31878  10.483   1.690   9.454 -0.7290 -0.1858 -0.0829
  242MOL0     H31879  10.104   1.633   9.291  1.3060  0.5770  2.2839
  242MOL0     H31880   9.870   1.537   9.243 -1.6934 -0.4936  0.4515
  242MOL0     H31881   9.756   1.148   9.399  0.3264  0.6605 -0.4313
  242MOL0     H31882   9.623   1.199   9.303  0.6316 -1.2654  0.9429
  242MOL0     H31883   9.723   1.326   9.562  0.3028 -0.6702  0.1026
  242MOL0     H31884   9.564   1.239   9.524 -0.6189  0.8427  1.2613
  242MOL0     H31885   9.652   1.520   9.440 -0.5974  1.1172 -0.4260
  242MOL0     H31886   9.518   1.489   9.528 -0.7417 -0.4310 -0.9019
  242MOL0     H31887   9.540   1.413   9.248  1.2147  0.4421  1.1390
  242MOL0     H31888   9.410   1.341   9.351  0.7930 -1.6790 -0.0676
  242MOL0     H31889   9.428   1.646   9.324  1.4391 -0.6426 -0.6591
  242MOL0     H31890   9.310   1.553   9.405 -0.7135 -1.0436  0.2181
  242MOL0     H31891   9.375   1.558   9.111 -0.9370 -0.9581 -0.9808
  242MOL0     H31892   9.246   1.650   9.189  0.2987 -0.3106  1.2728
  242MOL0     H31893   9.258   1.353   9.153 -0.1969 -0.1189  0.4264
  242MOL0     H31894   9.158   1.424   9.273  1.3672 -0.8566  0.8554
  242MOL0     H31895   9.157   1.456   8.970  0.7480 -0.2662  0.1821
  242MOL0     H31896   9.070   1.570   9.063  1.0884  0.1915 -0.8416
  242MOL0     H31897   8.865   1.456   8.902 -1.3111  0.9734  0.5920
  242MOL0     H31898   8.628   1.162   8.976  1.6640 -1.7959 -0.9636
  242MOL0     H31899   8.704   1.228   8.825  1.0258 -0.3583  0.8101
  242MOL0     H31900   8.510   1.352   8.838 -0.2379  2.0831 -0.1637
  242MOL0     H31901   8.632   1.461   8.873 -0.9851 -1.6638 -2.6073
  242MOL0     H31902   8.448   1.501   9.006  1.4743  0.9561  0.4500
  242MOL0     H31903   8.440   1.342   9.074 -0.4672 -0.6808 -1.1560
  242MOL0     H31904   8.674   1.394   9.193  0.8694  1.0641  1.3551
  242MOL0     H31905   8.532   1.484   9.235  1.2810  0.9958  1.7214
  242MOL0     H31906   8.784   1.797   9.037 -0.3368 -1.9889  0.3713
  242MOL0     H31907   8.991   1.910   9.148 -0.0141  0.7480  2.3365
  242MOL0     H31908   9.167   2.195   9.251  0.4226  2.3982 -0.0295
  242MOL0     H31909   9.368   2.345   9.268 -2.9101  0.6437  0.8979
  242MOL0     H31910   9.539   2.462   9.370 -1.7139 -2.4294 -1.8160
  242MOL0     H31911   9.639   2.366   9.255  1.0343  0.2547  0.2343
  242MOL0     H31912   9.750   2.464   9.524 -0.3103 -1.4110  0.7635
  242MOL0     H31913   9.755   2.567   9.387 -1.8467 -0.0851  1.3080
  242MOL0     H31914   9.860   2.339   9.260  3.6655  1.8995 -1.8071
  242MOL0     H31915   9.901   2.304   9.429  0.4017 -1.0143 -1.0122
  242MOL0     H31916  10.069   2.422   9.298 -2.3676 -1.8864 -0.5258
  242MOL0     H31917   9.962   2.557   9.272 -0.8402 -1.1603 -1.4439
  242MOL0     H31918  10.050   2.485   9.555  2.4773  0.1500 -1.1869
  242MOL0     H31919   9.950   2.614   9.510 -0.4749 -1.4636  2.0189
  242MOL0     H31920  10.129   2.716   9.359 -3.9028 -2.6024 -1.0133
  242MOL0     H31921  10.233   2.581   9.405 -1.2863 -1.8184 -0.6675
  242MOL0     H31922  10.107   2.787   9.600 -1.5314 -3.1339 -0.0270
  242MOL0     H31923  10.246   2.683   9.645 -1.3082  0.5334  2.0899
  242MOL0     H31924  10.300   2.900   9.617 -0.9806  1.3163 -0.8746
  242MOL0     H31925  10.265   2.911   9.448 -1.6851  0.1087  0.4405
  242MOL0     H31926   9.558   2.041   9.519 -2.1227 -0.9322  1.1170
  242MOL0     H31927   9.370   1.910   9.503  2.2066  1.9178  2.4266
  242MOL0     H31928   8.971   1.618   9.464  1.2489 -1.1462 -1.2256
  242MOL0     H31929   8.765   1.520   9.349 -0.9856  1.2468  0.4223
  242MOL0     H31930   9.972   1.192   9.485 -1.6655 -0.6499 -0.3681
  242MOL0     H31931  10.168   1.284   9.545  0.6656 -1.4733 -1.0947
  242MOL0     H31932  10.401   1.761   9.774  3.2130 -3.3976  1.4737
  242MOL0     H31933  10.605   1.905   9.754 -2.2264  2.8638 -1.6324
  242MOL0     H31934  10.789   2.026   9.717 -1.0252 -1.4563  0.2869
  242MOL0     H31935  10.705   2.086   9.579  1.4027  0.5812 -1.8057
  242MOL0     H31936  11.005   2.016   9.568  2.2329  1.8016  4.0717
  242MOL0     H31937  10.919   2.135   9.467 -0.1998  1.0364  1.1658
  242MOL0     H31938  10.960   2.177   9.763  1.0838  0.0218  0.2074
  242MOL0     H31939  10.880   2.288   9.653 -1.5632 -1.8673 -0.9299
  242MOL0     H31940  11.173   2.228   9.618 -1.0439 -2.5220  2.0016
  242MOL0     H31941  11.053   2.323   9.521  0.6529 -2.0784 -0.3670
  242MOL0     H31942  11.169   2.612   9.809  0.6753  0.2456 -1.1068
  242MOL0     H31943  10.651   1.782   9.356  1.8139  1.3039  0.2757
  242MOL0     H31944  10.456   1.641   9.361 -0.1705  0.1506 -0.4251
  243MOL0     O31945   1.831   1.792   1.538 -0.3684 -0.4385 -0.1127
  243MOL0     C31946   1.755   1.883   1.511  0.7385  0.0133  0.1197
  243MOL0     O31947   1.629   1.898   1.561  0.2333  0.3916 -0.0070
  243MOL0     C31948   1.594   1.809   1.666  0.2704 -0.2539  0.3054
  243MOL0     C31949   1.664   1.806   1.790  0.1847  0.0613  0.1851
  243MOL0     C31950   1.614   1.729   1.894  0.1253  0.3196 -0.1082
  243MOL0     C31951   1.503   1.648   1.876 -0.1397  0.0499 -0.1161
  243MOL0     O31952   1.459   1.577   1.984  0.1435  0.1794 -0.3890
  243MOL0     C31953   1.366   1.466   1.965 -0.6154  0.3628 -0.8204
  243MOL0     C31954   1.349   1.393   2.102  0.3932  0.1954  0.5123
  243MOL0     C31955   1.197   1.380   2.135  0.5074  0.1572  0.3964
  243MOL0     C31956   1.172   1.305   2.271 -0.0096  0.3989  0.0781
  243MOL0     C31957   1.028   1.322   2.329 -0.1908  0.6554  0.2638
  243MOL0     C31958   0.936   1.277   2.225  0.1202  0.1886  0.4280
  243MOL0     C31959   0.791   1.260   2.282 -0.1331  0.4938  0.0816
  243MOL0     C31960   0.721   1.385   2.331  0.3476 -0.6727  0.1064
  243MOL0     N31961   0.586   1.356   2.358  0.2666 -0.3343  0.3505
  243MOL0     C31962   0.483   1.283   2.295 -1.1754  0.5039 -0.7213
  243MOL0     C31963   0.380   1.291   2.377 -0.0067  0.5082 -1.4714
  243MOL0     C31964   0.253   1.214   2.355  0.8362 -0.5362  0.5544
  243MOL0     C31965   0.159   1.219   2.475  0.2937 -0.3110  0.0284
  243MOL0     C31966   0.084   1.086   2.500  0.0248 -1.1627  0.4910
  243MOL0     C31967  -0.061   1.090   2.439  0.0440 -0.1883 -0.2849
  243MOL0     O31968  -0.148   1.186   2.508 -0.0894 -0.5392 -0.3952
  243MOL0     C31969  -0.200   1.161   2.630 -0.7548 -0.6887  1.1319
  243MOL0     C31970  -0.168   1.044   2.706 -0.3068 -0.0490  0.2623
  243MOL0     C31971  -0.228   1.036   2.835  0.2096  0.3513 -0.2992
  243MOL0     C31972  -0.302   1.144   2.884  0.8465  0.5759  0.2845
  243MOL0     C31973  -0.361   1.148   3.025  0.7220  1.0432  0.6216
  243MOL0     O31974  -0.425   1.259   3.068 -0.1171 -0.4966 -0.1812
  243MOL0     C31975  -0.453   1.281   3.200  0.2310  0.0433  0.6522
  243MOL0     C31976  -0.561   1.217   3.265 -0.1689  0.1316  0.0062
  243MOL0     C31977  -0.591   1.247   3.398 -0.5866 -0.8087  0.4888
  243MOL0     C31978  -0.511   1.340   3.469  0.5803 -0.7849 -0.1138
  243MOL0     O31979  -0.539   1.365   3.595  0.1258 -0.4923  0.1425
  243MOL0     C31980  -0.545   1.259   3.690  0.4660 -1.0757 -0.3931
  243MOL0     C31981  -0.409   1.207   3.731 -0.6010  0.0326  0.1273
  243MOL0     C31982  -0.327   1.319   3.808 -0.6759 -0.8702 -0.1167
  243MOL0     C31983  -0.183   1.268   3.818 -0.5127  0.9598 -0.5930
  243MOL0     C31984  -0.090   1.346   3.919 -0.1082  0.6372 -0.7808
  243MOL0     C31985   0.050   1.312   3.879 -1.2928  0.4893 -0.2114
  243MOL0     C31986   0.165   1.375   3.970 -0.4028  0.1535 -0.1640
  243MOL0     C31987   0.291   1.401   3.892 -0.0003  0.1945  0.2437
  243MOL0    Cl31988   0.270   1.512   3.749 -0.4634 -0.1320  0.0580
  243MOL0     C31989  -0.405   1.405   3.405 -0.3268  0.2188  0.6897
  243MOL0     C31990  -0.384   1.375   3.265 -0.7391 -0.3751  0.0230
  243MOL0     O31991  -0.336   1.046   3.089 -0.3674  0.2910 -0.9977
  243MOL0     C31992  -0.329   1.256   2.804 -0.4474 -0.0247  0.4890
  243MOL0     C31993  -0.277   1.263   2.679 -0.2202  0.4305  0.3068
  243MOL0     N31994   0.413   1.364   2.496 -0.2197 -0.0403 -0.0868
  243MOL0     N31995   0.540   1.393   2.481 -0.3198  0.3643 -0.3240
  243MOL0     C31996   1.449   1.629   1.744 -0.3462 -0.5527  0.3742
  243MOL0     C31997   1.489   1.716   1.638  0.0280 -0.3069 -0.2742
  243MOL0     C31998   1.807   2.003   1.435 -0.3281  0.6035  0.0342
  243MOL0     C31999   1.712   2.096   1.381 -0.1460 -0.3160  0.2316
  243MOL0     C32000   1.754   2.203   1.302 -0.2589  0.0415  1.2122
  243MOL0     C32001   1.891   2.229   1.275 -0.1299  0.9671 -0.1496
  243MOL0     O32002   1.915   2.339   1.204 -0.0848  0.6483 -0.2589
  243MOL0     C32003   2.045   2.346   1.147  0.7738  0.0408 -0.3545
  243MOL0     C32004   2.040   2.463   1.060  1.2486 -0.0273  0.7658
  243MOL0     C32005   2.169   2.513   0.991  0.1805 -0.3637 -0.6318
  243MOL0     C32006   2.227   2.412   0.893  0.6849 -0.4066 -0.7517
  243MOL0     C32007   2.139   2.365   0.794  0.1158  0.0992  0.3528
  243MOL0     C32008   2.068   2.323   0.704 -0.4318 -0.0648  0.1861
  243MOL0     C32009   1.978   2.125   1.310  0.1917  0.4014 -0.3198
  243MOL0     C32010   1.937   2.022   1.401  0.9130 -0.0146  0.5281
  243MOL0     H32011   1.748   1.874   1.805  2.0761 -2.2921  0.8741
  243MOL0     H32012   1.649   1.728   1.997  4.0504 -1.0636 -1.2838
  243MOL0     H32013   1.405   1.391   1.896  0.2206 -1.0606  1.1334
  243MOL0     H32014   1.279   1.515   1.921  0.5650  1.2084 -2.3378
  243MOL0     H32015   1.391   1.448   2.187  1.4939 -2.4161  1.7716
  243MOL0     H32016   1.407   1.300   2.095 -0.1911 -0.1710  0.5153
  243MOL0     H32017   1.152   1.327   2.050  2.6552  0.0347 -0.7306
  243MOL0     H32018   1.156   1.482   2.135 -1.0844 -0.4610  0.6342
  243MOL0     H32019   1.184   1.197   2.267 -2.3685  0.1049 -0.8693
  243MOL0     H32020   1.235   1.348   2.349 -1.4624  1.2860  0.7889
  243MOL0     H32021   0.997   1.421   2.365 -2.0477 -0.6456  2.5863
  243MOL0     H32022   1.019   1.256   2.416  1.9149  3.7933  3.1289
  243MOL0     H32023   0.972   1.177   2.198  2.0889  1.0519 -0.3223
  243MOL0     H32024   0.940   1.349   2.143 -0.5278  0.9675  1.0583
  243MOL0     H32025   0.724   1.224   2.204 -1.3271  1.3803  0.6600
  243MOL0     H32026   0.801   1.174   2.349  0.1738  0.7640  0.3869
  243MOL0     H32027   0.735   1.469   2.263  0.8106  1.1726  2.3315
  243MOL0     H32028   0.765   1.427   2.422 -1.7380  0.3106  0.7310
  243MOL0     H32029   0.497   1.222   2.206  1.2713  1.2722 -0.9386
  243MOL0     H32030   0.274   1.108   2.337 -1.0986 -1.0654  1.1408
  243MOL0     H32031   0.214   1.260   2.264 -0.3228 -2.5152 -0.0260
  243MOL0     H32032   0.094   1.306   2.466  1.4121  0.6333  0.6954
  243MOL0     H32033   0.225   1.240   2.561  0.9077  3.0289 -1.0965
  243MOL0     H32034   0.137   0.994   2.474 -1.3753 -1.8691  0.0562
  243MOL0     H32035   0.060   1.073   2.605 -4.2913 -1.3338 -0.3399
  243MOL0     H32036  -0.099   0.989   2.456 -1.2134 -0.4344 -3.7124
  243MOL0     H32037  -0.056   1.115   2.333 -0.2171  2.7059  0.2960
  243MOL0     H32038  -0.113   0.964   2.658  0.1291  0.6490 -0.4155
  243MOL0     H32039  -0.216   0.942   2.888 -0.6218  0.2561 -0.2688
  243MOL0     H32040  -0.622   1.138   3.221 -4.2352  2.8345  0.3101
  243MOL0     H32041  -0.681   1.208   3.446 -1.1650 -0.8788 -0.6284
  243MOL0     H32042  -0.598   1.168   3.662  0.8159 -2.1817  2.2812
  243MOL0     H32043  -0.595   1.282   3.784 -0.9191 -0.1584 -1.3188
  243MOL0     H32044  -0.355   1.158   3.649 -1.4135 -1.9093  0.7037
  243MOL0     H32045  -0.419   1.122   3.799  1.5155 -0.6954 -0.3895
  243MOL0     H32046  -0.366   1.333   3.909  0.9852 -0.3333  0.4806
  243MOL0     H32047  -0.332   1.417   3.759  3.2132 -0.3895  0.0876
  243MOL0     H32048  -0.191   1.164   3.850  0.4117  0.8703 -0.6355
  243MOL0     H32049  -0.135   1.260   3.721  0.0172 -0.6144 -0.2182
  243MOL0     H32050  -0.110   1.310   4.021  0.4621  1.5117 -0.3543
  243MOL0     H32051  -0.118   1.451   3.914  0.6656  0.8975 -0.0029
  243MOL0     H32052   0.071   1.346   3.777 -0.3176  0.8862  0.1067
  243MOL0     H32053   0.074   1.205   3.890  0.5464  1.0245  1.6224
  243MOL0     H32054   0.126   1.469   4.009 -1.3297  1.3836 -3.6772
  243MOL0     H32055   0.186   1.311   4.056 -0.1917 -3.5061 -2.6872
  243MOL0     H32056   0.314   1.300   3.858 -2.0267 -0.0148 -0.6556
  243MOL0     H32057   0.363   1.449   3.960 -1.6198  1.8176  0.8861
  243MOL0     H32058  -0.335   1.468   3.458  1.5224 -1.3257  0.1680
  243MOL0     H32059  -0.300   1.436   3.232  0.0413 -0.3044  1.9753
  243MOL0     H32060  -0.394   1.336   2.838  1.3217 -0.2274  5.0631
  243MOL0     H32061  -0.279   1.362   2.635  0.3856  1.4591  2.4512
  243MOL0     H32062   1.389   1.541   1.723 -4.0865  1.3960  1.9702
  243MOL0     H32063   1.442   1.720   1.540  1.9106 -0.9990 -1.2415
  243MOL0     H32064   1.607   2.091   1.408 -0.3084 -1.4273 -0.5243
  243MOL0     H32065   1.683   2.270   1.254 -0.9896 -2.3955 -1.3947
  243MOL0     H32066   2.080   2.259   1.092 -1.3105 -1.5536  0.6956
  243MOL0     H32067   2.113   2.373   1.228 -2.4311  2.5367  1.7709
  243MOL0     H32068   1.963   2.457   0.982  1.7842 -1.6010  0.3140
  243MOL0     H32069   1.994   2.541   1.121 -2.2520 -0.5769 -0.9286
  243MOL0     H32070   2.243   2.536   1.068 -0.9616 -2.5167  1.2453
  243MOL0     H32071   2.158   2.599   0.925 -2.1772 -1.9022 -2.4612
  243MOL0     H32072   2.315   2.454   0.844 -0.2050  0.4614 -1.6482
  243MOL0     H32073   2.267   2.323   0.942 -0.5699 -1.1661 -1.0862
  243MOL0     H32074   2.005   2.290   0.624  0.9156 -0.0192 -0.9443
  243MOL0     H32075   2.086   2.137   1.303  0.4650  1.9995  3.6266
  243MOL0     H32076   2.005   1.948   1.443 -1.2232 -2.4619 -0.0752
  244MOL0     O32077   9.790   0.603   1.953  0.3064  0.3684 -0.2929
  244MOL0     C32078   9.743   0.539   2.047 -0.5416  0.8748 -0.3155
  244MOL0     O32079   9.822   0.465   2.139  0.5566 -0.9711  0.3087
  244MOL0     C32080   9.956   0.484   2.120 -0.3144 -0.0861 -0.4962
  244MOL0     C32081  10.029   0.556   2.219  0.1764 -1.3309 -0.8327
  244MOL0     C32082  10.169   0.569   2.201 -0.0861  0.3669  0.5840
  244MOL0     C32083  10.233   0.498   2.100 -0.4358 -0.1774  0.6459
  244MOL0     O32084  10.370   0.520   2.089 -0.1381 -0.6089  0.1646
  244MOL0     C32085  10.424   0.542   1.959  0.7104  0.4222 -0.4472
  244MOL0     C32086  10.548   0.619   1.970 -0.4508  0.4986  0.2273
  244MOL0     C32087  10.521   0.772   1.990 -0.3716 -0.3502  0.4182
  244MOL0     C32088  10.488   0.814   2.136  0.0954 -0.6522 -0.2245
  244MOL0     C32089  10.484   0.971   2.148 -0.4118 -0.2105 -0.5645
  244MOL0     C32090  10.501   1.017   2.289  1.2812  0.0715 -0.9178
  244MOL0     C32091  10.373   1.022   2.368 -0.2387 -0.2250  0.4475
  244MOL0     C32092  10.339   0.890   2.442  0.7554  0.3782  0.4298
  244MOL0     N32093  10.213   0.896   2.512  0.5375  0.4491  0.4014
  244MOL0     C32094  10.184   0.973   2.628 -0.7165  0.4455  0.5353
  244MOL0     C32095  10.050   0.961   2.646 -0.4589  0.7414 -0.4717
  244MOL0     C32096   9.973   1.034   2.748  0.2861 -0.4759  0.0336
  244MOL0     C32097   9.827   1.057   2.712 -0.9546  1.0398 -0.4205
  244MOL0     C32098   9.794   1.171   2.800  0.2970 -0.6693 -0.3874
  244MOL0     C32099   9.643   1.193   2.814  0.6954 -0.3597 -0.3286
  244MOL0     O32100   9.579   1.117   2.909 -0.0235 -0.2335 -0.4301
  244MOL0     C32101   9.449   1.142   2.949 -0.2637  0.2038 -0.5455
  244MOL0     C32102   9.341   1.134   2.854 -0.1333  0.7598 -0.6080
  244MOL0     C32103   9.212   1.151   2.881 -0.7710  1.0841 -0.9630
  244MOL0     C32104   9.178   1.170   3.016 -0.2249  0.5437  0.1087
  244MOL0     C32105   9.035   1.196   3.036 -0.6031  0.6144  0.4363
  244MOL0     O32106   9.006   1.298   3.126  1.2304  0.4279  0.7827
  244MOL0     C32107   8.877   1.323   3.146  0.4591  0.4005 -0.0275
  244MOL0     C32108   8.833   1.454   3.123  0.1768  0.1984  0.7248
  244MOL0     C32109   8.694   1.486   3.134 -0.4384  0.3798 -0.4909
  244MOL0     C32110   8.604   1.392   3.200 -0.7217 -0.9126 -0.0177
  244MOL0     O32111   8.474   1.422   3.222  0.0712 -1.0298  0.1078
  244MOL0     C32112   8.437   1.544   3.293 -0.7058  0.9647 -0.4530
  244MOL0     C32113   8.371   1.511   3.426 -1.1873  0.5538 -0.7337
  244MOL0     C32114   8.461   1.440   3.520 -0.0086  0.1158  0.9504
  244MOL0     C32115   8.393   1.456   3.654  0.3892 -0.0059 -0.2731
  244MOL0     C32116   8.463   1.386   3.766 -0.8518  0.0727 -0.1546
  244MOL0     C32117   8.604   1.444   3.790 -0.7824  0.6292  0.0817
  244MOL0     C32118   8.678   1.351   3.884  0.5142 -0.4471 -0.8495
  244MOL0     C32119   8.817   1.408   3.919  0.6517 -0.0900 -0.3864
  244MOL0    Cl32120   8.903   1.291   4.037  0.1900  0.2819 -0.1148
  244MOL0     C32121   8.658   1.270   3.239  0.1813  0.3743  0.3522
  244MOL0     C32122   8.787   1.235   3.216  0.1322 -1.2434  0.5288
  244MOL0     O32123   8.948   1.122   2.978  0.4929  0.2968 -0.9697
  244MOL0     C32124   9.281   1.188   3.110  0.2102 -0.1602 -0.4962
  244MOL0     C32125   9.415   1.173   3.082 -1.0090  0.5654  0.6724
  244MOL0     N32126  10.006   0.863   2.558 -0.1817 -0.5928 -0.4503
  244MOL0     N32127  10.097   0.838   2.475 -0.8641  0.1194  0.0413
  244MOL0     C32128  10.155   0.429   2.002 -0.3345 -0.5053  0.2620
  244MOL0     C32129  10.018   0.429   2.012 -0.1812  0.0863  0.5511
  244MOL0     C32130   9.597   0.533   2.067 -0.5672  0.2228 -0.9851
  244MOL0     C32131   9.504   0.620   1.998  0.0399  0.0895  0.3783
  244MOL0     C32132   9.366   0.616   2.032  0.0206 -1.5276 -0.1434
  244MOL0     C32133   9.327   0.537   2.132  0.8631  0.5933 -1.1392
  244MOL0     O32134   9.195   0.555   2.149 -1.1537  0.5862 -0.2821
  244MOL0     C32135   9.129   0.434   2.181  0.9401  0.8744  0.0450
  244MOL0     C32136   9.121   0.336   2.055  0.3887  0.0542 -0.9736
  244MOL0     C32137   9.015   0.367   1.952 -0.4049  0.0632 -0.4725
  244MOL0     C32138   9.058   0.474   1.854 -0.4174  0.8728 -0.3572
  244MOL0     C32139   9.160   0.439   1.753 -0.1841 -0.6366 -0.4623
  244MOL0     C32140   9.254   0.398   1.683  0.5566  0.2361 -0.3291
  244MOL0     C32141   9.419   0.448   2.198 -0.1678 -0.4726 -1.1883
  244MOL0     C32142   9.553   0.443   2.166  0.3039  0.0833 -0.0562
  244MOL0     H32143   9.972   0.593   2.303 -2.5897 -0.0709 -3.0692
  244MOL0     H32144  10.230   0.623   2.273  3.6435  0.0813 -2.0527
  244MOL0     H32145  10.350   0.594   1.896 -1.5740 -0.7266  1.1354
  244MOL0     H32146  10.458   0.446   1.919  0.0025  0.8021 -2.0380
  244MOL0     H32147  10.608   0.613   1.879 -0.7349  1.2653 -0.0236
  244MOL0     H32148  10.617   0.590   2.049  1.3790  1.0407 -1.1025
  244MOL0     H32149  10.445   0.810   1.921 -1.2847 -0.4590  1.3473
  244MOL0     H32150  10.607   0.835   1.966 -1.7090  2.2146  1.8994
  244MOL0     H32151  10.391   0.774   2.168  0.4476  0.0133  1.7699
  244MOL0     H32152  10.566   0.771   2.198  1.1546  1.7709  0.2367
  244MOL0     H32153  10.395   1.012   2.100 -0.0084  1.1256 -0.2206
  244MOL0     H32154  10.569   1.013   2.092  0.3027  1.0265  1.3690
  244MOL0     H32155  10.539   1.120   2.286  1.0245  0.1622 -3.6266
  244MOL0     H32156  10.571   0.950   2.340 -1.0949  0.0915  2.7699
  244MOL0     H32157  10.393   1.078   2.460  3.8734  0.0768 -0.4398
  244MOL0     H32158  10.292   1.070   2.312  1.1576  0.3320 -1.1672
  244MOL0     H32159  10.414   0.875   2.521  0.7452  0.8730  0.5374
  244MOL0     H32160  10.336   0.808   2.370 -2.6586  0.5609  0.2014
  244MOL0     H32161  10.252   1.037   2.683 -0.7035 -0.9873  2.2947
  244MOL0     H32162  10.016   1.134   2.763 -1.4011  0.6880 -2.2256
  244MOL0     H32163   9.973   0.978   2.842  0.5232 -0.2919  0.1455
  244MOL0     H32164   9.779   0.961   2.737 -3.4564  2.6771  1.6005
  244MOL0     H32165   9.818   1.077   2.605  0.1219  0.1073 -0.7106
  244MOL0     H32166   9.846   1.180   2.896  2.1119  0.1071 -1.3786
  244MOL0     H32167   9.830   1.255   2.739  0.7509 -1.2449 -0.9241
  244MOL0     H32168   9.599   1.162   2.719  1.1465 -0.0908 -0.6274
  244MOL0     H32169   9.629   1.300   2.834  0.9451 -0.4258  0.2343
  244MOL0     H32170   9.360   1.102   2.752 -1.2313 -0.2296 -0.5257
  244MOL0     H32171   9.136   1.128   2.806  1.2026 -0.4324 -2.6177
  244MOL0     H32172   8.907   1.526   3.089  1.5631 -1.8624 -0.9219
  244MOL0     H32173   8.676   1.591   3.115  2.2447  1.1232  0.6036
  244MOL0     H32174   8.362   1.603   3.239  0.5620  1.6949 -1.4780
  244MOL0     H32175   8.519   1.616   3.294 -0.2968  0.5190 -1.2203
  244MOL0     H32176   8.282   1.450   3.411 -0.8980  0.0062 -0.2487
  244MOL0     H32177   8.348   1.607   3.474  2.2034  0.9881  0.2849
  244MOL0     H32178   8.554   1.497   3.521 -2.5806  4.8073  2.1300
  244MOL0     H32179   8.474   1.335   3.494  1.0055 -0.1355  2.3643
  244MOL0     H32180   8.381   1.562   3.680 -1.3313  0.1879 -1.6834
  244MOL0     H32181   8.295   1.408   3.653  0.5002 -0.2381 -0.2037
  244MOL0     H32182   8.475   1.278   3.751 -1.5891  0.1372 -1.3227
  244MOL0     H32183   8.404   1.399   3.857  1.1607  3.0562  0.8570
  244MOL0     H32184   8.609   1.550   3.820  0.4302  0.6915 -0.2995
  244MOL0     H32185   8.659   1.433   3.696  0.1343 -0.7075  0.7439
  244MOL0     H32186   8.616   1.329   3.971  2.0229  0.5890  0.5392
  244MOL0     H32187   8.696   1.261   3.824  1.0933 -0.1930 -1.0704
  244MOL0     H32188   8.814   1.498   3.981 -0.7387 -1.6152  1.9113
  244MOL0     H32189   8.877   1.427   3.830  0.6234 -0.2767 -0.4437
  244MOL0     H32190   8.594   1.202   3.294 -1.4762 -0.4314 -2.3853
  244MOL0     H32191   8.813   1.139   3.260 -0.3410 -1.3207  0.6506
  244MOL0     H32192   9.250   1.190   3.214 -0.4075 -2.1627 -0.5963
  244MOL0     H32193   9.495   1.185   3.155 -0.0128 -1.7198  0.0446
  244MOL0     H32194  10.201   0.400   1.908 -0.7960 -0.7141  0.0960
  244MOL0     H32195   9.970   0.384   1.926 -0.2511 -4.1895  2.5549
  244MOL0     H32196   9.529   0.697   1.926  0.0420 -0.6114 -0.3767
  244MOL0     H32197   9.288   0.680   1.991 -2.2302 -3.6106  0.6843
  244MOL0     H32198   9.033   0.475   2.214  0.3093  2.3578 -3.2323
  244MOL0     H32199   9.171   0.375   2.263 -2.7179 -0.3840  1.2028
  244MOL0     H32200   9.220   0.341   2.009  0.1822  0.2283 -1.4026
  244MOL0     H32201   9.105   0.233   2.087 -2.6974  0.7857  0.2249
  244MOL0     H32202   8.920   0.391   2.001  0.4481  0.2288  1.1747
  244MOL0     H32203   8.990   0.275   1.898 -0.2679 -0.0482 -0.3471
  244MOL0     H32204   8.969   0.509   1.801 -1.5171  1.7049  1.9045
  244MOL0     H32205   9.102   0.554   1.913 -0.0725 -1.3734  2.7064
  244MOL0     H32206   9.327   0.373   1.608  0.5399 -1.4002  0.1764
  244MOL0     H32207   9.389   0.379   2.277  3.5886  2.5092  3.4177
  244MOL0     H32208   9.611   0.363   2.210 -0.5671 -0.7856 -0.4449
  245MOL0     O32209   4.030  11.016   3.376 -0.3782 -0.2463 -0.0178
  245MOL0     C32210   4.011  11.078   3.486 -0.0540  0.5817  0.0582
  245MOL0     O32211   3.894  11.118   3.534 -0.0624  0.2509 -0.0857
  245MOL0     C32212   3.770  11.081   3.484 -0.7521 -0.3766  0.2573
  245MOL0     C32213   3.752  10.957   3.434  0.0412  0.3961  0.0805
  245MOL0     C32214   3.626  10.918   3.390  0.2240 -0.6597 -0.1910
  245MOL0     C32215   3.517  11.003   3.399 -0.1027  0.6945  0.0334
  245MOL0     O32216   3.393  10.978   3.347  0.2215 -0.2030 -0.6652
  245MOL0     C32217   3.363  10.849   3.294 -0.4602  0.1413  0.0136
  245MOL0     C32218   3.218  10.853   3.255  0.1385  0.8386 -0.2053
  245MOL0     C32219   3.121  10.851   3.375  0.5861 -1.1948  0.2627
  245MOL0     C32220   2.977  10.835   3.327  0.8222 -0.4899 -0.3017
  245MOL0     C32221   2.876  10.855   3.442  0.3885 -1.0309  0.3504
  245MOL0     C32222   2.893  10.762   3.567 -0.1956  0.3987  1.1257
  245MOL0     C32223   2.909  10.611   3.552  0.1874  0.0248  0.4421
  245MOL0     C32224   2.907  10.522   3.685 -0.3270  0.9657  0.3568
  245MOL0     N32225   3.005  10.409   3.667 -0.0220 -0.3605  0.0431
  245MOL0     C32226   3.140  10.416   3.664  0.6301  0.0541 -0.4065
  245MOL0     C32227   3.185  10.289   3.655  0.4332 -0.3246  0.8036
  245MOL0     C32228   3.333  10.239   3.655 -0.3276  0.8306 -0.0453
  245MOL0     C32229   3.418  10.288   3.776 -0.2689  0.3279  0.0050
  245MOL0     C32230   3.559  10.243   3.746  0.1600  0.1833 -0.1629
  245MOL0     C32231   3.657  10.326   3.836 -0.1686 -0.4190 -0.5230
  245MOL0     O32232   3.783  10.277   3.806 -0.7592  0.6051 -0.9113
  245MOL0     C32233   3.892  10.338   3.857  0.3748  0.0300 -0.1503
  245MOL0     C32234   4.006  10.298   3.797  0.5653 -0.2786 -0.3984
  245MOL0     C32235   4.135  10.334   3.836 -0.5837  0.9857 -0.5809
  245MOL0     C32236   4.148  10.404   3.957  0.0217  0.3682  0.1810
  245MOL0     C32237   4.280  10.446   4.010  0.8032  0.1425  0.1810
  245MOL0     O32238   4.400  10.408   3.960 -0.3970 -0.1915  0.2086
  245MOL0     C32239   4.510  10.486   3.970  0.2889  0.3872 -0.3980
  245MOL0     C32240   4.504  10.626   3.968 -0.6018 -0.1766  0.2151
  245MOL0     C32241   4.633  10.692   3.968  0.6004  0.2125  0.1804
  245MOL0     C32242   4.748  10.630   3.971 -0.3308 -0.9228 -1.1977
  245MOL0     O32243   4.862  10.706   3.991  0.0963  0.1146 -0.2525
  245MOL0     C32244   4.990  10.655   3.962  0.1383 -0.3104 -0.6591
  245MOL0     C32245   5.079  10.777   3.933 -0.4316  0.0885 -0.3021
  245MOL0     C32246   5.228  10.751   3.920 -0.0203 -0.0029  0.2578
  245MOL0     C32247   5.301  10.883   3.914  0.8376  0.1611  0.0387
  245MOL0     C32248   5.444  10.877   3.852  0.1998 -0.4814  0.0662
  245MOL0     C32249   5.522  11.003   3.854  0.3143 -0.2010  0.0531
  245MOL0     C32250   5.671  10.967   3.821  0.3197 -0.0967 -0.4612
  245MOL0     C32251   5.746  11.082   3.764  0.2744 -0.2371  0.0725
  245MOL0    Cl32252   5.731  11.218   3.883 -0.1616 -0.2749  0.5460
  245MOL0     C32253   4.752  10.497   3.975 -0.2183  0.0302  0.5140
  245MOL0     C32254   4.630  10.426   3.974 -0.2752 -0.1980  0.6983
  245MOL0     O32255   4.268  10.531   4.104  0.6076 -0.0262  0.3791
  245MOL0     C32256   4.028  10.453   4.011  0.0991  1.4689 -0.8442
  245MOL0     C32257   3.897  10.422   3.965 -0.0895 -0.2040 -0.7599
  245MOL0     N32258   3.079  10.207   3.661  0.2624  0.2052 -0.3000
  245MOL0     N32259   2.973  10.274   3.663  0.3804  0.0952  0.3173
  245MOL0     C32260   3.538  11.126   3.456  0.4274  0.0679 -0.1630
  245MOL0     C32261   3.665  11.173   3.501  0.7465  0.8864  0.1959
  245MOL0     C32262   4.136  11.134   3.546  0.1532  0.4222 -0.0947
  245MOL0     C32263   4.138  11.239   3.638  0.1844  0.0833  0.6169
  245MOL0     C32264   4.256  11.298   3.685  0.3209  0.1510 -0.3760
  245MOL0     C32265   4.378  11.254   3.644  0.7210 -0.1361 -0.5265
  245MOL0     O32266   4.477  11.311   3.721  0.8102 -0.6588 -0.7853
  245MOL0     C32267   4.606  11.293   3.673  0.2742  0.2884 -0.2323
  245MOL0     C32268   4.678  11.162   3.697  0.0371  0.1212 -0.7639
  245MOL0     C32269   4.716  11.140   3.838  0.0073  0.5083 -0.6633
  245MOL0     C32270   4.850  11.061   3.857 -1.0491 -0.1909 -0.1918
  245MOL0     C32271   4.967  11.146   3.817  0.0096 -0.2413  0.6667
  245MOL0     C32272   5.055  11.223   3.782 -0.0747  0.0745 -0.3583
  245MOL0     C32273   4.383  11.164   3.543  0.1192  0.4160  0.5877
  245MOL0     C32274   4.268  11.098   3.494  0.0444 -0.9007  0.0341
  245MOL0     H32275   3.830  10.884   3.420  1.5005  1.9230 -0.0351
  245MOL0     H32276   3.615  10.815   3.359  1.4120 -0.7203 -0.4790
  245MOL0     H32277   3.393  10.773   3.367 -2.4388  0.3755  1.1325
  245MOL0     H32278   3.421  10.829   3.203 -0.9919 -1.3578 -0.0240
  245MOL0     H32279   3.203  10.755   3.209 -1.6795  0.2114  1.5984
  245MOL0     H32280   3.191  10.923   3.176 -1.1747  1.4592  0.7572
  245MOL0     H32281   3.134  10.945   3.431  3.8655 -0.8920 -0.7678
  245MOL0     H32282   3.164  10.775   3.441  0.8587 -1.3949 -0.1420
  245MOL0     H32283   2.972  10.907   3.244  0.7840  1.7761  1.5740
  245MOL0     H32284   2.958  10.744   3.270 -3.6969 -0.2333  0.4729
  245MOL0     H32285   2.775  10.856   3.399  1.1520  2.3307 -1.7512
  245MOL0     H32286   2.886  10.959   3.476  2.0274 -0.8431 -0.5731
  245MOL0     H32287   2.807  10.766   3.635 -1.9385 -1.6265 -0.8182
  245MOL0     H32288   2.984  10.801   3.615 -0.2052  4.5221 -1.6818
  245MOL0     H32289   2.826  10.580   3.488  0.4725 -1.2319  0.6668
  245MOL0     H32290   3.004  10.600   3.499  1.5496  2.3854  2.1872
  245MOL0     H32291   2.808  10.479   3.703 -0.0979  0.0448 -0.5119
  245MOL0     H32292   2.930  10.575   3.778  1.7980  0.2909  0.2753
  245MOL0     H32293   3.202  10.502   3.690 -0.2679 -0.2171  3.1057
  245MOL0     H32294   3.371  10.255   3.554  0.3301  2.6907  0.4516
  245MOL0     H32295   3.327  10.133   3.680 -2.0884  1.0040  0.4352
  245MOL0     H32296   3.386  10.241   3.870  1.6990 -0.3998  0.3604
  245MOL0     H32297   3.415  10.396   3.789  1.9389  0.2571  1.8717
  245MOL0     H32298   3.570  10.139   3.775  3.3827 -0.1623 -2.1400
  245MOL0     H32299   3.581  10.269   3.641  1.4183  0.3587  0.1329
  245MOL0     H32300   3.639  10.303   3.942  2.6794  1.1080  0.3781
  245MOL0     H32301   3.656  10.434   3.823  3.2558 -0.4350 -2.0013
  245MOL0     H32302   4.000  10.241   3.705  2.8879  1.8801 -2.0453
  245MOL0     H32303   4.210  10.295   3.768 -0.2949 -1.7334  1.1177
  245MOL0     H32304   4.408  10.675   3.953 -1.0313 -1.4397 -1.4853
  245MOL0     H32305   4.627  10.800   3.951 -0.4699 -0.1690 -2.3587
  245MOL0     H32306   4.986  10.590   3.874  0.3982  0.1490 -1.0088
  245MOL0     H32307   5.033  10.603   4.049 -0.1420  1.1279  0.3726
  245MOL0     H32308   5.070  10.863   4.001  0.0500 -0.9497  1.1283
  245MOL0     H32309   5.051  10.822   3.838 -1.6352 -0.5116 -0.2519
  245MOL0     H32310   5.253  10.698   3.828 -0.6818 -3.1812  1.7900
  245MOL0     H32311   5.258  10.685   4.002  0.1035  0.1467  0.3336
  245MOL0     H32312   5.241  10.957   3.860 -0.5144 -0.9788 -0.0819
  245MOL0     H32313   5.312  10.930   4.012 -0.4364  4.3803 -1.6132
  245MOL0     H32314   5.435  10.850   3.746 -3.7798  0.2508  0.0626
  245MOL0     H32315   5.494  10.793   3.901 -3.9434 -1.7760  2.6130
  245MOL0     H32316   5.524  11.045   3.955  2.2380 -1.2324  0.4972
  245MOL0     H32317   5.486  11.068   3.774  3.7345 -0.8483 -2.2577
  245MOL0     H32318   5.725  10.939   3.912  2.6720  0.0326 -1.7398
  245MOL0     H32319   5.675  10.876   3.760  0.0935 -0.3563 -0.0893
  245MOL0     H32320   5.723  11.110   3.661 -1.1275 -1.6674 -0.0458
  245MOL0     H32321   5.851  11.053   3.765  0.1728 -0.9254 -2.1762
  245MOL0     H32322   4.846  10.443   3.983 -0.8173 -1.0087  0.6682
  245MOL0     H32323   4.619  10.318   3.965 -4.2016  0.1693 -0.9665
  245MOL0     H32324   4.031  10.489   4.113  1.2115 -0.2646 -0.2099
  245MOL0     H32325   3.804  10.461   4.004  0.3778  1.6363 -1.3856
  245MOL0     H32326   3.449  11.188   3.464  0.7284  0.9978 -2.9889
  245MOL0     H32327   3.683  11.272   3.539 -2.6364  1.3412  0.8680
  245MOL0     H32328   4.047  11.284   3.678  0.0888 -1.5403  2.3590
  245MOL0     H32329   4.238  11.371   3.763 -0.4064 -0.8825  0.4471
  245MOL0     H32330   4.664  11.377   3.712  0.5133 -0.3547  0.8344
  245MOL0     H32331   4.603  11.303   3.564 -1.8768 -0.6905 -0.3265
  245MOL0     H32332   4.618  11.078   3.662 -0.3892 -1.0809  2.5456
  245MOL0     H32333   4.768  11.186   3.639 -0.7756  1.2616 -1.6006
  245MOL0     H32334   4.641  11.078   3.888  3.4750 -1.3128  2.9072
  245MOL0     H32335   4.727  11.238   3.885  2.8033 -0.8804  1.9032
  245MOL0     H32336   4.865  11.031   3.961  0.3593  2.7367  0.5622
  245MOL0     H32337   4.841  10.966   3.803  2.4877 -0.7393 -0.0276
  245MOL0     H32338   5.131  11.292   3.752 -0.6850  0.6684 -0.5506
  245MOL0     H32339   4.479  11.125   3.512  0.6198 -0.8178  3.3729
  245MOL0     H32340   4.284  11.031   3.410 -0.0356 -0.1703 -0.5790
  246MOL0     O32341   0.074   7.993   0.530  0.3270  0.0573  0.4392
  246MOL0     C32342   0.067   8.105   0.481  0.6892  0.8079  0.5601
  246MOL0     O32343   0.177   8.174   0.428  0.3663  0.1372  0.4294
  246MOL0     C32344   0.315   8.139   0.445 -0.0520  0.4853  0.2376
  246MOL0     C32345   0.363   8.100   0.569  0.3784 -0.2164 -0.0600
  246MOL0     C32346   0.500   8.056   0.571  0.2268 -0.5089 -0.1662
  246MOL0     C32347   0.588   8.051   0.468 -0.1946  0.4445  0.7410
  246MOL0     O32348   0.719   8.019   0.490  0.1914  0.9325 -0.3908
  246MOL0     C32349   0.800   7.995   0.378  0.2240  0.4378  0.1588
  246MOL0     C32350   0.945   7.971   0.430  0.1113 -0.3426 -0.6331
  246MOL0     C32351   0.998   8.092   0.507  0.1038 -0.6100  0.7258
  246MOL0     C32352   1.150   8.082   0.539  0.5910  0.5877  0.4001
  246MOL0     C32353   1.200   8.203   0.624  0.0278  0.7824  0.2175
  246MOL0     C32354   1.351   8.198   0.647 -0.1803  1.0772 -0.1943
  246MOL0     C32355   1.410   8.333   0.685 -0.2143  0.0344  0.2628
  246MOL0     C32356   1.541   8.313   0.769  0.1505  0.4062 -0.0288
  246MOL0     N32357   1.639   8.231   0.694 -0.6118  0.8138 -1.4339
  246MOL0     C32358   1.681   8.253   0.570 -0.1552  0.1374  0.0320
  246MOL0     C32359   1.763   8.149   0.537 -0.6498  0.2464 -0.3978
  246MOL0     C32360   1.824   8.130   0.403  0.0143  0.0936  0.2546
  246MOL0     C32361   1.761   8.031   0.306  0.6737 -0.0974  0.3746
  246MOL0     C32362   1.623   8.085   0.258 -0.0480 -0.5250  1.1130
  246MOL0     C32363   1.631   8.200   0.159  0.6998  0.2562 -0.7310
  246MOL0     O32364   1.502   8.232   0.099 -0.6970  0.0778  0.3163
  246MOL0     C32365   1.406   8.297   0.166  0.1765 -0.2032  0.0678
  246MOL0     C32366   1.417   8.389   0.273  0.0392 -0.6011 -0.4206
  246MOL0     C32367   1.301   8.446   0.329 -0.6038  0.4083  0.5755
  246MOL0     C32368   1.175   8.425   0.271 -0.4083 -0.5583  0.3346
  246MOL0     C32369   1.057   8.488   0.325 -0.0432  0.1943 -0.5472
  246MOL0     O32370   0.948   8.486   0.248  0.3255 -0.3213 -0.4707
  246MOL0     C32371   0.828   8.510   0.312 -0.6246  0.6328 -0.5376
  246MOL0     C32372   0.772   8.404   0.377 -0.3297  0.6184  0.0693
  246MOL0     C32373   0.661   8.425   0.466 -0.1783 -0.4445  0.0715
  246MOL0     C32374   0.592   8.548   0.457 -0.2367  0.1520  0.7502
  246MOL0     O32375   0.486   8.560   0.538 -0.5051 -0.3578  0.1878
  246MOL0     C32376   0.373   8.641   0.491  0.5426  0.7083  0.7835
  246MOL0     C32377   0.254   8.619   0.576  1.2648 -0.6223  0.0255
  246MOL0     C32378   0.123   8.677   0.522 -0.2413  0.3200  0.2964
  246MOL0     C32379   0.005   8.649   0.618 -0.4524 -0.3038 -0.1438
  246MOL0     C32380  -0.136   8.692   0.558 -0.0344 -0.2085 -0.7857
  246MOL0     C32381  -0.243   8.642   0.655 -0.6630  0.3072  0.4741
  246MOL0     C32382  -0.387   8.654   0.611 -0.6332 -0.5935  0.1471
  246MOL0     C32383  -0.445   8.781   0.673 -0.0518  1.1998 -1.0237
  246MOL0    Cl32384  -0.617   8.785   0.630 -0.0269 -0.3000  0.3377
  246MOL0     C32385   0.649   8.654   0.389  0.5973  0.4914  0.0877
  246MOL0     C32386   0.767   8.634   0.317  0.2182  0.3172 -0.0469
  246MOL0     O32387   1.070   8.548   0.433  0.5818  0.5697 -0.2909
  246MOL0     C32388   1.171   8.344   0.152  0.1066  0.6393 -0.7306
  246MOL0     C32389   1.284   8.278   0.107  0.2488 -0.4304 -0.2222
  246MOL0     N32390   1.775   8.071   0.653 -0.1188  0.0026  0.4486
  246MOL0     N32391   1.689   8.114   0.736  0.0415  0.2870  0.5766
  246MOL0     C32392   0.533   8.089   0.338  0.1982 -0.3752 -0.9188
  246MOL0     C32393   0.403   8.139   0.329 -1.0082 -0.3310  0.2432
  246MOL0     C32394  -0.067   8.165   0.469 -0.2929  0.4511  0.5433
  246MOL0     C32395  -0.094   8.291   0.407  0.2276 -0.6652  0.0757
  246MOL0     C32396  -0.220   8.346   0.402  0.9488  0.0377 -0.8192
  246MOL0     C32397  -0.329   8.279   0.463 -0.2874  0.5253  0.0635
  246MOL0     O32398  -0.451   8.331   0.446  0.5670  0.4535 -0.1354
  246MOL0     C32399  -0.568   8.262   0.495  0.3555 -0.0877 -0.3921
  246MOL0     C32400  -0.682   8.362   0.456  0.8070  0.1095 -0.2265
  246MOL0     C32401  -0.817   8.310   0.515  0.2383  0.2071 -0.0905
  246MOL0     C32402  -0.862   8.172   0.456 -0.0856  0.0471 -0.8948
  246MOL0     C32403  -0.890   8.192   0.318  0.3116 -0.1812 -0.4775
  246MOL0     C32404  -0.921   8.198   0.202  1.2287  0.0428 -0.6489
  246MOL0     C32405  -0.305   8.152   0.524 -0.0294  0.4870 -0.0329
  246MOL0     C32406  -0.178   8.096   0.528 -0.5537 -0.3020  0.0328
  246MOL0     H32407   0.294   8.094   0.653  3.2161 -2.4703  2.3178
  246MOL0     H32408   0.540   8.033   0.669  2.1518  0.9077 -0.5707
  246MOL0     H32409   0.805   8.076   0.305 -1.0412  1.7207  1.4509
  246MOL0     H32410   0.775   7.904   0.321  0.4628 -0.5223  1.5362
  246MOL0     H32411   1.020   7.953   0.353 -0.3805 -2.8419 -0.6256
  246MOL0     H32412   0.952   7.881   0.492  3.0776 -1.1039 -1.8723
  246MOL0     H32413   0.947   8.100   0.604  1.9910 -2.3355  1.9522
  246MOL0     H32414   0.981   8.176   0.440 -0.5480 -1.7496 -0.5690
  246MOL0     H32415   1.161   7.987   0.591  0.3571  0.3426  0.0126
  246MOL0     H32416   1.216   8.080   0.452  1.0276 -2.1822  0.7307
  246MOL0     H32417   1.148   8.211   0.720 -5.0985  0.0332 -2.1547
  246MOL0     H32418   1.170   8.293   0.569  1.0055  2.3351  2.0960
  246MOL0     H32419   1.397   8.150   0.559  0.4853 -2.5198  1.9124
  246MOL0     H32420   1.366   8.130   0.731 -0.7521 -0.5585 -1.3687
  246MOL0     H32421   1.422   8.390   0.593  2.4579  1.6511  1.4931
  246MOL0     H32422   1.341   8.394   0.745  1.2444 -0.9640  3.1615
  246MOL0     H32423   1.511   8.277   0.868  0.0097  2.0355  0.5550
  246MOL0     H32424   1.593   8.405   0.797 -0.7417  0.5032  1.3940
  246MOL0     H32425   1.638   8.329   0.505 -1.0290  0.3457  0.8318
  246MOL0     H32426   1.930   8.102   0.404 -0.1863 -0.9438 -1.6621
  246MOL0     H32427   1.829   8.228   0.353 -1.0050  0.3451  0.6249
  246MOL0     H32428   1.743   7.941   0.365 -1.0917  1.4531  2.3424
  246MOL0     H32429   1.815   8.012   0.212 -0.3422 -0.2571 -0.1910
  246MOL0     H32430   1.567   8.001   0.216 -0.4037 -0.7901  2.1026
  246MOL0     H32431   1.569   8.115   0.348  1.6797  1.8397  1.4389
  246MOL0     H32432   1.704   8.170   0.083  1.2212  2.2520 -1.0752
  246MOL0     H32433   1.673   8.287   0.210 -3.4143  1.1789  1.5122
  246MOL0     H32434   1.508   8.407   0.329 -1.2522 -1.2036  2.0420
  246MOL0     H32435   1.305   8.498   0.424 -1.0511 -1.1389  1.4776
  246MOL0     H32436   0.823   8.308   0.368 -0.7189  0.5939 -2.4262
  246MOL0     H32437   0.603   8.352   0.521 -2.8363  1.7186  0.3496
  246MOL0     H32438   0.355   8.628   0.384 -0.9684  4.5242  0.4274
  246MOL0     H32439   0.399   8.747   0.490 -0.9557  1.0991 -0.0559
  246MOL0     H32440   0.260   8.662   0.677 -0.6418 -0.7028  0.2063
  246MOL0     H32441   0.237   8.511   0.577 -1.0942 -0.3167  1.6490
  246MOL0     H32442   0.100   8.631   0.425  1.9802  1.5321 -0.8608
  246MOL0     H32443   0.126   8.785   0.508 -2.7595  0.5797  1.1892
  246MOL0     H32444   0.008   8.540   0.629 -1.9491 -0.3146  0.2775
  246MOL0     H32445   0.019   8.690   0.718 -1.4394 -0.6956  0.1652
  246MOL0     H32446  -0.152   8.645   0.461  1.8017 -0.0763 -1.1879
  246MOL0     H32447  -0.133   8.800   0.542 -1.6057  0.4124  2.3168
  246MOL0     H32448  -0.221   8.686   0.753 -1.7933  0.9363  0.4557
  246MOL0     H32449  -0.232   8.533   0.652  2.4693  0.5630 -0.6229
  246MOL0     H32450  -0.391   8.662   0.502  0.6077  1.6148  0.2088
  246MOL0     H32451  -0.460   8.576   0.639 -2.1746  0.1746 -1.5381
  246MOL0     H32452  -0.393   8.864   0.624 -0.4045  0.6819 -2.3190
  246MOL0     H32453  -0.424   8.775   0.780 -1.6553  0.0575 -0.7358
  246MOL0     H32454   0.607   8.754   0.397  0.6647  0.4959  0.3971
  246MOL0     H32455   0.818   8.714   0.263 -0.3799 -1.7695 -4.1237
  246MOL0     H32456   1.077   8.323   0.104 -0.3933 -0.8227  0.7829
  246MOL0     H32457   1.279   8.209   0.024 -3.1858 -0.1750 -0.3394
  246MOL0     H32458   0.597   8.104   0.252  2.0452  1.3134  0.6439
  246MOL0     H32459   0.366   8.182   0.237  1.8999 -1.8553 -1.7840
  246MOL0     H32460  -0.012   8.337   0.353  0.1909 -3.1111 -2.2580
  246MOL0     H32461  -0.238   8.435   0.343 -0.7955 -0.5909 -1.3197
  246MOL0     H32462  -0.571   8.252   0.604 -1.3080  1.1234 -0.2735
  246MOL0     H32463  -0.584   8.164   0.449 -3.4392 -0.4809  1.3887
  246MOL0     H32464  -0.657   8.452   0.512 -2.5642  0.5942  0.7367
  246MOL0     H32465  -0.684   8.375   0.347 -2.7639 -0.5669 -0.3688
  246MOL0     H32466  -0.894   8.386   0.506  0.8607  0.6394 -2.2399
  246MOL0     H32467  -0.805   8.299   0.624 -3.2510 -0.5227  0.3221
  246MOL0     H32468  -0.789   8.092   0.472 -0.0731 -0.0688 -1.5248
  246MOL0     H32469  -0.960   8.141   0.492 -1.7223  3.0220 -2.3987
  246MOL0     H32470  -0.938   8.201   0.096 -0.3861 -1.4968 -0.4883
  246MOL0     H32471  -0.386   8.097   0.571 -0.8652  2.8265  1.4218
  246MOL0     H32472  -0.170   8.010   0.594  3.5217  1.6584  2.5300
  247MOL0     O32473   8.833   1.074   4.814  0.0248 -0.3168  0.1983
  247MOL0     C32474   8.817   0.984   4.729  0.4684 -0.7667 -0.3791
  247MOL0     O32475   8.707   0.953   4.668  0.7237  0.3114 -0.1504
  247MOL0     C32476   8.595   1.040   4.674  0.2575 -0.7441  1.0257
  247MOL0     C32477   8.579   1.126   4.569 -0.1873 -0.1766 -0.7486
  247MOL0     C32478   8.477   1.211   4.567  0.8166 -0.5968  1.0549
  247MOL0     C32479   8.371   1.212   4.665  0.1209  0.7215 -0.3325
  247MOL0     O32480   8.270   1.300   4.668 -0.2229 -0.3486  0.2684
  247MOL0     C32481   8.130   1.257   4.685  0.4802 -0.3693 -0.1651
  247MOL0     C32482   8.039   1.380   4.671 -0.7279  0.6471  0.3028
  247MOL0     C32483   7.891   1.356   4.675  0.4083 -0.3445  0.8248
  247MOL0     C32484   7.820   1.461   4.759  0.4755 -0.5618 -0.2424
  247MOL0     C32485   7.670   1.421   4.764  0.3603 -0.0940 -0.3073
  247MOL0     C32486   7.584   1.532   4.830  0.5197  0.8939 -0.3868
  247MOL0     C32487   7.567   1.661   4.761 -0.7356 -0.1452 -0.4733
  247MOL0     C32488   7.437   1.730   4.801 -0.5132  0.0194  0.0007
  247MOL0     N32489   7.422   1.775   4.941  0.2707 -0.6898 -0.0274
  247MOL0     C32490   7.483   1.867   5.028  0.6547  0.4909  0.1654
  247MOL0     C32491   7.419   1.850   5.143  0.3861  0.2235 -0.4756
  247MOL0     C32492   7.451   1.911   5.276  0.0349  0.2852  0.3633
  247MOL0     C32493   7.600   1.936   5.299  0.8405  0.0274  0.7827
  247MOL0     C32494   7.626   1.967   5.450 -0.6788 -0.3371 -0.3989
  247MOL0     C32495   7.778   1.978   5.469  0.5504  0.5357  0.3036
  247MOL0     O32496   7.848   2.079   5.395 -0.4456  0.1857  0.1584
  247MOL0     C32497   7.986   2.087   5.390  0.2368  0.0826 -0.3617
  247MOL0     C32498   8.072   2.003   5.459  0.0347 -0.7012 -0.0754
  247MOL0     C32499   8.206   2.019   5.446 -0.3691 -0.3116  0.0535
  247MOL0     C32500   8.261   2.112   5.357  0.6050  0.6245 -0.2582
  247MOL0     C32501   8.408   2.122   5.336  0.8626  0.9445 -0.2700
  247MOL0     O32502   8.479   2.005   5.360 -0.7669 -0.8916 -0.0050
  247MOL0     C32503   8.612   2.026   5.349  0.5518 -0.2285 -0.3517
  247MOL0     C32504   8.667   1.993   5.472 -1.1698  0.0129 -0.1970
  247MOL0     C32505   8.808   1.985   5.482  0.7905 -0.0471 -0.0041
  247MOL0     C32506   8.889   2.009   5.368  0.3370 -0.4048 -0.0153
  247MOL0     O32507   9.021   1.972   5.400 -0.5941 -0.3738  0.4995
  247MOL0     C32508   9.125   2.040   5.325  0.5870 -0.8440  0.3399
  247MOL0     C32509   9.257   1.978   5.342  0.6607  0.0139 -1.0201
  247MOL0     C32510   9.332   1.999   5.482  0.5403  0.1218 -0.0841
  247MOL0     C32511   9.477   1.952   5.467  0.4779 -0.4791  0.2526
  247MOL0     C32512   9.553   1.964   5.595  0.0957 -0.4739 -0.5879
  247MOL0     C32513   9.700   1.937   5.582 -0.7121  0.7314 -0.0107
  247MOL0     C32514   9.765   1.951   5.725 -0.0037 -0.9394 -0.7584
  247MOL0     C32515   9.909   1.903   5.736 -0.9602  0.3263 -0.2911
  247MOL0    Cl32516   9.938   1.738   5.672 -0.6624 -0.2746  0.3849
  247MOL0     C32517   8.827   2.046   5.241 -0.8888 -1.2018 -0.1021
  247MOL0     C32518   8.691   2.048   5.234  1.0260  0.1327 -0.5102
  247MOL0     O32519   8.450   2.220   5.282 -0.3294 -0.3868  0.1304
  247MOL0     C32520   8.177   2.196   5.288  0.5285 -0.6809  0.3980
  247MOL0     C32521   8.040   2.183   5.304  1.1759  0.6340  1.1036
  247MOL0     N32522   7.316   1.763   5.130  0.4444  0.7870  0.5691
  247MOL0     N32523   7.321   1.718   5.009 -0.5124  0.5553 -0.2091
  247MOL0     C32524   8.388   1.119   4.765  0.0519 -0.2328  0.4982
  247MOL0     C32525   8.494   1.030   4.766 -0.2647  0.3130 -0.2682
  247MOL0     C32526   8.928   0.899   4.711  0.5650 -0.3259 -0.8277
  247MOL0     C32527   9.051   0.930   4.767 -0.5615 -0.4247  1.1207
  247MOL0     C32528   9.150   0.829   4.775  1.0439 -0.0149 -0.1683
  247MOL0     C32529   9.144   0.706   4.702 -0.0664  0.5407 -0.6735
  247MOL0     O32530   9.239   0.604   4.705  0.1321 -0.9643  0.2012
  247MOL0     C32531   9.359   0.610   4.778  0.0071 -0.5977 -0.5291
  247MOL0     C32532   9.458   0.504   4.728 -0.1757  0.0148  0.2320
  247MOL0     C32533   9.599   0.523   4.789 -0.4109  0.1347 -0.0563
  247MOL0     C32534   9.711   0.425   4.735  0.4682 -0.4746 -0.3174
  247MOL0     C32535   9.686   0.291   4.785  0.0280  0.3193  0.8169
  247MOL0     C32536   9.664   0.178   4.826 -0.8690 -0.3742 -0.2984
  247MOL0     C32537   9.016   0.684   4.648 -0.0564  0.4067 -0.0975
  247MOL0     C32538   8.915   0.782   4.645  0.2319  0.5028  0.0018
  247MOL0     H32539   8.650   1.123   4.488  3.2532  2.3063  1.8723
  247MOL0     H32540   8.469   1.273   4.478  0.3069  0.9704  2.1342
  247MOL0     H32541   8.108   1.213   4.783 -0.1570  0.9373  0.2951
  247MOL0     H32542   8.104   1.176   4.616  2.7906  0.1858 -1.8490
  247MOL0     H32543   8.065   1.432   4.578  0.8198  0.7877  0.7754
  247MOL0     H32544   8.065   1.447   4.754  0.4021  0.2589  0.2819
  247MOL0     H32545   7.871   1.253   4.706  2.3911 -2.2214 -3.3105
  247MOL0     H32546   7.849   1.365   4.574 -0.7358  1.0149  1.3778
  247MOL0     H32547   7.866   1.469   4.858  0.6321 -1.8647 -0.1857
  247MOL0     H32548   7.841   1.556   4.710 -0.6076  0.4310  1.1511
  247MOL0     H32549   7.654   1.327   4.817  2.9361  0.2779  1.2865
  247MOL0     H32550   7.640   1.413   4.659  2.2132  1.6173 -1.0502
  247MOL0     H32551   7.624   1.551   4.930  1.0359 -3.9581  0.5951
  247MOL0     H32552   7.486   1.486   4.845 -0.3847  3.3332  2.1030
  247MOL0     H32553   7.658   1.716   4.789  0.3552 -0.3092 -3.3698
  247MOL0     H32554   7.567   1.640   4.654 -1.8888 -0.3302 -0.4472
  247MOL0     H32555   7.352   1.664   4.784  1.0235 -1.8243 -0.9698
  247MOL0     H32556   7.440   1.817   4.734  1.9935 -1.8329 -2.5312
  247MOL0     H32557   7.564   1.938   5.011  0.8349  0.1470 -0.4753
  247MOL0     H32558   7.415   1.848   5.359  1.1557 -1.8517 -0.6955
  247MOL0     H32559   7.397   2.006   5.280 -0.0539  0.2238  0.6681
  247MOL0     H32560   7.633   2.019   5.236 -1.2795 -1.1837 -2.1315
  247MOL0     H32561   7.662   1.848   5.281  0.6612 -0.1295  0.9174
  247MOL0     H32562   7.574   2.057   5.484 -0.2754 -1.3496  3.2972
  247MOL0     H32563   7.598   1.885   5.516 -1.8975  1.4768  1.4575
  247MOL0     H32564   7.820   1.884   5.433 -0.2314 -0.8189  2.6559
  247MOL0     H32565   7.797   1.977   5.577  0.8925  1.9433  0.2679
  247MOL0     H32566   8.044   1.928   5.533 -0.1224 -1.6197 -1.0367
  247MOL0     H32567   8.272   1.956   5.504  0.1002 -2.0077 -2.1892
  247MOL0     H32568   8.607   1.970   5.560 -2.4543  1.4455 -0.6554
  247MOL0     H32569   8.851   1.945   5.574  1.9049 -0.6929 -0.7816
  247MOL0     H32570   9.117   2.146   5.353 -3.3833 -0.8175 -0.3778
  247MOL0     H32571   9.114   2.035   5.217  4.7916  1.6128 -0.4563
  247MOL0     H32572   9.311   2.028   5.260 -2.1290  4.2766 -0.5768
  247MOL0     H32573   9.233   1.873   5.326 -0.1990  0.2255 -1.1537
  247MOL0     H32574   9.293   1.938   5.563  1.4214  0.0023  0.2587
  247MOL0     H32575   9.325   2.101   5.521  0.9041 -0.3329  1.1975
  247MOL0     H32576   9.481   1.851   5.426 -0.2059  0.4261 -2.1760
  247MOL0     H32577   9.530   2.014   5.395  1.4841 -1.1676  0.3751
  247MOL0     H32578   9.493   1.904   5.664 -1.7566 -0.5107 -2.1711
  247MOL0     H32579   9.537   2.064   5.637 -0.0854 -0.0464 -1.6687
  247MOL0     H32580   9.744   2.006   5.510  1.0552  0.2616  0.5689
  247MOL0     H32581   9.711   1.839   5.536  2.3803 -0.0201  2.0238
  247MOL0     H32582   9.750   2.055   5.755  1.9352 -0.3624 -1.6307
  247MOL0     H32583   9.713   1.885   5.795  2.4451  0.4029  2.5581
  247MOL0     H32584   9.949   1.925   5.836 -0.0703 -0.8914 -0.3499
  247MOL0     H32585   9.972   1.960   5.667  1.2742 -0.9457  0.6053
  247MOL0     H32586   8.893   2.055   5.155 -2.5180  1.1192 -1.2096
  247MOL0     H32587   8.633   2.072   5.146 -1.6970  1.1535  1.4104
  247MOL0     H32588   8.216   2.271   5.221 -1.1227  0.0916  0.2595
  247MOL0     H32589   7.966   2.243   5.252  2.3857  0.0290 -1.4668
  247MOL0     H32590   8.327   1.113   4.855  0.8828 -0.6896  1.0502
  247MOL0     H32591   8.504   0.958   4.846 -0.5654 -0.7707 -1.1826
  247MOL0     H32592   9.066   1.017   4.829 -0.6440  0.8431 -0.5855
  247MOL0     H32593   9.240   0.860   4.826  0.5106  0.3212  0.5811
  247MOL0     H32594   9.323   0.581   4.877 -2.1019 -2.6223 -1.7863
  247MOL0     H32595   9.405   0.709   4.783 -1.4108  0.0634 -0.0163
  247MOL0     H32596   9.422   0.400   4.733  1.2508 -0.4674  0.9583
  247MOL0     H32597   9.468   0.511   4.619  0.8714  0.7580  0.3613
  247MOL0     H32598   9.591   0.523   4.899  1.0287 -0.2469  0.0782
  247MOL0     H32599   9.632   0.626   4.777  0.4896 -0.0934  0.3627
  247MOL0     H32600   9.715   0.440   4.626  2.5536  3.9014  0.1368
  247MOL0     H32601   9.810   0.444   4.777  0.6823  1.9492 -1.6849
  247MOL0     H32602   9.636   0.081   4.861  0.4250 -0.8100 -0.4160
  247MOL0     H32603   8.999   0.582   4.616  3.1616 -0.8493  1.7963
  247MOL0     H32604   8.826   0.740   4.599 -0.2131 -0.7600  1.8937
  248MOL0     O32605  10.295   6.077   3.643 -0.1184 -0.0394  0.0197
  248MOL0     C32606  10.300   6.195   3.643  0.1674  0.1723  0.0234
  248MOL0     O32607  10.192   6.271   3.665  0.3743  0.2366  0.1591
  248MOL0     C32608  10.063   6.223   3.647  0.5750  0.4182  0.2104
  248MOL0     C32609  10.020   6.136   3.550 -0.5916 -0.7949  0.2275
  248MOL0     C32610   9.889   6.090   3.540  0.3715  0.0037 -0.4969
  248MOL0     C32611   9.800   6.141   3.636  0.3479  0.3357 -0.1744
  248MOL0     O32612   9.673   6.087   3.618  0.0971  0.0734  0.4107
  248MOL0     C32613   9.571   6.120   3.709 -0.4622  0.2041  0.5336
  248MOL0     C32614   9.452   6.043   3.671 -0.0500 -0.1986  0.6313
  248MOL0     C32615   9.318   6.075   3.740 -0.1341  0.4464  0.4565
  248MOL0     C32616   9.198   5.994   3.675  0.3315 -0.0185  0.4906
  248MOL0     C32617   9.066   6.013   3.759 -0.3402  0.4884  0.4024
  248MOL0     C32618   8.943   5.928   3.712  0.3635 -0.3529 -0.6403
  248MOL0     C32619   8.822   5.956   3.798  0.3742 -0.1676 -0.3511
  248MOL0     C32620   8.749   6.080   3.763  0.0168 -0.5392 -0.4004
  248MOL0     N32621   8.681   6.069   3.632  0.1384  0.1958 -0.4196
  248MOL0     C32622   8.569   5.990   3.610 -0.2931  0.1006  0.0879
  248MOL0     C32623   8.563   5.983   3.477 -0.8086  0.6846  0.2599
  248MOL0     C32624   8.458   5.901   3.402  0.1846  0.0599 -0.4157
  248MOL0     C32625   8.312   5.951   3.425  0.8007  0.1721  0.5164
  248MOL0     C32626   8.201   5.851   3.371 -0.7078  0.1274 -0.5272
  248MOL0     C32627   8.220   5.818   3.220 -0.0864  0.2820 -0.2159
  248MOL0     O32628   8.133   5.718   3.172  0.8424 -0.3304  0.0762
  248MOL0     C32629   8.012   5.762   3.118  0.4796  0.7533  0.2351
  248MOL0     C32630   7.953   5.674   3.025 -0.2860 -0.3856 -0.0078
  248MOL0     C32631   7.823   5.699   2.983 -0.6670  0.7851  0.6122
  248MOL0     C32632   7.746   5.816   3.023 -0.2975  0.0725 -0.0444
  248MOL0     C32633   7.607   5.831   2.990 -0.4428 -0.2699  0.2639
  248MOL0     O32634   7.532   5.927   3.058  0.1695  0.6284  0.4099
  248MOL0     C32635   7.396   5.950   3.041 -1.0210  0.1533  0.1665
  248MOL0     C32636   7.312   5.909   2.937 -0.3023 -0.3280  1.1977
  248MOL0     C32637   7.175   5.949   2.934 -0.4074  0.2139  0.4288
  248MOL0     C32638   7.124   6.019   3.051  1.0343  0.0044 -0.0707
  248MOL0     O32639   6.990   6.045   3.048 -0.3127  0.3779  0.1447
  248MOL0     C32640   6.927   6.101   3.165 -0.1498 -0.3901  0.1109
  248MOL0     C32641   6.778   6.094   3.136 -0.6187 -0.2268  0.2558
  248MOL0     C32642   6.723   6.171   3.011 -0.5677 -0.1243  0.1919
  248MOL0     C32643   6.777   6.322   2.988  0.3239  0.3734 -0.5869
  248MOL0     C32644   6.747   6.392   2.857  0.4113  0.2368 -0.5730
  248MOL0     C32645   6.747   6.307   2.734 -0.0069  0.0491  0.2883
  248MOL0     C32646   6.889   6.266   2.678 -0.9314 -0.1349  0.0708
  248MOL0     C32647   6.986   6.380   2.683  0.0012 -0.2168 -0.2180
  248MOL0    Cl32648   7.121   6.329   2.580  0.0071 -0.2390 -0.1325
  248MOL0     C32649   7.210   6.056   3.152 -0.0375  0.2122 -0.3359
  248MOL0     C32650   7.349   6.020   3.147  0.2605  0.5016  0.7381
  248MOL0     O32651   7.574   5.752   2.900 -0.1266  0.2613 -0.5597
  248MOL0     C32652   7.814   5.913   3.097 -0.5223  0.9463 -0.3048
  248MOL0     C32653   7.939   5.876   3.149  0.1501  0.4476 -0.4866
  248MOL0     N32654   8.660   6.071   3.426 -0.4533  0.1050 -0.1020
  248MOL0     N32655   8.726   6.122   3.515  0.7733 -0.1045  0.1339
  248MOL0     C32656   9.837   6.221   3.743 -0.9703 -0.0633  0.1177
  248MOL0     C32657   9.973   6.259   3.747 -0.2335 -0.9914 -0.0312
  248MOL0     C32658  10.437   6.254   3.620  0.1578 -1.0053  0.0738
  248MOL0     C32659  10.447   6.396   3.627 -0.0419  1.0046  0.1640
  248MOL0     C32660  10.572   6.459   3.601  0.2181  0.2897  0.3224
  248MOL0     C32661  10.682   6.383   3.557  0.1515  0.4320  0.0306
  248MOL0     O32662  10.806   6.426   3.530  0.0208  0.0148 -0.2053
  248MOL0     C32663  10.909   6.417   3.634  0.4954 -0.7844 -0.3035
  248MOL0     C32664  10.963   6.564   3.665  0.9119  0.4789 -0.0345
  248MOL0     C32665  11.048   6.616   3.546  0.1641 -0.2122  0.9649
  248MOL0     C32666  11.198   6.601   3.568  0.0987  0.3386 -0.7176
  248MOL0     C32667  11.274   6.619   3.435  0.2991 -0.0579  0.1683
  248MOL0     C32668  11.343   6.625   3.337 -0.8788  1.0093  0.8129
  248MOL0     C32669  10.671   6.242   3.550  0.0004  0.2365  0.3924
  248MOL0     C32670  10.544   6.182   3.574  0.3855 -0.1510 -0.1992
  248MOL0     H32671  10.085   6.107   3.468 -0.8658 -0.2113 -0.2048
  248MOL0     H32672   9.861   6.005   3.479 -2.1434 -1.6736  2.6563
  248MOL0     H32673   9.546   6.225   3.695  0.2393  0.2707 -0.3411
  248MOL0     H32674   9.602   6.092   3.810  0.8873 -0.2000  0.0241
  248MOL0     H32675   9.471   5.935   3.667 -0.6214 -0.2885 -2.1509
  248MOL0     H32676   9.437   6.059   3.564  1.4285 -0.8665  0.2976
  248MOL0     H32677   9.309   6.184   3.741 -0.3888  0.4553  2.3328
  248MOL0     H32678   9.335   6.040   3.843  4.4520 -0.1708 -0.2992
  248MOL0     H32679   9.169   6.041   3.580 -2.1939 -2.3749 -0.0382
  248MOL0     H32680   9.221   5.888   3.662  2.4842  0.2353  1.8521
  248MOL0     H32681   9.040   6.119   3.752  1.0800  0.9492  1.5736
  248MOL0     H32682   9.079   5.984   3.864  2.4669  0.3968  0.0989
  248MOL0     H32683   8.977   5.825   3.726  1.8705  0.2692  0.5876
  248MOL0     H32684   8.920   5.957   3.609 -1.2092  0.4281 -0.1037
  248MOL0     H32685   8.758   5.868   3.792 -0.4109  0.4180 -0.7341
  248MOL0     H32686   8.847   5.966   3.903 -1.2146  1.4134 -0.0762
  248MOL0     H32687   8.827   6.156   3.749  0.8915 -1.4681 -0.6888
  248MOL0     H32688   8.686   6.113   3.846  1.6265  1.5065  0.0914
  248MOL0     H32689   8.501   5.947   3.683 -0.1638 -0.0641  0.1115
  248MOL0     H32690   8.445   5.802   3.444  1.1538  1.0218  2.3593
  248MOL0     H32691   8.491   5.891   3.298  1.0949  2.9015 -0.4968
  248MOL0     H32692   8.297   6.044   3.370  1.0409 -1.6222 -2.8619
  248MOL0     H32693   8.296   5.975   3.531  1.9426 -2.2274  1.3351
  248MOL0     H32694   8.207   5.761   3.434 -0.2620  1.1352  0.9071
  248MOL0     H32695   8.102   5.895   3.386 -0.8513  0.3768 -2.0262
  248MOL0     H32696   8.319   5.782   3.192 -1.0012 -0.8195 -2.2349
  248MOL0     H32697   8.210   5.910   3.163 -0.5435  1.2360  1.3226
  248MOL0     H32698   8.004   5.581   3.006 -1.6650 -1.4928  1.4896
  248MOL0     H32699   7.775   5.623   2.922 -0.5570  0.9546  0.3113
  248MOL0     H32700   7.360   5.858   2.854  1.0197  0.6136  1.3544
  248MOL0     H32701   7.109   5.929   2.849 -0.8723 -1.8730  1.1964
  248MOL0     H32702   6.955   6.206   3.177  1.2936 -0.2705 -3.0966
  248MOL0     H32703   6.951   6.049   3.258 -0.4604  2.8114  2.1359
  248MOL0     H32704   6.722   6.133   3.221  0.3671  0.5228  0.5751
  248MOL0     H32705   6.760   5.987   3.123  1.6269 -0.7522  0.9932
  248MOL0     H32706   6.614   6.173   3.003 -0.6128  1.5981  0.7581
  248MOL0     H32707   6.757   6.105   2.930 -1.3512 -2.8967  1.9843
  248MOL0     H32708   6.733   6.388   3.063 -0.9931 -0.0839 -0.9246
  248MOL0     H32709   6.886   6.316   2.999  0.3543  2.2240  0.6529
  248MOL0     H32710   6.815   6.477   2.845  1.0350 -0.2330 -0.4431
  248MOL0     H32711   6.644   6.426   2.862  0.0087 -1.0050  3.1424
  248MOL0     H32712   6.702   6.354   2.646  0.2709 -2.1890 -1.1530
  248MOL0     H32713   6.684   6.222   2.760 -0.3695  0.5217  0.9515
  248MOL0     H32714   6.931   6.196   2.751  1.0449  0.3377 -0.5483
  248MOL0     H32715   6.876   6.220   2.580  1.4449 -1.8306  0.4613
  248MOL0     H32716   7.018   6.394   2.786 -0.1545 -3.0920  0.3230
  248MOL0     H32717   6.941   6.466   2.634 -0.0007 -0.2624 -0.2977
  248MOL0     H32718   7.177   6.114   3.238 -0.0169  3.5391 -2.4120
  248MOL0     H32719   7.413   6.057   3.226  0.7418  2.2584 -0.4102
  248MOL0     H32720   7.755   5.997   3.130 -1.9625  0.0865 -0.6174
  248MOL0     H32721   7.971   5.956   3.216  1.0870  1.0816 -1.6566
  248MOL0     H32722   9.765   6.257   3.816  1.1221  1.3476  1.5960
  248MOL0     H32723  10.003   6.329   3.825  0.0620 -0.6331 -0.4620
  248MOL0     H32724  10.360   6.449   3.665  0.0026 -0.9900  3.4788
  248MOL0     H32725  10.574   6.567   3.603 -2.1266  0.3942  0.3026
  248MOL0     H32726  10.982   6.343   3.599  0.7535  0.2294 -2.0144
  248MOL0     H32727  10.870   6.386   3.731 -2.1413  1.5220 -0.5143
  248MOL0     H32728  10.891   6.637   3.704  1.1091  0.8998 -0.4495
  248MOL0     H32729  11.026   6.547   3.753  1.1073  1.6698  0.0655
  248MOL0     H32730  11.025   6.722   3.536  0.9336  0.0128  1.5561
  248MOL0     H32731  11.014   6.556   3.461  1.5485 -1.2722  1.1206
  248MOL0     H32732  11.226   6.671   3.647  1.6175 -0.1938 -0.7438
  248MOL0     H32733  11.212   6.497   3.599  0.7457 -0.3677 -3.1325
  248MOL0     H32734  11.400   6.631   3.247 -1.2494  3.3257  0.6635
  248MOL0     H32735  10.749   6.173   3.517 -0.1392 -1.0477  2.5800
  248MOL0     H32736  10.537   6.074   3.577 -1.6394 -0.0295  1.6192
  249MOL0     O32737   0.024   8.797   8.458 -0.0549  0.1951  0.8168
  249MOL0     C32738   0.064   8.769   8.348 -0.8472 -0.0111  0.2669
  249MOL0     O32739  -0.006   8.712   8.245 -0.1796 -1.1156 -0.9566
  249MOL0     C32740  -0.145   8.704   8.274  0.3674  0.0639  0.8703
  249MOL0     C32741  -0.244   8.779   8.209 -0.0253  0.7692  0.0655
  249MOL0     C32742  -0.378   8.766   8.238 -0.2542  0.4229 -0.1899
  249MOL0     C32743  -0.425   8.667   8.330 -0.4883 -0.5458  0.0395
  249MOL0     O32744  -0.556   8.645   8.365  0.0197  0.3975 -0.4771
  249MOL0     C32745  -0.653   8.713   8.285 -0.6316  0.0489 -0.2127
  249MOL0     C32746  -0.791   8.649   8.320  0.7504  0.2592 -0.3007
  249MOL0     C32747  -0.903   8.764   8.297 -0.5422  0.2103 -1.0586
  249MOL0     C32748  -1.048   8.712   8.294 -0.3825 -0.0496  0.0668
  249MOL0     C32749  -1.131   8.838   8.253 -0.3073 -0.1724 -0.2889
  249MOL0     C32750  -1.276   8.806   8.270  0.2509  1.2283 -0.2427
  249MOL0     C32751  -1.362   8.900   8.199 -0.1341 -0.7282 -0.2506
  249MOL0     C32752  -1.368   9.045   8.252 -0.1532 -0.3538 -0.0330
  249MOL0     N32753  -1.465   9.122   8.176 -0.0134  0.2703 -0.5690
  249MOL0     C32754  -1.602   9.101   8.158 -0.2360  0.1266  0.3257
  249MOL0     C32755  -1.645   9.193   8.075 -0.8369 -0.6652 -0.1411
  249MOL0     C32756  -1.786   9.216   8.040 -0.1441  0.0931 -0.4315
  249MOL0     C32757  -1.862   9.297   8.146  0.8637 -0.6116 -1.0024
  249MOL0     C32758  -1.917   9.204   8.260 -0.2520 -0.0506 -0.5090
  249MOL0     C32759  -1.996   9.283   8.366 -1.1087  0.3339  1.1006
  249MOL0     O32760  -2.120   9.329   8.307 -0.6560  0.2225 -0.0141
  249MOL0     C32761  -2.198   9.420   8.372 -0.1221 -0.3868  0.1038
  249MOL0     C32762  -2.299   9.472   8.293 -0.2055 -0.9633  0.5557
  249MOL0     C32763  -2.384   9.569   8.352  0.1029  0.2937  1.1509
  249MOL0     C32764  -2.395   9.603   8.479 -0.3206 -0.2041 -0.9282
  249MOL0     C32765  -2.490   9.704   8.524 -0.2674  0.1114 -0.2954
  249MOL0     O32766  -2.601   9.727   8.443 -0.1239  0.0417  0.5501
  249MOL0     C32767  -2.710   9.789   8.495  0.3055 -0.6066  0.7941
  249MOL0     C32768  -2.759   9.763   8.620  1.0087  0.4747  0.0368
  249MOL0     C32769  -2.854   9.839   8.675  0.7783 -0.0105  0.3539
  249MOL0     C32770  -2.929   9.927   8.606  1.0422 -0.1966 -0.3492
  249MOL0     O32771  -3.039   9.979   8.664 -0.6948  0.2745  0.1742
  249MOL0     C32772  -3.119  10.076   8.594  0.2394 -1.2066 -0.2795
  249MOL0     C32773  -3.252  10.095   8.650  0.9354  0.3556  0.2034
  249MOL0     C32774  -3.337  10.184   8.557  0.2544 -0.2431  0.2799
  249MOL0     C32775  -3.494  10.184   8.587  0.1757  0.0757 -0.7144
  249MOL0     C32776  -3.553  10.307   8.514 -0.3768  0.1430 -0.7133
  249MOL0     C32777  -3.702  10.315   8.528  0.0348  0.7597 -0.2031
  249MOL0     C32778  -3.733  10.429   8.425  0.1168 -0.0638 -0.2989
  249MOL0     C32779  -3.886  10.460   8.431  0.4530  0.3552  0.0922
  249MOL0    Cl32780  -3.968  10.317   8.349 -0.1691 -0.3035 -0.2416
  249MOL0     C32781  -2.893   9.946   8.470 -0.0790 -0.1008  0.3346
  249MOL0     C32782  -2.775   9.887   8.422 -0.6688  0.5246 -0.2859
  249MOL0     O32783  -2.460   9.769   8.628  0.4451  0.3522  0.8194
  249MOL0     C32784  -2.290   9.542   8.560 -0.0195  0.0783 -0.2203
  249MOL0     C32785  -2.192   9.457   8.505  0.4920 -0.3508 -0.1080
  249MOL0     N32786  -1.535   9.276   8.054 -0.0810  0.4194 -0.9795
  249MOL0     N32787  -1.429   9.241   8.113 -0.3356  1.1699 -0.5323
  249MOL0     C32788  -0.319   8.592   8.393  0.9406 -0.3351  0.4320
  249MOL0     C32789  -0.185   8.605   8.362  0.2093 -0.1330 -0.9270
  249MOL0     C32790   0.204   8.798   8.323 -0.6100  0.7226 -0.2493
  249MOL0     C32791   0.285   8.864   8.416 -0.4389  0.2368 -0.1923
  249MOL0     C32792   0.421   8.897   8.391  0.3904  0.2134 -0.1972
  249MOL0     C32793   0.476   8.864   8.269  0.3086 -0.2703 -0.6459
  249MOL0     O32794   0.604   8.905   8.234  0.7064  0.4595 -0.0562
  249MOL0     C32795   0.599   9.046   8.192  0.7797 -0.4818  0.3182
  249MOL0     C32796   0.670   9.054   8.054 -0.4643 -0.6598 -0.1415
  249MOL0     C32797   0.653   9.196   7.993  0.9635  0.0210 -0.1344
  249MOL0     C32798   0.744   9.302   8.057  0.6970  0.5736  0.2247
  249MOL0     C32799   0.719   9.429   7.987  0.1155 -0.6134 -0.8212
  249MOL0     C32800   0.694   9.546   7.948 -0.0779 -0.1151  1.4406
  249MOL0     C32801   0.402   8.783   8.183 -0.1004  0.6407  0.2028
  249MOL0     C32802   0.276   8.746   8.211  0.5028  0.6970 -0.3540
  249MOL0     H32803  -0.214   8.856   8.138  0.0445  0.9060  0.2450
  249MOL0     H32804  -0.443   8.834   8.183 -0.2440  1.5997  1.1809
  249MOL0     H32805  -0.638   8.697   8.178  2.0295 -0.4075  0.1619
  249MOL0     H32806  -0.652   8.819   8.310  1.4714 -0.2151  0.9902
  249MOL0     H32807  -0.804   8.611   8.422 -2.6978  0.1641 -0.6692
  249MOL0     H32808  -0.803   8.562   8.255  1.5728 -1.2798  1.5001
  249MOL0     H32809  -0.888   8.820   8.204 -1.0136  0.6421 -0.8820
  249MOL0     H32810  -0.896   8.837   8.379 -2.9115  0.1151 -0.7097
  249MOL0     H32811  -1.061   8.630   8.222 -0.0086  0.5366 -0.6703
  249MOL0     H32812  -1.072   8.672   8.394  1.7390 -0.1914  0.5576
  249MOL0     H32813  -1.105   8.854   8.148 -1.2202  0.2386 -0.4582
  249MOL0     H32814  -1.103   8.922   8.317 -0.8369  0.2466 -0.6047
  249MOL0     H32815  -1.304   8.799   8.376 -1.8619  1.2694 -0.7638
  249MOL0     H32816  -1.292   8.709   8.223 -1.1799  1.9380 -1.2678
  249MOL0     H32817  -1.339   8.902   8.092 -1.2545 -0.9356 -0.5061
  249MOL0     H32818  -1.466   8.869   8.204  0.5991 -3.2577  1.7493
  249MOL0     H32819  -1.271   9.095   8.256  0.3683 -1.0574 -2.1714
  249MOL0     H32820  -1.416   9.050   8.350  0.3304  0.2151  0.1741
  249MOL0     H32821  -1.676   9.039   8.208 -1.8820 -0.0116 -2.1171
  249MOL0     H32822  -1.828   9.116   8.023  3.2802 -1.4291 -0.7589
  249MOL0     H32823  -1.775   9.273   7.947  2.1083 -0.8768 -0.8217
  249MOL0     H32824  -1.957   9.334   8.105 -0.4203 -1.3227  1.1242
  249MOL0     H32825  -1.801   9.376   8.191  1.4231 -0.3961 -2.1162
  249MOL0     H32826  -1.982   9.123   8.226 -1.2606 -0.6249  2.4902
  249MOL0     H32827  -1.833   9.159   8.316  1.4782  2.4111 -0.9828
  249MOL0     H32828  -1.936   9.365   8.407  1.3333 -0.4849 -0.5518
  249MOL0     H32829  -2.010   9.203   8.439  0.9313 -1.6848 -0.5543
  249MOL0     H32830  -2.306   9.461   8.185  1.1415  2.7907 -0.0774
  249MOL0     H32831  -2.465   9.608   8.291 -0.9758 -0.3188  2.1482
  249MOL0     H32832  -2.720   9.676   8.673 -0.1586  1.5883  2.9068
  249MOL0     H32833  -2.881   9.798   8.771 -1.6294  0.3254 -0.1270
  249MOL0     H32834  -3.149  10.040   8.495  1.1602 -0.1455 -0.9563
  249MOL0     H32835  -3.076  10.176   8.591 -1.2164 -0.5347  0.2734
  249MOL0     H32836  -3.242  10.146   8.747  1.8756  0.4961  0.0418
  249MOL0     H32837  -3.304  10.001   8.671 -0.5159  0.0546 -3.7896
  249MOL0     H32838  -3.329  10.152   8.453  0.2481  1.4953 -0.2901
  249MOL0     H32839  -3.307  10.289   8.565 -0.0140 -0.1044 -0.4349
  249MOL0     H32840  -3.540  10.091   8.551  0.1448 -0.7551  1.3451
  249MOL0     H32841  -3.510  10.202   8.694  0.5843  1.2345 -0.8303
  249MOL0     H32842  -3.522  10.295   8.410 -1.5042 -3.3601 -0.7867
  249MOL0     H32843  -3.505  10.394   8.560 -0.2867  0.0134 -0.5586
  249MOL0     H32844  -3.735  10.339   8.629  4.1869  0.1261  1.5082
  249MOL0     H32845  -3.747  10.223   8.491  2.0428 -0.7048  0.8010
  249MOL0     H32846  -3.674  10.514   8.458 -2.5136  1.0552  1.9036
  249MOL0     H32847  -3.702  10.409   8.322 -1.0102  2.0937 -1.1291
  249MOL0     H32848  -3.912  10.557   8.387  1.4984  0.9804  0.8009
  249MOL0     H32849  -3.912  10.474   8.536 -1.1438  1.6281 -0.4375
  249MOL0     H32850  -2.951  10.021   8.415  0.5131 -1.0095 -1.6280
  249MOL0     H32851  -2.737   9.898   8.321 -0.8956  0.9796 -0.3239
  249MOL0     H32852  -2.283   9.576   8.663 -0.5321 -0.9772  0.1784
  249MOL0     H32853  -2.108   9.418   8.562  1.9423  1.8785 -0.5998
  249MOL0     H32854  -0.357   8.512   8.455 -1.0700 -2.2616 -2.9842
  249MOL0     H32855  -0.117   8.535   8.410 -0.4680  0.4881  1.0335
  249MOL0     H32856   0.242   8.881   8.514 -1.2889 -2.2403 -0.0538
  249MOL0     H32857   0.494   8.951   8.452 -1.9868  2.5906  0.7554
  249MOL0     H32858   0.637   9.109   8.273 -3.5631  1.0665  1.4632
  249MOL0     H32859   0.494   9.075   8.185  0.3687 -1.8769  0.3852
  249MOL0     H32860   0.773   9.018   8.060  1.3958  4.0959  1.5773
  249MOL0     H32861   0.609   8.985   7.994 -2.3700  0.3596  0.5213
  249MOL0     H32862   0.551   9.233   8.007  0.8239  0.5039 -2.1252
  249MOL0     H32863   0.674   9.186   7.886  2.0429  0.1629  0.0448
  249MOL0     H32864   0.704   9.319   8.157 -3.0316  0.8349 -1.1510
  249MOL0     H32865   0.850   9.276   8.062  0.1955 -1.3559  3.2929
  249MOL0     H32866   0.676   9.643   7.907  0.8361 -0.4821  0.0958
  249MOL0     H32867   0.454   8.757   8.092 -3.8455  0.5118 -2.1076
  249MOL0     H32868   0.218   8.685   8.144  0.0907 -0.3160  0.8998
  250MOL0     O32869   0.668   9.995  10.312  0.3204 -0.3401  0.7303
  250MOL0     C32870   0.777   9.939  10.322 -0.7220  0.1066 -0.8479
  250MOL0     O32871   0.795   9.812  10.336 -0.0302 -0.2949 -0.1732
  250MOL0     C32872   0.683   9.728  10.358 -0.3334  0.7933  0.4268
  250MOL0     C32873   0.684   9.648  10.473 -0.2086  0.8525 -0.4488
  250MOL0     C32874   0.584   9.556  10.489  0.0678  0.2566 -0.5497
  250MOL0     C32875   0.475   9.541  10.402  0.1429  0.9103 -0.5401
  250MOL0     O32876   0.392   9.425  10.418 -1.3985 -0.2676 -0.2289
  250MOL0     C32877   0.258   9.443  10.373  0.2201  0.0433  0.0054
  250MOL0     C32878   0.154   9.370  10.462 -0.0636  1.1289 -0.0936
  250MOL0     C32879   0.018   9.438  10.447 -0.3212 -0.3408  0.6773
  250MOL0     C32880  -0.083   9.353  10.513  0.3293 -0.3037  0.2588
  250MOL0     C32881  -0.222   9.405  10.472  0.1138 -0.1394 -0.1053
  250MOL0     C32882  -0.333   9.293  10.503 -0.4106  0.9597  0.0746
  250MOL0     C32883  -0.477   9.320  10.469 -0.3283  0.2036  0.1800
  250MOL0     C32884  -0.580   9.216  10.531 -0.6332 -0.2841  0.6736
  250MOL0     N32885  -0.704   9.287  10.583 -0.6898 -0.9832 -0.0189
  250MOL0     C32886  -0.782   9.384  10.530 -0.4427 -1.4847  0.1570
  250MOL0     C32887  -0.869   9.422  10.623  0.7725 -0.7285  0.7530
  250MOL0     C32888  -0.987   9.511  10.592 -0.2480  0.0223 -0.4310
  250MOL0     C32889  -1.108   9.478  10.692  0.3112  0.8260  0.3409
  250MOL0     C32890  -1.233   9.557  10.658 -0.5471  0.1481  0.5155
  250MOL0     C32891  -1.351   9.547  10.748  1.0924 -0.3795  0.4443
  250MOL0     O32892  -1.411   9.414  10.749 -0.3063 -0.3349  0.0039
  250MOL0     C32893  -1.546   9.425  10.768 -0.1091  0.8684 -0.2808
  250MOL0     C32894  -1.582   9.362  10.889 -0.4705  0.0765  0.2986
  250MOL0     C32895  -1.712   9.365  10.933  0.2104 -0.2740 -0.4078
  250MOL0     C32896  -1.809   9.435  10.859  0.0899  0.0596 -0.5419
  250MOL0     C32897  -1.951   9.428  10.893  0.4627  0.5758 -0.7145
  250MOL0     O32898  -2.048   9.503  10.814 -0.7980  1.0239 -0.0583
  250MOL0     C32899  -2.167   9.535  10.867  0.4762  0.0309 -0.2816
  250MOL0     C32900  -2.183   9.637  10.959 -0.4637 -1.1531  0.0451
  250MOL0     C32901  -2.312   9.677  11.004  0.0151 -0.1930  0.9326
  250MOL0     C32902  -2.421   9.606  10.968  0.6101  0.3311 -0.1896
  250MOL0     O32903  -2.540   9.646  11.020  0.0027  0.5325 -0.3957
  250MOL0     C32904  -2.601   9.536  11.094 -0.8921  1.1982  0.3397
  250MOL0     C32905  -2.682   9.604  11.203  0.2437  0.4307  0.0417
  250MOL0     C32906  -2.827   9.649  11.149 -0.3902  0.1368 -0.1538
  250MOL0     C32907  -2.929   9.668  11.266 -0.4628  0.3400 -0.5079
  250MOL0     C32908  -3.076   9.691  11.222  0.6084  0.9422 -0.3941
  250MOL0     C32909  -3.096   9.796  11.110 -0.3996 -0.3628 -0.5352
  250MOL0     C32910  -3.245   9.827  11.093  0.5041  0.0242 -0.8443
  250MOL0     C32911  -3.282   9.908  10.971  0.3332 -0.0849 -0.2043
  250MOL0    Cl32912  -3.256  10.078  10.996 -0.2021  0.0666 -0.1608
  250MOL0     C32913  -2.416   9.504  10.877 -0.0273  0.1825  0.1895
  250MOL0     C32914  -2.289   9.465  10.830 -0.2972 -0.2990  0.2848
  250MOL0     O32915  -1.974   9.382  11.004  1.1594 -0.4224  0.4405
  250MOL0     C32916  -1.773   9.501  10.738  0.3950 -0.1956  0.0335
  250MOL0     C32917  -1.647   9.485  10.690  0.1650  0.1830 -0.3382
  250MOL0     N32918  -0.843   9.352  10.737  0.3085 -0.6592  0.4536
  250MOL0     N32919  -0.732   9.293  10.712 -0.7093 -0.9883 -0.6893
  250MOL0     C32920   0.476   9.629  10.302 -0.7239  0.2843  0.0598
  250MOL0     C32921   0.576   9.722  10.273 -0.5972  0.7142  0.2760
  250MOL0     C32922   0.898  10.020  10.300  0.3374 -0.0538 -0.5295
  250MOL0     C32923   1.029   9.962  10.321 -0.0977 -0.8204 -0.6037
  250MOL0     C32924   1.149  10.035  10.289 -0.2301 -1.2781 -0.6408
  250MOL0     C32925   1.133  10.163  10.230  0.1445  0.6347  0.3020
  250MOL0     O32926   1.243  10.232  10.193  0.4424 -0.8442 -0.0311
  250MOL0     C32927   1.229  10.365  10.141  0.9125  0.4803  0.4621
  250MOL0     C32928   1.358  10.437  10.113 -0.8900  0.3654  0.5701
  250MOL0     C32929   1.432  10.361  10.006 -0.2327  0.0927 -0.4685
  250MOL0     C32930   1.534  10.450   9.935 -0.4364 -0.0256 -0.3621
  250MOL0     C32931   1.638  10.365   9.879 -0.4548 -1.0704 -0.5374
  250MOL0     C32932   1.725  10.291   9.837  0.1701  0.0613 -0.2971
  250MOL0     C32933   1.006  10.212  10.216 -0.0977 -0.1563 -0.6587
  250MOL0     C32934   0.893  10.151  10.252  0.4137  0.6630 -0.0569
  250MOL0     H32935   0.760   9.662  10.549  1.6145  0.1284 -2.0864
  250MOL0     H32936   0.596   9.476  10.562 -0.4582  0.8347  0.1810
  250MOL0     H32937   0.249   9.413  10.268  1.2535 -1.1742  0.2457
  250MOL0     H32938   0.240   9.550  10.389 -0.9065 -0.4377  2.5441
  250MOL0     H32939   0.186   9.374  10.566 -0.4736 -0.7245  0.1367
  250MOL0     H32940   0.156   9.270  10.417  3.6033  0.4643  1.1581
  250MOL0     H32941  -0.003   9.456  10.341 -1.9144  1.4541  1.2296
  250MOL0     H32942   0.019   9.540  10.489  1.4987  0.3166 -0.8174
  250MOL0     H32943  -0.064   9.250  10.482  0.3690 -0.8242  1.9039
  250MOL0     H32944  -0.062   9.365  10.620  1.1286  0.7928 -0.0017
  250MOL0     H32945  -0.216   9.421  10.364 -0.0325  0.1803 -0.0680
  250MOL0     H32946  -0.251   9.500  10.517  1.3593  0.6655 -0.9232
  250MOL0     H32947  -0.331   9.285  10.612 -2.8074 -2.4075  0.0149
  250MOL0     H32948  -0.291   9.196  10.477 -1.2558 -0.0056  2.0949
  250MOL0     H32949  -0.501   9.417  10.513 -0.2185  0.6193 -0.6583
  250MOL0     H32950  -0.483   9.323  10.360 -1.5566 -1.4784  0.1646
  250MOL0     H32951  -0.530   9.157  10.608  1.2609 -1.0975 -1.0972
  250MOL0     H32952  -0.598   9.142  10.453  0.6979  0.9566 -0.9004
  250MOL0     H32953  -0.771   9.414  10.427 -0.8738  3.3145  1.2794
  250MOL0     H32954  -1.022   9.493  10.490  0.3154 -0.5274 -0.5341
  250MOL0     H32955  -0.954   9.615  10.598 -1.5927  0.4524 -0.0940
  250MOL0     H32956  -1.081   9.501  10.796 -0.8825 -2.6983  1.5802
  250MOL0     H32957  -1.127   9.370  10.695  0.5136  0.7683 -0.4156
  250MOL0     H32958  -1.206   9.663  10.652 -1.3423  0.3259 -0.0598
  250MOL0     H32959  -1.253   9.526  10.555  2.0138 -0.5606  0.1547
  250MOL0     H32960  -1.419   9.631  10.732  1.8248  0.2881  0.7937
  250MOL0     H32961  -1.314   9.558  10.851 -0.9083 -0.1504  1.1834
  250MOL0     H32962  -1.504   9.306  10.939  0.5701  0.8230 -0.4431
  250MOL0     H32963  -1.738   9.313  11.024  2.6782  3.4153  2.7443
  250MOL0     H32964  -2.101   9.699  10.995 -1.5984  0.9760 -0.8169
  250MOL0     H32965  -2.315   9.763  11.070  0.2030  0.6072 -0.0795
  250MOL0     H32966  -2.525   9.472  11.139 -3.4600 -1.9021  0.5835
  250MOL0     H32967  -2.664   9.479  11.026  0.5967 -1.2794  0.9199
  250MOL0     H32968  -2.634   9.694  11.245  1.6614  1.3552 -3.2472
  250MOL0     H32969  -2.696   9.536  11.287 -1.1457  0.5348 -0.0749
  250MOL0     H32970  -2.876   9.571  11.090  2.5110 -2.6900  0.9253
  250MOL0     H32971  -2.819   9.741  11.090 -1.3783  0.6730  0.5274
  250MOL0     H32972  -2.918   9.585  11.337  1.2227  1.0988  0.1732
  250MOL0     H32973  -2.894   9.758  11.318 -1.9349  0.2312  0.7311
  250MOL0     H32974  -3.125   9.721  11.316  4.3268  2.6904  1.2125
  250MOL0     H32975  -3.106   9.593  11.184  1.2113 -0.2086  1.9290
  250MOL0     H32976  -3.067   9.751  11.015 -1.0334 -1.8946 -0.0242
  250MOL0     H32977  -3.034   9.885  11.124 -0.3172  0.1340 -3.4110
  250MOL0     H32978  -3.290   9.729  11.077  0.2696 -0.1151  0.5496
  250MOL0     H32979  -3.283   9.877  11.183  0.4166 -0.7953 -0.4090
  250MOL0     H32980  -3.387   9.888  10.950  0.2280 -2.6055  2.0768
  250MOL0     H32981  -3.224   9.878  10.883 -1.0965  0.7043 -1.4616
  250MOL0     H32982  -2.507   9.452  10.850 -0.1291  0.1610  0.5644
  250MOL0     H32983  -2.277   9.388  10.754 -0.8799 -0.1169 -0.0028
  250MOL0     H32984  -1.852   9.543  10.678 -1.9252 -2.7047  1.1128
  250MOL0     H32985  -1.613   9.521  10.593  0.7723  0.4399 -0.0407
  250MOL0     H32986   0.396   9.622  10.229 -0.5046 -0.8197 -0.0999
  250MOL0     H32987   0.571   9.784  10.185  2.1121 -1.1349 -1.3192
  250MOL0     H32988   1.043   9.863  10.363  3.3498 -0.1677  0.0467
  250MOL0     H32989   1.256  10.030  10.309 -0.2457  0.9704  0.3256
  250MOL0     H32990   1.162  10.422  10.207  0.0768  1.0829 -0.8717
  250MOL0     H32991   1.175  10.366  10.046  0.3683  0.9900  0.7653
  250MOL0     H32992   1.335  10.540  10.084  1.6036  0.6390 -0.7238
  250MOL0     H32993   1.417  10.441  10.204 -0.4968  2.9693  0.2767
  250MOL0     H32994   1.366  10.312   9.934  0.1564 -0.6661 -0.3267
  250MOL0     H32995   1.489  10.275  10.044 -1.9582 -1.6361 -1.5726
  250MOL0     H32996   1.487  10.509   9.855 -0.2683 -2.3638 -2.2992
  250MOL0     H32997   1.568  10.532   9.999 -0.0377  1.5239 -2.4372
  250MOL0     H32998   1.784  10.210   9.798  0.1712 -0.8445  1.4723
  250MOL0     H32999   0.984  10.311  10.176 -2.7281  0.1125  1.2402
  250MOL0     H33000   0.793  10.191  10.242 -1.3404 -3.4200 -0.9797
  251MOL0     O33001   6.115   0.946   8.681  0.0888  0.8354 -0.6538
  251MOL0     C33002   6.143   1.061   8.707 -0.3153 -0.1731 -0.1375
  251MOL0     O33003   6.055   1.163   8.731  0.7348 -0.0865  0.0702
  251MOL0     C33004   5.924   1.152   8.773 -0.0333  0.0363  0.2432
  251MOL0     C33005   5.853   1.264   8.806 -0.3969  0.0724 -0.2451
  251MOL0     C33006   5.721   1.273   8.847  0.0306 -0.0134 -0.3002
  251MOL0     C33007   5.642   1.160   8.840  1.1040 -0.5780  0.6375
  251MOL0     O33008   5.506   1.173   8.869  0.3294  0.1905 -0.3939
  251MOL0     C33009   5.424   1.256   8.783  0.4459 -0.0613 -0.3193
  251MOL0     C33010   5.286   1.291   8.839  0.1990 -0.3230 -0.0553
  251MOL0     C33011   5.204   1.167   8.835  0.4610 -0.6414 -0.5541
  251MOL0     C33012   5.058   1.191   8.872  0.2248  0.1567  0.0242
  251MOL0     C33013   4.981   1.059   8.851  0.4678  1.3698  0.9178
  251MOL0     C33014   4.832   1.084   8.865 -0.0703  0.3968  0.0038
  251MOL0     C33015   4.752   0.953   8.830 -0.0350 -0.6756  0.3183
  251MOL0     C33016   4.607   0.951   8.890 -0.4036 -0.4739 -0.2577
  251MOL0     N33017   4.546   0.826   8.911  0.1557 -0.5209 -0.1030
  251MOL0     C33018   4.582   0.731   9.003 -0.3050  0.0960 -0.6813
  251MOL0     C33019   4.479   0.643   9.028 -0.7614  0.1094  1.2996
  251MOL0     C33020   4.473   0.534   9.118 -0.2528  0.8563  0.1093
  251MOL0     C33021   4.400   0.557   9.250  0.4621  0.4301  0.3818
  251MOL0     C33022   4.421   0.445   9.355 -0.3866 -0.4010  0.0507
  251MOL0     C33023   4.359   0.469   9.489 -0.0786  0.1655  0.7933
  251MOL0     O33024   4.216   0.480   9.481  0.0965 -0.0804  0.0774
  251MOL0     C33025   4.138   0.395   9.406 -0.5738 -0.6364  0.7195
  251MOL0     C33026   4.142   0.261   9.432 -0.2954  0.7944  0.8313
  251MOL0     C33027   4.064   0.176   9.355  0.0363  1.4537  0.4629
  251MOL0     C33028   3.970   0.226   9.266  0.2307 -0.0063  0.2245
  251MOL0     C33029   3.888   0.141   9.172 -1.0835  0.3140 -0.9379
  251MOL0     O33030   3.944   0.014   9.155  0.6026  0.5734 -0.0542
  251MOL0     C33031   3.882  -0.071   9.063 -0.8146  0.0781 -0.5063
  251MOL0     C33032   3.837  -0.041   8.934 -0.7946 -0.5639  0.0842
  251MOL0     C33033   3.785  -0.139   8.848  0.0880  0.1962  0.1029
  251MOL0     C33034   3.772  -0.270   8.892 -0.1697 -0.0447  0.6709
  251MOL0     O33035   3.715  -0.362   8.807  0.2155  0.5272  0.8019
  251MOL0     C33036   3.708  -0.505   8.844 -0.4458 -0.3781 -0.6872
  251MOL0     C33037   3.637  -0.594   8.746 -0.6848 -0.3889 -0.6973
  251MOL0     C33038   3.717  -0.613   8.617  0.3490 -0.5646  0.0294
  251MOL0     C33039   3.831  -0.712   8.630 -0.2483  0.6134  1.1563
  251MOL0     C33040   3.959  -0.671   8.554  0.5974  0.0891  0.4139
  251MOL0     C33041   4.071  -0.766   8.573  1.1226 -0.3622  1.2627
  251MOL0     C33042   4.209  -0.704   8.529  0.6361  0.1027  0.3672
  251MOL0     C33043   4.255  -0.577   8.600  0.2671 -0.2524  0.5166
  251MOL0    Cl33044   4.412  -0.519   8.550 -0.1774  0.1574  0.0690
  251MOL0     C33045   3.826  -0.304   9.021  0.6635 -0.2004  0.4796
  251MOL0     C33046   3.880  -0.207   9.098 -1.0377 -0.3753  0.0918
  251MOL0     O33047   3.794   0.195   9.110  0.3173 -0.7013 -0.7540
  251MOL0     C33048   3.955   0.366   9.261 -0.9577  0.2301 -0.2532
  251MOL0     C33049   4.041   0.454   9.334  0.3257  0.2854 -0.5319
  251MOL0     N33050   4.387   0.674   8.931  0.1779 -0.3314  0.0385
  251MOL0     N33051   4.435   0.772   8.858  0.5528  0.4232 -0.0090
  251MOL0     C33052   5.713   1.041   8.799  0.2430 -0.1454 -0.3710
  251MOL0     C33053   5.853   1.034   8.765 -0.3593 -0.7729  1.0001
  251MOL0     C33054   6.289   1.085   8.720 -0.7962  0.1538  0.0875
  251MOL0     C33055   6.328   1.213   8.753 -0.0107 -0.1961  0.1366
  251MOL0     C33056   6.460   1.243   8.782  0.3012  0.0006  0.2076
  251MOL0     C33057   6.560   1.149   8.766  1.0008 -0.1546 -0.1682
  251MOL0     O33058   6.686   1.205   8.765  0.3877 -0.6211 -0.2165
  251MOL0     C33059   6.804   1.130   8.743  0.1231  0.2126 -0.4598
  251MOL0     C33060   6.923   1.214   8.776 -0.2212 -0.9747 -0.6009
  251MOL0     C33061   6.954   1.342   8.686 -0.1922  0.6959  0.9111
  251MOL0     C33062   7.060   1.436   8.752  0.9102  0.4070  0.3631
  251MOL0     C33063   7.201   1.394   8.741 -0.2375  0.7198  0.0025
  251MOL0     C33064   7.310   1.352   8.718  0.2497 -0.2556 -0.1082
  251MOL0     C33065   6.521   1.014   8.737  0.0341 -1.2823  0.3025
  251MOL0     C33066   6.386   0.986   8.722  0.1430 -0.1081  0.2374
  251MOL0     H33067   5.904   1.360   8.817 -0.8717  0.1779  1.1416
  251MOL0     H33068   5.671   1.363   8.881  0.5332 -0.2526  1.1235
  251MOL0     H33069   5.424   1.215   8.681 -2.4890  0.1700 -0.4828
  251MOL0     H33070   5.477   1.350   8.768 -1.7122  0.9075 -2.5222
  251MOL0     H33071   5.238   1.363   8.771 -1.0047 -1.1744 -0.1429
  251MOL0     H33072   5.283   1.336   8.939 -0.3005 -0.5993  0.0581
  251MOL0     H33073   5.239   1.097   8.911  2.9667 -0.9075 -1.8303
  251MOL0     H33074   5.225   1.126   8.735 -2.0625  1.4994 -2.0969
  251MOL0     H33075   5.056   1.223   8.976 -1.0234 -1.3075  0.4801
  251MOL0     H33076   5.007   1.273   8.820 -0.3450  0.1673  0.5911
  251MOL0     H33077   5.015   0.984   8.922 -1.9975 -1.0154 -0.2643
  251MOL0     H33078   5.009   1.034   8.749  0.9173  3.2559  0.5322
  251MOL0     H33079   4.792   1.156   8.793  2.3749  0.1797 -1.7013
  251MOL0     H33080   4.812   1.123   8.965  2.2368  0.3862  0.5358
  251MOL0     H33081   4.746   0.947   8.721  0.3482  2.1523  0.0682
  251MOL0     H33082   4.801   0.864   8.872  0.8073 -1.8714 -2.9240
  251MOL0     H33083   4.551   1.010   8.817  0.2242 -0.2526 -0.5644
  251MOL0     H33084   4.623   1.002   8.986  0.5726  1.0992 -1.2166
  251MOL0     H33085   4.673   0.728   9.062 -1.8676 -0.7478  1.8661
  251MOL0     H33086   4.574   0.496   9.134 -0.7144 -1.3326 -1.7287
  251MOL0     H33087   4.419   0.456   9.064  1.2291  1.1314 -1.8478
  251MOL0     H33088   4.295   0.561   9.220  0.0315 -1.5019  1.4424
  251MOL0     H33089   4.437   0.650   9.295  1.2157 -0.5358  1.8505
  251MOL0     H33090   4.387   0.345   9.326 -0.0899  0.0140 -1.8201
  251MOL0     H33091   4.528   0.431   9.372 -0.2437  0.9472  0.3547
  251MOL0     H33092   4.406   0.556   9.536  2.7016 -0.7857 -0.0620
  251MOL0     H33093   4.381   0.392   9.563  1.2798 -0.0464  0.1842
  251MOL0     H33094   4.223   0.217   9.489 -0.0340 -0.1860 -0.2425
  251MOL0     H33095   4.083   0.069   9.362 -1.5060  1.1340  0.0667
  251MOL0     H33096   3.856   0.057   8.891  2.0719 -0.8173  0.5549
  251MOL0     H33097   3.765  -0.119   8.743  2.1919 -0.5560 -0.4823
  251MOL0     H33098   3.658  -0.523   8.940 -1.8785 -0.1156 -1.3513
  251MOL0     H33099   3.811  -0.541   8.848  0.1140  0.9345 -2.2052
  251MOL0     H33100   3.541  -0.545   8.726 -0.2143  1.0568  0.4751
  251MOL0     H33101   3.622  -0.694   8.789  0.5709 -0.0164  0.6571
  251MOL0     H33102   3.767  -0.521   8.586  0.7740  0.1502  2.5674
  251MOL0     H33103   3.647  -0.647   8.540 -0.1514  1.1238 -0.3062
  251MOL0     H33104   3.863  -0.721   8.734  1.1185 -0.0164  0.7138
  251MOL0     H33105   3.801  -0.810   8.590  0.8635  0.2776  1.1073
  251MOL0     H33106   3.980  -0.568   8.585  0.2757  0.3234 -0.1465
  251MOL0     H33107   3.943  -0.663   8.446 -1.5139  2.5781  0.8289
  251MOL0     H33108   4.062  -0.846   8.500  2.9366  0.5084  0.0210
  251MOL0     H33109   4.074  -0.810   8.673 -0.5827  1.0256  1.9731
  251MOL0     H33110   4.289  -0.778   8.539  0.5578  0.2937  3.5962
  251MOL0     H33111   4.205  -0.673   8.424  1.4187  1.6443  0.7607
  251MOL0     H33112   4.254  -0.585   8.709  3.0260  0.0379  0.6471
  251MOL0     H33113   4.182  -0.500   8.574  1.5612  2.6914  4.5071
  251MOL0     H33114   3.835  -0.406   9.058 -1.3529 -0.6988 -0.2688
  251MOL0     H33115   3.935  -0.224   9.191 -1.5978  0.9219  0.6885
  251MOL0     H33116   3.884   0.407   9.190 -2.2589  0.8301  1.3216
  251MOL0     H33117   4.034   0.561   9.319  3.3692  0.3023 -2.5299
  251MOL0     H33118   5.654   0.950   8.808 -0.6998  0.6182  2.0219
  251MOL0     H33119   5.895   0.938   8.736 -0.7470  0.1104 -3.1764
  251MOL0     H33120   6.256   1.293   8.764 -0.4839 -0.9529  3.8161
  251MOL0     H33121   6.487   1.341   8.821  5.1816 -0.9213 -0.2363
  251MOL0     H33122   6.801   1.102   8.637 -0.1906  2.3081 -1.0454
  251MOL0     H33123   6.803   1.037   8.800  0.3051  0.4071 -0.1377
  251MOL0     H33124   6.908   1.245   8.880 -2.0658 -2.2307 -0.4530
  251MOL0     H33125   7.015   1.155   8.774  1.1147  0.9873 -0.1476
  251MOL0     H33126   6.856   1.385   8.664 -1.5549 -1.8751  1.5308
  251MOL0     H33127   6.992   1.317   8.587  0.6971  2.1137  0.8684
  251MOL0     H33128   7.051   1.534   8.704 -1.4419  0.8979  1.6603
  251MOL0     H33129   7.032   1.450   8.857  0.2495 -1.8228  0.5174
  251MOL0     H33130   7.412   1.328   8.693  0.5544  0.7852  0.0668
  251MOL0     H33131   6.593   0.937   8.712  1.3668 -0.2942  0.9959
  251MOL0     H33132   6.355   0.885   8.695  1.3835 -0.0065 -1.7929
  252MOL0     O33133   9.856   6.772   8.163 -0.6615 -0.1570 -1.0978
  252MOL0     C33134   9.840   6.704   8.062 -0.2532  0.7336 -0.3486
  252MOL0     O33135   9.744   6.612   8.047 -0.2540  0.2024 -0.5404
  252MOL0     C33136   9.658   6.585   8.148 -0.7399  1.1567  0.3330
  252MOL0     C33137   9.526   6.628   8.127  0.0752  0.4827  0.7601
  252MOL0     C33138   9.426   6.589   8.217  0.2131  0.0831 -0.0501
  252MOL0     C33139   9.462   6.534   8.339  0.3931  0.0631 -0.3917
  252MOL0     O33140   9.375   6.496   8.436 -0.0478  0.2680 -0.5910
  252MOL0     C33141   9.253   6.575   8.447 -0.1189 -0.5541 -0.8540
  252MOL0     C33142   9.176   6.534   8.575 -0.2488 -0.2762  0.0255
  252MOL0     C33143   9.040   6.604   8.585  0.3928  0.8663 -0.3638
  252MOL0     C33144   8.966   6.565   8.717 -0.0348  0.3177  0.2496
  252MOL0     C33145   8.833   6.660   8.733 -0.2732 -0.2869 -0.7086
  252MOL0     C33146   8.775   6.666   8.876  0.7390 -0.1058  0.2200
  252MOL0     C33147   8.624   6.712   8.882  0.3375 -0.8646  0.3196
  252MOL0     C33148   8.586   6.727   9.033 -1.1247 -0.1435 -0.0784
  252MOL0     N33149   8.453   6.795   9.041 -0.3321 -0.5588 -0.7294
  252MOL0     C33150   8.333   6.732   9.018 -0.8386 -0.1623  0.1999
  252MOL0     C33151   8.247   6.833   9.043  0.2810  0.9900 -0.6732
  252MOL0     C33152   8.107   6.808   9.014  0.3264 -0.2865 -1.1944
  252MOL0     C33153   8.074   6.869   8.884  0.7801 -0.7980 -0.0593
  252MOL0     C33154   7.925   6.847   8.863  0.7261  0.7657 -0.2913
  252MOL0     C33155   7.840   6.950   8.949  0.0102 -0.0193 -0.1164
  252MOL0     O33156   7.705   6.919   8.922  0.8422  0.9567  0.1704
  252MOL0     C33157   7.603   7.004   8.952  0.3190 -0.4146  0.0967
  252MOL0     C33158   7.615   7.122   9.025  0.2560 -0.3930  0.4914
  252MOL0     C33159   7.512   7.213   9.036 -0.2296  0.4333  0.2291
  252MOL0     C33160   7.380   7.186   8.983  0.1145 -0.1527  0.6766
  252MOL0     C33161   7.260   7.272   8.978 -0.6179 -0.1166 -0.1097
  252MOL0     O33162   7.145   7.210   8.933 -0.2154  0.3418  0.3503
  252MOL0     C33163   7.024   7.275   8.908  1.0516 -0.4066 -0.3031
  252MOL0     C33164   7.017   7.410   8.872  0.7777 -0.3988  0.8719
  252MOL0     C33165   6.893   7.474   8.865  0.4143  0.1211 -0.0422
  252MOL0     C33166   6.774   7.417   8.899  0.3423  0.4088 -0.8175
  252MOL0     O33167   6.655   7.482   8.900 -0.7829  0.5221 -0.2341
  252MOL0     C33168   6.662   7.605   8.972  1.0450 -0.0924  0.1373
  252MOL0     C33169   6.527   7.614   9.053 -0.0858  0.1175  0.3322
  252MOL0     C33170   6.399   7.625   8.971 -0.0400  0.3203  0.6623
  252MOL0     C33171   6.280   7.650   9.066  0.0257 -0.5775  0.7997
  252MOL0     C33172   6.147   7.625   9.002  0.1449  0.9648  1.1944
  252MOL0     C33173   6.030   7.671   9.085  0.7474 -0.4981 -0.7002
  252MOL0     C33174   5.899   7.634   9.021  1.1972  0.3552  0.0829
  252MOL0     C33175   5.796   7.671   9.122  0.2652 -0.2384  0.5666
  252MOL0    Cl33176   5.636   7.619   9.031  0.0784  0.3126  0.1818
  252MOL0     C33177   6.775   7.279   8.922  0.0999 -0.1986 -0.7398
  252MOL0     C33178   6.902   7.213   8.930 -0.9897 -0.4809  0.4466
  252MOL0     O33179   7.266   7.385   9.023 -1.1567 -0.3294  0.1841
  252MOL0     C33180   7.370   7.061   8.913  0.3001  0.4724  0.1319
  252MOL0     C33181   7.480   6.973   8.898  0.0151 -0.3332 -0.6690
  252MOL0     N33182   8.307   6.946   9.097 -0.1663  0.2803  0.0814
  252MOL0     N33183   8.437   6.925   9.091  0.6092  0.1267 -0.1316
  252MOL0     C33184   9.597   6.499   8.364  0.5158  1.0927 -0.6958
  252MOL0     C33185   9.698   6.523   8.270  0.2254  0.6879 -0.3244
  252MOL0     C33186   9.939   6.720   7.961  0.1747 -0.0966 -0.8526
  252MOL0     C33187  10.074   6.750   7.992  0.9886  0.3854  0.4315
  252MOL0     C33188  10.175   6.774   7.901  0.5925  0.4710 -0.6150
  252MOL0     C33189  10.139   6.766   7.765 -0.6140  0.6463 -1.2312
  252MOL0     O33190  10.227   6.805   7.671 -0.3498  0.2199  0.6813
  252MOL0     C33191  10.363   6.847   7.707  0.4290  0.0255 -0.8909
  252MOL0     C33192  10.442   6.720   7.730 -0.0947  0.3003 -0.4570
  252MOL0     C33193  10.548   6.728   7.842 -1.0778 -0.4117 -0.2413
  252MOL0     C33194  10.674   6.803   7.787 -0.2639  0.0019  0.9016
  252MOL0     C33195  10.782   6.781   7.885 -0.6006 -0.6247 -0.1683
  252MOL0     C33196  10.856   6.749   7.983 -0.0060  0.3831  0.6032
  252MOL0     C33197  10.011   6.716   7.729 -0.7095  0.7678 -0.8839
  252MOL0     C33198   9.907   6.697   7.826 -0.5335 -0.6097 -0.0498
  252MOL0     H33199   9.512   6.682   8.035  1.8101  2.0276  1.3364
  252MOL0     H33200   9.326   6.620   8.189  0.0765  2.4480  2.6129
  252MOL0     H33201   9.189   6.554   8.360 -0.2301 -0.9612 -0.6772
  252MOL0     H33202   9.274   6.682   8.441 -1.4048 -0.3546 -4.1093
  252MOL0     H33203   9.238   6.565   8.660 -1.2709 -0.0934  0.7223
  252MOL0     H33204   9.168   6.426   8.590  0.9852 -0.5866 -1.3456
  252MOL0     H33205   8.973   6.561   8.510  2.5139 -1.3403 -1.1179
  252MOL0     H33206   9.047   6.713   8.586 -1.7341  1.0974 -1.9751
  252MOL0     H33207   8.936   6.461   8.730 -0.0178  0.0981 -1.3310
  252MOL0     H33208   9.036   6.602   8.793  2.0460  1.2284 -1.9928
  252MOL0     H33209   8.763   6.599   8.675  1.3506 -1.4206 -1.5703
  252MOL0     H33210   8.844   6.761   8.693  1.1834 -0.0135  0.3080
  252MOL0     H33211   8.838   6.741   8.925  1.3911 -0.8909  0.6133
  252MOL0     H33212   8.791   6.572   8.929 -0.7600 -1.3562 -1.4515
  252MOL0     H33213   8.620   6.809   8.832 -0.6027 -0.0089  1.9992
  252MOL0     H33214   8.558   6.635   8.842 -1.1775  1.0481 -1.0503
  252MOL0     H33215   8.670   6.782   9.075  1.1134 -1.9729 -1.9396
  252MOL0     H33216   8.578   6.632   9.087  1.5762  0.0882  0.8395
  252MOL0     H33217   8.318   6.640   8.962  3.7620  0.3500 -2.3687
  252MOL0     H33218   8.046   6.843   9.099  1.6445  2.9449 -1.4531
  252MOL0     H33219   8.082   6.701   9.012 -1.2612  0.0385 -0.7113
  252MOL0     H33220   8.133   6.818   8.807 -0.9084 -0.6728 -1.5050
  252MOL0     H33221   8.087   6.978   8.886 -0.6466 -0.5516 -1.8929
  252MOL0     H33222   7.897   6.858   8.758 -1.6158 -1.5531 -0.0010
  252MOL0     H33223   7.906   6.743   8.890 -0.2999  0.5291 -1.8308
  252MOL0     H33224   7.859   7.051   8.911  0.7461 -1.2553 -3.3118
  252MOL0     H33225   7.871   6.956   9.054  2.9171  1.2073 -0.9350
  252MOL0     H33226   7.708   7.126   9.082  2.5550  1.2657 -3.0454
  252MOL0     H33227   7.516   7.292   9.111 -1.4790 -2.2566  3.3875
  252MOL0     H33228   7.105   7.462   8.836 -0.5001  1.0252 -0.3301
  252MOL0     H33229   6.903   7.580   8.844  0.3152  0.2421  0.5034
  252MOL0     H33230   6.657   7.696   8.911 -1.2469 -0.2902 -0.0897
  252MOL0     H33231   6.745   7.611   9.043  1.7418  0.1363 -0.6808
  252MOL0     H33232   6.534   7.708   9.110 -2.5027 -0.3783  1.6043
  252MOL0     H33233   6.516   7.534   9.127 -1.5101 -0.2572 -0.2500
  252MOL0     H33234   6.370   7.532   8.921 -2.2048 -0.2463  2.8036
  252MOL0     H33235   6.402   7.711   8.903 -1.2996  0.6994  1.0664
  252MOL0     H33236   6.302   7.583   9.149  0.6627 -1.1816  0.1610
  252MOL0     H33237   6.269   7.754   9.101 -1.0993 -0.9602  1.6303
  252MOL0     H33238   6.138   7.517   8.986 -1.2330  0.8002  2.8086
  252MOL0     H33239   6.152   7.676   8.905  1.8919  1.9527  1.7537
  252MOL0     H33240   6.042   7.780   9.090 -2.1410 -0.0825 -1.0669
  252MOL0     H33241   6.040   7.634   9.187 -3.3541  1.6914  0.7466
  252MOL0     H33242   5.879   7.692   8.930 -1.2205  0.8563  0.8774
  252MOL0     H33243   5.888   7.526   9.004 -0.3582  0.4617  0.2547
  252MOL0     H33244   5.802   7.779   9.138  0.4965  0.0833 -1.4670
  252MOL0     H33245   5.809   7.632   9.224  1.1687  2.3739  1.5415
  252MOL0     H33246   6.677   7.238   8.942 -1.1904  1.5635 -3.0042
  252MOL0     H33247   6.910   7.108   8.956  0.8320 -0.7731 -1.0142
  252MOL0     H33248   7.273   7.026   8.879 -0.8121 -0.0701  3.5129
  252MOL0     H33249   7.466   6.878   8.847 -2.4193  0.0480 -0.8233
  252MOL0     H33250   9.630   6.457   8.458  1.1516 -0.9296 -1.7614
  252MOL0     H33251   9.803   6.501   8.288 -0.2552 -0.9592  0.7018
  252MOL0     H33252  10.114   6.774   8.090  1.0540  1.3261  0.1772
  252MOL0     H33253  10.273   6.808   7.931  0.3573 -1.3937  2.8330
  252MOL0     H33254  10.354   6.913   7.794 -0.2314 -1.5058  0.2344
  252MOL0     H33255  10.407   6.900   7.622 -1.4965 -1.8169 -3.2001
  252MOL0     H33256  10.372   6.643   7.763  0.6618 -0.5417 -0.7631
  252MOL0     H33257  10.487   6.679   7.639  1.6432 -0.8589  0.8394
  252MOL0     H33258  10.572   6.624   7.867 -0.7298 -0.1376  0.5883
  252MOL0     H33259  10.508   6.783   7.928 -0.4570  0.3502 -0.4279
  252MOL0     H33260  10.706   6.765   7.690  1.9513 -1.7947  2.2503
  252MOL0     H33261  10.651   6.910   7.777 -0.4784 -0.2595 -2.1709
  252MOL0     H33262  10.931   6.723   8.056 -0.5785  1.6407  1.6888
  252MOL0     H33263   9.983   6.712   7.625  0.1571  0.0495 -1.1072
  252MOL0     H33264   9.813   6.651   7.794 -0.0218  0.3368 -3.3011
  253MOL0     O33265   0.896   6.623   8.355  0.1286 -0.2717 -0.3223
  253MOL0     C33266   0.905   6.670   8.243  0.2439  0.3358  0.3041
  253MOL0     O33267   0.801   6.711   8.163  0.2698 -0.0706 -0.3571
  253MOL0     C33268   0.676   6.736   8.203 -0.0626 -0.6351 -0.0881
  253MOL0     C33269   0.643   6.803   8.316 -0.5591  0.0095 -1.0251
  253MOL0     C33270   0.516   6.825   8.352 -0.7154  0.4915 -0.1528
  253MOL0     C33271   0.415   6.783   8.266  1.3226  0.9512  0.7370
  253MOL0     O33272   0.287   6.830   8.292 -0.6683  0.2969  0.3443
  253MOL0     C33273   0.174   6.739   8.280  0.1450 -0.5668  0.6436
  253MOL0     C33274   0.052   6.813   8.330 -0.4818 -0.1321  0.0345
  253MOL0     C33275  -0.074   6.722   8.314  0.2269 -0.4888  0.0548
  253MOL0     C33276  -0.204   6.787   8.363 -0.3356 -0.9403  0.1750
  253MOL0     C33277  -0.325   6.692   8.374 -0.0140  0.5399  1.2108
  253MOL0     C33278  -0.452   6.772   8.414  1.4545  0.1379  0.0060
  253MOL0     C33279  -0.577   6.682   8.429 -0.9400  0.2186 -0.4933
  253MOL0     C33280  -0.612   6.621   8.302 -0.6230  0.8510  0.1460
  253MOL0     N33281  -0.749   6.562   8.308 -0.8321 -0.3197  0.1915
  253MOL0     C33282  -0.790   6.455   8.373  0.0772  0.2290 -0.1584
  253MOL0     C33283  -0.918   6.446   8.339 -0.1363  0.6553 -1.0367
  253MOL0     C33284  -1.018   6.347   8.394  0.5545 -0.6512 -0.2050
  253MOL0     C33285  -1.165   6.398   8.434 -0.7276  0.0733 -0.3555
  253MOL0     C33286  -1.160   6.490   8.557 -0.3466 -0.6833 -0.8490
  253MOL0     C33287  -1.300   6.539   8.590  0.5137 -0.2747  0.6834
  253MOL0     O33288  -1.385   6.425   8.614 -0.1751  0.2193  0.1102
  253MOL0     C33289  -1.476   6.434   8.717 -0.7381 -1.3524  0.8838
  253MOL0     C33290  -1.537   6.549   8.745 -1.1055 -0.4478 -0.8199
  253MOL0     C33291  -1.643   6.554   8.836  0.2933 -0.1496  0.2980
  253MOL0     C33292  -1.693   6.440   8.894 -0.5633  0.4185 -0.3037
  253MOL0     C33293  -1.797   6.437   8.997  0.1427  0.2170  0.3500
  253MOL0     O33294  -1.873   6.546   8.989  0.8191 -0.0025 -0.1155
  253MOL0     C33295  -1.963   6.570   9.094  0.1912 -0.5499  1.0622
  253MOL0     C33296  -1.937   6.645   9.213  0.9253  0.2651 -0.3773
  253MOL0     C33297  -2.042   6.687   9.286 -0.5789  0.1466 -0.1294
  253MOL0     C33298  -2.169   6.654   9.252  0.2376 -0.0418 -0.0257
  253MOL0     O33299  -2.265   6.709   9.336 -0.0163 -0.7886  0.1927
  253MOL0     C33300  -2.312   6.842   9.296 -0.0665  0.7186  0.9185
  253MOL0     C33301  -2.451   6.868   9.346 -0.1975  0.1641  0.0328
  253MOL0     C33302  -2.506   6.995   9.295 -0.1492 -0.1820  0.6182
  253MOL0     C33303  -2.629   7.034   9.383  1.1692 -0.1650 -0.5561
  253MOL0     C33304  -2.658   7.181   9.376 -0.3372  0.4412  0.2909
  253MOL0     C33305  -2.610   7.262   9.493 -0.4325  0.6787 -0.2307
  253MOL0     C33306  -2.604   7.414   9.460  0.7718 -0.5902 -0.5987
  253MOL0     C33307  -2.750   7.469   9.445 -0.2315  0.7717  0.3661
  253MOL0    Cl33308  -2.732   7.637   9.426  0.4290 -0.5354  0.6075
  253MOL0     C33309  -2.199   6.573   9.144  0.3959  0.0145 -0.8189
  253MOL0     C33310  -2.092   6.530   9.066  0.0097  0.5779 -0.8822
  253MOL0     O33311  -1.796   6.352   9.083 -0.8492  0.4036 -0.7647
  253MOL0     C33312  -1.632   6.318   8.865 -0.2055  0.3036  0.4986
  253MOL0     C33313  -1.528   6.316   8.770  0.0203 -0.2637 -0.7994
  253MOL0     N33314  -0.957   6.534   8.246 -0.7539 -0.1291  0.1306
  253MOL0     N33315  -0.848   6.606   8.229  0.3453  0.1432 -0.3398
  253MOL0     C33316   0.444   6.716   8.142  0.3417  0.4133 -0.4123
  253MOL0     C33317   0.577   6.697   8.115  0.2564  0.1806  0.1187
  253MOL0     C33318   1.041   6.696   8.192  0.0947 -0.3231 -0.4043
  253MOL0     C33319   1.154   6.654   8.264 -0.1228 -0.6106 -0.3163
  253MOL0     C33320   1.277   6.690   8.219 -0.3084  0.2792  0.3704
  253MOL0     C33321   1.304   6.746   8.095  0.1948  0.3767 -0.8351
  253MOL0     O33322   1.438   6.768   8.067 -0.2698  0.3988  0.3920
  253MOL0     C33323   1.476   6.781   7.935  0.1398 -0.3542  0.0668
  253MOL0     C33324   1.623   6.759   7.901 -0.4375 -0.0153 -0.2422
  253MOL0     C33325   1.700   6.862   7.979 -0.6309 -1.0401 -0.3336
  253MOL0     C33326   1.853   6.868   7.950  0.7988 -0.0965 -0.4192
  253MOL0     C33327   1.927   6.784   8.036 -0.0471  0.1731  0.9358
  253MOL0     C33328   1.975   6.703   8.123  0.6923  0.1492  0.3408
  253MOL0     C33329   1.196   6.770   8.008  0.3547 -0.4609 -0.2248
  253MOL0     C33330   1.064   6.747   8.061  0.3211 -0.2940 -0.3769
  253MOL0     H33331   0.718   6.829   8.390 -1.2382 -1.9761  0.4713
  253MOL0     H33332   0.499   6.882   8.443 -3.4619 -1.2399  0.5584
  253MOL0     H33333   0.193   6.649   8.340  0.1475 -0.5260  0.7051
  253MOL0     H33334   0.159   6.705   8.178  2.5042 -0.2226  0.1207
  253MOL0     H33335   0.034   6.903   8.271  2.3264 -1.4121 -3.0912
  253MOL0     H33336   0.060   6.831   8.437  2.1813 -0.5256 -0.0395
  253MOL0     H33337  -0.051   6.630   8.369  0.6498 -1.7050 -2.0416
  253MOL0     H33338  -0.092   6.697   8.209 -3.7729  0.9500  0.2082
  253MOL0     H33339  -0.182   6.817   8.466 -0.0111 -0.3283 -0.0647
  253MOL0     H33340  -0.218   6.878   8.303 -2.0367 -1.8674 -0.9244
  253MOL0     H33341  -0.308   6.608   8.442  1.0444 -1.0646 -0.9114
  253MOL0     H33342  -0.345   6.645   8.277  2.6626 -0.5884  1.1072
  253MOL0     H33343  -0.480   6.854   8.347 -0.0733  2.2414  2.9414
  253MOL0     H33344  -0.437   6.824   8.510 -1.2983  2.7624 -0.8096
  253MOL0     H33345  -0.571   6.609   8.510  2.1189  0.5756 -0.2710
  253MOL0     H33346  -0.657   6.742   8.474  0.4200  0.5575  1.6258
  253MOL0     H33347  -0.534   6.548   8.276 -2.7390 -1.0544 -1.2266
  253MOL0     H33348  -0.612   6.693   8.220  0.0456  2.2572  1.3314
  253MOL0     H33349  -0.725   6.410   8.448  0.6690  0.1066 -0.7394
  253MOL0     H33350  -0.983   6.283   8.475 -0.2599 -0.9055 -0.0475
  253MOL0     H33351  -1.035   6.285   8.305  1.1422  0.5770 -1.2091
  253MOL0     H33352  -1.220   6.305   8.453  0.5660 -0.4026  1.2189
  253MOL0     H33353  -1.204   6.452   8.347  3.5611  0.7174 -2.1097
  253MOL0     H33354  -1.115   6.445   8.646  3.8651  1.5273 -1.5982
  253MOL0     H33355  -1.091   6.574   8.544 -1.2051  0.3444  0.8578
  253MOL0     H33356  -1.328   6.600   8.504  2.8578 -0.4235 -0.2561
  253MOL0     H33357  -1.299   6.606   8.677  0.3465 -1.2764  1.4831
  253MOL0     H33358  -1.508   6.647   8.711 -1.4528  0.8824  2.3798
  253MOL0     H33359  -1.677   6.652   8.868  1.6291 -0.8609  4.6137
  253MOL0     H33360  -1.836   6.684   9.225  1.7646 -0.9102 -2.9150
  253MOL0     H33361  -2.034   6.751   9.373  1.6964 -1.9023  1.2978
  253MOL0     H33362  -2.313   6.858   9.188 -1.9945  0.9362  0.9346
  253MOL0     H33363  -2.242   6.917   9.335  0.2323  1.3160 -0.7042
  253MOL0     H33364  -2.442   6.891   9.453 -1.7466  1.0680 -0.0148
  253MOL0     H33365  -2.516   6.781   9.330  1.1016 -1.0373  0.9820
  253MOL0     H33366  -2.535   6.991   9.190  0.5447 -2.7953  0.4353
  253MOL0     H33367  -2.425   7.066   9.308 -0.1209 -0.4073  1.8061
  253MOL0     H33368  -2.718   6.982   9.344 -0.3300  0.5063  1.7855
  253MOL0     H33369  -2.619   6.999   9.486  0.9178 -0.0425 -0.4899
  253MOL0     H33370  -2.766   7.199   9.375 -0.3729  0.2223 -0.1813
  253MOL0     H33371  -2.618   7.204   9.277  2.0098 -2.7445  0.3290
  253MOL0     H33372  -2.515   7.223   9.531 -1.3271  0.9101  2.4987
  253MOL0     H33373  -2.676   7.251   9.580 -2.2525 -0.7685 -1.6992
  253MOL0     H33374  -2.551   7.459   9.544 -0.9999 -3.3026  2.1571
  253MOL0     H33375  -2.553   7.426   9.364 -0.2890  1.3051 -0.9912
  253MOL0     H33376  -2.809   7.452   9.536  1.6231 -4.7083  0.9672
  253MOL0     H33377  -2.800   7.418   9.362 -2.3401 -0.3757  2.2098
  253MOL0     H33378  -2.304   6.563   9.117  0.4270  0.9667 -1.3698
  253MOL0     H33379  -2.121   6.480   8.974  1.5582  0.3735 -1.2977
  253MOL0     H33380  -1.664   6.221   8.902  1.1241  0.0992  1.1746
  253MOL0     H33381  -1.487   6.224   8.730 -0.9169 -0.5521 -1.1115
  253MOL0     H33382   0.372   6.686   8.066 -0.4278 -0.1280  0.5070
  253MOL0     H33383   0.605   6.650   8.021 -0.3045 -0.8014  0.4260
  253MOL0     H33384   1.152   6.619   8.367 -2.2211  0.0706 -0.0805
  253MOL0     H33385   1.359   6.675   8.288  0.1312 -0.8583 -0.3731
  253MOL0     H33386   1.433   6.877   7.904 -4.5052 -2.3760 -0.5638
  253MOL0     H33387   1.422   6.705   7.878  0.4838 -0.7224  0.2358
  253MOL0     H33388   1.650   6.655   7.920 -2.0965 -0.2207  1.1597
  253MOL0     H33389   1.644   6.767   7.794 -0.3513 -0.2833 -0.2463
  253MOL0     H33390   1.685   6.859   8.087  2.7919 -0.2249  0.2826
  253MOL0     H33391   1.678   6.965   7.949  1.5353 -0.2440  0.5927
  253MOL0     H33392   1.891   6.859   7.848  1.8463 -1.2899  0.0520
  253MOL0     H33393   1.890   6.958   7.999  0.7916 -0.0147 -0.5634
  253MOL0     H33394   2.008   6.633   8.197 -0.5600 -0.8551 -0.0115
  253MOL0     H33395   1.206   6.821   7.912  1.0092  1.0475  0.6160
  253MOL0     H33396   0.989   6.777   7.988 -0.0641  4.6732  1.6685
  254MOL0     O33397   4.903   5.869   2.808 -0.5374  0.6915  0.2895
  254MOL0     C33398   4.972   5.810   2.726 -0.1625 -0.2181  0.1280
  254MOL0     O33399   4.935   5.682   2.678  0.4069 -0.3978 -0.4753
  254MOL0     C33400   4.806   5.632   2.680 -1.2523  0.3705  0.0752
  254MOL0     C33401   4.738   5.615   2.566 -0.6677  0.0634  0.0328
  254MOL0     C33402   4.603   5.563   2.569  0.0510  0.3229 -0.3495
  254MOL0     C33403   4.555   5.514   2.689 -0.4053 -0.0803  0.6537
  254MOL0     O33404   4.434   5.456   2.675 -0.2261  0.1549  0.4869
  254MOL0     C33405   4.379   5.395   2.789  0.8711 -0.2584  0.2121
  254MOL0     C33406   4.265   5.292   2.752  0.4897 -0.8871 -0.0289
  254MOL0     C33407   4.141   5.377   2.727 -0.7106 -0.2301  0.3046
  254MOL0     C33408   4.038   5.270   2.693  0.3120 -0.2358 -0.0491
  254MOL0     C33409   3.906   5.342   2.667 -0.6652  1.0979 -0.3769
  254MOL0     C33410   3.836   5.378   2.793  0.4754 -0.2970 -0.6010
  254MOL0     C33411   3.704   5.437   2.752  0.3441  0.1247 -0.4022
  254MOL0     C33412   3.615   5.344   2.667 -0.4458 -0.1146  0.2166
  254MOL0     N33413   3.483   5.403   2.668 -0.0500  0.0552 -0.2650
  254MOL0     C33414   3.410   5.431   2.780  0.4051  0.5610  0.0839
  254MOL0     C33415   3.287   5.469   2.735 -0.6376 -0.0287  0.1964
  254MOL0     C33416   3.178   5.519   2.823 -0.1949 -0.2654  0.8969
  254MOL0     C33417   3.095   5.640   2.772 -0.2590  0.0688  0.0933
  254MOL0     C33418   3.003   5.602   2.659 -0.0724 -0.0623  0.0874
  254MOL0     C33419   2.867   5.555   2.722 -1.1557  1.2981  0.7022
  254MOL0     O33420   2.779   5.672   2.751  0.4613  0.2639  0.1238
  254MOL0     C33421   2.653   5.650   2.802 -0.3653  0.1151 -0.2213
  254MOL0     C33422   2.557   5.750   2.802  0.5889  0.8328  0.3788
  254MOL0     C33423   2.433   5.738   2.863  0.1251  1.1494 -0.0303
  254MOL0     C33424   2.400   5.614   2.919 -0.0830 -0.2191 -0.2428
  254MOL0     C33425   2.266   5.603   2.973  0.4419  0.0682 -0.4641
  254MOL0     O33426   2.240   5.698   3.069 -0.1941 -0.0501 -0.6305
  254MOL0     C33427   2.132   5.682   3.150 -0.1963 -0.5888 -0.1625
  254MOL0     C33428   2.002   5.699   3.091  0.0595 -0.2397 -0.2454
  254MOL0     C33429   1.887   5.686   3.168  0.4259 -0.8711 -0.6899
  254MOL0     C33430   1.903   5.674   3.311 -0.2382 -0.5267  0.8482
  254MOL0     O33431   1.813   5.664   3.414  0.1128  0.3547  0.8972
  254MOL0     C33432   1.673   5.661   3.377 -0.4294  0.5496  0.8697
  254MOL0     C33433   1.618   5.795   3.344  0.4621 -0.2489  0.2115
  254MOL0     C33434   1.613   5.888   3.471  0.9809  0.2623 -0.2430
  254MOL0     C33435   1.557   6.026   3.432  0.6495  0.5858 -0.7001
  254MOL0     C33436   1.604   6.138   3.519 -0.2480  0.4172 -0.0986
  254MOL0     C33437   1.598   6.123   3.672  0.8617 -0.3278 -0.0538
  254MOL0     C33438   1.453   6.141   3.709  0.0508  0.3291 -0.5792
  254MOL0     C33439   1.443   6.105   3.851 -0.0971 -0.2829  0.0644
  254MOL0    Cl33440   1.276   6.111   3.907 -0.1127 -0.0665  0.1851
  254MOL0     C33441   2.030   5.662   3.360 -0.5254  0.1984 -0.5266
  254MOL0     C33442   2.146   5.659   3.285  0.5887 -0.7693  0.4022
  254MOL0     O33443   2.188   5.520   2.932  0.3692 -0.0130 -0.1697
  254MOL0     C33444   2.484   5.509   2.907 -0.2811 -0.5526 -0.5517
  254MOL0     C33445   2.614   5.533   2.861  0.7273  0.3453 -0.1646
  254MOL0     N33446   3.289   5.481   2.603  0.3545  0.1128  0.6204
  254MOL0     N33447   3.407   5.440   2.563 -0.4583 -0.6346  0.0824
  254MOL0     C33448   4.627   5.544   2.807  0.5187 -0.4184 -1.0369
  254MOL0     C33449   4.754   5.608   2.801 -0.0305  1.3061 -0.2132
  254MOL0     C33450   5.102   5.869   2.693  1.1479 -0.8169  0.8322
  254MOL0     C33451   5.151   6.004   2.719  0.5196 -0.2041 -0.5120
  254MOL0     C33452   5.274   6.053   2.674 -0.6462  0.1173 -0.4806
  254MOL0     C33453   5.363   5.968   2.603 -0.4598  0.2906 -0.7544
  254MOL0     O33454   5.486   6.020   2.569 -0.5634  0.0033  0.2330
  254MOL0     C33455   5.590   5.933   2.516  0.1147  1.7536 -0.6754
  254MOL0     C33456   5.691   5.999   2.415  1.0845 -1.2916  0.6718
  254MOL0     C33457   5.750   6.135   2.466  0.6751 -0.2461  0.3773
  254MOL0     C33458   5.878   6.171   2.392  0.3852  0.1505 -0.3568
  254MOL0     C33459   6.002   6.085   2.405  0.6442  0.5397  0.3351
  254MOL0     C33460   6.112   6.028   2.403 -0.1035  0.0943 -0.1150
  254MOL0     C33461   5.319   5.832   2.595  0.4845  0.0240  0.2131
  254MOL0     C33462   5.192   5.790   2.628 -0.0429  0.2541  0.1822
  254MOL0     H33463   4.782   5.646   2.471  1.2599 -2.3322  0.0596
  254MOL0     H33464   4.545   5.569   2.477 -1.1680  0.0517  0.3750
  254MOL0     H33465   4.330   5.472   2.850  0.0787  0.2974 -1.0764
  254MOL0     H33466   4.456   5.347   2.850 -0.2538 -0.7634  1.2844
  254MOL0     H33467   4.249   5.217   2.829 -3.9410  0.0079  0.2078
  254MOL0     H33468   4.289   5.240   2.658  2.1876  0.9612 -0.7074
  254MOL0     H33469   4.163   5.450   2.649 -1.0708 -1.1140 -0.6411
  254MOL0     H33470   4.108   5.430   2.817  2.5278  1.3601  0.6921
  254MOL0     H33471   4.068   5.221   2.600 -1.7746 -2.4770  0.3415
  254MOL0     H33472   4.016   5.193   2.767 -2.9982 -1.5956 -2.1795
  254MOL0     H33473   3.848   5.270   2.609 -1.1874  1.5197 -0.3843
  254MOL0     H33474   3.921   5.437   2.615  1.7604  1.0269  0.0890
  254MOL0     H33475   3.885   5.452   2.857 -0.8454  1.0180 -1.0307
  254MOL0     H33476   3.816   5.295   2.862 -1.5610  0.7714  0.2058
  254MOL0     H33477   3.655   5.459   2.847  0.7559 -4.7629  1.1731
  254MOL0     H33478   3.713   5.530   2.695 -1.6737 -0.5993 -2.0148
  254MOL0     H33479   3.606   5.243   2.708 -1.6774  0.5837  1.7538
  254MOL0     H33480   3.652   5.334   2.565 -2.3810 -2.4611 -0.3401
  254MOL0     H33481   3.432   5.422   2.886 -2.7182 -0.4929  0.7273
  254MOL0     H33482   3.216   5.566   2.914  1.9421  0.7403 -0.4413
  254MOL0     H33483   3.107   5.440   2.849 -1.8795  1.4811  1.8997
  254MOL0     H33484   3.168   5.719   2.749  0.0605  0.8110  3.2576
  254MOL0     H33485   3.033   5.680   2.852  0.9310 -0.5036  1.3427
  254MOL0     H33486   2.989   5.696   2.604  1.7471  1.0948  1.4960
  254MOL0     H33487   3.033   5.523   2.589  0.3808  1.2386 -1.2368
  254MOL0     H33488   2.881   5.491   2.809 -0.0007  0.6868  0.0856
  254MOL0     H33489   2.822   5.480   2.657  0.7726 -0.6803  1.5499
  254MOL0     H33490   2.595   5.849   2.778  1.7100  0.6973  1.4614
  254MOL0     H33491   2.359   5.818   2.861 -0.0447  1.0321  1.2254
  254MOL0     H33492   2.006   5.703   2.982 -1.5053 -0.1422 -0.3345
  254MOL0     H33493   1.784   5.684   3.132 -1.0381  0.2479  2.9331
  254MOL0     H33494   1.611   5.623   3.459 -1.3272 -1.0532 -0.4864
  254MOL0     H33495   1.657   5.601   3.287 -1.4869  1.7435  0.2163
  254MOL0     H33496   1.518   5.778   3.304  0.5271 -0.5525  0.1808
  254MOL0     H33497   1.675   5.852   3.270 -1.3563  2.9738  1.0994
  254MOL0     H33498   1.713   5.899   3.512  0.9150  0.9227 -0.2476
  254MOL0     H33499   1.553   5.836   3.546 -0.3359  0.5104 -1.0874
  254MOL0     H33500   1.589   6.041   3.329 -1.1702 -0.0441 -1.3820
  254MOL0     H33501   1.448   6.027   3.435  0.6197 -0.9257  1.7779
  254MOL0     H33502   1.559   6.234   3.492 -1.2485 -0.1580 -0.5307
  254MOL0     H33503   1.709   6.152   3.492  0.6953  0.1572  2.9868
  254MOL0     H33504   1.658   6.196   3.726  1.0630 -1.7573  1.7597
  254MOL0     H33505   1.640   6.028   3.707 -1.2514 -1.1644  0.3833
  254MOL0     H33506   1.424   6.246   3.694 -3.5906 -0.2329  1.3767
  254MOL0     H33507   1.380   6.072   3.666 -2.3902 -0.0988  3.6842
  254MOL0     H33508   1.501   6.167   3.920 -0.2453  1.9273 -1.6751
  254MOL0     H33509   1.474   6.001   3.856  0.0044 -0.3962 -1.9343
  254MOL0     H33510   2.045   5.659   3.468 -2.3631 -0.8813 -0.2568
  254MOL0     H33511   2.242   5.648   3.335  1.2930  5.8339  1.4526
  254MOL0     H33512   2.458   5.412   2.948 -1.7725 -0.1543 -0.4922
  254MOL0     H33513   2.681   5.450   2.880 -0.9814 -1.0143  0.1906
  254MOL0     H33514   4.571   5.531   2.899  0.0071  0.3570 -1.2274
  254MOL0     H33515   4.813   5.633   2.888 -0.7902  0.1301  0.6846
  254MOL0     H33516   5.083   6.059   2.784  0.2428  0.8707 -1.6695
  254MOL0     H33517   5.296   6.159   2.675 -0.1311  0.1066 -3.4619
  254MOL0     H33518   5.545   5.849   2.462 -0.5352 -1.2906  3.9577
  254MOL0     H33519   5.648   5.893   2.600  1.2685  2.3228 -1.1773
  254MOL0     H33520   5.761   5.922   2.381  0.2179 -0.8560 -2.4784
  254MOL0     H33521   5.629   6.026   2.328 -1.7202 -0.6481  2.7266
  254MOL0     H33522   5.760   6.124   2.574 -1.6222 -3.0735  0.4142
  254MOL0     H33523   5.675   6.206   2.429 -0.3291 -2.5001 -2.3197
  254MOL0     H33524   5.860   6.174   2.285  2.8551  1.0619 -0.8288
  254MOL0     H33525   5.919   6.267   2.427 -1.2253  0.5578  0.5062
  254MOL0     H33526   6.209   5.986   2.414 -0.0813  0.7829  3.4043
  254MOL0     H33527   5.383   5.759   2.546 -1.8577 -2.3051  0.3775
  254MOL0     H33528   5.169   5.686   2.608  2.0801 -0.0271 -1.1650
  255MOL0     O33529   8.182   2.686   9.058 -0.0103  0.5250  0.3374
  255MOL0     C33530   8.289   2.715   9.005 -0.0363  0.2329  0.1601
  255MOL0     O33531   8.408   2.731   9.070  0.2914  0.1590 -0.3566
  255MOL0     C33532   8.441   2.716   9.198  0.7252 -0.2686 -0.5464
  255MOL0     C33533   8.575   2.701   9.230  0.1001  0.7258 -0.1586
  255MOL0     C33534   8.619   2.703   9.361  0.3421 -0.4208 -0.1033
  255MOL0     C33535   8.523   2.707   9.474 -0.0644 -0.1144  0.1140
  255MOL0     O33536   8.573   2.698   9.600 -0.5731  0.3391  0.0978
  255MOL0     C33537   8.612   2.830   9.648 -0.8208 -0.0932  0.4247
  255MOL0     C33538   8.589   2.834   9.798  0.8482 -0.2468  0.7617
  255MOL0     C33539   8.438   2.817   9.843  0.9130  0.1326 -0.1759
  255MOL0     C33540   8.341   2.921   9.806  1.0437 -1.4165 -0.1376
  255MOL0     C33541   8.386   3.070   9.831 -0.2095  0.9782 -0.1762
  255MOL0     C33542   8.280   3.167   9.791 -0.4588  0.0945  0.0675
  255MOL0     C33543   8.300   3.313   9.819 -0.0487 -0.3415 -1.0490
  255MOL0     C33544   8.175   3.395   9.803 -0.2634 -0.1490  0.9630
  255MOL0     N33545   8.089   3.389   9.920  0.6310 -0.5203  0.8843
  255MOL0     C33546   8.110   3.449  10.046  0.9057 -0.1288  1.0883
  255MOL0     C33547   7.998   3.425  10.109 -0.8719 -0.4073  0.1689
  255MOL0     C33548   7.979   3.470  10.250 -0.1914 -0.4894 -0.3882
  255MOL0     C33549   8.084   3.431  10.352  0.2160  0.1131 -0.1715
  255MOL0     C33550   8.155   3.299  10.336  0.6868  0.0277  0.6988
  255MOL0     C33551   8.062   3.180  10.342  0.3965  0.1090 -0.1990
  255MOL0     O33552   8.020   3.171  10.483  0.7147 -0.1063  0.4795
  255MOL0     C33553   7.905   3.108  10.506 -0.4307  0.8296 -0.6136
  255MOL0     C33554   7.873   2.983  10.440  0.1058  1.3255 -0.4606
  255MOL0     C33555   7.766   2.895  10.483  0.9496  0.3656  0.2804
  255MOL0     C33556   7.686   2.933  10.594  0.1485 -0.6564 -0.2377
  255MOL0     C33557   7.565   2.866  10.629  0.1244 -0.4110 -0.5305
  255MOL0     O33558   7.463   2.937  10.689 -0.3372 -0.1794  0.3557
  255MOL0     C33559   7.344   2.897  10.731 -0.2152  0.1062 -0.2804
  255MOL0     C33560   7.272   2.981  10.829 -0.0911  0.3967 -0.3440
  255MOL0     C33561   7.141   2.951  10.874  0.0236  0.3285 -0.2211
  255MOL0     C33562   7.082   2.829  10.830  0.6157  0.2359  0.3073
  255MOL0     O33563   6.952   2.796  10.858 -0.0135 -0.2414  0.0314
  255MOL0     C33564   6.882   2.832  10.988 -0.2246  0.1990 -0.1219
  255MOL0     C33565   6.780   2.943  10.971 -0.6189 -0.5924 -0.1008
  255MOL0     C33566   6.655   2.913  10.883 -0.1164 -0.8703 -0.6848
  255MOL0     C33567   6.561   3.033  10.909  0.0235  0.4337 -0.2330
  255MOL0     C33568   6.434   3.036  10.828 -0.4776  0.5860  0.1759
  255MOL0     C33569   6.372   3.175  10.813  0.6292 -0.5189  0.3990
  255MOL0     C33570   6.243   3.155  10.713 -0.5562  1.3693 -0.3601
  255MOL0     C33571   6.199   3.290  10.647 -0.4336  0.2357  0.3511
  255MOL0    Cl33572   6.340   3.346  10.543  0.5338 -0.1669  0.1416
  255MOL0     C33573   7.156   2.743  10.740  0.7749  0.1042  0.2371
  255MOL0     C33574   7.284   2.776  10.698 -0.3621  0.1917 -0.4221
  255MOL0     O33575   7.565   2.747  10.593 -0.7009 -0.2454 -0.2709
  255MOL0     C33576   7.717   3.060  10.652  0.6985  0.3481  0.6357
  255MOL0     C33577   7.819   3.148  10.610  0.3651  0.3366  0.0547
  255MOL0     N33578   7.921   3.339  10.042 -0.3804  0.0094 -0.1553
  255MOL0     N33579   7.970   3.327   9.925  0.4969  0.5935  0.2439
  255MOL0     C33580   8.384   2.713   9.436 -0.2626  0.1456  0.3455
  255MOL0     C33581   8.343   2.717   9.301 -0.2368  1.1378  1.0728
  255MOL0     C33582   8.289   2.697   8.856 -0.3316 -0.5476 -0.5769
  255MOL0     C33583   8.403   2.729   8.781 -0.5209  0.1937  0.0099
  255MOL0     C33584   8.395   2.741   8.641  0.6762  0.2400  0.7248
  255MOL0     C33585   8.278   2.712   8.569  0.1667  0.7575  0.0645
  255MOL0     O33586   8.266   2.720   8.435  0.2260 -0.9473  0.1023
  255MOL0     C33587   8.354   2.821   8.371  0.1169 -0.1578 -0.4956
  255MOL0     C33588   8.266   2.894   8.264  0.2948  0.1873 -0.4878
  255MOL0     C33589   8.213   2.807   8.161  0.1709 -0.3504 -0.0784
  255MOL0     C33590   8.119   2.884   8.066  0.5629 -0.1475 -0.0438
  255MOL0     C33591   8.185   2.991   7.996  0.0032 -0.1317  0.0634
  255MOL0     C33592   8.253   3.075   7.942 -0.3510  0.7329 -0.0936
  255MOL0     C33593   8.165   2.678   8.641  0.3546  0.0910  0.5729
  255MOL0     C33594   8.175   2.667   8.781 -0.8165  0.1033  0.2102
  255MOL0     H33595   8.644   2.686   9.148  0.9663 -0.8339  0.7987
  255MOL0     H33596   8.725   2.694   9.381 -0.0699 -1.0885  2.1090
  255MOL0     H33597   8.552   2.910   9.603  0.5514  1.5274  1.3415
  255MOL0     H33598   8.716   2.848   9.617 -0.9906 -0.4152 -0.3506
  255MOL0     H33599   8.619   2.929   9.844 -0.3457  1.2308 -1.3314
  255MOL0     H33600   8.642   2.745   9.834  1.7552  0.6299  1.6858
  255MOL0     H33601   8.447   2.817   9.952 -3.0202  3.5156  0.3804
  255MOL0     H33602   8.389   2.723   9.816  0.3080  0.5910 -0.7320
  255MOL0     H33603   8.316   2.914   9.700  1.2958 -3.6670 -0.0897
  255MOL0     H33604   8.257   2.896   9.871  1.2625 -3.0460 -0.4336
  255MOL0     H33605   8.474   3.098   9.773 -0.7385 -0.2602 -1.6337
  255MOL0     H33606   8.413   3.063   9.937 -0.0052  0.3576 -0.2614
  255MOL0     H33607   8.200   3.129   9.855  0.5350 -2.2972 -0.0208
  255MOL0     H33608   8.264   3.155   9.683  0.2572  2.4296 -0.3595
  255MOL0     H33609   8.352   3.334   9.913  0.2665  3.6937 -1.9581
  255MOL0     H33610   8.380   3.337   9.748  2.7612 -2.2413  1.2321
  255MOL0     H33611   8.119   3.352   9.720 -1.3842 -0.6420  1.9396
  255MOL0     H33612   8.219   3.494   9.787  0.9691 -0.7127  0.7378
  255MOL0     H33613   8.195   3.508  10.080  1.0206 -0.6501  1.7050
  255MOL0     H33614   7.880   3.434  10.280  0.2756 -0.0605  1.8498
  255MOL0     H33615   7.975   3.579  10.240 -2.1928 -0.4977 -0.0991
  255MOL0     H33616   8.035   3.442  10.449 -1.2159 -1.1674 -0.7133
  255MOL0     H33617   8.156   3.514  10.347  0.1558  0.2484  0.8313
  255MOL0     H33618   8.212   3.302  10.242  1.3518  0.6089  1.1134
  255MOL0     H33619   8.227   3.285  10.417  1.4111  1.4905  0.3343
  255MOL0     H33620   8.110   3.085  10.316  1.6111  0.6640 -0.0212
  255MOL0     H33621   7.977   3.204  10.278  0.0226  0.5409  0.4429
  255MOL0     H33622   7.932   2.937  10.362  1.3797 -1.2582  1.8591
  255MOL0     H33623   7.756   2.796  10.440  3.9489 -1.3046  2.9960
  255MOL0     H33624   7.312   3.078  10.857  0.3923  0.5101 -1.3734
  255MOL0     H33625   7.081   3.013  10.940  1.5836 -0.7341  2.3173
  255MOL0     H33626   6.960   2.851  11.062 -0.7536 -1.8489  1.0357
  255MOL0     H33627   6.833   2.738  11.015  1.1677 -0.7296 -0.7551
  255MOL0     H33628   6.834   3.034  10.943  1.7555 -1.9736 -0.2374
  255MOL0     H33629   6.738   2.953  11.071 -0.2339 -0.7199  0.0738
  255MOL0     H33630   6.614   2.819  10.920  2.7521 -1.4660  1.3376
  255MOL0     H33631   6.676   2.910  10.775 -0.5979 -2.8721 -0.7511
  255MOL0     H33632   6.543   3.033  11.017  1.9896  1.3683  0.1429
  255MOL0     H33633   6.602   3.131  10.885 -0.5003  1.1043  1.5072
  255MOL0     H33634   6.354   2.972  10.866 -0.5900  1.6854  1.8923
  255MOL0     H33635   6.460   3.002  10.727  0.5513  0.7427  0.3665
  255MOL0     H33636   6.444   3.245  10.769 -0.1568 -0.1295 -0.2937
  255MOL0     H33637   6.340   3.210  10.912  0.7639  2.4685 -0.4973
  255MOL0     H33638   6.269   3.086  10.633  1.4971  1.0284  0.5180
  255MOL0     H33639   6.159   3.117  10.772  3.1535 -2.6286  3.0541
  255MOL0     H33640   6.160   3.366  10.714 -0.5293 -1.5027  2.3804
  255MOL0     H33641   6.116   3.273  10.577  0.9420  0.5125 -1.4321
  255MOL0     H33642   7.102   2.658  10.701 -0.0651  0.5245  0.4539
  255MOL0     H33643   7.323   2.695  10.637  0.8473  0.7968 -0.4804
  255MOL0     H33644   7.668   3.095  10.743  0.7326  0.2907  0.6763
  255MOL0     H33645   7.841   3.241  10.661 -1.8237  1.5108 -0.9839
  255MOL0     H33646   8.308   2.726   9.513  0.2976  2.0267  0.6368
  255MOL0     H33647   8.248   2.765   9.282  0.5152  2.0432 -0.7443
  255MOL0     H33648   8.492   2.765   8.831  0.5278  0.9185 -2.2438
  255MOL0     H33649   8.485   2.769   8.586 -0.0539 -0.9981 -1.2115
  255MOL0     H33650   8.440   2.774   8.323  0.7895 -0.0132  0.5298
  255MOL0     H33651   8.389   2.894   8.445 -1.2141 -1.2307  1.2996
  255MOL0     H33652   8.175   2.929   8.315  1.0689  0.1911  0.9432
  255MOL0     H33653   8.326   2.975   8.222 -1.2121  0.7909 -1.5712
  255MOL0     H33654   8.166   2.712   8.186  3.4432 -1.9291  0.5837
  255MOL0     H33655   8.288   2.756   8.100 -1.3808 -2.1985 -0.5432
  255MOL0     H33656   8.086   2.812   7.991  3.5654 -0.6051 -1.0890
  255MOL0     H33657   8.032   2.919   8.122  0.3156  2.1355 -1.6961
  255MOL0     H33658   8.311   3.153   7.897  1.5241 -0.7446 -0.3765
  255MOL0     H33659   8.070   2.660   8.591  0.4105  1.6395 -0.1560
  255MOL0     H33660   8.086   2.652   8.841 -0.7398  2.9684  1.1602
  256MOL0     O33661   0.797   4.840   4.450  0.0065 -0.1778 -0.4243
  256MOL0     C33662   0.686   4.861   4.413  0.4088 -0.5061 -0.2218
  256MOL0     O33663   0.654   4.892   4.278  0.0614  0.0662 -0.3217
  256MOL0     C33664   0.739   4.873   4.169 -0.0993  0.2368 -0.7249
  256MOL0     C33665   0.704   4.955   4.066  0.0905  0.7239 -0.1348
  256MOL0     C33666   0.777   4.964   3.945  0.0203 -0.0282 -0.3542
  256MOL0     C33667   0.889   4.882   3.933  0.3458 -0.1424 -0.6006
  256MOL0     O33668   0.966   4.893   3.820 -0.5640 -0.2831 -0.6724
  256MOL0     C33669   1.009   4.775   3.756 -0.0547 -0.9654  1.0091
  256MOL0     C33670   1.048   4.810   3.605 -0.4318  0.4325  0.0037
  256MOL0     C33671   0.925   4.848   3.530 -0.0541 -0.6791  0.2821
  256MOL0     C33672   0.842   4.719   3.502  0.1402  0.4618  0.9895
  256MOL0     C33673   0.709   4.751   3.441  0.2552 -0.7025  0.8540
  256MOL0     C33674   0.603   4.813   3.531 -0.0261 -0.0129  0.6566
  256MOL0     C33675   0.472   4.860   3.469  0.1516  0.7222  0.1730
  256MOL0     C33676   0.380   4.914   3.575 -0.2241 -0.0359 -0.2190
  256MOL0     N33677   0.256   4.969   3.513 -0.5816  0.2951 -0.4576
  256MOL0     C33678   0.240   5.058   3.408 -0.7310  0.6370 -0.3901
  256MOL0     C33679   0.105   5.066   3.401  0.6893 -0.6484 -0.4690
  256MOL0     C33680   0.025   5.153   3.308 -0.2298  0.1039 -0.4485
  256MOL0     C33681  -0.119   5.118   3.286  0.4569  0.1034 -0.9113
  256MOL0     C33682  -0.136   4.970   3.226  0.3166  0.5931  0.3019
  256MOL0     C33683  -0.260   4.961   3.143  0.0555 -0.1964  0.2095
  256MOL0     O33684  -0.365   5.002   3.225  0.1745  0.5544 -0.5224
  256MOL0     C33685  -0.492   4.992   3.174  0.5708 -0.1921  0.5866
  256MOL0     C33686  -0.521   4.975   3.036 -0.1195 -1.0380  0.1768
  256MOL0     C33687  -0.654   4.963   2.996 -0.4428 -0.5202  0.7173
  256MOL0     C33688  -0.764   4.963   3.088 -0.7378  0.0077 -1.0816
  256MOL0     C33689  -0.897   4.947   3.045 -0.3099 -0.8997 -0.0674
  256MOL0     O33690  -0.982   4.894   3.130 -0.5704 -0.6435  0.2801
  256MOL0     C33691  -1.115   4.873   3.086 -0.2823  0.0573 -0.4686
  256MOL0     C33692  -1.214   4.893   3.177  0.3278  0.5035  0.3424
  256MOL0     C33693  -1.349   4.863   3.144  0.8628  0.4910 -0.3997
  256MOL0     C33694  -1.389   4.828   3.020  0.7618 -0.1542 -0.4032
  256MOL0     O33695  -1.510   4.775   2.983  0.0795  0.3467  0.3099
  256MOL0     C33696  -1.621   4.797   3.072 -0.5003  0.1123  0.1238
  256MOL0     C33697  -1.737   4.713   3.021  0.2607 -0.2558  0.1157
  256MOL0     C33698  -1.863   4.718   3.109 -0.0812 -0.4917 -0.2438
  256MOL0     C33699  -1.970   4.638   3.045  0.3999 -0.0757  0.6108
  256MOL0     C33700  -2.103   4.639   3.113 -0.9175  0.4970 -0.0640
  256MOL0     C33701  -2.200   4.539   3.042 -0.2489 -0.7825  0.0002
  256MOL0     C33702  -2.330   4.510   3.126 -0.7583  0.0959 -0.0028
  256MOL0     C33703  -2.413   4.641   3.114 -0.2277 -0.4027  0.2266
  256MOL0    Cl33704  -2.563   4.594   3.185 -0.0292 -0.2254 -0.1491
  256MOL0     C33705  -1.291   4.813   2.923 -0.3312 -0.6891 -0.6541
  256MOL0     C33706  -1.155   4.828   2.960 -0.4626 -0.5858 -0.4742
  256MOL0     O33707  -0.923   4.985   2.936 -0.2476 -0.3420  0.2017
  256MOL0     C33708  -0.730   4.982   3.223 -0.2247 -0.1771 -0.0665
  256MOL0     C33709  -0.596   4.996   3.262 -0.2539 -0.0615  0.0308
  256MOL0     N33710   0.050   4.985   3.498  0.7559  0.0019  0.1229
  256MOL0     N33711   0.139   4.919   3.556  0.5572 -0.1379  0.9906
  256MOL0     C33712   0.921   4.795   4.037 -0.2380  0.8882 -0.6366
  256MOL0     C33713   0.859   4.800   4.158  0.8935 -0.5969 -1.0430
  256MOL0     C33714   0.567   4.856   4.502  0.7431 -0.1314 -0.8258
  256MOL0     C33715   0.586   4.838   4.640  0.1336  0.3169 -0.3928
  256MOL0     C33716   0.481   4.845   4.730  0.3991 -0.2666 -0.2562
  256MOL0     C33717   0.360   4.902   4.695 -0.1215 -0.1299  0.1803
  256MOL0     O33718   0.265   4.938   4.785  0.1192  0.9755  0.1233
  256MOL0     C33719   0.278   4.903   4.926 -0.7318  1.0984  0.0334
  256MOL0     C33720   0.144   4.923   4.993  0.1310 -0.1770 -0.2717
  256MOL0     C33721   0.159   4.949   5.143  0.4127  0.3878 -0.5535
  256MOL0     C33722   0.025   4.986   5.221  0.4885 -0.2285 -0.4770
  256MOL0     C33723   0.048   5.040   5.357  0.6867 -0.3867 -0.6655
  256MOL0     C33724   0.080   5.074   5.467  0.4817  0.0884 -0.2256
  256MOL0     C33725   0.336   4.917   4.555  0.3425  0.2449 -0.6383
  256MOL0     C33726   0.436   4.891   4.463 -0.1382 -0.9958 -0.0068
  256MOL0     H33727   0.608   5.007   4.069 -0.7428 -0.4684 -2.6864
  256MOL0     H33728   0.758   5.035   3.864  1.3728 -0.7810 -1.3832
  256MOL0     H33729   0.924   4.705   3.760 -0.4058 -0.6430 -0.3071
  256MOL0     H33730   1.100   4.738   3.805  0.4414  0.0698  0.8795
  256MOL0     H33731   1.102   4.723   3.567  0.9137  1.1228  0.3060
  256MOL0     H33732   1.113   4.895   3.623 -0.6433  0.4332  0.7942
  256MOL0     H33733   0.942   4.916   3.447 -1.3810 -0.2076  0.3749
  256MOL0     H33734   0.863   4.911   3.594  1.4455  1.6543 -0.4427
  256MOL0     H33735   0.893   4.662   3.424 -3.0834 -1.8371  0.3728
  256MOL0     H33736   0.832   4.659   3.594  0.7751  0.5073  1.0898
  256MOL0     H33737   0.674   4.655   3.403 -2.0629  0.3340  0.2000
  256MOL0     H33738   0.722   4.808   3.348 -1.2174 -3.3564 -1.1130
  256MOL0     H33739   0.655   4.902   3.567 -0.5987  0.5719  0.0732
  256MOL0     H33740   0.579   4.737   3.606 -1.7434  0.6651  0.8473
  256MOL0     H33741   0.493   4.943   3.402 -0.9684  1.4705  0.7250
  256MOL0     H33742   0.423   4.780   3.413 -1.9930  0.9276  1.6454
  256MOL0     H33743   0.422   5.002   3.625 -2.7288  3.1959 -3.3141
  256MOL0     H33744   0.350   4.830   3.638  0.0199 -0.2517 -0.3869
  256MOL0     H33745   0.308   5.112   3.343  1.8382 -0.4519  1.2062
  256MOL0     H33746   0.061   5.166   3.205 -2.5898  1.6831 -1.1766
  256MOL0     H33747   0.025   5.255   3.348  0.9836  0.0570 -0.3086
  256MOL0     H33748  -0.168   5.194   3.226 -0.6092 -0.4034 -0.7144
  256MOL0     H33749  -0.166   5.126   3.385 -0.8811  1.4936 -1.6215
  256MOL0     H33750  -0.044   4.943   3.173  0.6614  2.2747 -0.0173
  256MOL0     H33751  -0.151   4.905   3.313  0.7714  2.3800  1.7876
  256MOL0     H33752  -0.278   4.868   3.088 -0.8570 -0.2232  0.5358
  256MOL0     H33753  -0.251   5.039   3.066 -0.7008 -0.5308 -0.2309
  256MOL0     H33754  -0.449   4.981   2.956 -2.0387  0.5875 -1.5579
  256MOL0     H33755  -0.674   4.956   2.889 -0.7841  1.1752  0.6357
  256MOL0     H33756  -1.196   4.930   3.278 -1.5394  0.5668  0.6849
  256MOL0     H33757  -1.392   4.856   3.243 -0.0596 -2.8270 -0.9187
  256MOL0     H33758  -1.655   4.901   3.058 -0.1034  0.3413  0.8477
  256MOL0     H33759  -1.602   4.784   3.178 -3.2636 -0.3369  0.6604
  256MOL0     H33760  -1.686   4.617   3.011  1.0339  0.2157 -0.6459
  256MOL0     H33761  -1.762   4.747   2.920 -0.3141 -0.4948  0.1768
  256MOL0     H33762  -1.899   4.821   3.124  3.2492  0.9364 -1.1497
  256MOL0     H33763  -1.846   4.669   3.205  0.3019 -2.1795 -1.1429
  256MOL0     H33764  -1.977   4.689   2.949 -1.3007  1.9027  1.7050
  256MOL0     H33765  -1.932   4.536   3.034 -1.4480 -1.2896  3.9087
  256MOL0     H33766  -2.143   4.740   3.098  0.1122  1.3066  2.2251
  256MOL0     H33767  -2.093   4.608   3.217 -0.7884 -4.8896 -1.3822
  256MOL0     H33768  -2.148   4.445   3.022  0.4837 -0.1873 -1.0113
  256MOL0     H33769  -2.236   4.582   2.948 -1.9541  0.1842  1.0476
  256MOL0     H33770  -2.375   4.420   3.083 -0.8802 -0.7922  1.9090
  256MOL0     H33771  -2.310   4.483   3.230 -0.6519  0.7275  0.1459
  256MOL0     H33772  -2.436   4.665   3.010  0.4138 -0.2831  0.1097
  256MOL0     H33773  -2.374   4.726   3.171 -0.0022  0.5643 -1.3017
  256MOL0     H33774  -1.312   4.789   2.819 -0.6086 -2.0978 -0.2892
  256MOL0     H33775  -1.092   4.815   2.872  1.0612  0.1809  0.4481
  256MOL0     H33776  -0.810   4.968   3.295 -0.8275 -0.8046 -0.8441
  256MOL0     H33777  -0.590   5.007   3.370 -1.8338 -0.4189  0.1894
  256MOL0     H33778   1.012   4.738   4.020 -0.0483  1.9105 -3.6386
  256MOL0     H33779   0.892   4.730   4.234 -0.8099  0.4993  0.8015
  256MOL0     H33780   0.685   4.825   4.683 -0.0182  0.3006 -0.0458
  256MOL0     H33781   0.495   4.812   4.832 -0.3384  0.9869  0.2679
  256MOL0     H33782   0.354   4.962   4.977 -1.0772  0.2931  1.5154
  256MOL0     H33783   0.297   4.797   4.944 -2.4000  0.4371 -1.7073
  256MOL0     H33784   0.104   5.013   4.945  0.1481  0.1361  0.2989
  256MOL0     H33785   0.083   4.834   4.974  2.7979 -1.5744 -2.9988
  256MOL0     H33786   0.235   5.027   5.147 -0.8717  1.6655 -0.0617
  256MOL0     H33787   0.191   4.863   5.203 -0.1291  2.1835  2.5216
  256MOL0     H33788  -0.018   5.074   5.172  0.0367 -0.4713 -0.5174
  256MOL0     H33789  -0.030   4.892   5.233  2.2132 -0.9351  3.1999
  256MOL0     H33790   0.108   5.112   5.563 -0.3945 -1.5989  0.7485
  256MOL0     H33791   0.240   4.962   4.533 -1.3989 -1.1604  3.1787
  256MOL0     H33792   0.411   4.893   4.357 -1.2215 -1.2698  0.2343
  257MOL0     O33793  10.786   2.295   9.279  0.3433  0.1140  0.0341
  257MOL0     C33794  10.691   2.367   9.306 -0.3875  0.3243 -0.9412
  257MOL0     O33795  10.693   2.502   9.308  0.6114 -1.2245  0.1975
  257MOL0     C33796  10.759   2.575   9.208 -0.1526 -0.4730  0.2430
  257MOL0     C33797  10.826   2.527   9.098 -0.4762 -0.1409 -0.7934
  257MOL0     C33798  10.889   2.607   9.004  0.3092  0.0235  0.0369
  257MOL0     C33799  10.864   2.742   9.001  0.6538  0.4222 -0.0889
  257MOL0     O33800  10.921   2.797   8.894 -0.6273 -0.5468 -0.2385
  257MOL0     C33801  10.858   2.919   8.859 -0.0067  0.0059  0.0884
  257MOL0     C33802  10.883   2.923   8.706 -0.1188  0.1014 -0.3248
  257MOL0     C33803  10.789   2.819   8.641 -0.7570  0.1147  0.4944
  257MOL0     C33804  10.808   2.831   8.493 -0.9284 -0.4442 -0.1227
  257MOL0     C33805  10.706   2.762   8.402 -0.8939 -0.0424  0.4153
  257MOL0     C33806  10.751   2.791   8.260 -0.4572 -0.2876 -0.1842
  257MOL0     C33807  10.630   2.756   8.170 -0.3802  0.9797  0.0825
  257MOL0     C33808  10.535   2.866   8.152  0.5789 -0.1086 -0.4201
  257MOL0     N33809  10.424   2.822   8.064 -0.6362  0.8201  0.0947
  257MOL0     C33810  10.432   2.821   7.921 -0.3631 -0.3406  0.0018
  257MOL0     C33811  10.335   2.739   7.884 -0.7359  0.3357  0.2463
  257MOL0     C33812  10.329   2.669   7.756  0.2547  0.7489 -0.1848
  257MOL0     C33813  10.345   2.768   7.647  0.2410 -0.3896 -0.7553
  257MOL0     C33814  10.319   2.712   7.511  0.9456 -0.1225 -0.4455
  257MOL0     C33815  10.169   2.713   7.471  0.4693 -0.1323  0.4708
  257MOL0     O33816  10.099   2.602   7.530  0.0547  0.3222  0.1627
  257MOL0     C33817   9.969   2.587   7.493  0.4570 -0.1263  0.3666
  257MOL0     C33818   9.948   2.471   7.416  0.5529  0.2281  0.3977
  257MOL0     C33819   9.818   2.453   7.374 -0.0165 -0.4350  0.4760
  257MOL0     C33820   9.707   2.532   7.408  0.4582  0.3086 -0.2814
  257MOL0     C33821   9.573   2.480   7.379  0.2758 -0.5977  1.0497
  257MOL0     O33822   9.464   2.554   7.429 -0.3450 -0.1956 -0.5972
  257MOL0     C33823   9.340   2.506   7.410 -0.1572 -0.3272 -0.2756
  257MOL0     C33824   9.282   2.448   7.285  0.7301 -0.5668  0.3347
  257MOL0     C33825   9.153   2.409   7.274  1.0396 -0.3171  0.0876
  257MOL0     C33826   9.064   2.431   7.382  0.0565  0.7164  0.2808
  257MOL0     O33827   8.927   2.399   7.395  0.3079  0.6200  0.9862
  257MOL0     C33828   8.861   2.351   7.274  0.1508 -0.0787 -0.2247
  257MOL0     C33829   8.716   2.315   7.292 -0.4914 -0.1338 -0.0302
  257MOL0     C33830   8.643   2.409   7.385 -0.5897 -0.6927 -0.1245
  257MOL0     C33831   8.495   2.366   7.399  0.8884 -0.5819 -0.3577
  257MOL0     C33832   8.406   2.390   7.263  0.4947 -0.7874 -0.9888
  257MOL0     C33833   8.270   2.332   7.297 -0.4005  0.0288 -0.2786
  257MOL0     C33834   8.178   2.347   7.174  0.2101  0.1338 -0.9043
  257MOL0     C33835   8.036   2.302   7.211  0.6795  0.5154  0.3283
  257MOL0    Cl33836   7.928   2.268   7.075  0.4463  0.2460  0.1887
  257MOL0     C33837   9.119   2.487   7.497  0.0012 -0.3536 -0.7061
  257MOL0     C33838   9.257   2.522   7.517  0.7690 -0.5707  0.2650
  257MOL0     O33839   9.572   2.373   7.321  0.5016  0.2446  0.1558
  257MOL0     C33840   9.728   2.646   7.491 -0.0750 -0.1160  0.4622
  257MOL0     C33841   9.864   2.675   7.531  0.2682  0.2334 -0.0701
  257MOL0     N33842  10.275   2.689   7.997  0.0518 -0.2541 -0.2365
  257MOL0     N33843  10.323   2.732   8.101  0.0766 -0.6018 -0.1462
  257MOL0     C33844  10.790   2.803   9.105 -0.2668  1.1028  0.7747
  257MOL0     C33845  10.744   2.719   9.208  0.0607  0.5429 -0.1734
  257MOL0     C33846  10.569   2.304   9.352 -0.1391  0.2871 -0.9423
  257MOL0     C33847  10.457   2.373   9.387  0.3700 -0.0980 -0.6159
  257MOL0     C33848  10.336   2.303   9.425  0.4320 -0.0535 -0.6778
  257MOL0     C33849  10.337   2.167   9.426 -0.2173 -0.4411  0.5792
  257MOL0     O33850  10.216   2.104   9.439 -0.1887  0.5762  0.8424
  257MOL0     C33851  10.192   1.976   9.390  0.4437  0.0810  0.3495
  257MOL0     C33852  10.060   1.987   9.304  0.5943  0.7038 -0.1995
  257MOL0     C33853   9.934   2.011   9.388  0.4829  0.2752 -0.0872
  257MOL0     C33854   9.859   1.880   9.417 -0.3648  0.0176 -0.2404
  257MOL0     C33855   9.768   1.864   9.305 -1.0292 -0.7932  0.0057
  257MOL0     C33856   9.687   1.834   9.216 -0.6199  0.1582 -0.6281
  257MOL0     C33857  10.459   2.096   9.411 -0.0656  0.1606  0.6796
  257MOL0     C33858  10.573   2.167   9.377 -0.5261 -0.1367 -0.3674
  257MOL0     H33859  10.845   2.420   9.096 -0.7007 -0.1918 -0.3711
  257MOL0     H33860  10.960   2.570   8.930  0.2170  1.2835 -0.7238
  257MOL0     H33861  10.912   3.003   8.905  0.6728  0.4131 -1.3685
  257MOL0     H33862  10.751   2.919   8.879 -0.2668 -1.5355 -1.1181
  257MOL0     H33863  10.982   2.890   8.674 -1.2126 -1.5739 -2.2062
  257MOL0     H33864  10.855   3.024   8.674 -3.8797 -1.1235 -1.3619
  257MOL0     H33865  10.686   2.847   8.665  0.4150  2.9058  3.0063
  257MOL0     H33866  10.809   2.717   8.673  1.2853 -0.9696 -3.6081
  257MOL0     H33867  10.810   2.938   8.469 -0.0572 -0.4755 -0.2167
  257MOL0     H33868  10.902   2.785   8.463 -1.1543 -0.6117 -0.5811
  257MOL0     H33869  10.605   2.790   8.433 -0.6756  2.8438 -1.1364
  257MOL0     H33870  10.726   2.656   8.417  0.1386  0.2599  1.3423
  257MOL0     H33871  10.835   2.725   8.240 -0.3826  0.4137 -2.4133
  257MOL0     H33872  10.789   2.893   8.251 -0.7982 -0.1973 -0.6313
  257MOL0     H33873  10.675   2.732   8.073  1.2331  1.2503  0.7336
  257MOL0     H33874  10.576   2.669   8.208  1.4393 -0.9418 -1.5007
  257MOL0     H33875  10.586   2.954   8.113  0.5874 -0.4112 -1.1130
  257MOL0     H33876  10.492   2.895   8.248 -2.5855 -1.0670 -1.3924
  257MOL0     H33877  10.505   2.871   7.859  0.9159  0.1134  1.7966
  257MOL0     H33878  10.235   2.622   7.728  1.0298  0.3756 -2.3650
  257MOL0     H33879  10.410   2.595   7.758 -1.4448 -1.3699 -2.7827
  257MOL0     H33880  10.449   2.801   7.654 -0.0322  0.6695 -1.4811
  257MOL0     H33881  10.278   2.854   7.657 -0.0403 -0.8595  3.8355
  257MOL0     H33882  10.382   2.771   7.444 -0.2031  0.4056 -1.0839
  257MOL0     H33883  10.351   2.607   7.506  0.9815 -0.1386  0.1162
  257MOL0     H33884  10.171   2.712   7.361  2.9446 -1.1745  0.4470
  257MOL0     H33885  10.124   2.808   7.500 -2.9532 -1.9035  1.4161
  257MOL0     H33886  10.031   2.420   7.369  0.4320 -2.4407  2.7793
  257MOL0     H33887   9.794   2.366   7.313 -1.3569  0.8129 -0.8522
  257MOL0     H33888   9.345   2.431   7.199  2.3118  0.3790  1.2547
  257MOL0     H33889   9.126   2.372   7.175  0.1459  0.2934  0.0875
  257MOL0     H33890   8.911   2.262   7.234 -1.0137 -0.9655  0.2410
  257MOL0     H33891   8.867   2.427   7.196 -2.2685 -0.6209 -1.0183
  257MOL0     H33892   8.705   2.213   7.331 -0.6794  0.5471  1.7926
  257MOL0     H33893   8.684   2.319   7.188 -1.0853 -2.1443  0.0262
  257MOL0     H33894   8.659   2.507   7.338 -2.4587 -0.4223 -0.3118
  257MOL0     H33895   8.682   2.411   7.486  2.1828 -1.0577 -1.1161
  257MOL0     H33896   8.481   2.266   7.441  2.3866 -1.3013 -1.4872
  257MOL0     H33897   8.452   2.440   7.467  0.2866 -0.0530 -1.2987
  257MOL0     H33898   8.463   2.343   7.182  0.4463 -2.8421  0.0997
  257MOL0     H33899   8.398   2.499   7.252  0.2698 -0.6579  0.2584
  257MOL0     H33900   8.225   2.395   7.375 -3.9967 -2.9927  0.4304
  257MOL0     H33901   8.272   2.229   7.335 -1.4693  0.1781  0.2395
  257MOL0     H33902   8.173   2.446   7.128  2.5490 -0.0830 -1.7535
  257MOL0     H33903   8.218   2.283   7.094  4.1946  3.0646 -1.5453
  257MOL0     H33904   7.996   2.376   7.281  2.2487  0.1522  1.7054
  257MOL0     H33905   8.036   2.210   7.270 -2.9289  0.3859  0.3336
  257MOL0     H33906   9.046   2.509   7.573  1.4421  0.3207  0.5372
  257MOL0     H33907   9.291   2.563   7.612 -0.1742 -2.4898  1.4869
  257MOL0     H33908   9.644   2.704   7.529  0.4352  0.5222  0.6366
  257MOL0     H33909   9.896   2.756   7.596  2.1459  0.7105 -1.4756
  257MOL0     H33910  10.779   2.911   9.093  0.6153  1.3310  1.9316
  257MOL0     H33911  10.690   2.767   9.289 -0.6320 -3.5744  2.0829
  257MOL0     H33912  10.458   2.481   9.402  1.6786 -0.4219  2.3102
  257MOL0     H33913  10.252   2.363   9.458 -0.2635 -0.4919 -1.5981
  257MOL0     H33914  10.170   1.904   9.470 -1.5608 -0.4477 -0.6073
  257MOL0     H33915  10.267   1.935   9.323 -0.6920 -1.8042  0.1626
  257MOL0     H33916  10.061   2.070   9.232 -0.7803 -2.0765 -3.7079
  257MOL0     H33917  10.041   1.895   9.248 -3.2287  0.1012  1.7649
  257MOL0     H33918   9.873   2.082   9.331  3.6229  1.5122 -2.1467
  257MOL0     H33919   9.969   2.067   9.475  1.0883  1.1068 -0.8589
  257MOL0     H33920   9.931   1.798   9.410  0.2416  0.5666 -0.5065
  257MOL0     H33921   9.815   1.905   9.514  3.8205  1.1097  1.5924
  257MOL0     H33922   9.625   1.805   9.134  0.9168 -0.9689 -1.4557
  257MOL0     H33923  10.456   1.989   9.432  0.4612  0.3294  1.7246
  257MOL0     H33924  10.663   2.107   9.369 -1.4089 -1.2308 -2.7391
  258MOL0     O33925  10.298   2.367  10.505 -0.2894  0.1279 -0.1835
  258MOL0     C33926  10.256   2.436  10.414  0.0416 -0.0139  0.3268
  258MOL0     O33927  10.330   2.516  10.322 -0.5383  0.1898  0.4437
  258MOL0     C33928  10.466   2.524  10.343  0.1130  0.8086  0.7204
  258MOL0     C33929  10.528   2.522  10.467 -0.3771 -0.2022  0.2495
  258MOL0     C33930  10.671   2.533  10.469  0.3891  0.0328 -0.1213
  258MOL0     C33931  10.750   2.532  10.355 -0.4822  0.2160 -0.5702
  258MOL0     O33932  10.889   2.543  10.357 -0.8270 -0.3595  0.1499
  258MOL0     C33933  10.975   2.504  10.251 -0.0561 -0.0006 -0.2161
  258MOL0     C33934  11.121   2.508  10.303 -0.2281  0.0434  0.5544
  258MOL0     C33935  11.158   2.407  10.409 -0.0097  0.4983 -0.0232
  258MOL0     C33936  11.309   2.370  10.416  0.0840 -0.6990 -0.0561
  258MOL0     C33937  11.335   2.251  10.506 -0.6024 -0.0531 -0.1380
  258MOL0     C33938  11.297   2.281  10.652  0.1711 -0.2119 -0.5731
  258MOL0     C33939  11.378   2.195  10.751  0.2878  0.3837  0.3148
  258MOL0     C33940  11.370   2.039  10.740 -0.3047  0.1513 -0.0455
  258MOL0     N33941  11.245   1.997  10.713 -0.6997  0.0348  0.6970
  258MOL0     C33942  11.207   1.951  10.589  1.1482  0.2515  0.5964
  258MOL0     C33943  11.078   1.922  10.603  0.1305 -0.6225 -0.1868
  258MOL0     C33944  10.974   1.865  10.504  0.2031 -0.3275  0.4914
  258MOL0     C33945  10.942   1.971  10.400  0.9503  0.9492  0.2905
  258MOL0     C33946  11.018   1.964  10.272 -1.1353  0.2748 -0.1814
  258MOL0     C33947  10.983   2.075  10.181 -0.0325 -0.6354  1.4174
  258MOL0     O33948  10.885   2.045  10.079 -0.2122  0.6133 -0.3596
  258MOL0     C33949  10.755   2.059  10.118  0.3252 -0.5164  0.6875
  258MOL0     C33950  10.671   1.959  10.082 -0.3022 -0.4947  0.7855
  258MOL0     C33951  10.533   1.960  10.118 -0.2647 -0.0916 -0.1933
  258MOL0     C33952  10.482   2.066  10.194 -0.3956 -0.1165  0.2966
  258MOL0     C33953  10.337   2.080  10.237  0.2330  1.0283 -0.0564
  258MOL0     O33954  10.274   1.958  10.284 -0.2240  0.2748  0.3647
  258MOL0     C33955  10.142   1.958  10.320 -0.1403 -0.6182  0.3701
  258MOL0     C33956  10.036   2.007  10.244 -0.0079 -0.0983  0.6168
  258MOL0     C33957   9.901   1.994  10.299 -0.8077 -0.6760  0.4021
  258MOL0     C33958   9.875   1.931  10.421 -1.0526  0.7117  0.8006
  258MOL0     O33959   9.744   1.910  10.460  0.1280 -0.3320 -0.2171
  258MOL0     C33960   9.730   1.884  10.603 -0.1407 -0.0629  1.1584
  258MOL0     C33961   9.598   1.941  10.645  0.3462  0.7686  0.2568
  258MOL0     C33962   9.555   1.904  10.782 -0.0889 -1.3896 -0.3899
  258MOL0     C33963   9.427   1.970  10.830 -0.5665  1.3944 -1.7829
  258MOL0     C33964   9.307   1.939  10.735  0.0636 -0.1238 -0.2322
  258MOL0     C33965   9.185   2.005  10.791 -0.9323  0.1531  0.1748
  258MOL0     C33966   9.071   1.997  10.686 -0.3346  0.3866  1.5016
  258MOL0     C33967   8.958   2.081  10.741  0.2038  0.3131  0.0833
  258MOL0    Cl33968   8.800   2.036  10.651  0.3180  0.1431  0.3116
  258MOL0     C33969   9.991   1.900  10.502 -0.3224 -0.5530 -0.9053
  258MOL0     C33970  10.117   1.902  10.441  0.2079 -0.0751  0.5975
  258MOL0     O33971  10.284   2.189  10.240  0.3933  0.5975 -0.7437
  258MOL0     C33972  10.572   2.167  10.230  0.5724  0.2131  0.4503
  258MOL0     C33973  10.701   2.169  10.187 -0.4348 -0.3142 -1.0567
  258MOL0     N33974  11.047   1.945  10.736  0.1217  0.5577 -0.2966
  258MOL0     N33975  11.143   1.995  10.801  0.2725  0.0133 -0.5015
  258MOL0     C33976  10.680   2.538  10.234  0.2419 -0.0443 -0.1424
  258MOL0     C33977  10.544   2.538  10.231 -0.1074 -0.7823  0.0732
  258MOL0     C33978  10.110   2.426  10.384  0.1557  0.9324 -1.0116
  258MOL0     C33979  10.046   2.540  10.329 -1.0218  0.3397 -0.4288
  258MOL0     C33980   9.913   2.533  10.302  0.5307 -0.1776 -0.3793
  258MOL0     C33981   9.839   2.420  10.351 -0.2925 -0.0776 -0.7494
  258MOL0     O33982   9.703   2.423  10.329 -0.1324  0.1599 -0.0578
  258MOL0     C33983   9.631   2.298  10.315  0.5240  0.0196  0.2019
  258MOL0     C33984   9.578   2.262  10.454  0.6858 -0.2574  0.1686
  258MOL0     C33985   9.470   2.362  10.502 -0.2098 -0.6005  0.1062
  258MOL0     C33986   9.414   2.316  10.637  0.0259 -0.4319  0.7604
  258MOL0     C33987   9.347   2.427  10.698 -0.2037 -1.2185 -0.0956
  258MOL0     C33988   9.300   2.520  10.754 -0.4653 -0.3573  0.6571
  258MOL0     C33989   9.906   2.315  10.417  0.0611  0.0060  0.0131
  258MOL0     C33990  10.041   2.311  10.432  0.1357 -0.0448  0.0507
  258MOL0     H33991  10.488   2.531  10.568 -1.3521  1.0961 -0.2289
  258MOL0     H33992  10.733   2.540  10.558  0.0793 -1.9015  0.2991
  258MOL0     H33993  10.962   2.578  10.171  1.0094  0.6497  0.1885
  258MOL0     H33994  10.950   2.404  10.214 -0.0231  0.9036 -2.9236
  258MOL0     H33995  11.138   2.613  10.330 -0.8183  0.4463 -0.5841
  258MOL0     H33996  11.181   2.488  10.213 -3.0697 -2.1578 -1.0057
  258MOL0     H33997  11.102   2.315  10.388 -0.3507  0.9476 -1.1705
  258MOL0     H33998  11.119   2.437  10.506 -1.7554 -1.9393  0.1338
  258MOL0     H33999  11.340   2.359  10.312  0.4485  2.0208 -0.2987
  258MOL0     H34000  11.357   2.458  10.460 -1.6857 -0.7285  2.1286
  258MOL0     H34001  11.442   2.229  10.500 -0.1316  1.5898  1.5342
  258MOL0     H34002  11.277   2.167  10.467 -1.8057 -0.1418  1.7290
  258MOL0     H34003  11.191   2.267  10.671  0.3623 -1.6944 -0.4224
  258MOL0     H34004  11.332   2.379  10.684 -1.1563 -0.7925  3.0767
  258MOL0     H34005  11.485   2.214  10.739  0.5688 -0.6439  0.9888
  258MOL0     H34006  11.359   2.234  10.851  0.5564 -1.0531  0.9546
  258MOL0     H34007  11.408   2.004  10.837  1.4142  0.7197 -0.4617
  258MOL0     H34008  11.436   1.999  10.662  2.0833 -0.2191  2.0342
  258MOL0     H34009  11.255   1.957  10.492 -2.7794  3.7905 -1.4624
  258MOL0     H34010  10.891   1.840  10.570  0.3906 -0.1584  0.7905
  258MOL0     H34011  11.009   1.773  10.456 -2.8402 -0.1433 -2.5031
  258MOL0     H34012  10.946   2.069  10.450  2.9520  0.5475  0.9998
  258MOL0     H34013  10.837   1.952  10.376  0.8969 -1.3612  1.9827
  258MOL0     H34014  11.125   1.967  10.291 -0.6257 -3.6355 -1.5344
  258MOL0     H34015  11.000   1.874  10.211 -0.5656  0.2847 -0.3671
  258MOL0     H34016  11.076   2.106  10.132 -0.4078 -0.0299  1.0795
  258MOL0     H34017  10.947   2.159  10.240  2.2435  0.8408  0.8557
  258MOL0     H34018  10.711   1.866  10.043 -1.4778 -0.7988  0.2832
  258MOL0     H34019  10.466   1.877  10.101 -0.0240 -0.6328  1.2990
  258MOL0     H34020  10.060   2.043  10.144 -0.5249 -2.0523 -0.2611
  258MOL0     H34021   9.815   2.024  10.239  0.8315 -0.3692 -1.9344
  258MOL0     H34022   9.810   1.933  10.660  0.8190 -1.4247  1.0420
  258MOL0     H34023   9.747   1.776  10.613 -0.7903 -0.5226 -1.8679
  258MOL0     H34024   9.519   1.899  10.582 -0.4480  1.5315  0.7129
  258MOL0     H34025   9.595   2.051  10.640 -0.2010  0.7396 -0.2310
  258MOL0     H34026   9.641   1.931  10.844  0.9179 -1.1418 -1.8490
  258MOL0     H34027   9.545   1.795  10.788 -0.5301 -1.2589  3.0370
  258MOL0     H34028   9.403   1.946  10.934  2.7596  2.0140 -0.7285
  258MOL0     H34029   9.436   2.079  10.829  0.9900  1.3765  0.7856
  258MOL0     H34030   9.288   1.832  10.735 -2.0234  0.1752  1.3602
  258MOL0     H34031   9.318   1.987  10.637  0.8319  2.0976  0.8711
  258MOL0     H34032   9.207   2.107  10.821  0.5048 -0.1609  0.2822
  258MOL0     H34033   9.155   1.949  10.880 -0.2683 -1.3637 -0.4989
  258MOL0     H34034   9.103   2.038  10.589 -2.2736 -0.2979  0.5226
  258MOL0     H34035   9.029   1.897  10.673  1.0047 -0.5220  3.6738
  258MOL0     H34036   8.977   2.188  10.733 -0.1865  0.3737 -0.0476
  258MOL0     H34037   8.954   2.048  10.845 -0.6166  1.8964  0.5897
  258MOL0     H34038   9.990   1.858  10.602  0.0716 -0.4885 -0.8714
  258MOL0     H34039  10.198   1.852  10.493  0.2177 -1.1928 -0.4538
  258MOL0     H34040  10.542   2.253  10.289  1.8242 -0.1422  1.6613
  258MOL0     H34041  10.764   2.255  10.209 -0.8985 -0.4881  1.3188
  258MOL0     H34042  10.746   2.549  10.148  4.9285  1.1093  3.1496
  258MOL0     H34043  10.500   2.560  10.135  1.2088 -0.5197 -0.4878
  258MOL0     H34044  10.096   2.630  10.294 -1.7012  0.3117 -1.5219
  258MOL0     H34045   9.862   2.615  10.253  0.2884 -0.2929 -0.3242
  258MOL0     H34046   9.700   2.216  10.291  2.6221  0.7205  3.1924
  258MOL0     H34047   9.549   2.303  10.243  2.7652  0.1010 -2.4973
  258MOL0     H34048   9.522   2.168  10.443 -0.8248  0.1790  3.1707
  258MOL0     H34049   9.653   2.247  10.532  0.9368  0.3293  0.0456
  258MOL0     H34050   9.403   2.379  10.417  1.1258  1.4078 -0.6168
  258MOL0     H34051   9.520   2.459  10.508  0.6304 -1.0395  0.4574
  258MOL0     H34052   9.345   2.232  10.622  1.5664 -1.7369  0.6421
  258MOL0     H34053   9.493   2.283  10.705 -1.5817 -0.9353  2.4807
  258MOL0     H34054   9.258   2.604  10.806  2.8993  0.8425  1.6879
  258MOL0     H34055   9.847   2.228  10.442  0.3050 -1.2979 -3.3808
  258MOL0     H34056  10.098   2.224  10.463  0.1778 -1.0406 -2.5997
  259MOL0     O34057   2.689   4.759   9.596 -0.2410  0.3279 -0.3980
  259MOL0     C34058   2.687   4.852   9.674 -0.6152 -0.7327 -0.2142
  259MOL0     O34059   2.662   4.839   9.809  0.8789 -0.2627  0.4033
  259MOL0     C34060   2.612   4.720   9.869  0.1354 -0.1294  0.0916
  259MOL0     C34061   2.512   4.741   9.962 -0.0983  0.3580  0.3048
  259MOL0     C34062   2.459   4.629  10.031 -0.7930 -0.4671 -0.7953
  259MOL0     C34063   2.513   4.493  10.019  0.7331 -0.3517  0.2886
  259MOL0     O34064   2.466   4.380  10.076 -0.4339  0.0192  0.0911
  259MOL0     C34065   2.339   4.377  10.139  0.5432 -0.3103  0.6308
  259MOL0     C34066   2.336   4.429  10.275  0.4331  0.5220 -0.0756
  259MOL0     C34067   2.424   4.341  10.357 -0.0549  0.2954 -0.3758
  259MOL0     C34068   2.381   4.326  10.506 -0.6870 -0.5625 -0.1055
  259MOL0     C34069   2.501   4.286  10.585  0.7059 -0.5673  1.2971
  259MOL0     C34070   2.454   4.206  10.711 -0.4450  0.1496 -0.3228
  259MOL0     C34071   2.353   4.295  10.797 -1.1013  0.2139  0.1718
  259MOL0     C34072   2.351   4.241  10.942 -0.7108  0.1209  0.5258
  259MOL0     N34073   2.222   4.245  10.990  0.2401 -0.3812 -0.3655
  259MOL0     C34074   2.121   4.150  10.967 -0.0255  0.4223  0.1025
  259MOL0     C34075   2.018   4.193  11.044  0.5610 -0.2865 -0.2389
  259MOL0     C34076   1.883   4.133  11.055  0.0512 -0.4689 -0.1481
  259MOL0     C34077   1.793   4.220  11.143 -0.3945  0.5345  0.6883
  259MOL0     C34078   1.669   4.151  11.182  0.2760  0.2206  0.7735
  259MOL0     C34079   1.609   4.187  11.314  0.2504 -0.0165 -0.5362
  259MOL0     O34080   1.496   4.097  11.337 -0.0928  0.2718  0.0262
  259MOL0     C34081   1.427   4.103  11.457 -0.1630  0.2165 -0.4219
  259MOL0     C34082   1.318   4.019  11.474  0.5228 -0.4249  0.8060
  259MOL0     C34083   1.234   4.032  11.583 -0.2089  0.7965 -0.1645
  259MOL0     C34084   1.264   4.122  11.688 -0.1773  0.1937  0.4949
  259MOL0     C34085   1.159   4.155  11.786 -0.5870 -0.0546 -0.1206
  259MOL0     O34086   1.037   4.090  11.779 -0.8155  0.3985  0.1841
  259MOL0     C34087   0.930   4.128  11.873 -0.6390  0.2039  0.9526
  259MOL0     C34088   0.868   4.251  11.874 -0.7864  0.4415 -0.0761
  259MOL0     C34089   0.758   4.271  11.958 -0.6580  0.4514 -0.2444
  259MOL0     C34090   0.716   4.176  12.059 -0.0041 -0.4071  0.2169
  259MOL0     O34091   0.606   4.191  12.142 -0.3233  0.2039 -0.3014
  259MOL0     C34092   0.500   4.266  12.087 -0.0688  0.1085  0.6382
  259MOL0     C34093   0.371   4.216  12.132  0.0240 -0.1083  0.0181
  259MOL0     C34094   0.249   4.300  12.091  0.1135  0.2009  0.5961
  259MOL0     C34095   0.148   4.283  12.204 -0.0143  0.0837  0.2419
  259MOL0     C34096   0.012   4.331  12.161 -0.5255 -0.6514 -0.2034
  259MOL0     C34097  -0.062   4.257  12.051 -0.4466  0.3531 -0.1054
  259MOL0     C34098  -0.201   4.321  12.025  0.2988  0.2188  0.3609
  259MOL0     C34099  -0.263   4.216  11.939 -0.3224 -0.5699  0.1041
  259MOL0    Cl34100  -0.405   4.290  11.854  0.3045 -0.3145 -0.1704
  259MOL0     C34101   0.786   4.052  12.061 -0.3934  0.1177 -0.5320
  259MOL0     C34102   0.886   4.031  11.967  0.3053 -0.2355  0.3445
  259MOL0     O34103   1.189   4.248  11.866 -0.5778  0.1750  0.2890
  259MOL0     C34104   1.377   4.200  11.674  0.0437 -0.6174  0.1811
  259MOL0     C34105   1.471   4.185  11.565  0.6837 -0.5836  0.3054
  259MOL0     N34106   2.052   4.314  11.102 -0.8164 -0.3502 -0.0142
  259MOL0     N34107   2.174   4.352  11.061 -0.1013 -0.9230 -0.7304
  259MOL0     C34108   2.618   4.482   9.926  0.8013  0.1908 -0.9118
  259MOL0     C34109   2.655   4.588   9.848  0.4513  0.7050  0.2564
  259MOL0     C34110   2.740   4.984   9.618 -0.1479  0.6104  0.3179
  259MOL0     C34111   2.758   5.094   9.701  0.5157 -0.4981  0.3630
  259MOL0     C34112   2.768   5.216   9.649 -0.0525 -0.3452  0.5901
  259MOL0     C34113   2.792   5.227   9.516  0.8044 -0.7220  0.5218
  259MOL0     O34114   2.827   5.358   9.479  0.7342 -0.3567  0.4851
  259MOL0     C34115   2.868   5.380   9.344 -0.0146 -0.5397 -0.4204
  259MOL0     C34116   2.930   5.516   9.356 -0.3023  0.4285 -0.4899
  259MOL0     C34117   3.017   5.556   9.233 -0.2693 -0.5314  0.6368
  259MOL0     C34118   3.061   5.704   9.246 -0.2573  0.0754 -0.4649
  259MOL0     C34119   3.120   5.733   9.369  0.5645 -0.4459  1.4836
  259MOL0     C34120   3.161   5.791   9.457  0.0643 -0.4691 -0.4578
  259MOL0     C34121   2.776   5.125   9.428 -1.0081 -0.4312  0.1202
  259MOL0     C34122   2.738   5.004   9.478  0.8694  0.0077 -0.8865
  259MOL0     H34123   2.472   4.842   9.968 -3.1454 -0.8187  1.4784
  259MOL0     H34124   2.369   4.658  10.085 -2.0482 -2.1489 -1.8782
  259MOL0     H34125   2.296   4.277  10.133 -2.2392  0.8299 -4.2652
  259MOL0     H34126   2.275   4.447  10.085  1.7450  1.5832  1.5481
  259MOL0     H34127   2.229   4.425  10.299 -0.0647 -1.6737 -2.2965
  259MOL0     H34128   2.370   4.533  10.280 -1.4009  1.1127  1.7204
  259MOL0     H34129   2.525   4.375  10.335 -0.7357  1.3382 -2.2077
  259MOL0     H34130   2.417   4.235  10.331 -1.4860  0.4477 -0.7081
  259MOL0     H34131   2.344   4.421  10.545  1.2962 -0.3941  1.5203
  259MOL0     H34132   2.299   4.253  10.508 -0.7802 -0.4534  0.1455
  259MOL0     H34133   2.559   4.376  10.607  0.1645  0.8707 -2.4328
  259MOL0     H34134   2.575   4.221  10.538  1.3573  0.3221  1.0751
  259MOL0     H34135   2.545   4.184  10.769 -1.0643 -3.6283 -0.5205
  259MOL0     H34136   2.405   4.110  10.690 -0.8243  0.7387 -2.2931
  259MOL0     H34137   2.387   4.399  10.805 -0.6898  0.3069 -2.1333
  259MOL0     H34138   2.250   4.294  10.759 -0.7893  1.6492 -0.7945
  259MOL0     H34139   2.414   4.303  11.005  0.1054 -0.9298  0.7712
  259MOL0     H34140   2.393   4.140  10.949  2.4823  1.3938  1.2595
  259MOL0     H34141   2.130   4.053  10.919  1.0283  1.5167 -2.0169
  259MOL0     H34142   1.893   4.033  11.098  3.2099 -0.8464 -1.5069
  259MOL0     H34143   1.839   4.127  10.955 -0.2863 -0.9115  0.0233
  259MOL0     H34144   1.764   4.312  11.091  1.1903  0.5804 -0.1720
  259MOL0     H34145   1.853   4.247  11.230  2.1674 -2.0661 -0.1316
  259MOL0     H34146   1.586   4.169  11.113 -0.0023 -2.3256  0.3277
  259MOL0     H34147   1.680   4.042  11.185 -1.3977  0.0038  0.2776
  259MOL0     H34148   1.578   4.292  11.307  0.9982  0.3206  0.8393
  259MOL0     H34149   1.687   4.182  11.390  1.6356 -0.6178 -1.9616
  259MOL0     H34150   1.293   3.974  11.378  2.1780  1.6506 -0.6901
  259MOL0     H34151   1.150   3.965  11.598  0.2629  0.3034  0.3048
  259MOL0     H34152   0.903   4.325  11.802  5.3817 -0.4347  1.4145
  259MOL0     H34153   0.711   4.369  11.950  2.3086  1.9729 -0.5219
  259MOL0     H34154   0.501   4.240  11.980  4.4910  0.3583  0.4220
  259MOL0     H34155   0.522   4.372  12.105 -0.2876  0.3246 -0.3024
  259MOL0     H34156   0.384   4.232  12.239  3.2542  0.1418 -0.3102
  259MOL0     H34157   0.353   4.110  12.109  0.8853 -0.5281  1.1661
  259MOL0     H34158   0.208   4.270  11.993  1.3269 -0.1763  0.1924
  259MOL0     H34159   0.272   4.407  12.082  0.5963  0.1488  1.1893
  259MOL0     H34160   0.140   4.175  12.216  0.8884 -0.0566 -0.3564
  259MOL0     H34161   0.182   4.329  12.298  2.3712 -1.2443  0.0946
  259MOL0     H34162   0.021   4.436  12.129 -0.0519 -0.7828 -0.5079
  259MOL0     H34163  -0.042   4.335  12.256 -1.5524 -1.1364 -0.7541
  259MOL0     H34164  -0.072   4.152  12.083 -1.1125  0.2519 -0.6273
  259MOL0     H34165   0.004   4.249  11.964 -0.1788 -0.2966  0.1543
  259MOL0     H34166  -0.262   4.345  12.113 -0.0012 -1.3608  0.6146
  259MOL0     H34167  -0.184   4.409  11.963 -1.7167 -0.8077 -1.7983
  259MOL0     H34168  -0.296   4.126  11.991  3.3751 -2.6535 -0.7758
  259MOL0     H34169  -0.199   4.165  11.866 -0.3154  0.5205 -0.6737
  259MOL0     H34170   0.768   3.980  12.140  1.0009 -1.3214 -1.4524
  259MOL0     H34171   0.949   3.942  11.973  2.0585  0.8460 -0.9899
  259MOL0     H34172   1.405   4.257  11.762  2.0088 -3.9451  1.9301
  259MOL0     H34173   1.559   4.249  11.566  1.2826 -1.4061  0.3796
  259MOL0     H34174   2.655   4.380   9.918 -0.3932 -0.4824  1.4017
  259MOL0     H34175   2.727   4.553   9.775 -0.5949 -1.5387  0.2201
  259MOL0     H34176   2.745   5.089   9.809 -0.7533  1.2887  0.3398
  259MOL0     H34177   2.775   5.312   9.698  1.4107  0.2891 -0.7633
  259MOL0     H34178   2.783   5.387   9.276 -0.4740  0.8147  0.2645
  259MOL0     H34179   2.947   5.311   9.310  0.1567  0.8211 -3.0678
  259MOL0     H34180   2.842   5.579   9.371  1.2952  2.3121  1.4395
  259MOL0     H34181   2.998   5.513   9.441  1.7115 -1.6056 -2.0312
  259MOL0     H34182   2.960   5.550   9.140 -0.6007  2.5734  0.5260
  259MOL0     H34183   3.104   5.492   9.241 -0.6616 -1.2392 -0.5624
  259MOL0     H34184   3.132   5.733   9.167 -1.0633  0.0654 -1.2132
  259MOL0     H34185   2.973   5.767   9.232 -1.0575 -1.2318 -1.5709
  259MOL0     H34186   3.195   5.856   9.536  0.1049 -1.2132  0.1440
  259MOL0     H34187   2.778   5.147   9.322 -1.0217  1.7333  0.5183
  259MOL0     H34188   2.696   4.925   9.417 -1.8851  0.6846 -0.0382
  260MOL0     O34189   6.802   7.579   2.792  0.3471  0.0345  0.7924
  260MOL0     C34190   6.805   7.588   2.672 -0.4328  0.0817 -0.2364
  260MOL0     O34191   6.708   7.604   2.589  0.2774 -0.2256 -0.0542
  260MOL0     C34192   6.577   7.618   2.615  0.5868 -0.4399 -0.5091
  260MOL0     C34193   6.510   7.640   2.743 -0.6414  0.7365  0.2077
  260MOL0     C34194   6.373   7.661   2.753 -0.0359  0.7392  0.3039
  260MOL0     C34195   6.299   7.656   2.640  0.0770 -0.6416  0.3012
  260MOL0     O34196   6.159   7.654   2.655 -0.1766  0.7363 -0.1075
  260MOL0     C34197   6.086   7.687   2.770 -0.4666  0.9451 -1.0681
  260MOL0     C34198   5.938   7.713   2.739  1.0164  0.7786  0.5047
  260MOL0     C34199   5.868   7.581   2.728  0.9709 -0.5201 -0.4073
  260MOL0     C34200   5.887   7.501   2.600  0.2972 -0.7917  0.2831
  260MOL0     C34201   5.800   7.372   2.590  0.5191 -0.4362  0.3761
  260MOL0     C34202   5.835   7.261   2.690  0.8394  0.3374  0.3678
  260MOL0     C34203   5.759   7.125   2.669  0.1312 -0.2149 -0.2707
  260MOL0     C34204   5.814   7.036   2.559  0.0340 -0.2028  0.2835
  260MOL0     N34205   5.953   6.990   2.585  0.0502 -0.2532  0.5561
  260MOL0     C34206   5.985   6.890   2.669 -0.2559 -0.7770  0.6119
  260MOL0     C34207   6.120   6.894   2.664 -0.8873 -0.1497 -0.0298
  260MOL0     C34208   6.204   6.804   2.748  0.0550 -0.4046  0.4414
  260MOL0     C34209   6.318   6.727   2.679  0.6623  0.6694 -0.4104
  260MOL0     C34210   6.432   6.823   2.648  0.0966  0.1505  0.4130
  260MOL0     C34211   6.557   6.759   2.592  0.1339 -0.1847  0.5748
  260MOL0     O34212   6.646   6.708   2.687 -0.1415 -0.0018 -0.0764
  260MOL0     C34213   6.781   6.735   2.672 -0.4582 -0.0798  0.0193
  260MOL0     C34214   6.856   6.750   2.792  0.0826 -0.0719 -1.0639
  260MOL0     C34215   6.996   6.773   2.783 -0.8402  0.8671  0.2754
  260MOL0     C34216   7.067   6.759   2.663 -0.0894 -0.4222 -0.4015
  260MOL0     C34217   7.215   6.771   2.661  0.0909 -0.2789 -0.4702
  260MOL0     O34218   7.278   6.796   2.776 -0.1991  0.4847 -0.1433
  260MOL0     C34219   7.417   6.799   2.773 -0.4838  0.0511 -0.9038
  260MOL0     C34220   7.493   6.712   2.855 -0.6777  0.5881  0.2921
  260MOL0     C34221   7.632   6.742   2.867  0.1936  0.9070  0.1741
  260MOL0     C34222   7.695   6.834   2.782  0.2370  0.0942 -0.1865
  260MOL0     O34223   7.829   6.848   2.779  1.2359  1.1599 -0.0492
  260MOL0     C34224   7.909   6.871   2.666  1.2490 -0.6319 -0.1708
  260MOL0     C34225   8.038   6.931   2.719 -0.6815  0.3118  0.1824
  260MOL0     C34226   8.154   6.922   2.616  0.2748 -0.3583  0.7009
  260MOL0     C34227   8.147   7.041   2.503 -0.2759 -0.1350  0.5978
  260MOL0     C34228   8.279   7.074   2.447 -0.1598  0.1359 -0.0760
  260MOL0     C34229   8.358   6.957   2.387 -0.0150  0.0869  0.7653
  260MOL0     C34230   8.460   6.996   2.285  0.3057  0.3000  0.2065
  260MOL0     C34231   8.583   7.072   2.343  1.2236 -0.3202 -0.3120
  260MOL0    Cl34232   8.663   6.992   2.489 -0.2867 -0.0104  0.1171
  260MOL0     C34233   7.624   6.901   2.688  0.4882 -0.0816 -0.0320
  260MOL0     C34234   7.483   6.892   2.690  0.2585  0.0915 -0.8981
  260MOL0     O34235   7.268   6.764   2.549  0.6339 -0.2378  0.4522
  260MOL0     C34236   6.989   6.738   2.551  0.0173 -0.1333 -0.6183
  260MOL0     C34237   6.846   6.720   2.552 -0.1230  0.5041  0.8186
  260MOL0     N34238   6.162   7.000   2.584  0.6110 -0.3803  0.8305
  260MOL0     N34239   6.063   7.056   2.532 -0.2373 -0.4013 -0.4016
  260MOL0     C34240   6.354   7.631   2.512  0.2676  0.0204 -0.2356
  260MOL0     C34241   6.494   7.617   2.502 -0.1773  0.3658  0.0010
  260MOL0     C34242   6.938   7.568   2.611 -0.7660 -0.2483 -0.1151
  260MOL0     C34243   7.051   7.566   2.688 -0.9024  0.1778  0.6626
  260MOL0     C34244   7.177   7.538   2.631 -0.4441  0.3850  0.7840
  260MOL0     C34245   7.200   7.515   2.492 -0.3516  0.3194 -0.1608
  260MOL0     O34246   7.326   7.494   2.449  0.0223 -1.0080  0.6978
  260MOL0     C34247   7.357   7.503   2.307  0.5982 -0.7165 -0.7534
  260MOL0     C34248   7.496   7.455   2.278 -0.0415  0.2861 -0.0896
  260MOL0     C34249   7.615   7.518   2.363  0.6147 -0.2064  1.1027
  260MOL0     C34250   7.749   7.488   2.300 -0.1464  0.4816 -0.2074
  260MOL0     C34251   7.765   7.351   2.236 -0.0566  0.1796 -0.0516
  260MOL0     C34252   7.771   7.243   2.185 -0.6244  0.1756 -0.2324
  260MOL0     C34253   7.087   7.524   2.421  1.1634  0.4190  0.4246
  260MOL0     C34254   6.956   7.553   2.476 -0.3785 -0.3067  0.4713
  260MOL0     H34255   6.571   7.637   2.833  0.4333 -1.4962 -0.5018
  260MOL0     H34256   6.325   7.652   2.849 -1.4034 -1.9853 -0.5213
  260MOL0     H34257   6.118   7.774   2.827 -1.6981  0.3781  0.5685
  260MOL0     H34258   6.094   7.607   2.845  2.6210  0.5466 -1.6959
  260MOL0     H34259   5.927   7.781   2.654  1.9531  1.0001  0.5463
  260MOL0     H34260   5.887   7.777   2.812 -0.4267 -1.6154  1.7321
  260MOL0     H34261   5.763   7.611   2.739  0.6283 -1.5210 -0.7276
  260MOL0     H34262   5.886   7.512   2.810  1.0502  1.6704  1.5040
  260MOL0     H34263   5.872   7.562   2.511 -1.4076  0.4347  1.3325
  260MOL0     H34264   5.993   7.475   2.596  0.4099 -0.1671 -2.8150
  260MOL0     H34265   5.817   7.337   2.488 -0.2714  2.6245 -0.8932
  260MOL0     H34266   5.697   7.400   2.613  0.4903 -0.9188  0.8573
  260MOL0     H34267   5.810   7.291   2.792 -1.4184 -0.6789  0.1874
  260MOL0     H34268   5.944   7.251   2.693  0.7937  0.0170  1.1108
  260MOL0     H34269   5.761   7.071   2.764  0.0675  1.3686  0.6827
  260MOL0     H34270   5.652   7.140   2.655 -0.2401 -2.3280  0.1170
  260MOL0     H34271   5.814   7.090   2.464  2.8319  1.2488  0.9655
  260MOL0     H34272   5.761   6.941   2.555  0.0856 -0.2228  0.1100
  260MOL0     H34273   5.905   6.836   2.720 -1.5997  0.8907  0.3576
  260MOL0     H34274   6.140   6.727   2.791 -0.6465  1.2835  2.6178
  260MOL0     H34275   6.242   6.860   2.834 -1.8952  0.5700  0.7441
  260MOL0     H34276   6.284   6.675   2.589  0.8080 -2.5866  1.2572
  260MOL0     H34277   6.346   6.642   2.743 -1.4972 -0.2460 -0.5841
  260MOL0     H34278   6.399   6.903   2.580  0.2585  0.7777  1.0615
  260MOL0     H34279   6.445   6.868   2.747 -1.7449  1.8583 -0.0368
  260MOL0     H34280   6.610   6.841   2.545  1.5847  0.0450  2.5138
  260MOL0     H34281   6.542   6.680   2.518  0.1976 -0.0783  0.4492
  260MOL0     H34282   6.796   6.755   2.882  0.9041  0.5803 -0.5356
  260MOL0     H34283   7.047   6.795   2.876 -3.3412  0.3779  1.8361
  260MOL0     H34284   7.433   6.646   2.916 -1.0669  0.6488 -0.0254
  260MOL0     H34285   7.691   6.667   2.920  1.6262 -1.0937 -3.8141
  260MOL0     H34286   7.864   6.940   2.593  1.8282 -0.7113 -0.6203
  260MOL0     H34287   7.922   6.773   2.619 -0.7313 -1.9830  1.9127
  260MOL0     H34288   8.069   6.880   2.810 -3.1687 -2.3290 -0.3061
  260MOL0     H34289   8.034   7.037   2.748  1.7696  0.4359  0.2354
  260MOL0     H34290   8.164   6.823   2.572  1.6832  0.5562 -1.1725
  260MOL0     H34291   8.250   6.930   2.668  1.1341 -0.9977 -0.7407
  260MOL0     H34292   8.061   7.020   2.438 -1.4346  1.0317  1.6811
  260MOL0     H34293   8.122   7.135   2.553  0.3735 -0.0770  0.8250
  260MOL0     H34294   8.334   7.130   2.522 -1.0186  2.0795 -0.8261
  260MOL0     H34295   8.254   7.131   2.357 -1.8186 -1.5395 -0.7626
  260MOL0     H34296   8.297   6.882   2.336  1.6393 -0.2211 -0.8470
  260MOL0     H34297   8.393   6.897   2.471  0.1619 -0.2858  0.4309
  260MOL0     H34298   8.505   6.907   2.240  1.0345  1.0188 -0.5420
  260MOL0     H34299   8.401   7.050   2.210  0.3467 -0.8780 -0.6913
  260MOL0     H34300   8.542   7.170   2.369  0.4400 -0.8061  0.3330
  260MOL0     H34301   8.650   7.085   2.258  0.4905  0.9772 -0.7260
  260MOL0     H34302   7.665   6.980   2.627 -1.1826  1.4636  0.7453
  260MOL0     H34303   7.435   6.968   2.629  0.9058  0.1703 -1.3210
  260MOL0     H34304   7.031   6.734   2.451 -1.4773  0.4643 -1.2926
  260MOL0     H34305   6.792   6.712   2.459  0.0629  1.9647  0.5647
  260MOL0     H34306   6.286   7.617   2.429  0.5506  2.5337 -0.9991
  260MOL0     H34307   6.536   7.594   2.404  1.1303 -0.2554  0.6775
  260MOL0     H34308   7.051   7.580   2.796 -2.4973 -2.0158  1.0075
  260MOL0     H34309   7.262   7.536   2.698 -1.5525 -2.7148  2.2846
  260MOL0     H34310   7.334   7.607   2.280  1.1859 -0.7531 -1.4281
  260MOL0     H34311   7.289   7.442   2.247 -0.6694  1.3200 -1.5151
  260MOL0     H34312   7.496   7.346   2.288 -0.8261  0.4203  1.8743
  260MOL0     H34313   7.519   7.477   2.174  2.6471  1.3602  0.6541
  260MOL0     H34314   7.605   7.490   2.469 -0.4369 -0.3728  0.9658
  260MOL0     H34315   7.606   7.626   2.353 -0.6166 -0.5057 -1.9478
  260MOL0     H34316   7.779   7.558   2.221 -0.9030  0.0993 -0.8468
  260MOL0     H34317   7.817   7.502   2.384 -1.4168  0.7372  0.7971
  260MOL0     H34318   7.769   7.155   2.125 -0.2197 -0.4253  0.6058
  260MOL0     H34319   7.082   7.498   2.316 -1.1451 -0.0927  0.6145
  260MOL0     H34320   6.870   7.557   2.410  0.3720 -0.7369 -0.5575
  261MOL0     O34321   4.389   9.716   0.365 -0.6644 -0.0758  0.2687
  261MOL0     C34322   4.450   9.648   0.282 -1.1563  0.1370  0.2530
  261MOL0     O34323   4.401   9.552   0.206 -0.8880  0.1010  0.8519
  261MOL0     C34324   4.269   9.521   0.221  0.0204 -0.0674 -0.3356
  261MOL0     C34325   4.195   9.516   0.103  0.1140 -0.5200  0.2877
  261MOL0     C34326   4.059   9.474   0.102 -0.6409  0.0170 -0.4581
  261MOL0     C34327   4.010   9.419   0.224  0.7203 -0.3388  1.2240
  261MOL0     O34328   3.893   9.346   0.233  0.0720  0.0468 -0.5712
  261MOL0     C34329   3.781   9.400   0.159 -0.0267  0.1195  0.9976
  261MOL0     C34330   3.659   9.314   0.190 -0.0977 -0.3619  0.0400
  261MOL0     C34331   3.538   9.369   0.126  0.7059 -0.2972 -0.8639
  261MOL0     C34332   3.415   9.290   0.164  0.1952 -0.8321 -0.5162
  261MOL0     C34333   3.286   9.364   0.143 -0.1509  0.0355 -0.5720
  261MOL0     C34334   3.279   9.431   0.005  0.5088 -0.2835 -0.2184
  261MOL0     C34335   3.136   9.492  -0.016 -0.4204 -0.1498  0.5166
  261MOL0     C34336   3.126   9.622   0.064  0.1939  0.0730  0.9493
  261MOL0     N34337   3.020   9.703  -0.001 -0.4156  0.1792 -0.6018
  261MOL0     C34338   2.906   9.730   0.063 -0.1821 -0.5854 -0.5312
  261MOL0     C34339   2.846   9.827   0.001  0.1091  0.3085 -0.3533
  261MOL0     C34340   2.713   9.894   0.035 -0.3235  0.1076 -0.1958
  261MOL0     C34341   2.623   9.890  -0.092 -0.5284  0.4448 -0.6102
  261MOL0     C34342   2.501   9.971  -0.064  0.7441 -0.2959 -0.5717
  261MOL0     C34343   2.409   9.989  -0.183  0.6100  0.9644  0.3872
  261MOL0     O34344   2.317   9.879  -0.195  1.1857 -0.7661 -0.2293
  261MOL0     C34345   2.196   9.878  -0.132  0.0578  0.8588  0.0649
  261MOL0     C34346   2.169   9.979  -0.039  0.5561 -0.2630 -0.2169
  261MOL0     C34347   2.046   9.975   0.030 -1.0564 -0.5289  1.1603
  261MOL0     C34348   1.941   9.875   0.011 -0.1058  1.0188 -0.1028
  261MOL0     C34349   1.818   9.880   0.086 -0.1781 -0.2846  0.4405
  261MOL0     O34350   1.717   9.786   0.061 -0.2886  0.1837 -0.1856
  261MOL0     C34351   1.598   9.804   0.128 -0.0577 -0.4491  0.2921
  261MOL0     C34352   1.551   9.700   0.196  0.1784  0.0920  0.4705
  261MOL0     C34353   1.429   9.714   0.265 -0.3195 -0.4957  0.5488
  261MOL0     C34354   1.356   9.832   0.249  0.4694 -0.6038 -0.3892
  261MOL0     O34355   1.235   9.821   0.316 -0.2003 -0.3508  0.2218
  261MOL0     C34356   1.145   9.930   0.299  1.0676 -0.1115  0.0174
  261MOL0     C34357   1.022   9.909   0.394  0.2265  0.6057  0.6308
  261MOL0     C34358   1.051   9.945   0.536 -0.1197 -0.7236  0.2330
  261MOL0     C34359   0.938   9.942   0.638 -0.0110  0.5388 -0.8808
  261MOL0     C34360   0.893   9.803   0.688  0.8137 -0.2892 -0.6092
  261MOL0     C34361   0.997   9.720   0.773  0.0871 -0.8832 -0.3437
  261MOL0     C34362   1.066   9.781   0.892  0.0351 -0.1371  0.6023
  261MOL0     C34363   0.975   9.866   0.984  0.8429  0.1064 -1.5719
  261MOL0    Cl34364   1.041   9.876   1.153  0.1165 -0.3031  0.1606
  261MOL0     C34365   1.401   9.938   0.173 -0.1673  0.6635 -0.1188
  261MOL0     C34366   1.526   9.923   0.111 -0.7618  0.3415 -0.5037
  261MOL0     O34367   1.814   9.981   0.157  0.1211 -0.4210  0.1418
  261MOL0     C34368   1.976   9.767  -0.079 -1.0270 -0.1383  0.7386
  261MOL0     C34369   2.106   9.767  -0.144 -0.0572 -0.6400 -0.6211
  261MOL0     N34370   2.920   9.853  -0.113 -0.0279  0.0489  0.1098
  261MOL0     N34371   3.026   9.776  -0.108  0.0371 -0.1113 -0.0913
  261MOL0     C34372   4.079   9.426   0.336 -0.5167  0.1447  0.1870
  261MOL0     C34373   4.212   9.462   0.344  0.1264 -0.1551 -0.4598
  261MOL0     C34374   4.599   9.686   0.251 -1.0583 -0.1536  0.3171
  261MOL0     C34375   4.672   9.766   0.340  0.4153 -0.1496 -0.5823
  261MOL0     C34376   4.810   9.785   0.322  0.0661 -0.5715  0.6460
  261MOL0     C34377   4.871   9.750   0.198 -0.3558 -0.5685 -0.2993
  261MOL0     O34378   5.001   9.779   0.162 -0.1416 -0.3585  0.4796
  261MOL0     C34379   5.090   9.835   0.261  0.1216 -0.6036 -0.2130
  261MOL0     C34380   5.225   9.836   0.202  0.1806  0.4509  0.3986
  261MOL0     C34381   5.325   9.912   0.288 -0.4363  0.1403 -0.9471
  261MOL0     C34382   5.463   9.930   0.218 -0.4728  1.1498 -0.4725
  261MOL0     C34383   5.553  10.017   0.303 -0.7447 -0.0872 -0.0418
  261MOL0     C34384   5.647  10.067   0.369 -0.2987 -0.4682 -0.1801
  261MOL0     C34385   4.796   9.680   0.106  0.6198  0.0151  0.0084
  261MOL0     C34386   4.666   9.643   0.135  0.1738  0.7231 -0.3803
  261MOL0     H34387   4.244   9.541   0.010  0.8280  0.3529  0.8808
  261MOL0     H34388   4.008   9.471   0.007 -0.4559  0.7729 -0.5932
  261MOL0     H34389   3.797   9.397   0.051 -3.3851  0.9873  0.3636
  261MOL0     H34390   3.760   9.505   0.181 -0.7057 -0.2518  2.1956
  261MOL0     H34391   3.645   9.300   0.297  0.6619 -0.0256  0.1906
  261MOL0     H34392   3.676   9.211   0.156 -0.8464 -0.5295  0.1745
  261MOL0     H34393   3.551   9.359   0.018  3.4844 -0.4443 -0.5791
  261MOL0     H34394   3.519   9.472   0.157 -2.5437 -0.5519 -1.5820
  261MOL0     H34395   3.418   9.199   0.104  0.1013  1.0549 -3.6643
  261MOL0     H34396   3.412   9.257   0.268  0.6925  3.7061  1.1840
  261MOL0     H34397   3.267   9.439   0.221  1.6510  1.6161 -1.5610
  261MOL0     H34398   3.197   9.305   0.167 -0.2878  1.4914  3.0995
  261MOL0     H34399   3.308   9.348  -0.060  0.3821  0.1802 -0.8643
  261MOL0     H34400   3.349   9.515   0.003  0.5710 -0.3085  0.4430
  261MOL0     H34401   3.120   9.496  -0.124  1.5905 -1.6369  0.0882
  261MOL0     H34402   3.061   9.424   0.027 -0.1195 -0.9668 -0.2112
  261MOL0     H34403   3.216   9.684   0.052  0.1008  0.2436  1.1101
  261MOL0     H34404   3.107   9.594   0.168 -1.5579 -0.1970  0.5855
  261MOL0     H34405   2.868   9.674   0.148  0.5133  0.9005  0.8039
  261MOL0     H34406   2.732   9.991   0.082  0.3359 -0.7163  1.3148
  261MOL0     H34407   2.668   9.837   0.116  2.6707 -1.1245  0.7614
  261MOL0     H34408   2.602   9.783  -0.105  2.6048 -0.4676  0.8685
  261MOL0     H34409   2.675   9.945  -0.171 -1.8099  0.9298 -1.1367
  261MOL0     H34410   2.436   9.932   0.015  3.4608  0.2424  2.1357
  261MOL0     H34411   2.534  10.065  -0.019  2.8862 -1.6945  0.9706
  261MOL0     H34412   2.478   9.987  -0.268  0.2962 -1.8221  0.0952
  261MOL0     H34413   2.354  10.083  -0.185  0.0910  0.6985  1.3830
  261MOL0     H34414   2.230  10.064  -0.010 -0.6508  0.9208 -1.0024
  261MOL0     H34415   2.031  10.049   0.109 -1.7991  2.3384 -1.4530
  261MOL0     H34416   1.610   9.610   0.211 -0.5815 -0.3601  0.7964
  261MOL0     H34417   1.380   9.638   0.325  0.3341 -1.4991 -0.1407
  261MOL0     H34418   1.103   9.930   0.198 -0.8600  2.2138  0.7177
  261MOL0     H34419   1.191  10.027   0.322  2.8078 -0.6365 -1.1211
  261MOL0     H34420   0.993   9.803   0.386  4.4196 -0.6026 -1.5509
  261MOL0     H34421   0.941   9.971   0.354 -1.4384 -2.5147 -1.2275
  261MOL0     H34422   1.097  10.044   0.530  1.8070 -1.5825  0.0794
  261MOL0     H34423   1.131   9.875   0.561  2.3683  0.5484 -3.2820
  261MOL0     H34424   0.963  10.011   0.720 -0.2519 -0.0570 -0.2987
  261MOL0     H34425   0.852   9.995   0.597  1.5004  2.1073 -2.2141
  261MOL0     H34426   0.857   9.742   0.605 -1.2814  0.2017 -0.1168
  261MOL0     H34427   0.811   9.816   0.759  2.3150  1.0472  0.9642
  261MOL0     H34428   1.079   9.701   0.704  1.6162  1.8302  0.5888
  261MOL0     H34429   0.950   9.631   0.816 -0.3112  0.1158  1.4030
  261MOL0     H34430   1.113   9.701   0.950 -3.8925 -1.2119  2.6476
  261MOL0     H34431   1.149   9.846   0.863 -0.5329  0.2595 -0.1810
  261MOL0     H34432   0.869   9.839   0.991 -0.4426  4.3559 -1.5232
  261MOL0     H34433   0.970   9.965   0.938 -0.8068  0.7581 -0.1154
  261MOL0     H34434   1.347  10.031   0.161 -2.4062 -0.7256 -1.8671
  261MOL0     H34435   1.564   9.999   0.044  0.8873  0.5080  0.5705
  261MOL0     H34436   1.919   9.677  -0.093 -0.3740 -0.3112 -1.0546
  261MOL0     H34437   2.138   9.686  -0.210 -2.5057 -0.2309 -2.4585
  261MOL0     H34438   4.036   9.390   0.430  1.8587 -0.1443  1.2236
  261MOL0     H34439   4.267   9.444   0.436 -0.6201 -3.1218 -0.5126
  261MOL0     H34440   4.636   9.798   0.438  2.1085 -0.9103  0.3247
  261MOL0     H34441   4.863   9.835   0.402 -0.4854  2.1078 -0.5663
  261MOL0     H34442   5.092   9.767   0.347 -0.4709 -1.4924 -0.8798
  261MOL0     H34443   5.057   9.932   0.299 -1.7154 -2.0816  2.3939
  261MOL0     H34444   5.254   9.731   0.192 -0.2717  0.1847  1.6353
  261MOL0     H34445   5.224   9.885   0.104 -0.2454  0.0602  0.2102
  261MOL0     H34446   5.338   9.867   0.387 -0.0817  1.6280 -0.2853
  261MOL0     H34447   5.289  10.011   0.319 -0.4438 -0.4604  1.0993
  261MOL0     H34448   5.505   9.830   0.206 -1.3862  0.9965 -2.9919
  261MOL0     H34449   5.456   9.974   0.118  2.0076  2.4624 -0.1580
  261MOL0     H34450   5.725  10.106   0.431 -0.8354 -0.6065  0.5912
  261MOL0     H34451   4.843   9.643   0.016  1.0329 -1.4250  0.7937
  261MOL0     H34452   4.625   9.575   0.060  2.7431  1.0700 -2.2504
  262MOL0     O34453   5.287   9.897   7.211 -1.0435  0.4740  0.6982
  262MOL0     C34454   5.314  10.009   7.174 -0.2968  0.1023 -0.9041
  262MOL0     O34455   5.221  10.098   7.123 -0.2457 -0.1394 -0.2887
  262MOL0     C34456   5.095  10.060   7.083  0.3590 -0.8338 -0.1550
  262MOL0     C34457   4.992  10.151   7.100 -1.0979 -0.4635  0.2186
  262MOL0     C34458   4.865  10.120   7.049 -1.2236  0.0380  0.1721
  262MOL0     C34459   4.833   9.998   6.992  0.3137 -0.3682 -0.1944
  262MOL0     O34460   4.718   9.955   6.939  0.0205  0.3113  0.3542
  262MOL0     C34461   4.626  10.050   6.906 -0.1193  0.2804  0.3718
  262MOL0     C34462   4.527   9.980   6.817  0.2234  0.2683  0.0388
  262MOL0     C34463   4.421  10.074   6.776 -0.1588 -0.0834 -0.3884
  262MOL0     C34464   4.338  10.012   6.657 -0.4352  0.7862  0.5943
  262MOL0     C34465   4.218  10.110   6.623  0.2890  0.6094  0.4983
  262MOL0     C34466   4.121  10.147   6.740  0.8702  0.1316 -0.5711
  262MOL0     C34467   3.988  10.203   6.688  0.1489 -0.7631  0.2340
  262MOL0     C34468   3.988  10.355   6.651 -0.8604 -0.4233  0.7075
  262MOL0     N34469   3.865  10.381   6.578 -0.0595 -0.6168 -0.6514
  262MOL0     C34470   3.736  10.386   6.624  0.6701 -0.1463 -0.9418
  262MOL0     C34471   3.668  10.421   6.513  0.0476 -0.6265 -0.3087
  262MOL0     C34472   3.522  10.459   6.524 -0.0863  0.4498 -0.0158
  262MOL0     C34473   3.425  10.350   6.519 -0.5943  0.2783 -0.1246
  262MOL0     C34474   3.399  10.297   6.375 -0.6983 -0.5650  0.1501
  262MOL0     C34475   3.269  10.347   6.318  0.5931  0.0493  0.5550
  262MOL0     O34476   3.162  10.292   6.388  0.1620  0.3812 -0.4457
  262MOL0     C34477   3.030  10.320   6.355  0.7389 -0.5458  0.0181
  262MOL0     C34478   2.925  10.286   6.448 -0.1288 -0.0569  0.4256
  262MOL0     C34479   2.788  10.316   6.418 -0.3462  0.2956 -1.0520
  262MOL0     C34480   2.752  10.376   6.302  0.0598  0.4008 -0.6146
  262MOL0     C34481   2.605  10.396   6.267  0.8779  0.5623  0.4934
  262MOL0     O34482   2.583  10.462   6.145 -0.5343  0.5760 -0.4460
  262MOL0     C34483   2.450  10.476   6.112  0.1443 -0.4811 -0.2616
  262MOL0     C34484   2.404  10.390   6.011 -0.0170 -0.0052 -0.7203
  262MOL0     C34485   2.274  10.384   5.969 -0.9181 -0.1936  0.7082
  262MOL0     C34486   2.184  10.462   6.033 -0.5126 -0.4414  0.3789
  262MOL0     O34487   2.052  10.454   5.985 -0.6358  0.4712 -0.4037
  262MOL0     C34488   1.970  10.557   6.032 -0.5210 -0.0651 -0.1305
  262MOL0     C34489   1.831  10.533   5.969 -0.7491  0.2933  1.2584
  262MOL0     C34490   1.730  10.631   6.028  0.1242 -0.2568 -0.3850
  262MOL0     C34491   1.685  10.609   6.184  0.2408 -0.6175  0.3122
  262MOL0     C34492   1.547  10.655   6.213  0.0362 -0.8445  0.5054
  262MOL0     C34493   1.486  10.615   6.352 -0.6879 -0.0318  0.9750
  262MOL0     C34494   1.353  10.692   6.386  0.1636 -0.3222 -0.2515
  262MOL0     C34495   1.230  10.608   6.347  0.7972  0.1605 -0.4752
  262MOL0    Cl34496   1.213  10.589   6.165  0.0536  0.1859 -0.2580
  262MOL0     C34497   2.222  10.550   6.143 -0.3161  0.2875 -0.3394
  262MOL0     C34498   2.355  10.551   6.184 -0.7853  0.5183 -0.1365
  262MOL0     O34499   2.524  10.334   6.334  0.0644 -0.7582 -0.1656
  262MOL0     C34500   2.856  10.407   6.213  0.3936 -0.1902  0.2734
  262MOL0     C34501   2.995  10.388   6.244  0.0003 -0.8376  0.1301
  262MOL0     N34502   3.751  10.447   6.405 -0.1379 -0.1828  0.0914
  262MOL0     N34503   3.867  10.420   6.447 -0.6350  0.6886 -0.4080
  262MOL0     C34504   4.941   9.910   6.970 -0.0901 -0.1287  0.3445
  262MOL0     C34505   5.072   9.939   7.006  0.5700 -0.0230 -0.6508
  262MOL0     C34506   5.453  10.057   7.200  0.1069  0.2021  0.0464
  262MOL0     C34507   5.462  10.201   7.222  0.3763 -0.0067 -0.6436
  262MOL0     C34508   5.583  10.264   7.249 -0.3706 -1.3063  0.5967
  262MOL0     C34509   5.697  10.185   7.220  0.0777  0.1321 -0.0606
  262MOL0     O34510   5.811  10.258   7.219  0.1588  0.0607 -0.0228
  262MOL0     C34511   5.932  10.185   7.209 -0.3925  0.1921  0.8126
  262MOL0     C34512   5.941  10.142   7.063 -0.1030  0.5685  0.5024
  262MOL0     C34513   6.063  10.052   7.036  0.0777 -0.1368 -0.7598
  262MOL0     C34514   6.084  10.014   6.893 -0.1672  0.3291  0.4721
  262MOL0     C34515   6.205   9.931   6.890  0.9038  0.3691 -0.5654
  262MOL0     C34516   6.303   9.876   6.905  0.1382 -0.6220  0.6921
  262MOL0     C34517   5.684  10.045   7.198  0.1844  0.2825  0.1082
  262MOL0     C34518   5.561   9.980   7.196  0.8311  0.0080 -0.5419
  262MOL0     H34519   5.012  10.251   7.137 -2.8408  0.6043 -1.5390
  262MOL0     H34520   4.785  10.194   7.052 -1.2645  0.2129 -2.6581
  262MOL0     H34521   4.678  10.132   6.856 -0.0541  0.3583  0.5660
  262MOL0     H34522   4.569  10.089   6.991 -1.4013 -2.7130  1.0334
  262MOL0     H34523   4.478   9.895   6.867 -3.4002  1.8000 -0.5444
  262MOL0     H34524   4.578   9.941   6.729 -1.9324 -0.1112 -1.1111
  262MOL0     H34525   4.469  10.167   6.746 -0.7103  0.4957  0.4790
  262MOL0     H34526   4.359  10.090   6.865  1.7455 -2.1136  1.4241
  262MOL0     H34527   4.405  10.007   6.571  0.6039 -1.1444  1.4444
  262MOL0     H34528   4.302   9.910   6.675 -0.4313  0.9311  1.4781
  262MOL0     H34529   4.155  10.068   6.544 -0.1246  0.7865  0.7307
  262MOL0     H34530   4.256  10.200   6.573  0.7943  0.2604  0.2434
  262MOL0     H34531   4.161  10.215   6.817 -0.2273 -0.0118  0.1434
  262MOL0     H34532   4.086  10.054   6.786 -2.2451  0.5559 -1.8830
  262MOL0     H34533   3.958  10.141   6.603 -0.7566 -1.1170  0.7942
  262MOL0     H34534   3.916  10.183   6.768  0.1570 -1.4558  0.0703
  262MOL0     H34535   4.072  10.376   6.584  0.1604 -1.5861  1.5619
  262MOL0     H34536   3.997  10.420   6.738  1.7234  0.6704 -0.3011
  262MOL0     H34537   3.701  10.384   6.726  1.2673  2.0619 -0.6422
  262MOL0     H34538   3.499  10.526   6.441 -2.2421 -0.5555 -0.2956
  262MOL0     H34539   3.494  10.503   6.620 -0.7308 -1.8281  0.9094
  262MOL0     H34540   3.330  10.375   6.567  0.2169 -0.3534  1.9526
  262MOL0     H34541   3.457  10.262   6.577 -1.9406  1.1665  2.1180
  262MOL0     H34542   3.475  10.336   6.306 -0.3649  0.3221  0.9928
  262MOL0     H34543   3.408  10.188   6.381 -1.4409 -0.6796 -0.5369
  262MOL0     H34544   3.265  10.316   6.213  2.0638  2.3502 -0.2482
  262MOL0     H34545   3.254  10.455   6.322  0.9195  0.1159  0.0540
  262MOL0     H34546   2.954  10.230   6.536 -0.0502  0.6584  0.8689
  262MOL0     H34547   2.706  10.292   6.485 -0.3066 -1.9062 -1.6990
  262MOL0     H34548   2.482  10.327   5.969  2.3779  1.5735  1.0608
  262MOL0     H34549   2.245  10.309   5.897  0.2889  1.3143 -1.4551
  262MOL0     H34550   1.999  10.658   6.002 -1.1742  0.7988  2.0362
  262MOL0     H34551   1.961  10.546   6.140  0.4749  1.3327  0.1290
  262MOL0     H34552   1.800  10.428   5.977  1.1275 -0.2036  2.7112
  262MOL0     H34553   1.858  10.546   5.864  0.4474  1.6161  1.7064
  262MOL0     H34554   1.639  10.638   5.967  0.6583  0.1909 -1.1484
  262MOL0     H34555   1.776  10.730   6.024  0.3610 -0.3557 -0.1392
  262MOL0     H34556   1.699  10.502   6.204  2.6816 -0.7893 -1.8098
  262MOL0     H34557   1.757  10.658   6.251  2.7103 -2.2384 -0.9961
  262MOL0     H34558   1.478  10.619   6.136  1.1278  0.2305 -1.0265
  262MOL0     H34559   1.551  10.763   6.200 -1.3457 -0.9396 -1.1276
  262MOL0     H34560   1.556  10.651   6.429 -0.1128  4.9803 -1.4450
  262MOL0     H34561   1.466  10.508   6.350  1.9366 -0.5837  0.7943
  262MOL0     H34562   1.350  10.703   6.495 -1.1341  0.6042 -0.3508
  262MOL0     H34563   1.359  10.792   6.342  3.4260 -0.9059 -1.4049
  262MOL0     H34564   1.137  10.648   6.388  0.0728 -0.6309 -1.3046
  262MOL0     H34565   1.251  10.508   6.387  1.7666  1.4288  2.5046
  262MOL0     H34566   2.143  10.605   6.193 -2.5727 -0.2966 -3.0117
  262MOL0     H34567   2.378  10.616   6.268  0.5370  0.2155 -0.2471
  262MOL0     H34568   2.832  10.453   6.118  0.5545  1.5004  1.0142
  262MOL0     H34569   3.059  10.434   6.169 -0.5493 -0.3497 -0.0556
  262MOL0     H34570   4.925   9.821   6.910  0.4313 -0.3193  0.4804
  262MOL0     H34571   5.159   9.877   6.986  0.2283 -1.2981  1.4983
  262MOL0     H34572   5.370  10.257   7.230  1.3160  1.4248  0.8122
  262MOL0     H34573   5.610  10.369   7.264 -1.9443 -0.5273 -1.5706
  262MOL0     H34574   5.952  10.102   7.277 -0.7253  0.8315  1.7087
  262MOL0     H34575   6.018  10.250   7.228 -0.3311  0.6471 -0.8290
  262MOL0     H34576   5.851  10.094   7.024  0.7367 -1.6125  1.0862
  262MOL0     H34577   5.954  10.235   7.007  0.9687 -0.0484 -0.3102
  262MOL0     H34578   6.059   9.962   7.098  2.3876  1.1016  1.3373
  262MOL0     H34579   6.158  10.097   7.068 -0.1887 -1.2356  1.7615
  262MOL0     H34580   5.994   9.968   6.851 -2.7452  4.2904  1.1587
  262MOL0     H34581   6.122  10.100   6.836  2.0195 -1.2477 -0.5797
  262MOL0     H34582   6.400   9.832   6.919 -0.4134 -2.0523  0.1826
  262MOL0     H34583   5.765   9.973   7.194 -1.4265 -1.5807 -0.4215
  262MOL0     H34584   5.552   9.873   7.181  0.9075 -0.1571  0.5559
  263MOL0     O34585   2.330   8.288   1.480  1.1117 -0.9159 -0.4309
  263MOL0     C34586   2.292   8.172   1.469  0.2210 -0.1086  0.7808
  263MOL0     O34587   2.191   8.129   1.382 -0.1279  0.2236  0.0641
  263MOL0     C34588   2.121   8.207   1.293 -0.1947 -0.4641 -0.6457
  263MOL0     C34589   2.041   8.127   1.206 -0.5104 -0.2410 -0.3302
  263MOL0     C34590   1.938   8.194   1.129 -0.6716  0.3909 -0.2132
  263MOL0     C34591   1.917   8.333   1.144  1.6233 -0.5468  0.5648
  263MOL0     O34592   1.824   8.395   1.066  0.6217 -0.3055 -0.1314
  263MOL0     C34593   1.744   8.505   1.125 -0.0456  0.2334  0.6512
  263MOL0     C34594   1.606   8.529   1.056 -0.5261 -0.3947  0.0463
  263MOL0     C34595   1.521   8.617   1.144 -0.2539  0.4862 -0.1591
  263MOL0     C34596   1.536   8.766   1.118  0.2169  0.8768  0.3629
  263MOL0     C34597   1.487   8.833   1.244  0.3699  0.4503 -0.8015
  263MOL0     C34598   1.474   8.979   1.226  1.0126 -1.0905  0.7447
  263MOL0     C34599   1.462   9.054   1.355 -0.1807 -0.3092 -0.1812
  263MOL0     C34600   1.432   9.205   1.333 -0.5436  1.4079 -0.6452
  263MOL0     N34601   1.310   9.240   1.258  0.5782 -0.2843 -0.3294
  263MOL0     C34602   1.180   9.235   1.302  0.5523 -0.4542 -0.2060
  263MOL0     C34603   1.102   9.259   1.194 -0.5204 -0.1696  0.2784
  263MOL0     C34604   0.963   9.266   1.182  0.8490 -0.3708  0.0185
  263MOL0     C34605   0.876   9.239   1.313 -0.3202  0.0441  0.3518
  263MOL0     C34606   0.834   9.097   1.345  0.2588 -0.0140  0.1457
  263MOL0     C34607   0.773   9.075   1.479  0.2097  0.9252 -0.0515
  263MOL0     O34608   0.692   8.961   1.474  0.1473  0.1807 -0.9905
  263MOL0     C34609   0.576   8.970   1.547 -0.2499  0.1221 -0.3082
  263MOL0     C34610   0.471   8.877   1.508 -0.3653 -0.0453  0.5900
  263MOL0     C34611   0.351   8.875   1.560  1.0798 -0.4018 -0.4779
  263MOL0     C34612   0.321   8.964   1.670  0.4237 -0.1874 -0.5302
  263MOL0     C34613   0.189   8.951   1.731 -0.1251  1.3298 -0.5337
  263MOL0     O34614   0.133   8.827   1.712 -0.3675  0.2812  0.4310
  263MOL0     C34615   0.036   8.783   1.793  0.9282 -0.6443 -0.5283
  263MOL0     C34616   0.019   8.804   1.937 -0.0136 -1.2674  0.0254
  263MOL0     C34617  -0.097   8.755   2.006 -0.0731 -0.8045  0.1294
  263MOL0     C34618  -0.178   8.662   1.936 -0.5999 -0.7198  0.2556
  263MOL0     O34619  -0.283   8.594   1.988  1.0114 -0.7483  0.8158
  263MOL0     C34620  -0.378   8.677   2.056  0.0827  1.1733 -0.1758
  263MOL0     C34621  -0.498   8.594   2.120 -0.0170  0.5660  1.0537
  263MOL0     C34622  -0.604   8.692   2.165 -0.0045 -0.3446 -0.0135
  263MOL0     C34623  -0.722   8.612   2.217  1.2163 -0.4803 -0.0814
  263MOL0     C34624  -0.840   8.699   2.239 -0.4511 -0.5815 -0.4545
  263MOL0     C34625  -0.967   8.618   2.248 -0.6145 -0.1169  0.4719
  263MOL0     C34626  -1.088   8.711   2.264  0.0470  0.1326 -0.0669
  263MOL0     C34627  -1.221   8.640   2.294  0.2135  0.0455 -0.1265
  263MOL0    Cl34628  -1.352   8.744   2.317 -0.0495  0.0747 -0.5076
  263MOL0     C34629  -0.138   8.622   1.803 -0.5899  0.4277  1.0668
  263MOL0     C34630  -0.041   8.688   1.734 -0.8915  0.0629  0.1035
  263MOL0     O34631   0.143   9.037   1.804 -0.0286  0.1308  0.5607
  263MOL0     C34632   0.414   9.061   1.706  0.3652  0.4804  0.7831
  263MOL0     C34633   0.545   9.061   1.649  0.2004  0.1400 -0.3640
  263MOL0     N34634   1.189   9.285   1.087 -0.7545 -0.1744 -0.7607
  263MOL0     N34635   1.311   9.259   1.128 -0.3937  0.6802 -0.2347
  263MOL0     C34636   1.997   8.402   1.231 -0.5196 -0.5366 -0.2319
  263MOL0     C34637   2.098   8.349   1.303 -0.3100  1.2443 -0.3909
  263MOL0     C34638   2.347   8.074   1.558 -0.6051 -0.1573 -0.3589
  263MOL0     C34639   2.280   7.956   1.603 -0.3859  0.1014 -0.1206
  263MOL0     C34640   2.343   7.883   1.707 -0.0676  0.2603 -0.6341
  263MOL0     C34641   2.471   7.914   1.757 -0.3308  0.4249  0.3758
  263MOL0     O34642   2.516   7.844   1.862 -0.0329  0.3319  0.8670
  263MOL0     C34643   2.617   7.895   1.945 -0.2331 -0.5446 -0.4785
  263MOL0     C34644   2.621   7.805   2.078 -0.4641  0.1434 -0.1028
  263MOL0     C34645   2.647   7.659   2.052 -0.5842  0.3641  0.2506
  263MOL0     C34646   2.629   7.575   2.184  1.1486  0.3578 -0.5385
  263MOL0     C34647   2.481   7.568   2.212 -0.5118 -0.1779  0.2872
  263MOL0     C34648   2.357   7.550   2.219 -1.0600 -0.0914 -0.4688
  263MOL0     C34649   2.534   8.028   1.711  0.1821  0.4614 -0.0262
  263MOL0     C34650   2.472   8.110   1.623  0.2060  0.6785 -0.5458
  263MOL0     H34651   2.062   8.021   1.196  1.0759  0.0259 -0.0959
  263MOL0     H34652   1.879   8.142   1.055 -1.5322  1.0383 -0.0022
  263MOL0     H34653   1.797   8.600   1.114  0.5449 -0.1738 -0.0394
  263MOL0     H34654   1.725   8.485   1.231 -0.1972  1.5720  0.8909
  263MOL0     H34655   1.551   8.434   1.054 -1.7061  0.2673 -1.5581
  263MOL0     H34656   1.612   8.576   0.957  2.0451  1.2912  0.9149
  263MOL0     H34657   1.530   8.593   1.251 -0.9172 -1.1776 -0.4522
  263MOL0     H34658   1.416   8.602   1.119 -0.5554 -0.4553  1.5254
  263MOL0     H34659   1.641   8.793   1.106 -0.0045  0.9535 -1.7151
  263MOL0     H34660   1.473   8.798   1.035  1.1355  3.3857  0.5537
  263MOL0     H34661   1.553   8.815   1.328  0.3331 -1.4588 -1.1254
  263MOL0     H34662   1.391   8.787   1.271  1.1840 -1.4800 -1.0658
  263MOL0     H34663   1.390   8.996   1.158  1.5601 -0.9013  0.1006
  263MOL0     H34664   1.560   9.014   1.167  0.9372 -1.3829  0.4561
  263MOL0     H34665   1.378   9.015   1.414 -0.1080 -0.3136 -0.0796
  263MOL0     H34666   1.546   9.037   1.423  0.4736  0.7856 -0.7013
  263MOL0     H34667   1.521   9.244   1.282 -1.1856  2.0089 -1.3342
  263MOL0     H34668   1.414   9.263   1.424 -2.2950 -0.8439  0.5159
  263MOL0     H34669   1.151   9.207   1.403 -2.0911 -0.1232 -0.7966
  263MOL0     H34670   0.943   9.197   1.099 -0.8523  1.2719 -1.0164
  263MOL0     H34671   0.939   9.366   1.145  1.2018 -0.5675 -0.7708
  263MOL0     H34672   0.785   9.299   1.309  0.4956  1.5323  2.4248
  263MOL0     H34673   0.924   9.282   1.401  1.9629  0.4264 -0.9875
  263MOL0     H34674   0.762   9.078   1.265  1.1373 -0.7823 -0.4772
  263MOL0     H34675   0.926   9.040   1.334  0.3140  0.2297 -0.8084
  263MOL0     H34676   0.720   9.164   1.517  0.1601  1.3137 -0.9974
  263MOL0     H34677   0.856   9.050   1.545 -0.0729  0.2205  0.0437
  263MOL0     H34678   0.492   8.818   1.420  1.1602 -0.1981  1.0230
  263MOL0     H34679   0.281   8.800   1.526 -0.2863  1.3447 -1.7017
  263MOL0     H34680   0.086   8.863   1.999 -0.5876 -2.8193  2.2400
  263MOL0     H34681  -0.119   8.791   2.106 -0.9409  2.0068 -0.9874
  263MOL0     H34682  -0.411   8.747   1.978  2.1439  1.3391 -0.9610
  263MOL0     H34683  -0.343   8.735   2.142 -1.4527  0.8602  0.7072
  263MOL0     H34684  -0.465   8.532   2.204  0.9834 -0.5912 -0.1684
  263MOL0     H34685  -0.535   8.525   2.044 -0.6133  0.4643  1.4304
  263MOL0     H34686  -0.641   8.753   2.082 -1.1548 -0.8673  0.0986
  263MOL0     H34687  -0.592   8.763   2.247  1.9484  0.4290 -0.8955
  263MOL0     H34688  -0.741   8.531   2.147  1.1022 -0.6115  0.0984
  263MOL0     H34689  -0.698   8.572   2.317 -0.8384 -0.8298  0.3062
  263MOL0     H34690  -0.866   8.770   2.160 -1.4120  1.9521  1.9650
  263MOL0     H34691  -0.823   8.756   2.330  0.0758  0.3635 -1.1336
  263MOL0     H34692  -0.957   8.550   2.333  0.3890 -0.8405 -0.1993
  263MOL0     H34693  -0.986   8.559   2.158  1.1175  0.6345 -0.4384
  263MOL0     H34694  -1.069   8.776   2.350  1.1805  0.7228 -0.7398
  263MOL0     H34695  -1.096   8.781   2.180  3.8324  1.1188  0.1841
  263MOL0     H34696  -1.209   8.578   2.383  1.4784  0.8004  0.2633
  263MOL0     H34697  -1.249   8.571   2.214 -2.6752 -0.5923  1.2770
  263MOL0     H34698  -0.199   8.542   1.763 -1.3426  0.5638  1.9086
  263MOL0     H34699  -0.013   8.666   1.631 -0.5294  1.8915 -0.2180
  263MOL0     H34700   0.393   9.142   1.776  1.4459  0.2228  1.4337
  263MOL0     H34701   0.618   9.136   1.677  2.4192 -2.1640  0.4195
  263MOL0     H34702   1.977   8.508   1.244  2.2314 -0.1288  1.2775
  263MOL0     H34703   2.159   8.411   1.369  0.4480  0.2265 -0.1044
  263MOL0     H34704   2.189   7.917   1.557  1.3987 -0.9450 -3.0363
  263MOL0     H34705   2.289   7.797   1.746  2.3425 -1.0964 -0.1402
  263MOL0     H34706   2.605   8.001   1.970 -2.4377 -1.2918  1.9955
  263MOL0     H34707   2.719   7.893   1.903 -0.1725  1.2331 -0.5080
  263MOL0     H34708   2.694   7.857   2.140 -1.2771  0.6096  0.4889
  263MOL0     H34709   2.525   7.812   2.131 -0.3134 -0.4291  0.2551
  263MOL0     H34710   2.754   7.658   2.030 -1.0820  1.2059 -2.5494
  263MOL0     H34711   2.588   7.611   1.973  0.7270 -2.3994  0.8145
  263MOL0     H34712   2.668   7.473   2.176 -0.9891 -0.5146 -0.4100
  263MOL0     H34713   2.687   7.632   2.257 -1.7692  3.4012 -0.3448
  263MOL0     H34714   2.251   7.535   2.224 -0.9366 -1.4868 -1.2557
  263MOL0     H34715   2.630   8.068   1.741  1.0330  0.1871 -2.2352
  263MOL0     H34716   2.524   8.200   1.592  0.6825  1.1865  1.5894
  264MOL0     O34717  10.024   1.496   8.123  0.3109  0.6132  0.6207
  264MOL0     C34718  10.083   1.385   8.121  0.5109 -0.0117  0.3415
  264MOL0     O34719  10.217   1.365   8.097  0.3677  0.7227  0.3685
  264MOL0     C34720  10.311   1.465   8.088  0.3837 -0.6727  0.5099
  264MOL0     C34721  10.446   1.426   8.093  1.3640 -0.3673  0.6997
  264MOL0     C34722  10.549   1.521   8.097  0.3303  0.2068  0.7689
  264MOL0     C34723  10.517   1.657   8.086 -0.1409 -0.0800  0.3200
  264MOL0     O34724  10.613   1.755   8.081  0.3564  0.4262  0.2201
  264MOL0     C34725  10.750   1.735   8.074  0.1215  0.6436 -0.4874
  264MOL0     C34726  10.822   1.878   8.084  0.0118  0.6505 -0.5723
  264MOL0     C34727  10.972   1.879   8.059 -0.9470  0.7309  0.1859
  264MOL0     C34728  11.018   2.018   8.041  0.5831  0.5005 -0.5709
  264MOL0     C34729  11.168   2.042   8.018  0.3793  0.1123  0.3840
  264MOL0     C34730  11.260   2.004   8.134 -0.0594  0.4031  0.1257
  264MOL0     C34731  11.247   2.099   8.261 -0.1215  0.2989  1.1233
  264MOL0     C34732  11.300   2.023   8.380  0.3220  0.0106  0.5817
  264MOL0     N34733  11.182   1.957   8.453 -1.2081 -0.2030  0.0351
  264MOL0     C34734  11.074   2.026   8.504  0.7168  0.4403 -0.1876
  264MOL0     C34735  10.991   1.927   8.542 -0.1198 -0.6642 -0.3485
  264MOL0     C34736  10.855   1.942   8.580  0.8915 -0.0195 -0.3570
  264MOL0     C34737  10.765   1.952   8.458  0.4620 -0.7384 -0.4348
  264MOL0     C34738  10.611   1.965   8.476  0.1085  0.3690  0.1653
  264MOL0     C34739  10.562   1.865   8.577 -0.4669 -0.6274 -0.0733
  264MOL0     O34740  10.623   1.740   8.551 -0.5823  0.0645  0.6160
  264MOL0     C34741  10.534   1.638   8.553  0.4031 -0.5853  0.5575
  264MOL0     C34742  10.485   1.587   8.438 -0.2879 -0.0386 -0.2150
  264MOL0     C34743  10.390   1.487   8.452  0.5926  0.5591 -0.3948
  264MOL0     C34744  10.340   1.434   8.575  0.8600 -0.2210 -0.0322
  264MOL0     C34745  10.247   1.323   8.580  0.0443  0.2681  0.0009
  264MOL0     O34746  10.201   1.300   8.703  0.1567 -0.1003 -0.4011
  264MOL0     C34747  10.120   1.190   8.709  0.1534  0.7278 -0.1660
  264MOL0     C34748  10.164   1.057   8.733 -0.4774  0.0764  0.2491
  264MOL0     C34749  10.081   0.946   8.735 -1.0977 -0.3466 -0.2848
  264MOL0     C34750   9.947   0.957   8.710  0.1806 -0.1423  0.4157
  264MOL0     O34751   9.853   0.853   8.716 -0.4144 -0.1826 -0.1365
  264MOL0     C34752   9.896   0.751   8.801  0.1352  0.3188  0.0934
  264MOL0     C34753   9.794   0.656   8.868 -0.1080 -0.4949  0.2835
  264MOL0     C34754   9.700   0.586   8.764 -0.0734 -0.4381 -0.7429
  264MOL0     C34755   9.585   0.513   8.840 -0.4556 -0.0301 -0.4037
  264MOL0     C34756   9.456   0.593   8.852 -1.1530 -0.0343 -0.4527
  264MOL0     C34757   9.376   0.518   8.957  0.4617  0.4898 -0.0290
  264MOL0     C34758   9.239   0.591   8.980 -0.0508 -0.0615  0.1482
  264MOL0     C34759   9.186   0.552   9.122  0.2059  0.2783  0.0748
  264MOL0    Cl34760   9.011   0.596   9.163  0.1821  0.0387 -0.1923
  264MOL0     C34761   9.893   1.084   8.688 -1.2659 -0.5991 -0.8939
  264MOL0     C34762   9.979   1.196   8.683 -0.2060  0.3014  0.6682
  264MOL0     O34763  10.218   1.258   8.480 -0.7135  0.0770 -0.1388
  264MOL0     C34764  10.394   1.495   8.691  0.4379 -0.4214  0.4180
  264MOL0     C34765  10.489   1.599   8.678 -0.4482  0.2680  0.4304
  264MOL0     N34766  11.046   1.807   8.513  0.6293  0.5858  0.3189
  264MOL0     N34767  11.157   1.823   8.453  0.0064 -0.3624 -0.1462
  264MOL0     C34768  10.388   1.688   8.058  0.2786  0.1141  0.1574
  264MOL0     C34769  10.288   1.598   8.060  0.2168 -0.2661 -0.2674
  264MOL0     C34770  10.001   1.260   8.153  0.4806  0.5086  0.6700
  264MOL0     C34771   9.860   1.262   8.148  0.6673 -0.4431  0.2841
  264MOL0     C34772   9.793   1.147   8.182  0.7653 -0.1688 -0.3386
  264MOL0     C34773   9.849   1.027   8.217 -0.4826  0.5116  0.3857
  264MOL0     O34774   9.773   0.913   8.245  0.0459  0.7716  0.2697
  264MOL0     C34775   9.811   0.840   8.359 -0.2236 -0.0527  0.6373
  264MOL0     C34776   9.685   0.749   8.388 -0.2153 -0.1374 -0.3413
  264MOL0     C34777   9.553   0.821   8.431  0.0569 -0.5323  0.6327
  264MOL0     C34778   9.426   0.733   8.413 -0.3526  0.4505  0.1496
  264MOL0     C34779   9.424   0.597   8.466 -0.6892 -0.5444 -0.3334
  264MOL0     C34780   9.445   0.490   8.522  0.7428  0.6018  0.1716
  264MOL0     C34781   9.988   1.021   8.206 -0.4464  0.6918  0.1771
  264MOL0     C34782  10.061   1.140   8.176 -0.1329  1.0880  0.8494
  264MOL0     H34783  10.462   1.319   8.080 -1.5601 -0.6422 -2.1537
  264MOL0     H34784  10.652   1.488   8.100 -0.2338 -1.5878  2.7973
  264MOL0     H34785  10.782   1.683   7.983  1.3936 -1.6111  1.1828
  264MOL0     H34786  10.779   1.672   8.158 -0.5200 -1.3624 -1.6949
  264MOL0     H34787  10.792   1.924   8.179  1.5259  0.3738  0.0721
  264MOL0     H34788  10.778   1.939   8.004 -0.7981  1.3179  0.3568
  264MOL0     H34789  10.986   1.832   7.961  1.3012 -0.1400  0.8663
  264MOL0     H34790  11.039   1.829   8.131 -0.3078 -0.8149 -1.4002
  264MOL0     H34791  10.969   2.064   7.955  3.4670  0.9989 -2.0641
  264MOL0     H34792  10.995   2.072   8.133  1.0739  0.0767 -0.1917
  264MOL0     H34793  11.185   2.144   7.982  2.3756  0.2071  1.4816
  264MOL0     H34794  11.194   1.973   7.937 -0.3786 -2.4522  2.2153
  264MOL0     H34795  11.359   2.003   8.088 -1.1172 -2.0011 -2.3638
  264MOL0     H34796  11.229   1.904   8.165  1.3700  0.5163  2.1678
  264MOL0     H34797  11.310   2.187   8.243 -0.2859  0.1948 -0.0234
  264MOL0     H34798  11.143   2.127   8.280  0.0176  1.3837  0.3964
  264MOL0     H34799  11.356   2.089   8.447 -1.3066  1.2823  0.7548
  264MOL0     H34800  11.362   1.938   8.353 -1.4570 -1.2005  0.0836
  264MOL0     H34801  11.062   2.133   8.489  1.5299  0.1713 -3.8817
  264MOL0     H34802  10.838   2.019   8.655  1.8667  1.7447 -1.8693
  264MOL0     H34803  10.841   1.852   8.642  0.4689  0.2392 -0.0747
  264MOL0     H34804  10.788   1.864   8.397 -1.5381  0.0999 -2.5731
  264MOL0     H34805  10.806   2.033   8.397  0.1210 -1.2876 -1.4165
  264MOL0     H34806  10.585   2.069   8.495  0.2373  0.7113 -1.3565
  264MOL0     H34807  10.565   1.942   8.379 -2.3209 -0.2630  1.3641
  264MOL0     H34808  10.453   1.865   8.566 -0.3771  2.3009 -2.2577
  264MOL0     H34809  10.593   1.891   8.678  0.9931 -1.3872 -0.2927
  264MOL0     H34810  10.518   1.612   8.338  0.5011  0.2417  0.1092
  264MOL0     H34811  10.361   1.435   8.361  4.4369 -1.6554 -0.5751
  264MOL0     H34812  10.271   1.040   8.748 -0.8073 -0.3424  2.5731
  264MOL0     H34813  10.116   0.846   8.757  0.1361 -0.2965 -1.8645
  264MOL0     H34814   9.927   0.805   8.891  0.0830  0.5680 -0.0376
  264MOL0     H34815   9.981   0.692   8.766  1.3952 -0.8921  4.5207
  264MOL0     H34816   9.731   0.727   8.923 -0.1583  1.6650 -2.3191
  264MOL0     H34817   9.845   0.578   8.925  1.4094  0.0397 -0.2851
  264MOL0     H34818   9.756   0.515   8.702  0.6992 -0.9392  0.5011
  264MOL0     H34819   9.660   0.660   8.694 -1.2900  1.2576  1.6212
  264MOL0     H34820   9.545   0.423   8.792 -1.0884  0.2768 -0.4555
  264MOL0     H34821   9.621   0.485   8.940  2.0613 -0.4011 -1.3228
  264MOL0     H34822   9.409   0.589   8.753  1.1340 -1.7240 -1.5788
  264MOL0     H34823   9.492   0.695   8.871  2.6075 -1.6716  2.6093
  264MOL0     H34824   9.431   0.506   9.050  1.8543 -0.4501 -0.9402
  264MOL0     H34825   9.366   0.413   8.929  0.5510  0.1803  1.0626
  264MOL0     H34826   9.253   0.699   8.987  0.0508  0.1331 -2.2276
  264MOL0     H34827   9.166   0.559   8.904  3.4611 -0.9732 -3.1977
  264MOL0     H34828   9.253   0.591   9.199 -0.2133 -2.4744  2.0009
  264MOL0     H34829   9.209   0.446   9.136 -0.8108  0.1340  0.7540
  264MOL0     H34830   9.785   1.089   8.678 -1.5487  1.3730  1.8246
  264MOL0     H34831   9.941   1.291   8.647 -2.1751 -0.9162 -0.6578
  264MOL0     H34832  10.361   1.468   8.791 -1.1501 -2.0408 -0.4861
  264MOL0     H34833  10.529   1.632   8.773 -0.2952 -1.6115  1.0694
  264MOL0     H34834  10.367   1.789   8.023  0.8515 -0.4089 -1.8562
  264MOL0     H34835  10.189   1.635   8.034  0.8608  1.7599  0.0426
  264MOL0     H34836   9.805   1.354   8.132  1.1041  0.4227  3.1617
  264MOL0     H34837   9.685   1.154   8.171  0.5468  2.1318  2.2290
  264MOL0     H34838   9.819   0.907   8.445 -0.0268  2.3253 -1.1509
  264MOL0     H34839   9.903   0.784   8.340  1.5413  2.7941  0.1842
  264MOL0     H34840   9.680   0.694   8.294  2.7517  2.5116 -2.2613
  264MOL0     H34841   9.715   0.680   8.468  1.6045 -0.0347 -0.8812
  264MOL0     H34842   9.538   0.914   8.376  1.4810  0.6488  2.1391
  264MOL0     H34843   9.556   0.847   8.537 -2.3692 -0.8273  0.8320
  264MOL0     H34844   9.341   0.788   8.454  1.5940  0.9049  4.0812
  264MOL0     H34845   9.397   0.725   8.308 -1.5986  1.2134  0.4157
  264MOL0     H34846   9.461   0.403   8.582 -1.1729  0.6721  0.8753
  264MOL0     H34847  10.036   0.926   8.223 -1.1331 -0.0314 -1.6669
  264MOL0     H34848  10.170   1.143   8.178 -0.1315  0.9016  1.4983
  265MOL0     O34849   5.728   5.835   0.653 -0.4974 -0.1569 -0.1795
  265MOL0     C34850   5.798   5.842   0.550 -0.0808 -0.4585 -0.2184
  265MOL0     O34851   5.924   5.895   0.542  0.2088 -0.1871 -0.8711
  265MOL0     C34852   5.993   5.929   0.660  0.2366 -0.8150 -0.5499
  265MOL0     C34853   6.115   5.869   0.680  0.3817 -0.2651 -0.1571
  265MOL0     C34854   6.202   5.903   0.781  0.0440 -1.2346 -0.2915
  265MOL0     C34855   6.172   6.016   0.859  0.9162 -0.2968 -0.2667
  265MOL0     O34856   6.251   6.072   0.962  0.3584  0.8395 -0.6441
  265MOL0     C34857   6.367   6.001   1.016  0.1113 -0.5317  0.0364
  265MOL0     C34858   6.328   5.885   1.108 -0.2251  0.0888 -0.0518
  265MOL0     C34859   6.443   5.833   1.199  0.4106 -0.4049 -0.7375
  265MOL0     C34860   6.404   5.715   1.290 -0.5664  0.5450 -0.5106
  265MOL0     C34861   6.522   5.630   1.331 -0.3332 -0.2746  0.2201
  265MOL0     C34862   6.640   5.706   1.387 -0.0473 -0.6818  0.2324
  265MOL0     C34863   6.768   5.628   1.400  0.8863  0.0538  0.3965
  265MOL0     C34864   6.871   5.702   1.483 -0.5557 -0.4422  0.1012
  265MOL0     N34865   6.993   5.628   1.508  0.1059 -0.1605  0.1305
  265MOL0     C34866   7.054   5.537   1.428 -0.9907 -0.5081  0.7878
  265MOL0     C34867   7.151   5.472   1.496 -0.1665 -0.8811  0.5548
  265MOL0     C34868   7.248   5.387   1.423 -0.3691 -0.0678 -0.0823
  265MOL0     C34869   7.325   5.291   1.502  0.3638 -0.3803 -0.1486
  265MOL0     C34870   7.444   5.231   1.417 -0.0714 -0.2218 -0.7342
  265MOL0     C34871   7.411   5.142   1.303 -0.1402  0.3725 -0.3579
  265MOL0     O34872   7.512   5.082   1.221 -0.2818 -0.1014 -0.1011
  265MOL0     C34873   7.609   5.003   1.276 -0.8827 -0.4131  0.5100
  265MOL0     C34874   7.603   4.935   1.392 -0.4795  0.4137  0.6357
  265MOL0     C34875   7.710   4.848   1.427 -0.4453  0.0352 -0.7179
  265MOL0     C34876   7.831   4.840   1.358 -0.3911  0.8068 -0.7782
  265MOL0     C34877   7.937   4.748   1.397 -0.4547 -0.2645 -0.3258
  265MOL0     O34878   8.057   4.778   1.341  0.2405  0.4928  0.5424
  265MOL0     C34879   8.180   4.702   1.358  0.5665  0.0778  0.0895
  265MOL0     C34880   8.301   4.776   1.331  0.5766  0.0283  0.6566
  265MOL0     C34881   8.426   4.705   1.339  0.3063 -0.4496  0.3358
  265MOL0     C34882   8.443   4.580   1.397  0.3404 -0.5233 -1.0723
  265MOL0     O34883   8.567   4.531   1.430  0.5776  0.4568 -0.2744
  265MOL0     C34884   8.571   4.391   1.470 -0.0144  0.3106  0.1109
  265MOL0     C34885   8.698   4.332   1.397 -0.3902 -0.3180  0.0862
  265MOL0     C34886   8.815   4.408   1.460 -0.6059  0.6623  0.3089
  265MOL0     C34887   8.952   4.339   1.433  0.8328  0.7176  0.8588
  265MOL0     C34888   9.069   4.407   1.500  1.0034 -0.0998 -0.6446
  265MOL0     C34889   9.202   4.338   1.471  0.0827 -0.8152  0.0533
  265MOL0     C34890   9.342   4.385   1.536  0.1756 -1.1751 -0.1449
  265MOL0     C34891   9.466   4.307   1.466  0.8420  0.1925 -0.5963
  265MOL0    Cl34892   9.439   4.129   1.491  0.2774  0.1421 -0.4063
  265MOL0     C34893   8.320   4.519   1.441 -0.9263 -0.2383  0.0258
  265MOL0     C34894   8.197   4.573   1.412 -0.4744  0.2391  0.2125
  265MOL0     O34895   7.920   4.664   1.480 -0.3544  0.7407 -1.0816
  265MOL0     C34896   7.836   4.923   1.245  0.1131  0.3942 -0.4487
  265MOL0     C34897   7.736   5.005   1.204  0.3129  0.8292 -0.0915
  265MOL0     N34898   7.156   5.528   1.617  0.2707  0.5272 -0.2962
  265MOL0     N34899   7.055   5.607   1.634 -0.3582 -0.1517 -0.1795
  265MOL0     C34900   6.052   6.087   0.832  0.0732  0.3193  0.3885
  265MOL0     C34901   5.964   6.047   0.733 -0.2500 -1.3521 -0.8108
  265MOL0     C34902   5.735   5.799   0.429 -0.1942 -0.3837 -0.4091
  265MOL0     C34903   5.598   5.795   0.418 -1.0605 -0.1581  0.1927
  265MOL0     C34904   5.546   5.749   0.296  0.0267  0.7003 -0.2698
  265MOL0     C34905   5.623   5.705   0.184 -0.7986  0.2341  0.3101
  265MOL0     O34906   5.578   5.653   0.069 -0.1955  0.4253  0.7100
  265MOL0     C34907   5.468   5.720   0.014  0.4759 -0.1306 -0.2289
  265MOL0     C34908   5.463   5.697  -0.143 -0.7652 -0.2622  0.1090
  265MOL0     C34909   5.323   5.707  -0.214  0.0278 -0.1730 -0.9687
  265MOL0     C34910   5.240   5.840  -0.197  0.0461  0.6971 -0.1360
  265MOL0     C34911   5.187   5.847  -0.063  0.4315  0.0836  0.4052
  265MOL0     C34912   5.136   5.823   0.046 -0.2162  0.4540 -0.0746
  265MOL0     C34913   5.760   5.706   0.200  0.5255 -0.3173 -0.6626
  265MOL0     C34914   5.816   5.762   0.316  0.2068 -0.1050 -0.4982
  265MOL0     H34915   6.140   5.789   0.612 -2.3562 -1.1745 -0.2036
  265MOL0     H34916   6.295   5.852   0.804  0.4079 -1.6621 -2.5629
  265MOL0     H34917   6.420   6.085   1.062  0.2123  0.9380 -2.5921
  265MOL0     H34918   6.434   5.969   0.936  1.6130 -1.1452  1.4789
  265MOL0     H34919   6.289   5.808   1.041 -0.0595  0.5491 -0.6868
  265MOL0     H34920   6.248   5.925   1.171 -0.0488  0.6701 -0.1911
  265MOL0     H34921   6.482   5.909   1.266 -2.0507 -0.8157  1.3247
  265MOL0     H34922   6.530   5.810   1.136  0.9054 -0.2866 -0.1027
  265MOL0     H34923   6.354   5.754   1.379  2.4894 -0.2961  1.7621
  265MOL0     H34924   6.326   5.649   1.249  0.3651 -2.1516  1.6965
  265MOL0     H34925   6.552   5.590   1.233  3.2143 -1.5886  1.6800
  265MOL0     H34926   6.502   5.543   1.394 -1.9728 -1.4667 -1.7966
  265MOL0     H34927   6.607   5.751   1.481 -1.7588 -1.0922 -0.1399
  265MOL0     H34928   6.668   5.787   1.319  0.6469 -0.7641  0.4137
  265MOL0     H34929   6.742   5.539   1.459  0.5262 -0.8843 -1.1141
  265MOL0     H34930   6.812   5.596   1.305 -0.1225  1.4713 -0.5891
  265MOL0     H34931   6.830   5.736   1.578 -0.3080 -2.9399  1.1605
  265MOL0     H34932   6.901   5.794   1.432  1.0873  0.7846  3.0394
  265MOL0     H34933   7.038   5.515   1.323  4.0076  1.6836 -0.7296
  265MOL0     H34934   7.312   5.460   1.373 -3.9328  1.9005 -2.1731
  265MOL0     H34935   7.190   5.342   1.342  0.8986  0.3810 -1.2713
  265MOL0     H34936   7.261   5.207   1.532 -0.2410  0.2173  0.2749
  265MOL0     H34937   7.369   5.343   1.587  1.6020  1.2249 -1.6749
  265MOL0     H34938   7.520   5.302   1.383 -0.8443  0.3332 -1.3335
  265MOL0     H34939   7.499   5.169   1.488 -2.7553 -1.2488  0.5498
  265MOL0     H34940   7.340   5.194   1.237 -1.9486 -1.9934 -0.4329
  265MOL0     H34941   7.352   5.063   1.349 -2.1534  0.2826 -2.8609
  265MOL0     H34942   7.518   4.932   1.459 -0.3578 -0.0707  0.7751
  265MOL0     H34943   7.699   4.794   1.520 -2.4276  0.2738 -0.7730
  265MOL0     H34944   8.296   4.872   1.282  0.6837 -0.3583 -0.1201
  265MOL0     H34945   8.510   4.765   1.307  1.3011 -1.6067  0.7196
  265MOL0     H34946   8.491   4.322   1.442  0.0014 -0.8320  2.6379
  265MOL0     H34947   8.595   4.387   1.577  2.2179  0.2622 -0.3322
  265MOL0     H34948   8.693   4.342   1.288  2.2572 -0.0300 -0.0729
  265MOL0     H34949   8.706   4.228   1.428 -2.2053  0.0273  1.9757
  265MOL0     H34950   8.807   4.421   1.568 -0.4496  1.7345  0.2061
  265MOL0     H34951   8.812   4.508   1.415 -0.8441 -0.5255 -2.5940
  265MOL0     H34952   8.932   4.236   1.465 -2.1373 -0.0761 -2.8710
  265MOL0     H34953   8.981   4.331   1.328 -0.3231  0.9318  0.5076
  265MOL0     H34954   9.059   4.404   1.609  0.5598 -0.5177 -0.6897
  265MOL0     H34955   9.070   4.510   1.464 -1.9073  1.0670  2.1274
  265MOL0     H34956   9.218   4.348   1.363 -2.5557  0.7957 -0.2844
  265MOL0     H34957   9.196   4.230   1.486 -0.9232 -0.5764  1.5428
  265MOL0     H34958   9.349   4.493   1.528  1.8270 -0.8966  3.3724
  265MOL0     H34959   9.344   4.359   1.643 -0.7223  1.8198  0.6935
  265MOL0     H34960   9.567   4.329   1.503  0.7359  0.2815 -0.3570
  265MOL0     H34961   9.475   4.320   1.358  3.5708 -1.5865 -0.6933
  265MOL0     H34962   8.306   4.426   1.496 -4.8216  0.6090  0.7385
  265MOL0     H34963   8.106   4.517   1.434 -0.6385 -0.9992 -3.1067
  265MOL0     H34964   7.931   4.913   1.194 -0.3885 -2.4518 -0.9969
  265MOL0     H34965   7.749   5.066   1.115  3.3943  0.9119  0.2937
  265MOL0     H34966   6.018   6.172   0.889  0.3803 -0.1202  1.2503
  265MOL0     H34967   5.877   6.109   0.715 -0.6318 -1.1740  1.3825
  265MOL0     H34968   5.532   5.832   0.496 -0.4033 -1.1703  1.2618
  265MOL0     H34969   5.438   5.751   0.287 -0.1164 -1.3705  0.3818
  265MOL0     H34970   5.469   5.827   0.035 -3.2656  0.1274 -0.6791
  265MOL0     H34971   5.380   5.671   0.056  2.3104 -3.0779  0.4379
  265MOL0     H34972   5.542   5.756  -0.192 -0.2593 -0.5411  0.5760
  265MOL0     H34973   5.501   5.596  -0.161  0.1883 -0.0815  1.0434
  265MOL0     H34974   5.272   5.616  -0.183  1.2384 -0.5695 -0.0718
  265MOL0     H34975   5.339   5.695  -0.322  2.5550  1.9462 -0.9349
  265MOL0     H34976   5.297   5.928  -0.229 -2.6027  2.2112 -0.9905
  265MOL0     H34977   5.160   5.848  -0.271 -0.2955 -0.9870  0.0023
  265MOL0     H34978   5.091   5.797   0.139  2.4639  2.3251  1.8650
  265MOL0     H34979   5.820   5.683   0.113  0.7610  0.1125 -0.6175
  265MOL0     H34980   5.922   5.781   0.321 -0.0484  1.3551 -0.1475
  266MOL0     O34981   0.271   1.126   8.259  0.2054  0.0661 -0.1289
  266MOL0     C34982   0.302   1.196   8.164 -0.1298  0.3408  0.4390
  266MOL0     O34983   0.257   1.177   8.038 -0.0602  1.0584 -0.2393
  266MOL0     C34984   0.151   1.094   8.023 -0.4267 -0.2561 -1.0021
  266MOL0     C34985   0.172   0.958   7.986 -0.0197 -0.3994 -0.0617
  266MOL0     C34986   0.067   0.871   7.961  0.9195  0.0680 -0.2194
  266MOL0     C34987  -0.064   0.918   7.978  0.2586  1.4933 -0.2792
  266MOL0     O34988  -0.163   0.821   7.956 -0.0620  0.3484 -0.1264
  266MOL0     C34989  -0.295   0.867   7.939 -0.1299  0.1294  0.4574
  266MOL0     C34990  -0.395   0.756   7.967  1.0806  0.4991 -0.3858
  266MOL0     C34991  -0.539   0.809   7.954  0.3811 -0.5357 -1.0766
  266MOL0     C34992  -0.632   0.696   7.995 -0.0578 -0.0952  0.8940
  266MOL0     C34993  -0.779   0.736   7.991 -0.2554  0.4012 -0.3736
  266MOL0     C34994  -0.869   0.646   8.081 -0.7232 -0.6180 -0.2210
  266MOL0     C34995  -1.009   0.701   8.094 -0.5873  0.3808  0.6986
  266MOL0     C34996  -1.078   0.670   7.959  0.0228  0.2672  1.1148
  266MOL0     N34997  -1.223   0.683   7.963 -0.0949  0.6534  0.4220
  266MOL0     C34998  -1.318   0.594   7.995  0.2679  0.5684 -0.3280
  266MOL0     C34999  -1.434   0.646   7.965  0.3684 -0.5863  0.0637
  266MOL0     C35000  -1.555   0.555   7.978 -0.2301 -0.5816  0.6387
  266MOL0     C35001  -1.684   0.638   7.959  0.3330  0.0822 -0.5977
  266MOL0     C35002  -1.799   0.545   8.000 -0.5163 -0.6710 -0.1321
  266MOL0     C35003  -1.936   0.610   7.983  0.7919 -0.1795  0.7945
  266MOL0     O35004  -2.043   0.518   7.995  0.1382  0.5163 -0.4826
  266MOL0     C35005  -2.168   0.572   7.972  0.2028  0.5399 -0.1864
  266MOL0     C35006  -2.188   0.710   7.946  0.3780 -0.5301  0.6979
  266MOL0     C35007  -2.325   0.764   7.924 -0.5164  0.0955 -0.2313
  266MOL0     C35008  -2.433   0.675   7.908 -0.3317 -0.4978  0.3979
  266MOL0     C35009  -2.568   0.722   7.892  0.1414  0.2526 -0.0460
  266MOL0     O35010  -2.655   0.624   7.858  1.0526  0.5603  0.0723
  266MOL0     C35011  -2.782   0.662   7.840 -0.1689 -0.4004  0.5532
  266MOL0     C35012  -2.820   0.734   7.733 -0.1328  0.6137  0.8582
  266MOL0     C35013  -2.955   0.742   7.707  0.1896  0.3197 -0.4558
  266MOL0     C35014  -3.055   0.678   7.781  0.2195  0.1349  0.5053
  266MOL0     O35015  -3.182   0.694   7.731  0.3046 -1.0651  1.3770
  266MOL0     C35016  -3.297   0.658   7.807  0.4383  0.5679 -0.0935
  266MOL0     C35017  -3.423   0.695   7.744 -0.3149  0.8521  0.8752
  266MOL0     C35018  -3.453   0.599   7.626  0.0002  0.0008  0.5203
  266MOL0     C35019  -3.607   0.595   7.592 -0.0895 -0.4729 -0.4060
  266MOL0     C35020  -3.633   0.548   7.444 -0.2892  0.9338 -0.4923
  266MOL0     C35021  -3.779   0.546   7.415 -0.2142 -0.3577  0.0397
  266MOL0     C35022  -3.807   0.488   7.275  0.3421  0.9286  0.9218
  266MOL0     C35023  -3.727   0.553   7.158 -0.3766  0.4610  0.0945
  266MOL0    Cl35024  -3.777   0.477   7.002  0.6006 -0.3791  0.3261
  266MOL0     C35025  -3.014   0.621   7.900  0.7535 -0.9843 -0.6112
  266MOL0     C35026  -2.875   0.622   7.929 -0.1744 -0.1943  0.1843
  266MOL0     O35027  -2.601   0.836   7.925 -0.2844  0.1020 -0.7935
  266MOL0     C35028  -2.401   0.537   7.915 -1.0714  0.2934 -0.0838
  266MOL0     C35029  -2.278   0.491   7.946 -0.2185 -0.2558 -0.4470
  266MOL0     N35030  -1.413   0.778   7.927 -0.4203  0.6035  0.4609
  266MOL0     N35031  -1.286   0.791   7.915  0.0907 -0.8525 -0.1599
  266MOL0     C35032  -0.086   1.051   8.022  0.3990 -0.8962  0.8305
  266MOL0     C35033   0.017   1.132   8.047 -0.1114  0.1132 -0.0629
  266MOL0     C35034   0.381   1.316   8.192 -0.1336 -0.6599  0.1776
  266MOL0     C35035   0.366   1.392   8.306 -0.9429 -0.2818 -0.1492
  266MOL0     C35036   0.439   1.506   8.334 -0.1807 -0.1659 -0.1715
  266MOL0     C35037   0.527   1.556   8.243 -0.0795  0.3733  0.5464
  266MOL0     O35038   0.610   1.667   8.262  0.6604 -0.2012  0.7317
  266MOL0     C35039   0.626   1.725   8.393 -0.3063  1.0260  0.1775
  266MOL0     C35040   0.694   1.862   8.381  0.4969 -1.0228 -0.1407
  266MOL0     C35041   0.619   1.968   8.295 -0.0713 -0.6684  0.8219
  266MOL0     C35042   0.475   1.995   8.328 -0.1505  0.4872 -0.5325
  266MOL0     C35043   0.424   2.088   8.233  1.0475 -0.6966 -0.1379
  266MOL0     C35044   0.385   2.167   8.158 -0.0270  0.2406  0.6288
  266MOL0     C35045   0.543   1.481   8.124  0.2719 -0.3533  0.5735
  266MOL0     C35046   0.466   1.366   8.096  0.7713  0.5385  0.4410
  266MOL0     H35047   0.275   0.924   7.979 -0.2290 -0.8058 -1.4886
  266MOL0     H35048   0.080   0.770   7.924  0.9561 -0.8425  2.1567
  266MOL0     H35049  -0.301   0.901   7.835 -2.4487  2.0474  1.1309
  266MOL0     H35050  -0.325   0.948   8.006 -0.5015 -0.0699  0.5331
  266MOL0     H35051  -0.383   0.717   8.068 -0.7554 -0.8233 -0.6259
  266MOL0     H35052  -0.369   0.668   7.906 -1.8132  0.3832 -1.6214
  266MOL0     H35053  -0.565   0.828   7.850 -0.5018 -2.6290 -1.3019
  266MOL0     H35054  -0.544   0.894   8.023  0.3960 -1.5314  0.1837
  266MOL0     H35055  -0.623   0.603   7.938 -1.0575 -0.1167  0.7532
  266MOL0     H35056  -0.605   0.671   8.098  1.4157 -1.2663  0.2715
  266MOL0     H35057  -0.813   0.722   7.888  3.3206 -0.1405 -1.6228
  266MOL0     H35058  -0.801   0.840   8.014  1.6804  0.6061  0.8179
  266MOL0     H35059  -0.830   0.646   8.183  0.8171  0.7089 -0.7468
  266MOL0     H35060  -0.855   0.543   8.047  2.9941 -0.1916 -0.4206
  266MOL0     H35061  -1.063   0.646   8.172 -0.1041 -0.5414  0.3999
  266MOL0     H35062  -1.006   0.807   8.119 -0.8890  0.2756  1.1925
  266MOL0     H35063  -1.053   0.566   7.939  1.0447  0.8202 -0.6450
  266MOL0     H35064  -1.030   0.731   7.882 -1.2322 -2.9417 -2.4899
  266MOL0     H35065  -1.316   0.493   8.036 -0.2074  0.9421  0.6468
  266MOL0     H35066  -1.555   0.498   8.071 -0.4575 -2.7048 -0.6058
  266MOL0     H35067  -1.547   0.476   7.903  2.4523  0.5282 -0.3929
  266MOL0     H35068  -1.702   0.682   7.860  1.3701  3.3682  0.5418
  266MOL0     H35069  -1.680   0.728   8.020 -0.7438  0.0498 -0.4619
  266MOL0     H35070  -1.797   0.450   7.945 -1.6718 -0.8177  0.0405
  266MOL0     H35071  -1.790   0.522   8.106  0.2140  0.4047  0.0540
  266MOL0     H35072  -1.932   0.658   7.885  3.6758  2.8469  2.1800
  266MOL0     H35073  -1.951   0.694   8.052 -0.3604 -0.0408  0.3976
  266MOL0     H35074  -2.116   0.791   7.953  0.2832 -0.4757  1.0637
  266MOL0     H35075  -2.340   0.870   7.906  1.1955  0.3358 -0.3783
  266MOL0     H35076  -2.744   0.773   7.666  2.9336 -1.4276  2.9322
  266MOL0     H35077  -2.983   0.794   7.616 -1.2328  1.3361  0.5109
  266MOL0     H35078  -3.287   0.703   7.906  5.8919  0.7206 -0.3852
  266MOL0     H35079  -3.290   0.549   7.818 -0.1979  0.5132 -0.1944
  266MOL0     H35080  -3.428   0.796   7.702  1.5525 -0.0734 -1.8615
  266MOL0     H35081  -3.503   0.691   7.818  1.0153 -0.9317  2.3284
  266MOL0     H35082  -3.421   0.496   7.643  0.2050 -0.1861 -0.8656
  266MOL0     H35083  -3.395   0.629   7.538  1.1072  1.5632  1.7059
  266MOL0     H35084  -3.650   0.533   7.672  0.9515 -0.1603  0.4189
  266MOL0     H35085  -3.643   0.695   7.616  0.8972 -0.6150  2.0559
  266MOL0     H35086  -3.573   0.459   7.420  0.4003  1.0922  0.5497
  266MOL0     H35087  -3.579   0.621   7.383  0.4556  0.2320 -0.6823
  266MOL0     H35088  -3.809   0.650   7.430  0.3894 -0.3155  1.0508
  266MOL0     H35089  -3.831   0.485   7.489  0.4290  2.2821  2.8563
  266MOL0     H35090  -3.788   0.380   7.271 -0.6681  0.7560  0.2275
  266MOL0     H35091  -3.912   0.485   7.244  1.0395 -2.3657 -1.7080
  266MOL0     H35092  -3.620   0.539   7.179 -0.7489 -0.1711  1.6754
  266MOL0     H35093  -3.750   0.659   7.165  0.4960  0.8081 -1.6331
  266MOL0     H35094  -3.087   0.578   7.968 -0.3439  0.3617 -0.9089
  266MOL0     H35095  -2.851   0.569   8.021 -0.6829  0.1219  0.5048
  266MOL0     H35096  -2.475   0.461   7.891 -1.2593  0.8769 -1.4681
  266MOL0     H35097  -2.265   0.383   7.938  2.2309 -0.0402 -0.3889
  266MOL0     H35098  -0.184   1.095   8.008  0.3729  0.1323  3.6397
  266MOL0     H35099   0.001   1.234   8.082 -0.2417  0.7209 -1.8024
  266MOL0     H35100   0.299   1.359   8.385 -0.7085  1.5177  0.8587
  266MOL0     H35101   0.433   1.549   8.434  2.2569  0.4975 -0.2345
  266MOL0     H35102   0.689   1.662   8.456  4.3117 -0.5313 -5.2006
  266MOL0     H35103   0.527   1.736   8.439 -0.6504 -4.1145  1.2795
  266MOL0     H35104   0.693   1.902   8.482  0.1878 -2.5986  0.5110
  266MOL0     H35105   0.801   1.852   8.361  0.4037 -0.9054 -0.7395
  266MOL0     H35106   0.640   1.928   8.195  0.6836  2.4336 -0.3742
  266MOL0     H35107   0.673   2.063   8.295  0.0184 -0.7151  0.4386
  266MOL0     H35108   0.415   1.903   8.330 -0.6901  0.8201  1.2908
  266MOL0     H35109   0.462   2.045   8.425  1.9592 -0.5045  0.3265
  266MOL0     H35110   0.348   2.238   8.086  0.0011 -0.3742 -0.0032
  266MOL0     H35111   0.621   1.514   8.057 -0.8905  2.0707  0.2899
  266MOL0     H35112   0.469   1.322   7.997  2.7334  1.1943  0.1567
  267MOL0     O35113   4.053   5.613   8.352  0.2728 -0.4239 -0.4260
  267MOL0     C35114   4.153   5.645   8.412  1.1539  0.1411 -0.0293
  267MOL0     O35115   4.162   5.667   8.544 -0.8619 -0.8698  0.5410
  267MOL0     C35116   4.050   5.637   8.617 -0.5059 -0.4164 -0.3280
  267MOL0     C35117   4.042   5.502   8.671 -0.0687  0.4961  1.0664
  267MOL0     C35118   3.924   5.461   8.746 -0.2904 -0.7774 -0.4198
  267MOL0     C35119   3.825   5.554   8.756 -0.2952  0.7676  0.0048
  267MOL0     O35120   3.709   5.502   8.816 -0.5914 -0.0291 -0.2579
  267MOL0     C35121   3.623   5.429   8.723  0.2008 -0.0890 -0.6339
  267MOL0     C35122   3.526   5.347   8.817  0.6898 -0.7006 -0.3271
  267MOL0     C35123   3.451   5.234   8.746  0.4955  0.3950 -0.5914
  267MOL0     C35124   3.397   5.124   8.838  0.0771 -0.5577 -0.0739
  267MOL0     C35125   3.302   5.035   8.760  0.7542 -0.8602  0.2922
  267MOL0     C35126   3.266   4.916   8.840 -0.1140  0.3900  0.4350
  267MOL0     C35127   3.149   4.838   8.781  0.1624  0.0772  0.1453
  267MOL0     C35128   3.177   4.684   8.760  0.4044 -0.6510 -0.8903
  267MOL0     N35129   3.299   4.648   8.687  0.1828 -0.0703  0.2514
  267MOL0     C35130   3.341   4.696   8.564  0.9167  0.4029  0.3238
  267MOL0     C35131   3.463   4.648   8.545 -0.1452  0.7165 -0.2875
  267MOL0     C35132   3.544   4.678   8.421 -0.1932 -0.1304  0.3010
  267MOL0     C35133   3.548   4.829   8.377 -0.1037 -0.6888 -0.0425
  267MOL0     C35134   3.631   4.879   8.258  0.0526  0.6685  0.1389
  267MOL0     C35135   3.776   4.903   8.290  0.5071  0.1076 -0.0362
  267MOL0     O35136   3.847   4.779   8.292 -0.2315  0.3433  0.3413
  267MOL0     C35137   3.975   4.773   8.351 -0.2574 -0.5046 -0.6342
  267MOL0     C35138   4.055   4.662   8.323 -0.0602  0.4464  0.3215
  267MOL0     C35139   4.195   4.669   8.352  0.5735  0.1882  0.7454
  267MOL0     C35140   4.248   4.785   8.403  0.1763  0.5262  0.4317
  267MOL0     C35141   4.396   4.797   8.425  0.2443 -0.4577 -0.1050
  267MOL0     O35142   4.444   4.919   8.487  0.2902  0.4394  0.4617
  267MOL0     C35143   4.578   4.918   8.523 -0.1667  1.4084 -0.0912
  267MOL0     C35144   4.670   4.977   8.444  0.6566 -0.5133 -0.5847
  267MOL0     C35145   4.804   5.000   8.483  0.0308  0.2664  0.1481
  267MOL0     C35146   4.850   4.960   8.610  0.2869 -0.2141  0.3359
  267MOL0     O35147   4.976   4.968   8.659  0.5120  0.6052  0.0576
  267MOL0     C35148   5.069   5.048   8.585 -0.6204  0.1750 -1.1420
  267MOL0     C35149   5.193   5.043   8.658  0.4309 -0.1286 -0.9894
  267MOL0     C35150   5.256   4.905   8.666  0.3683 -0.0717 -0.1464
  267MOL0     C35151   5.309   4.845   8.538 -0.1489 -0.5126 -0.2646
  267MOL0     C35152   5.413   4.734   8.565 -0.1740 -0.1261  0.1729
  267MOL0     C35153   5.521   4.715   8.461  0.0145  0.3927 -0.0230
  267MOL0     C35154   5.484   4.641   8.340  0.5799  0.0019 -0.0805
  267MOL0     C35155   5.595   4.634   8.241  0.0049  0.3471  0.1694
  267MOL0    Cl35156   5.761   4.579   8.285 -0.2296  0.0608  0.5065
  267MOL0     C35157   4.754   4.907   8.696  0.7758  0.1834 -0.3209
  267MOL0     C35158   4.614   4.888   8.654  0.1075 -0.2061  0.8272
  267MOL0     O35159   4.460   4.705   8.390  0.1742  0.4726 -0.1894
  267MOL0     C35160   4.167   4.889   8.435  0.8169  0.9657 -0.5606
  267MOL0     C35161   4.032   4.879   8.421 -0.2728 -0.6402 -0.7132
  267MOL0     N35162   3.490   4.566   8.656  0.0979 -0.5367  0.1820
  267MOL0     N35163   3.390   4.561   8.739 -0.5380  0.0667 -0.0035
  267MOL0     C35164   3.835   5.688   8.713  0.5744 -0.1602  0.6152
  267MOL0     C35165   3.945   5.729   8.641  0.5495  0.4378  0.0803
  267MOL0     C35166   4.274   5.636   8.330 -0.4271 -0.0130 -0.0937
  267MOL0     C35167   4.272   5.569   8.205  0.3986 -0.7363  0.3618
  267MOL0     C35168   4.382   5.563   8.112  0.1624 -0.5054 -0.2685
  267MOL0     C35169   4.500   5.625   8.143 -0.2600  1.0544 -0.0415
  267MOL0     O35170   4.595   5.632   8.046 -0.0506  0.5162  0.3902
  267MOL0     C35171   4.732   5.665   8.080 -0.2853  0.7693 -0.0666
  267MOL0     C35172   4.816   5.597   7.967  0.2366 -0.0087  0.0223
  267MOL0     C35173   4.967   5.624   7.979  0.2450  0.8431  0.8622
  267MOL0     C35174   5.002   5.776   7.940 -0.0902 -0.2409  0.4849
  267MOL0     C35175   5.144   5.782   7.914  0.4938  0.4793  0.1791
  267MOL0     C35176   5.260   5.785   7.903 -0.2500  0.1611 -0.3707
  267MOL0     C35177   4.501   5.689   8.271 -0.7775 -0.8987 -0.3820
  267MOL0     C35178   4.399   5.693   8.361  0.5746  0.6608  0.6694
  267MOL0     H35179   4.112   5.425   8.641 -0.5642 -0.1297  1.4767
  267MOL0     H35180   3.919   5.358   8.781 -0.5272 -0.4749  0.4569
  267MOL0     H35181   3.688   5.357   8.673 -1.4231 -0.8309 -1.7787
  267MOL0     H35182   3.570   5.498   8.657 -0.7432 -0.9639 -0.8095
  267MOL0     H35183   3.456   5.417   8.862  1.1258 -1.3605  1.5040
  267MOL0     H35184   3.600   5.315   8.892  1.4488  2.4199  0.3975
  267MOL0     H35185   3.515   5.195   8.666  0.1145 -2.7891  0.4949
  267MOL0     H35186   3.362   5.263   8.690  1.3687 -3.1624 -4.3319
  267MOL0     H35187   3.474   5.059   8.881 -0.8135 -2.2580 -0.9560
  267MOL0     H35188   3.349   5.175   8.922  0.4436 -2.0871  1.1214
  267MOL0     H35189   3.342   5.007   8.662 -2.6529 -0.2465 -1.4029
  267MOL0     H35190   3.216   5.096   8.734 -0.6340 -1.1507  3.6791
  267MOL0     H35191   3.234   4.948   8.940  2.1897  2.0360  0.7245
  267MOL0     H35192   3.360   4.860   8.849  1.1315  2.3481  0.2779
  267MOL0     H35193   3.068   4.841   8.855  0.4319  3.3191  0.4582
  267MOL0     H35194   3.103   4.887   8.694 -0.1001  0.5775  0.5549
  267MOL0     H35195   3.092   4.646   8.702 -0.4465 -0.0271 -0.0965
  267MOL0     H35196   3.179   4.635   8.858  1.8363  0.7337 -0.1815
  267MOL0     H35197   3.287   4.765   8.501 -1.1119 -0.4095  1.0767
  267MOL0     H35198   3.515   4.625   8.330  1.7457  0.3194 -0.6466
  267MOL0     H35199   3.643   4.633   8.433  0.1824  0.6294  0.1621
  267MOL0     H35200   3.588   4.885   8.462 -1.3566  0.2861 -0.0673
  267MOL0     H35201   3.442   4.856   8.372  0.4334  1.3853 -1.5852
  267MOL0     H35202   3.625   4.817   8.168  0.8425  2.2982 -1.1082
  267MOL0     H35203   3.589   4.977   8.233  2.0484  1.9787  1.5323
  267MOL0     H35204   3.788   4.973   8.373  1.3746 -0.1801  0.0918
  267MOL0     H35205   3.812   4.954   8.200  0.6201 -1.4925 -0.9391
  267MOL0     H35206   4.005   4.577   8.278  0.7181 -1.2372  2.4711
  267MOL0     H35207   4.262   4.586   8.331  2.3324  1.3651  1.4124
  267MOL0     H35208   4.643   5.012   8.345  2.7294  1.6793 -0.4695
  267MOL0     H35209   4.878   5.044   8.417 -0.6070  2.5224  0.8439
  267MOL0     H35210   5.032   5.151   8.578  1.5400  1.1250  0.2154
  267MOL0     H35211   5.090   5.018   8.482  1.7452 -3.8081  0.2601
  267MOL0     H35212   5.177   5.077   8.761  1.5786  0.7636 -1.0683
  267MOL0     H35213   5.269   5.098   8.601  2.4000 -0.0726  1.4736
  267MOL0     H35214   5.178   4.838   8.705 -1.0454  1.1138 -0.8423
  267MOL0     H35215   5.340   4.919   8.735 -1.1242 -0.4652  1.8239
  267MOL0     H35216   5.227   4.803   8.480 -1.5434  3.1905 -1.2031
  267MOL0     H35217   5.354   4.924   8.478 -0.9564 -0.4195 -0.7533
  267MOL0     H35218   5.355   4.642   8.578 -1.2895  0.9044  3.6028
  267MOL0     H35219   5.467   4.746   8.660  1.8671 -0.4731 -0.8692
  267MOL0     H35220   5.604   4.656   8.501  2.1832  1.6004 -2.4618
  267MOL0     H35221   5.564   4.813   8.440 -3.7518  2.1650 -0.3485
  267MOL0     H35222   5.466   4.535   8.362 -2.6041  0.8597  2.1633
  267MOL0     H35223   5.401   4.684   8.284  0.6785  1.6847  1.0237
  267MOL0     H35224   5.608   4.739   8.212  0.7255  1.3663  3.6733
  267MOL0     H35225   5.564   4.579   8.151  0.9794  3.1223 -2.0080
  267MOL0     H35226   4.791   4.867   8.790 -1.6231 -0.5247  0.3965
  267MOL0     H35227   4.547   4.828   8.716 -0.3926 -0.5994 -0.0817
  267MOL0     H35228   4.200   4.987   8.469 -4.1166  1.6542  3.5408
  267MOL0     H35229   3.970   4.961   8.457  0.4973  0.9249 -2.6913
  267MOL0     H35230   3.746   5.747   8.735  1.9939  2.0776  0.7417
  267MOL0     H35231   3.956   5.825   8.592  0.1613 -0.3671 -1.6689
  267MOL0     H35232   4.182   5.526   8.163  0.2797  0.9773 -1.2269
  267MOL0     H35233   4.371   5.522   8.012  1.2312 -1.0600 -0.1674
  267MOL0     H35234   4.767   5.628   8.176 -0.6965  1.9984  0.5765
  267MOL0     H35235   4.739   5.773   8.094 -4.0123  0.8114  3.0652
  267MOL0     H35236   4.804   5.488   7.974  1.4874 -0.1683  0.0289
  267MOL0     H35237   4.784   5.642   7.873  2.2458  1.1827 -0.1580
  267MOL0     H35238   5.013   5.553   7.909 -3.9157 -0.9988 -0.2898
  267MOL0     H35239   5.006   5.605   8.080  0.1491 -1.1304  0.5720
  267MOL0     H35240   4.946   5.813   7.854 -0.9671  0.7752  1.4465
  267MOL0     H35241   4.978   5.836   8.029 -0.6207  0.1174  0.1054
  267MOL0     H35242   5.367   5.784   7.903 -0.2284 -1.7001  0.4805
  267MOL0     H35243   4.589   5.739   8.309 -3.2552  2.7346  1.1605
  267MOL0     H35244   4.423   5.733   8.459 -0.1218  0.5624  0.8906
  268MOL0     O35245   5.492  10.766   2.171 -0.7477  0.5059  1.2948
  268MOL0     C35246   5.511  10.648   2.209 -0.2305  0.6398 -0.4722
  268MOL0     O35247   5.419  10.555   2.229 -0.0391  0.6491 -0.4880
  268MOL0     C35248   5.302  10.572   2.166  0.3762 -0.1413  0.0256
  268MOL0     C35249   5.200  10.630   2.242 -0.0271  0.1355 -0.6604
  268MOL0     C35250   5.073  10.644   2.191  1.3515  0.1796 -1.0158
  268MOL0     C35251   5.048  10.607   2.062  0.2623 -0.4517 -0.0270
  268MOL0     O35252   4.929  10.604   2.007  0.1639  0.8591  0.5658
  268MOL0     C35253   4.806  10.632   2.079  0.5512 -0.4016 -0.8557
  268MOL0     C35254   4.700  10.639   1.965 -0.6242  1.0273 -0.2573
  268MOL0     C35255   4.573  10.706   2.004 -0.2544  0.6640 -0.3749
  268MOL0     C35256   4.471  10.730   1.890 -0.0799 -0.2105  0.2052
  268MOL0     C35257   4.329  10.788   1.932 -0.3251 -0.1441 -0.1113
  268MOL0     C35258   4.342  10.922   1.999 -0.4656  0.1087  0.0246
  268MOL0     C35259   4.205  10.972   2.048  0.5060 -0.2797  0.8146
  268MOL0     C35260   4.192  11.115   2.113 -0.5383 -0.0242  0.8329
  268MOL0     N35261   4.260  11.105   2.245 -0.1665 -0.2455  0.2483
  268MOL0     C35262   4.399  11.100   2.260 -0.0181 -0.5630  0.2892
  268MOL0     C35263   4.414  11.149   2.383 -1.1087 -0.9533  0.1826
  268MOL0     C35264   4.540  11.162   2.463 -0.3980  0.2270 -0.3670
  268MOL0     C35265   4.660  11.199   2.377 -0.9404  0.6865  0.1184
  268MOL0     C35266   4.792  11.208   2.458  0.1763 -0.0994  0.1915
  268MOL0     C35267   4.906  11.236   2.358 -0.4102  0.3389  0.5807
  268MOL0     O35268   4.985  11.115   2.335 -0.1820 -0.3740 -0.0381
  268MOL0     C35269   5.100  11.098   2.405  0.2019 -0.1190  0.1014
  268MOL0     C35270   5.165  10.982   2.359 -0.3305 -0.2945  0.1660
  268MOL0     C35271   5.288  10.943   2.412  0.5226  0.2856  0.1935
  268MOL0     C35272   5.334  11.009   2.528  0.0015  0.5606 -0.2197
  268MOL0     C35273   5.455  10.953   2.599  0.7149 -0.4997  0.0950
  268MOL0     O35274   5.536  10.867   2.540  0.8862  0.2753  0.2474
  268MOL0     C35275   5.656  10.827   2.603  0.5941  0.0136 -0.1614
  268MOL0     C35276   5.682  10.689   2.615  0.6013 -0.2673  0.3857
  268MOL0     C35277   5.791  10.641   2.677  0.1244  0.5863 -0.3053
  268MOL0     C35278   5.888  10.728   2.725 -0.0542 -0.7157 -0.7287
  268MOL0     O35279   5.986  10.657   2.790  0.2660 -0.5123  0.3961
  268MOL0     C35280   6.120  10.686   2.738 -0.5705 -0.1266 -0.6550
  268MOL0     C35281   6.221  10.591   2.803 -0.5504 -0.1695  0.5901
  268MOL0     C35282   6.360  10.629   2.771  0.3313  0.6050  0.4509
  268MOL0     C35283   6.466  10.555   2.868  0.1505  0.0985 -0.4212
  268MOL0     C35284   6.616  10.560   2.824  0.6147  0.4792  0.4656
  268MOL0     C35285   6.653  10.705   2.803 -0.5596  0.2405  0.6579
  268MOL0     C35286   6.803  10.727   2.792  0.0964  0.2136  0.5881
  268MOL0     C35287   6.835  10.875   2.813 -0.0662 -0.4467  0.1686
  268MOL0    Cl35288   6.776  10.962   2.669 -0.0574  0.1520  0.3657
  268MOL0     C35289   5.873  10.865   2.707 -0.2873  0.5290 -0.2758
  268MOL0     C35290   5.757  10.921   2.646  0.0770  0.9232  0.2164
  268MOL0     O35291   5.474  10.998   2.709  0.4523 -0.1124 -0.1503
  268MOL0     C35292   5.258  11.116   2.580  0.0419 -0.4268 -0.2725
  268MOL0     C35293   5.147  11.168   2.518 -0.4607 -0.7132 -0.1026
  268MOL0     N35294   4.295  11.178   2.440  0.0929 -0.2046 -0.3335
  268MOL0     N35295   4.198  11.152   2.356 -0.2353  0.0362 -0.2391
  268MOL0     C35296   5.152  10.559   1.981  0.9236  0.5268 -0.4391
  268MOL0     C35297   5.279  10.542   2.038  0.4490  0.1607  0.7975
  268MOL0     C35298   5.647  10.599   2.227 -0.1435  0.4145 -0.6320
  268MOL0     C35299   5.746  10.674   2.288 -0.4255  0.8044  0.0775
  268MOL0     C35300   5.877  10.624   2.304  0.0038 -0.1172  0.0858
  268MOL0     C35301   5.908  10.497   2.251 -1.4307 -0.1638 -0.6057
  268MOL0     O35302   6.042  10.461   2.242  0.5646  0.1533 -0.0119
  268MOL0     C35303   6.072  10.321   2.225 -0.4706  0.1518  0.4279
  268MOL0     C35304   6.213  10.269   2.276  0.8030  0.6895  0.2446
  268MOL0     C35305   6.323  10.276   2.174  0.4345 -0.1296 -0.2619
  268MOL0     C35306   6.456  10.212   2.211 -0.5376 -0.7910 -0.1837
  268MOL0     C35307   6.567  10.280   2.141  0.7032 -0.3701 -0.5164
  268MOL0     C35308   6.665  10.334   2.091 -0.6572  0.5394 -0.8699
  268MOL0     C35309   5.811  10.428   2.182  0.4208  1.0245  0.1921
  268MOL0     C35310   5.681  10.473   2.180  0.0093 -0.6072 -0.2931
  268MOL0     H35311   5.224  10.663   2.343  1.1389 -0.5727 -0.6852
  268MOL0     H35312   5.002  10.682   2.263 -1.1259 -0.2334 -3.1152
  268MOL0     H35313   4.808  10.727   2.133  1.2622 -1.4821  1.1018
  268MOL0     H35314   4.777  10.550   2.146  0.1115  0.8876  0.5959
  268MOL0     H35315   4.670  10.540   1.930  0.0953  0.8365 -0.3616
  268MOL0     H35316   4.739  10.695   1.879  1.6237 -0.1179 -0.0679
  268MOL0     H35317   4.582  10.783   2.082 -1.5983 -0.1869  0.6589
  268MOL0     H35318   4.527  10.621   2.056 -1.1726  1.3002 -0.1382
  268MOL0     H35319   4.518  10.799   1.820 -2.8385  0.3245 -1.2761
  268MOL0     H35320   4.453  10.647   1.821  1.3128 -1.4223  1.2482
  268MOL0     H35321   4.277  10.712   1.991 -0.2903  0.5700  0.8659
  268MOL0     H35322   4.266  10.804   1.844 -1.2708  1.8979  0.8523
  268MOL0     H35323   4.376  10.999   1.930  0.7898  0.3750  0.9028
  268MOL0     H35324   4.413  10.910   2.081  0.2263  2.9330 -0.0519
  268MOL0     H35325   4.139  10.978   1.960  0.8681  0.8214  0.6045
  268MOL0     H35326   4.167  10.892   2.113 -0.4828 -1.0281 -0.6237
  268MOL0     H35327   4.092  11.158   2.124 -0.8009 -0.8126  1.7509
  268MOL0     H35328   4.246  11.177   2.041 -0.7908 -2.0812 -1.2423
  268MOL0     H35329   4.474  11.056   2.196  0.9286  0.3381  0.7648
  268MOL0     H35330   4.558  11.065   2.509 -0.5211 -0.2652 -1.3191
  268MOL0     H35331   4.515  11.236   2.539  0.7350  0.8728 -0.6012
  268MOL0     H35332   4.655  11.300   2.337  1.7865  0.7127 -0.3724
  268MOL0     H35333   4.665  11.132   2.290  2.2338 -0.2320  0.8695
  268MOL0     H35334   4.796  11.303   2.513  1.2625  1.2597 -2.0843
  268MOL0     H35335   4.813  11.124   2.525  1.5616  0.8185  0.9811
  268MOL0     H35336   4.962  11.323   2.393  1.0394 -0.8451  1.2801
  268MOL0     H35337   4.876  11.266   2.257  1.3810  1.0468  0.2175
  268MOL0     H35338   5.135  10.925   2.272  2.2733 -0.5861 -0.6423
  268MOL0     H35339   5.341  10.856   2.374  1.5105 -0.4307  2.9202
  268MOL0     H35340   5.610  10.618   2.575  1.3172 -0.6832 -0.1752
  268MOL0     H35341   5.805  10.534   2.682 -3.0765 -0.0202 -1.9403
  268MOL0     H35342   6.146  10.791   2.749 -1.9325  0.1300  0.2597
  268MOL0     H35343   6.118  10.671   2.629 -3.3757  0.0327 -0.6796
  268MOL0     H35344   6.204  10.486   2.776 -1.5775 -1.0939  4.3055
  268MOL0     H35345   6.210  10.596   2.912  1.8196  0.7123  0.8357
  268MOL0     H35346   6.372  10.737   2.782  0.6078  0.5717  0.4748
  268MOL0     H35347   6.377  10.612   2.665 -0.9320  1.6348  0.0565
  268MOL0     H35348   6.461  10.602   2.966  2.8150  1.3282 -0.7812
  268MOL0     H35349   6.427  10.453   2.870  0.8701 -0.1780 -0.0546
  268MOL0     H35350   6.621  10.509   2.728  0.6517  0.5211  0.4455
  268MOL0     H35351   6.681  10.517   2.901 -0.2877 -0.6693  0.6035
  268MOL0     H35352   6.613  10.770   2.881 -1.6950  2.1121 -1.3758
  268MOL0     H35353   6.592  10.729   2.716 -1.7392 -1.2468  1.0337
  268MOL0     H35354   6.854  10.666   2.868 -0.6449 -1.6981 -0.3825
  268MOL0     H35355   6.828  10.698   2.690 -1.2804  1.2958 -0.0888
  268MOL0     H35356   6.944  10.877   2.821  0.0566  0.9029 -1.1704
  268MOL0     H35357   6.790  10.912   2.905  4.6124 -0.0912  2.6441
  268MOL0     H35358   5.950  10.933   2.743  0.0719  0.9096 -1.7185
  268MOL0     H35359   5.729  11.026   2.643  0.3596  1.0305  1.1074
  268MOL0     H35360   5.283  11.155   2.678 -1.6790 -0.3986  0.1825
  268MOL0     H35361   5.094  11.249   2.567  1.6888  1.3706 -1.0162
  268MOL0     H35362   5.133  10.524   1.880 -1.2693  2.8213 -0.9346
  268MOL0     H35363   5.342  10.483   1.972  0.4178  1.2841 -0.2688
  268MOL0     H35364   5.717  10.773   2.324  0.3110  1.1785 -0.3359
  268MOL0     H35365   5.958  10.682   2.347  0.3455  0.3527 -1.1361
  268MOL0     H35366   6.068  10.304   2.117 -1.8049 -1.7817  0.7331
  268MOL0     H35367   5.993  10.255   2.261  0.0069 -0.6611 -0.0042
  268MOL0     H35368   6.242  10.313   2.371  1.4405  0.4303  0.1800
  268MOL0     H35369   6.195  10.163   2.294  0.5438  0.7041  0.0680
  268MOL0     H35370   6.346  10.383   2.165  3.5218 -0.3353  2.9756
  268MOL0     H35371   6.292  10.236   2.077  1.7897  0.2036 -0.8683
  268MOL0     H35372   6.480  10.241   2.314 -0.6272  3.5613 -1.1960
  268MOL0     H35373   6.456  10.104   2.193 -0.7276 -0.5669 -1.6331
  268MOL0     H35374   6.756  10.376   2.054  0.3875  2.7514  3.5210
  268MOL0     H35375   5.825  10.332   2.133 -0.1277  0.0983  1.7813
  268MOL0     H35376   5.607  10.409   2.132 -2.6079  1.2334  0.9833
  269MOL0     O35377   8.025   3.898   0.228 -0.4965  0.0758  0.5826
  269MOL0     C35378   8.122   3.821   0.220 -0.1585  0.5648  0.6273
  269MOL0     O35379   8.142   3.702   0.300  0.1225  0.3857 -0.0714
  269MOL0     C35380   8.047   3.657   0.390  0.5746  0.4140  0.0977
  269MOL0     C35381   8.079   3.614   0.514 -0.2891 -0.5583  0.6051
  269MOL0     C35382   7.981   3.576   0.607  0.6408  0.7441 -0.2646
  269MOL0     C35383   7.847   3.568   0.567  0.5637 -0.4407 -0.4711
  269MOL0     O35384   7.761   3.540   0.671 -0.2323 -0.1879  0.5507
  269MOL0     C35385   7.623   3.551   0.655 -0.0722 -0.1995  0.4096
  269MOL0     C35386   7.560   3.573   0.788  0.2390  0.1357  0.4187
  269MOL0     C35387   7.412   3.627   0.777 -0.5066  0.7924  0.4168
  269MOL0     C35388   7.388   3.715   0.893  0.3892  0.1286  0.3219
  269MOL0     C35389   7.236   3.728   0.924 -0.8111  0.0847  0.4613
  269MOL0     C35390   7.199   3.805   1.048  0.4753 -0.3361  0.2253
  269MOL0     C35391   7.051   3.830   1.055  0.1198 -0.2577 -0.2769
  269MOL0     C35392   7.001   3.897   1.186  0.4245 -0.0238  0.2496
  269MOL0     N35393   6.862   3.932   1.150  0.0662 -0.1757  0.3644
  269MOL0     C35394   6.831   4.051   1.096 -0.1812 -0.2554 -0.4420
  269MOL0     C35395   6.697   4.058   1.089 -0.6266 -0.5863  0.6282
  269MOL0     C35396   6.595   4.151   1.036 -0.4728  0.5445 -1.0249
  269MOL0     C35397   6.640   4.264   0.941 -0.6949 -0.0779 -0.4479
  269MOL0     C35398   6.555   4.380   0.933  0.4259 -0.4384  0.4465
  269MOL0     C35399   6.428   4.367   0.844  0.1556 -0.3276 -0.4523
  269MOL0     O35400   6.321   4.321   0.930 -0.3961 -0.4239 -0.4350
  269MOL0     C35401   6.201   4.325   0.870 -0.2056  0.9168 -0.1319
  269MOL0     C35402   6.166   4.363   0.743  0.3735  0.1239 -0.7126
  269MOL0     C35403   6.028   4.364   0.699 -0.0887  0.4195 -0.2587
  269MOL0     C35404   5.923   4.329   0.789 -0.0937  0.2401 -0.3099
  269MOL0     C35405   5.781   4.342   0.745 -0.0996 -0.2313  0.7034
  269MOL0     O35406   5.756   4.369   0.619  0.6923  0.0803 -0.1326
  269MOL0     C35407   5.624   4.360   0.576 -0.7963 -0.0374 -0.3565
  269MOL0     C35408   5.550   4.243   0.604  0.2456 -1.0143  0.4564
  269MOL0     C35409   5.415   4.246   0.569  0.8756 -0.1852  0.2085
  269MOL0     C35410   5.356   4.355   0.508 -0.1941 -0.5479  0.0913
  269MOL0     O35411   5.221   4.349   0.492 -0.2445 -0.0270 -0.7735
  269MOL0     C35412   5.156   4.428   0.394  0.2468  0.1021  1.2132
  269MOL0     C35413   5.007   4.394   0.388  0.4109  0.0855 -0.0942
  269MOL0     C35414   4.911   4.501   0.321  0.3902  0.7417 -0.2643
  269MOL0     C35415   4.774   4.438   0.307  0.0472  0.0923  0.2233
  269MOL0     C35416   4.688   4.534   0.246 -1.0570 -0.7968 -0.1444
  269MOL0     C35417   4.534   4.508   0.248 -0.9193 -0.4189 -0.0459
  269MOL0     C35418   4.447   4.604   0.173  0.1455  0.4597 -0.2905
  269MOL0     C35419   4.445   4.588   0.024 -0.2197 -0.0880  0.0909
  269MOL0    Cl35420   4.595   4.669  -0.050  0.4358 -0.1025 -0.5378
  269MOL0     C35421   5.435   4.472   0.479  0.7551 -0.0821  0.1494
  269MOL0     C35422   5.570   4.470   0.507  0.2986 -0.2661 -0.3184
  269MOL0     O35423   5.697   4.321   0.827  0.4976 -0.1043 -0.0096
  269MOL0     C35424   5.964   4.281   0.914 -0.1037  0.1933 -0.2326
  269MOL0     C35425   6.102   4.279   0.950  0.3816 -0.0942 -0.6833
  269MOL0     N35426   6.649   3.950   1.164  0.0117 -0.4044  0.8180
  269MOL0     N35427   6.751   3.874   1.195 -0.3463  1.3534 -0.1858
  269MOL0     C35428   7.814   3.605   0.441 -0.1552 -0.0518  0.2233
  269MOL0     C35429   7.913   3.648   0.355  0.2823  0.1984  0.2841
  269MOL0     C35430   8.230   3.865   0.137 -0.3309 -0.5876 -0.5234
  269MOL0     C35431   8.243   3.994   0.087 -0.3342 -0.8943  0.8721
  269MOL0     C35432   8.366   4.038   0.018  0.5922  0.2357  0.0619
  269MOL0     C35433   8.467   3.954  -0.001 -0.2756 -0.2991  0.2456
  269MOL0     O35434   8.592   4.001  -0.046  0.1330 -0.2480  0.3550
  269MOL0     C35435   8.706   3.985   0.045  0.3447 -0.8477 -0.6227
  269MOL0     C35436   8.805   3.899  -0.032 -0.5626  0.1651 -1.3843
  269MOL0     C35437   8.953   3.897   0.023  0.3497  0.3129  0.6760
  269MOL0     C35438   9.051   3.825  -0.071  0.6773 -0.8384  0.1271
  269MOL0     C35439   9.185   3.868  -0.046 -1.0769 -0.1202 -0.4473
  269MOL0     C35440   9.297   3.897  -0.011  0.2118 -0.1504  0.3489
  269MOL0     C35441   8.457   3.830   0.055  0.3525 -0.6235  0.5763
  269MOL0     C35442   8.342   3.781   0.116  0.7162 -0.2945  0.6464
  269MOL0     H35443   8.182   3.624   0.546  1.1709 -0.7584 -3.4247
  269MOL0     H35444   8.000   3.541   0.708  2.9342  1.3631 -0.4215
  269MOL0     H35445   7.584   3.460   0.607  2.8282 -1.7526  0.7869
  269MOL0     H35446   7.606   3.639   0.592  0.7709  0.8824  1.6489
  269MOL0     H35447   7.620   3.650   0.839 -0.7386  0.2327  1.4815
  269MOL0     H35448   7.564   3.487   0.855  1.6635  1.7506  2.5805
  269MOL0     H35449   7.341   3.543   0.775  0.4469 -0.0424 -1.8872
  269MOL0     H35450   7.397   3.682   0.683 -0.5573  0.4193  0.2027
  269MOL0     H35451   7.437   3.681   0.985  1.8489  4.5094  1.4192
  269MOL0     H35452   7.431   3.815   0.878 -1.5515  0.9957  0.2830
  269MOL0     H35453   7.203   3.625   0.938  1.3986 -0.5997  1.1562
  269MOL0     H35454   7.187   3.773   0.837  0.0556 -0.2432 -0.2140
  269MOL0     H35455   7.256   3.898   1.042  0.0413 -0.1557 -1.7478
  269MOL0     H35456   7.235   3.753   1.137  0.7744 -2.0196 -0.8238
  269MOL0     H35457   7.026   3.890   0.967  0.8970  0.6444  0.1021
  269MOL0     H35458   7.000   3.733   1.052 -0.9049  0.1360  2.2911
  269MOL0     H35459   7.066   3.984   1.200  0.5333  0.0647 -0.7101
  269MOL0     H35460   7.002   3.832   1.273 -1.8241 -1.5224 -0.7551
  269MOL0     H35461   6.908   4.122   1.069 -0.9558  0.6793 -0.2462
  269MOL0     H35462   6.541   4.196   1.120 -1.5951 -0.9468 -0.8942
  269MOL0     H35463   6.520   4.095   0.979 -0.8339  1.8810 -1.9036
  269MOL0     H35464   6.657   4.233   0.837 -0.9650  0.3525 -0.6192
  269MOL0     H35465   6.739   4.295   0.973  0.3337 -0.3640 -3.0455
  269MOL0     H35466   6.532   4.412   1.035 -0.5447  0.8087 -0.1433
  269MOL0     H35467   6.613   4.456   0.881 -0.7723  0.3177  0.1738
  269MOL0     H35468   6.457   4.302   0.760  2.2094  1.4816 -1.2726
  269MOL0     H35469   6.404   4.463   0.798 -2.1133 -0.0131  1.2796
  269MOL0     H35470   6.245   4.406   0.682 -0.1583  1.5290 -0.4577
  269MOL0     H35471   6.022   4.399   0.596  1.8219 -0.7564 -0.8181
  269MOL0     H35472   5.586   4.157   0.660 -0.8380 -1.5035  0.4114
  269MOL0     H35473   5.339   4.171   0.590 -2.6285  2.6471 -1.3298
  269MOL0     H35474   5.198   4.398   0.298 -0.8832 -0.4751  0.8839
  269MOL0     H35475   5.162   4.536   0.411  4.2820  0.3695 -0.8304
  269MOL0     H35476   4.975   4.382   0.492 -1.5360 -0.9462 -0.7618
  269MOL0     H35477   4.985   4.295   0.348  0.7497 -0.5045  1.1290
  269MOL0     H35478   4.956   4.529   0.225 -0.0555  1.7854 -0.1822
  269MOL0     H35479   4.912   4.590   0.385  1.8574  0.5419  0.0337
  269MOL0     H35480   4.784   4.346   0.248  2.5945  0.8895 -0.7417
  269MOL0     H35481   4.730   4.413   0.403  2.1588 -3.2327  0.4828
  269MOL0     H35482   4.718   4.548   0.142  0.1161 -4.5465 -0.4682
  269MOL0     H35483   4.693   4.630   0.298 -2.1382  1.9236 -4.5337
  269MOL0     H35484   4.508   4.501   0.354 -1.7581 -3.5225 -0.3285
  269MOL0     H35485   4.505   4.412   0.202  1.0393 -0.8432 -0.4821
  269MOL0     H35486   4.345   4.593   0.212  0.6325 -1.9353  0.4863
  269MOL0     H35487   4.485   4.703   0.200  3.1093 -0.9441  1.0954
  269MOL0     H35488   4.355   4.626  -0.024 -0.7136  1.6958  2.2347
  269MOL0     H35489   4.463   4.486  -0.012  3.7462  0.6617 -0.4930
  269MOL0     H35490   5.381   4.552   0.431 -1.0180 -2.3791 -1.9413
  269MOL0     H35491   5.631   4.557   0.486  0.4943 -0.0276  1.1316
  269MOL0     H35492   5.887   4.253   0.986  0.0408  0.8798  0.1961
  269MOL0     H35493   6.136   4.251   1.049 -1.0953 -1.4573 -0.5229
  269MOL0     H35494   7.710   3.602   0.409 -0.1861 -2.3372  0.4179
  269MOL0     H35495   7.884   3.698   0.263 -1.3086  0.0279  0.6507
  269MOL0     H35496   8.163   4.068   0.091  1.1677  0.7968  1.1440
  269MOL0     H35497   8.371   4.143  -0.009  2.4282 -0.3277 -2.1168
  269MOL0     H35498   8.680   3.935   0.140  1.1366  0.4373  0.3016
  269MOL0     H35499   8.752   4.081   0.068  2.1920 -1.5421 -1.2467
  269MOL0     H35500   8.768   3.796  -0.041 -0.9240  0.0593  0.8816
  269MOL0     H35501   8.810   3.931  -0.137  0.4585 -1.9007 -2.0404
  269MOL0     H35502   8.939   3.863   0.125 -0.2083 -0.2691  0.4110
  269MOL0     H35503   8.977   4.004   0.027  2.4585 -0.0430 -0.7495
  269MOL0     H35504   9.043   3.716  -0.072  0.2915 -0.9345 -4.4099
  269MOL0     H35505   9.030   3.865  -0.170  3.4620  1.8403  0.4618
  269MOL0     H35506   9.397   3.918   0.021 -0.2737  1.8721  0.6774
  269MOL0     H35507   8.547   3.769   0.042  0.1754 -0.7765  0.0514
  269MOL0     H35508   8.348   3.681   0.156  2.2277 -0.2457  0.5992
  270MOL0     O35509  11.088   0.505   1.768 -0.5236  0.3422 -0.3707
  270MOL0     C35510  11.113   0.443   1.658  0.2707  0.3597 -0.0061
  270MOL0     O35511  11.026   0.363   1.604 -0.1928  0.4479  0.1500
  270MOL0     C35512  10.913   0.332   1.674  0.3452 -0.2883  0.6533
  270MOL0     C35513  10.896   0.209   1.735 -0.3445 -0.1225  0.4202
  270MOL0     C35514  10.780   0.178   1.798  0.3962 -0.9713 -0.4434
  270MOL0     C35515  10.675   0.271   1.800 -0.5599  0.0513 -0.9918
  270MOL0     O35516  10.553   0.237   1.858  0.2725  0.2327 -0.9847
  270MOL0     C35517  10.540   0.207   2.002 -0.3501  0.8502 -0.9232
  270MOL0     C35518  10.400   0.136   2.012  0.0194 -0.5605  0.5178
  270MOL0     C35519  10.319   0.137   2.143 -0.1722 -0.5013  0.0233
  270MOL0     C35520  10.406   0.070   2.258 -0.9788  0.2575  0.5848
  270MOL0     C35521  10.313   0.042   2.378 -0.4023 -0.6890 -0.0011
  270MOL0     C35522  10.385  -0.037   2.483  0.9408  0.6381 -0.3076
  270MOL0     C35523  10.294  -0.067   2.609 -0.2861 -1.4721 -0.0605
  270MOL0     C35524  10.192  -0.171   2.575 -0.7176  0.1045  0.1794
  270MOL0     N35525  10.072  -0.162   2.663  0.4097  0.6455  0.7146
  270MOL0     C35526   9.993  -0.054   2.688 -1.3956 -0.1151 -0.4611
  270MOL0     C35527   9.887  -0.099   2.759  0.3982 -0.3251  0.0504
  270MOL0     C35528   9.779  -0.013   2.827  0.1056 -0.5915 -0.0150
  270MOL0     C35529   9.649  -0.032   2.753  0.6972  0.3754  0.2332
  270MOL0     C35530   9.640   0.010   2.611 -0.0093 -0.4959  0.6731
  270MOL0     C35531   9.494   0.012   2.555 -1.0167 -0.2544 -0.3233
  270MOL0     O35532   9.430   0.125   2.611  0.0250 -0.3604 -0.1702
  270MOL0     C35533   9.306   0.173   2.567 -0.3948 -0.7074  0.6311
  270MOL0     C35534   9.210   0.091   2.501  0.3168 -0.2873  0.3411
  270MOL0     C35535   9.084   0.142   2.461 -0.1931  0.2529  0.6072
  270MOL0     C35536   9.048   0.276   2.475 -0.0840  0.1573  0.0370
  270MOL0     C35537   8.924   0.322   2.426 -0.6384  1.1861 -0.2064
  270MOL0     O35538   8.868   0.239   2.339 -0.6648  0.0070 -0.8638
  270MOL0     C35539   8.733   0.220   2.333  0.3273  0.2714  0.6690
  270MOL0     C35540   8.698   0.172   2.206  0.4400 -0.3728  0.1214
  270MOL0     C35541   8.558   0.146   2.188  0.2161 -0.1314  0.7336
  270MOL0     C35542   8.461   0.152   2.281  0.3719 -0.7279 -0.9097
  270MOL0     O35543   8.325   0.134   2.266 -0.3083 -0.3471  0.3811
  270MOL0     C35544   8.292   0.002   2.197  0.4025 -0.4584 -0.4944
  270MOL0     C35545   8.189   0.033   2.085  0.0963  0.5021 -0.2870
  270MOL0     C35546   8.136  -0.109   2.025 -0.6133 -0.7186 -0.3498
  270MOL0     C35547   8.036  -0.075   1.920  0.2512 -0.1155 -0.6078
  270MOL0     C35548   7.998  -0.201   1.836 -0.5885  0.5717 -1.0605
  270MOL0     C35549   7.939  -0.318   1.914  0.4021 -0.0500 -0.3027
  270MOL0     C35550   7.815  -0.272   1.991  0.1755 -0.0044 -0.2206
  270MOL0     C35551   7.757  -0.388   2.068 -0.1130  0.1625 -0.5814
  270MOL0    Cl35552   7.878  -0.408   2.202  0.0204  0.3072 -0.3262
  270MOL0     C35553   8.507   0.198   2.406  0.0464 -1.2089 -0.2935
  270MOL0     C35554   8.641   0.229   2.435  0.8182  0.8967  0.0741
  270MOL0     O35555   8.878   0.426   2.473  0.7277 -0.5021  0.0778
  270MOL0     C35556   9.144   0.358   2.541  0.7097 -0.4265  0.7221
  270MOL0     C35557   9.268   0.304   2.573  0.7645 -0.5326 -0.3546
  270MOL0     N35558   9.900  -0.231   2.768  0.7309 -0.1065  0.0039
  270MOL0     N35559  10.000  -0.266   2.708 -0.1251  0.0292  0.2014
  270MOL0     C35560  10.684   0.388   1.727  0.5552 -0.1345  0.6543
  270MOL0     C35561  10.807   0.424   1.670 -0.5839  0.2436  0.0057
  270MOL0     C35562  11.239   0.457   1.582  0.2724  0.6071  0.1214
  270MOL0     C35563  11.255   0.413   1.445  0.3774  0.0277 -0.9915
  270MOL0     C35564  11.382   0.414   1.395 -0.0289 -0.4631  0.2040
  270MOL0     C35565  11.492   0.458   1.455 -0.5826 -0.4964 -0.2787
  270MOL0     O35566  11.613   0.445   1.404  1.1434 -0.2321  0.0740
  270MOL0     C35567  11.644   0.563   1.328 -0.0788 -0.5052 -0.3434
  270MOL0     C35568  11.735   0.535   1.208 -0.5364  0.2826 -0.1228
  270MOL0     C35569  11.749   0.640   1.104 -0.4631  0.2867  0.4054
  270MOL0     C35570  11.838   0.598   0.983 -0.0953 -0.1318  0.3840
  270MOL0     C35571  11.869   0.700   0.884  0.3781  0.3641  0.5611
  270MOL0     C35572  11.918   0.790   0.811  0.3532  0.8768  1.0340
  270MOL0     C35573  11.479   0.497   1.587 -0.8439  0.4712 -0.2310
  270MOL0     C35574  11.353   0.503   1.648 -1.0499 -0.8708  0.4319
  270MOL0     H35575  10.982   0.143   1.733  0.2199  0.5886  0.6607
  270MOL0     H35576  10.762   0.081   1.844 -0.9359 -1.4251 -1.8578
  270MOL0     H35577  10.542   0.304   2.053  1.5705  0.4560 -0.1591
  270MOL0     H35578  10.622   0.145   2.041 -0.8834 -0.1065 -1.2929
  270MOL0     H35579  10.409   0.036   1.968  0.3001 -1.0581  1.6757
  270MOL0     H35580  10.338   0.184   1.936  1.9796 -0.9489 -1.4393
  270MOL0     H35581  10.223   0.086   2.130 -1.6995  2.7420 -2.9598
  270MOL0     H35582  10.287   0.237   2.175 -1.4881 -0.5769 -0.9733
  270MOL0     H35583  10.453  -0.019   2.216 -3.9838 -0.8286 -0.7821
  270MOL0     H35584  10.475   0.147   2.294 -1.4158  0.0907  1.8108
  270MOL0     H35585  10.224  -0.015   2.349  0.2245 -1.0599 -1.2613
  270MOL0     H35586  10.280   0.140   2.414  1.2943 -0.0544 -0.0778
  270MOL0     H35587  10.481   0.005   2.515  0.0709  1.1556  1.8452
  270MOL0     H35588  10.409  -0.135   2.440  0.2561  1.1338 -1.8638
  270MOL0     H35589  10.375  -0.105   2.672  1.2746  2.4250  0.6177
  270MOL0     H35590  10.252   0.026   2.648  1.3371 -1.3714  1.5617
  270MOL0     H35591  10.239  -0.268   2.591  0.1837  0.4070 -0.5839
  270MOL0     H35592  10.153  -0.172   2.472 -0.9946  1.7010  0.2430
  270MOL0     H35593  10.018   0.048   2.661 -0.2503 -0.0608  0.6788
  270MOL0     H35594   9.811   0.091   2.832 -2.9315  0.3804  1.6609
  270MOL0     H35595   9.768  -0.050   2.929  0.6158 -0.5657  0.0548
  270MOL0     H35596   9.574   0.022   2.811 -0.2059 -0.7889  0.1735
  270MOL0     H35597   9.624  -0.138   2.761 -0.5000  0.4967 -1.5896
  270MOL0     H35598   9.689   0.108   2.605 -0.1060 -0.4327  0.9209
  270MOL0     H35599   9.694  -0.057   2.543 -1.2638 -1.3375  0.4606
  270MOL0     H35600   9.449  -0.080   2.592  1.1603  0.0117  3.4227
  270MOL0     H35601   9.500   0.022   2.446 -3.6585  0.0538 -0.5162
  270MOL0     H35602   9.233  -0.011   2.472  0.4028  0.1090 -1.0564
  270MOL0     H35603   9.007   0.083   2.413 -0.5789  1.0913  0.1888
  270MOL0     H35604   8.770   0.133   2.134  1.0105 -0.2242  0.5997
  270MOL0     H35605   8.520   0.110   2.093 -2.9422  0.3569  1.7250
  270MOL0     H35606   8.236  -0.063   2.265  2.2061 -1.1569  0.3637
  270MOL0     H35607   8.384  -0.051   2.173 -0.9510 -2.8657 -0.7089
  270MOL0     H35608   8.233   0.084   1.999  0.2760 -0.0104 -0.5006
  270MOL0     H35609   8.102   0.088   2.124 -0.8394 -0.8388 -0.4295
  270MOL0     H35610   8.085  -0.174   2.097 -2.6889  0.2060 -0.8914
  270MOL0     H35611   8.220  -0.167   1.988  2.1034  0.9087  2.7755
  270MOL0     H35612   7.948  -0.022   1.956  1.3196  1.4477 -0.2293
  270MOL0     H35613   8.089  -0.005   1.855 -0.4564  0.3703 -0.6728
  270MOL0     H35614   8.082  -0.249   1.785 -0.1063 -0.5622  0.6935
  270MOL0     H35615   7.927  -0.169   1.759 -0.6984  1.0094 -0.7800
  270MOL0     H35616   8.016  -0.350   1.985  0.6615 -2.3556 -1.5445
  270MOL0     H35617   7.910  -0.395   1.842  0.0885  0.6823 -0.9743
  270MOL0     H35618   7.842  -0.185   2.051  1.9408  0.6414 -1.8296
  270MOL0     H35619   7.750  -0.249   1.905  1.7853  0.1059 -1.4659
  270MOL0     H35620   7.744  -0.479   2.008 -1.4253 -0.4340  0.5632
  270MOL0     H35621   7.658  -0.365   2.107 -1.1602 -1.1274 -2.3196
  270MOL0     H35622   8.431   0.207   2.482  1.5338 -0.3123  1.1459
  270MOL0     H35623   8.682   0.263   2.529  0.3448  2.0784 -0.1290
  270MOL0     H35624   9.138   0.462   2.571  1.0115 -0.2915  0.3135
  270MOL0     H35625   9.344   0.364   2.622  1.0738 -0.1747 -1.2343
  270MOL0     H35626  10.599   0.453   1.714  0.9080 -0.1063 -1.9095
  270MOL0     H35627  10.834   0.518   1.623  1.3262  1.1142  2.6334
  270MOL0     H35628  11.171   0.368   1.393 -1.7679 -0.4312  2.5420
  270MOL0     H35629  11.396   0.381   1.293  0.3439 -1.9945  0.7263
  270MOL0     H35630  11.694   0.643   1.382  2.6868 -1.4911 -1.2869
  270MOL0     H35631  11.547   0.597   1.289 -2.3394 -2.3756  3.0801
  270MOL0     H35632  11.837   0.510   1.235  0.6003  2.2857 -2.1345
  270MOL0     H35633  11.702   0.444   1.157 -0.6681 -0.4827  1.2906
  270MOL0     H35634  11.801   0.722   1.155 -3.4712  0.4107  3.5603
  270MOL0     H35635  11.652   0.675   1.068  0.1520  0.0735 -1.5821
  270MOL0     H35636  11.938   0.569   1.020 -0.3729 -0.1853  1.1155
  270MOL0     H35637  11.789   0.518   0.927 -2.2459  0.6262  1.1042
  270MOL0     H35638  11.974   0.868   0.763 -1.3166  1.2592 -0.4137
  270MOL0     H35639  11.573   0.516   1.637 -0.1613 -1.6853 -0.6312
  270MOL0     H35640  11.342   0.527   1.754 -1.7230  0.5842  0.0529
  271MOL0     O35641   2.626   9.817   1.973  0.6048 -0.3012 -0.1200
  271MOL0     C35642   2.631   9.770   1.861  0.3185 -1.0244  0.6968
  271MOL0     O35643   2.523   9.759   1.775  0.6973 -1.2102  0.4223
  271MOL0     C35644   2.402   9.786   1.832  0.1096 -0.3641  0.3047
  271MOL0     C35645   2.341   9.711   1.937 -0.7958 -0.4716  0.0025
  271MOL0     C35646   2.219   9.753   1.987 -0.2340  0.6481 -0.2360
  271MOL0     C35647   2.138   9.851   1.936 -0.1533  0.1379  1.3560
  271MOL0     O35648   2.024   9.897   1.994  0.5249 -0.5425  0.5019
  271MOL0     C35649   1.942   9.806   2.069  0.0656 -0.0104 -0.8953
  271MOL0     C35650   1.795   9.813   2.025  0.0338  0.1186  0.7531
  271MOL0     C35651   1.707   9.888   2.130 -0.3349  0.8702  1.0653
  271MOL0     C35652   1.553   9.858   2.084 -0.7061 -0.1310 -0.9517
  271MOL0     C35653   1.510   9.925   1.956  0.1063  0.3322  0.4077
  271MOL0     C35654   1.358   9.896   1.930  1.0434  0.3562  0.0557
  271MOL0     C35655   1.263   9.988   2.015 -0.9752  0.8831  0.3557
  271MOL0     C35656   1.127   9.939   2.001 -0.0740  0.3901  0.8027
  271MOL0     N35657   1.015  10.041   2.018 -0.2269  0.3321  0.1664
  271MOL0     C35658   0.973  10.092   2.141 -0.3460  0.8166 -0.2425
  271MOL0     C35659   0.857  10.159   2.109  0.3749 -0.0019 -0.6320
  271MOL0     C35660   0.770  10.248   2.188 -0.2005 -0.6196 -1.7134
  271MOL0     C35661   0.668  10.183   2.275 -0.7158 -0.0269 -0.1913
  271MOL0     C35662   0.574  10.087   2.201  0.2918  0.2073 -1.0311
  271MOL0     C35663   0.460  10.143   2.115 -0.2418  0.3962  0.5748
  271MOL0     O35664   0.378  10.215   2.210  0.8483 -0.3835 -0.0646
  271MOL0     C35665   0.246  10.172   2.226 -0.1785 -0.4204 -0.8017
  271MOL0     C35666   0.155  10.172   2.121 -0.4939 -0.1070  0.0450
  271MOL0     C35667   0.017  10.135   2.135 -0.8400 -0.2547  0.0657
  271MOL0     C35668  -0.033  10.111   2.261  0.0004 -0.1188  0.3385
  271MOL0     C35669  -0.175  10.084   2.285  0.1876 -0.0813 -0.1197
  271MOL0     O35670  -0.253  10.096   2.172  0.9067 -0.4424  0.1626
  271MOL0     C35671  -0.390  10.067   2.193 -0.2520  0.0853  0.0240
  271MOL0     C35672  -0.458   9.954   2.146 -0.7211  0.4231 -0.0560
  271MOL0     C35673  -0.592   9.929   2.177 -0.4522  0.5896  0.5752
  271MOL0     C35674  -0.671  10.016   2.254 -1.0687  0.0140 -0.0487
  271MOL0     O35675  -0.794   9.987   2.310 -0.7720 -0.6479  0.2171
  271MOL0     C35676  -0.875   9.878   2.269  0.1547 -0.1525 -0.4293
  271MOL0     C35677  -0.997   9.920   2.190 -0.2683  0.4552 -0.4743
  271MOL0     C35678  -1.106   9.806   2.191  0.4240  0.0612  0.9479
  271MOL0     C35679  -1.249   9.861   2.155  0.3082  0.5357  1.9168
  271MOL0     C35680  -1.339   9.755   2.075  0.3579  0.1979  0.5267
  271MOL0     C35681  -1.285   9.693   1.942  0.1046 -0.0107  0.2611
  271MOL0     C35682  -1.394   9.605   1.881 -0.8362 -0.1430 -0.7510
  271MOL0     C35683  -1.351   9.548   1.743 -0.7099 -0.1128  0.4800
  271MOL0    Cl35684  -1.352   9.677   1.614 -0.4068  0.0139  0.6697
  271MOL0     C35685  -0.609  10.136   2.295 -0.2200  0.6520 -0.4841
  271MOL0     C35686  -0.470  10.165   2.267  0.3976  0.3664 -0.3267
  271MOL0     O35687  -0.215  10.058   2.400 -0.1668  0.1570  0.3244
  271MOL0     C35688   0.059  10.105   2.367  0.1573  0.4605  0.3172
  271MOL0     C35689   0.195  10.145   2.351  0.6173  1.0877  0.0882
  271MOL0     N35690   0.830  10.148   1.970  0.2083 -0.1377 -1.7724
  271MOL0     N35691   0.929  10.081   1.917 -0.1807  0.2010  1.1258
  271MOL0     C35692   2.200   9.932   1.832 -0.1478  0.3673  1.0348
  271MOL0     C35693   2.329   9.902   1.783 -0.2051  0.7419 -0.7656
  271MOL0     C35694   2.761   9.705   1.827  0.5829  0.0907 -0.2418
  271MOL0     C35695   2.862   9.678   1.919  0.1037  0.5094 -0.0653
  271MOL0     C35696   2.981   9.612   1.899  1.3727  0.0333  0.8728
  271MOL0     C35697   3.005   9.560   1.772 -0.0641  0.0891  0.3517
  271MOL0     O35698   3.126   9.494   1.756  0.3380  0.8440  0.2066
  271MOL0     C35699   3.154   9.454   1.625 -0.0531 -0.8399 -0.2595
  271MOL0     C35700   3.295   9.403   1.611 -0.5140 -0.6423  0.5914
  271MOL0     C35701   3.303   9.263   1.678  0.0220 -0.2380 -0.1858
  271MOL0     C35702   3.445   9.250   1.738  0.5448  0.6477  0.3128
  271MOL0     C35703   3.528   9.212   1.627 -0.6718 -0.1886  0.7098
  271MOL0     C35704   3.596   9.168   1.533  0.3919 -0.0111  0.6379
  271MOL0     C35705   2.901   9.588   1.670  0.1917  0.2497 -0.3017
  271MOL0     C35706   2.784   9.661   1.700  0.4927 -0.6301  0.8505
  271MOL0     H35707   2.406   9.642   1.990  1.7398  0.6371 -1.4795
  271MOL0     H35708   2.180   9.704   2.076  0.1970 -0.2827 -0.5386
  271MOL0     H35709   1.947   9.824   2.177 -2.4169 -0.2780 -0.6756
  271MOL0     H35710   1.961   9.700   2.053 -0.1547 -0.0437 -0.9337
  271MOL0     H35711   1.759   9.712   2.003  1.6956 -0.6551  1.4794
  271MOL0     H35712   1.787   9.861   1.927 -2.0591  0.0930  0.8591
  271MOL0     H35713   1.729   9.995   2.120  0.6817  0.5255 -0.7765
  271MOL0     H35714   1.726   9.847   2.229  2.2793  0.6388  0.5457
  271MOL0     H35715   1.546   9.749   2.080  1.3538 -0.4404  1.5345
  271MOL0     H35716   1.484   9.902   2.158  0.5171 -0.4613  0.4243
  271MOL0     H35717   1.573   9.895   1.871  1.0975 -1.0550  1.5860
  271MOL0     H35718   1.530  10.032   1.966 -1.8280  0.8479 -0.6047
  271MOL0     H35719   1.335   9.794   1.962 -2.2520  0.7433 -0.7062
  271MOL0     H35720   1.325   9.905   1.827 -3.5548 -1.1966  1.1564
  271MOL0     H35721   1.296   9.994   2.119  0.9358  1.2135 -0.2165
  271MOL0     H35722   1.266  10.083   1.960  0.1253  0.2474 -0.7461
  271MOL0     H35723   1.124   9.850   2.064  3.4785  0.0392  0.6418
  271MOL0     H35724   1.113   9.891   1.903  4.0610  0.2061  0.1242
  271MOL0     H35725   1.030  10.087   2.233  0.0651 -0.7705 -0.5611
  271MOL0     H35726   0.715  10.313   2.119 -1.5389 -0.5946 -0.6834
  271MOL0     H35727   0.837  10.300   2.258 -0.5205 -1.5579 -0.6734
  271MOL0     H35728   0.604  10.249   2.335 -1.6692 -1.6024  0.5871
  271MOL0     H35729   0.730  10.124   2.343 -0.9809  3.0737  3.0923
  271MOL0     H35730   0.628  10.018   2.135 -1.7335  1.0534 -3.7419
  271MOL0     H35731   0.534  10.018   2.276  0.1063  0.9959 -0.3898
  271MOL0     H35732   0.405  10.061   2.067 -1.6711  0.2059  2.4078
  271MOL0     H35733   0.502  10.213   2.043  0.4218 -0.2089  0.3676
  271MOL0     H35734   0.201  10.187   2.024 -0.1759  0.6988  0.3190
  271MOL0     H35735  -0.046  10.144   2.047 -0.3910  1.2950 -0.1323
  271MOL0     H35736  -0.393   9.887   2.090 -0.2501 -1.6706  2.7322
  271MOL0     H35737  -0.635   9.838   2.136 -1.8389  0.7447  1.6085
  271MOL0     H35738  -0.930   9.844   2.358 -0.8919 -0.9463 -1.3559
  271MOL0     H35739  -0.817   9.798   2.223  0.9132  0.0655  0.1239
  271MOL0     H35740  -0.976   9.959   2.090  0.5067  4.3253  1.0327
  271MOL0     H35741  -1.036  10.012   2.235 -3.5446  0.7776 -3.5455
  271MOL0     H35742  -1.102   9.757   2.290 -0.7273  2.6277  2.3477
  271MOL0     H35743  -1.070   9.740   2.111  1.3333  3.1858 -1.4098
  271MOL0     H35744  -1.302   9.894   2.245 -4.5438 -0.7534 -0.1255
  271MOL0     H35745  -1.244   9.946   2.087 -0.9283 -0.7692  0.0834
  271MOL0     H35746  -1.430   9.804   2.039  0.0345 -0.0196  1.0289
  271MOL0     H35747  -1.367   9.667   2.135 -0.7674  0.4175  0.3385
  271MOL0     H35748  -1.203   9.627   1.972  0.5603  1.0513  1.4486
  271MOL0     H35749  -1.251   9.771   1.873  0.4580  1.2188  1.7857
  271MOL0     H35750  -1.428   9.521   1.943 -2.0708 -1.0269 -2.5455
  271MOL0     H35751  -1.475   9.676   1.864 -2.4616 -2.0311 -1.1530
  271MOL0     H35752  -1.423   9.471   1.714  1.9402 -2.3572 -0.6402
  271MOL0     H35753  -1.253   9.497   1.744 -0.5595  0.1256 -0.5808
  271MOL0     H35754  -0.671  10.209   2.346 -0.8012  0.2634 -0.6278
  271MOL0     H35755  -0.421  10.256   2.300  0.2176  0.7102 -1.0044
  271MOL0     H35756   0.027  10.075   2.467  0.9186 -3.9831 -0.5412
  271MOL0     H35757   0.255  10.140   2.442 -1.4069 -3.1428  1.4480
  271MOL0     H35758   2.142  10.019   1.803  0.8418  1.7564  3.0167
  271MOL0     H35759   2.371   9.965   1.705  0.3892 -0.4394 -1.4238
  271MOL0     H35760   2.847   9.701   2.024 -1.4191 -0.4492 -0.0372
  271MOL0     H35761   3.050   9.595   1.980  1.2639 -1.9568  0.5885
  271MOL0     H35762   3.135   9.540   1.560 -1.0458 -0.2441  0.7974
  271MOL0     H35763   3.074   9.382   1.602 -0.9469  0.5303 -1.6413
  271MOL0     H35764   3.315   9.393   1.504  2.4566  1.2266  0.8663
  271MOL0     H35765   3.367   9.471   1.655 -1.5977 -2.1209  5.1552
  271MOL0     H35766   3.284   9.187   1.602 -0.3518  1.1137 -1.4999
  271MOL0     H35767   3.226   9.261   1.756  0.9130  0.4106  0.7299
  271MOL0     H35768   3.484   9.344   1.779  3.4718 -0.9668  1.4735
  271MOL0     H35769   3.453   9.164   1.804  1.2832 -0.1020 -0.7242
  271MOL0     H35770   3.649   9.118   1.455 -2.7429 -1.8616 -0.5161
  271MOL0     H35771   2.922   9.561   1.567  1.8025  1.7776 -0.4327
  271MOL0     H35772   2.718   9.705   1.625  3.1188  2.9643  0.3683
  272MOL0     O35773   2.273   1.182   0.508  0.2917  0.0688  0.1547
  272MOL0     C35774   2.332   1.228   0.607  0.7697  0.2955  0.0841
  272MOL0     O35775   2.284   1.247   0.728 -0.5699  0.2058  0.2361
  272MOL0     C35776   2.153   1.227   0.754 -0.9585 -0.5856 -0.1119
  272MOL0     C35777   2.095   1.326   0.841  0.8728  0.7092  0.2302
  272MOL0     C35778   1.962   1.305   0.895 -0.1776 -0.4413  0.1798
  272MOL0     C35779   1.893   1.191   0.849 -0.3316 -0.2184 -0.1164
  272MOL0     O35780   1.757   1.176   0.882  0.1801 -0.3513  0.7226
  272MOL0     C35781   1.664   1.125   0.783 -0.7060  0.2987 -0.2380
  272MOL0     C35782   1.527   1.156   0.836 -1.0488  0.5076  0.0541
  272MOL0     C35783   1.419   1.080   0.747 -0.0838 -1.5591 -0.9690
  272MOL0     C35784   1.278   1.116   0.798 -0.2045 -0.3585  0.3415
  272MOL0     C35785   1.253   1.056   0.936 -0.7618  0.1970 -0.1489
  272MOL0     C35786   1.106   1.057   0.963  0.3434 -0.1024 -0.4422
  272MOL0     C35787   1.072   0.965   1.085  0.9963  0.0063  0.2643
  272MOL0     C35788   0.924   0.957   1.128  0.0632 -0.1214  0.2887
  272MOL0     N35789   0.853   1.070   1.085 -0.5536  0.3719 -0.2475
  272MOL0     C35790   0.856   1.188   1.153  0.3322 -0.7850 -0.1563
  272MOL0     C35791   0.762   1.267   1.099  1.0255 -0.4510 -0.6638
  272MOL0     C35792   0.703   1.398   1.161 -0.9775  0.3907 -0.1146
  272MOL0     C35793   0.588   1.362   1.260 -0.6640 -0.5151 -0.2148
  272MOL0     C35794   0.528   1.500   1.300 -0.0388  0.2372 -0.5143
  272MOL0     C35795   0.422   1.477   1.400  0.0901  0.3188  0.2959
  272MOL0     O35796   0.305   1.396   1.371 -0.7547 -0.3865 -0.0132
  272MOL0     C35797   0.220   1.353   1.472 -0.5633  0.2301  0.4039
  272MOL0     C35798   0.121   1.257   1.443 -0.3727 -0.3222  0.6562
  272MOL0     C35799   0.039   1.206   1.536  0.2466 -0.0504 -0.6349
  272MOL0     C35800   0.036   1.266   1.674  0.2869  0.5494  0.8443
  272MOL0     C35801  -0.080   1.231   1.768 -0.9991  0.4720  0.7724
  272MOL0     O35802  -0.085   1.300   1.886 -0.5003 -0.2373  0.0055
  272MOL0     C35803  -0.188   1.289   1.976  0.4219 -0.1709 -0.2895
  272MOL0     C35804  -0.323   1.259   1.955 -0.0562 -0.2234 -0.2520
  272MOL0     C35805  -0.408   1.257   2.063  0.3808 -0.3317  0.9579
  272MOL0     C35806  -0.360   1.282   2.191  0.6983  0.1328 -0.2376
  272MOL0     O35807  -0.461   1.276   2.287  0.3423  0.5484 -0.3966
  272MOL0     C35808  -0.446   1.293   2.428  0.7524  0.3513 -0.0512
  272MOL0     C35809  -0.569   1.355   2.504 -0.5459  0.3821 -0.0266
  272MOL0     C35810  -0.612   1.494   2.457  0.4554  0.3304 -0.0124
  272MOL0     C35811  -0.676   1.503   2.319 -0.4983 -0.1992  0.0908
  272MOL0     C35812  -0.739   1.637   2.309  0.1972  0.3713 -0.5000
  272MOL0     C35813  -0.806   1.666   2.178  0.5449 -0.2635 -0.3090
  272MOL0     C35814  -0.933   1.582   2.164  0.7395 -0.4728  0.5879
  272MOL0     C35815  -1.027   1.634   2.058 -0.5079 -0.4638  1.0587
  272MOL0    Cl35816  -1.152   1.516   2.019  0.1500 -0.3946  0.0988
  272MOL0     C35817  -0.230   1.307   2.212  0.7756  0.4618  0.2845
  272MOL0     C35818  -0.140   1.310   2.108  0.3451 -0.8453  0.7265
  272MOL0     O35819  -0.158   1.146   1.730  0.1455 -0.0060  0.0633
  272MOL0     C35820   0.132   1.356   1.704 -0.1529 -0.2437 -0.5017
  272MOL0     C35821   0.220   1.396   1.603  0.3315 -0.3679 -0.4349
  272MOL0     N35822   0.710   1.202   0.988 -0.1410  0.7290 -0.1799
  272MOL0     N35823   0.758   1.074   0.986 -0.5349 -0.2562 -0.7346
  272MOL0     C35824   1.955   1.100   0.760  0.3297 -0.4820  0.6819
  272MOL0     C35825   2.091   1.105   0.716 -0.1726  0.0232  0.4757
  272MOL0     C35826   2.478   1.250   0.588  0.7389 -0.7662  0.4806
  272MOL0     C35827   2.571   1.176   0.507  0.1659  0.4543  0.2114
  272MOL0     C35828   2.710   1.216   0.517  1.0802  0.2538 -0.2575
  272MOL0     C35829   2.756   1.324   0.590 -0.8001 -0.0364  0.3290
  272MOL0     O35830   2.891   1.352   0.579 -0.1513  0.2641 -0.9576
  272MOL0     C35831   2.940   1.479   0.622 -0.0657 -0.6343 -0.1761
  272MOL0     C35832   3.093   1.483   0.599  0.1834 -0.3110 -0.0360
  272MOL0     C35833   3.161   1.607   0.660 -0.3205  1.0669 -1.0189
  272MOL0     C35834   3.309   1.618   0.626  0.3313 -0.2352  0.2341
  272MOL0     C35835   3.366   1.746   0.671 -0.0726 -0.0902 -0.0838
  272MOL0     C35836   3.418   1.848   0.713  0.5014 -0.0373 -0.5297
  272MOL0     C35837   2.658   1.397   0.662 -0.6961  0.1280  0.0931
  272MOL0     C35838   2.525   1.346   0.676  0.4355 -0.0679 -0.5529
  272MOL0     H35839   2.153   1.410   0.878 -1.2139  3.0218 -1.3908
  272MOL0     H35840   1.911   1.385   0.946 -3.1566 -1.4690 -0.9980
  272MOL0     H35841   1.683   1.017   0.788  0.7744  0.5771  4.0451
  272MOL0     H35842   1.680   1.169   0.684  0.2438  1.0936  0.2502
  272MOL0     H35843   1.507   1.262   0.851 -0.8422  0.3414  1.6994
  272MOL0     H35844   1.529   1.111   0.936  2.1991  1.8398  0.7275
  272MOL0     H35845   1.415   0.971   0.760 -5.3376 -1.8333 -2.5001
  272MOL0     H35846   1.418   1.091   0.638 -1.3529 -3.2926 -1.1842
  272MOL0     H35847   1.267   1.225   0.803 -0.4479 -0.3360 -0.4870
  272MOL0     H35848   1.202   1.076   0.731  0.2417 -0.3518 -0.1719
  272MOL0     H35849   1.305   1.113   1.013  0.4412  0.6073 -1.2206
  272MOL0     H35850   1.287   0.953   0.949 -0.2502  0.6154  2.2823
  272MOL0     H35851   1.056   1.012   0.877 -3.1156 -0.5548  1.6096
  272MOL0     H35852   1.068   1.159   0.969  1.8446  0.4170  0.9223
  272MOL0     H35853   1.104   0.861   1.074 -0.5222 -0.8029  2.5626
  272MOL0     H35854   1.133   1.000   1.169  0.5558 -0.0966  0.6304
  272MOL0     H35855   0.927   0.961   1.237 -0.5576 -3.5926  0.5663
  272MOL0     H35856   0.883   0.861   1.094 -1.3160  1.0453 -1.5138
  272MOL0     H35857   0.909   1.208   1.245 -3.4068  0.8452  1.8377
  272MOL0     H35858   0.669   1.449   1.070  4.0010 -1.1875 -3.2882
  272MOL0     H35859   0.777   1.459   1.213 -0.4320  1.6315 -2.2208
  272MOL0     H35860   0.628   1.308   1.346 -0.3674  0.3849  0.2239
  272MOL0     H35861   0.514   1.301   1.207 -0.5119 -1.2343  0.3815
  272MOL0     H35862   0.599   1.571   1.344  0.7370 -0.0005 -1.3557
  272MOL0     H35863   0.486   1.551   1.213 -0.9930 -3.1938 -2.2566
  272MOL0     H35864   0.394   1.578   1.431 -0.7406  0.2459 -0.1974
  272MOL0     H35865   0.468   1.428   1.487 -2.6438 -1.8009  0.7113
  272MOL0     H35866   0.107   1.221   1.342 -0.4898 -1.1923  0.9773
  272MOL0     H35867  -0.037   1.131   1.516 -1.3846  2.0157 -2.8124
  272MOL0     H35868  -0.360   1.232   1.857  0.5519 -1.9935 -0.0359
  272MOL0     H35869  -0.508   1.219   2.042  0.1977  0.3258  0.6269
  272MOL0     H35870  -0.358   1.359   2.430  0.8310  0.4938 -3.0758
  272MOL0     H35871  -0.429   1.199   2.481  0.9334  0.0804 -0.5787
  272MOL0     H35872  -0.538   1.355   2.609  1.0114 -2.4755 -0.3769
  272MOL0     H35873  -0.646   1.276   2.501  1.8690 -2.0902 -1.9772
  272MOL0     H35874  -0.530   1.564   2.472 -0.6799  1.2136  2.6578
  272MOL0     H35875  -0.688   1.522   2.531  0.7313 -0.9770  0.7942
  272MOL0     H35876  -0.615   1.486   2.230 -3.6896 -2.7741 -1.8342
  272MOL0     H35877  -0.758   1.430   2.315 -1.2421  0.6021 -3.8572
  272MOL0     H35878  -0.660   1.709   2.332 -0.0177 -0.7214  5.2300
  272MOL0     H35879  -0.806   1.653   2.394  0.7368 -1.6876  0.3694
  272MOL0     H35880  -0.731   1.655   2.098  1.5273 -0.3348  0.5999
  272MOL0     H35881  -0.832   1.772   2.187 -0.8344 -0.7018  1.3319
  272MOL0     H35882  -0.907   1.478   2.140 -1.8638 -1.1148  0.2082
  272MOL0     H35883  -0.987   1.581   2.259 -0.9311 -2.6035 -0.2834
  272MOL0     H35884  -0.974   1.654   1.964  0.7466 -0.4044  1.7461
  272MOL0     H35885  -1.068   1.731   2.089 -2.2996 -0.4638 -1.0440
  272MOL0     H35886  -0.188   1.317   2.312 -1.8904  0.5658  1.4942
  272MOL0     H35887  -0.033   1.318   2.125  0.3900  2.1379 -0.3004
  272MOL0     H35888   0.154   1.391   1.804  0.8979 -0.9846 -0.4561
  272MOL0     H35889   0.286   1.476   1.637 -1.5266  1.2080 -0.3896
  272MOL0     H35890   1.911   1.005   0.733  0.3469 -0.1171 -0.7143
  272MOL0     H35891   2.154   1.026   0.676 -1.8748 -1.1443  0.0081
  272MOL0     H35892   2.545   1.088   0.449  1.3103 -0.2874  0.7944
  272MOL0     H35893   2.770   1.149   0.457 -0.4201 -0.2376 -1.2532
  272MOL0     H35894   2.946   1.483   0.731  0.3458 -0.5097 -0.2016
  272MOL0     H35895   2.874   1.561   0.592 -2.4059 -1.5632  2.0704
  272MOL0     H35896   3.135   1.390   0.638  0.6567 -0.6221 -1.2271
  272MOL0     H35897   3.114   1.479   0.491  0.9449 -1.7138  0.1441
  272MOL0     H35898   3.145   1.610   0.768 -0.9642  0.9957 -1.1086
  272MOL0     H35899   3.120   1.701   0.621 -0.0650  1.0584 -1.3205
  272MOL0     H35900   3.356   1.538   0.685 -0.1324 -0.7033 -0.0174
  272MOL0     H35901   3.334   1.591   0.523  1.9658  0.8452  0.3132
  272MOL0     H35902   3.460   1.933   0.761 -0.3930  0.4019 -0.5053
  272MOL0     H35903   2.685   1.488   0.713 -0.1815  0.5421 -0.8966
  272MOL0     H35904   2.463   1.395   0.750  1.0191 -0.1016 -0.0360
  273MOL0     O35905   3.224   5.228   6.306  0.5013  0.6435 -0.0013
  273MOL0     C35906   3.246   5.278   6.422  0.1961 -0.3978  0.2420
  273MOL0     O35907   3.150   5.340   6.503  0.5643  0.2041 -0.2548
  273MOL0     C35908   3.020   5.384   6.468 -0.2916  0.0224 -0.4472
  273MOL0     C35909   2.977   5.400   6.338 -0.3329  0.9182  0.6418
  273MOL0     C35910   2.851   5.457   6.308 -0.3414  0.1645 -0.7250
  273MOL0     C35911   2.761   5.489   6.410 -0.4451 -0.1092  0.3387
  273MOL0     O35912   2.645   5.536   6.370  0.5654 -0.1960  0.2702
  273MOL0     C35913   2.556   5.594   6.471 -0.6652  0.5745 -0.2995
  273MOL0     C35914   2.450   5.685   6.408  0.0319  0.0709 -0.1901
  273MOL0     C35915   2.350   5.723   6.521 -0.5128 -0.2563 -0.1341
  273MOL0     C35916   2.393   5.829   6.615  0.1414  0.4324 -0.5780
  273MOL0     C35917   2.309   5.830   6.754  0.2937  0.0227 -0.5034
  273MOL0     C35918   2.364   5.939   6.852 -0.5885  0.0956 -0.1585
  273MOL0     C35919   2.264   6.061   6.841 -0.1482  0.3401 -0.2300
  273MOL0     C35920   2.283   6.164   6.956  0.4415  0.1577 -0.0127
  273MOL0     N35921   2.205   6.286   6.949 -0.2096  0.5419  0.2460
  273MOL0     C35922   2.201   6.362   6.833 -0.1600  0.0714  0.4907
  273MOL0     C35923   2.101   6.453   6.855  0.5176  0.6478  0.5525
  273MOL0     C35924   2.063   6.560   6.759  0.4206 -0.3438  0.3066
  273MOL0     C35925   1.916   6.545   6.714  0.7719  0.2616 -0.5459
  273MOL0     C35926   1.903   6.418   6.632  1.1420  0.1067  0.1730
  273MOL0     C35927   1.750   6.381   6.619 -0.7117 -0.6853  0.4543
  273MOL0     O35928   1.696   6.355   6.750 -0.2958 -0.0942 -0.3143
  273MOL0     C35929   1.569   6.313   6.761 -0.0926  0.4780  1.0516
  273MOL0     C35930   1.480   6.279   6.653 -0.2278  0.1843 -0.4141
  273MOL0     C35931   1.350   6.235   6.684  0.0845  0.4959 -0.4436
  273MOL0     C35932   1.315   6.220   6.817  0.3669  0.0061 -1.2921
  273MOL0     C35933   1.177   6.178   6.855 -0.2076 -0.4794  0.8228
  273MOL0     O35934   1.098   6.132   6.755  0.5226 -0.0185  0.8036
  273MOL0     C35935   0.969   6.081   6.772 -0.3681 -0.2343 -0.1447
  273MOL0     C35936   0.885   6.145   6.860 -0.1976 -0.2080  0.5210
  273MOL0     C35937   0.763   6.087   6.898 -0.1055  0.3942 -0.0383
  273MOL0     C35938   0.728   5.960   6.846  0.0070 -0.0431  0.0108
  273MOL0     O35939   0.614   5.909   6.886 -0.1867 -0.1825 -0.0656
  273MOL0     C35940   0.586   5.772   6.847 -0.3288  0.2295 -0.4189
  273MOL0     C35941   0.466   5.723   6.929 -0.4125 -0.9551 -0.3367
  273MOL0     C35942   0.337   5.796   6.894 -0.3669  0.1033 -0.3173
  273MOL0     C35943   0.236   5.767   7.004  0.0085 -0.4580 -0.5946
  273MOL0     C35944   0.096   5.823   6.964 -0.3082 -0.6601  0.6190
  273MOL0     C35945   0.040   5.907   7.083  0.2432  0.3710  0.1304
  273MOL0     C35946  -0.108   5.943   7.057  0.7789 -1.0984  0.9310
  273MOL0     C35947  -0.137   6.034   6.935 -0.0515  0.6416 -0.8786
  273MOL0    Cl35948  -0.315   6.045   6.943  0.4027 -0.0221 -0.0980
  273MOL0     C35949   0.811   5.909   6.744  0.5073  0.4696  0.0145
  273MOL0     C35950   0.929   5.968   6.706  0.0176 -0.0981 -0.3527
  273MOL0     O35951   1.151   6.166   6.970  0.3484 -0.1977 -0.0641
  273MOL0     C35952   1.402   6.246   6.918 -0.8688 -0.9801 -1.1279
  273MOL0     C35953   1.528   6.289   6.888  0.1352  0.8484  0.4086
  273MOL0     N35954   2.059   6.430   6.985 -0.9372  0.0359 -0.1272
  273MOL0     N35955   2.113   6.329   7.037 -0.2706  0.6695  0.2915
  273MOL0     C35956   2.805   5.464   6.551  1.0224  1.1429 -0.3066
  273MOL0     C35957   2.932   5.410   6.574 -0.4370  1.0619 -0.2910
  273MOL0     C35958   3.380   5.272   6.485  0.7660  0.3560 -0.2761
  273MOL0     C35959   3.489   5.230   6.413  0.5719 -0.0956  0.0490
  273MOL0     C35960   3.617   5.232   6.464  0.3448  0.0104 -0.8756
  273MOL0     C35961   3.640   5.263   6.600  0.1027  0.7402 -0.1906
  273MOL0     O35962   3.764   5.237   6.652  0.3111 -0.2166 -0.2805
  273MOL0     C35963   3.793   5.317   6.772 -0.0806 -0.0832 -0.1011
  273MOL0     C35964   3.939   5.336   6.809  0.4585  0.3433 -0.8624
  273MOL0     C35965   3.991   5.199   6.848 -0.5912 -0.2492  0.2487
  273MOL0     C35966   4.137   5.188   6.869 -1.0508 -0.4841 -0.1283
  273MOL0     C35967   4.162   5.054   6.934  0.8029  0.1984 -0.7879
  273MOL0     C35968   4.187   4.949   6.980  0.5989 -0.0880  0.2170
  273MOL0     C35969   3.532   5.316   6.675  0.2722 -0.3228 -0.2017
  273MOL0     C35970   3.403   5.320   6.618  0.2017 -0.2834  0.0725
  273MOL0     H35971   3.054   5.384   6.263 -1.3520  0.2826 -0.2902
  273MOL0     H35972   2.834   5.477   6.203  3.3258 -3.1615 -2.2270
  273MOL0     H35973   2.613   5.660   6.537  0.5748 -2.2354  1.6482
  273MOL0     H35974   2.510   5.513   6.528  2.3712 -0.7099  0.5474
  273MOL0     H35975   2.394   5.636   6.328 -0.3860  0.4362 -0.1300
  273MOL0     H35976   2.490   5.771   6.354  1.0200 -0.4458 -0.3014
  273MOL0     H35977   2.317   5.631   6.569 -1.5775  0.8817  1.4085
  273MOL0     H35978   2.262   5.769   6.475 -0.6878  0.8554  1.2297
  273MOL0     H35979   2.495   5.811   6.650 -0.0109  0.7536  0.0514
  273MOL0     H35980   2.393   5.927   6.565  0.0090  0.4376 -0.5678
  273MOL0     H35981   2.321   5.728   6.793  1.0007 -0.7689 -2.6205
  273MOL0     H35982   2.201   5.837   6.742 -0.0102  1.0759  2.2154
  273MOL0     H35983   2.463   5.966   6.813 -1.1723  0.1634 -1.6456
  273MOL0     H35984   2.364   5.896   6.952 -1.8136  0.7455  0.1412
  273MOL0     H35985   2.267   6.108   6.743  0.8262 -0.2377 -0.4839
  273MOL0     H35986   2.164   6.015   6.848 -0.0524 -0.2824 -2.3511
  273MOL0     H35987   2.386   6.200   6.946  0.3917  1.0318  2.0263
  273MOL0     H35988   2.263   6.126   7.057 -0.4117  3.0010  1.0054
  273MOL0     H35989   2.255   6.352   6.740 -0.8021  1.6170 -0.0871
  273MOL0     H35990   2.131   6.554   6.674  1.9980  1.9833  1.2960
  273MOL0     H35991   2.075   6.655   6.812 -1.0742 -0.7047  1.3521
  273MOL0     H35992   1.865   6.625   6.659  0.7156 -0.7387 -2.0003
  273MOL0     H35993   1.860   6.538   6.808  0.1073 -1.8326 -1.0589
  273MOL0     H35994   1.945   6.435   6.532  1.4887 -4.0022 -0.5889
  273MOL0     H35995   1.954   6.330   6.674  2.3170  0.6361 -0.0842
  273MOL0     H35996   1.735   6.295   6.553 -2.8194  1.4815 -2.0889
  273MOL0     H35997   1.713   6.471   6.570 -0.0166  0.0366  1.2215
  273MOL0     H35998   1.515   6.282   6.550 -0.8546 -3.3823 -0.8506
  273MOL0     H35999   1.287   6.206   6.600  0.5512  0.1079 -0.6649
  273MOL0     H36000   0.904   6.237   6.914  0.1039 -0.8118  1.4642
  273MOL0     H36001   0.700   6.139   6.970 -0.3528  1.7205 -1.1536
  273MOL0     H36002   0.677   5.723   6.883  1.7098  4.0458  0.2381
  273MOL0     H36003   0.562   5.766   6.740 -0.5667  0.6575 -0.3936
  273MOL0     H36004   0.480   5.744   7.035  0.9091  0.5405 -0.7593
  273MOL0     H36005   0.454   5.616   6.912  2.1072 -1.0036 -2.4293
  273MOL0     H36006   0.306   5.748   6.801  1.1147 -3.9440  1.0562
  273MOL0     H36007   0.349   5.904   6.888  0.3738  0.1730  1.5356
  273MOL0     H36008   0.225   5.661   7.030 -0.7150 -0.2692 -0.0936
  273MOL0     H36009   0.275   5.820   7.092  1.2466 -0.7374 -0.9525
  273MOL0     H36010   0.037   5.738   6.928 -0.4193 -1.3313  2.2574
  273MOL0     H36011   0.102   5.893   6.881  0.0416 -0.1299  1.0882
  273MOL0     H36012   0.102   5.997   7.078  0.7965 -0.0347 -4.7961
  273MOL0     H36013   0.044   5.861   7.182 -4.5190 -0.3388  0.2460
  273MOL0     H36014  -0.173   5.855   7.057 -0.3477 -0.2971  0.8403
  273MOL0     H36015  -0.137   6.006   7.142 -0.4917 -1.0410  0.4790
  273MOL0     H36016  -0.104   5.997   6.838 -1.0359 -0.2409 -0.9086
  273MOL0     H36017  -0.087   6.130   6.951 -0.4186  0.7894 -0.5949
  273MOL0     H36018   0.786   5.819   6.689 -0.7516  1.3520 -0.9180
  273MOL0     H36019   0.997   5.912   6.641 -0.7999  0.4698 -1.7512
  273MOL0     H36020   1.375   6.227   7.022 -0.3410  2.8247 -0.1485
  273MOL0     H36021   1.609   6.300   6.960  0.0409 -0.9706  0.8335
  273MOL0     H36022   2.733   5.480   6.630  1.6262  1.9167  0.0949
  273MOL0     H36023   2.968   5.392   6.675  3.3597 -0.5092 -1.7194
  273MOL0     H36024   3.466   5.206   6.310  0.8778 -0.5110  0.0797
  273MOL0     H36025   3.698   5.197   6.401  0.3827 -1.2117 -0.1639
  273MOL0     H36026   3.745   5.264   6.855  2.0412 -0.9612  0.6345
  273MOL0     H36027   3.754   5.419   6.764 -2.8748 -1.1114 -0.5515
  273MOL0     H36028   3.986   5.386   6.723 -1.1313 -0.5069 -2.2990
  273MOL0     H36029   3.943   5.400   6.897  0.7271 -3.5245  2.2120
  273MOL0     H36030   3.951   5.118   6.787  0.9561 -2.7437  2.3415
  273MOL0     H36031   3.948   5.164   6.941  1.3116 -3.7414 -0.0160
  273MOL0     H36032   4.186   5.186   6.771 -0.6923 -4.4931 -0.0279
  273MOL0     H36033   4.172   5.273   6.928 -1.4700  0.7730 -1.6433
  273MOL0     H36034   4.197   4.850   7.020  0.5463  0.2236  1.0226
  273MOL0     H36035   3.540   5.351   6.778  3.1037  2.9866 -1.3307
  273MOL0     H36036   3.322   5.350   6.683 -0.6953 -1.8499 -0.2672
  274MOL0     O36037   3.305  10.192   1.576  0.1745  1.2267 -0.5351
  274MOL0     C36038   3.334  10.245   1.683  0.5749 -0.4318 -0.0530
  274MOL0     O36039   3.260  10.340   1.748  0.8534  0.6491  0.2188
  274MOL0     C36040   3.152  10.391   1.682 -0.4169  0.3644  0.5312
  274MOL0     C36041   3.145  10.521   1.647 -0.0517 -0.4960 -0.8945
  274MOL0     C36042   3.034  10.574   1.580 -1.0012 -0.3563  0.2887
  274MOL0     C36043   2.928  10.491   1.546 -1.4570  0.5809 -0.0433
  274MOL0     O36044   2.823  10.548   1.482  0.4785  0.3565 -0.3668
  274MOL0     C36045   2.857  10.597   1.354  0.3120 -0.5173 -0.4085
  274MOL0     C36046   2.739  10.637   1.274 -0.1760 -0.0624  0.0088
  274MOL0     C36047   2.706  10.785   1.294 -0.0726  0.2882  0.4594
  274MOL0     C36048   2.588  10.831   1.202 -0.4117  0.7766 -0.3313
  274MOL0     C36049   2.545  10.971   1.238  0.1435 -0.1974  1.0529
  274MOL0     C36050   2.436  11.038   1.153 -0.2036  0.4436 -0.4569
  274MOL0     C36051   2.388  11.176   1.190  0.8829 -0.1778  0.1969
  274MOL0     C36052   2.292  11.238   1.090  1.0074 -0.1849  0.7330
  274MOL0     N36053   2.158  11.172   1.095 -0.1293 -0.1182 -0.3679
  274MOL0     C36054   2.113  11.086   1.003 -0.7291  0.1516  0.2172
  274MOL0     C36055   1.990  11.041   1.040 -0.2159 -0.4638  0.2030
  274MOL0     C36056   1.911  10.935   0.969  0.0138  0.2989  0.1985
  274MOL0     C36057   1.823  10.987   0.862  0.1851  0.6890 -0.3297
  274MOL0     C36058   1.894  11.045   0.747 -0.3449  0.0913  0.5456
  274MOL0     C36059   1.815  11.089   0.622 -0.2760 -0.1274  0.2384
  274MOL0     O36060   1.702  11.160   0.649 -0.2174  0.0685  0.6284
  274MOL0     C36061   1.581  11.100   0.650 -0.1276 -0.5655 -0.5024
  274MOL0     C36062   1.476  11.189   0.645 -0.5970 -0.0096 -0.3661
  274MOL0     C36063   1.345  11.152   0.644 -0.2743 -0.2222  0.0554
  274MOL0     C36064   1.305  11.020   0.654  0.2120 -0.4009 -1.3873
  274MOL0     C36065   1.164  10.973   0.627  0.4590  0.5229  0.3003
  274MOL0     O36066   1.129  10.843   0.640 -0.5172 -0.1627  0.8810
  274MOL0     C36067   0.998  10.817   0.603  0.3118 -0.2474  0.5974
  274MOL0     C36068   0.977  10.772   0.467  0.6034  0.1610  0.6706
  274MOL0     C36069   0.845  10.752   0.421 -0.6308  0.2833  0.6584
  274MOL0     C36070   0.738  10.783   0.502  0.3102  0.3342 -0.5633
  274MOL0     O36071   0.618  10.790   0.436  0.1836 -0.2780  0.4401
  274MOL0     C36072   0.498  10.818   0.502  0.0292 -0.4744 -0.1622
  274MOL0     C36073   0.394  10.824   0.405 -0.4766  0.6601 -0.1637
  274MOL0     C36074   0.264  10.892   0.435  0.0861  0.5204  0.6037
  274MOL0     C36075   0.197  10.830   0.559  0.3091  0.4611 -0.2619
  274MOL0     C36076   0.078  10.925   0.603  0.0149 -0.2646 -0.2284
  274MOL0     C36077  -0.056  10.876   0.540 -0.0362 -0.1759  0.1729
  274MOL0     C36078  -0.177  10.941   0.622  0.0074 -0.2206  0.2976
  274MOL0     C36079  -0.311  10.895   0.553  0.3863  0.4944  0.2912
  274MOL0    Cl36080  -0.329  10.962   0.388 -0.2173  0.0895  0.3726
  274MOL0     C36081   0.754  10.813   0.639 -0.1229 -0.9833  0.2631
  274MOL0     C36082   0.888  10.832   0.684 -0.5004 -0.4611 -0.5459
  274MOL0     O36083   1.092  11.061   0.584  0.5385 -0.2833  0.2627
  274MOL0     C36084   1.407  10.921   0.656 -0.0068  0.0492 -0.1099
  274MOL0     C36085   1.541  10.966   0.644 -0.4612  0.2863  0.0604
  274MOL0     N36086   1.959  11.111   1.156  0.2830 -0.6686  0.4755
  274MOL0     N36087   2.055  11.189   1.188 -0.2107 -0.4418 -0.1762
  274MOL0     C36088   2.931  10.358   1.581 -0.0886 -0.3706 -0.3714
  274MOL0     C36089   3.047  10.307   1.656  0.6361 -0.1670 -0.8173
  274MOL0     C36090   3.468  10.213   1.733 -0.4126 -0.0796 -0.2811
  274MOL0     C36091   3.537  10.297   1.830 -0.2528 -0.6749  0.6044
  274MOL0     C36092   3.660  10.251   1.885 -0.8893 -0.0351 -0.3387
  274MOL0     C36093   3.717  10.124   1.858 -0.2833 -0.1845  0.1320
  274MOL0     O36094   3.849  10.094   1.895 -0.0289 -0.1168 -0.0262
  274MOL0     C36095   3.924  10.170   1.999  0.8291  0.0710 -0.3614
  274MOL0     C36096   4.011  10.275   1.946  0.2639  0.3203  0.1954
  274MOL0     C36097   4.137  10.273   2.038  0.7486 -0.2638  1.3077
  274MOL0     C36098   4.235  10.383   2.012  0.2173  0.4817  0.3749
  274MOL0     C36099   4.312  10.362   1.884  0.1569  0.0150  0.7988
  274MOL0     C36100   4.373  10.343   1.780  0.1195  0.8031  0.8727
  274MOL0     C36101   3.646  10.043   1.772 -0.0143  0.6662 -0.8983
  274MOL0     C36102   3.534  10.090   1.709  0.6064  1.0623  0.0414
  274MOL0     H36103   3.232  10.582   1.673 -0.8715  0.3168  0.0329
  274MOL0     H36104   3.023  10.679   1.556  2.4499 -0.2668 -1.5260
  274MOL0     H36105   2.904  10.513   1.301 -0.3353 -1.1288 -0.0307
  274MOL0     H36106   2.916  10.688   1.363 -2.7952  1.5374  0.7929
  274MOL0     H36107   2.656  10.570   1.300 -1.8620  1.5268 -1.0057
  274MOL0     H36108   2.765  10.627   1.168  1.9412  2.0287  0.2436
  274MOL0     H36109   2.793  10.846   1.271 -0.8942  1.9665  1.6455
  274MOL0     H36110   2.687  10.802   1.400  0.5071  1.0889  0.4364
  274MOL0     H36111   2.625  10.824   1.099  0.6975  1.0057  0.0326
  274MOL0     H36112   2.505  10.765   1.229  0.5943 -0.1244  0.6698
  274MOL0     H36113   2.632  11.033   1.213 -0.3994 -0.9333 -3.5028
  274MOL0     H36114   2.527  10.974   1.346  0.1441 -0.7011  1.0658
  274MOL0     H36115   2.353  10.968   1.140  2.0116 -2.1920 -1.3884
  274MOL0     H36116   2.479  11.042   1.053 -2.4129 -0.6995 -1.5318
  274MOL0     H36117   2.343  11.183   1.290 -1.1814  3.4067 -0.8028
  274MOL0     H36118   2.481  11.234   1.193 -0.9988  3.1683 -1.1473
  274MOL0     H36119   2.332  11.222   0.989  1.0798 -3.3342  1.1490
  274MOL0     H36120   2.277  11.342   1.118  2.4528  0.1920  0.1863
  274MOL0     H36121   2.171  11.061   0.915 -1.0075  0.5386 -0.0769
  274MOL0     H36122   1.847  10.891   1.046 -1.5631  1.3034 -0.4693
  274MOL0     H36123   1.974  10.854   0.931 -1.5591 -0.4748 -0.9093
  274MOL0     H36124   1.762  11.066   0.908  1.7641  2.4629 -1.1094
  274MOL0     H36125   1.766  10.900   0.829 -0.1979  1.0407 -0.6209
  274MOL0     H36126   1.956  11.123   0.791 -0.1715 -1.7136  3.8113
  274MOL0     H36127   1.955  10.969   0.697 -0.1266  0.8596 -0.3825
  274MOL0     H36128   1.788  11.001   0.562 -1.2806  1.0898 -1.1632
  274MOL0     H36129   1.871  11.152   0.552 -2.7492  2.7757  0.6918
  274MOL0     H36130   1.496  11.295   0.642  0.0881 -0.0901  0.8893
  274MOL0     H36131   1.270  11.230   0.647  0.8202  0.9171 -1.1591
  274MOL0     H36132   1.053  10.747   0.393  0.6842  1.4309  0.2980
  274MOL0     H36133   0.820  10.721   0.321 -2.7258 -1.3754  1.6287
  274MOL0     H36134   0.502  10.914   0.555 -3.3203  0.2135 -0.9675
  274MOL0     H36135   0.471  10.742   0.576  0.0797 -1.1219 -0.7928
  274MOL0     H36136   0.367  10.723   0.373  0.1210  1.1728 -2.4601
  274MOL0     H36137   0.428  10.871   0.312  0.6642 -2.4660 -1.4752
  274MOL0     H36138   0.197  10.893   0.348 -0.2059 -0.2464  0.8120
  274MOL0     H36139   0.294  10.994   0.464 -0.1866  0.6593  0.3953
  274MOL0     H36140   0.157  10.730   0.546  2.7227 -0.4803 -1.0567
  274MOL0     H36141   0.273  10.821   0.637 -0.3559  0.0260  0.3408
  274MOL0     H36142   0.096  11.030   0.579  0.6721 -0.1155  0.8219
  274MOL0     H36143   0.066  10.923   0.712  0.1729  2.9210 -0.0530
  274MOL0     H36144  -0.069  10.767   0.541 -2.1793  0.0426  0.5874
  274MOL0     H36145  -0.069  10.910   0.437 -1.3685  0.2538  0.4635
  274MOL0     H36146  -0.177  10.909   0.727 -0.1368 -1.8911 -0.1872
  274MOL0     H36147  -0.164  11.049   0.612 -3.3330  0.2296 -0.1660
  274MOL0     H36148  -0.404  10.921   0.605 -2.4420 -1.0377 -3.5486
  274MOL0     H36149  -0.320  10.787   0.543  0.3024  0.5122  0.1594
  274MOL0     H36150   0.674  10.836   0.709  1.2149  3.0704  0.7653
  274MOL0     H36151   0.907  10.866   0.785  0.7581  3.5286 -1.9287
  274MOL0     H36152   1.386  10.815   0.659  1.4375 -0.2935 -1.1636
  274MOL0     H36153   1.619  10.890   0.639 -0.0899  0.6594  0.0810
  274MOL0     H36154   2.844  10.293   1.574  0.7023 -1.6538  1.0310
  274MOL0     H36155   3.040  10.203   1.688  2.4422 -1.2292 -3.4456
  274MOL0     H36156   3.508  10.402   1.831  1.1429 -0.2666  1.6461
  274MOL0     H36157   3.721  10.321   1.941  2.3274 -1.0339 -2.3077
  274MOL0     H36158   3.976  10.094   2.059 -1.1978 -0.5606  0.6890
  274MOL0     H36159   3.856  10.212   2.074 -1.3572 -3.0149 -0.4280
  274MOL0     H36160   4.034  10.251   1.842  1.9801  2.3877  0.0239
  274MOL0     H36161   3.964  10.374   1.955 -0.9620 -0.3116  1.1140
  274MOL0     H36162   4.192  10.178   2.039 -0.2156 -0.8354  2.2045
  274MOL0     H36163   4.102  10.288   2.140  2.9651 -1.3774  2.3203
  274MOL0     H36164   4.179  10.477   2.004 -1.1364 -0.4259 -1.4740
  274MOL0     H36165   4.304  10.397   2.096 -0.0729  1.2623  0.4909
  274MOL0     H36166   4.426  10.317   1.691  0.9983  1.6014  1.1471
  274MOL0     H36167   3.688   9.950   1.736  0.3986  1.1393 -1.6434
  274MOL0     H36168   3.502  10.033   1.622 -0.8006  2.7584 -0.6335
  275MOL0     O36169   4.598   5.257   6.252  0.0635 -0.4847 -0.7363
  275MOL0     C36170   4.658   5.307   6.157 -0.2240 -0.5955  0.0378
  275MOL0     O36171   4.636   5.276   6.025 -0.5258 -0.4510  0.0592
  275MOL0     C36172   4.529   5.209   5.980 -1.0545 -0.0955 -0.3866
  275MOL0     C36173   4.403   5.184   6.044 -0.5716  0.2736  0.6164
  275MOL0     C36174   4.302   5.107   5.981 -0.2127  0.4783  0.5976
  275MOL0     C36175   4.314   5.051   5.855  0.2313 -1.4835 -1.2910
  275MOL0     O36176   4.221   4.980   5.794  0.5001 -0.5981  0.1725
  275MOL0     C36177   4.084   4.979   5.844 -0.4424 -0.8577 -0.3831
  275MOL0     C36178   3.992   4.907   5.738 -0.8001  0.0659 -1.2216
  275MOL0     C36179   3.878   4.838   5.809  0.1340 -0.4472 -0.4248
  275MOL0     C36180   3.776   4.796   5.702 -0.2946 -0.0215  0.3468
  275MOL0     C36181   3.650   4.750   5.782  0.0449 -0.2512 -0.0852
  275MOL0     C36182   3.540   4.704   5.684 -0.2956  0.2397  0.1977
  275MOL0     C36183   3.441   4.600   5.748 -0.9960  0.1663 -0.1690
  275MOL0     C36184   3.379   4.651   5.874  0.4829  0.2637  0.0764
  275MOL0     N36185   3.259   4.572   5.910  0.2269 -0.2254  0.8292
  275MOL0     C36186   3.258   4.451   5.970 -0.3941 -0.0032  0.1668
  275MOL0     C36187   3.129   4.425   5.981 -0.0680  0.5519 -0.8085
  275MOL0     C36188   3.077   4.307   6.058  0.0663  0.5435 -0.6862
  275MOL0     C36189   2.926   4.280   6.049 -0.1834  0.3448  0.7105
  275MOL0     C36190   2.842   4.374   6.130  0.1613 -0.5565 -1.1235
  275MOL0     C36191   2.687   4.366   6.103 -0.2379  0.1340  0.2661
  275MOL0     O36192   2.657   4.425   5.976 -0.2133  0.2837  0.0110
  275MOL0     C36193   2.523   4.443   5.955  0.2329 -0.0562  0.4436
  275MOL0     C36194   2.491   4.491   5.832  0.1114 -0.4476  0.0527
  275MOL0     C36195   2.357   4.502   5.800  0.2579 -0.0125  0.7693
  275MOL0     C36196   2.254   4.467   5.888  0.1419  0.3315  0.3265
  275MOL0     C36197   2.116   4.491   5.847  0.0314  0.6689 -0.0976
  275MOL0     O36198   2.093   4.518   5.719  0.3005  0.2129  0.2077
  275MOL0     C36199   1.958   4.539   5.684 -0.4239  0.4464  0.1513
  275MOL0     C36200   1.896   4.654   5.729  0.3480 -0.0077 -0.0847
  275MOL0     C36201   1.763   4.673   5.698  0.1503 -0.0568 -0.7431
  275MOL0     C36202   1.700   4.589   5.612 -0.3884 -0.1099 -0.0060
  275MOL0     O36203   1.567   4.626   5.593 -0.3257  0.0770 -0.2023
  275MOL0     C36204   1.481   4.536   5.521 -0.8495 -0.3597 -0.4347
  275MOL0     C36205   1.346   4.599   5.471 -0.1074  0.2956 -0.3418
  275MOL0     C36206   1.270   4.479   5.411 -0.3401  0.5740  0.3137
  275MOL0     C36207   1.142   4.534   5.337  0.4505  0.3047  0.3163
  275MOL0     C36208   1.050   4.423   5.286  0.0818 -0.7446 -0.2851
  275MOL0     C36209   1.093   4.357   5.157 -0.3430  0.5954  0.1029
  275MOL0     C36210   1.074   4.455   5.035  0.4398  0.4849 -0.0308
  275MOL0     C36211   1.136   4.392   4.908 -0.0654 -0.0129 -0.3887
  275MOL0    Cl36212   1.035   4.256   4.850  0.2908  0.2028 -0.0434
  275MOL0     C36213   1.766   4.478   5.555  0.0961 -0.8746 -0.0576
  275MOL0     C36214   1.902   4.456   5.593  0.9845 -0.5781  0.2259
  275MOL0     O36215   2.040   4.496   5.939 -0.3282 -0.1021 -0.2441
  275MOL0     C36216   2.286   4.427   6.015  0.3532  0.5388  0.5479
  275MOL0     C36217   2.422   4.416   6.047  0.1053  0.6639 -0.5632
  275MOL0     N36218   3.052   4.531   5.934  0.1440 -0.5481 -0.6170
  275MOL0     N36219   3.136   4.624   5.888 -0.4416  0.3154  0.5398
  275MOL0     C36220   4.439   5.071   5.788 -0.1049  0.9570 -0.2104
  275MOL0     C36221   4.536   5.159   5.845  0.9400 -0.5469 -0.2826
  275MOL0     C36222   4.764   5.400   6.189  0.1032 -0.9977 -0.2356
  275MOL0     C36223   4.806   5.429   6.324 -0.2588  0.8289 -0.8168
  275MOL0     C36224   4.912   5.518   6.347 -0.3450  0.9868  0.1348
  275MOL0     C36225   4.980   5.576   6.238 -0.1871  0.6720  0.0107
  275MOL0     O36226   5.096   5.645   6.267  0.2064  0.6430  0.2905
  275MOL0     C36227   5.185   5.697   6.160  0.2397 -0.1108 -1.0700
  275MOL0     C36228   5.332   5.667   6.216  0.8023 -0.2274  0.2029
  275MOL0     C36229   5.354   5.513   6.244  0.4812 -0.2194 -0.4198
  275MOL0     C36230   5.500   5.479   6.281  0.8916  0.0531  1.0595
  275MOL0     C36231   5.580   5.483   6.162 -1.4494  0.1817 -1.2035
  275MOL0     C36232   5.652   5.497   6.064 -0.3964  1.0992 -0.0839
  275MOL0     C36233   4.926   5.554   6.108  0.1183  0.8759 -1.1078
  275MOL0     C36234   4.822   5.476   6.085  0.7764 -0.0694 -0.5339
  275MOL0     H36235   4.388   5.242   6.135  0.8927  0.0943  0.9990
  275MOL0     H36236   4.210   5.096   6.036 -0.1756  0.2252  0.6093
  275MOL0     H36237   4.053   5.083   5.861  1.6452 -0.1578 -0.6269
  275MOL0     H36238   4.082   4.933   5.943 -0.0177  2.0854  1.0994
  275MOL0     H36239   4.044   4.827   5.684  0.2394  0.3676 -0.7069
  275MOL0     H36240   3.958   4.982   5.666 -0.2235  0.1534 -1.4119
  275MOL0     H36241   3.838   4.905   5.885  0.8183 -0.1434 -0.3247
  275MOL0     H36242   3.917   4.749   5.859 -1.6117 -1.3679 -0.6090
  275MOL0     H36243   3.752   4.880   5.636 -0.7717 -0.3786  0.0605
  275MOL0     H36244   3.817   4.708   5.653  0.8088  1.7996 -2.2131
  275MOL0     H36245   3.619   4.820   5.860 -3.1538 -3.0460  1.4131
  275MOL0     H36246   3.680   4.664   5.842 -1.0462 -0.1773  0.6000
  275MOL0     H36247   3.594   4.660   5.600  4.6538  0.9817  2.6162
  275MOL0     H36248   3.490   4.790   5.638  0.1036 -0.1329 -0.9761
  275MOL0     H36249   3.375   4.570   5.666  0.1234 -2.1044 -0.3065
  275MOL0     H36250   3.494   4.513   5.786  1.0004  1.3759 -0.0520
  275MOL0     H36251   3.358   4.758   5.866  0.0488  0.1583 -0.2155
  275MOL0     H36252   3.459   4.639   5.948  0.7326 -0.4460 -0.3004
  275MOL0     H36253   3.343   4.389   5.997  1.1900  0.6014 -2.9137
  275MOL0     H36254   3.086   4.337   6.162 -0.6505  0.9206 -0.7252
  275MOL0     H36255   3.143   4.223   6.037  1.2879  1.1793  0.4680
  275MOL0     H36256   2.913   4.183   6.098  2.5228  0.3891  1.6736
  275MOL0     H36257   2.899   4.275   5.943 -0.3459 -1.9858  0.8103
  275MOL0     H36258   2.856   4.364   6.238 -0.6343 -1.1851 -1.0689
  275MOL0     H36259   2.877   4.472   6.094 -0.3469  0.1521  0.2408
  275MOL0     H36260   2.648   4.415   6.193  1.6595 -2.0289  2.4131
  275MOL0     H36261   2.660   4.260   6.105 -0.5523  0.2188  1.8178
  275MOL0     H36262   2.562   4.526   5.757  0.2463  2.0041  1.2236
  275MOL0     H36263   2.322   4.542   5.705  0.4124  4.7489  2.4389
  275MOL0     H36264   1.958   4.717   5.793  2.0510  1.3894 -2.8506
  275MOL0     H36265   1.714   4.760   5.739 -0.3191 -0.5194 -0.3089
  275MOL0     H36266   1.465   4.451   5.586 -2.5023 -0.6977 -1.2194
  275MOL0     H36267   1.542   4.516   5.432  0.0931  4.3633 -1.1612
  275MOL0     H36268   1.364   4.672   5.392  1.4292 -0.2563 -0.5380
  275MOL0     H36269   1.296   4.647   5.556  1.9658  0.7019  0.6933
  275MOL0     H36270   1.244   4.410   5.492 -1.8063 -3.0740 -2.9449
  275MOL0     H36271   1.324   4.423   5.333  0.4196 -1.3519  2.1356
  275MOL0     H36272   1.084   4.594   5.408  0.0965  1.5578 -0.9805
  275MOL0     H36273   1.176   4.602   5.258 -1.3935  1.5297  0.5231
  275MOL0     H36274   0.947   4.458   5.284  0.0569 -0.7396 -3.4827
  275MOL0     H36275   1.061   4.345   5.362  1.4135 -0.8060 -0.5149
  275MOL0     H36276   1.037   4.264   5.146  2.3641 -1.0885 -0.2270
  275MOL0     H36277   1.199   4.331   5.159 -0.9050 -2.0221 -0.2612
  275MOL0     H36278   0.966   4.464   5.017  0.1451 -0.9893  0.8356
  275MOL0     H36279   1.125   4.549   5.058 -0.9704  2.0411 -2.6492
  275MOL0     H36280   1.239   4.361   4.925 -0.8225 -1.1509  2.9854
  275MOL0     H36281   1.137   4.477   4.840 -2.7169  0.2396 -0.2158
  275MOL0     H36282   1.714   4.405   5.494 -1.2277 -0.8772  1.0279
  275MOL0     H36283   1.944   4.364   5.554  1.5701 -0.9671  1.7134
  275MOL0     H36284   2.208   4.398   6.084  0.5374  0.4461  0.7172
  275MOL0     H36285   2.441   4.387   6.150 -1.9304  1.0563 -0.0432
  275MOL0     H36286   4.458   5.031   5.689 -1.1286  0.9417 -0.4051
  275MOL0     H36287   4.615   5.194   5.779 -0.5525 -0.1521 -1.9360
  275MOL0     H36288   4.766   5.372   6.406  0.3740  0.3068 -0.8611
  275MOL0     H36289   4.960   5.536   6.442  2.5507 -2.0460 -0.5567
  275MOL0     H36290   5.162   5.802   6.142 -3.1250 -0.2088  1.6288
  275MOL0     H36291   5.167   5.644   6.066  2.2710 -1.9781 -0.4819
  275MOL0     H36292   5.402   5.697   6.137  1.7969 -0.3595  1.0098
  275MOL0     H36293   5.342   5.728   6.307 -0.8433 -0.5324  0.6251
  275MOL0     H36294   5.323   5.458   6.155 -1.2811 -1.1252  0.6906
  275MOL0     H36295   5.289   5.474   6.323 -0.0429 -0.6611 -1.0627
  275MOL0     H36296   5.523   5.541   6.368  2.4555 -2.3397  2.4911
  275MOL0     H36297   5.501   5.376   6.319 -2.0007 -1.5211 -2.5693
  275MOL0     H36298   5.695   5.512   5.967 -2.1712 -0.2487 -1.1369
  275MOL0     H36299   4.972   5.605   6.023 -1.0358  1.5914 -1.3266
  275MOL0     H36300   4.783   5.487   5.984  0.4689 -1.5017 -0.5911
  276MOL0     O36301   8.762   3.253   5.778  0.4554 -0.2961  0.3057
  276MOL0     C36302   8.840   3.233   5.871  0.1867 -0.0956  0.6126
  276MOL0     O36303   8.797   3.194   5.992 -0.5212 -0.0894 -0.1488
  276MOL0     C36304   8.663   3.183   6.027  0.4032  0.7002 -0.6695
  276MOL0     C36305   8.566   3.122   5.938  0.8588  0.8523 -0.3250
  276MOL0     C36306   8.430   3.094   5.981  0.4741  0.1096  0.4435
  276MOL0     C36307   8.385   3.143   6.109  1.0251 -0.1167  0.6487
  276MOL0     O36308   8.259   3.109   6.154  0.1208  0.5898  0.5786
  276MOL0     C36309   8.161   3.206   6.164  0.7090 -0.8809  0.9341
  276MOL0     C36310   8.047   3.162   6.258 -0.0618  0.5599  0.5136
  276MOL0     C36311   7.943   3.273   6.271 -0.6655  0.6004 -0.7888
  276MOL0     C36312   7.822   3.235   6.343 -0.0862 -0.3123 -1.0196
  276MOL0     C36313   7.728   3.355   6.335 -0.0303 -0.3118  0.2163
  276MOL0     C36314   7.630   3.367   6.450 -0.6834 -0.3998 -0.1379
  276MOL0     C36315   7.542   3.238   6.453  0.2657 -0.3161  0.2062
  276MOL0     C36316   7.401   3.263   6.509  0.6375  0.8247  0.5117
  276MOL0     N36317   7.391   3.325   6.642  0.1544 -0.0537 -1.4731
  276MOL0     C36318   7.351   3.455   6.648 -0.3340  0.3612  0.3352
  276MOL0     C36319   7.334   3.478   6.778 -0.8438 -0.3010  0.0939
  276MOL0     C36320   7.313   3.615   6.833 -0.5144  0.8385 -0.3444
  276MOL0     C36321   7.170   3.655   6.837  0.1024 -0.2699  0.3971
  276MOL0     C36322   7.146   3.804   6.873 -0.0462  0.2643  0.0836
  276MOL0     C36323   6.999   3.840   6.864  0.5222  0.2857 -0.4252
  276MOL0     O36324   6.959   3.844   6.725 -0.0386  0.1621 -0.5133
  276MOL0     C36325   6.823   3.849   6.720 -0.0570  0.0390  0.3020
  276MOL0     C36326   6.730   3.752   6.764 -0.8278  0.3399 -0.3117
  276MOL0     C36327   6.593   3.768   6.750  0.7855  0.5153 -0.2617
  276MOL0     C36328   6.545   3.894   6.706  0.4199 -0.1010 -0.3705
  276MOL0     C36329   6.404   3.928   6.693 -0.4992  0.8963  0.0552
  276MOL0     O36330   6.367   4.050   6.639 -0.3801  0.4324 -0.6316
  276MOL0     C36331   6.235   4.091   6.616 -0.6825  0.6439 -0.5207
  276MOL0     C36332   6.125   4.055   6.698 -0.0881  0.0067  0.6964
  276MOL0     C36333   5.999   4.098   6.669 -0.1631 -0.4424 -0.4360
  276MOL0     C36334   5.976   4.174   6.558 -0.7715  0.0379  0.3479
  276MOL0     O36335   5.852   4.217   6.517 -0.1676 -0.9106 -0.3770
  276MOL0     C36336   5.731   4.182   6.588 -1.1832 -0.0514  0.0261
  276MOL0     C36337   5.621   4.258   6.519  0.4187 -0.5277 -0.1795
  276MOL0     C36338   5.492   4.246   6.596 -1.1744  0.1810 -0.4319
  276MOL0     C36339   5.395   4.358   6.555  0.5758 -0.5966  0.3045
  276MOL0     C36340   5.269   4.362   6.637  0.8300  0.4608 -0.4608
  276MOL0     C36341   5.160   4.451   6.571 -0.2067  0.4702  0.3044
  276MOL0     C36342   5.086   4.534   6.676  0.1654 -0.2061  0.2449
  276MOL0     C36343   5.030   4.649   6.591  0.6203 -0.1956 -0.4015
  276MOL0    Cl36344   4.889   4.601   6.487  0.2351  0.6593  0.3359
  276MOL0     C36345   6.086   4.224   6.482  0.0254 -0.0702  0.6616
  276MOL0     C36346   6.215   4.181   6.515  0.3691 -0.5128  0.9234
  276MOL0     O36347   6.326   3.834   6.719 -0.6021  0.1438  0.4370
  276MOL0     C36348   6.639   3.987   6.662  0.9708 -0.1837  0.8571
  276MOL0     C36349   6.773   3.962   6.663  0.1442 -0.2385 -1.0315
  276MOL0     N36350   7.348   3.359   6.850 -0.0082  0.7839  1.0434
  276MOL0     N36351   7.379   3.264   6.767 -1.2303  0.0893 -0.1344
  276MOL0     C36352   8.485   3.186   6.193 -0.9743 -0.7140  0.6561
  276MOL0     C36353   8.612   3.213   6.156 -0.0317 -0.0380 -0.1256
  276MOL0     C36354   8.986   3.262   5.846  0.1373  0.0475  0.1129
  276MOL0     C36355   9.037   3.267   5.708 -0.8359 -0.1245 -0.3873
  276MOL0     C36356   9.172   3.318   5.694  0.0896  0.4545 -0.4483
  276MOL0     C36357   9.246   3.359   5.803 -0.6558 -0.2606  0.0917
  276MOL0     O36358   9.373   3.419   5.785  0.4230  0.9197  0.1419
  276MOL0     C36359   9.392   3.496   5.662  0.7226  0.4811 -0.3111
  276MOL0     C36360   9.309   3.612   5.666  0.1712 -1.0861 -0.2288
  276MOL0     C36361   9.340   3.709   5.544  0.7274 -0.0244 -0.2692
  276MOL0     C36362   9.471   3.776   5.537 -0.2807 -0.8269 -0.5822
  276MOL0     C36363   9.511   3.836   5.667  0.3545 -0.0287 -0.2138
  276MOL0     C36364   9.555   3.876   5.770 -0.5655 -0.6362  0.5764
  276MOL0     C36365   9.192   3.355   5.937  0.5843  0.0091 -0.3541
  276MOL0     C36366   9.067   3.297   5.950 -0.1878  0.5520 -0.7480
  276MOL0     H36367   8.586   3.075   5.842  3.0241 -2.4067  1.5173
  276MOL0     H36368   8.353   3.045   5.922  0.9486  0.5846 -0.5768
  276MOL0     H36369   8.129   3.222   6.061  1.4581 -1.2747  0.6298
  276MOL0     H36370   8.207   3.297   6.203 -0.9013  0.3735  0.0189
  276MOL0     H36371   8.083   3.142   6.359  2.6497 -1.5416 -0.7244
  276MOL0     H36372   8.014   3.062   6.227 -0.1891  0.5792  0.5872
  276MOL0     H36373   7.923   3.302   6.168 -0.3116 -0.9519 -1.3097
  276MOL0     H36374   7.992   3.358   6.321 -0.0815 -0.9629  1.4422
  276MOL0     H36375   7.772   3.148   6.299  2.5729 -3.3244  1.4345
  276MOL0     H36376   7.847   3.207   6.445 -0.3859 -3.3783 -1.6711
  276MOL0     H36377   7.680   3.334   6.239  1.3107 -0.7807 -0.3888
  276MOL0     H36378   7.778   3.452   6.327 -0.0297 -0.3424 -0.1632
  276MOL0     H36379   7.570   3.458   6.443 -0.7299 -0.4425 -0.2937
  276MOL0     H36380   7.689   3.380   6.542  0.4644  3.7495 -1.2515
  276MOL0     H36381   7.532   3.196   6.353  0.4435  1.3891 -0.5730
  276MOL0     H36382   7.588   3.155   6.507  1.0655 -1.4756 -2.1425
  276MOL0     H36383   7.348   3.167   6.508  2.2066 -0.1293 -1.7718
  276MOL0     H36384   7.350   3.333   6.443 -0.4936  0.6913  1.2226
  276MOL0     H36385   7.327   3.524   6.567  2.2287  2.3200  1.0848
  276MOL0     H36386   7.373   3.692   6.784 -1.5005  1.1205 -1.1357
  276MOL0     H36387   7.339   3.609   6.939 -0.0384 -0.8168 -0.5270
  276MOL0     H36388   7.115   3.594   6.909  0.5692 -0.5662  0.5067
  276MOL0     H36389   7.131   3.633   6.737  0.9815  1.3858 -0.3458
  276MOL0     H36390   7.189   3.838   6.967 -2.2336 -0.9407  1.5829
  276MOL0     H36391   7.201   3.866   6.801  3.1897  2.4067  4.0276
  276MOL0     H36392   6.988   3.942   6.901  0.4546 -0.7694  2.7284
  276MOL0     H36393   6.933   3.773   6.920  0.0012  0.3679 -0.9262
  276MOL0     H36394   6.775   3.663   6.806 -0.1575  1.3709  1.2497
  276MOL0     H36395   6.530   3.688   6.788  1.7120 -0.4686 -0.7457
  276MOL0     H36396   6.145   3.992   6.784  1.3152  1.6098  1.5935
  276MOL0     H36397   5.915   4.061   6.727  0.8616 -1.4214  0.4848
  276MOL0     H36398   5.735   4.208   6.694  1.1802 -0.3097  0.0536
  276MOL0     H36399   5.718   4.073   6.584  1.4610 -0.4906  1.2805
  276MOL0     H36400   5.614   4.234   6.412 -1.5649 -0.3861 -0.1182
  276MOL0     H36401   5.650   4.363   6.526 -1.2018  0.1212 -2.1229
  276MOL0     H36402   5.506   4.257   6.704 -2.7461  0.8352 -0.2633
  276MOL0     H36403   5.461   4.142   6.587 -2.8623  0.7382 -1.7415
  276MOL0     H36404   5.445   4.452   6.577  1.6682 -0.9699 -0.4698
  276MOL0     H36405   5.369   4.364   6.449  0.2085  0.5433  0.4460
  276MOL0     H36406   5.295   4.394   6.739  2.1446 -2.4921  0.2443
  276MOL0     H36407   5.229   4.261   6.649 -0.0959  0.9278  0.5000
  276MOL0     H36408   5.090   4.384   6.520  0.9451  0.9115 -1.9812
  276MOL0     H36409   5.205   4.502   6.486  1.7036 -0.8204  0.4717
  276MOL0     H36410   5.009   4.475   6.727 -0.5226  1.1992  0.8924
  276MOL0     H36411   5.160   4.570   6.749 -1.5229 -0.5585  2.2477
  276MOL0     H36412   5.096   4.681   6.510 -1.3490  1.2507 -1.5062
  276MOL0     H36413   4.996   4.732   6.653 -0.3462  0.0779 -1.2718
  276MOL0     H36414   6.074   4.293   6.399 -0.6829  0.0554  0.8640
  276MOL0     H36415   6.303   4.215   6.461 -0.4146 -0.9343 -0.6601
  276MOL0     H36416   6.600   4.080   6.621  2.0112 -0.3673 -0.6410
  276MOL0     H36417   6.839   4.040   6.627  0.6093  0.7139  1.6834
  276MOL0     H36418   8.453   3.214   6.293 -0.7856  1.6097  0.1042
  276MOL0     H36419   8.682   3.231   6.237  0.5539  1.3853 -0.9248
  276MOL0     H36420   8.976   3.253   5.619 -0.3056  0.5630 -0.8644
  276MOL0     H36421   9.204   3.332   5.592  0.8030  0.9858 -0.1643
  276MOL0     H36422   9.376   3.437   5.571  3.2510 -0.4804 -0.2212
  276MOL0     H36423   9.497   3.519   5.643  0.9492 -0.3970 -0.1991
  276MOL0     H36424   9.207   3.575   5.650  0.4842 -1.7844 -0.6402
  276MOL0     H36425   9.310   3.669   5.759  3.3007 -1.7167  0.2315
  276MOL0     H36426   9.271   3.793   5.551 -1.0808 -1.2042 -2.3992
  276MOL0     H36427   9.312   3.668   5.446 -1.9704 -3.0331  1.5338
  276MOL0     H36428   9.544   3.707   5.494  2.2240  1.0798  0.3467
  276MOL0     H36429   9.476   3.859   5.466 -1.2533  0.1071  0.4021
  276MOL0     H36430   9.604   3.890   5.864  1.4807 -1.1006 -0.3706
  276MOL0     H36431   9.250   3.409   6.012  0.1833  0.8405 -0.6219
  276MOL0     H36432   9.021   3.283   6.047 -1.7129  0.1414 -1.4859
  277MOL0     O36433   8.585   7.369   6.553  0.0984  0.0789 -0.3122
  277MOL0     C36434   8.649   7.349   6.659 -0.7398  0.1756  0.2054
  277MOL0     O36435   8.595   7.314   6.785 -0.2018  0.2133 -0.4550
  277MOL0     C36436   8.458   7.326   6.800  0.7372  0.2598 -0.0074
  277MOL0     C36437   8.413   7.413   6.902  0.4499  0.3626 -0.7543
  277MOL0     C36438   8.275   7.401   6.938 -0.5375 -0.4203  0.5815
  277MOL0     C36439   8.191   7.309   6.887  0.8268 -0.1760 -0.7459
  277MOL0     O36440   8.056   7.288   6.924  0.1679 -0.2854 -0.0660
  277MOL0     C36441   8.002   7.393   7.010  1.0002  0.3065 -0.0083
  277MOL0     C36442   7.850   7.372   7.040 -0.2426  0.4361 -0.1723
  277MOL0     C36443   7.797   7.471   7.136 -0.3838  0.0264 -0.1537
  277MOL0     C36444   7.646   7.437   7.168 -0.9287 -1.0696  0.0733
  277MOL0     C36445   7.563   7.551   7.229  0.2684  0.1192 -0.2936
  277MOL0     C36446   7.590   7.623   7.362  0.3076 -0.3319  0.3600
  277MOL0     C36447   7.510   7.747   7.362 -0.1318  0.2660 -0.0208
  277MOL0     C36448   7.376   7.742   7.441  0.0096  1.1402 -0.5305
  277MOL0     N36449   7.389   7.775   7.584 -0.2337 -0.2849  0.8572
  277MOL0     C36450   7.400   7.694   7.689  0.4067  0.2874  0.4338
  277MOL0     C36451   7.426   7.773   7.794  0.1687 -0.0300  0.1213
  277MOL0     C36452   7.467   7.730   7.932  1.1061 -0.1065  0.1735
  277MOL0     C36453   7.609   7.660   7.935  0.3611 -0.5482 -0.6549
  277MOL0     C36454   7.661   7.636   8.081  0.2492  0.6870 -0.0412
  277MOL0     C36455   7.781   7.545   8.082  0.2133  0.2487  0.0218
  277MOL0     O36456   7.895   7.633   8.058  0.3312 -0.3632 -0.4492
  277MOL0     C36457   8.020   7.571   8.084 -0.8684 -0.3594 -0.3571
  277MOL0     C36458   8.043   7.440   8.138  0.4029 -0.1329 -0.0363
  277MOL0     C36459   8.170   7.383   8.140  0.0427 -0.5066 -0.0135
  277MOL0     C36460   8.282   7.460   8.106  0.3681 -0.4895 -1.0033
  277MOL0     C36461   8.415   7.397   8.100 -0.6116  1.3930  0.2540
  277MOL0     O36462   8.526   7.476   8.078  0.0368 -0.6809 -0.0322
  277MOL0     C36463   8.657   7.434   8.061  0.0360  0.4804  0.1022
  277MOL0     C36464   8.747   7.540   8.076  0.0098 -0.1293 -1.0269
  277MOL0     C36465   8.883   7.525   8.055  0.0081  0.0419  1.2112
  277MOL0     C36466   8.932   7.394   8.028 -0.2907  0.1706 -0.1902
  277MOL0     O36467   9.063   7.360   8.004 -1.0931 -0.3270 -0.5062
  277MOL0     C36468   9.161   7.467   8.028 -0.6992  0.6680 -0.2793
  277MOL0     C36469   9.306   7.423   7.995  0.1162  0.1781 -0.7889
  277MOL0     C36470   9.311   7.371   7.848  0.2555 -0.0306  0.0078
  277MOL0     C36471   9.457   7.358   7.804  0.0130 -0.1393 -0.4063
  277MOL0     C36472   9.542   7.487   7.800 -0.2180 -0.2135  0.1603
  277MOL0     C36473   9.688   7.457   7.780 -0.6739  0.3775  0.5006
  277MOL0     C36474   9.770   7.590   7.817  0.0369  0.2236  0.3787
  277MOL0     C36475   9.776   7.687   7.701  0.3850  0.3676 -0.3581
  277MOL0    Cl36476   9.819   7.842   7.756  0.1006  0.2468 -0.1940
  277MOL0     C36477   8.837   7.299   8.002  0.5063 -0.0390  0.1750
  277MOL0     C36478   8.697   7.312   8.014 -0.7808 -0.1822  0.1372
  277MOL0     O36479   8.421   7.277   8.084 -0.1101 -0.6032 -0.4720
  277MOL0     C36480   8.262   7.588   8.048  0.2392 -0.5708  1.1788
  277MOL0     C36481   8.129   7.641   8.041 -1.0571  0.2853  0.0295
  277MOL0     N36482   7.410   7.900   7.756  0.2026  0.1013  0.7939
  277MOL0     N36483   7.381   7.904   7.630 -0.4059 -0.6213 -0.4485
  277MOL0     C36484   8.236   7.221   6.789 -0.5828 -0.3717 -0.6868
  277MOL0     C36485   8.363   7.235   6.741 -0.0632  0.2861 -0.3425
  277MOL0     C36486   8.794   7.377   6.650  0.1697 -0.4311  0.1614
  277MOL0     C36487   8.876   7.333   6.754 -0.1036  0.5511  0.1421
  277MOL0     C36488   9.006   7.376   6.759  0.2702 -0.5248 -0.0783
  277MOL0     C36489   9.068   7.446   6.652  0.0700 -0.2886 -0.8735
  277MOL0     O36490   9.195   7.510   6.648 -0.1672 -0.3423 -0.3236
  277MOL0     C36491   9.285   7.490   6.758  0.6708 -1.0279 -0.1644
  277MOL0     C36492   9.358   7.361   6.719 -0.7902 -0.4909  0.5139
  277MOL0     C36493   9.510   7.374   6.756 -0.0732 -0.4383 -0.6113
  277MOL0     C36494   9.602   7.289   6.670  1.3625 -0.0185 -0.2212
  277MOL0     C36495   9.739   7.294   6.722 -0.8523  0.2014  0.8444
  277MOL0     C36496   9.857   7.283   6.738  0.3030  0.3146 -0.5683
  277MOL0     C36497   8.991   7.467   6.538 -0.6174  0.0322 -0.1394
  277MOL0     C36498   8.854   7.436   6.539 -0.4794  0.2537 -1.2160
  277MOL0     H36499   8.482   7.482   6.949  0.9552  0.1746 -1.2171
  277MOL0     H36500   8.235   7.458   7.022 -1.6589 -1.9381  1.1293
  277MOL0     H36501   8.027   7.493   6.973  0.0718  1.9487  3.3536
  277MOL0     H36502   8.059   7.387   7.104  0.2729  1.0667  0.4978
  277MOL0     H36503   7.836   7.275   7.088  1.4832  0.7978  1.1388
  277MOL0     H36504   7.791   7.366   6.948  0.2346 -2.0772 -0.4029
  277MOL0     H36505   7.814   7.568   7.087  0.1733  0.2163  0.4040
  277MOL0     H36506   7.857   7.458   7.226  0.2977  0.5860 -0.5225
  277MOL0     H36507   7.600   7.409   7.073 -2.2256  1.0920  0.0092
  277MOL0     H36508   7.631   7.350   7.232 -0.9003 -3.8555 -3.4165
  277MOL0     H36509   7.464   7.510   7.250  0.5884  0.3819  2.0328
  277MOL0     H36510   7.555   7.623   7.146 -1.4739  0.5716  0.2305
  277MOL0     H36511   7.697   7.644   7.370  0.0798  0.5181  1.2638
  277MOL0     H36512   7.566   7.556   7.445  0.1906  0.5468  1.0477
  277MOL0     H36513   7.576   7.820   7.409 -0.3621 -0.4829  1.5188
  277MOL0     H36514   7.482   7.772   7.259  0.1755 -2.3852 -0.8285
  277MOL0     H36515   7.335   7.641   7.433  2.3476  0.1107 -0.3362
  277MOL0     H36516   7.309   7.818   7.399 -0.5369  1.4849  0.8925
  277MOL0     H36517   7.391   7.586   7.686  1.6452  0.0341  2.9094
  277MOL0     H36518   7.387   7.667   7.971  0.0944  0.2256 -1.2782
  277MOL0     H36519   7.487   7.817   7.995 -0.6697 -1.9247  3.4810
  277MOL0     H36520   7.689   7.728   7.907 -0.6652  0.8459 -0.3168
  277MOL0     H36521   7.610   7.576   7.865 -2.4249  1.2570 -3.1232
  277MOL0     H36522   7.681   7.726   8.141  2.0813  1.5829 -1.8569
  277MOL0     H36523   7.578   7.588   8.133 -1.8378  2.4513 -1.5718
  277MOL0     H36524   7.784   7.472   8.001  0.3110  0.2236  0.0475
  277MOL0     H36525   7.785   7.495   8.179 -1.2046 -0.1883 -0.1236
  277MOL0     H36526   7.955   7.384   8.169 -0.2088  0.5984 -0.4187
  277MOL0     H36527   8.196   7.283   8.172  1.6024 -0.1094  0.0093
  277MOL0     H36528   8.706   7.631   8.117  1.7528  0.0715  0.4018
  277MOL0     H36529   8.945   7.613   8.067 -0.7958  0.5479  1.8123
  277MOL0     H36530   9.174   7.496   8.132 -0.8109 -2.2863  0.6545
  277MOL0     H36531   9.135   7.552   7.963 -0.5504  0.8646 -0.0794
  277MOL0     H36532   9.343   7.350   8.067 -1.0039  2.6056  2.4380
  277MOL0     H36533   9.368   7.512   8.013  0.0864  0.5306 -2.2292
  277MOL0     H36534   9.262   7.439   7.777 -2.1253 -2.4254 -0.8211
  277MOL0     H36535   9.259   7.277   7.830 -0.7660  0.6448 -0.7362
  277MOL0     H36536   9.512   7.287   7.865  1.8484  1.5452  0.0053
  277MOL0     H36537   9.455   7.318   7.702 -4.0987  2.3903 -1.5886
  277MOL0     H36538   9.537   7.534   7.899  0.4784 -0.5607  0.3693
  277MOL0     H36539   9.491   7.541   7.719  2.8875 -0.2600 -1.9897
  277MOL0     H36540   9.701   7.423   7.677  0.7939  0.5780  0.6000
  277MOL0     H36541   9.725   7.378   7.846  0.3668 -0.8679 -1.5044
  277MOL0     H36542   9.728   7.645   7.903 -0.1224  2.8067 -1.2526
  277MOL0     H36543   9.867   7.546   7.841 -0.5540 -0.7465  1.0686
  277MOL0     H36544   9.678   7.693   7.652  0.1241 -2.1444 -0.2825
  277MOL0     H36545   9.851   7.664   7.625  2.5838  1.3528  1.4214
  277MOL0     H36546   8.869   7.198   7.975  1.0681 -0.1060  1.0552
  277MOL0     H36547   8.636   7.224   7.993 -2.6747  0.4801  2.3233
  277MOL0     H36548   8.352   7.638   8.014  0.8133 -1.5317  1.2336
  277MOL0     H36549   8.118   7.740   7.998  1.3189  1.6046  2.2007
  277MOL0     H36550   8.173   7.142   6.749 -1.4446  0.4794 -1.0692
  277MOL0     H36551   8.387   7.160   6.666  1.7765  0.9569 -0.4796
  277MOL0     H36552   8.831   7.285   6.841  1.2417 -0.8357  0.1176
  277MOL0     H36553   9.055   7.353   6.853 -0.0010 -0.5058  0.0701
  277MOL0     H36554   9.260   7.488   6.865  3.4738 -0.4015  0.5851
  277MOL0     H36555   9.355   7.574   6.759  0.5163 -0.8973  0.4945
  277MOL0     H36556   9.307   7.274   6.762 -2.5012 -0.5474 -1.4559
  277MOL0     H36557   9.361   7.348   6.610  0.3793  2.4987  0.0997
  277MOL0     H36558   9.517   7.339   6.859  1.1359  0.9813 -0.1715
  277MOL0     H36559   9.540   7.479   6.753 -2.1469  0.2358  0.5151
  277MOL0     H36560   9.560   7.189   6.662  1.4059  0.0233 -1.1054
  277MOL0     H36561   9.601   7.332   6.569 -1.6330  1.1279  0.2058
  277MOL0     H36562   9.962   7.278   6.761  0.3540  0.4905 -0.7569
  277MOL0     H36563   9.029   7.534   6.461  0.4643  1.9130  1.9008
  277MOL0     H36564   8.790   7.465   6.457 -0.4133 -1.5854 -1.9564
  278MOL0     O36565   9.557   0.923   2.566 -0.4681 -0.5649  0.7275
  278MOL0     C36566   9.506   0.826   2.513 -0.3602  0.1808  0.2494
  278MOL0     O36567   9.396   0.824   2.442  0.3141 -0.1516  0.4452
  278MOL0     C36568   9.309   0.931   2.408  0.1750  0.6895  0.5268
  278MOL0     C36569   9.322   1.066   2.432 -0.4342 -0.3314 -0.4807
  278MOL0     C36570   9.227   1.156   2.396 -0.2080  0.1173  0.0276
  278MOL0     C36571   9.110   1.116   2.338 -0.2536 -0.1010  0.6895
  278MOL0     O36572   9.015   1.217   2.315 -1.1153  0.0888  0.4293
  278MOL0     C36573   8.883   1.187   2.331 -0.1323  0.6395 -0.1886
  278MOL0     C36574   8.794   1.313   2.300 -0.0751 -0.0367 -0.0496
  278MOL0     C36575   8.649   1.286   2.322 -0.2385  1.0427 -0.8249
  278MOL0     C36576   8.563   1.409   2.288  0.6034 -0.5537  0.1034
  278MOL0     C36577   8.429   1.387   2.232 -0.6811  0.3489  0.3740
  278MOL0     C36578   8.347   1.312   2.326  0.1168  0.3943  0.5004
  278MOL0     C36579   8.264   1.402   2.418 -0.7511 -0.5397  1.0295
  278MOL0     C36580   8.178   1.328   2.517 -0.4154  0.3682  0.2520
  278MOL0     N36581   8.061   1.266   2.452 -0.3533  0.4488  0.6298
  278MOL0     C36582   8.046   1.132   2.415  0.9986 -0.5771  0.4135
  278MOL0     C36583   7.922   1.125   2.357 -1.0327 -0.0494 -0.4386
  278MOL0     C36584   7.866   0.995   2.296  0.3950 -0.8989  0.6029
  278MOL0     C36585   7.733   1.015   2.223 -0.0941 -0.4643  0.2324
  278MOL0     C36586   7.617   1.015   2.327  0.2222  0.5118 -1.3475
  278MOL0     C36587   7.472   1.030   2.271  0.3895 -0.1934 -0.3411
  278MOL0     O36588   7.465   1.160   2.205 -0.0909 -0.1472 -0.0108
  278MOL0     C36589   7.343   1.220   2.213  0.3316  0.1403  0.2799
  278MOL0     C36590   7.221   1.160   2.209  0.9464  0.1171  0.1349
  278MOL0     C36591   7.100   1.227   2.225  0.3994 -0.0496 -0.3303
  278MOL0     C36592   7.103   1.370   2.219  0.0140  0.3984  0.4421
  278MOL0     C36593   6.979   1.442   2.236  0.4281 -0.7148 -0.3613
  278MOL0     O36594   6.862   1.379   2.213 -0.5010 -0.1396  0.6539
  278MOL0     C36595   6.747   1.446   2.256  0.0142 -0.1498 -0.2452
  278MOL0     C36596   6.727   1.488   2.394  0.6368 -0.1281  0.4922
  278MOL0     C36597   6.609   1.540   2.434 -0.4801 -1.2273  0.8229
  278MOL0     C36598   6.499   1.560   2.346  0.4975 -0.4011 -0.7187
  278MOL0     O36599   6.385   1.610   2.405 -0.0910  0.2148  0.5141
  278MOL0     C36600   6.261   1.616   2.334  0.7758 -0.1775  0.1672
  278MOL0     C36601   6.155   1.674   2.422  0.0692  0.3423  0.1452
  278MOL0     C36602   6.015   1.703   2.374 -0.4389 -0.1120 -0.3952
  278MOL0     C36603   5.920   1.769   2.476  0.4472 -0.1102 -0.3712
  278MOL0     C36604   5.777   1.768   2.422 -0.4951  0.1380 -0.8208
  278MOL0     C36605   5.672   1.842   2.506 -0.6088  0.2227 -0.5871
  278MOL0     C36606   5.533   1.835   2.437 -0.1145  0.1188 -0.9320
  278MOL0     C36607   5.412   1.901   2.497 -0.6158  0.0570 -0.7758
  278MOL0    Cl36608   5.337   2.036   2.409  0.1613 -0.3015  0.2691
  278MOL0     C36609   6.518   1.523   2.219 -0.0259 -0.2821 -1.0032
  278MOL0     C36610   6.641   1.472   2.170  1.1172  0.4280 -0.6699
  278MOL0     O36611   6.996   1.559   2.278 -0.0713  0.1981 -0.0172
  278MOL0     C36612   7.229   1.436   2.216 -0.0264  0.2190  0.1701
  278MOL0     C36613   7.339   1.358   2.211  0.4669 -0.6000  0.6860
  278MOL0     N36614   7.869   1.256   2.366 -0.0545  0.1363 -0.2438
  278MOL0     N36615   7.951   1.335   2.420 -0.1238 -0.0048 -0.4789
  278MOL0     C36616   9.089   0.983   2.317 -0.2732  1.1918 -0.2851
  278MOL0     C36617   9.196   0.886   2.345  0.7634 -0.6425 -0.1749
  278MOL0     C36618   9.581   0.703   2.526  0.3224  0.0778  0.5493
  278MOL0     C36619   9.703   0.697   2.596  0.4158  0.0532 -0.1136
  278MOL0     C36620   9.752   0.572   2.621  0.0693 -0.2785 -0.2929
  278MOL0     C36621   9.701   0.455   2.568  0.7256  0.1612  0.5309
  278MOL0     O36622   9.762   0.333   2.576 -0.4978 -1.2379 -0.2668
  278MOL0     C36623   9.910   0.331   2.588  0.2111 -0.6694 -0.4066
  278MOL0     C36624   9.977   0.341   2.448 -0.3047 -0.9421  0.7494
  278MOL0     C36625   9.985   0.200   2.390  0.7582  0.1845 -0.7090
  278MOL0     C36626   9.855   0.146   2.338  0.5745  0.6385 -0.3936
  278MOL0     C36627   9.857   0.003   2.299  0.0807  0.0069 -0.2026
  278MOL0     C36628   9.862  -0.113   2.254 -0.4425 -0.6558  0.0105
  278MOL0     C36629   9.594   0.462   2.485  1.3257  0.0409  0.2579
  278MOL0     C36630   9.530   0.584   2.468 -0.3507 -0.2056 -0.2141
  278MOL0     H36631   9.409   1.098   2.490  0.3381 -3.0100 -0.0353
  278MOL0     H36632   9.236   1.264   2.400  1.8819 -0.0291  0.2947
  278MOL0     H36633   8.870   1.158   2.436 -0.5948  2.1432  0.1888
  278MOL0     H36634   8.853   1.113   2.257  0.4031  1.9148 -1.7177
  278MOL0     H36635   8.801   1.344   2.195 -0.2605  2.4085  0.5887
  278MOL0     H36636   8.818   1.399   2.363 -0.3740 -0.4252  0.6053
  278MOL0     H36637   8.629   1.255   2.425  0.4957  0.2852 -0.8956
  278MOL0     H36638   8.628   1.199   2.259  4.2264 -0.4478 -0.6100
  278MOL0     H36639   8.554   1.475   2.375 -2.6788 -1.3340  0.4911
  278MOL0     H36640   8.618   1.460   2.208 -1.3292 -0.2296 -1.0723
  278MOL0     H36641   8.447   1.327   2.143 -0.7590 -0.9282  1.1890
  278MOL0     H36642   8.371   1.474   2.197 -4.1046 -1.9401 -0.1731
  278MOL0     H36643   8.398   1.235   2.383  0.1307 -1.4896 -1.8869
  278MOL0     H36644   8.273   1.259   2.265 -3.0338  3.2621  1.4946
  278MOL0     H36645   8.337   1.468   2.466  1.2564 -2.3646  0.6865
  278MOL0     H36646   8.201   1.454   2.346  1.5702 -1.1623 -1.6353
  278MOL0     H36647   8.144   1.393   2.599  1.3759 -0.5864  1.8349
  278MOL0     H36648   8.236   1.248   2.563 -2.6316 -1.3285  0.2571
  278MOL0     H36649   8.119   1.052   2.423 -1.1302 -2.4178  2.8668
  278MOL0     H36650   7.867   0.924   2.379  0.0992  0.4292  1.7751
  278MOL0     H36651   7.940   0.973   2.219 -2.4373  1.4614 -3.1897
  278MOL0     H36652   7.714   0.928   2.161 -3.5627  1.1840 -1.3074
  278MOL0     H36653   7.726   1.107   2.165  0.2729  0.2828  1.3280
  278MOL0     H36654   7.620   0.914   2.369  0.6311 -0.3278 -3.2729
  278MOL0     H36655   7.640   1.082   2.410  0.0711 -2.2139  1.0509
  278MOL0     H36656   7.393   1.022   2.346 -0.5151 -0.9660 -1.3538
  278MOL0     H36657   7.457   0.955   2.193 -2.9834  0.9828 -0.9818
  278MOL0     H36658   7.215   1.052   2.200 -1.5635  0.2282 -0.3780
  278MOL0     H36659   7.007   1.173   2.240 -0.1789  1.0609  0.2589
  278MOL0     H36660   6.808   1.463   2.461  0.7765 -2.1899 -0.3644
  278MOL0     H36661   6.588   1.564   2.538  0.2246  2.0732  0.3096
  278MOL0     H36662   6.235   1.515   2.302  1.1394  0.0427 -0.8581
  278MOL0     H36663   6.285   1.680   2.249  0.6599  1.2850  1.1792
  278MOL0     H36664   6.181   1.777   2.450  0.3728  0.3994 -0.3319
  278MOL0     H36665   6.156   1.616   2.515 -0.3234 -1.6567 -1.0656
  278MOL0     H36666   5.980   1.601   2.352 -0.4562 -1.1869  3.8067
  278MOL0     H36667   6.016   1.765   2.284 -1.9929  3.0427  1.5777
  278MOL0     H36668   5.929   1.718   2.572  1.2533 -0.1382 -0.4549
  278MOL0     H36669   5.947   1.874   2.492 -2.3712  0.5511  0.5466
  278MOL0     H36670   5.743   1.665   2.406  2.4030 -0.9534 -0.5472
  278MOL0     H36671   5.783   1.812   2.322  1.2819 -0.0965 -0.8553
  278MOL0     H36672   5.687   1.951   2.513  0.5001 -0.0191  1.3038
  278MOL0     H36673   5.652   1.802   2.605 -2.3485 -0.8835 -1.3285
  278MOL0     H36674   5.547   1.877   2.337 -1.0252  0.1334 -1.0566
  278MOL0     H36675   5.514   1.730   2.414  0.4271  0.2479 -2.0447
  278MOL0     H36676   5.436   1.925   2.601 -0.1563 -2.9479 -0.1012
  278MOL0     H36677   5.343   1.818   2.512 -0.2687 -0.1108 -0.0459
  278MOL0     H36678   6.438   1.546   2.148 -0.5775  0.8323 -0.0527
  278MOL0     H36679   6.649   1.464   2.062  0.0617  1.1708 -0.8132
  278MOL0     H36680   7.232   1.544   2.210 -0.1147  0.3735  2.3066
  278MOL0     H36681   7.438   1.403   2.207  1.4238 -2.6532 -2.6656
  278MOL0     H36682   8.993   0.965   2.269  0.9497  0.6861 -2.6478
  278MOL0     H36683   9.188   0.779   2.335  2.6463 -0.9806  1.3816
  278MOL0     H36684   9.754   0.787   2.631  1.6767  0.4218 -2.6416
  278MOL0     H36685   9.835   0.574   2.691  0.3067 -1.3561 -0.5156
  278MOL0     H36686   9.944   0.246   2.648 -0.3685 -1.7320 -1.5563
  278MOL0     H36687   9.953   0.416   2.642  0.8395  1.0309 -3.3956
  278MOL0     H36688   9.913   0.396   2.378 -1.1162 -2.2130  0.4415
  278MOL0     H36689  10.075   0.390   2.448 -0.3437 -0.8457  0.0084
  278MOL0     H36690  10.036   0.129   2.454  2.2936 -0.5230 -2.6055
  278MOL0     H36691  10.050   0.217   2.303  0.2391 -0.2997 -1.1914
  278MOL0     H36692   9.783   0.148   2.420  0.7862 -0.5351 -0.1483
  278MOL0     H36693   9.811   0.208   2.259  0.0846 -0.3560 -0.9189
  278MOL0     H36694   9.865  -0.213   2.215 -0.7093 -1.3399  1.6382
  278MOL0     H36695   9.561   0.364   2.452  1.1513  0.2943 -0.3220
  278MOL0     H36696   9.430   0.578   2.426 -0.8324  0.3280  0.8316
  279MOL0     O36697   8.955   5.091   1.779  0.7153 -0.2292 -0.2055
  279MOL0     C36698   8.993   4.989   1.719  0.6771  0.2785 -0.4293
  279MOL0     O36699   8.914   4.887   1.679  0.4394 -0.2165 -0.0003
  279MOL0     C36700   8.782   4.879   1.716 -0.6515  0.1685  0.1753
  279MOL0     C36701   8.699   4.825   1.623  0.4713  0.8609 -0.2917
  279MOL0     C36702   8.562   4.813   1.652  0.5380  0.1465 -0.0676
  279MOL0     C36703   8.512   4.855   1.776 -0.5614  1.2119  0.8418
  279MOL0     O36704   8.382   4.834   1.827  0.3570  0.1342 -0.9518
  279MOL0     C36705   8.289   4.793   1.725  0.0598  0.5426  0.5656
  279MOL0     C36706   8.147   4.781   1.785  1.4396  0.2426  0.4477
  279MOL0     C36707   8.108   4.652   1.873  1.4706 -0.2153 -0.2002
  279MOL0     C36708   8.166   4.519   1.838  0.0101 -0.0324  0.3061
  279MOL0     C36709   8.115   4.401   1.928  0.8061  0.5224  0.5212
  279MOL0     C36710   7.962   4.373   1.894 -0.6582  0.0929 -0.5524
  279MOL0     C36711   7.912   4.239   1.970  0.6921  0.1239  0.0602
  279MOL0     C36712   7.913   4.255   2.125  0.3405 -0.1199  0.6033
  279MOL0     N36713   7.806   4.346   2.164  0.1029 -0.1310 -0.2811
  279MOL0     C36714   7.671   4.323   2.164  0.3429  0.8841  0.4410
  279MOL0     C36715   7.610   4.444   2.183 -0.9224 -0.7954  0.3705
  279MOL0     C36716   7.468   4.476   2.205  0.3995 -0.5567 -0.2784
  279MOL0     C36717   7.444   4.495   2.363 -0.1471  0.5228 -0.4172
  279MOL0     C36718   7.436   4.358   2.438  0.1825  0.4361  0.0729
  279MOL0     C36719   7.433   4.368   2.590  1.3461  0.6692  0.3123
  279MOL0     O36720   7.548   4.435   2.641  0.2435  0.4712  0.0067
  279MOL0     C36721   7.671   4.386   2.600  0.2268 -0.6217 -0.3388
  279MOL0     C36722   7.767   4.476   2.565 -0.0316  0.0954 -0.4842
  279MOL0     C36723   7.892   4.437   2.526 -0.3829 -1.0710 -0.0105
  279MOL0     C36724   7.925   4.299   2.521 -0.4872 -0.3980 -0.1239
  279MOL0     C36725   8.056   4.258   2.464  0.1347  0.6081 -0.2694
  279MOL0     O36726   8.139   4.356   2.416 -0.9245  0.2077 -0.1626
  279MOL0     C36727   8.268   4.323   2.375  0.0981 -1.0957 -0.7138
  279MOL0     C36728   8.301   4.247   2.266 -0.0965  0.1123  0.1791
  279MOL0     C36729   8.434   4.212   2.231  0.1568 -0.8290 -0.0572
  279MOL0     C36730   8.531   4.252   2.319 -0.3617  0.0079 -0.5841
  279MOL0     O36731   8.669   4.216   2.304  0.1156  0.2685  0.4220
  279MOL0     C36732   8.764   4.307   2.349 -0.5189  0.7221  0.0555
  279MOL0     C36733   8.898   4.235   2.329  1.3169  0.8525  0.1933
  279MOL0     C36734   9.007   4.339   2.351 -0.1434  0.1680 -0.1039
  279MOL0     C36735   9.153   4.279   2.342  0.0385  0.2474  0.5262
  279MOL0     C36736   9.252   4.396   2.362 -0.8512  0.2444 -0.2071
  279MOL0     C36737   9.398   4.349   2.356 -0.1069 -0.4575 -0.7149
  279MOL0     C36738   9.451   4.352   2.212  0.2321 -0.5785 -0.7029
  279MOL0     C36739   9.605   4.338   2.202  0.4654 -0.3435  0.5016
  279MOL0    Cl36740   9.655   4.173   2.246 -0.1032 -0.0594 -0.1798
  279MOL0     C36741   8.501   4.327   2.434 -0.1348 -0.8139 -0.4065
  279MOL0     C36742   8.367   4.359   2.461 -0.3903 -1.1841  0.5268
  279MOL0     O36743   8.085   4.137   2.456  0.1033 -0.6025  0.0418
  279MOL0     C36744   7.830   4.206   2.565 -0.6283  0.6582  0.2742
  279MOL0     C36745   7.703   4.242   2.591 -0.0437 -0.6191  0.3755
  279MOL0     N36746   7.710   4.533   2.209  0.3526 -0.3622 -0.5811
  279MOL0     N36747   7.825   4.473   2.211 -0.5006  0.5094 -0.2279
  279MOL0     C36748   8.602   4.912   1.867  0.5853  0.5864 -0.1914
  279MOL0     C36749   8.732   4.924   1.837 -0.1954  0.1692 -0.1849
  279MOL0     C36750   9.134   4.971   1.708  0.3124 -0.6427  0.1583
  279MOL0     C36751   9.187   4.852   1.670  0.1524 -0.0185  0.5150
  279MOL0     C36752   9.327   4.840   1.671  0.1241  0.3316 -0.3808
  279MOL0     C36753   9.410   4.947   1.686  0.1609  1.0840 -0.1589
  279MOL0     O36754   9.548   4.948   1.651  0.5952  0.0103 -0.2753
  279MOL0     C36755   9.608   4.826   1.594 -0.2535  0.1421 -0.0155
  279MOL0     C36756   9.760   4.829   1.599 -0.7442 -0.7594  0.5589
  279MOL0     C36757   9.838   4.720   1.513  0.2512 -0.1936  0.0338
  279MOL0     C36758   9.984   4.716   1.544  0.7083 -0.1327  0.0230
  279MOL0     C36759  10.071   4.815   1.481 -0.7458  0.4393  0.0036
  279MOL0     C36760  10.139   4.894   1.423 -0.1883  1.0781 -0.5074
  279MOL0     C36761   9.355   5.070   1.710 -0.2136 -0.5301 -0.1664
  279MOL0     C36762   9.218   5.086   1.725  0.2444 -0.2287  0.5011
  279MOL0     H36763   8.742   4.798   1.527 -2.0848 -1.8668 -0.8231
  279MOL0     H36764   8.502   4.755   1.583 -1.0863 -0.5984  1.8679
  279MOL0     H36765   8.316   4.695   1.683 -1.0783  0.3972  0.1180
  279MOL0     H36766   8.288   4.858   1.637 -0.6669 -1.1219 -0.7129
  279MOL0     H36767   8.080   4.776   1.698  1.2806 -0.1586  0.5925
  279MOL0     H36768   8.119   4.876   1.832 -1.2346 -0.4358  0.4173
  279MOL0     H36769   7.999   4.649   1.876  1.3127  2.7166  1.2537
  279MOL0     H36770   8.140   4.664   1.977 -0.7659 -0.2579  0.5500
  279MOL0     H36771   8.142   4.500   1.733 -1.7346  0.9977  0.4650
  279MOL0     H36772   8.275   4.526   1.841  0.0187 -0.2565  0.6006
  279MOL0     H36773   8.141   4.411   2.033  1.5153 -2.9968  0.7925
  279MOL0     H36774   8.165   4.305   1.913  1.1015  0.3800  2.2741
  279MOL0     H36775   7.949   4.355   1.787  0.5646 -1.2166 -0.5066
  279MOL0     H36776   7.904   4.463   1.916  1.1629  0.6846  2.5783
  279MOL0     H36777   7.815   4.218   1.924  0.8092 -0.3776  0.0336
  279MOL0     H36778   7.980   4.157   1.944  0.3902 -0.5540  1.3386
  279MOL0     H36779   8.011   4.283   2.166  0.3139  0.1478  0.4875
  279MOL0     H36780   7.889   4.161   2.176  1.8420 -1.0768 -0.3452
  279MOL0     H36781   7.613   4.232   2.152  3.7370 -1.3991 -0.0746
  279MOL0     H36782   7.393   4.405   2.169  0.4848 -0.3544 -0.8738
  279MOL0     H36783   7.442   4.572   2.160  0.2512 -1.0229 -1.2089
  279MOL0     H36784   7.346   4.543   2.373  1.0800  2.7198  2.6954
  279MOL0     H36785   7.513   4.565   2.411 -1.9868  0.4314  2.6050
  279MOL0     H36786   7.344   4.308   2.406  0.2380 -0.2655  0.9695
  279MOL0     H36787   7.524   4.297   2.415 -0.8694 -0.3220 -2.2461
  279MOL0     H36788   7.428   4.264   2.621  1.8240 -0.1990 -2.2834
  279MOL0     H36789   7.344   4.424   2.621  0.2892 -1.1820  0.7808
  279MOL0     H36790   7.748   4.582   2.574 -0.9067 -0.2139  2.1603
  279MOL0     H36791   7.968   4.512   2.505 -1.2458  0.3911  1.8764
  279MOL0     H36792   8.213   4.219   2.209  0.7038 -1.2605 -0.4440
  279MOL0     H36793   8.456   4.146   2.148  1.0636 -0.5342 -0.0598
  279MOL0     H36794   8.751   4.323   2.456  0.2824  0.1226  0.2539
  279MOL0     H36795   8.766   4.402   2.294  3.6828 -0.0409 -1.4693
  279MOL0     H36796   8.906   4.183   2.233 -1.5986  1.5584 -0.5194
  279MOL0     H36797   8.907   4.158   2.406  1.9124  0.7697  0.0457
  279MOL0     H36798   8.984   4.387   2.447  0.8267 -0.0901  0.2664
  279MOL0     H36799   8.997   4.418   2.276 -0.6160 -0.0947 -0.3229
  279MOL0     H36800   9.181   4.203   2.415  0.9354  1.0612  1.0539
  279MOL0     H36801   9.166   4.225   2.248 -1.5220 -0.8209  0.8807
  279MOL0     H36802   9.236   4.441   2.460  0.4615  1.2295 -0.4254
  279MOL0     H36803   9.233   4.478   2.292  0.9452  2.1453  1.4091
  279MOL0     H36804   9.403   4.250   2.403 -2.7985 -0.6474 -0.6585
  279MOL0     H36805   9.460   4.413   2.419 -1.1940 -0.9316  0.8984
  279MOL0     H36806   9.404   4.264   2.169  1.9054 -1.2691 -1.2003
  279MOL0     H36807   9.407   4.442   2.167 -4.2224 -0.7207  2.6660
  279MOL0     H36808   9.654   4.420   2.255  0.0989 -0.2562  0.7049
  279MOL0     H36809   9.633   4.348   2.097  1.5373 -0.3405  0.7834
  279MOL0     H36810   8.569   4.353   2.513 -1.4470 -0.4664  0.6493
  279MOL0     H36811   8.363   4.425   2.547  1.1978  1.6536 -1.4174
  279MOL0     H36812   7.873   4.107   2.570 -0.2036  0.8912  3.0276
  279MOL0     H36813   7.628   4.168   2.618  1.3698 -1.9707  0.6600
  279MOL0     H36814   8.563   4.945   1.963 -2.0197 -0.4851 -0.7977
  279MOL0     H36815   8.803   4.949   1.916  0.6690  0.7102 -1.1062
  279MOL0     H36816   9.120   4.769   1.650 -0.6561  0.6337  0.4813
  279MOL0     H36817   9.372   4.745   1.644  2.6340  1.1913  0.5600
  279MOL0     H36818   9.577   4.817   1.490  2.7975 -1.7707 -0.8823
  279MOL0     H36819   9.579   4.732   1.642  3.4388 -0.6081  1.0952
  279MOL0     H36820   9.789   4.928   1.563 -0.8496 -1.3160 -1.1851
  279MOL0     H36821   9.787   4.815   1.704  2.2754 -0.2968 -0.0854
  279MOL0     H36822   9.822   4.743   1.407  1.9373 -1.4476 -0.5407
  279MOL0     H36823   9.798   4.619   1.532 -0.7184 -0.3880 -2.5768
  279MOL0     H36824  10.001   4.743   1.648 -1.1238  0.0625  0.2997
  279MOL0     H36825  10.028   4.616   1.535  2.3201  0.6523 -1.4847
  279MOL0     H36826  10.195   4.967   1.369 -0.3544  0.3410 -1.7119
  279MOL0     H36827   9.431   5.147   1.713  1.0852 -1.7855  0.9360
  279MOL0     H36828   9.170   5.180   1.749 -1.0231 -0.7517  0.1110
  280MOL0     O36829   3.958   5.597   0.081  0.4443 -0.6002  0.3164
  280MOL0     C36830   3.956   5.609  -0.048 -0.0984  0.2463 -0.6942
  280MOL0     O36831   3.841   5.600  -0.120 -0.0367 -0.4521  0.1131
  280MOL0     C36832   3.723   5.561  -0.070  1.0442 -1.2156 -0.8776
  280MOL0     C36833   3.667   5.642   0.030 -0.5712  0.6471 -0.4718
  280MOL0     C36834   3.536   5.610   0.075 -0.2087  0.4207  0.2107
  280MOL0     C36835   3.466   5.497   0.030  0.0042  0.0225  0.0249
  280MOL0     O36836   3.344   5.456   0.069  0.1876  0.5519  0.0004
  280MOL0     C36837   3.314   5.502   0.200  0.2874 -0.2671  0.1280
  280MOL0     C36838   3.178   5.448   0.253  0.5487 -0.2310 -0.3547
  280MOL0     C36839   3.191   5.319   0.333  0.8179  0.6570 -0.1743
  280MOL0     C36840   3.051   5.266   0.364  0.0384  0.2614  0.4025
  280MOL0     C36841   3.060   5.116   0.401 -0.1329  0.8552  0.4496
  280MOL0     C36842   3.111   5.082   0.538 -0.3296 -0.0150 -0.8632
  280MOL0     C36843   3.132   4.929   0.552  0.7470 -0.2673 -0.0343
  280MOL0     C36844   3.204   4.882   0.678 -0.1389 -0.7747  0.5620
  280MOL0     N36845   3.353   4.908   0.674 -0.0437 -0.0461  0.4161
  280MOL0     C36846   3.446   4.814   0.640 -0.4449  0.7940  0.2379
  280MOL0     C36847   3.565   4.858   0.690 -0.7426 -0.7153  0.2765
  280MOL0     C36848   3.702   4.795   0.678  0.1210 -0.5915  0.0169
  280MOL0     C36849   3.799   4.853   0.576  0.5991 -0.6224  0.1432
  280MOL0     C36850   3.926   4.767   0.567 -0.3208 -0.6336 -0.1207
  280MOL0     C36851   4.048   4.846   0.530  0.0385 -0.2725 -0.3484
  280MOL0     O36852   4.163   4.764   0.552 -0.5170 -0.0465 -0.6364
  280MOL0     C36853   4.280   4.814   0.498  0.3404 -0.2525  0.8079
  280MOL0     C36854   4.387   4.743   0.540  0.7160  0.1560 -0.3898
  280MOL0     C36855   4.521   4.765   0.500  1.2128 -0.3953  0.0031
  280MOL0     C36856   4.542   4.880   0.423 -0.6339  0.3916 -0.5516
  280MOL0     C36857   4.679   4.921   0.392 -0.4085  0.3363 -0.3152
  280MOL0     O36858   4.776   4.836   0.422 -0.7338  0.4980 -0.4173
  280MOL0     C36859   4.906   4.874   0.428  0.1124 -1.0262 -0.1826
  280MOL0     C36860   4.981   4.903   0.315  0.3434 -0.9927 -0.3951
  280MOL0     C36861   5.113   4.940   0.321 -0.2843  0.3520 -0.5271
  280MOL0     C36862   5.178   4.932   0.446  0.1700  0.1444 -0.2491
  280MOL0     O36863   5.312   4.951   0.440  0.7673  0.3356 -0.1451
  280MOL0     C36864   5.398   4.901   0.555  0.0319 -1.1053  0.0592
  280MOL0     C36865   5.541   4.939   0.548 -0.0874 -0.5230 -0.6378
  280MOL0     C36866   5.623   4.895   0.673 -0.1927  0.0303 -0.3983
  280MOL0     C36867   5.768   4.873   0.638 -0.0721  0.3069 -0.1014
  280MOL0     C36868   5.829   4.795   0.757 -0.3783 -0.2807  0.3786
  280MOL0     C36869   5.830   4.882   0.882 -0.2718  0.0455 -0.3644
  280MOL0     C36870   5.916   4.821   0.997  0.1206 -0.4196 -0.3824
  280MOL0     C36871   5.934   4.919   1.113  0.5394 -0.4367 -0.7204
  280MOL0    Cl36872   5.991   5.089   1.069 -0.2435  0.3677  0.2970
  280MOL0     C36873   5.104   4.908   0.563 -0.1373  0.2042 -0.9595
  280MOL0     C36874   4.971   4.880   0.548 -0.0330  1.0391 -0.4778
  280MOL0     O36875   4.696   5.039   0.359 -0.4850  0.1313  0.1641
  280MOL0     C36876   4.438   4.956   0.371  0.1186  0.3575  0.8621
  280MOL0     C36877   4.302   4.925   0.410 -0.2529  0.2562  0.7820
  280MOL0     N36878   3.542   4.971   0.754 -0.3473 -0.3548  0.5259
  280MOL0     N36879   3.414   5.007   0.745  0.3738 -0.0091 -0.0155
  280MOL0     C36880   3.530   5.426  -0.066  0.7459 -0.0394 -0.6357
  280MOL0     C36881   3.656   5.449  -0.113  0.2769 -1.0193 -0.0168
  280MOL0     C36882   4.091   5.621  -0.117 -0.2751  0.5769  0.2214
  280MOL0     C36883   4.206   5.632  -0.031 -0.6393  0.0309 -0.3337
  280MOL0     C36884   4.325   5.678  -0.084  0.7983  0.4197  0.5585
  280MOL0     C36885   4.336   5.685  -0.225 -0.2454  0.8965  0.4457
  280MOL0     O36886   4.454   5.727  -0.293 -0.3002  0.0192 -0.0044
  280MOL0     C36887   4.566   5.771  -0.209  0.7521  0.2679 -0.1636
  280MOL0     C36888   4.680   5.838  -0.292 -0.1848  0.3163 -0.6075
  280MOL0     C36889   4.763   5.930  -0.189  0.2266  0.7304  0.6468
  280MOL0     C36890   4.861   6.023  -0.263 -0.0452  0.5823 -0.4113
  280MOL0     C36891   4.941   6.087  -0.161 -0.2679 -1.0730 -0.1104
  280MOL0     C36892   5.018   6.153  -0.086  0.2370  0.3402 -0.7177
  280MOL0     C36893   4.227   5.662  -0.309  0.4249 -0.8869  0.8497
  280MOL0     C36894   4.097   5.633  -0.252  0.0920  0.4415  0.5436
  280MOL0     H36895   3.722   5.729   0.066  2.4942 -2.0700  1.9877
  280MOL0     H36896   3.495   5.678   0.148  0.2463  1.4173 -0.4477
  280MOL0     H36897   3.296   5.609   0.203  0.8114 -0.1636  2.8669
  280MOL0     H36898   3.392   5.488   0.277 -1.3234  1.3518  2.1674
  280MOL0     H36899   3.111   5.438   0.167 -0.1939  2.1446 -0.1043
  280MOL0     H36900   3.131   5.521   0.319  1.9739  0.4199 -0.0287
  280MOL0     H36901   3.253   5.327   0.423  3.7829  0.9732 -2.1073
  280MOL0     H36902   3.246   5.252   0.267  1.7313  1.3573 -0.1324
  280MOL0     H36903   2.999   5.317   0.445  0.1404  0.1073  0.5666
  280MOL0     H36904   2.994   5.275   0.271 -0.7609 -1.8877  0.6351
  280MOL0     H36905   3.124   5.075   0.323 -0.2048 -0.2758  0.9702
  280MOL0     H36906   2.957   5.080   0.394  0.3755 -0.2251 -2.7577
  280MOL0     H36907   3.042   5.122   0.613  0.7779  1.2526 -0.4916
  280MOL0     H36908   3.199   5.138   0.570 -1.8576  0.6067  2.8334
  280MOL0     H36909   3.037   4.875   0.552  1.2186 -1.1860  2.0593
  280MOL0     H36910   3.195   4.890   0.471  4.2616  0.3161  2.2270
  280MOL0     H36911   3.182   4.780   0.708 -1.7520  0.1499  2.7743
  280MOL0     H36912   3.166   4.941   0.762  1.5973 -3.1995  3.2345
  280MOL0     H36913   3.429   4.722   0.584 -0.6553  1.4114 -0.7446
  280MOL0     H36914   3.687   4.690   0.651  2.3447 -1.1229  0.6877
  280MOL0     H36915   3.745   4.791   0.778 -0.7243 -3.8669  0.3834
  280MOL0     H36916   3.818   4.955   0.610  0.8837  0.1255 -2.1076
  280MOL0     H36917   3.760   4.866   0.475  0.2008  2.7383  0.6119
  280MOL0     H36918   3.940   4.714   0.661 -3.0584  0.2010  0.8569
  280MOL0     H36919   3.902   4.689   0.494  0.9824 -1.4874  0.3402
  280MOL0     H36920   4.062   4.933   0.595  4.8161  1.2994 -2.9736
  280MOL0     H36921   4.040   4.878   0.425 -0.9420  0.5012 -0.0507
  280MOL0     H36922   4.375   4.670   0.620 -0.5080  2.1299  1.3251
  280MOL0     H36923   4.597   4.701   0.543  0.7809 -0.1799  1.1154
  280MOL0     H36924   4.936   4.899   0.216  0.0064 -4.2478 -0.2161
  280MOL0     H36925   5.169   4.960   0.231 -1.8023 -1.2374 -1.9046
  280MOL0     H36926   5.385   4.793   0.564 -0.8582 -0.9286  1.2670
  280MOL0     H36927   5.350   4.944   0.644 -2.7563 -1.4976 -1.1545
  280MOL0     H36928   5.556   5.048   0.548 -2.2351 -0.1496  1.4210
  280MOL0     H36929   5.582   4.898   0.456  0.1557  1.2009 -1.3396
  280MOL0     H36930   5.576   4.800   0.702 -1.5929  0.2120 -1.9474
  280MOL0     H36931   5.621   4.971   0.752  0.4823 -0.5376  0.1876
  280MOL0     H36932   5.771   4.804   0.553 -2.2398  0.3670 -0.2795
  280MOL0     H36933   5.819   4.967   0.613  0.7785 -0.4957 -1.5664
  280MOL0     H36934   5.933   4.775   0.730 -0.6086  0.0462 -0.8263
  280MOL0     H36935   5.781   4.699   0.779  1.2743 -1.1850  0.1789
  280MOL0     H36936   5.730   4.898   0.924 -0.6122 -2.7699  0.0823
  280MOL0     H36937   5.863   4.979   0.845  0.7490 -0.5202 -0.9700
  280MOL0     H36938   5.867   4.731   1.036 -1.3864  0.5619  0.0634
  280MOL0     H36939   6.015   4.806   0.953  0.1342  1.8728 -1.2781
  280MOL0     H36940   6.002   4.882   1.190  0.0153 -0.5836 -0.3247
  280MOL0     H36941   5.835   4.931   1.158 -0.5257  0.9794 -3.2376
  280MOL0     H36942   5.138   4.914   0.666 -1.4248  0.6631 -0.5543
  280MOL0     H36943   4.914   4.879   0.641  0.1885 -0.0048 -0.3477
  280MOL0     H36944   4.455   5.046   0.312 -3.4161  0.3129 -0.4527
  280MOL0     H36945   4.219   4.986   0.376  0.4719  1.2727  0.7618
  280MOL0     H36946   3.479   5.343  -0.115  0.2608 -0.6215  0.8055
  280MOL0     H36947   3.704   5.372  -0.173  1.9645  0.6082 -0.8592
  280MOL0     H36948   4.190   5.633   0.077 -0.0104 -0.6878 -0.2293
  280MOL0     H36949   4.410   5.704  -0.022  0.6648  0.8781  0.5575
  280MOL0     H36950   4.603   5.688  -0.148  0.7259  0.4549  0.1060
  280MOL0     H36951   4.531   5.851  -0.144  3.2783  0.6228  0.8754
  280MOL0     H36952   4.741   5.764  -0.344  0.1583  0.0766  0.1255
  280MOL0     H36953   4.636   5.910  -0.363  0.1888  1.4607  0.2808
  280MOL0     H36954   4.809   5.855  -0.123  0.5457  0.2893 -0.0687
  280MOL0     H36955   4.698   5.995  -0.130 -0.1155  0.9448  0.0438
  280MOL0     H36956   4.923   5.962  -0.329  0.7847  1.5413 -0.5444
  280MOL0     H36957   4.802   6.094  -0.322  0.2664  1.3372  0.1638
  280MOL0     H36958   5.099   6.184  -0.023  3.1957 -2.1135 -2.9772
  280MOL0     H36959   4.245   5.678  -0.415 -1.6793  1.4774  0.7446
  280MOL0     H36960   4.007   5.635  -0.312  0.6077  0.2229 -0.2537
  281MOL0     O36961   9.528  10.924  10.533 -0.7110 -0.3814  0.0975
  281MOL0     C36962   9.506  11.019  10.606 -0.5379  0.7190  0.3265
  281MOL0     O36963   9.383  11.085  10.619 -0.6920  0.4751  0.2789
  281MOL0     C36964   9.271  11.059  10.543  0.0336 -0.6840 -1.0097
  281MOL0     C36965   9.253  10.961  10.445  0.6042 -0.8941  0.4444
  281MOL0     C36966   9.125  10.945  10.380 -0.4871 -0.4156  0.4322
  281MOL0     C36967   9.020  11.038  10.403 -0.0228 -0.4659 -0.0224
  281MOL0     O36968   8.905  11.021  10.333 -0.0401  0.1334 -0.1167
  281MOL0     C36969   8.843  11.128  10.260  0.7312 -0.1431  0.2950
  281MOL0     C36970   8.696  11.079  10.252 -0.1936  0.0249  0.0296
  281MOL0     C36971   8.622  11.164  10.149  0.4690  0.3609 -0.6133
  281MOL0     C36972   8.478  11.105  10.145 -0.4846 -0.5792 -0.7606
  281MOL0     C36973   8.390  11.209  10.074 -1.0292  0.3308 -0.2433
  281MOL0     C36974   8.246  11.166  10.058 -0.1997  0.9644  0.6449
  281MOL0     C36975   8.145  11.280  10.022 -1.0575 -0.7667 -0.0943
  281MOL0     C36976   8.002  11.240  10.056 -0.0319  0.1525 -0.2564
  281MOL0     N36977   7.912  11.345  10.065 -0.4848  0.6132  0.1252
  281MOL0     C36978   7.787  11.343  10.010  0.1648  0.0003 -0.8437
  281MOL0     C36979   7.750  11.469  10.019  0.8970  0.1666  0.8818
  281MOL0     C36980   7.625  11.542   9.985  0.1651 -0.6743 -0.2803
  281MOL0     C36981   7.527  11.439   9.936 -0.0053  0.6421  0.0911
  281MOL0     C36982   7.386  11.479   9.895 -0.2220  0.0996 -0.6516
  281MOL0     C36983   7.310  11.576   9.982 -0.6066 -0.4320 -0.4829
  281MOL0     O36984   7.261  11.513  10.099  0.6772  0.2378 -0.0564
  281MOL0     C36985   7.141  11.559  10.152  0.1689 -0.0028  0.7182
  281MOL0     C36986   7.067  11.479  10.237 -0.1516  0.2527  0.2368
  281MOL0     C36987   6.952  11.520  10.298  0.6012 -0.3940  0.3898
  281MOL0     C36988   6.902  11.649  10.276  0.1835  0.3455 -0.9955
  281MOL0     C36989   6.788  11.707  10.349 -0.8890  0.1876  0.4989
  281MOL0     O36990   6.697  11.617  10.395  0.0885  0.2686  0.3388
  281MOL0     C36991   6.577  11.660  10.442  0.6039 -0.4888 -0.1977
  281MOL0     C36992   6.476  11.716  10.364 -1.1942 -0.0264  1.6096
  281MOL0     C36993   6.363  11.774  10.407 -0.2613 -0.6316  0.4539
  281MOL0     C36994   6.340  11.776  10.547 -0.2479 -0.5769  0.8051
  281MOL0     O36995   6.228  11.853  10.588 -0.5622  0.0187 -0.4010
  281MOL0     C36996   6.210  11.885  10.723  0.7237 -0.1118 -0.2982
  281MOL0     C36997   6.083  11.958  10.750  0.2781 -0.4047 -0.5471
  281MOL0     C36998   5.969  11.881  10.683  0.3651  0.3389  1.0522
  281MOL0     C36999   5.833  11.940  10.737  0.3273  0.6088  0.4001
  281MOL0     C37000   5.710  11.879  10.663  0.7192 -0.1679 -0.4238
  281MOL0     C37001   5.578  11.945  10.711  0.4888 -0.4580 -0.1582
  281MOL0     C37002   5.455  11.906  10.627 -0.3274  0.1582  0.6202
  281MOL0     C37003   5.426  11.757  10.639 -0.6896 -0.2318 -0.7202
  281MOL0    Cl37004   5.267  11.733  10.575  0.0152  0.6273  0.2201
  281MOL0     C37005   6.433  11.704  10.631  0.2191  0.5036  0.4137
  281MOL0     C37006   6.549  11.646  10.573 -0.9892 -0.0860  0.4734
  281MOL0     O37007   6.773  11.836  10.354 -0.0831  0.4921 -0.1539
  281MOL0     C37008   6.980  11.728  10.191  0.7766  0.2434 -0.6420
  281MOL0     C37009   7.102  11.694  10.134  0.9727  0.6657  0.7237
  281MOL0     N37010   7.846  11.545  10.079  0.3728  0.4574  0.0853
  281MOL0     N37011   7.941  11.467  10.120  0.7309  0.1025  0.5963
  281MOL0     C37012   9.038  11.136  10.505 -0.3589  0.6148 -0.5059
  281MOL0     C37013   9.159  11.144  10.564 -0.7861 -1.2314 -0.6474
  281MOL0     C37014   9.607  11.066  10.703  0.1867  0.4789 -0.6674
  281MOL0     C37015   9.564  11.155  10.802  0.1860  0.0535  0.9022
  281MOL0     C37016   9.650  11.187  10.901 -0.5550 -0.3689  0.1774
  281MOL0     C37017   9.785  11.140  10.899 -0.0423 -1.2386 -0.1956
  281MOL0     O37018   9.863  11.184  11.008 -0.6682  0.8690 -0.5084
  281MOL0     C37019  10.007  11.177  11.005  0.2333  0.3250  0.1856
  281MOL0     C37020  10.077  11.303  11.063  0.3195 -0.5023 -0.2827
  281MOL0     C37021  10.219  11.313  11.014  0.8815  0.0215  0.4407
  281MOL0     C37022  10.327  11.232  11.088 -0.6026  0.3877  0.3902
  281MOL0     C37023  10.299  11.090  11.052  0.0789 -0.1872 -0.6775
  281MOL0     C37024  10.272  10.978  11.030 -0.1746  0.0722  0.1440
  281MOL0     C37025   9.829  11.054  10.805 -0.0200  0.2858 -0.3059
  281MOL0     C37026   9.740  11.013  10.704 -0.2015 -1.1038  0.2862
  281MOL0     H37027   9.331  10.888  10.428  2.4392  0.8054  1.1598
  281MOL0     H37028   9.108  10.875  10.299  0.2925  0.4425 -0.4930
  281MOL0     H37029   8.889  11.123  10.161 -1.1551 -3.5946 -0.5645
  281MOL0     H37030   8.852  11.228  10.302  0.9229 -0.1949  0.3778
  281MOL0     H37031   8.655  11.101  10.351  1.4307  0.4934  0.6208
  281MOL0     H37032   8.682  10.971  10.240 -0.5156 -0.0358  0.8993
  281MOL0     H37033   8.683  11.166  10.058  1.4474 -1.4179 -0.0367
  281MOL0     H37034   8.625  11.266  10.188  0.7588 -0.5523  1.9064
  281MOL0     H37035   8.483  11.006  10.098  1.3648 -0.0055 -1.8996
  281MOL0     H37036   8.456  11.097  10.251  0.8284 -1.0962 -0.5017
  281MOL0     H37037   8.424  11.242   9.976 -1.8528 -0.5659 -0.8433
  281MOL0     H37038   8.391  11.289  10.149 -2.6442  0.8922 -0.7699
  281MOL0     H37039   8.214  11.127  10.155 -3.1272  0.1301 -0.5456
  281MOL0     H37040   8.235  11.084   9.986  1.4363  1.9603 -0.8308
  281MOL0     H37041   8.174  11.368  10.081  1.3961 -0.5235 -1.5072
  281MOL0     H37042   8.146  11.301   9.915  0.5970 -2.0235 -0.3549
  281MOL0     H37043   8.006  11.204  10.160  1.5808 -2.1796 -1.0411
  281MOL0     H37044   7.966  11.154   9.998  0.1042 -0.2148  0.1951
  281MOL0     H37045   7.729  11.263   9.965 -1.4363  1.8274 -2.2063
  281MOL0     H37046   7.636  11.627   9.917 -1.2298  1.0677  1.5807
  281MOL0     H37047   7.585  11.583  10.078  0.2611 -1.7406  0.2431
  281MOL0     H37048   7.504  11.367  10.016 -0.0208  2.2598  1.6109
  281MOL0     H37049   7.582  11.389   9.856 -0.4132  1.8104 -0.9358
  281MOL0     H37050   7.410  11.537   9.805  0.5148  0.8168 -0.0156
  281MOL0     H37051   7.314  11.400   9.874  0.5923 -0.4482 -1.4631
  281MOL0     H37052   7.225  11.616   9.927  0.1213  2.8749  0.5450
  281MOL0     H37053   7.361  11.666  10.018  2.3894 -0.9779 -2.9624
  281MOL0     H37054   7.115  11.392  10.278 -1.3050 -0.4570  0.1337
  281MOL0     H37055   6.901  11.460  10.373  0.8401 -2.8431 -1.3019
  281MOL0     H37056   6.491  11.726  10.257  0.9159 -0.0618  1.8695
  281MOL0     H37057   6.299  11.839  10.348 -1.2075 -0.6923  1.3866
  281MOL0     H37058   6.297  11.942  10.758  2.0618 -1.5941 -1.0389
  281MOL0     H37059   6.210  11.793  10.782  1.3548  0.9072  1.3460
  281MOL0     H37060   6.088  12.063  10.721 -0.1813 -0.4217 -0.6988
  281MOL0     H37061   6.073  11.967  10.859  1.5989  3.1044 -0.5646
  281MOL0     H37062   5.975  11.775  10.711 -1.7468 -0.5003 -1.3349
  281MOL0     H37063   5.985  11.893  10.576  0.5369 -1.6864  0.8035
  281MOL0     H37064   5.837  11.915  10.843  0.9997 -1.8460 -0.1448
  281MOL0     H37065   5.824  12.049  10.729  0.1249  0.6162  0.7462
  281MOL0     H37066   5.708  11.772  10.684 -1.3456 -0.1225 -0.1431
  281MOL0     H37067   5.712  11.884  10.554 -0.8505  0.0438 -0.4698
  281MOL0     H37068   5.584  12.054  10.699 -0.5899  0.0597  2.9744
  281MOL0     H37069   5.546  11.926  10.814  0.1351 -0.4549 -0.2652
  281MOL0     H37070   5.369  11.962  10.665 -0.7227 -0.9443  1.4136
  281MOL0     H37071   5.475  11.919  10.520 -2.8299 -1.4297 -0.1286
  281MOL0     H37072   5.425  11.742  10.747 -1.7655  0.5554 -0.6095
  281MOL0     H37073   5.501  11.688  10.598 -0.6002  0.7867 -2.3950
  281MOL0     H37074   6.421  11.711  10.738 -1.5683 -0.3627  0.3204
  281MOL0     H37075   6.611  11.594  10.646 -1.9643 -3.0250 -0.6284
  281MOL0     H37076   6.945  11.828  10.169 -1.1522 -0.6437 -1.8831
  281MOL0     H37077   7.154  11.766  10.071  0.5897  1.8824  1.7546
  281MOL0     H37078   8.967  11.217  10.517  0.7409  1.6857 -0.8832
  281MOL0     H37079   9.170  11.221  10.639  2.5409 -0.0522 -2.1504
  281MOL0     H37080   9.459  11.185  10.807 -0.2682 -0.5433 -2.4173
  281MOL0     H37081   9.618  11.255  10.979 -1.5954  0.7243 -1.1276
  281MOL0     H37082  10.030  11.174  10.898  1.5060 -1.9153  0.4563
  281MOL0     H37083  10.043  11.081  11.043 -2.1594  0.1090  2.1978
  281MOL0     H37084  10.019  11.391  11.036  1.1069  1.0238  2.6115
  281MOL0     H37085  10.091  11.282  11.170  0.7975 -2.2974 -0.6625
  281MOL0     H37086  10.243  11.418  11.036  0.3926 -0.2565  2.4896
  281MOL0     H37087  10.229  11.305  10.905 -1.6492  3.0937 -0.1620
  281MOL0     H37088  10.427  11.266  11.062  1.2554 -3.0530  2.3428
  281MOL0     H37089  10.318  11.248  11.196  0.4598 -0.8688  0.6856
  281MOL0     H37090  10.257  10.875  11.003 -0.7736  0.6580 -1.9400
  281MOL0     H37091   9.920  10.997  10.820 -2.6845 -4.0946  1.4404
  281MOL0     H37092   9.778  10.953  10.622  1.2527  0.2543 -0.0889
  282MOL0     O37093  11.168   7.334   8.779  0.1805 -0.1937 -0.2812
  282MOL0     C37094  11.199   7.218   8.763  0.7784  0.5815  0.3184
  282MOL0     O37095  11.104   7.118   8.739 -0.5209  0.5628 -0.5871
  282MOL0     C37096  10.973   7.130   8.768  0.2335  0.2969 -0.1942
  282MOL0     C37097  10.893   7.073   8.681  0.0520  0.2331  0.6713
  282MOL0     C37098  10.756   7.073   8.706  0.3706 -0.3979 -0.4144
  282MOL0     C37099  10.707   7.152   8.811  0.0877 -0.1686 -0.3312
  282MOL0     O37100  10.568   7.165   8.819  0.7925  0.4851  0.1443
  282MOL0     C37101  10.498   7.208   8.933  0.4619  0.1911 -0.7245
  282MOL0     C37102  10.340   7.205   8.923 -0.0556 -1.4827  0.2956
  282MOL0     C37103  10.291   7.328   8.837 -0.1707 -0.1215  0.6286
  282MOL0     C37104  10.141   7.308   8.798  0.3270  0.0680 -0.1629
  282MOL0     C37105  10.091   7.385   8.672 -0.1673  0.1512 -0.0883
  282MOL0     C37106   9.939   7.404   8.690 -0.8518  0.1571  0.6884
  282MOL0     C37107   9.884   7.500   8.587 -0.1934  0.3061  0.4280
  282MOL0     C37108   9.755   7.461   8.517  1.0688  0.5153 -0.0027
  282MOL0     N37109   9.636   7.472   8.607 -1.1970  0.0723 -0.2988
  282MOL0     C37110   9.574   7.370   8.670  0.1056 -0.1183 -0.0248
  282MOL0     C37111   9.475   7.432   8.740  0.3554  0.1601  0.5427
  282MOL0     C37112   9.372   7.358   8.827  0.7559  1.3274 -0.3142
  282MOL0     C37113   9.285   7.450   8.907 -0.5909 -0.4843  0.4229
  282MOL0     C37114   9.208   7.376   9.014 -0.2839 -0.3813 -0.1081
  282MOL0     C37115   9.102   7.460   9.075 -0.7674  0.4875 -0.1693
  282MOL0     O37116   9.009   7.491   8.974 -0.1833 -0.1021  0.7369
  282MOL0     C37117   8.907   7.582   8.991  1.0143  0.0049  0.1616
  282MOL0     C37118   8.866   7.635   9.118  0.7333  0.7077  0.5295
  282MOL0     C37119   8.747   7.704   9.120  0.4604 -0.7201 -0.6624
  282MOL0     C37120   8.662   7.721   9.013  0.5811  1.0162 -0.1945
  282MOL0     C37121   8.524   7.786   9.023 -0.1860 -0.0195 -0.0854
  282MOL0     O37122   8.467   7.815   8.909  0.1083 -0.0118 -0.4538
  282MOL0     C37123   8.331   7.854   8.905 -0.8039  0.2094 -0.5106
  282MOL0     C37124   8.226   7.763   8.878  0.4109  0.0988 -0.8064
  282MOL0     C37125   8.096   7.807   8.845  0.4289  0.4273 -0.2651
  282MOL0     C37126   8.080   7.944   8.830  0.2620 -0.5257  0.9417
  282MOL0     O37127   7.957   7.983   8.789  0.0023 -0.1562 -0.0783
  282MOL0     C37128   7.932   8.125   8.786  0.0507 -0.2313 -0.6468
  282MOL0     C37129   7.791   8.161   8.740 -0.2642 -0.8124 -0.3036
  282MOL0     C37130   7.768   8.082   8.613  0.4806 -0.3568 -0.8394
  282MOL0     C37131   7.635   8.118   8.560 -0.0825 -1.0502  0.4531
  282MOL0     C37132   7.623   8.072   8.417  0.9229  0.0256  0.5535
  282MOL0     C37133   7.491   8.106   8.351 -0.0897 -0.1731 -0.2075
  282MOL0     C37134   7.484   8.040   8.206 -0.3585  0.0261  0.5046
  282MOL0     C37135   7.354   8.078   8.139 -0.3810  0.1093  0.5567
  282MOL0    Cl37136   7.344   8.252   8.140  0.0601 -0.0106  0.1232
  282MOL0     C37137   8.185   8.036   8.849 -0.1083 -0.5799 -0.2809
  282MOL0     C37138   8.311   7.994   8.882  0.5473 -0.0564 -0.6620
  282MOL0     O37139   8.475   7.811   9.135 -0.2513  0.0823 -0.4431
  282MOL0     C37140   8.719   7.683   8.888 -0.1966  0.2722 -0.0548
  282MOL0     C37141   8.837   7.613   8.878  0.3820 -0.3347  0.0850
  282MOL0     N37142   9.491   7.569   8.726  0.2026 -0.1496 -0.5996
  282MOL0     N37143   9.579   7.598   8.640  0.2495  0.1929 -1.2172
  282MOL0     C37144  10.790   7.203   8.910  0.0159 -0.2903 -0.1527
  282MOL0     C37145  10.924   7.190   8.880 -0.5553  0.0677  0.3133
  282MOL0     C37146  11.342   7.182   8.741  0.0187  0.3922 -0.3024
  282MOL0     C37147  11.383   7.054   8.708  0.2952  0.4467  0.2350
  282MOL0     C37148  11.519   7.022   8.693  0.4140  0.2692  0.1716
  282MOL0     C37149  11.621   7.118   8.711 -0.9986 -0.3540 -0.3285
  282MOL0     O37150  11.756   7.082   8.707  0.5157 -0.0020  0.2915
  282MOL0     C37151  11.853   7.186   8.681  0.0582  0.6609 -0.3489
  282MOL0     C37152  11.988   7.126   8.633  0.4561  0.8917 -0.0055
  282MOL0     C37153  12.075   7.232   8.577 -0.5592 -0.5352 -1.0709
  282MOL0     C37154  12.205   7.176   8.518  0.1506  0.0868  0.2637
  282MOL0     C37155  12.300   7.186   8.632  0.0269 -0.2805  0.8092
  282MOL0     C37156  12.375   7.202   8.728  0.2411  0.9192  0.0059
  282MOL0     C37157  11.579   7.252   8.754 -0.7450  0.1348  0.3930
  282MOL0     C37158  11.444   7.278   8.766 -0.2854 -1.0241 -0.4311
  282MOL0     H37159  10.934   7.034   8.589 -1.7159  1.7478 -0.8564
  282MOL0     H37160  10.678   7.029   8.645 -0.0869 -2.0194  1.2717
  282MOL0     H37161  10.516   7.314   8.953 -4.7187  1.2732 -0.2782
  282MOL0     H37162  10.534   7.158   9.023 -1.6550  1.5334  0.9923
  282MOL0     H37163  10.300   7.214   9.025  0.0437  3.5162  0.1185
  282MOL0     H37164  10.307   7.119   8.863 -1.2396  0.0506 -1.3349
  282MOL0     H37165  10.348   7.336   8.745 -0.5666 -2.3489  0.1248
  282MOL0     H37166  10.309   7.418   8.897  0.1098  1.7436 -2.0728
  282MOL0     H37167  10.122   7.202   8.784 -0.8628  0.5610 -2.9707
  282MOL0     H37168  10.094   7.343   8.890  0.3224  0.7848 -0.4276
  282MOL0     H37169  10.120   7.341   8.576  1.2503  1.7112 -0.4242
  282MOL0     H37170  10.149   7.477   8.686  0.6194 -0.4490  0.7001
  282MOL0     H37171   9.919   7.456   8.784 -1.9174 -0.9944  1.1164
  282MOL0     H37172   9.890   7.307   8.684 -0.8339  0.2010 -0.3510
  282MOL0     H37173   9.868   7.598   8.634 -0.4305  0.1729  0.6249
  282MOL0     H37174   9.955   7.518   8.505 -0.4594  0.7648  0.2965
  282MOL0     H37175   9.765   7.363   8.470  0.7628  1.3244 -1.8582
  282MOL0     H37176   9.737   7.528   8.432  1.2532 -0.1331 -0.5610
  282MOL0     H37177   9.585   7.262   8.668 -2.4487 -0.5914  3.4272
  282MOL0     H37178   9.416   7.290   8.901 -1.9075 -0.7202 -0.4552
  282MOL0     H37179   9.320   7.286   8.764  1.2277 -1.6830  2.4536
  282MOL0     H37180   9.221   7.498   8.833 -0.2340 -3.7290 -2.2061
  282MOL0     H37181   9.344   7.532   8.950 -1.3619 -0.2252  1.0113
  282MOL0     H37182   9.178   7.274   8.989 -0.3242 -0.4109  0.0556
  282MOL0     H37183   9.281   7.361   9.094  0.5168  0.5472 -0.6453
  282MOL0     H37184   9.155   7.547   9.115  0.4371  0.4851 -1.6477
  282MOL0     H37185   9.050   7.414   9.159 -0.1965 -1.8410 -1.0189
  282MOL0     H37186   8.902   7.594   9.212  0.4296  0.0423  0.3564
  282MOL0     H37187   8.696   7.727   9.213 -1.8997  1.9553 -2.4489
  282MOL0     H37188   8.246   7.656   8.881 -2.6421 -0.5620  0.0679
  282MOL0     H37189   8.015   7.736   8.833  0.6454  0.2932 -0.9678
  282MOL0     H37190   7.993   8.175   8.711 -2.9410  3.1548 -1.0410
  282MOL0     H37191   7.953   8.175   8.881  0.8121 -2.3519  0.3747
  282MOL0     H37192   7.799   8.267   8.715  0.9565 -0.1141  2.6160
  282MOL0     H37193   7.711   8.144   8.813 -1.1188  0.8339 -0.8077
  282MOL0     H37194   7.769   7.978   8.646 -1.1752 -0.2200 -0.2329
  282MOL0     H37195   7.842   8.092   8.534  1.5626 -2.6419 -0.2034
  282MOL0     H37196   7.552   8.075   8.616  0.7978  0.4874  3.1008
  282MOL0     H37197   7.637   8.227   8.561  0.1994 -1.0597  1.0942
  282MOL0     H37198   7.640   7.964   8.414  2.4669  0.2665 -0.9609
  282MOL0     H37199   7.700   8.116   8.353 -0.2024  0.7845 -0.3156
  282MOL0     H37200   7.475   8.214   8.346  0.2844 -0.1276 -0.4626
  282MOL0     H37201   7.407   8.072   8.412  1.1323 -0.4367  1.3981
  282MOL0     H37202   7.563   8.072   8.138  0.0491 -0.0584  0.9295
  282MOL0     H37203   7.488   7.931   8.214  1.2333  0.1017  1.1159
  282MOL0     H37204   7.264   8.044   8.191 -0.7190  0.0908 -0.0317
  282MOL0     H37205   7.355   8.038   8.037 -1.2066  2.4621 -0.4533
  282MOL0     H37206   8.173   8.141   8.827 -0.5974 -0.8960 -1.6950
  282MOL0     H37207   8.392   8.067   8.886  0.3138  0.2215 -0.9945
  282MOL0     H37208   8.662   7.699   8.797 -1.9208 -2.1751  0.4923
  282MOL0     H37209   8.851   7.570   8.779 -0.9212 -0.3092 -0.1295
  282MOL0     H37210  10.765   7.235   9.011  3.2060 -0.4496  0.8101
  282MOL0     H37211  11.008   7.209   8.947 -0.6790 -3.8658  1.8243
  282MOL0     H37212  11.311   6.973   8.696  1.7046 -0.8154 -0.1143
  282MOL0     H37213  11.552   6.921   8.670 -3.3342 -0.9959 -0.2562
  282MOL0     H37214  11.877   7.222   8.782  0.4544  0.3237 -0.3186
  282MOL0     H37215  11.814   7.265   8.616 -0.8615  2.1367  1.8392
  282MOL0     H37216  12.034   7.078   8.720 -2.4861 -1.8711  0.2187
  282MOL0     H37217  11.978   7.044   8.561 -0.4660 -0.0841  1.1978
  282MOL0     H37218  12.096   7.305   8.655  1.0733 -0.3143 -1.6769
  282MOL0     H37219  12.024   7.281   8.494  1.6412  3.2996 -0.3673
  282MOL0     H37220  12.211   7.071   8.485  0.9588  0.9422 -2.6119
  282MOL0     H37221  12.244   7.244   8.442  0.1697  1.6220  1.6040
  282MOL0     H37222  12.441   7.196   8.812 -1.8347 -1.7216  1.6245
  282MOL0     H37223  11.658   7.327   8.757  0.8170 -1.3751 -0.9145
  282MOL0     H37224  11.407   7.375   8.799 -1.4252 -1.6666  0.2571
  283MOL0     O37225   0.562   1.327   1.982 -0.2002 -1.0379  0.7915
  283MOL0     C37226   0.613   1.441   1.956  0.3248 -0.0439 -0.0581
  283MOL0     O37227   0.563   1.567   1.984 -0.3634 -0.2463 -0.0664
  283MOL0     C37228   0.448   1.567   2.058  0.2505  0.1770  0.2638
  283MOL0     C37229   0.322   1.551   1.990 -0.1071 -0.9696  0.2749
  283MOL0     C37230   0.198   1.558   2.067 -1.0783 -1.4581 -0.1747
  283MOL0     C37231   0.196   1.570   2.203  1.4667  0.3044  0.1936
  283MOL0     O37232   0.070   1.572   2.260  0.5476  0.2985  0.1889
  283MOL0     C37233   0.060   1.621   2.389  0.6383 -0.0331 -0.4418
  283MOL0     C37234  -0.090   1.594   2.425  0.2902 -0.1430  0.4846
  283MOL0     C37235  -0.181   1.662   2.314  0.3756  0.0325  1.2337
  283MOL0     C37236  -0.183   1.818   2.309  0.1400 -0.5952 -0.4956
  283MOL0     C37237  -0.323   1.862   2.277  0.1384  0.2910 -1.1899
  283MOL0     C37238  -0.331   2.008   2.321 -0.5952 -0.7312 -0.7432
  283MOL0     C37239  -0.468   2.084   2.303 -0.9711  0.4505  0.8053
  283MOL0     C37240  -0.586   2.027   2.380  0.1586  0.2860 -0.2133
  283MOL0     N37241  -0.707   2.081   2.308  0.2934 -0.2382  0.2596
  283MOL0     C37242  -0.749   2.035   2.183 -0.1947  0.1853  0.6759
  283MOL0     C37243  -0.873   2.096   2.166 -0.6340  0.4833  0.7567
  283MOL0     C37244  -0.964   2.088   2.041 -0.2950 -0.8397 -0.0954
  283MOL0     C37245  -0.907   2.178   1.929 -0.0668 -0.0515  0.8085
  283MOL0     C37246  -1.009   2.216   1.821  0.6449 -0.1764  0.6501
  283MOL0     C37247  -0.955   2.307   1.710 -0.4894  0.1662 -0.7343
  283MOL0     O37248  -0.991   2.254   1.575  0.7421 -0.5430 -0.1335
  283MOL0     C37249  -1.116   2.265   1.526 -0.2325  0.1985  0.3472
  283MOL0     C37250  -1.220   2.177   1.552 -0.0896 -1.0872 -0.1437
  283MOL0     C37251  -1.346   2.196   1.502  0.0872  0.4457  0.1782
  283MOL0     C37252  -1.377   2.298   1.402  0.5530  0.4366 -0.6371
  283MOL0     C37253  -1.516   2.315   1.344  0.0865  0.1659  0.1698
  283MOL0     O37254  -1.596   2.217   1.361 -0.0232 -0.4532 -1.1323
  283MOL0     C37255  -1.736   2.226   1.322  0.7251 -0.0357  0.0124
  283MOL0     C37256  -1.808   2.340   1.339 -0.0656  0.0611  0.8339
  283MOL0     C37257  -1.929   2.356   1.268 -0.8567  0.0206 -0.3111
  283MOL0     C37258  -1.986   2.252   1.196  0.4449 -0.2216 -0.6275
  283MOL0     O37259  -2.108   2.266   1.141 -0.3027  0.2503 -0.1998
  283MOL0     C37260  -2.207   2.207   1.227 -0.7678  0.4074  0.1786
  283MOL0     C37261  -2.321   2.164   1.134 -0.2708  0.5276  0.1529
  283MOL0     C37262  -2.430   2.096   1.209  0.2081 -0.0830 -1.0565
  283MOL0     C37263  -2.548   2.060   1.122  0.2949 -0.0093 -0.1476
  283MOL0     C37264  -2.630   1.945   1.177  1.0413 -0.0237 -0.4426
  283MOL0     C37265  -2.750   1.981   1.265  0.3230 -0.2215 -0.3162
  283MOL0     C37266  -2.878   2.033   1.200  0.4019  0.8140  0.4736
  283MOL0     C37267  -2.987   2.064   1.298 -0.3070 -0.1842  1.0906
  283MOL0    Cl37268  -3.140   2.108   1.212 -0.0659 -0.4406 -0.2861
  283MOL0     C37269  -1.923   2.128   1.181  0.0118  0.3568 -0.6133
  283MOL0     C37270  -1.794   2.116   1.249  0.4691  0.2101 -0.1534
  283MOL0     O37271  -1.532   2.410   1.269  0.2094 -0.0767 -0.3265
  283MOL0     C37272  -1.272   2.392   1.369  0.0383 -0.1667 -0.0511
  283MOL0     C37273  -1.145   2.371   1.433 -0.6003  0.3278  0.5440
  283MOL0     N37274  -0.896   2.181   2.278 -0.4402 -0.4861  0.1918
  283MOL0     N37275  -0.798   2.165   2.366 -0.1209 -0.1788 -0.6044
  283MOL0     C37276   0.320   1.606   2.264 -0.8793  0.2670 -0.4939
  283MOL0     C37277   0.440   1.598   2.186  0.2346 -0.5578  0.3018
  283MOL0     C37278   0.748   1.444   1.893  0.7307  0.0095  0.3649
  283MOL0     C37279   0.800   1.322   1.836 -0.5872 -0.0942  0.4019
  283MOL0     C37280   0.928   1.328   1.779 -0.4630 -0.8746 -0.6681
  283MOL0     C37281   0.995   1.450   1.763 -0.0952 -1.1256 -0.0565
  283MOL0     O37282   1.110   1.475   1.698  0.2227 -0.3567  0.1207
  283MOL0     C37283   1.135   1.375   1.586 -1.1896  0.1741  0.3037
  283MOL0     C37284   1.221   1.445   1.483 -0.4337 -0.5375  0.1468
  283MOL0     C37285   1.123   1.552   1.417 -0.5657  0.8360  0.2519
  283MOL0     C37286   1.180   1.599   1.284 -0.0960 -0.0488  0.6300
  283MOL0     C37287   1.149   1.499   1.185  0.1139 -0.3566  0.4238
  283MOL0     C37288   1.145   1.429   1.090 -0.7581 -0.1158  0.0636
  283MOL0     C37289   0.938   1.565   1.820 -0.1998 -0.5086  1.0957
  283MOL0     C37290   0.817   1.564   1.880 -0.3273 -0.2993 -0.1165
  283MOL0     H37291   0.309   1.540   1.883 -1.2460 -0.7640  0.3797
  283MOL0     H37292   0.102   1.555   2.016 -1.3012 -1.6546  0.2562
  283MOL0     H37293   0.083   1.728   2.382  0.9439 -0.0197  0.5429
  283MOL0     H37294   0.129   1.578   2.462  2.1974  3.0914  0.0743
  283MOL0     H37295  -0.107   1.626   2.528  1.8069 -0.1685  0.7663
  283MOL0     H37296  -0.112   1.487   2.418 -0.2246 -0.0222  0.1992
  283MOL0     H37297  -0.283   1.633   2.343 -0.3944  0.3558 -0.9112
  283MOL0     H37298  -0.166   1.626   2.212  1.5990  0.7582  1.1385
  283MOL0     H37299  -0.148   1.848   2.409  1.6349 -1.9593 -0.5768
  283MOL0     H37300  -0.114   1.865   2.239  2.7372 -1.9807  0.9688
  283MOL0     H37301  -0.398   1.808   2.336 -0.6921  0.3413 -2.1755
  283MOL0     H37302  -0.355   1.828   2.178 -0.4297 -2.0181 -0.2875
  283MOL0     H37303  -0.253   2.067   2.271 -0.7990  0.9605  0.8268
  283MOL0     H37304  -0.296   2.024   2.423  1.3747  1.2772 -1.6238
  283MOL0     H37305  -0.448   2.186   2.338 -2.3892  1.2825 -0.6921
  283MOL0     H37306  -0.491   2.078   2.197 -0.4868 -0.2271  0.7288
  283MOL0     H37307  -0.587   2.054   2.486 -0.0042 -2.8870  0.6968
  283MOL0     H37308  -0.591   1.918   2.371  1.7617  0.1916 -0.3382
  283MOL0     H37309  -0.701   1.969   2.110 -3.1674  2.2254 -3.5661
  283MOL0     H37310  -1.063   2.125   2.071  0.4455  1.9372 -0.8434
  283MOL0     H37311  -0.995   1.985   2.017  1.0423 -1.5146  0.9554
  283MOL0     H37312  -0.826   2.126   1.877  0.2521  1.0366  0.1734
  283MOL0     H37313  -0.874   2.267   1.984 -0.9986  0.7584  0.0823
  283MOL0     H37314  -1.046   2.123   1.775  2.1580  0.3422 -1.7501
  283MOL0     H37315  -1.083   2.262   1.887  0.6123  2.3854 -1.0507
  283MOL0     H37316  -0.846   2.311   1.717 -0.3562 -2.5463 -0.2031
  283MOL0     H37317  -0.980   2.411   1.733  1.4049 -0.1235  3.9688
  283MOL0     H37318  -1.208   2.096   1.623 -2.4258 -2.0325 -0.7085
  283MOL0     H37319  -1.422   2.121   1.521 -1.1254  1.3846 -0.7413
  283MOL0     H37320  -1.756   2.425   1.381  1.6335 -0.0108 -0.9801
  283MOL0     H37321  -1.968   2.457   1.279  0.4788  0.8649 -2.6600
  283MOL0     H37322  -2.244   2.280   1.299 -3.7001 -0.3792 -0.4100
  283MOL0     H37323  -2.168   2.124   1.287 -1.3264  1.5153  2.1337
  283MOL0     H37324  -2.288   2.097   1.054 -0.0200 -0.0783  0.7609
  283MOL0     H37325  -2.359   2.252   1.081 -1.4345  0.1632  0.3548
  283MOL0     H37326  -2.473   2.149   1.294 -0.2731  1.2358 -2.0948
  283MOL0     H37327  -2.384   2.006   1.252  2.5240  2.7233  3.0839
  283MOL0     H37328  -2.614   2.146   1.109 -0.2564 -0.2291  1.0420
  283MOL0     H37329  -2.504   2.026   1.028  1.5041 -0.5524  0.5906
  283MOL0     H37330  -2.576   1.880   1.246 -1.3658  0.5100  2.1445
  283MOL0     H37331  -2.655   1.883   1.091 -1.2892 -0.5126  0.5236
  283MOL0     H37332  -2.736   2.057   1.343 -0.9306  2.5521 -2.6214
  283MOL0     H37333  -2.768   1.889   1.321 -0.7208  2.0971  3.6226
  283MOL0     H37334  -2.854   2.110   1.126 -2.6922 -1.2715 -3.0599
  283MOL0     H37335  -2.908   1.947   1.139  0.1966 -0.0765  1.7832
  283MOL0     H37336  -2.954   2.148   1.360 -0.1110  0.7901 -0.2795
  283MOL0     H37337  -3.002   1.977   1.363  4.5220  0.1049  3.0191
  283MOL0     H37338  -1.964   2.053   1.115  0.5094 -0.6239  0.1507
  283MOL0     H37339  -1.724   2.033   1.249  2.2028  1.4088  3.9460
  283MOL0     H37340  -1.284   2.482   1.310 -1.2526 -0.0225  0.3943
  283MOL0     H37341  -1.067   2.443   1.407 -1.8650  1.1940 -1.0538
  283MOL0     H37342   0.331   1.626   2.370 -1.0595 -1.9895  0.0052
  283MOL0     H37343   0.539   1.612   2.229  0.0318  1.9971  0.0936
  283MOL0     H37344   0.734   1.236   1.838 -2.9942  1.6338  1.8601
  283MOL0     H37345   0.971   1.237   1.740 -1.9312 -0.3864 -3.7521
  283MOL0     H37346   1.047   1.332   1.537 -0.1546  1.2781 -2.7630
  283MOL0     H37347   1.189   1.287   1.622  0.1735  0.7358 -0.3169
  283MOL0     H37348   1.313   1.491   1.521  3.3002 -3.5897 -4.0251
  283MOL0     H37349   1.267   1.373   1.415  1.9059  0.3195  0.7262
  283MOL0     H37350   1.099   1.631   1.489 -0.3939  0.2885  0.9151
  283MOL0     H37351   1.028   1.503   1.395  0.6193 -2.4009  1.7369
  283MOL0     H37352   1.121   1.687   1.257 -1.0474 -0.8774 -0.0867
  283MOL0     H37353   1.287   1.616   1.290  0.0454 -0.0562 -1.2422
  283MOL0     H37354   1.138   1.376   0.997 -1.5743  1.4284 -0.7901
  283MOL0     H37355   0.993   1.659   1.819  0.3361 -0.8046 -0.0035
  283MOL0     H37356   0.779   1.657   1.922  0.1088 -1.4719  3.2152
  284MOL0     O37357   5.866   2.060  11.124  0.0920  0.5324  0.5776
  284MOL0     C37358   5.899   2.133  11.215 -0.9023  0.0414  0.4097
  284MOL0     O37359   5.822   2.224  11.287 -0.3281  0.2016  0.5758
  284MOL0     C37360   5.683   2.199  11.285  0.0952 -0.1718 -0.1521
  284MOL0     C37361   5.625   2.081  11.336 -0.1407  0.5789  0.5215
  284MOL0     C37362   5.490   2.063  11.325  0.0288  0.1787 -0.4808
  284MOL0     C37363   5.405   2.155  11.268 -0.0153 -0.0325 -0.1607
  284MOL0     O37364   5.267   2.146  11.253 -0.3584 -0.2842 -0.0004
  284MOL0     C37365   5.215   2.031  11.188  0.7125  0.4902  0.3391
  284MOL0     C37366   5.064   2.058  11.160 -0.3693 -0.7030  0.0566
  284MOL0     C37367   5.034   2.127  11.022  0.1264  0.0990  0.3658
  284MOL0     C37368   5.084   2.266  11.014  0.5948 -0.2100 -0.5327
  284MOL0     C37369   5.060   2.341  10.887 -0.3569 -0.2062 -0.4036
  284MOL0     C37370   4.908   2.377  10.864  0.5584 -0.6302  0.2085
  284MOL0     C37371   4.832   2.451  10.978 -0.5626 -0.0587  0.3218
  284MOL0     C37372   4.687   2.473  10.938  0.5130 -0.5084 -0.4035
  284MOL0     N37373   4.621   2.556  11.040 -0.5914 -0.6946  0.7431
  284MOL0     C37374   4.559   2.671  11.001  0.6620 -0.0141  0.7425
  284MOL0     C37375   4.468   2.699  11.102  0.2180  1.1186 -1.2264
  284MOL0     C37376   4.351   2.802  11.094  0.0414  0.2264  0.0625
  284MOL0     C37377   4.229   2.732  11.031  0.5202 -1.1324 -0.4940
  284MOL0     C37378   4.152   2.648  11.136 -0.8494 -0.2068  0.3416
  284MOL0     C37379   4.015   2.583  11.080 -0.2523 -0.4335 -0.2763
  284MOL0     O37380   3.922   2.677  11.011 -0.0126  0.3444  0.6593
  284MOL0     C37381   3.818   2.620  10.946 -0.2768 -0.0315  0.8277
  284MOL0     C37382   3.774   2.490  10.949 -0.5083  0.6942 -0.0967
  284MOL0     C37383   3.658   2.445  10.881 -0.2225  0.4491  0.0886
  284MOL0     C37384   3.585   2.534  10.795  0.4258 -0.3782  0.1513
  284MOL0     C37385   3.460   2.499  10.724 -0.7785  0.5791 -0.5641
  284MOL0     O37386   3.415   2.370  10.744 -0.4960  0.2275  0.9224
  284MOL0     C37387   3.290   2.329  10.701  0.3613 -0.5394  0.0954
  284MOL0     C37388   3.279   2.187  10.673  0.3066 -0.0612  0.8023
  284MOL0     C37389   3.164   2.130  10.631 -0.3695  0.2833 -0.0494
  284MOL0     C37390   3.042   2.202  10.615  0.0564  0.1687  0.1983
  284MOL0     O37391   2.933   2.132  10.569 -0.5464  0.0774  0.1508
  284MOL0     C37392   2.803   2.198  10.546  0.3803  0.1082 -0.4864
  284MOL0     C37393   2.719   2.209  10.679 -0.7081 -0.0019 -0.5128
  284MOL0     C37394   2.569   2.246  10.644  0.2625  0.1255 -0.3092
  284MOL0     C37395   2.482   2.203  10.761  0.4390  0.0706  0.5790
  284MOL0     C37396   2.336   2.243  10.718 -0.0923  0.2791 -0.2976
  284MOL0     C37397   2.248   2.152  10.806 -0.2539  0.6985 -0.5010
  284MOL0     C37398   2.096   2.163  10.758 -0.2404  0.2033  0.0277
  284MOL0     C37399   1.997   2.056  10.821 -0.6386  0.0414 -0.1085
  284MOL0    Cl37400   1.931   2.107  10.990 -0.1549  0.3223  0.4366
  284MOL0     C37401   3.046   2.342  10.637  0.3948  0.3198  0.6399
  284MOL0     C37402   3.171   2.407  10.672  0.0458 -0.1622 -0.2480
  284MOL0     O37403   3.403   2.593  10.676 -0.2574 -0.4945  0.6998
  284MOL0     C37404   3.644   2.659  10.777  0.4274 -0.2175  0.4603
  284MOL0     C37405   3.760   2.710  10.853  0.0941 -0.2529 -0.2707
  284MOL0     N37406   4.482   2.603  11.196  0.0192  0.0935  0.0803
  284MOL0     N37407   4.579   2.518  11.160  0.8203 -0.9948  0.4252
  284MOL0     C37408   5.460   2.278  11.214  0.0400  0.0103  0.0147
  284MOL0     C37409   5.603   2.295  11.219 -0.2417 -0.7567  0.4757
  284MOL0     C37410   6.044   2.147  11.250  0.2361  0.3852  0.6768
  284MOL0     C37411   6.129   2.054  11.197  0.4969  0.1646 -1.0837
  284MOL0     C37412   6.268   2.050  11.226 -0.0099  0.0949  0.3345
  284MOL0     C37413   6.313   2.156  11.303 -1.0297  0.3018 -0.1547
  284MOL0     O37414   6.450   2.181  11.316 -0.4327  0.1832  0.6445
  284MOL0     C37415   6.543   2.133  11.220  0.2180 -0.2001  0.1018
  284MOL0     C37416   6.594   2.001  11.288  0.0247  0.8729  0.3705
  284MOL0     C37417   6.683   2.031  11.400 -0.1388 -0.2233  0.1034
  284MOL0     C37418   6.738   1.909  11.462 -0.3792  0.5073 -0.0203
  284MOL0     C37419   6.850   1.948  11.551 -1.0264  0.5717  0.3038
  284MOL0     C37420   6.947   1.989  11.616 -0.1413  0.0910 -0.4710
  284MOL0     C37421   6.234   2.265  11.351  0.3058  0.8366  0.3956
  284MOL0     C37422   6.095   2.249  11.331  0.2762  0.3753 -0.7974
  284MOL0     H37423   5.684   1.995  11.364  0.0860 -0.5810 -2.9894
  284MOL0     H37424   5.445   1.971  11.361 -0.4914  1.7240  3.2595
  284MOL0     H37425   5.218   1.952  11.263  3.9042  1.9014  1.8824
  284MOL0     H37426   5.267   2.007  11.095  1.7000  1.7517  0.5365
  284MOL0     H37427   5.027   2.120  11.243 -1.1268  1.0721 -1.5462
  284MOL0     H37428   5.015   1.960  11.165 -0.3090 -0.7933 -0.9623
  284MOL0     H37429   4.926   2.130  11.006  0.2774 -1.1387 -1.1923
  284MOL0     H37430   5.079   2.071  10.939 -1.5635  2.6206 -2.4308
  284MOL0     H37431   5.054   2.327  11.100 -1.3523  0.6393 -1.7372
  284MOL0     H37432   5.191   2.248  11.018  0.8212  0.9060 -1.3146
  284MOL0     H37433   5.088   2.275  10.805  0.6175 -0.6945  0.3088
  284MOL0     H37434   5.124   2.430  10.887  1.1425 -1.2469 -0.5722
  284MOL0     H37435   4.854   2.283  10.849  1.0014 -1.7330  4.3128
  284MOL0     H37436   4.904   2.433  10.770  0.3973 -1.4535 -0.2787
  284MOL0     H37437   4.832   2.391  11.069  0.2910  2.1792  1.8735
  284MOL0     H37438   4.888   2.544  10.989 -0.2136  0.0211 -1.6716
  284MOL0     H37439   4.624   2.383  10.933 -0.4062  0.1256 -0.4500
  284MOL0     H37440   4.682   2.522  10.841 -0.9111  0.7780  0.2694
  284MOL0     H37441   4.577   2.719  10.905  1.6249 -2.2633 -0.2711
  284MOL0     H37442   4.402   2.883  11.041  1.6530  2.1771  4.1474
  284MOL0     H37443   4.320   2.839  11.192 -0.1410  0.0594  0.0690
  284MOL0     H37444   4.259   2.671  10.946 -1.0887 -2.0359 -0.4541
  284MOL0     H37445   4.159   2.803  10.985  0.8116  0.0304  0.7735
  284MOL0     H37446   4.214   2.565  11.173 -2.3532 -0.7009  1.8938
  284MOL0     H37447   4.131   2.715  11.219  2.6297 -0.1159  1.2911
  284MOL0     H37448   3.959   2.540  11.164  1.7252  0.9459  1.8764
  284MOL0     H37449   4.051   2.501  11.017  1.5692 -2.0395  2.6115
  284MOL0     H37450   3.837   2.425  11.008  2.1536  1.0631 -2.3149
  284MOL0     H37451   3.622   2.343  10.889 -2.1540  1.1795  1.6018
  284MOL0     H37452   3.361   2.119  10.692  1.3001  1.6108  2.9338
  284MOL0     H37453   3.166   2.022  10.618 -2.0045  0.3500 -1.0917
  284MOL0     H37454   2.744   2.129  10.485  1.1581 -1.4752  0.4941
  284MOL0     H37455   2.799   2.293  10.492 -2.6445 -0.1899 -0.9513
  284MOL0     H37456   2.768   2.291  10.733 -1.0147  0.1239 -0.4198
  284MOL0     H37457   2.734   2.117  10.736 -0.9131  1.8405  2.7460
  284MOL0     H37458   2.535   2.201  10.550  2.6027  0.1261 -1.2219
  284MOL0     H37459   2.566   2.355  10.632  1.5968  0.0036 -2.1849
  284MOL0     H37460   2.485   2.094  10.770 -0.8120 -0.0791 -0.5860
  284MOL0     H37461   2.511   2.244  10.859 -2.6162 -0.9673  2.0424
  284MOL0     H37462   2.314   2.229  10.612 -0.1494  2.9111 -0.7015
  284MOL0     H37463   2.305   2.347  10.733 -0.1747  0.0771  1.1263
  284MOL0     H37464   2.256   2.189  10.909 -1.9093 -0.0547 -0.0711
  284MOL0     H37465   2.281   2.048  10.816  0.5600  1.0406  0.6143
  284MOL0     H37466   2.063   2.263  10.791 -0.0399  0.1192  0.4996
  284MOL0     H37467   2.086   2.160  10.650  0.0158  2.7829 -0.1265
  284MOL0     H37468   2.041   1.956  10.822 -3.0907 -1.1448 -0.6425
  284MOL0     H37469   1.910   2.053  10.754 -0.5151  2.8965 -0.5232
  284MOL0     H37470   2.960   2.396  10.599  0.4442 -0.8126 -1.1902
  284MOL0     H37471   3.165   2.514  10.694  2.2437 -0.3881  1.8232
  284MOL0     H37472   3.595   2.737  10.719  1.0054 -1.2842 -1.5618
  284MOL0     H37473   3.785   2.816  10.850 -1.0780  0.0758  0.7064
  284MOL0     H37474   5.397   2.356  11.172 -0.0779 -0.4824 -0.7663
  284MOL0     H37475   5.634   2.395  11.192  0.4402 -0.3417  2.6212
  284MOL0     H37476   6.088   1.968  11.145  2.1642 -2.0865  1.1338
  284MOL0     H37477   6.326   1.979  11.168 -1.1891  1.1543 -2.3419
  284MOL0     H37478   6.623   2.208  11.209 -1.1771  1.2644 -0.4828
  284MOL0     H37479   6.504   2.119  11.120 -1.2287 -1.2936  0.7938
  284MOL0     H37480   6.512   1.940  11.326 -1.1788  2.1270 -0.1191
  284MOL0     H37481   6.650   1.949  11.210 -0.3413  0.0105  0.6761
  284MOL0     H37482   6.628   2.086  11.478 -0.3588  0.1115 -0.2840
  284MOL0     H37483   6.771   2.087  11.365  0.4523 -1.5499 -0.5897
  284MOL0     H37484   6.659   1.859  11.519 -0.4036  1.0671  0.4386
  284MOL0     H37485   6.773   1.835  11.388 -0.1613  0.9636 -0.3792
  284MOL0     H37486   7.028   2.033  11.671  0.6378 -2.5442  0.6531
  284MOL0     H37487   6.273   2.356  11.396 -1.3952  1.5238  0.5742
  284MOL0     H37488   6.023   2.324  11.363  1.2165  1.2225 -0.5795
  285MOL0     O37489   2.345   4.688   1.398 -0.2008 -0.1493 -0.2319
  285MOL0     C37490   2.438   4.609   1.421  0.0731 -0.2683 -0.5398
  285MOL0     O37491   2.432   4.508   1.509 -0.4170 -0.5488  0.0761
  285MOL0     C37492   2.322   4.470   1.573 -0.1313  0.4495  0.4211
  285MOL0     C37493   2.192   4.461   1.513 -0.1600 -0.6832  0.3281
  285MOL0     C37494   2.090   4.392   1.580  0.3838 -0.1040  0.5219
  285MOL0     C37495   2.106   4.344   1.710  0.1437 -1.0619  0.1744
  285MOL0     O37496   1.993   4.286   1.752 -0.2271  0.3446  0.3509
  285MOL0     C37497   1.990   4.239   1.890 -0.2903 -0.2134 -0.2774
  285MOL0     C37498   1.891   4.122   1.881  0.2592 -0.8645 -0.6123
  285MOL0     C37499   1.930   4.002   1.796  0.3409  0.4517 -0.4348
  285MOL0     C37500   1.916   4.006   1.641 -0.0934 -0.0784  0.2873
  285MOL0     C37501   1.787   4.062   1.580 -0.4912  0.3027  0.2183
  285MOL0     C37502   1.780   4.009   1.445  0.4002  0.4271 -0.1517
  285MOL0     C37503   1.652   4.061   1.384  0.0628 -0.0757  0.0072
  285MOL0     C37504   1.613   4.005   1.243 -0.4873 -0.3857 -0.2471
  285MOL0     N37505   1.519   3.894   1.258 -0.3276 -0.3995 -0.0600
  285MOL0     C37506   1.389   3.907   1.311 -0.2658  0.6580 -0.1365
  285MOL0     C37507   1.349   3.779   1.353 -0.1996 -1.1493 -0.2894
  285MOL0     C37508   1.219   3.738   1.410 -0.1568  0.3083 -0.4277
  285MOL0     C37509   1.234   3.623   1.514  0.4152  0.2783  0.0704
  285MOL0     C37510   1.268   3.690   1.646  0.4495  0.9033  1.1523
  285MOL0     C37511   1.280   3.573   1.749 -0.1195 -0.3877 -0.4431
  285MOL0     O37512   1.161   3.494   1.774  0.3193 -0.1444 -0.3346
  285MOL0     C37513   1.049   3.543   1.847  0.1222 -0.3969  0.7826
  285MOL0     C37514   0.938   3.467   1.841 -0.0483  0.0334 -0.9769
  285MOL0     C37515   0.823   3.509   1.907  0.0226 -0.1038  0.0889
  285MOL0     C37516   0.815   3.622   1.994 -0.8773 -0.3102  0.0048
  285MOL0     C37517   0.699   3.669   2.075  0.5750 -0.2409  0.2161
  285MOL0     O37518   0.589   3.587   2.067  0.0679  0.5284 -0.6200
  285MOL0     C37519   0.475   3.597   2.137 -1.0812  0.3056  0.1391
  285MOL0     C37520   0.412   3.715   2.173  0.4144 -0.3085 -0.0295
  285MOL0     C37521   0.293   3.715   2.238 -0.0739  0.9571 -0.1552
  285MOL0     C37522   0.237   3.592   2.266 -0.2914  0.5720 -0.2974
  285MOL0     O37523   0.118   3.600   2.340  0.1196  0.5314 -0.2111
  285MOL0     C37524   0.009   3.533   2.269  0.6283  0.5779 -0.6564
  285MOL0     C37525  -0.120   3.532   2.350 -0.7355 -0.0972  0.7424
  285MOL0     C37526  -0.245   3.485   2.276 -0.1575 -0.1914  0.4813
  285MOL0     C37527  -0.378   3.502   2.356  0.9913 -0.1550 -0.7177
  285MOL0     C37528  -0.411   3.645   2.417  0.1180  0.4904  0.7142
  285MOL0     C37529  -0.431   3.762   2.318  0.4557  1.1692  1.2502
  285MOL0     C37530  -0.457   3.899   2.388  0.1124  1.0279 -0.2689
  285MOL0     C37531  -0.467   4.004   2.280 -0.1490  0.1301 -0.0483
  285MOL0    Cl37532  -0.500   4.157   2.356  0.4862 -0.1468  0.3401
  285MOL0     C37533   0.299   3.470   2.228 -0.3852  0.4481  0.1522
  285MOL0     C37534   0.423   3.470   2.163  0.2581 -1.0929  0.0340
  285MOL0     O37535   0.716   3.778   2.138 -0.1705  0.3603  0.0793
  285MOL0     C37536   0.923   3.710   1.979  0.5439  0.4667 -0.9480
  285MOL0     C37537   1.039   3.676   1.909 -0.1865 -0.1676  0.3076
  285MOL0     N37538   1.465   3.701   1.314 -0.5001 -0.1577  0.0600
  285MOL0     N37539   1.560   3.770   1.257 -0.0090 -0.5626  0.4888
  285MOL0     C37540   2.221   4.366   1.782 -0.0337 -0.7201 -0.4267
  285MOL0     C37541   2.331   4.412   1.703 -0.8162 -0.1499  0.3379
  285MOL0     C37542   2.564   4.628   1.344  0.3480  0.0206  0.4378
  285MOL0     C37543   2.664   4.531   1.349  0.6429 -0.2380 -0.1320
  285MOL0     C37544   2.788   4.551   1.286  0.1292  0.6204 -0.5922
  285MOL0     C37545   2.813   4.679   1.231 -0.2788 -0.6728 -0.2251
  285MOL0     O37546   2.910   4.716   1.139 -0.9348  0.2220  0.2111
  285MOL0     C37547   3.027   4.623   1.140  0.3305 -0.5214 -0.0687
  285MOL0     C37548   3.116   4.663   1.018  0.1021  0.9937 -0.2516
  285MOL0     C37549   3.258   4.614   1.041  0.4246 -0.1135  0.5060
  285MOL0     C37550   3.356   4.660   0.925 -0.0237 -0.3319 -0.5041
  285MOL0     C37551   3.491   4.634   0.965 -0.1476 -0.5335  0.3277
  285MOL0     C37552   3.604   4.615   0.998  0.4756  0.5005 -1.2560
  285MOL0     C37553   2.708   4.773   1.218 -0.3017 -0.3238  0.0603
  285MOL0     C37554   2.589   4.745   1.272  0.4959  0.0854  0.0812
  285MOL0     H37555   2.187   4.506   1.414  3.0364  0.8723  0.7342
  285MOL0     H37556   1.994   4.377   1.532  1.0751  0.3626 -1.0633
  285MOL0     H37557   1.945   4.320   1.948 -2.3083 -1.2573 -0.2997
  285MOL0     H37558   2.085   4.195   1.922  0.3181  0.3728 -1.2299
  285MOL0     H37559   1.791   4.158   1.856  1.0338  0.1291 -2.4996
  285MOL0     H37560   1.879   4.085   1.983 -1.5291 -1.1925 -0.9064
  285MOL0     H37561   1.863   3.922   1.828 -1.4169  1.5925 -1.0599
  285MOL0     H37562   2.033   3.981   1.825  1.0558 -0.9471 -3.5486
  285MOL0     H37563   1.996   4.064   1.595  0.1093 -1.1678 -0.7570
  285MOL0     H37564   1.933   3.905   1.603  0.1480  0.6535 -1.6765
  285MOL0     H37565   1.786   4.171   1.587  1.6832  0.3745 -0.1052
  285MOL0     H37566   1.703   4.030   1.643 -0.8081 -0.6757 -0.6803
  285MOL0     H37567   1.774   3.899   1.447 -0.3327  0.4808  0.8138
  285MOL0     H37568   1.867   4.036   1.385  0.3713 -2.9420 -1.9862
  285MOL0     H37569   1.572   4.040   1.455  0.6174  0.6239  0.8632
  285MOL0     H37570   1.671   4.169   1.385  2.6838 -0.4451 -1.4480
  285MOL0     H37571   1.702   3.972   1.189  0.3107  1.9513 -0.4485
  285MOL0     H37572   1.569   4.078   1.176 -0.5470  1.5301  1.7552
  285MOL0     H37573   1.344   4.002   1.339  0.4369  0.3730  2.2150
  285MOL0     H37574   1.141   3.721   1.335  0.6064 -0.3232 -1.0976
  285MOL0     H37575   1.183   3.829   1.459  2.3020  2.5270 -2.4498
  285MOL0     H37576   1.315   3.552   1.494  1.9106  1.7828  0.5336
  285MOL0     H37577   1.137   3.573   1.522  0.4884  0.0176 -0.6127
  285MOL0     H37578   1.351   3.759   1.637  0.8870  0.2111 -0.4120
  285MOL0     H37579   1.187   3.755   1.680 -0.2455 -0.9780  3.4417
  285MOL0     H37580   1.314   3.609   1.846  2.3385 -0.0034 -1.3764
  285MOL0     H37581   1.366   3.510   1.727  0.7633  1.0967 -1.4530
  285MOL0     H37582   0.948   3.381   1.775 -1.4810 -0.5623 -0.4629
  285MOL0     H37583   0.741   3.439   1.899 -0.1211  0.2394 -2.0141
  285MOL0     H37584   0.456   3.811   2.147  1.6442  0.1517  3.2353
  285MOL0     H37585   0.243   3.804   2.273  0.4969  0.2947  2.5479
  285MOL0     H37586   0.034   3.427   2.257  1.4725  0.3480  2.3336
  285MOL0     H37587  -0.000   3.581   2.171  2.1707  2.5273  0.1000
  285MOL0     H37588  -0.140   3.639   2.366 -1.0670  0.0482 -0.5888
  285MOL0     H37589  -0.109   3.492   2.451  0.8874  0.8575  0.9982
  285MOL0     H37590  -0.244   3.386   2.230  1.4359  0.7605 -1.6780
  285MOL0     H37591  -0.267   3.542   2.185 -3.0870 -2.6695 -0.5175
  285MOL0     H37592  -0.466   3.464   2.304  1.3267  0.7109 -1.9590
  285MOL0     H37593  -0.368   3.430   2.438 -2.0179 -2.0404 -1.8321
  285MOL0     H37594  -0.324   3.666   2.479  2.4306 -0.0808 -2.1333
  285MOL0     H37595  -0.509   3.626   2.463 -1.1479 -1.8604 -2.6007
  285MOL0     H37596  -0.519   3.740   2.256  1.4124  0.3020  0.1510
  285MOL0     H37597  -0.348   3.768   2.247  0.0625 -0.2454  0.6406
  285MOL0     H37598  -0.553   3.891   2.440  0.5975 -0.3426  0.4621
  285MOL0     H37599  -0.377   3.920   2.460  1.2465 -0.1510 -1.1341
  285MOL0     H37600  -0.546   3.986   2.206 -0.5724  3.0457 -0.4316
  285MOL0     H37601  -0.370   3.998   2.229 -0.6641 -1.3606 -0.9397
  285MOL0     H37602   0.248   3.374   2.237  3.7715 -1.8285  2.7782
  285MOL0     H37603   0.462   3.376   2.125 -2.3637 -1.4532 -2.0801
  285MOL0     H37604   0.917   3.812   2.016 -1.0441 -0.2732  1.0149
  285MOL0     H37605   1.123   3.746   1.914 -1.2319  1.0669  1.3728
  285MOL0     H37606   2.234   4.341   1.887  1.0239 -1.0730 -0.6265
  285MOL0     H37607   2.425   4.399   1.755 -2.0607 -2.3097  2.2524
  285MOL0     H37608   2.665   4.449   1.421  0.0974 -0.0035  0.1510
  285MOL0     H37609   2.863   4.473   1.292 -0.0827  0.2804 -2.0171
  285MOL0     H37610   3.000   4.518   1.132 -0.9960 -0.1977 -0.0909
  285MOL0     H37611   3.082   4.640   1.233 -1.9573  0.0223  1.2675
  285MOL0     H37612   3.063   4.622   0.931  1.7142 -2.7001  0.2914
  285MOL0     H37613   3.125   4.771   1.006 -1.6383  1.0546 -1.3598
  285MOL0     H37614   3.260   4.506   1.058 -2.7849 -0.1431  1.4757
  285MOL0     H37615   3.285   4.664   1.135 -2.4944  0.0804  1.3614
  285MOL0     H37616   3.324   4.601   0.839 -1.5492  0.6757 -0.6623
  285MOL0     H37617   3.364   4.767   0.903  1.5133 -0.3734 -0.2569
  285MOL0     H37618   3.708   4.607   1.023  0.5433  2.3193 -0.7937
  285MOL0     H37619   2.726   4.858   1.153  2.6359 -0.0489  1.0697
  285MOL0     H37620   2.507   4.814   1.256  0.7262  0.8559  1.9806
  286MOL0     O37621   8.060   5.604  10.775  0.8644 -0.0421  0.5675
  286MOL0     C37622   8.046   5.714  10.714 -0.1999 -0.0262 -0.5489
  286MOL0     O37623   7.939   5.803  10.714 -0.4935 -0.2748 -0.2998
  286MOL0     C37624   7.822   5.763  10.769 -0.1483 -0.3953  0.6363
  286MOL0     C37625   7.734   5.863  10.809  0.0049  0.2405  0.9569
  286MOL0     C37626   7.596   5.834  10.846  0.0079 -0.4686 -0.0373
  286MOL0     C37627   7.544   5.703  10.835 -0.9627  1.1058 -0.2830
  286MOL0     O37628   7.418   5.663  10.861  0.4092 -0.4844  0.6494
  286MOL0     C37629   7.318   5.751  10.902  0.2338  0.3676  0.3778
  286MOL0     C37630   7.188   5.674  10.864 -0.5101  0.1842 -0.0766
  286MOL0     C37631   7.061   5.751  10.895  0.2610 -0.2319  0.2854
  286MOL0     C37632   7.049   5.874  10.810  0.7504 -0.0489  0.3215
  286MOL0     C37633   6.914   5.933  10.829  0.5757 -0.4442  0.1940
  286MOL0     C37634   6.895   5.968  10.976 -0.6586  0.6208 -0.4857
  286MOL0     C37635   6.784   6.073  10.995 -0.0975 -0.2456  0.3182
  286MOL0     C37636   6.754   6.117  11.133 -0.0576  1.0283 -0.2177
  286MOL0     N37637   6.697   6.020  11.230 -0.3522  1.0195  1.7643
  286MOL0     C37638   6.773   5.951  11.323 -0.0340  0.9217 -0.0376
  286MOL0     C37639   6.678   5.880  11.383  0.4450 -0.3786 -0.8283
  286MOL0     C37640   6.706   5.775  11.490  0.1676  0.1148 -1.0126
  286MOL0     C37641   6.766   5.643  11.420 -0.2280 -0.4831 -0.3051
  286MOL0     C37642   6.816   5.549  11.529  0.8059 -0.3318 -0.4555
  286MOL0     C37643   6.856   5.412  11.474  0.5329  0.1380  0.7348
  286MOL0     O37644   6.801   5.304  11.548 -0.5339  0.9230 -0.5595
  286MOL0     C37645   6.665   5.277  11.554  0.6143 -0.2704  0.2946
  286MOL0     C37646   6.624   5.191  11.657 -0.1882  0.2096  0.6711
  286MOL0     C37647   6.486   5.163  11.680  0.0603  0.8727  1.0632
  286MOL0     C37648   6.390   5.216  11.596 -0.6274 -0.2683  0.7508
  286MOL0     C37649   6.236   5.187  11.608  0.1970 -0.5358  0.5410
  286MOL0     O37650   6.143   5.248  11.525  0.1397  0.5001  1.2329
  286MOL0     C37651   6.009   5.227  11.517 -0.7709  0.9621  0.1694
  286MOL0     C37652   5.937   5.326  11.451 -0.1047 -0.1451 -0.3677
  286MOL0     C37653   5.802   5.305  11.413 -0.5358 -1.0858 -0.3971
  286MOL0     C37654   5.734   5.185  11.448 -0.1215 -0.7630  0.1066
  286MOL0     O37655   5.611   5.150  11.404 -0.2746  0.0526  0.2072
  286MOL0     C37656   5.519   5.256  11.363  0.3326  0.3771 -1.1853
  286MOL0     C37657   5.385   5.186  11.319 -0.5044 -0.4537  0.3861
  286MOL0     C37658   5.296   5.301  11.260  0.5668  0.0409 -0.1378
  286MOL0     C37659   5.165   5.240  11.214 -0.0349  0.4035 -0.1668
  286MOL0     C37660   5.073   5.352  11.165  0.4787  0.0364 -0.2250
  286MOL0     C37661   5.026   5.460  11.266  0.0247 -0.1488  0.6395
  286MOL0     C37662   4.920   5.389  11.350  0.2659 -0.5470  0.8058
  286MOL0     C37663   4.857   5.490  11.448  0.4652  0.4739 -0.5820
  286MOL0    Cl37664   4.764   5.616  11.365  0.1975 -0.4027  0.0185
  286MOL0     C37665   5.807   5.084  11.508 -0.5974 -0.0262 -0.3880
  286MOL0     C37666   5.944   5.099  11.539 -0.4354  0.0889  0.8155
  286MOL0     O37667   6.213   5.094  11.691  0.3712  0.3050 -0.4117
  286MOL0     C37668   6.433   5.295  11.487  0.0323  0.5922 -0.3435
  286MOL0     C37669   6.564   5.327  11.465 -0.5185 -0.5282 -0.3107
  286MOL0     N37670   6.555   5.918  11.336 -0.5816 -0.3941  0.3674
  286MOL0     N37671   6.565   5.994  11.232  0.3675 -1.0567 -0.5030
  286MOL0     C37672   7.637   5.602  10.782  0.8251 -0.4051  0.4129
  286MOL0     C37673   7.764   5.638  10.748 -0.5162  1.2015  0.0995
  286MOL0     C37674   8.164   5.769  10.657 -0.4520 -0.0343 -0.9226
  286MOL0     C37675   8.296   5.740  10.704  1.3300  0.7672  0.2836
  286MOL0     C37676   8.405   5.789  10.635  1.1309  1.1887 -0.2784
  286MOL0     C37677   8.398   5.862  10.515 -0.2006 -0.7606  0.0012
  286MOL0     O37678   8.503   5.916  10.454  0.1212 -0.6016  0.0596
  286MOL0     C37679   8.634   5.901  10.521 -0.2053  0.6175 -0.5708
  286MOL0     C37680   8.740   5.991  10.445 -0.3640  0.0527  0.2359
  286MOL0     C37681   8.777   5.939  10.301 -0.0639 -0.6003  0.3467
  286MOL0     C37682   8.895   6.011  10.239  0.6863 -0.4559 -0.0219
  286MOL0     C37683   8.839   6.146  10.209 -0.4801 -0.0731  0.2919
  286MOL0     C37684   8.808   6.263  10.206 -1.1338 -0.3369 -0.3952
  286MOL0     C37685   8.269   5.898  10.473 -0.7880  0.2738 -0.6394
  286MOL0     C37686   8.152   5.845  10.543 -0.3257  0.0519  0.6505
  286MOL0     H37687   7.778   5.960  10.828 -1.9114  1.0435  1.5774
  286MOL0     H37688   7.536   5.918  10.880 -0.9057 -0.8358 -0.7185
  286MOL0     H37689   7.314   5.835  10.832  1.0267 -1.7794 -2.4317
  286MOL0     H37690   7.328   5.794  11.002  1.3441  1.1789 -0.0765
  286MOL0     H37691   7.175   5.587  10.930 -0.3076 -0.3553 -0.7321
  286MOL0     H37692   7.196   5.639  10.760  1.7740 -1.5653  0.5928
  286MOL0     H37693   7.060   5.763  11.003  0.9861  1.3019  0.1504
  286MOL0     H37694   6.978   5.687  10.864  2.8527 -2.7093 -2.1281
  286MOL0     H37695   7.123   5.950  10.837  2.4056 -0.7601 -1.8865
  286MOL0     H37696   7.073   5.846  10.707  0.7898 -2.6719  0.9706
  286MOL0     H37697   6.828   5.879  10.788  2.1238 -2.2677 -0.8503
  286MOL0     H37698   6.914   6.026  10.772 -1.5402 -0.8558 -0.5820
  286MOL0     H37699   6.984   6.003  11.028  0.3744 -3.4047  0.8579
  286MOL0     H37700   6.857   5.879  11.027 -1.2424  1.4492  0.5668
  286MOL0     H37701   6.802   6.161  10.934  0.3761 -0.0079  0.7898
  286MOL0     H37702   6.687   6.041  10.957 -1.1448  0.1500  2.4760
  286MOL0     H37703   6.677   6.194  11.120  0.1756  1.2132 -0.5260
  286MOL0     H37704   6.840   6.159  11.185 -0.7281 -1.0907  2.8967
  286MOL0     H37705   6.880   5.958  11.339  0.4105 -1.0261 -1.6909
  286MOL0     H37706   6.615   5.753  11.546  0.0376  0.7949 -0.9590
  286MOL0     H37707   6.781   5.817  11.558 -0.7991 -1.3515  1.0923
  286MOL0     H37708   6.843   5.669  11.348 -0.3980  1.2926  0.1063
  286MOL0     H37709   6.684   5.600  11.361  0.0696 -1.0326 -0.3232
  286MOL0     H37710   6.901   5.596  11.579 -0.7407  1.2042  0.7986
  286MOL0     H37711   6.739   5.547  11.606 -0.0917  3.3454 -1.0821
  286MOL0     H37712   6.965   5.402  11.478  0.7089 -0.5737 -2.9889
  286MOL0     H37713   6.832   5.400  11.368  0.0745 -2.3459  1.0652
  286MOL0     H37714   6.704   5.142  11.711 -1.1112 -1.3658  0.6700
  286MOL0     H37715   6.469   5.084  11.752  0.5611 -0.1853  0.0505
  286MOL0     H37716   5.973   5.423  11.417  3.4680 -2.0499 -2.6275
  286MOL0     H37717   5.747   5.374  11.351 -0.3228 -1.8670 -1.4934
  286MOL0     H37718   5.559   5.314  11.280  2.8726  3.1415  1.6873
  286MOL0     H37719   5.503   5.327  11.445  0.8880  0.2077 -0.9245
  286MOL0     H37720   5.342   5.140  11.409  0.4653 -0.7070  0.7344
  286MOL0     H37721   5.394   5.111  11.240  2.2932 -2.0412  2.0857
  286MOL0     H37722   5.343   5.334  11.167 -1.9553 -0.7759 -1.8227
  286MOL0     H37723   5.287   5.378  11.336  3.0888 -0.5445  0.8644
  286MOL0     H37724   5.184   5.179  11.125  0.8206  0.3727  0.0267
  286MOL0     H37725   5.127   5.189  11.303  1.1468 -1.3535 -0.5970
  286MOL0     H37726   4.989   5.302  11.117  1.5431 -1.2800 -0.7743
  286MOL0     H37727   5.137   5.408  11.096  0.7346  1.5853  1.1975
  286MOL0     H37728   4.984   5.545  11.211 -2.4866 -1.1534  0.8365
  286MOL0     H37729   5.113   5.495  11.321 -0.0915 -0.3041  0.9267
  286MOL0     H37730   4.836   5.360  11.285  0.6722 -0.0735  0.0615
  286MOL0     H37731   4.964   5.303  11.400 -0.0930 -0.8908  0.5414
  286MOL0     H37732   4.935   5.539  11.508  0.3976  1.4980 -1.3090
  286MOL0     H37733   4.800   5.421  11.512  1.2035 -1.1748 -1.6265
  286MOL0     H37734   5.752   4.997  11.545 -1.6785  2.2534  4.1779
  286MOL0     H37735   5.997   5.016  11.583  0.4751 -0.3135 -0.9549
  286MOL0     H37736   6.353   5.326  11.420 -1.4387  0.8275  1.4372
  286MOL0     H37737   6.588   5.393  11.383  1.3556 -1.6058 -0.6792
  286MOL0     H37738   7.603   5.506  10.745 -0.7395  0.0631  0.5566
  286MOL0     H37739   7.824   5.561  10.699 -0.9244  1.1150 -0.2730
  286MOL0     H37740   8.304   5.679  10.794  1.7459  2.0605  1.1567
  286MOL0     H37741   8.502   5.770  10.680  0.1816  3.1865  2.9766
  286MOL0     H37742   8.661   5.796  10.531 -2.0028  0.2890  1.5418
  286MOL0     H37743   8.625   5.925  10.627 -1.2520 -1.4091 -0.1533
  286MOL0     H37744   8.689   6.087  10.430 -0.7088 -0.3753 -1.5310
  286MOL0     H37745   8.831   6.017  10.501 -1.6192  0.6091  2.0763
  286MOL0     H37746   8.681   5.937  10.250  0.4895 -0.7524 -0.7229
  286MOL0     H37747   8.806   5.833  10.304 -0.2034 -0.6286  0.7733
  286MOL0     H37748   8.983   6.006  10.304  1.0921  3.5773 -0.0017
  286MOL0     H37749   8.917   5.959  10.145  0.2680 -0.8716  0.1097
  286MOL0     H37750   8.769   6.361  10.189  2.6935  0.8682 -3.6791
  286MOL0     H37751   8.252   5.954  10.382 -2.1475  0.7179 -0.1312
  286MOL0     H37752   8.057   5.868  10.495 -0.1459 -0.5453  0.0037
  287MOL0     O37753   0.360  10.445   0.486  0.2579  0.5472 -0.3026
  287MOL0     C37754   0.397  10.339   0.443  0.6572  0.0605  0.3638
  287MOL0     O37755   0.323  10.225   0.434 -0.6746 -0.2703 -0.7265
  287MOL0     C37756   0.196  10.229   0.482 -0.0740  0.0191 -0.4142
  287MOL0     C37757   0.092  10.302   0.418  0.2574 -0.1567 -0.0033
  287MOL0     C37758  -0.044  10.301   0.458 -0.7127  0.1892 -0.8120
  287MOL0     C37759  -0.076  10.212   0.561  0.0231  0.4484 -0.6893
  287MOL0     O37760  -0.202  10.220   0.613  0.8277  0.1697  0.8273
  287MOL0     C37761  -0.277  10.100   0.610  0.7426 -0.1173  0.3400
  287MOL0     C37762  -0.408  10.106   0.700 -0.8656  1.1442 -0.1343
  287MOL0     C37763  -0.510  10.207   0.653  0.9830  1.3366  0.1181
  287MOL0     C37764  -0.642  10.202   0.742 -0.3573  0.1437 -0.2921
  287MOL0     C37765  -0.762  10.285   0.672  1.0150 -0.3568 -0.5881
  287MOL0     C37766  -0.881  10.312   0.762  0.3218  0.2243  0.5111
  287MOL0     C37767  -0.988  10.198   0.777 -0.0764 -0.3201  0.2445
  287MOL0     C37768  -1.103  10.230   0.868  0.1415 -0.1259 -0.0768
  287MOL0     N37769  -1.189  10.340   0.824  0.0050 -0.1982 -0.5723
  287MOL0     C37770  -1.301  10.324   0.760  0.3750  0.5794  0.3090
  287MOL0     C37771  -1.361  10.447   0.759  0.0984  0.4476 -0.3440
  287MOL0     C37772  -1.481  10.474   0.674 -0.0165  0.1186 -0.4394
  287MOL0     C37773  -1.522  10.621   0.665  0.0036  0.6383 -0.1443
  287MOL0     C37774  -1.649  10.642   0.577 -0.6756 -0.5185  0.0455
  287MOL0     C37775  -1.671  10.793   0.563  0.4579  0.3185  0.6001
  287MOL0     O37776  -1.782  10.822   0.474 -0.0021  0.4141  0.0440
  287MOL0     C37777  -1.915  10.804   0.513  0.5956  0.3283  0.5553
  287MOL0     C37778  -2.010  10.815   0.409  0.4659 -0.1132  0.0383
  287MOL0     C37779  -2.148  10.810   0.437  0.5862  0.3388  0.0486
  287MOL0     C37780  -2.193  10.790   0.570 -0.8500 -0.2255 -0.4123
  287MOL0     C37781  -2.334  10.797   0.610  0.0274 -0.6256  0.1906
  287MOL0     O37782  -2.432  10.816   0.508 -0.5732  0.3448 -0.1225
  287MOL0     C37783  -2.569  10.811   0.525  0.4998 -0.1468 -0.1702
  287MOL0     C37784  -2.624  10.814   0.399  0.0463  0.5629 -0.7861
  287MOL0     C37785  -2.767  10.817   0.390 -0.0335  0.2414  0.3141
  287MOL0     C37786  -2.844  10.822   0.499  0.9418  0.2043  0.5356
  287MOL0     O37787  -2.981  10.827   0.480  0.0165 -0.0993 -0.2235
  287MOL0     C37788  -3.061  10.774   0.588 -0.4709  0.3182 -0.8528
  287MOL0     C37789  -3.211  10.772   0.551 -0.5825  0.3497  0.3666
  287MOL0     C37790  -3.305  10.706   0.658 -0.7953  0.1038  0.0539
  287MOL0     C37791  -3.447  10.747   0.637  0.5652 -0.4324  0.9071
  287MOL0     C37792  -3.542  10.728   0.752  0.7217  0.0624  0.7910
  287MOL0     C37793  -3.678  10.756   0.689  1.0037 -0.8955 -0.0433
  287MOL0     C37794  -3.788  10.755   0.793 -0.0028  0.1227  0.0246
  287MOL0     C37795  -3.924  10.729   0.723 -0.6216 -0.3101 -0.3750
  287MOL0    Cl37796  -4.063  10.714   0.823 -0.2912 -0.1024  0.0812
  287MOL0     C37797  -2.785  10.824   0.631  0.1514 -0.4002  0.2365
  287MOL0     C37798  -2.646  10.801   0.642 -0.4627 -0.0750  0.5994
  287MOL0     O37799  -2.363  10.779   0.730 -0.9610  0.3940  0.4613
  287MOL0     C37800  -2.098  10.781   0.669 -0.8738  0.5667  0.1177
  287MOL0     C37801  -1.956  10.790   0.644  0.6127 -0.0813  0.3212
  287MOL0     N37802  -1.283  10.535   0.830  0.1463 -0.2905  0.0093
  287MOL0     N37803  -1.185  10.469   0.870 -0.1720 -0.2700 -0.2177
  287MOL0     C37804   0.022  10.139   0.617  0.3577  0.8001  0.0259
  287MOL0     C37805   0.159  10.147   0.582  1.3367  0.0887  0.3429
  287MOL0     C37806   0.545  10.333   0.415 -0.0138 -0.5125  0.4313
  287MOL0     C37807   0.610  10.223   0.344 -0.4176  0.2079  1.1122
  287MOL0     C37808   0.750  10.222   0.329 -0.5124  0.5530  0.3819
  287MOL0     C37809   0.838  10.315   0.388 -0.0010  0.1032  0.5278
  287MOL0     O37810   0.971  10.293   0.378 -0.1308  0.2785  0.3654
  287MOL0     C37811   1.055  10.404   0.362 -0.1265 -0.2146 -0.7248
  287MOL0     C37812   1.198  10.371   0.375  0.4668 -0.4015  0.2190
  287MOL0     C37813   1.218  10.320   0.521  0.2269 -0.1172 -0.3359
  287MOL0     C37814   1.258  10.426   0.631 -0.5966 -0.4197 -0.0230
  287MOL0     C37815   1.288  10.354   0.755 -0.3410  1.4433  0.8177
  287MOL0     C37816   1.324  10.292   0.856  0.0684  0.3401  0.5205
  287MOL0     C37817   0.779  10.422   0.453  0.1365  0.2242  0.8476
  287MOL0     C37818   0.638  10.429   0.465 -0.2506  0.4506 -0.4386
  287MOL0     H37819   0.143  10.361   0.343  1.5294 -2.7881 -1.3655
  287MOL0     H37820  -0.121  10.364   0.415 -0.0866  1.0016 -0.7770
  287MOL0     H37821  -0.212  10.026   0.656  1.1549  0.1516  0.1905
  287MOL0     H37822  -0.309  10.069   0.510  0.7347 -1.2955  0.6907
  287MOL0     H37823  -0.378  10.129   0.803  4.3439  0.5256 -1.2040
  287MOL0     H37824  -0.452  10.006   0.710 -1.6128  1.6500  2.4862
  287MOL0     H37825  -0.548  10.189   0.552 -1.3658 -1.0646  1.3252
  287MOL0     H37826  -0.460  10.305   0.656  2.5336  0.5631  1.5837
  287MOL0     H37827  -0.685  10.102   0.736  2.0052 -1.1046  1.9581
  287MOL0     H37828  -0.612  10.233   0.842  1.5108 -2.1197 -0.0605
  287MOL0     H37829  -0.780  10.236   0.576  1.0600  2.3567 -2.0649
  287MOL0     H37830  -0.713  10.380   0.650 -0.8724  0.3928 -1.8466
  287MOL0     H37831  -0.939  10.396   0.721 -3.2149  0.4724  5.1767
  287MOL0     H37832  -0.842  10.343   0.859  2.4894 -0.8726  0.0416
  287MOL0     H37833  -1.026  10.166   0.680  1.9765 -3.1561  0.2473
  287MOL0     H37834  -0.933  10.112   0.817 -3.8127 -1.6501  3.1454
  287MOL0     H37835  -1.055  10.253   0.963  0.0385 -0.1031 -0.0299
  287MOL0     H37836  -1.147  10.129   0.872 -1.3323  0.4172 -1.5740
  287MOL0     H37837  -1.327  10.232   0.709  3.5217 -0.3086  0.1322
  287MOL0     H37838  -1.562  10.410   0.710 -1.2010  0.8845 -1.6628
  287MOL0     H37839  -1.461  10.442   0.572 -0.0450  0.1058 -0.4413
  287MOL0     H37840  -1.443  10.681   0.619 -0.9502 -0.0034 -2.8293
  287MOL0     H37841  -1.548  10.659   0.764  0.7996 -0.3437  0.4731
  287MOL0     H37842  -1.640  10.604   0.475  0.3249  2.3487 -1.0453
  287MOL0     H37843  -1.732  10.590   0.626  1.2766 -2.0974  1.8953
  287MOL0     H37844  -1.574  10.835   0.533  2.0870 -1.6878  2.6974
  287MOL0     H37845  -1.676  10.845   0.659  3.1898  1.7418  0.1063
  287MOL0     H37846  -1.972  10.829   0.309  0.1716  2.0064  0.1810
  287MOL0     H37847  -2.217  10.828   0.354 -1.2158  0.5447  1.5217
  287MOL0     H37848  -2.556  10.817   0.314  1.4380  0.1064  0.2732
  287MOL0     H37849  -2.812  10.802   0.293  1.5136 -0.7630 -0.2822
  287MOL0     H37850  -3.062  10.847   0.670 -0.9880  1.8756 -2.2091
  287MOL0     H37851  -3.027  10.676   0.623  0.4280 -0.6469 -4.1310
  287MOL0     H37852  -3.224  10.713   0.460 -1.4967  0.4383  0.4324
  287MOL0     H37853  -3.245  10.875   0.540 -0.2472  0.4553  0.3009
  287MOL0     H37854  -3.272  10.746   0.755  3.3199  0.1815 -1.2027
  287MOL0     H37855  -3.284  10.599   0.671  2.4529  0.5871 -0.3987
  287MOL0     H37856  -3.453  10.854   0.612 -0.5076 -0.5763  0.4772
  287MOL0     H37857  -3.475  10.688   0.550 -3.0763  2.0853  0.1063
  287MOL0     H37858  -3.517  10.804   0.826 -1.2905 -0.0811  1.6861
  287MOL0     H37859  -3.534  10.628   0.797  0.0818 -1.1972 -1.7071
  287MOL0     H37860  -3.700  10.676   0.618  0.1029 -0.1129 -0.6590
  287MOL0     H37861  -3.679  10.851   0.634 -1.0618 -1.6074 -1.3324
  287MOL0     H37862  -3.771  10.666   0.855  1.7191 -1.7682 -2.9249
  287MOL0     H37863  -3.788  10.848   0.851 -3.7073  0.7743 -0.7412
  287MOL0     H37864  -3.913  10.638   0.663  2.1042  0.6357 -1.4363
  287MOL0     H37865  -3.952  10.815   0.662  0.1675 -0.5089 -1.0258
  287MOL0     H37866  -2.850  10.855   0.712 -1.0355  1.8511 -1.4615
  287MOL0     H37867  -2.608  10.805   0.744 -0.8052  0.5212  0.7026
  287MOL0     H37868  -2.129  10.781   0.773  0.0174 -0.8656  0.4114
  287MOL0     H37869  -1.904  10.788   0.740 -0.3780 -0.3686  0.8715
  287MOL0     H37870  -0.005  10.076   0.701  0.4998  0.5526 -0.1153
  287MOL0     H37871   0.220  10.074   0.633 -0.7062  0.2600  3.2762
  287MOL0     H37872   0.544  10.141   0.315  1.2701 -1.4064  1.6327
  287MOL0     H37873   0.786  10.131   0.283  1.9966  1.6659 -0.0188
  287MOL0     H37874   1.027  10.488   0.426 -1.3567 -0.4650 -0.9176
  287MOL0     H37875   1.046  10.443   0.260 -1.2564  1.0489 -0.1804
  287MOL0     H37876   1.219  10.285   0.311  0.6644  0.5394 -1.0264
  287MOL0     H37877   1.264  10.455   0.349 -0.3104 -0.7262 -3.4313
  287MOL0     H37878   1.298  10.246   0.522  0.2218 -0.1204 -0.0381
  287MOL0     H37879   1.127  10.272   0.559 -0.4610  1.0891 -0.4022
  287MOL0     H37880   1.349  10.476   0.598 -1.3949  1.8772  1.0422
  287MOL0     H37881   1.174  10.495   0.645 -0.9091 -1.0612  1.5154
  287MOL0     H37882   1.368  10.231   0.932  2.9895  4.1171  2.1791
  287MOL0     H37883   0.835  10.503   0.498  0.8613 -0.6665  1.6075
  287MOL0     H37884   0.608  10.519   0.518  1.0321  1.1165 -0.8005
  288MOL0     O37885   6.848   1.056   3.594  0.4512  0.2987 -0.1143
  288MOL0     C37886   6.896   1.129   3.678  0.4938 -0.0365 -0.6638
  288MOL0     O37887   7.020   1.126   3.736  0.1661 -0.2708 -0.3981
  288MOL0     C37888   7.099   1.021   3.700 -0.3893 -0.0405  0.1257
  288MOL0     C37889   7.153   1.021   3.572  1.3807  0.5068 -0.2249
  288MOL0     C37890   7.252   0.933   3.539  0.4871 -0.5607  0.4897
  288MOL0     C37891   7.274   0.827   3.627 -0.3427  0.2244 -0.0242
  288MOL0     O37892   7.362   0.732   3.589 -0.1855 -0.5937 -0.7863
  288MOL0     C37893   7.279   0.635   3.524 -0.5668 -0.2152 -1.0739
  288MOL0     C37894   7.382   0.527   3.486  0.1505 -0.7569 -0.3018
  288MOL0     C37895   7.449   0.567   3.351  0.2247 -0.2728 -0.1851
  288MOL0     C37896   7.572   0.475   3.322 -0.9160 -0.7916  0.2374
  288MOL0     C37897   7.642   0.506   3.188  0.2098 -1.0498 -0.6743
  288MOL0     C37898   7.763   0.403   3.177  0.1893  0.0552  0.4541
  288MOL0     C37899   7.857   0.438   3.061 -0.1527  1.5558  1.1721
  288MOL0     C37900   7.794   0.451   2.923  0.7142 -0.2899  0.7091
  288MOL0     N37901   7.757   0.317   2.868 -0.0064 -0.6688  0.7479
  288MOL0     C37902   7.629   0.264   2.882 -1.1680 -0.2484  0.6390
  288MOL0     C37903   7.637   0.148   2.805 -0.0649  0.5578  0.3288
  288MOL0     C37904   7.519   0.057   2.789  0.3164  0.1575 -0.7716
  288MOL0     C37905   7.554  -0.090   2.769 -0.0917 -0.0570 -0.1189
  288MOL0     C37906   7.625  -0.130   2.641 -0.0676  0.0840  0.8298
  288MOL0     C37907   7.548  -0.106   2.505 -0.4257  0.4698 -0.4587
  288MOL0     O37908   7.445  -0.208   2.473 -0.0556  0.1584  0.4665
  288MOL0     C37909   7.330  -0.157   2.422  0.0490  0.0462 -0.2281
  288MOL0     C37910   7.223  -0.151   2.508  0.5122 -0.6627  0.5010
  288MOL0     C37911   7.092  -0.133   2.457 -0.0537 -0.3839  0.0970
  288MOL0     C37912   7.063  -0.119   2.318 -0.2737  1.0700 -0.7164
  288MOL0     C37913   6.927  -0.119   2.267 -0.6093  0.0837 -0.0560
  288MOL0     O37914   6.909  -0.142   2.135  0.2876  0.1475 -0.5822
  288MOL0     C37915   6.782  -0.149   2.089  0.0549 -0.0521  0.7651
  288MOL0     C37916   6.737  -0.062   1.988  0.3237  0.0462 -0.2907
  288MOL0     C37917   6.612  -0.084   1.936 -0.2160 -0.0454 -0.1271
  288MOL0     C37918   6.522  -0.185   1.966  0.0808 -0.7357  0.1726
  288MOL0     O37919   6.401  -0.195   1.907 -0.0562 -0.2102  0.2741
  288MOL0     C37920   6.287  -0.178   1.991 -0.3189 -0.8990 -0.6613
  288MOL0     C37921   6.172  -0.115   1.903 -0.3384  0.4098 -0.7777
  288MOL0     C37922   6.202   0.026   1.859 -0.2949  0.0380 -0.1344
  288MOL0     C37923   6.086   0.096   1.792 -0.2613 -0.1726 -0.5878
  288MOL0     C37924   6.121   0.240   1.743  0.3954  0.3241  0.6452
  288MOL0     C37925   5.998   0.314   1.686 -0.0287 -0.9589  0.6670
  288MOL0     C37926   6.048   0.422   1.595 -0.2982  0.4821 -0.1784
  288MOL0     C37927   6.097   0.540   1.672 -0.1917  0.1314  0.8654
  288MOL0    Cl37928   6.189   0.653   1.559 -0.0574  0.1537 -0.4425
  288MOL0     C37929   6.574  -0.280   2.063 -0.1426  0.0813  0.2135
  288MOL0     C37930   6.706  -0.262   2.112  1.3909  0.7900 -0.4879
  288MOL0     O37931   6.836  -0.106   2.344  0.3103  0.3327  0.1621
  288MOL0     C37932   7.177  -0.126   2.233 -0.5074 -0.3912 -0.7903
  288MOL0     C37933   7.305  -0.150   2.284  0.0832  0.5577 -0.2435
  288MOL0     N37934   7.767   0.141   2.738  0.0385 -0.3615  0.1714
  288MOL0     N37935   7.831   0.250   2.776  0.1754  0.1075  0.3963
  288MOL0     C37936   7.208   0.823   3.752  0.4014 -0.4526 -0.7405
  288MOL0     C37937   7.118   0.917   3.787 -0.1641 -0.9166 -0.2902
  288MOL0     C37938   6.805   1.236   3.731 -0.2921 -0.3671  0.1157
  288MOL0     C37939   6.686   1.276   3.667  0.8470 -0.2979  0.3566
  288MOL0     C37940   6.598   1.372   3.722  0.1982  0.2140 -0.3877
  288MOL0     C37941   6.640   1.439   3.841  0.1803 -0.1880  0.0308
  288MOL0     O37942   6.567   1.538   3.906  0.1524  0.4052  0.2498
  288MOL0     C37943   6.462   1.602   3.837 -0.1306 -0.4218 -0.7584
  288MOL0     C37944   6.376   1.687   3.934  0.0295  0.0145 -0.0518
  288MOL0     C37945   6.307   1.596   4.043 -0.7399 -0.8588  0.3581
  288MOL0     C37946   6.250   1.653   4.170  0.6702 -1.0369  0.1400
  288MOL0     C37947   6.169   1.775   4.138  0.2256 -0.2621  0.3108
  288MOL0     C37948   6.086   1.859   4.115  0.6141  0.0224  0.0118
  288MOL0     C37949   6.754   1.404   3.904 -0.5876  0.2098 -0.4854
  288MOL0     C37950   6.840   1.306   3.854 -0.0326 -0.3708 -1.1461
  288MOL0     H37951   7.136   1.090   3.490  2.5710  0.1928 -0.7715
  288MOL0     H37952   7.303   0.952   3.445  0.1928 -0.7305  0.2943
  288MOL0     H37953   7.234   0.677   3.433 -0.2419 -0.7904 -1.5092
  288MOL0     H37954   7.204   0.588   3.589  2.0718 -1.2857  1.3866
  288MOL0     H37955   7.332   0.431   3.475  0.2855 -0.8771  0.1069
  288MOL0     H37956   7.452   0.516   3.570 -0.8636 -1.6871  0.4405
  288MOL0     H37957   7.477   0.673   3.347 -1.3080  0.1078 -1.9912
  288MOL0     H37958   7.372   0.551   3.276 -0.9916 -3.2440  1.5185
  288MOL0     H37959   7.654   0.500   3.391 -0.6062  1.8169 -0.9550
  288MOL0     H37960   7.531   0.374   3.331 -3.2600  0.1996  1.5418
  288MOL0     H37961   7.684   0.607   3.184  0.3012 -0.9929  1.2197
  288MOL0     H37962   7.567   0.495   3.109 -2.2209 -1.1947  1.5343
  288MOL0     H37963   7.715   0.306   3.167 -1.2967  0.6487  1.4453
  288MOL0     H37964   7.823   0.397   3.268  1.6246 -3.6772 -0.5481
  288MOL0     H37965   7.914   0.528   3.083  0.2904  1.0184  2.3085
  288MOL0     H37966   7.928   0.357   3.075 -0.5351  1.1347  0.7124
  288MOL0     H37967   7.860   0.500   2.852 -0.5537 -1.8424 -1.6735
  288MOL0     H37968   7.700   0.508   2.921  0.3357 -0.9345 -0.0806
  288MOL0     H37969   7.555   0.310   2.947 -0.5504  2.2994 -0.3329
  288MOL0     H37970   7.460   0.093   2.704 -2.0242  0.2252  0.7996
  288MOL0     H37971   7.459   0.067   2.880  0.6567  1.1824 -0.6534
  288MOL0     H37972   7.457  -0.140   2.778 -1.2382  2.2219  1.1970
  288MOL0     H37973   7.607  -0.110   2.863  2.0016  3.6246 -0.3358
  288MOL0     H37974   7.720  -0.076   2.639 -1.0281  1.8911 -1.8027
  288MOL0     H37975   7.646  -0.237   2.637 -2.2725 -0.4000 -3.6306
  288MOL0     H37976   7.615  -0.107   2.418 -3.3256 -0.6565 -2.8433
  288MOL0     H37977   7.505  -0.006   2.494 -1.5701 -0.0612 -0.9861
  288MOL0     H37978   7.227  -0.158   2.617  1.0490  0.9558  0.6119
  288MOL0     H37979   7.012  -0.115   2.528 -1.6159 -1.2774 -1.3907
  288MOL0     H37980   6.798   0.025   1.967 -1.0949  0.9986 -0.5903
  288MOL0     H37981   6.577  -0.021   1.855 -0.8103 -0.8178 -0.4908
  288MOL0     H37982   6.308  -0.108   2.073 -0.1679  0.5806 -1.9211
  288MOL0     H37983   6.253  -0.273   2.033 -0.7070 -1.0664 -1.3349
  288MOL0     H37984   6.081  -0.115   1.964  1.7694 -1.4291  2.7280
  288MOL0     H37985   6.167  -0.168   1.808 -0.7016  1.1020 -1.1497
  288MOL0     H37986   6.288   0.019   1.793  0.0639 -1.0006  0.4193
  288MOL0     H37987   6.232   0.091   1.942 -0.2780 -0.4239  0.2280
  288MOL0     H37988   6.050   0.038   1.708  1.6951  0.9930 -2.3304
  288MOL0     H37989   6.009   0.115   1.868 -1.4890  0.5534 -1.9734
  288MOL0     H37990   6.189   0.228   1.658  1.5918 -0.6661  1.7151
  288MOL0     H37991   6.173   0.291   1.824 -0.6762  1.2879  0.7499
  288MOL0     H37992   5.947   0.362   1.770  1.1271 -2.0268  2.0269
  288MOL0     H37993   5.928   0.250   1.631 -1.7052  2.6163 -1.7083
  288MOL0     H37994   6.130   0.378   1.537  2.5848  2.2066  2.2762
  288MOL0     H37995   5.974   0.456   1.522 -0.4495  0.7188  0.0865
  288MOL0     H37996   6.162   0.504   1.752 -2.1461 -1.4691  1.8162
  288MOL0     H37997   6.007   0.584   1.717 -0.6506 -0.5837  0.6582
  288MOL0     H37998   6.522  -0.372   2.086 -0.9526  0.9933  2.2399
  288MOL0     H37999   6.731  -0.337   2.186  0.9621  0.5343 -0.5989
  288MOL0     H38000   7.156  -0.113   2.127 -2.3433  2.4898 -0.2016
  288MOL0     H38001   7.387  -0.168   2.214 -0.6887 -0.5567 -0.9148
  288MOL0     H38002   7.226   0.739   3.819  0.3109 -0.1993 -0.3918
  288MOL0     H38003   7.078   0.924   3.888 -2.8699  1.9335 -1.4017
  288MOL0     H38004   6.652   1.225   3.578  1.4205 -1.1861  0.6238
  288MOL0     H38005   6.509   1.397   3.665  1.0347  0.1970 -1.7537
  288MOL0     H38006   6.397   1.525   3.794 -2.7049  0.7026  0.8476
  288MOL0     H38007   6.494   1.668   3.756 -0.2416 -0.0949 -0.5403
  288MOL0     H38008   6.438   1.760   3.987 -1.2178  1.0122  0.0733
  288MOL0     H38009   6.304   1.739   3.870  1.0417  0.7446 -0.6257
  288MOL0     H38010   6.385   1.526   4.073  1.0637  1.1291  0.5003
  288MOL0     H38011   6.221   1.553   3.989 -1.5285  1.7596 -0.6467
  288MOL0     H38012   6.188   1.572   4.211 -0.1177 -0.3899  0.2322
  288MOL0     H38013   6.332   1.673   4.239  1.1657  0.6717 -0.9011
  288MOL0     H38014   6.011   1.935   4.107  1.6497  0.9269 -1.8540
  288MOL0     H38015   6.769   1.444   4.004 -0.2750  1.0874 -0.8764
  288MOL0     H38016   6.933   1.306   3.910 -1.1610  2.9127  1.0380
  289MOL0     O38017  10.411   6.249   7.236 -0.2566  0.0066  0.7600
  289MOL0     C38018  10.465   6.260   7.347  0.4331 -0.2945  0.4914
  289MOL0     O38019  10.399   6.274   7.472 -0.4055  0.0045  0.1609
  289MOL0     C38020  10.270   6.325   7.477  0.6323  0.1321  0.5393
  289MOL0     C38021  10.209   6.407   7.380  0.1044 -0.2605  0.7339
  289MOL0     C38022  10.082   6.456   7.392  0.6949  0.1069  0.9437
  289MOL0     C38023   9.996   6.414   7.501  0.0409 -0.1600 -0.5717
  289MOL0     O38024   9.868   6.464   7.512  0.2806 -0.1865 -0.0341
  289MOL0     C38025   9.781   6.424   7.620  0.1897 -0.1187 -0.3301
  289MOL0     C38026   9.653   6.505   7.604  0.7336 -0.2202 -0.5836
  289MOL0     C38027   9.543   6.461   7.702 -0.4335 -0.0037 -1.2300
  289MOL0     C38028   9.421   6.551   7.712  0.2058  0.0967  0.7169
  289MOL0     C38029   9.326   6.499   7.824 -0.1684  0.3918 -0.1375
  289MOL0     C38030   9.210   6.588   7.846  0.8669 -0.4161  0.5670
  289MOL0     C38031   9.112   6.521   7.948 -0.3558 -0.5765  0.0848
  289MOL0     C38032   8.994   6.617   7.950  1.0206 -0.3949  0.0637
  289MOL0     N38033   8.892   6.565   8.039 -0.1059 -0.9520 -0.5984
  289MOL0     C38034   8.864   6.601   8.169  0.4371 -0.2612 -0.1728
  289MOL0     C38035   8.744   6.546   8.198  0.7075 -0.0050 -0.5230
  289MOL0     C38036   8.678   6.590   8.320 -0.5377  0.5171 -0.1266
  289MOL0     C38037   8.523   6.543   8.322 -0.9269  0.0350 -0.0049
  289MOL0     C38038   8.465   6.583   8.455  0.9641  0.2031 -0.4879
  289MOL0     C38039   8.330   6.526   8.453 -0.4255  0.3115  0.4664
  289MOL0     O38040   8.276   6.542   8.579 -0.9060 -0.4804 -0.4531
  289MOL0     C38041   8.136   6.552   8.577 -0.6178  0.6438 -0.4852
  289MOL0     C38042   8.071   6.648   8.511 -0.4615 -0.4273  0.4980
  289MOL0     C38043   7.933   6.663   8.517  0.3477  0.2844 -0.4079
  289MOL0     C38044   7.854   6.579   8.595 -0.7109 -0.3694  0.3079
  289MOL0     C38045   7.711   6.589   8.580  0.2599  0.3807 -0.1866
  289MOL0     O38046   7.661   6.700   8.523  0.5007 -0.3142  0.1985
  289MOL0     C38047   7.526   6.693   8.507 -0.2983 -0.7622 -0.5138
  289MOL0     C38048   7.455   6.709   8.628  0.8044 -0.9802  0.3954
  289MOL0     C38049   7.315   6.702   8.627 -0.8658 -0.0105  0.0014
  289MOL0     C38050   7.256   6.677   8.501 -0.0884  0.3709  0.3463
  289MOL0     O38051   7.121   6.663   8.505  0.4063 -0.3665  0.2366
  289MOL0     C38052   7.031   6.709   8.396 -1.1246 -0.9305  0.0051
  289MOL0     C38053   6.894   6.709   8.460 -1.5640 -0.6594 -0.6887
  289MOL0     C38054   6.785   6.742   8.367 -0.2914  0.1512  0.6259
  289MOL0     C38055   6.657   6.756   8.438 -0.0665 -0.1743 -0.6928
  289MOL0     C38056   6.542   6.805   8.336 -0.2638 -0.6839  0.6103
  289MOL0     C38057   6.405   6.793   8.397 -0.0250 -0.1520  0.5654
  289MOL0     C38058   6.296   6.844   8.290 -0.0907  0.4635  0.1175
  289MOL0     C38059   6.153   6.801   8.333 -0.7181 -0.0268  0.7800
  289MOL0    Cl38060   6.099   6.930   8.446 -0.0615  0.1189  0.1004
  289MOL0     C38061   7.328   6.660   8.385  0.5474 -0.7448 -0.0208
  289MOL0     C38062   7.460   6.685   8.385 -0.2198  0.8101  0.7846
  289MOL0     O38063   7.646   6.490   8.621 -0.3629 -0.1629 -0.6676
  289MOL0     C38064   7.919   6.475   8.672  0.1804 -0.9434  0.6824
  289MOL0     C38065   8.059   6.458   8.654  0.0050  0.2894  0.1683
  289MOL0     N38066   8.696   6.467   8.096 -0.0049  0.8484  1.0423
  289MOL0     N38067   8.792   6.479   8.006  0.2102 -0.5237  0.2790
  289MOL0     C38068  10.057   6.336   7.607  0.2832 -1.0271  0.4702
  289MOL0     C38069  10.192   6.290   7.588 -0.1956 -0.0872 -0.1194
  289MOL0     C38070  10.615   6.244   7.350  1.0527 -0.0866  0.2984
  289MOL0     C38071  10.689   6.235   7.226  0.0406 -0.3826 -1.1567
  289MOL0     C38072  10.824   6.240   7.234 -0.1402  0.0911  0.4558
  289MOL0     C38073  10.895   6.222   7.349  0.2813 -0.5074  0.5440
  289MOL0     O38074  11.034   6.216   7.334  1.0930  0.1713 -0.0391
  289MOL0     C38075  11.103   6.215   7.459  0.2704  0.1267 -0.4716
  289MOL0     C38076  11.248   6.258   7.454  0.4786 -0.8952 -0.4615
  289MOL0     C38077  11.316   6.193   7.335  0.3686 -0.3625 -0.1363
  289MOL0     C38078  11.469   6.204   7.339 -0.3877  0.1787  0.1646
  289MOL0     C38079  11.540   6.133   7.232 -0.7395  0.1100 -0.0552
  289MOL0     C38080  11.625   6.083   7.158 -0.6337  0.5177  0.4607
  289MOL0     C38081  10.822   6.216   7.473  0.6843 -0.1339 -0.3513
  289MOL0     C38082  10.678   6.232   7.468 -0.3275  0.7273  1.0589
  289MOL0     H38083  10.262   6.432   7.288  1.5138 -1.1843  1.2590
  289MOL0     H38084  10.047   6.532   7.323  1.6790 -0.6689 -0.4540
  289MOL0     H38085   9.827   6.459   7.713 -1.1639  3.5498 -0.8948
  289MOL0     H38086   9.755   6.318   7.619  0.3801 -0.1621 -1.2674
  289MOL0     H38087   9.607   6.493   7.505  1.5150  2.1398 -1.3106
  289MOL0     H38088   9.675   6.611   7.624  0.1141  0.6795 -3.9700
  289MOL0     H38089   9.591   6.449   7.800  0.9896 -2.4449 -2.1385
  289MOL0     H38090   9.508   6.365   7.662 -0.3477 -0.4721 -0.2172
  289MOL0     H38091   9.461   6.651   7.729  0.4144  0.6081 -2.2490
  289MOL0     H38092   9.370   6.547   7.615 -0.5910 -4.6214  1.1254
  289MOL0     H38093   9.384   6.477   7.915 -1.3967 -3.8820 -0.2007
  289MOL0     H38094   9.289   6.400   7.798 -0.3774  0.8044 -1.4429
  289MOL0     H38095   9.159   6.597   7.750  0.0704  1.1110  1.0996
  289MOL0     H38096   9.243   6.684   7.887 -1.1664  0.7512 -0.3854
  289MOL0     H38097   9.080   6.418   7.930  0.0631 -0.8021  0.5989
  289MOL0     H38098   9.169   6.525   8.041  0.2252 -0.4636 -0.2737
  289MOL0     H38099   8.947   6.620   7.852 -0.3347 -0.3027  0.6952
  289MOL0     H38100   9.014   6.722   7.972 -0.2248 -0.5232  2.0522
  289MOL0     H38101   8.922   6.662   8.239  0.0099 -0.0167 -0.0264
  289MOL0     H38102   8.682   6.698   8.333 -2.5734  0.4739  1.2008
  289MOL0     H38103   8.730   6.549   8.407 -0.3644  1.1051  0.0512
  289MOL0     H38104   8.520   6.434   8.311  1.4185 -0.0240 -0.6589
  289MOL0     H38105   8.477   6.601   8.241  0.3801  0.5417 -0.4134
  289MOL0     H38106   8.534   6.541   8.529  1.9250  0.3565 -1.2785
  289MOL0     H38107   8.461   6.692   8.469 -2.6970  0.2536 -0.7600
  289MOL0     H38108   8.346   6.420   8.431 -3.1041  0.0148 -0.5163
  289MOL0     H38109   8.268   6.576   8.378  0.3562  0.7917  0.1303
  289MOL0     H38110   8.125   6.720   8.450 -0.7999 -0.4775  0.1382
  289MOL0     H38111   7.882   6.731   8.450 -0.6303  0.8117  0.8368
  289MOL0     H38112   7.507   6.709   8.723 -0.5106  2.5665  1.2536
  289MOL0     H38113   7.259   6.716   8.719  0.0712 -0.2544  0.6200
  289MOL0     H38114   7.034   6.640   8.311 -0.9851  1.6945 -2.2389
  289MOL0     H38115   7.058   6.807   8.358  1.8635 -1.5833  0.1893
  289MOL0     H38116   6.895   6.779   8.544  0.1802  0.7164 -1.7914
  289MOL0     H38117   6.860   6.614   8.504 -0.9133 -0.6262 -0.0916
  289MOL0     H38118   6.781   6.659   8.296 -1.4677 -0.1969  1.0626
  289MOL0     H38119   6.808   6.832   8.310  1.3386 -0.6441 -0.0205
  289MOL0     H38120   6.625   6.658   8.475 -1.3704  0.1956 -0.7868
  289MOL0     H38121   6.682   6.832   8.513 -1.6167  0.2577 -0.5862
  289MOL0     H38122   6.534   6.728   8.258 -1.3558 -1.6375  1.6227
  289MOL0     H38123   6.561   6.907   8.300 -0.4746 -0.4754  1.0944
  289MOL0     H38124   6.400   6.856   8.486 -0.1871  2.0356 -0.8869
  289MOL0     H38125   6.386   6.693   8.436  1.9787 -1.1295 -0.8246
  289MOL0     H38126   6.309   6.953   8.289 -0.5844  0.5237  0.2674
  289MOL0     H38127   6.323   6.807   8.191  2.9565 -1.6246  1.5483
  289MOL0     H38128   6.163   6.701   8.377  0.4039 -0.6065 -0.6825
  289MOL0     H38129   6.088   6.799   8.245  1.8665  0.2113 -1.2549
  289MOL0     H38130   7.285   6.627   8.291  0.1848 -1.9746  0.5524
  289MOL0     H38131   7.525   6.684   8.297  0.0606 -1.5306  0.9317
  289MOL0     H38132   7.848   6.423   8.736 -0.8055  1.8155  1.9748
  289MOL0     H38133   8.109   6.384   8.717 -0.1001 -1.9247 -2.1615
  289MOL0     H38134  10.018   6.308   7.704  1.5764 -0.0582  1.3078
  289MOL0     H38135  10.236   6.224   7.663 -0.6883  1.0395  1.2002
  289MOL0     H38136  10.634   6.236   7.133 -2.0397  0.9765  0.0252
  289MOL0     H38137  10.883   6.231   7.143 -0.2265 -3.3190  0.6031
  289MOL0     H38138  11.102   6.111   7.494 -0.6402  0.5747  0.8989
  289MOL0     H38139  11.051   6.281   7.528  1.1588  2.5238 -1.9844
  289MOL0     H38140  11.254   6.367   7.448 -0.5690 -0.7896  0.0307
  289MOL0     H38141  11.292   6.219   7.547 -1.5202  1.0292  1.4069
  289MOL0     H38142  11.274   6.240   7.246  0.7567 -0.0288 -0.1438
  289MOL0     H38143  11.287   6.087   7.343 -0.1741 -0.2008  0.1112
  289MOL0     H38144  11.495   6.309   7.323  1.3253 -0.0312  1.2921
  289MOL0     H38145  11.506   6.179   7.439 -0.3844  0.7502  0.3093
  289MOL0     H38146  11.685   6.015   7.102  0.3294  0.9341  0.9686
  289MOL0     H38147  10.862   6.199   7.572 -2.0266 -0.7038  0.7437
  289MOL0     H38148  10.622   6.233   7.561 -1.2229  2.4663  0.5469
  290MOL0     O38149  11.178  10.371   1.302  0.4111 -0.3722 -0.9488
  290MOL0     C38150  11.242  10.287   1.366  0.2141 -0.1235 -0.4399
  290MOL0     O38151  11.184  10.179   1.430 -0.4764 -0.3186  0.6957
  290MOL0     C38152  11.053  10.171   1.469 -0.5118  0.1854  0.0919
  290MOL0     C38153  11.007  10.042   1.500 -0.3075 -0.0261 -0.5451
  290MOL0     C38154  10.872  10.017   1.536  0.4426  0.8572  0.3477
  290MOL0     C38155  10.779  10.122   1.539  0.0219 -0.3443 -0.2380
  290MOL0     O38156  10.647  10.101   1.572  0.4185 -0.6974 -0.4360
  290MOL0     C38157  10.552  10.090   1.466  0.4209 -0.6401 -0.0568
  290MOL0     C38158  10.423  10.030   1.521  0.1891  0.4254 -0.9303
  290MOL0     C38159  10.361  10.125   1.626 -0.2195 -0.7494  0.4754
  290MOL0     C38160  10.239  10.053   1.676 -0.1737 -0.6382 -0.6189
  290MOL0     C38161  10.156  10.147   1.755  0.9456 -1.0094 -0.9916
  290MOL0     C38162  10.022  10.096   1.806  0.3865  0.1174 -0.3108
  290MOL0     C38163   9.910  10.080   1.697  0.0976  0.0563  0.7780
  290MOL0     C38164   9.774  10.033   1.762 -0.8810  0.3928 -0.4825
  290MOL0     N38165   9.676   9.998   1.664  0.3306  0.3100 -0.1238
  290MOL0     C38166   9.636   9.872   1.623 -0.3392 -0.4750  0.0372
  290MOL0     C38167   9.553   9.899   1.515  0.6663  0.5199  0.2627
  290MOL0     C38168   9.486   9.800   1.422 -0.1439  0.0430 -1.1538
  290MOL0     C38169   9.326   9.822   1.409  0.2445 -0.0176 -0.0093
  290MOL0     C38170   9.242   9.802   1.538  0.0206  0.8092  0.1133
  290MOL0     C38171   9.101   9.859   1.533 -0.1893  0.2728  0.0844
  290MOL0     O38172   9.083   9.933   1.655  0.2414 -0.1889 -0.0477
  290MOL0     C38173   8.943   9.943   1.694  0.1766  0.5755  0.6306
  290MOL0     C38174   8.849   9.942   1.595 -0.5072  0.2537 -0.1998
  290MOL0     C38175   8.717   9.952   1.630 -0.1031  0.1878  0.5859
  290MOL0     C38176   8.672   9.970   1.764  0.3868 -0.2929 -0.0333
  290MOL0     C38177   8.526   9.978   1.796 -0.4315  0.0381 -0.6481
  290MOL0     O38178   8.441   9.971   1.694 -0.2883  0.3428  0.1772
  290MOL0     C38179   8.303   9.981   1.708  0.2757 -0.4181  0.3408
  290MOL0     C38180   8.238  10.035   1.815  0.2930  0.4018 -0.4632
  290MOL0     C38181   8.097  10.037   1.823  0.2012  0.3750 -0.2924
  290MOL0     C38182   8.022   9.986   1.720 -0.0386 -0.1648  0.5046
  290MOL0     O38183   7.888   9.977   1.741 -0.1088  0.1404  0.4179
  290MOL0     C38184   7.801   9.964   1.632 -0.0495 -0.2119 -0.4533
  290MOL0     C38185   7.655   9.982   1.677 -0.2243 -0.2177 -0.0374
  290MOL0     C38186   7.567   9.980   1.555 -0.1803  0.0857  1.0369
  290MOL0     C38187   7.418   9.968   1.594  0.3301 -0.3215  0.8132
  290MOL0     C38188   7.320  10.043   1.501  0.0963  0.4468  1.4928
  290MOL0     C38189   7.314   9.986   1.356  0.4979  0.6607  0.4872
  290MOL0     C38190   7.248   9.846   1.341 -0.5234  0.4536 -0.1664
  290MOL0     C38191   7.100   9.844   1.376 -0.4039  0.0768 -0.1208
  290MOL0    Cl38192   7.018   9.979   1.296  0.5023 -0.1772  0.2727
  290MOL0     C38193   8.085   9.947   1.601 -0.5339  0.3696  0.1163
  290MOL0     C38194   8.230   9.944   1.595  0.5878  0.0555  0.5216
  290MOL0     O38195   8.497  10.011   1.912 -0.2736 -0.1569 -0.3526
  290MOL0     C38196   8.767   9.964   1.869  0.0341  0.1100 -0.5326
  290MOL0     C38197   8.905   9.958   1.836  0.0528 -0.4268  0.8648
  290MOL0     N38198   9.553  10.035   1.484  0.2410 -0.7875  0.2427
  290MOL0     N38199   9.620  10.092   1.582 -0.2732  0.1059  0.3154
  290MOL0     C38200  10.829  10.255   1.518 -0.0568  0.1350 -0.2226
  290MOL0     C38201  10.961  10.278   1.483  0.0886  0.1884  0.3008
  290MOL0     C38202  11.380  10.284   1.336 -0.7678 -0.3096  0.6516
  290MOL0     C38203  11.464  10.182   1.382 -0.1794 -0.3365  0.1793
  290MOL0     C38204  11.595  10.163   1.335  0.0886  0.0320  0.4333
  290MOL0     C38205  11.651  10.259   1.248  0.4545  0.1309 -0.6104
  290MOL0     O38206  11.774  10.257   1.198 -0.5825  0.9095  0.3886
  290MOL0     C38207  11.875  10.188   1.278  0.5913 -0.1991  0.0264
  290MOL0     C38208  12.018  10.216   1.229 -0.1030  0.2627 -0.2942
  290MOL0     C38209  12.045  10.197   1.081  0.2347 -0.3309  0.6280
  290MOL0     C38210  12.183  10.247   1.034 -0.5143  0.3265 -1.2607
  290MOL0     C38211  12.175  10.281   0.888  1.4586 -0.7538 -0.8596
  290MOL0     C38212  12.130  10.291   0.779 -0.2863 -0.0531 -0.3807
  290MOL0     C38213  11.575  10.374   1.216  0.3111  0.6233  0.5481
  290MOL0     C38214  11.437  10.385   1.251 -0.1380 -0.0389 -0.6797
  290MOL0     H38215  11.076   9.958   1.498 -1.6305 -1.2989  2.1456
  290MOL0     H38216  10.822   9.924   1.561 -1.4324  1.2210 -1.7473
  290MOL0     H38217  10.594  10.023   1.391  0.6605  0.0246 -0.5292
  290MOL0     H38218  10.536  10.183   1.411  0.9515  0.8429  2.1567
  290MOL0     H38219  10.446   9.942   1.581 -0.9435 -1.0903 -2.6141
  290MOL0     H38220  10.354   9.992   1.446 -1.6770 -2.9038  2.1623
  290MOL0     H38221  10.324  10.209   1.566 -2.7508 -0.9938  1.5649
  290MOL0     H38222  10.426  10.156   1.708 -0.2287 -0.6672  0.4511
  290MOL0     H38223  10.167  10.022   1.600 -2.2837  1.3308  0.4735
  290MOL0     H38224  10.267   9.970   1.742  2.0606 -0.6907 -1.5316
  290MOL0     H38225  10.131  10.227   1.685 -1.5834  2.5326  3.4517
  290MOL0     H38226  10.212  10.199   1.834 -0.6020  0.4646 -0.8191
  290MOL0     H38227   9.979  10.170   1.874 -0.7593 -0.4516 -0.3915
  290MOL0     H38228  10.044  10.006   1.863  0.5912  1.9305  2.7018
  290MOL0     H38229   9.906  10.172   1.638  1.3563 -0.0430  0.5028
  290MOL0     H38230   9.941  10.003   1.626 -0.2299  1.2832 -0.7578
  290MOL0     H38231   9.749  10.127   1.812  3.2026  1.5217 -0.2091
  290MOL0     H38232   9.780   9.968   1.850 -0.6885  0.2836 -0.5756
  290MOL0     H38233   9.657   9.777   1.671  1.6284 -0.2342 -0.2694
  290MOL0     H38234   9.496   9.700   1.465  1.4409  0.0194 -1.5263
  290MOL0     H38235   9.528   9.806   1.321 -0.9062 -3.0095 -1.7484
  290MOL0     H38236   9.280   9.755   1.335  0.3113 -1.0326  0.8426
  290MOL0     H38237   9.316   9.926   1.376  0.0627  0.5083  1.6246
  290MOL0     H38238   9.247   9.694   1.554 -0.5871  0.8999  0.9904
  290MOL0     H38239   9.292   9.865   1.612 -0.6734 -0.0050  1.3219
  290MOL0     H38240   9.032   9.774   1.530 -0.6915  0.6930 -1.3811
  290MOL0     H38241   9.087   9.928   1.449  0.7983  2.7391  1.8147
  290MOL0     H38242   8.869   9.925   1.490 -0.5468  1.8767 -0.4877
  290MOL0     H38243   8.644   9.939   1.551 -1.0024 -1.4398  1.6173
  290MOL0     H38244   8.282  10.080   1.903 -1.8250  1.2666  0.2117
  290MOL0     H38245   8.050  10.081   1.910 -2.4982  0.3895 -1.6674
  290MOL0     H38246   7.807   9.862   1.593  2.7888 -0.8941  1.4930
  290MOL0     H38247   7.825  10.031   1.549  2.0877  0.2179  0.4568
  290MOL0     H38248   7.640  10.078   1.728 -0.4446 -0.5630  0.5552
  290MOL0     H38249   7.640   9.898   1.746  0.4693  1.1666  1.8995
  290MOL0     H38250   7.587   9.888   1.498  0.0822  1.8653 -1.9424
  290MOL0     H38251   7.579  10.072   1.498 -2.5373 -0.1844 -0.0004
  290MOL0     H38252   7.387   9.863   1.600  0.2068 -0.4730 -1.6180
  290MOL0     H38253   7.409  10.016   1.692 -2.6510  0.5826  0.1926
  290MOL0     H38254   7.346  10.149   1.490 -2.4451  1.0105 -0.1991
  290MOL0     H38255   7.218  10.044   1.542 -1.5416  0.7363 -2.1531
  290MOL0     H38256   7.421   9.979   1.334  0.6970 -3.4110  1.8739
  290MOL0     H38257   7.260  10.054   1.290 -0.1486 -0.7025 -0.4362
  290MOL0     H38258   7.256   9.819   1.235  0.1095  1.1269 -0.2931
  290MOL0     H38259   7.308   9.775   1.400  0.8078  0.5665 -1.3405
  290MOL0     H38260   7.086   9.855   1.484 -2.6328  1.1606 -0.4544
  290MOL0     H38261   7.051   9.752   1.343  0.9836 -0.1564 -1.6983
  290MOL0     H38262   8.034   9.915   1.510  1.9637  1.7114 -1.8995
  290MOL0     H38263   8.277   9.909   1.504 -0.7898 -2.7278  0.7900
  290MOL0     H38264   8.729   9.970   1.970 -1.7086 -2.6256 -0.9312
  290MOL0     H38265   8.990   9.963   1.904  0.8866 -2.2511 -0.0062
  290MOL0     H38266  10.773  10.346   1.537  2.8509  1.7927  1.2183
  290MOL0     H38267  11.005  10.375   1.463  1.0398 -0.1259  0.7818
  290MOL0     H38268  11.415  10.106   1.442 -1.2068 -0.9546 -1.3745
  290MOL0     H38269  11.652  10.071   1.346  1.1700  0.3515 -1.9301
  290MOL0     H38270  11.847  10.083   1.272  1.4630 -0.6942  2.9665
  290MOL0     H38271  11.872  10.217   1.383  0.0903  0.5450 -0.1849
  290MOL0     H38272  12.039  10.316   1.269 -0.3749  0.3538 -0.3782
  290MOL0     H38273  12.088  10.148   1.280 -1.6558  0.7454  2.7357
  290MOL0     H38274  11.968  10.252   1.027  0.5922 -2.7249 -2.6178
  290MOL0     H38275  12.046  10.090   1.059  2.0015 -0.1347 -0.5176
  290MOL0     H38276  12.211  10.341   1.083  1.4997 -1.1511  0.6021
  290MOL0     H38277  12.257  10.170   1.060  2.7596  3.4766 -0.3457
  290MOL0     H38278  12.105  10.272   0.677  4.0597 -1.2833 -1.4321
  290MOL0     H38279  11.625  10.449   1.156 -0.7818  0.8394 -0.1188
  290MOL0     H38280  11.375  10.463   1.207 -0.6136 -0.9753 -1.7047
  291MOL0     O38281   2.886   1.464   6.725  0.2438 -0.5312 -0.3665
  291MOL0     C38282   2.915   1.407   6.621  0.3396 -0.2486 -1.0430
  291MOL0     O38283   2.830   1.360   6.535 -0.7359  1.0576 -0.4675
  291MOL0     C38284   2.712   1.312   6.580  0.2230  0.4136 -0.2628
  291MOL0     C38285   2.693   1.233   6.693  0.3844 -0.2090  0.4248
  291MOL0     C38286   2.566   1.181   6.712 -0.2945 -0.1595  0.5986
  291MOL0     C38287   2.458   1.207   6.629  0.1282 -0.7136  0.1238
  291MOL0     O38288   2.339   1.157   6.676  0.0668  0.2047  0.0480
  291MOL0     C38289   2.218   1.222   6.636 -0.8570 -1.1382  0.2872
  291MOL0     C38290   2.097   1.139   6.678  0.3297 -0.2326  0.0906
  291MOL0     C38291   1.962   1.211   6.647 -0.5202 -0.1537 -0.1630
  291MOL0     C38292   1.836   1.136   6.683  0.6878  0.4764  0.9538
  291MOL0     C38293   1.717   1.230   6.661  0.1686  0.6720  0.1923
  291MOL0     C38294   1.592   1.151   6.692  0.7299  0.0901  0.4258
  291MOL0     C38295   1.462   1.223   6.648  0.7450  0.7656  0.2812
  291MOL0     C38296   1.329   1.149   6.657  0.0890  0.3404 -0.0735
  291MOL0     N38297   1.296   1.101   6.793  0.6436 -0.7256  0.3436
  291MOL0     C38298   1.199   1.158   6.872  0.0775 -0.4236  0.2040
  291MOL0     C38299   1.198   1.090   6.986 -0.2606  0.6250  0.6918
  291MOL0     C38300   1.098   1.106   7.098  1.1132  0.2790 -0.1866
  291MOL0     C38301   1.157   1.079   7.234 -1.3975  0.0183 -0.4593
  291MOL0     C38302   1.291   1.160   7.265  0.1840 -0.4305 -0.0407
  291MOL0     C38303   1.278   1.311   7.251  0.9023 -0.7769  0.1109
  291MOL0     O38304   1.393   1.370   7.296  0.2215  0.3500 -0.2786
  291MOL0     C38305   1.513   1.365   7.231  0.3556 -0.4007  0.6989
  291MOL0     C38306   1.532   1.297   7.107 -0.4233  0.1715 -0.3133
  291MOL0     C38307   1.661   1.285   7.055 -0.3728 -0.0545  0.3907
  291MOL0     C38308   1.775   1.337   7.127  0.4976  0.8932 -0.4380
  291MOL0     C38309   1.910   1.303   7.083 -0.4677 -0.3337  0.4960
  291MOL0     O38310   2.005   1.290   7.178 -0.4190  0.4021  0.5068
  291MOL0     C38311   2.138   1.297   7.145 -0.0682  0.7038 -0.1674
  291MOL0     C38312   2.194   1.368   7.040  0.2823 -0.1539  0.6553
  291MOL0     C38313   2.334   1.352   7.014  0.6604 -0.6183  0.4220
  291MOL0     C38314   2.409   1.269   7.100  0.1366  0.2768  0.4495
  291MOL0     O38315   2.533   1.257   7.050 -0.0860 -0.4499  0.0442
  291MOL0     C38316   2.626   1.174   7.125  0.0934 -0.7781  1.0381
  291MOL0     C38317   2.768   1.194   7.075  0.0391 -0.1975 -0.0205
  291MOL0     C38318   2.873   1.106   7.159 -0.0472  0.0204  0.6106
  291MOL0     C38319   3.003   1.127   7.085 -0.7455  0.2571 -0.4737
  291MOL0     C38320   3.117   1.070   7.177 -0.0669 -0.1239 -0.1172
  291MOL0     C38321   3.260   1.089   7.114 -0.6105 -0.3922 -0.4249
  291MOL0     C38322   3.357   1.068   7.220  0.0887  0.1292  0.1494
  291MOL0     C38323   3.492   1.066   7.177 -0.1059  0.0522 -0.5033
  291MOL0    Cl38324   3.554   1.227   7.125  0.2504 -0.2612 -0.1997
  291MOL0     C38325   2.348   1.194   7.205  0.4306  0.3636  0.4798
  291MOL0     C38326   2.212   1.211   7.223 -0.1565 -0.1303 -0.1539
  291MOL0     O38327   1.925   1.273   6.964 -0.7390  0.2678 -0.7338
  291MOL0     C38328   1.745   1.404   7.248 -0.3478  0.2058 -0.2028
  291MOL0     C38329   1.624   1.423   7.296  0.5327  0.8842 -1.1656
  291MOL0     N38330   1.271   0.968   6.977 -0.4169 -0.5798  0.7404
  291MOL0     N38331   1.324   0.982   6.857 -0.8210 -0.2639  0.2498
  291MOL0     C38332   2.480   1.282   6.510  0.1337  0.9798  0.5046
  291MOL0     C38333   2.611   1.332   6.489  0.9168  0.2933  0.1152
  291MOL0     C38334   3.065   1.405   6.589  0.7367  0.9698  0.4779
  291MOL0     C38335   3.108   1.365   6.461  0.2320 -0.4288 -0.0814
  291MOL0     C38336   3.241   1.352   6.438  1.0932 -0.5428  0.0435
  291MOL0     C38337   3.339   1.387   6.532 -0.5810 -0.2825  0.2523
  291MOL0     O38338   3.473   1.361   6.486  0.4228 -0.1602  0.7245
  291MOL0     C38339   3.578   1.430   6.553 -0.4231 -0.6835 -0.9587
  291MOL0     C38340   3.709   1.418   6.476  1.0180  0.4834  0.0989
  291MOL0     C38341   3.711   1.476   6.334  0.0238  0.6475  0.6555
  291MOL0     C38342   3.851   1.477   6.264  0.5599 -0.8729  0.3730
  291MOL0     C38343   3.958   1.526   6.346 -0.5619 -0.3954  0.3449
  291MOL0     C38344   4.058   1.562   6.411  0.6737  0.4878  0.2447
  291MOL0     C38345   3.298   1.442   6.651 -0.2084 -0.4434 -0.5171
  291MOL0     C38346   3.158   1.450   6.679 -0.3287 -0.3226 -0.3847
  291MOL0     H38347   2.773   1.213   6.763  0.1326 -2.7396  0.1045
  291MOL0     H38348   2.557   1.120   6.801 -0.0202 -2.0066 -0.5905
  291MOL0     H38349   2.215   1.227   6.527  0.0666 -4.9148 -0.0672
  291MOL0     H38350   2.221   1.322   6.678  1.5962 -0.3736 -1.4546
  291MOL0     H38351   2.106   1.119   6.785 -1.1179  0.4799  0.3767
  291MOL0     H38352   2.102   1.039   6.633 -1.0478 -0.4817  0.4270
  291MOL0     H38353   1.956   1.227   6.539 -1.5223 -0.6190 -0.1883
  291MOL0     H38354   1.960   1.307   6.699 -0.3271 -0.7887  1.0605
  291MOL0     H38355   1.830   1.050   6.616  3.0366  1.9965 -1.4181
  291MOL0     H38356   1.848   1.100   6.786 -0.2735 -3.3108 -0.0964
  291MOL0     H38357   1.720   1.253   6.554  1.7299  1.1791  0.3274
  291MOL0     H38358   1.732   1.321   6.719  1.3227  0.4705  0.2382
  291MOL0     H38359   1.585   1.114   6.795 -0.8740 -2.3577 -0.4698
  291MOL0     H38360   1.609   1.058   6.636 -1.3946  0.0989 -0.2990
  291MOL0     H38361   1.441   1.308   6.713 -2.6863 -1.1455  1.9967
  291MOL0     H38362   1.467   1.266   6.547 -1.0107 -0.0706 -0.2099
  291MOL0     H38363   1.317   1.060   6.595 -2.7499  0.2879  0.4190
  291MOL0     H38364   1.253   1.219   6.621 -1.8997 -1.8188 -0.3338
  291MOL0     H38365   1.136   1.245   6.858 -1.1996 -1.1584  1.1777
  291MOL0     H38366   1.025   1.028   7.077  0.6329  0.2780  1.4128
  291MOL0     H38367   1.057   1.206   7.082  1.5605  0.5270  0.1898
  291MOL0     H38368   1.188   0.974   7.243  1.3313  0.8259  0.8808
  291MOL0     H38369   1.086   1.107   7.312  0.4435 -0.3498  1.4674
  291MOL0     H38370   1.321   1.148   7.369 -2.3420 -0.2933  0.7888
  291MOL0     H38371   1.369   1.122   7.199 -0.7187 -1.5937 -0.4987
  291MOL0     H38372   1.181   1.347   7.285 -0.0665  0.4358 -3.4809
  291MOL0     H38373   1.279   1.334   7.144  0.7077 -1.9815 -0.1626
  291MOL0     H38374   1.455   1.253   7.045 -0.4408 -0.7813  0.3817
  291MOL0     H38375   1.686   1.218   6.973 -2.9742 -0.2640 -0.3349
  291MOL0     H38376   2.127   1.424   6.975  0.6018  0.0613  0.5074
  291MOL0     H38377   2.398   1.412   6.950  1.0845 -0.3620  1.0782
  291MOL0     H38378   2.580   1.075   7.134 -3.9297  0.9952  2.2407
  291MOL0     H38379   2.626   1.207   7.230  0.2632 -2.0393  1.4620
  291MOL0     H38380   2.790   1.301   7.080 -1.4533  0.0504  3.2376
  291MOL0     H38381   2.776   1.156   6.973  0.8634 -2.5927  0.8675
  291MOL0     H38382   2.838   1.003   7.169  1.1506 -0.5620 -0.8987
  291MOL0     H38383   2.869   1.161   7.254  0.7238  2.0006 -0.4610
  291MOL0     H38384   3.001   1.066   6.994  3.1067 -2.4425  0.9504
  291MOL0     H38385   3.017   1.232   7.061 -0.5996  0.5515  0.7945
  291MOL0     H38386   3.102   0.962   7.191 -0.2375 -0.1364 -0.3913
  291MOL0     H38387   3.111   1.112   7.278  0.5831 -0.4154  0.0466
  291MOL0     H38388   3.281   1.186   7.066  2.8170  0.0336  1.6090
  291MOL0     H38389   3.293   1.018   7.037  5.5886  0.3487  1.0331
  291MOL0     H38390   3.339   1.140   7.301  0.6314 -1.0443  1.3411
  291MOL0     H38391   3.317   0.976   7.263  0.2531  0.2712  0.6155
  291MOL0     H38392   3.506   0.996   7.094 -0.1532  2.0010 -2.2178
  291MOL0     H38393   3.553   1.025   7.258  1.4952 -1.5261 -2.3730
  291MOL0     H38394   2.399   1.124   7.270 -1.8404 -2.4758 -0.5836
  291MOL0     H38395   2.162   1.165   7.307  2.3012  0.7003  1.8657
  291MOL0     H38396   1.828   1.445   7.306  1.8413 -2.6041 -1.1143
  291MOL0     H38397   1.605   1.481   7.385  0.7187  2.4216 -2.0987
  291MOL0     H38398   2.400   1.313   6.444 -0.3951  0.8471  1.0701
  291MOL0     H38399   2.622   1.389   6.398  0.1123 -2.2464 -1.6770
  291MOL0     H38400   3.033   1.338   6.387 -2.1984  0.2255  1.9911
  291MOL0     H38401   3.282   1.313   6.346 -2.4945 -1.6190 -1.2420
  291MOL0     H38402   3.588   1.409   6.660  0.4819  2.3388 -0.3613
  291MOL0     H38403   3.550   1.536   6.554  0.4162 -0.4426 -1.9134
  291MOL0     H38404   3.783   1.467   6.539 -1.7025  0.2849  3.8056
  291MOL0     H38405   3.741   1.313   6.471  2.1480  0.8000  0.4942
  291MOL0     H38406   3.676   1.579   6.343  0.1233  0.5234  3.3608
  291MOL0     H38407   3.644   1.416   6.271  1.8780 -2.7784  1.6729
  291MOL0     H38408   3.877   1.376   6.231  6.1684  0.1230  0.7018
  291MOL0     H38409   3.840   1.539   6.174 -0.8529 -1.7853 -0.1159
  291MOL0     H38410   4.138   1.586   6.477  3.1645 -2.5998 -1.3402
  291MOL0     H38411   3.363   1.460   6.736 -1.6212 -0.5610  0.6252
  291MOL0     H38412   3.125   1.504   6.767  1.0841 -0.8339  0.4906
  292MOL0     O38413   7.672   1.114   7.849  0.3232  0.1392  1.1162
  292MOL0     C38414   7.653   1.194   7.938 -0.1917  0.3725  0.0443
  292MOL0     O38415   7.531   1.248   7.967  0.0935  1.0376 -0.6735
  292MOL0     C38416   7.431   1.245   7.872  0.2766  0.5039  1.0932
  292MOL0     C38417   7.300   1.234   7.918  0.3239  0.1784  0.0697
  292MOL0     C38418   7.186   1.220   7.834  0.0366  0.1906  0.6365
  292MOL0     C38419   7.200   1.236   7.692  0.2993  0.5236 -0.5287
  292MOL0     O38420   7.108   1.226   7.602  0.4766  0.0928 -0.1167
  292MOL0     C38421   6.998   1.142   7.616  0.1667  0.7185 -0.1838
  292MOL0     C38422   6.941   1.151   7.474 -0.0976 -0.8993  0.5879
  292MOL0     C38423   6.839   1.263   7.456 -0.1277 -0.4452  0.0390
  292MOL0     C38424   6.701   1.223   7.520 -0.3131  0.5245  0.2700
  292MOL0     C38425   6.595   1.327   7.492  0.2607 -0.2492  0.0805
  292MOL0     C38426   6.616   1.478   7.517 -1.1691  1.0847 -0.5426
  292MOL0     C38427   6.484   1.559   7.535  0.5983  0.0344  0.1177
  292MOL0     C38428   6.421   1.575   7.398  0.1684  0.1674  0.1010
  292MOL0     N38429   6.279   1.619   7.402 -0.0999 -0.2929 -0.7928
  292MOL0     C38430   6.166   1.530   7.427  0.5396 -0.5497 -0.5852
  292MOL0     C38431   6.064   1.620   7.418  0.4917  0.8718 -0.9251
  292MOL0     C38432   5.917   1.575   7.451 -0.6142  0.1135  0.0698
  292MOL0     C38433   5.816   1.694   7.468 -0.4833  0.0551 -0.2746
  292MOL0     C38434   5.701   1.673   7.560  0.2113 -1.0067 -0.1826
  292MOL0     C38435   5.626   1.805   7.611  0.8738 -0.5518 -0.0875
  292MOL0     O38436   5.511   1.757   7.687 -0.3635 -0.3315 -0.7517
  292MOL0     C38437   5.389   1.779   7.636  0.6152  0.2036  0.3931
  292MOL0     C38438   5.319   1.664   7.594  0.1239 -0.0059 -0.1738
  292MOL0     C38439   5.195   1.662   7.537  0.9313  0.3187  0.8813
  292MOL0     C38440   5.130   1.793   7.528  0.0832 -0.2640  0.1557
  292MOL0     C38441   4.996   1.811   7.477  0.8054 -0.7701  1.0514
  292MOL0     O38442   4.935   1.698   7.419  0.3473 -0.6235  0.0460
  292MOL0     C38443   4.798   1.702   7.384  0.8539 -0.3591  0.2765
  292MOL0     C38444   4.709   1.821   7.379 -0.0737  0.4851 -0.3311
  292MOL0     C38445   4.577   1.804   7.342  0.2872 -0.2384  0.5818
  292MOL0     C38446   4.528   1.679   7.295 -0.6868  0.2776  0.4158
  292MOL0     O38447   4.402   1.680   7.239  0.1390  0.8521  0.7639
  292MOL0     C38448   4.299   1.655   7.338  0.5676  0.4976  0.1598
  292MOL0     C38449   4.167   1.663   7.282  0.4959  0.2653  0.6940
  292MOL0     C38450   4.131   1.801   7.217  0.0078  0.9202 -0.2234
  292MOL0     C38451   4.020   1.782   7.113 -0.3449  0.3482 -0.7517
  292MOL0     C38452   4.055   1.715   6.975  0.5995  0.7283  0.8124
  292MOL0     C38453   3.955   1.759   6.873  0.1928  0.0066  0.0631
  292MOL0     C38454   3.810   1.718   6.923  0.0841  0.0587  0.0084
  292MOL0     C38455   3.713   1.693   6.803  0.3932  0.7152  0.7102
  292MOL0    Cl38456   3.576   1.593   6.873  0.0088 -0.1004 -0.2502
  292MOL0     C38457   4.609   1.562   7.319  0.6391 -0.4506  0.4064
  292MOL0     C38458   4.740   1.576   7.356 -0.4519 -0.0250 -0.4623
  292MOL0     O38459   4.945   1.922   7.506  0.0161 -0.0840 -0.0829
  292MOL0     C38460   5.204   1.909   7.559 -0.0956  0.6923  0.3088
  292MOL0     C38461   5.322   1.902   7.622 -0.0794  0.0725  0.1654
  292MOL0     N38462   6.113   1.752   7.397 -0.4595  0.0038  0.1483
  292MOL0     N38463   6.239   1.746   7.387 -0.5880 -0.2863  0.5603
  292MOL0     C38464   7.330   1.260   7.645  0.5074 -0.8609 -0.8141
  292MOL0     C38465   7.446   1.252   7.733  0.3828 -0.8614 -0.4603
  292MOL0     C38466   7.769   1.198   8.038  0.5932 -0.1313 -0.1574
  292MOL0     C38467   7.864   1.093   8.040 -0.1751 -0.3727 -0.0097
  292MOL0     C38468   7.966   1.117   8.132  0.3520  0.0969  0.2986
  292MOL0     C38469   7.969   1.225   8.218  0.3924 -0.1513 -0.1944
  292MOL0     O38470   8.080   1.244   8.298 -0.5288  0.5293 -0.6448
  292MOL0     C38471   8.092   1.148   8.405 -0.3011 -0.2036 -0.0568
  292MOL0     C38472   8.216   1.188   8.484  0.1686 -0.1187  0.2802
  292MOL0     C38473   8.229   1.100   8.608 -0.8771 -0.4868 -0.1924
  292MOL0     C38474   8.331   1.145   8.700  0.1006  0.3400  1.1390
  292MOL0     C38475   8.473   1.118   8.656  0.3251 -0.9966 -0.0824
  292MOL0     C38476   8.584   1.094   8.621 -0.8085 -0.2548 -0.1735
  292MOL0     C38477   7.873   1.326   8.214  0.4345  0.5351 -0.3558
  292MOL0     C38478   7.771   1.313   8.121 -0.2258  0.3483  0.6918
  292MOL0     H38479   7.272   1.227   8.023 -0.6845 -1.7456 -0.2959
  292MOL0     H38480   7.091   1.202   7.884 -0.3562  0.1049 -0.1367
  292MOL0     H38481   6.930   1.186   7.689 -0.8703  0.3347 -0.8854
  292MOL0     H38482   7.030   1.040   7.638  1.7078  0.7582 -1.9805
  292MOL0     H38483   6.893   1.056   7.451  1.6344 -2.6457  3.5582
  292MOL0     H38484   7.021   1.172   7.403 -2.0442  0.6496 -1.2829
  292MOL0     H38485   6.834   1.287   7.349  2.2625 -0.4579 -0.1195
  292MOL0     H38486   6.888   1.349   7.503 -1.1754  1.3055 -1.8640
  292MOL0     H38487   6.664   1.126   7.485 -1.1563  0.3450  1.5914
  292MOL0     H38488   6.719   1.214   7.628  2.1173  2.8280  0.1581
  292MOL0     H38489   6.502   1.309   7.547 -1.0829 -0.7169 -2.2327
  292MOL0     H38490   6.569   1.325   7.386 -3.8386  2.6162  0.8024
  292MOL0     H38491   6.677   1.518   7.435  0.9974  0.7062  0.8072
  292MOL0     H38492   6.688   1.489   7.599 -1.2354 -0.2421 -0.2952
  292MOL0     H38493   6.416   1.510   7.605  2.0293 -4.7476 -1.4850
  292MOL0     H38494   6.518   1.658   7.566  1.0299  0.8760 -2.7317
  292MOL0     H38495   6.433   1.483   7.340  2.5747 -0.8606  2.0463
  292MOL0     H38496   6.475   1.657   7.350 -1.8490  0.4522 -1.8266
  292MOL0     H38497   6.161   1.425   7.456  0.6917  0.1835  2.4543
  292MOL0     H38498   5.932   1.533   7.550 -0.5235  1.3033  0.5734
  292MOL0     H38499   5.874   1.502   7.381 -0.5751  1.4047 -1.3593
  292MOL0     H38500   5.780   1.718   7.368 -1.4406  0.3111  0.1225
  292MOL0     H38501   5.873   1.783   7.497 -0.9314  1.5144 -3.5312
  292MOL0     H38502   5.626   1.605   7.518  0.0314 -2.6083  2.5222
  292MOL0     H38503   5.736   1.631   7.654 -0.0945 -0.1037  0.3493
  292MOL0     H38504   5.593   1.855   7.519  1.5653  2.9995  1.4263
  292MOL0     H38505   5.688   1.875   7.667 -0.6621  1.7410 -1.0949
  292MOL0     H38506   5.347   1.563   7.624 -2.7053 -1.0527 -0.6974
  292MOL0     H38507   5.148   1.568   7.511 -0.9857  1.5552 -0.4100
  292MOL0     H38508   4.735   1.925   7.397 -0.5159  0.7208 -1.0050
  292MOL0     H38509   4.514   1.890   7.324  2.1643  1.6554  2.4388
  292MOL0     H38510   4.317   1.722   7.422  2.1646 -0.1937  0.3982
  292MOL0     H38511   4.314   1.554   7.379  0.1481  1.1245  1.9645
  292MOL0     H38512   4.095   1.624   7.354 -2.4091 -0.3611 -2.3053
  292MOL0     H38513   4.160   1.582   7.209 -1.6264 -0.5768  1.7630
  292MOL0     H38514   4.217   1.851   7.171  1.9971 -1.1074  1.1149
  292MOL0     H38515   4.089   1.861   7.298 -0.5155 -0.1237  0.2922
  292MOL0     H38516   3.943   1.715   7.153 -0.6605 -0.5731 -2.7572
  292MOL0     H38517   3.967   1.875   7.091 -2.2283 -0.6243 -0.5311
  292MOL0     H38518   4.053   1.607   6.993  2.0665  0.6212  0.4616
  292MOL0     H38519   4.156   1.740   6.941  1.0579 -0.1952  1.4452
  292MOL0     H38520   3.978   1.714   6.776 -2.6314  2.6842 -2.0447
  292MOL0     H38521   3.959   1.864   6.844 -0.0287 -0.2579 -0.9590
  292MOL0     H38522   3.810   1.627   6.984  1.3315  1.0623  1.5745
  292MOL0     H38523   3.772   1.797   6.989 -0.5546  0.1681 -0.4799
  292MOL0     H38524   3.760   1.637   6.722  0.0630  1.7291 -0.1995
  292MOL0     H38525   3.668   1.782   6.757  0.0941  0.6787  0.9265
  292MOL0     H38526   4.563   1.467   7.293 -0.0890 -0.2100  0.7864
  292MOL0     H38527   4.815   1.498   7.370  1.0740  1.4491 -0.0208
  292MOL0     H38528   5.159   2.008   7.549 -1.0438  0.1603 -0.9249
  292MOL0     H38529   5.374   1.991   7.655 -1.3050  0.8115  0.1606
  292MOL0     H38530   7.358   1.260   7.540  0.0937  2.2266 -1.0130
  292MOL0     H38531   7.539   1.236   7.680 -1.2050 -2.3867 -3.0048
  292MOL0     H38532   7.860   1.008   7.973  0.6642  0.2494 -0.8820
  292MOL0     H38533   8.048   1.046   8.130  0.8217  0.6436 -0.3465
  292MOL0     H38534   8.106   1.048   8.363 -0.4466  0.6232 -2.2389
  292MOL0     H38535   8.006   1.153   8.473 -0.8699 -2.2020 -0.5395
  292MOL0     H38536   8.307   1.169   8.427 -0.9619 -3.4679 -0.6409
  292MOL0     H38537   8.213   1.294   8.513  2.4201  0.0842 -0.0198
  292MOL0     H38538   8.250   0.996   8.581 -3.4504 -0.8537 -1.1014
  292MOL0     H38539   8.131   1.100   8.657  0.4472 -0.6380  2.6527
  292MOL0     H38540   8.310   1.247   8.733 -0.4743  0.3177  0.8478
  292MOL0     H38541   8.330   1.073   8.783  4.1173  0.7537  1.7907
  292MOL0     H38542   8.688   1.089   8.599 -0.5127  0.6482  0.9058
  292MOL0     H38543   7.890   1.410   8.281  0.7584 -1.6062  2.4353
  292MOL0     H38544   7.702   1.396   8.109 -1.8212 -0.6940  2.2155
  293MOL0     O38545   7.641   5.882   7.437  0.2258 -0.4340 -0.0872
  293MOL0     C38546   7.687   5.794   7.360 -0.3807 -0.1108  0.0907
  293MOL0     O38547   7.628   5.678   7.326 -0.6116  0.1739  0.2767
  293MOL0     C38548   7.514   5.637   7.393 -0.3065 -0.2554  0.2020
  293MOL0     C38549   7.398   5.627   7.316  0.6717 -0.3319  0.2521
  293MOL0     C38550   7.276   5.596   7.383 -0.3827 -0.1904 -0.2792
  293MOL0     C38551   7.264   5.582   7.522  0.2223 -0.1675 -0.0610
  293MOL0     O38552   7.147   5.573   7.591 -0.1842 -0.3009 -0.4740
  293MOL0     C38553   7.040   5.513   7.527 -0.5055  0.3585 -0.7781
  293MOL0     C38554   6.952   5.626   7.468  0.3985  0.2070  0.3355
  293MOL0     C38555   6.825   5.560   7.398  0.5655  0.5785 -0.0324
  293MOL0     C38556   6.725   5.683   7.383  0.1068  0.0172  0.2888
  293MOL0     C38557   6.582   5.629   7.355  0.2658 -0.0628  0.3186
  293MOL0     C38558   6.481   5.744   7.366 -0.2079 -0.4274  0.1920
  293MOL0     C38559   6.342   5.718   7.295 -0.4497  0.4929 -1.4522
  293MOL0     C38560   6.355   5.705   7.142  0.4958  0.2720 -0.0261
  293MOL0     N38561   6.279   5.796   7.060  0.1066  0.0010  0.3362
  293MOL0     C38562   6.142   5.807   7.050  0.1439  0.1911 -0.2274
  293MOL0     C38563   6.129   5.906   6.953 -0.4819  0.2064  0.2617
  293MOL0     C38564   6.002   5.977   6.909 -0.2669  0.3699  0.5990
  293MOL0     C38565   6.015   6.025   6.760  0.3198  0.3971 -1.0702
  293MOL0     C38566   5.889   6.095   6.708  0.8418 -0.1659 -0.3244
  293MOL0     C38567   5.754   6.016   6.715 -0.4826 -0.8121 -0.1585
  293MOL0     O38568   5.703   6.059   6.844 -0.2062 -0.2117  0.3273
  293MOL0     C38569   5.574   6.043   6.873 -0.1209  0.7569  0.7721
  293MOL0     C38570   5.477   5.995   6.779 -0.0302 -0.3595 -0.0017
  293MOL0     C38571   5.345   5.987   6.822  0.3344 -0.3335  0.3087
  293MOL0     C38572   5.297   6.028   6.947  0.5821 -0.1849 -0.7827
  293MOL0     C38573   5.155   6.050   6.981  1.0647 -0.4663  0.3568
  293MOL0     O38574   5.132   6.108   7.104 -0.1241 -0.5686  0.4152
  293MOL0     C38575   5.002   6.126   7.146  0.5366  0.2261 -0.0804
  293MOL0     C38576   4.989   6.236   7.228 -0.2341 -0.4952 -0.9294
  293MOL0     C38577   4.861   6.285   7.268  0.9505 -0.1096 -0.2507
  293MOL0     C38578   4.745   6.210   7.241 -0.1407 -0.6476  0.7468
  293MOL0     O38579   4.616   6.250   7.270 -0.1748 -0.5806  0.0463
  293MOL0     C38580   4.591   6.377   7.333 -0.5278 -0.1217 -0.1022
  293MOL0     C38581   4.440   6.409   7.313 -0.0350 -0.3864 -0.1542
  293MOL0     C38582   4.402   6.542   7.391  0.1109 -0.9571 -0.1018
  293MOL0     C38583   4.257   6.579   7.357 -0.7055  0.2181  0.1979
  293MOL0     C38584   4.257   6.709   7.282  0.7480  0.1459  0.3167
  293MOL0     C38585   4.120   6.729   7.211  0.1190  0.1142  0.2012
  293MOL0     C38586   4.097   6.864   7.147  0.0081  0.2212  0.4893
  293MOL0     C38587   3.950   6.908   7.129 -0.3165  0.5241  0.1952
  293MOL0    Cl38588   3.925   7.003   6.984 -0.3037 -0.0062  0.2955
  293MOL0     C38589   4.753   6.108   7.149  0.4232  0.0733 -0.2539
  293MOL0     C38590   4.876   6.070   7.101  0.2580 -0.5823 -0.4628
  293MOL0     O38591   5.073   6.021   6.896 -0.1701 -0.0171 -0.9662
  293MOL0     C38592   5.395   6.076   7.031  0.2632 -0.2744  0.6201
  293MOL0     C38593   5.533   6.091   6.997  0.5012  0.1466  0.7811
  293MOL0     N38594   6.257   5.951   6.916  0.7116  0.3759 -0.1086
  293MOL0     N38595   6.348   5.876   6.972 -0.0726 -0.1934 -0.8701
  293MOL0     C38596   7.389   5.590   7.593  0.4834  0.3302  0.0435
  293MOL0     C38597   7.513   5.613   7.531 -0.8252 -0.1601  0.1829
  293MOL0     C38598   7.816   5.822   7.292 -0.2654  0.4371  0.2755
  293MOL0     C38599   7.891   5.738   7.201  0.6116 -1.0325  0.1803
  293MOL0     C38600   8.013   5.784   7.145  0.0940  0.6243 -0.1788
  293MOL0     C38601   8.066   5.908   7.172 -0.2202  0.0543  0.5753
  293MOL0     O38602   8.183   5.961   7.134 -0.1968 -0.2207  0.7329
  293MOL0     C38603   8.278   5.887   7.054 -0.3418 -0.1718 -0.1119
  293MOL0     C38604   8.371   6.001   6.998 -0.7630  0.4351 -0.2028
  293MOL0     C38605   8.485   5.946   6.909 -0.4386  0.4906 -1.0086
  293MOL0     C38606   8.578   6.074   6.882 -0.3442  0.3432  0.1220
  293MOL0     C38607   8.708   6.036   6.825 -0.6095  0.6908  0.0164
  293MOL0     C38608   8.821   6.008   6.780  0.8705 -0.3398 -0.5415
  293MOL0     C38609   7.998   5.982   7.275 -1.0074  0.4641 -0.1841
  293MOL0     C38610   7.882   5.945   7.335 -0.5317  0.6185  0.9475
  293MOL0     H38611   7.390   5.643   7.209 -0.9741 -2.1359  0.0453
  293MOL0     H38612   7.185   5.604   7.325 -1.3115  0.8614  1.2406
  293MOL0     H38613   6.982   5.460   7.603 -0.3906  3.1110  1.3963
  293MOL0     H38614   7.071   5.443   7.448  1.5931 -0.4221  0.6479
  293MOL0     H38615   6.999   5.686   7.390  0.1293  0.5688  0.4475
  293MOL0     H38616   6.916   5.697   7.544  2.4303  3.1153 -1.2099
  293MOL0     H38617   6.786   5.474   7.454  0.6862 -1.0458 -2.3116
  293MOL0     H38618   6.851   5.530   7.296  0.5755  0.5468 -0.0202
  293MOL0     H38619   6.730   5.758   7.463  2.2655 -0.5347  0.7364
  293MOL0     H38620   6.759   5.750   7.305  1.7696  0.8533  1.6664
  293MOL0     H38621   6.557   5.549   7.425  2.2330 -0.4349  0.6561
  293MOL0     H38622   6.576   5.589   7.253 -0.3335  1.1424 -0.1365
  293MOL0     H38623   6.531   5.836   7.333 -1.5724  0.7564  1.3093
  293MOL0     H38624   6.471   5.763   7.473  1.6869  2.8058 -0.0544
  293MOL0     H38625   6.298   5.628   7.340  2.0641 -0.0258  0.1267
  293MOL0     H38626   6.274   5.801   7.317 -1.0623  0.4559 -3.0682
  293MOL0     H38627   6.318   5.604   7.124  1.2007 -0.2557  1.3212
  293MOL0     H38628   6.457   5.710   7.101  0.3661 -1.0991 -0.5371
  293MOL0     H38629   6.066   5.771   7.119  1.5375  0.3977  1.4959
  293MOL0     H38630   5.977   6.060   6.976 -1.1392  0.5890  0.0148
  293MOL0     H38631   5.926   5.898   6.914  0.0136  0.0755  0.1627
  293MOL0     H38632   6.032   5.941   6.692  0.8176  1.1789 -1.9458
  293MOL0     H38633   6.104   6.088   6.753  0.9255 -0.1815  0.8483
  293MOL0     H38634   5.866   6.191   6.756 -0.2756  2.2609 -5.0919
  293MOL0     H38635   5.907   6.126   6.605 -2.0608 -1.4008 -1.3366
  293MOL0     H38636   5.764   5.908   6.716 -1.4414 -0.9197 -1.0435
  293MOL0     H38637   5.690   6.048   6.632  1.7880 -0.8853 -2.0544
  293MOL0     H38638   5.509   5.952   6.685  2.1750  2.6960 -0.8227
  293MOL0     H38639   5.272   5.946   6.753  0.1601 -0.5869  0.6381
  293MOL0     H38640   5.083   6.285   7.251  0.9641 -1.5921 -3.1416
  293MOL0     H38641   4.855   6.371   7.334  0.7375  1.4043 -2.1766
  293MOL0     H38642   4.649   6.460   7.291 -2.3794 -0.4561 -3.7687
  293MOL0     H38643   4.623   6.369   7.437 -0.2700  2.8530  0.1188
  293MOL0     H38644   4.366   6.330   7.325 -1.8142  0.8195 -2.4371
  293MOL0     H38645   4.433   6.421   7.205  1.8202  0.1422 -0.2504
  293MOL0     H38646   4.469   6.626   7.371 -2.5677  1.9981  2.1976
  293MOL0     H38647   4.404   6.515   7.497  1.4199 -0.2209  0.0840
  293MOL0     H38648   4.222   6.504   7.286 -0.1926  0.7985 -0.6911
  293MOL0     H38649   4.181   6.576   7.435 -3.1979  0.4364 -2.0858
  293MOL0     H38650   4.330   6.712   7.200  1.7773  1.1254  1.2484
  293MOL0     H38651   4.277   6.794   7.347  1.3362  1.4141 -1.4430
  293MOL0     H38652   4.045   6.723   7.291  0.4639  0.2891  0.5416
  293MOL0     H38653   4.104   6.651   7.137 -0.2862 -0.5421  0.9666
  293MOL0     H38654   4.160   6.931   7.206  0.8365 -2.1775  2.4479
  293MOL0     H38655   4.145   6.856   7.049  0.5163  0.6837  0.6937
  293MOL0     H38656   3.931   6.975   7.213 -0.1049 -0.7318  1.2838
  293MOL0     H38657   3.881   6.823   7.139 -0.8215  1.0732  1.7159
  293MOL0     H38658   4.663   6.055   7.119 -0.2214 -0.2530  2.0364
  293MOL0     H38659   4.871   5.977   7.046 -1.3799 -1.7582  1.5351
  293MOL0     H38660   5.377   6.112   7.132  0.8362  2.0961 -0.0605
  293MOL0     H38661   5.608   6.140   7.059  0.4927 -1.5473  2.2296
  293MOL0     H38662   7.385   5.579   7.701 -0.8506 -0.7403 -0.0903
  293MOL0     H38663   7.602   5.615   7.592 -0.1082  3.4704 -0.7586
  293MOL0     H38664   7.855   5.640   7.171 -0.5323 -0.5096 -0.1913
  293MOL0     H38665   8.051   5.711   7.074 -2.6045 -0.1449 -0.9515
  293MOL0     H38666   8.234   5.823   6.977 -0.8240  1.5197 -1.3145
  293MOL0     H38667   8.336   5.837   7.132 -1.6614  1.5632  2.1360
  293MOL0     H38668   8.315   6.070   6.935 -0.4601 -0.6487 -1.7155
  293MOL0     H38669   8.417   6.053   7.083 -0.5343  0.6464 -0.4550
  293MOL0     H38670   8.444   5.917   6.812  1.0855 -1.5237 -1.1014
  293MOL0     H38671   8.544   5.872   6.963  0.7206  2.1982  0.1977
  293MOL0     H38672   8.531   6.137   6.806 -1.1607  0.7272  0.9250
  293MOL0     H38673   8.597   6.128   6.976  0.8271  0.5758 -0.2363
  293MOL0     H38674   8.925   5.992   6.757  2.6917  1.0783  5.1857
  293MOL0     H38675   8.048   6.073   7.306  0.4403 -0.5325  0.4780
  293MOL0     H38676   7.828   6.018   7.395 -0.0591  1.0508  0.8513
  294MOL0     O38677   9.436   7.158   7.041  0.0511 -0.6560  0.5023
  294MOL0     C38678   9.430   7.072   6.955 -1.2849 -0.4644 -0.5598
  294MOL0     O38679   9.311   7.027   6.905  0.2946 -0.1402  1.0908
  294MOL0     C38680   9.186   7.051   6.949 -0.3348  0.4042 -0.2434
  294MOL0     C38681   9.090   6.986   6.873  0.2870 -0.2536  0.4822
  294MOL0     C38682   8.950   7.008   6.904 -0.8891  0.4402  0.1052
  294MOL0     C38683   8.914   7.074   7.018  0.7514 -0.0630  0.2907
  294MOL0     O38684   8.782   7.101   7.045 -0.1711 -0.1976 -0.1929
  294MOL0     C38685   8.686   6.999   7.000  0.6444 -0.4237  0.5140
  294MOL0     C38686   8.550   7.043   7.042  0.2191  0.5315  0.4364
  294MOL0     C38687   8.451   6.928   7.047 -0.9320 -0.4273  0.5637
  294MOL0     C38688   8.322   6.980   7.118 -0.1498  0.0622 -0.6130
  294MOL0     C38689   8.214   6.867   7.121 -0.2192  0.3387 -0.2834
  294MOL0     C38690   8.082   6.900   7.196 -0.1434 -0.4168  0.3097
  294MOL0     C38691   7.999   7.008   7.110  0.0346  0.3020  0.3371
  294MOL0     C38692   7.872   6.942   7.043  0.2925 -0.2044  0.1727
  294MOL0     N38693   7.767   6.939   7.145  0.0490  0.6005 -0.5904
  294MOL0     C38694   7.747   6.839   7.246  0.5447  1.0411 -0.7970
  294MOL0     C38695   7.622   6.875   7.295  0.1543  0.2452 -0.1629
  294MOL0     C38696   7.555   6.789   7.392  0.0236 -0.0356 -0.2299
  294MOL0     C38697   7.424   6.849   7.444  0.2331 -0.7871  0.2542
  294MOL0     C38698   7.326   6.743   7.508  0.0864 -0.2476  1.0839
  294MOL0     C38699   7.184   6.795   7.513 -0.2547 -0.0597  0.2948
  294MOL0     O38700   7.175   6.912   7.597  0.1054  0.0399  0.2983
  294MOL0     C38701   7.058   6.973   7.602  0.1479  0.4239 -0.7282
  294MOL0     C38702   6.939   6.927   7.553  1.4206  0.3852  0.3453
  294MOL0     C38703   6.823   7.009   7.574 -0.0978 -0.6829 -0.9834
  294MOL0     C38704   6.825   7.125   7.658 -0.5557 -0.5671  0.6567
  294MOL0     C38705   6.710   7.211   7.674  0.6886 -0.4429  0.1453
  294MOL0     O38706   6.598   7.177   7.606 -0.5365  0.0534 -0.0423
  294MOL0     C38707   6.499   7.262   7.593  0.5114 -0.1763 -0.5621
  294MOL0     C38708   6.451   7.307   7.470 -0.1750 -0.5887  0.5014
  294MOL0     C38709   6.344   7.394   7.459 -0.2920 -0.1081  0.5064
  294MOL0     C38710   6.274   7.439   7.569  0.1282  0.3280  0.1703
  294MOL0     O38711   6.159   7.509   7.550  0.2330  0.4244  0.5739
  294MOL0     C38712   6.104   7.532   7.423  0.5861  0.3505  0.4868
  294MOL0     C38713   5.964   7.588   7.434 -0.4693  0.9756  1.2457
  294MOL0     C38714   5.876   7.498   7.524  0.8870 -0.2193  0.2624
  294MOL0     C38715   5.745   7.573   7.530  0.6069 -0.1449  0.2699
  294MOL0     C38716   5.642   7.491   7.620 -0.3121  0.1989  0.1222
  294MOL0     C38717   5.509   7.559   7.616 -0.3983 -0.0064 -0.1857
  294MOL0     C38718   5.403   7.500   7.704  0.0338 -0.5473 -0.1535
  294MOL0     C38719   5.263   7.519   7.650  0.1636  1.0177 -0.7775
  294MOL0    Cl38720   5.155   7.436   7.761 -0.2566 -0.3163 -0.0493
  294MOL0     C38721   6.317   7.395   7.700  0.8682 -0.3334  1.3736
  294MOL0     C38722   6.424   7.307   7.709 -0.2454 -0.4609 -1.0893
  294MOL0     O38723   6.723   7.319   7.730  0.3112  0.8970 -0.0079
  294MOL0     C38724   6.956   7.166   7.703  0.9273  0.0495 -0.3876
  294MOL0     C38725   7.061   7.092   7.675 -0.5249 -0.5442  0.4750
  294MOL0     N38726   7.579   6.989   7.233 -0.3847  0.0465 -0.0722
  294MOL0     N38727   7.663   7.024   7.144 -0.7245 -0.3275 -0.3335
  294MOL0     C38728   9.010   7.132   7.098 -0.2386 -0.3114  0.0589
  294MOL0     C38729   9.146   7.118   7.068 -0.8175  0.2303  0.2922
  294MOL0     C38730   9.564   7.028   6.897 -0.3836  0.1825 -0.5348
  294MOL0     C38731   9.565   6.943   6.788 -0.7500  0.9345  0.6993
  294MOL0     C38732   9.687   6.897   6.734 -0.5773 -1.2686 -0.1520
  294MOL0     C38733   9.805   6.933   6.798 -0.4864  0.2389 -1.0526
  294MOL0     O38734   9.924   6.892   6.740  0.2955  0.4876 -0.0169
  294MOL0     C38735  10.049   6.902   6.805 -0.3419 -0.2375  0.1404
  294MOL0     C38736  10.157   6.835   6.730  0.2114 -0.5045 -0.4850
  294MOL0     C38737  10.298   6.875   6.744 -0.2979 -1.1536  0.2862
  294MOL0     C38738  10.347   6.849   6.892  0.1615 -0.8437  0.0136
  294MOL0     C38739  10.492   6.841   6.894  0.2657 -0.4549 -0.4055
  294MOL0     C38740  10.611   6.816   6.885  0.0839 -0.4541  0.0928
  294MOL0     C38741   9.807   7.010   6.920 -0.1613 -0.2256 -0.1239
  294MOL0     C38742   9.691   7.060   6.969  0.1895  0.2876  0.1309
  294MOL0     H38743   9.113   6.936   6.780 -4.5404 -0.7024 -0.7094
  294MOL0     H38744   8.886   6.957   6.832 -0.5059 -0.2296  0.2335
  294MOL0     H38745   8.706   6.903   7.048 -0.0733 -1.3985 -1.0667
  294MOL0     H38746   8.690   6.983   6.892  1.9609 -1.6618  0.7202
  294MOL0     H38747   8.514   7.125   6.979  0.6767 -0.1938 -0.8075
  294MOL0     H38748   8.556   7.077   7.146  0.5855 -2.9208  1.6659
  294MOL0     H38749   8.487   6.833   7.088 -0.0547 -1.9648 -3.3899
  294MOL0     H38750   8.432   6.901   6.943 -0.3562 -4.3614  1.3240
  294MOL0     H38751   8.350   7.013   7.218  0.9494 -0.5366 -0.7028
  294MOL0     H38752   8.296   7.067   7.058  2.4057  2.2614  1.2009
  294MOL0     H38753   8.252   6.775   7.167 -1.2088  0.8050  1.5766
  294MOL0     H38754   8.176   6.846   7.021 -1.4158 -0.7941  0.3661
  294MOL0     H38755   8.116   6.935   7.294  0.2344 -1.8579  0.7345
  294MOL0     H38756   8.025   6.808   7.214 -0.2158 -0.0769  2.0302
  294MOL0     H38757   7.956   7.085   7.174 -0.3597  0.3388  0.0294
  294MOL0     H38758   8.056   7.059   7.032 -0.6182  3.3420  1.7193
  294MOL0     H38759   7.897   6.842   7.005  1.6224 -0.1405  0.8199
  294MOL0     H38760   7.829   7.007   6.966  1.6685  1.1959  0.5497
  294MOL0     H38761   7.801   6.745   7.256 -2.6236 -0.7542  0.7277
  294MOL0     H38762   7.623   6.777   7.476 -3.4003  0.8504  2.9134
  294MOL0     H38763   7.525   6.693   7.350 -2.6799  0.3521  0.6317
  294MOL0     H38764   7.376   6.901   7.361  2.2620  1.7331  0.5473
  294MOL0     H38765   7.442   6.929   7.517  1.1060 -0.2819 -0.5018
  294MOL0     H38766   7.322   6.651   7.449 -1.5851 -1.0470  2.3471
  294MOL0     H38767   7.362   6.713   7.607 -0.8923  1.8392  2.1354
  294MOL0     H38768   7.126   6.712   7.556 -1.6679  0.6224 -0.2489
  294MOL0     H38769   7.137   6.822   7.418 -2.6698  0.2957  1.5151
  294MOL0     H38770   6.925   6.838   7.492  1.8276  2.9036 -3.8027
  294MOL0     H38771   6.733   6.972   7.527 -0.6217  2.3677 -2.6554
  294MOL0     H38772   6.492   7.255   7.384  1.9228 -1.6761  2.0556
  294MOL0     H38773   6.308   7.409   7.358 -0.8137  1.7179  0.9234
  294MOL0     H38774   6.105   7.436   7.370  3.0495  0.3356  0.4588
  294MOL0     H38775   6.166   7.605   7.371  4.0718 -1.1770  2.1862
  294MOL0     H38776   5.912   7.600   7.339 -0.8358 -2.7009  0.8596
  294MOL0     H38777   5.957   7.691   7.471 -3.9123  1.2295  0.2346
  294MOL0     H38778   5.914   7.473   7.623 -1.8574 -0.2974  1.3820
  294MOL0     H38779   5.851   7.408   7.467  0.1125  1.3632 -2.0113
  294MOL0     H38780   5.750   7.675   7.570  0.3736  0.0358 -0.1531
  294MOL0     H38781   5.713   7.575   7.425  3.2845 -1.7144 -0.6643
  294MOL0     H38782   5.680   7.488   7.722  0.4577  1.8090 -0.0883
  294MOL0     H38783   5.632   7.385   7.592 -2.1644 -0.3369  2.5219
  294MOL0     H38784   5.465   7.545   7.517  0.0181 -0.4938 -0.3089
  294MOL0     H38785   5.516   7.664   7.644 -3.0720  0.8930 -2.4418
  294MOL0     H38786   5.426   7.394   7.720  1.2787 -0.2033  0.4619
  294MOL0     H38787   5.400   7.536   7.808 -4.4387  0.1107 -0.3024
  294MOL0     H38788   5.247   7.476   7.550 -2.9820 -3.9231  1.4399
  294MOL0     H38789   5.243   7.626   7.648 -2.6463  0.6645  1.5353
  294MOL0     H38790   6.266   7.427   7.791 -2.0303 -0.7566  0.0023
  294MOL0     H38791   6.462   7.286   7.808  0.8313  2.0542 -0.8936
  294MOL0     H38792   6.957   7.255   7.765  0.0875  0.3710 -0.8157
  294MOL0     H38793   7.164   7.118   7.697  0.1115 -1.5587 -1.1070
  294MOL0     H38794   8.983   7.184   7.189 -0.8923  0.1240 -0.3692
  294MOL0     H38795   9.215   7.174   7.131  1.1474 -1.0213 -0.6597
  294MOL0     H38796   9.472   6.909   6.743 -0.7444 -1.4823  2.3347
  294MOL0     H38797   9.688   6.828   6.650 -0.7095 -0.3080 -0.9611
  294MOL0     H38798  10.035   6.857   6.904 -1.1628  1.6369  0.9131
  294MOL0     H38799  10.083   7.005   6.816  1.5486 -0.6646 -1.2676
  294MOL0     H38800  10.143   6.728   6.751 -0.5232 -0.1274  1.0999
  294MOL0     H38801  10.126   6.853   6.627 -0.9118 -1.5845 -0.3622
  294MOL0     H38802  10.303   6.982   6.725  1.3471 -1.2068  0.2153
  294MOL0     H38803  10.359   6.824   6.669 -1.7826 -3.6281  0.6303
  294MOL0     H38804  10.319   6.942   6.943  1.3702  0.0261 -0.8609
  294MOL0     H38805  10.297   6.771   6.952 -0.4133 -0.9047 -0.5367
  294MOL0     H38806  10.717   6.813   6.873  0.0796  1.0234 -0.5172
  294MOL0     H38807   9.896   7.039   6.975 -0.2648  0.4849 -0.3206
  294MOL0     H38808   9.685   7.118   7.061  1.9995 -1.5649  1.5044
  295MOL0     O38809   0.011  11.222   5.675  0.1989  0.2264  0.7022
  295MOL0     C38810   0.048  11.230   5.560  0.5716 -0.3639 -0.1957
  295MOL0     O38811  -0.036  11.240   5.458 -0.2896 -0.2352  0.4318
  295MOL0     C38812  -0.170  11.231   5.470  0.8377 -0.1422 -0.7967
  295MOL0     C38813  -0.236  11.119   5.404  0.1181 -0.1312 -0.5778
  295MOL0     C38814  -0.381  11.095   5.419 -0.3711  0.7028  0.2542
  295MOL0     C38815  -0.455  11.186   5.495  0.4251 -0.5208 -0.5241
  295MOL0     O38816  -0.589  11.184   5.497  0.5060 -0.3335 -0.5907
  295MOL0     C38817  -0.642  11.059   5.528  0.3814 -0.0900 -0.5297
  295MOL0     C38818  -0.765  11.070   5.619 -0.1877  0.2172  0.0746
  295MOL0     C38819  -0.882  11.142   5.558 -0.2765  0.2195 -0.3788
  295MOL0     C38820  -0.985  11.185   5.668  0.8394 -0.5311  0.0394
  295MOL0     C38821  -1.135  11.157   5.621 -0.2202  0.9818  0.3618
  295MOL0     C38822  -1.231  11.226   5.721 -0.7961 -0.2349  0.2577
  295MOL0     C38823  -1.376  11.240   5.670 -0.4714  0.9154 -0.8827
  295MOL0     C38824  -1.461  11.118   5.653  0.2421  0.2588 -0.4223
  295MOL0     N38825  -1.603  11.144   5.639 -0.1895  0.0010  0.6406
  295MOL0     C38826  -1.660  11.209   5.539 -0.6210  0.0165 -0.1235
  295MOL0     C38827  -1.797  11.208   5.559  0.1934  0.4185  1.2312
  295MOL0     C38828  -1.897  11.279   5.461 -0.3519 -0.3489 -0.0827
  295MOL0     C38829  -2.036  11.211   5.471 -0.0511  0.4841 -0.7139
  295MOL0     C38830  -2.131  11.273   5.367  0.6741 -0.4191 -0.0938
  295MOL0     C38831  -2.277  11.284   5.414 -0.3220  0.1455 -0.3670
  295MOL0     O38832  -2.352  11.376   5.319 -0.6529  0.4987 -0.5957
  295MOL0     C38833  -2.488  11.362   5.315  0.4587 -0.7171 -0.1207
  295MOL0     C38834  -2.555  11.442   5.228 -0.0077  0.3834 -0.3358
  295MOL0     C38835  -2.699  11.442   5.229  0.2431  0.3747 -0.3144
  295MOL0     C38836  -2.775  11.355   5.308  0.5669 -0.9499  0.0529
  295MOL0     C38837  -2.925  11.372   5.300 -0.8048 -0.2634 -0.2389
  295MOL0     O38838  -2.973  11.472   5.215 -0.7869 -0.6662  0.7405
  295MOL0     C38839  -3.098  11.520   5.216 -0.2053 -0.0604 -0.3923
  295MOL0     C38840  -3.118  11.660   5.194  0.3274  0.0724 -0.1498
  295MOL0     C38841  -3.242  11.716   5.179 -0.5288  0.5604 -0.5392
  295MOL0     C38842  -3.355  11.632   5.190  0.0396 -0.8691  0.2977
  295MOL0     O38843  -3.474  11.695   5.177  0.1394 -0.9747 -0.0272
  295MOL0     C38844  -3.586  11.611   5.140 -0.4983  0.5840 -0.1991
  295MOL0     C38845  -3.696  11.705   5.100  0.3653  0.3073 -0.0966
  295MOL0     C38846  -3.819  11.620   5.057 -0.3683  0.9375 -0.4681
  295MOL0     C38847  -3.795  11.539   4.931  0.3717  0.2130 -0.6134
  295MOL0     C38848  -3.910  11.450   4.881  0.1857 -0.0183 -0.0719
  295MOL0     C38849  -4.023  11.529   4.808  0.9096 -0.2647 -0.0331
  295MOL0     C38850  -4.123  11.437   4.737  0.6483 -0.3586  1.1613
  295MOL0     C38851  -4.246  11.510   4.715  0.8366  0.3704  0.2457
  295MOL0    Cl38852  -4.344  11.506   4.869 -0.0542 -0.1687 -0.1658
  295MOL0     C38853  -3.340  11.493   5.223  0.3906 -0.4312  0.0890
  295MOL0     C38854  -3.211  11.444   5.232  0.3748 -0.1355 -0.5435
  295MOL0     O38855  -3.000  11.293   5.354 -0.5070 -0.4696 -0.5525
  295MOL0     C38856  -2.702  11.280   5.395 -0.2261 -0.4909  0.1035
  295MOL0     C38857  -2.562  11.285   5.408 -0.2315  0.5536  0.1009
  295MOL0     N38858  -1.820  11.118   5.660 -0.4681 -0.5548 -0.8840
  295MOL0     N38859  -1.702  11.091   5.713 -0.5036 -0.6063 -0.2877
  295MOL0     C38860  -0.392  11.308   5.546 -1.3130  0.6451 -0.2688
  295MOL0     C38861  -0.252  11.326   5.540 -0.8411 -0.2245 -0.6805
  295MOL0     C38862   0.186  11.237   5.525  0.2524  0.8135 -0.0439
  295MOL0     C38863   0.281  11.231   5.632  0.4829  0.4204  0.6005
  295MOL0     C38864   0.416  11.220   5.614  0.3145 -0.3785  0.4368
  295MOL0     C38865   0.471  11.226   5.489  0.4373 -0.0799 -0.3240
  295MOL0     O38866   0.613  11.212   5.490  0.4970 -0.0774  0.1370
  295MOL0     C38867   0.675  11.201   5.362  0.4573 -0.7404 -0.2215
  295MOL0     C38868   0.822  11.166   5.376 -0.8028  0.5405  0.6600
  295MOL0     C38869   0.839  11.030   5.440  0.3133 -0.3441 -0.9525
  295MOL0     C38870   0.967  11.036   5.530 -0.6717  0.1874 -0.0693
  295MOL0     C38871   1.091  11.030   5.449  0.7176 -0.3816  0.2351
  295MOL0     C38872   1.177  11.026   5.368  0.1756  0.2719  0.7974
  295MOL0     C38873   0.380  11.232   5.379 -0.2491 -0.6011 -0.4900
  295MOL0     C38874   0.239  11.253   5.404 -1.2201  0.2472  0.0361
  295MOL0     H38875  -0.175  11.041   5.360  0.6188 -1.5522  2.3813
  295MOL0     H38876  -0.429  11.008   5.375  2.3051 -0.9619  0.4062
  295MOL0     H38877  -0.581  10.988   5.585 -0.7466 -0.2424  0.5588
  295MOL0     H38878  -0.674  11.017   5.433 -1.6471  2.9504 -1.3692
  295MOL0     H38879  -0.742  11.126   5.710  2.1314 -0.8115  0.2070
  295MOL0     H38880  -0.801  10.972   5.653  1.6881 -0.1494  1.1864
  295MOL0     H38881  -0.916  11.060   5.494  2.7816 -1.6228  0.1425
  295MOL0     H38882  -0.855  11.229   5.497 -1.0285 -0.1065 -1.1827
  295MOL0     H38883  -0.966  11.133   5.763 -1.6839 -1.3893  0.1528
  295MOL0     H38884  -0.972  11.289   5.698 -1.6862 -0.6531  1.8685
  295MOL0     H38885  -1.145  11.048   5.616  0.9932  0.9170 -1.2596
  295MOL0     H38886  -1.155  11.199   5.523  0.2233  3.0908  1.1293
  295MOL0     H38887  -1.192  11.327   5.734 -1.8218  0.8833 -3.8001
  295MOL0     H38888  -1.230  11.174   5.817  1.4296 -0.0736  0.3661
  295MOL0     H38889  -1.431  11.308   5.736  2.2400  0.5175  2.0578
  295MOL0     H38890  -1.376  11.292   5.574  3.4185  0.5008 -1.2762
  295MOL0     H38891  -1.440  11.053   5.738  2.1475 -0.6078 -1.4951
  295MOL0     H38892  -1.428  11.069   5.561 -2.3527 -0.4644 -1.0497
  295MOL0     H38893  -1.599  11.242   5.456 -1.8511  3.6168  0.2424
  295MOL0     H38894  -1.849  11.275   5.363 -0.2220  2.1054 -0.1866
  295MOL0     H38895  -1.915  11.383   5.491 -0.3848  0.0641 -1.4622
  295MOL0     H38896  -2.085  11.232   5.567  0.6182  1.9567 -0.6742
  295MOL0     H38897  -2.024  11.102   5.464 -1.6797  0.0426  1.8680
  295MOL0     H38898  -2.106  11.379   5.360 -0.4504 -0.1935 -0.9671
  295MOL0     H38899  -2.121  11.223   5.270 -0.4343 -1.8205  0.4707
  295MOL0     H38900  -2.264  11.331   5.512  0.3484  1.3081 -0.9880
  295MOL0     H38901  -2.328  11.187   5.412 -3.0889  1.5232 -0.3682
  295MOL0     H38902  -2.495  11.498   5.157 -0.0958 -1.6735 -2.1163
  295MOL0     H38903  -2.738  11.511   5.155 -0.6817 -0.3902 -0.5651
  295MOL0     H38904  -3.026  11.717   5.190  1.6384 -1.6950  2.0328
  295MOL0     H38905  -3.254  11.823   5.163 -0.2025  1.0794  2.2009
  295MOL0     H38906  -3.629  11.544   5.215 -1.3315  0.8547 -0.4242
  295MOL0     H38907  -3.554  11.558   5.049 -0.7418  0.4496 -0.2102
  295MOL0     H38908  -3.657  11.765   5.017  3.8341 -0.8139  0.5833
  295MOL0     H38909  -3.713  11.771   5.186  1.8278  0.7820 -0.1355
  295MOL0     H38910  -3.894  11.697   5.036 -1.4733  0.4114  1.4155
  295MOL0     H38911  -3.857  11.549   5.130 -1.2681 -0.6743 -2.3999
  295MOL0     H38912  -3.756  11.604   4.852 -0.8864  2.8440  0.7909
  295MOL0     H38913  -3.718  11.466   4.955 -0.0775  0.7041  2.9181
  295MOL0     H38914  -3.975  11.411   4.960  0.2112  0.8629  0.4007
  295MOL0     H38915  -3.865  11.382   4.808 -2.1204  0.0394 -1.6356
  295MOL0     H38916  -3.979  11.601   4.738  0.3901  0.2888  0.2070
  295MOL0     H38917  -4.079  11.587   4.882 -2.1736 -2.7823 -0.2110
  295MOL0     H38918  -4.079  11.409   4.640 -2.3202  0.2049 -0.4557
  295MOL0     H38919  -4.141  11.345   4.792  5.6254 -1.6731  1.0747
  295MOL0     H38920  -4.299  11.466   4.630 -0.3056 -0.2137  1.2304
  295MOL0     H38921  -4.230  11.617   4.701 -2.5607  1.7611  4.9422
  295MOL0     H38922  -3.425  11.427   5.233  1.0671 -1.2122  0.9664
  295MOL0     H38923  -3.210  11.336   5.242  1.6524 -0.2876 -1.8755
  295MOL0     H38924  -2.758  11.201   5.445  1.9753 -2.6476 -0.6747
  295MOL0     H38925  -2.503  11.226   5.477 -0.6765  1.0366  0.9137
  295MOL0     H38926  -0.458  11.386   5.581 -0.1208  2.3284 -1.6069
  295MOL0     H38927  -0.207  11.416   5.580 -1.2278  0.3466 -1.5064
  295MOL0     H38928   0.243  11.231   5.734 -0.8248  1.0662  0.1331
  295MOL0     H38929   0.489  11.214   5.695  3.3756 -0.0277 -2.0933
  295MOL0     H38930   0.665  11.302   5.322  0.6647 -0.5897  0.1011
  295MOL0     H38931   0.625  11.128   5.299  2.8185 -1.9289 -0.8173
  295MOL0     H38932   0.868  11.165   5.277  2.1611 -0.6409  1.9505
  295MOL0     H38933   0.873  11.239   5.439  3.2645 -0.2607 -1.3434
  295MOL0     H38934   0.842  10.946   5.370 -2.8911  0.8304 -2.7294
  295MOL0     H38935   0.765  11.006   5.518  1.5708  1.8860  1.0672
  295MOL0     H38936   0.977  11.115   5.605  1.0259 -1.0193  1.0650
  295MOL0     H38937   0.959  10.945   5.589  0.4681 -1.1332 -1.8475
  295MOL0     H38938   1.241  11.035   5.282 -0.3211  1.0762  0.5035
  295MOL0     H38939   0.436  11.234   5.287  2.8735 -0.8211  1.2531
  295MOL0     H38940   0.173  11.269   5.319 -0.3230  1.2865 -0.4944
  296MOL0     O38941   5.684   7.568   9.699 -0.1933 -0.3344 -0.3137
  296MOL0     C38942   5.686   7.502   9.593  0.5898 -0.1758  0.3895
  296MOL0     O38943   5.575   7.490   9.507  0.1649  0.6622  0.7140
  296MOL0     C38944   5.465   7.573   9.549  0.5524  0.1990  0.1085
  296MOL0     C38945   5.460   7.710   9.525  0.2435 -0.9288 -0.2165
  296MOL0     C38946   5.356   7.797   9.578 -0.2605  0.7330  0.3161
  296MOL0     C38947   5.243   7.739   9.630 -0.1517 -0.4599 -0.4499
  296MOL0     O38948   5.136   7.810   9.688 -0.6134  0.2974  1.2043
  296MOL0     C38949   5.089   7.925   9.622 -0.5517  0.3785 -0.1779
  296MOL0     C38950   4.958   7.963   9.689  0.3000  0.5011 -0.4790
  296MOL0     C38951   4.854   7.860   9.648 -0.0267 -0.0376  0.9088
  296MOL0     C38952   4.715   7.901   9.692 -0.2978  0.1690 -0.5749
  296MOL0     C38953   4.618   7.789   9.684  0.0429 -0.4312 -0.4926
  296MOL0     C38954   4.475   7.856   9.683 -0.3904 -0.7819 -0.3422
  296MOL0     C38955   4.360   7.759   9.709 -0.0882  0.8618  0.0138
  296MOL0     C38956   4.332   7.732   9.857  0.6636  0.0861 -0.8075
  296MOL0     N38957   4.182   7.710   9.863  0.1643 -0.3401 -0.0941
  296MOL0     C38958   4.114   7.608   9.798  0.5651 -0.3811 -0.2422
  296MOL0     C38959   3.985   7.626   9.843 -0.3602 -0.0396  0.4085
  296MOL0     C38960   3.870   7.533   9.822 -0.1124  0.2200  0.0617
  296MOL0     C38961   3.755   7.606   9.742 -0.2606  0.2337 -0.4109
  296MOL0     C38962   3.634   7.518   9.727  0.9866 -0.2287 -0.3465
  296MOL0     C38963   3.523   7.574   9.638 -0.4113  0.3691  0.2425
  296MOL0     O38964   3.400   7.515   9.676 -0.4204  0.0600 -0.0951
  296MOL0     C38965   3.291   7.553   9.598 -0.3956  0.0941 -0.3805
  296MOL0     C38966   3.173   7.471   9.602  0.2412  0.2935  0.4670
  296MOL0     C38967   3.052   7.506   9.543  0.1095  0.0962  0.2307
  296MOL0     C38968   3.046   7.624   9.476 -1.0502 -0.1419  0.1473
  296MOL0     C38969   2.914   7.670   9.432 -0.0528 -0.2735  0.8659
  296MOL0     O38970   2.905   7.808   9.400 -0.5246 -0.8899  0.8856
  296MOL0     C38971   2.782   7.854   9.370  0.9325 -0.0632  0.4235
  296MOL0     C38972   2.671   7.832   9.461 -0.4557 -0.2257  0.7611
  296MOL0     C38973   2.559   7.912   9.450  0.2154  0.0987  0.3692
  296MOL0     C38974   2.545   7.999   9.343  0.3048  0.0674  0.7767
  296MOL0     O38975   2.436   8.071   9.310  0.2456  0.6438 -0.0788
  296MOL0     C38976   2.333   8.093   9.400  0.4033 -0.3756 -0.0594
  296MOL0     C38977   2.251   8.211   9.343 -0.0911  0.2108  0.4792
  296MOL0     C38978   2.191   8.172   9.206 -0.2985 -0.2877  0.3029
  296MOL0     C38979   2.099   8.287   9.166  0.3521 -0.4751 -0.6422
  296MOL0     C38980   2.043   8.253   9.020 -0.0282  0.7311  0.0319
  296MOL0     C38981   1.917   8.336   8.983 -0.0181 -0.1033  0.4929
  296MOL0     C38982   1.846   8.280   8.858 -0.0267 -0.2395 -0.2506
  296MOL0     C38983   1.721   8.353   8.810  0.6354  0.5371 -0.2818
  296MOL0    Cl38984   1.777   8.510   8.733 -0.1179 -0.2055 -0.2668
  296MOL0     C38985   2.641   8.009   9.243  0.2056  0.0941 -0.6484
  296MOL0     C38986   2.766   7.950   9.263 -0.2959 -0.0641  0.1251
  296MOL0     O38987   2.823   7.593   9.416  0.5501 -0.1631  0.2585
  296MOL0     C38988   3.160   7.698   9.454  0.5648 -0.1115 -0.0956
  296MOL0     C38989   3.281   7.668   9.517 -0.8857  0.8884  0.6428
  296MOL0     N38990   3.985   7.724   9.937  0.3052  0.1806 -0.2872
  296MOL0     N38991   4.096   7.775   9.945 -0.5431 -1.1923 -0.2735
  296MOL0     C38992   5.237   7.600   9.644  0.6099 -0.6061  0.0048
  296MOL0     C38993   5.346   7.518   9.603 -0.1366 -0.7680 -0.7155
  296MOL0     C38994   5.808   7.441   9.551 -0.7914  0.0418 -0.0717
  296MOL0     C38995   5.833   7.400   9.418  0.4234  0.3602 -0.0106
  296MOL0     C38996   5.958   7.352   9.382  0.9215  0.1960 -0.3864
  296MOL0     C38997   6.067   7.337   9.472 -0.4218  0.0634 -0.0287
  296MOL0     O38998   6.195   7.312   9.439 -0.2256 -0.2386 -0.1578
  296MOL0     C38999   6.228   7.316   9.300 -0.0880  0.4612  0.0148
  296MOL0     C39000   6.382   7.315   9.279 -0.3632  0.3408 -0.4836
  296MOL0     C39001   6.440   7.171   9.292 -0.1778 -0.3162 -0.0515
  296MOL0     C39002   6.591   7.179   9.289  0.6846 -0.1301 -0.2649
  296MOL0     C39003   6.668   7.062   9.247 -0.0096  0.2501  0.7342
  296MOL0     C39004   6.747   6.963   9.223 -0.4895  1.1139  0.0186
  296MOL0     C39005   6.035   7.371   9.605 -0.8286 -0.2858 -0.8581
  296MOL0     C39006   5.919   7.428   9.640 -0.1078 -0.3291  0.2402
  296MOL0     H39007   5.561   7.739   9.501  0.1318  0.8696  1.2226
  296MOL0     H39008   5.354   7.906   9.580 -2.4337  0.7653 -0.2328
  296MOL0     H39009   5.077   7.912   9.514 -0.4680  4.2202 -0.7844
  296MOL0     H39010   5.154   8.013   9.631 -0.0384 -0.0392  0.2747
  296MOL0     H39011   4.922   8.060   9.652 -2.4364 -0.6084 -1.0042
  296MOL0     H39012   4.965   7.974   9.797 -1.3188 -3.9746  0.2851
  296MOL0     H39013   4.878   7.757   9.674 -0.2595 -0.4281 -0.3794
  296MOL0     H39014   4.846   7.856   9.539 -2.7116 -3.6072  1.0657
  296MOL0     H39015   4.725   7.949   9.790  1.0181 -2.4495  0.6571
  296MOL0     H39016   4.676   7.965   9.612 -0.1669 -0.6937 -1.3488
  296MOL0     H39017   4.627   7.714   9.763  2.8073 -0.3056 -0.5750
  296MOL0     H39018   4.627   7.745   9.584  0.9214  0.8481 -1.0086
  296MOL0     H39019   4.462   7.901   9.584  0.5247 -1.2710 -0.6960
  296MOL0     H39020   4.480   7.950   9.739  3.3032  0.7242 -2.7679
  296MOL0     H39021   4.267   7.807   9.677  0.9682  0.7520 -3.5962
  296MOL0     H39022   4.370   7.667   9.651  4.0718  0.6347  0.8216
  296MOL0     H39023   4.353   7.821   9.916 -0.9431 -0.2395  0.3254
  296MOL0     H39024   4.391   7.651   9.902 -1.2178  0.1025  1.9953
  296MOL0     H39025   4.158   7.528   9.738  0.4784 -2.0647  1.8213
  296MOL0     H39026   3.825   7.507   9.919  1.0005  0.3606  0.6353
  296MOL0     H39027   3.906   7.439   9.778 -0.6554 -0.5296  1.1671
  296MOL0     H39028   3.812   7.633   9.652  2.3407  1.0700  1.3458
  296MOL0     H39029   3.732   7.699   9.794 -0.2449 -0.4881  0.9268
  296MOL0     H39030   3.660   7.417   9.694  3.2570  0.0018  0.5514
  296MOL0     H39031   3.587   7.504   9.825  1.4378  1.6834  0.1962
  296MOL0     H39032   3.546   7.560   9.532 -1.0644 -0.0122  0.1422
  296MOL0     H39033   3.517   7.681   9.657  1.4475  0.5477  0.0274
  296MOL0     H39034   3.194   7.375   9.648  3.6092  0.7685  0.2004
  296MOL0     H39035   2.968   7.436   9.550 -0.9102  1.1051 -1.2725
  296MOL0     H39036   2.683   7.773   9.551 -0.9834 -0.2968  0.7875
  296MOL0     H39037   2.478   7.897   9.521 -1.2227  0.4747 -1.1175
  296MOL0     H39038   2.374   8.119   9.498  2.8888 -0.9767 -0.8636
  296MOL0     H39039   2.271   8.004   9.404 -0.2337 -0.3304 -4.2197
  296MOL0     H39040   2.321   8.295   9.341  0.1998 -0.0335  0.3278
  296MOL0     H39041   2.173   8.216   9.419  1.7468  0.5740  2.4664
  296MOL0     H39042   2.131   8.082   9.223 -0.6825  0.0315  0.6792
  296MOL0     H39043   2.260   8.150   9.124 -2.7142 -1.1649 -1.6039
  296MOL0     H39044   2.025   8.294   9.246 -0.0348 -2.7742 -0.7313
  296MOL0     H39045   2.152   8.383   9.165 -0.3137  0.0480  2.4888
  296MOL0     H39046   2.022   8.147   9.008  2.1257  0.3843 -1.1661
  296MOL0     H39047   2.128   8.269   8.953  0.2317 -1.5018 -0.2223
  296MOL0     H39048   1.946   8.440   8.966  1.3669 -0.2128  1.9162
  296MOL0     H39049   1.847   8.342   9.067  0.4231 -1.2341  0.9687
  296MOL0     H39050   1.922   8.264   8.781  2.0229  0.6126  1.5078
  296MOL0     H39051   1.820   8.177   8.883 -0.2276 -0.1394 -0.0428
  296MOL0     H39052   1.665   8.369   8.903 -0.9648 -0.4772 -1.0371
  296MOL0     H39053   1.668   8.284   8.743 -0.8291  1.7687 -0.4439
  296MOL0     H39054   2.629   8.092   9.173  1.5336  2.0329  1.3124
  296MOL0     H39055   2.854   7.967   9.201 -0.8365  0.7026 -0.4489
  296MOL0     H39056   3.162   7.790   9.396  3.6131 -0.9251 -1.4848
  296MOL0     H39057   3.352   7.749   9.520 -0.5579  0.8122 -2.2532
  296MOL0     H39058   5.154   7.549   9.692  0.6335 -1.4547 -0.8233
  296MOL0     H39059   5.351   7.412   9.624 -0.7114 -1.1726 -2.4550
  296MOL0     H39060   5.767   7.405   9.332  3.0280 -2.8985 -2.4359
  296MOL0     H39061   5.965   7.348   9.274  0.4256  1.0725 -0.4587
  296MOL0     H39062   6.174   7.396   9.249 -2.6395 -0.2364  1.4210
  296MOL0     H39063   6.198   7.220   9.256  0.9136  0.6277 -1.0943
  296MOL0     H39064   6.400   7.349   9.176  0.9152 -3.2356 -1.5716
  296MOL0     H39065   6.428   7.388   9.347 -1.1727 -0.9619  1.5527
  296MOL0     H39066   6.405   7.103   9.214 -0.6946 -1.1608  0.9097
  296MOL0     H39067   6.404   7.126   9.384  2.1565 -0.8325  0.6906
  296MOL0     H39068   6.615   7.255   9.214  1.0544 -1.6845 -1.7922
  296MOL0     H39069   6.623   7.208   9.389 -2.2088  2.1804  0.1143
  296MOL0     H39070   6.802   6.871   9.217 -0.9114  0.7596  1.3074
  296MOL0     H39071   6.111   7.350   9.679 -0.9642 -0.5993 -0.8050
  296MOL0     H39072   5.890   7.464   9.738 -1.6231 -0.1158 -0.2635
  297MOL0     O39073   6.073  11.153   7.251  0.1342  0.1223 -0.2506
  297MOL0     C39074   6.081  11.041   7.201  0.2725  0.4126 -0.0392
  297MOL0     O39075   5.981  10.963   7.150 -0.1207  0.2066  0.2328
  297MOL0     C39076   5.848  11.000   7.159 -0.3729  0.0657  0.4696
  297MOL0     C39077   5.789  11.068   7.270 -0.2355  0.0152 -0.9085
  297MOL0     C39078   5.654  11.108   7.263  0.0963 -0.9081  1.0145
  297MOL0     C39079   5.569  11.068   7.165 -0.5632  0.1359  0.4689
  297MOL0     O39080   5.430  11.076   7.158  0.9662 -1.1418 -0.3991
  297MOL0     C39081   5.376  11.198   7.210 -0.6820  0.4129  0.1892
  297MOL0     C39082   5.229  11.220   7.202  0.6095 -0.1662  0.5508
  297MOL0     C39083   5.173  11.316   7.301  0.7957  0.1855 -0.1856
  297MOL0     C39084   5.022  11.296   7.315  0.4171  0.4578 -0.7457
  297MOL0     C39085   4.960  11.428   7.368 -0.5846 -0.3844 -0.5918
  297MOL0     C39086   4.806  11.429   7.382 -0.5325 -0.1065  0.1970
  297MOL0     C39087   4.754  11.531   7.483 -0.6098  0.6949 -1.0094
  297MOL0     C39088   4.599  11.519   7.496  0.5252 -0.1255  1.0449
  297MOL0     N39089   4.520  11.549   7.372  0.1261 -0.1513 -0.3091
  297MOL0     C39090   4.468  11.674   7.345 -0.6325  0.9096 -0.4669
  297MOL0     C39091   4.374  11.649   7.241 -0.3615  0.4539 -0.1553
  297MOL0     C39092   4.299  11.751   7.153 -0.3138  0.5896  0.4471
  297MOL0     C39093   4.216  11.839   7.244 -0.1667  0.6572 -0.1243
  297MOL0     C39094   4.201  11.985   7.191  0.2278  0.1321  1.0971
  297MOL0     C39095   4.161  12.082   7.309 -0.0768 -0.1131 -0.4090
  297MOL0     O39096   4.054  12.027   7.381 -0.3673  0.2697  1.0243
  297MOL0     C39097   3.978  12.111   7.454 -0.1924 -0.1112 -0.5723
  297MOL0     C39098   4.041  12.193   7.552  0.3136  0.2112 -0.2622
  297MOL0     C39099   3.961  12.281   7.625 -0.3141 -0.0861 -0.0576
  297MOL0     C39100   3.827  12.293   7.610  0.3585  0.7595  0.6483
  297MOL0     C39101   3.745  12.385   7.692 -0.8684 -0.9700  0.3959
  297MOL0     O39102   3.617  12.391   7.659  0.0377  0.7646 -0.2451
  297MOL0     C39103   3.537  12.493   7.700  0.4092  0.0388 -0.9558
  297MOL0     C39104   3.426  12.503   7.617  0.6988  0.5906  0.2940
  297MOL0     C39105   3.326  12.599   7.646  0.0144 -0.0045 -0.0487
  297MOL0     C39106   3.330  12.687   7.754  0.4489 -0.1450  0.0453
  297MOL0     O39107   3.217  12.760   7.770  0.7047 -0.0699 -0.3280
  297MOL0     C39108   3.227  12.849   7.884 -0.1929 -0.0315 -0.3501
  297MOL0     C39109   3.142  12.969   7.866  0.2686 -0.0486 -0.7460
  297MOL0     C39110   2.985  12.928   7.835  0.4002 -0.1518  0.3590
  297MOL0     C39111   2.920  12.853   7.951  0.6858  0.5880  0.9499
  297MOL0     C39112   2.769  12.823   7.931 -0.2734  0.3224 -0.1978
  297MOL0     C39113   2.692  12.945   7.899 -0.5005  0.2661 -0.1883
  297MOL0     C39114   2.539  12.923   7.899 -0.0623 -0.5320 -0.2198
  297MOL0     C39115   2.499  12.815   7.794 -0.1394  0.4847  0.5429
  297MOL0    Cl39116   2.325  12.806   7.788 -0.2117 -0.1707  0.0895
  297MOL0     C39117   3.439  12.666   7.839 -1.0542  0.2192 -0.1126
  297MOL0     C39118   3.539  12.567   7.818 -0.6538  1.1256  0.6179
  297MOL0     O39119   3.806  12.462   7.779  0.8822  0.4984  0.2663
  297MOL0     C39120   3.767  12.216   7.506  0.4132  0.5664 -0.1516
  297MOL0     C39121   3.843  12.126   7.429  0.3943 -1.0476 -0.0469
  297MOL0     N39122   4.374  11.514   7.218  0.6360  1.4693 -0.2093
  297MOL0     N39123   4.459  11.450   7.297  0.1496 -0.9494  0.2794
  297MOL0     C39124   5.621  10.990   7.068 -0.7104  1.0710 -0.0950
  297MOL0     C39125   5.762  10.957   7.062  0.2003 -0.2928  0.0403
  297MOL0     C39126   6.219  10.985   7.200  0.1200  0.1815 -0.1726
  297MOL0     C39127   6.326  11.074   7.232  0.3201  0.3914 -0.0853
  297MOL0     C39128   6.457  11.029   7.205 -0.9854  0.0071 -0.2473
  297MOL0     C39129   6.482  10.905   7.145 -0.6335 -0.8872 -0.2467
  297MOL0     O39130   6.606  10.883   7.107 -0.2414  0.1680  0.0649
  297MOL0     C39131   6.656  10.750   7.087  0.5863  0.0878 -0.4815
  297MOL0     C39132   6.811  10.755   7.056  0.2556 -1.2461  0.0506
  297MOL0     C39133   6.870  10.622   7.041  0.3667 -0.3396  0.6232
  297MOL0     C39134   7.008  10.619   6.963  0.6048 -0.2564 -0.0539
  297MOL0     C39135   7.113  10.697   7.036  0.4112 -0.2277  0.0374
  297MOL0     C39136   7.215  10.734   7.092  0.8777 -0.9896 -0.1787
  297MOL0     C39137   6.374  10.821   7.128 -0.8461 -0.4028  0.2513
  297MOL0     C39138   6.242  10.850   7.164  0.5915 -0.0963 -0.0780
  297MOL0     H39139   5.843  11.099   7.360  1.5897  0.0610 -1.9690
  297MOL0     H39140   5.615  11.173   7.341  0.8438 -0.0334  0.6797
  297MOL0     H39141   5.431  11.279   7.160  3.1212 -1.3338  1.1807
  297MOL0     H39142   5.419  11.194   7.310  3.4392 -1.1579 -1.4140
  297MOL0     H39143   5.192  11.119   7.223 -0.7156  0.3788  0.9473
  297MOL0     H39144   5.205  11.242   7.098 -0.0700 -0.1616  0.7020
  297MOL0     H39145   5.202  11.418   7.276  0.2413  1.1682  2.7595
  297MOL0     H39146   5.217  11.278   7.394  1.5810 -0.1340 -0.6835
  297MOL0     H39147   4.972  11.278   7.220  0.6779  1.2657 -1.0441
  297MOL0     H39148   5.003  11.214   7.385  0.5835  1.5964  0.6870
  297MOL0     H39149   4.985  11.515   7.306 -2.1588 -2.2693 -4.2406
  297MOL0     H39150   4.995  11.438   7.471  0.0789 -0.2782 -0.8182
  297MOL0     H39151   4.775  11.331   7.419  0.3172  0.6661  3.2027
  297MOL0     H39152   4.760  11.455   7.286  1.0572  2.2462 -0.0055
  297MOL0     H39153   4.796  11.511   7.582 -1.6441 -1.4125 -0.9315
  297MOL0     H39154   4.792  11.632   7.463 -0.4295  1.1392  1.2856
  297MOL0     H39155   4.573  11.583   7.581 -0.6249 -1.0687  1.4235
  297MOL0     H39156   4.576  11.417   7.528  2.5618 -1.2528 -0.7512
  297MOL0     H39157   4.504  11.766   7.391 -0.6966  0.2272  0.9981
  297MOL0     H39158   4.242  11.703   7.073  0.1639 -1.4581  1.2611
  297MOL0     H39159   4.380  11.810   7.109  1.0709 -0.2790  1.7262
  297MOL0     H39160   4.247  11.832   7.348 -2.6905  1.4363  0.7493
  297MOL0     H39161   4.116  11.795   7.237  1.1116 -2.3636 -0.8735
  297MOL0     H39162   4.297  12.015   7.146 -1.0705  0.4681 -1.6605
  297MOL0     H39163   4.128  11.988   7.110 -1.3645  1.4408  2.5222
  297MOL0     H39164   4.143  12.187   7.284  0.5843  0.0068 -0.4017
  297MOL0     H39165   4.249  12.083   7.375 -0.4154 -1.2269  0.0876
  297MOL0     H39166   4.146  12.181   7.577 -0.3242 -1.9088  1.7737
  297MOL0     H39167   4.024  12.342   7.689  0.8508 -0.9937 -0.3063
  297MOL0     H39168   3.411  12.426   7.541 -0.7484  0.5663  0.5728
  297MOL0     H39169   3.238  12.602   7.584  0.7320  2.6836 -1.0874
  297MOL0     H39170   3.325  12.897   7.898 -0.9766  1.8094 -0.8651
  297MOL0     H39171   3.200  12.796   7.976 -1.7787  2.0041  0.4484
  297MOL0     H39172   3.177  13.018   7.774  1.3590 -0.5488 -0.6063
  297MOL0     H39173   3.152  13.038   7.950 -0.9670 -0.2640 -0.4039
  297MOL0     H39174   2.991  12.863   7.747  1.6479  1.4151 -0.7694
  297MOL0     H39175   2.927  13.014   7.801  1.5090  0.2006 -0.7306
  297MOL0     H39176   2.968  12.757   7.969 -0.2423  0.0453  0.5764
  297MOL0     H39177   2.940  12.923   8.033  3.0449  1.8738 -0.6225
  297MOL0     H39178   2.717  12.764   8.007 -0.6743  2.1838  1.0333
  297MOL0     H39179   2.765  12.766   7.838  5.4533 -0.0313 -0.5749
  297MOL0     H39180   2.725  12.981   7.801 -1.7789 -2.8082 -1.8817
  297MOL0     H39181   2.718  13.032   7.960 -0.6963  0.2120 -0.0263
  297MOL0     H39182   2.505  12.901   8.001 -1.4002  2.6189  0.1301
  297MOL0     H39183   2.489  13.014   7.866  0.6531 -0.3868 -0.9311
  297MOL0     H39184   2.538  12.715   7.813 -1.7272 -0.6837 -1.8086
  297MOL0     H39185   2.540  12.859   7.702 -0.6852 -0.8377 -0.3696
  297MOL0     H39186   3.439  12.726   7.930 -2.6120  1.1202 -0.6612
  297MOL0     H39187   3.615  12.553   7.895 -1.5652  2.3608  1.7794
  297MOL0     H39188   3.660  12.222   7.491 -0.2828 -0.2159  3.5578
  297MOL0     H39189   3.792  12.058   7.361 -1.2434  0.6493 -0.5878
  297MOL0     H39190   5.563  10.949   6.987  0.7484  0.2366 -0.7566
  297MOL0     H39191   5.794  10.898   6.977  1.5304 -0.6343  0.7560
  297MOL0     H39192   6.305  11.179   7.251 -1.6821  0.6579 -3.1124
  297MOL0     H39193   6.541  11.096   7.218  2.2921 -3.8700  0.3228
  297MOL0     H39194   6.608  10.702   7.002 -1.9267  2.2990 -0.4312
  297MOL0     H39195   6.635  10.695   7.180  0.0014  0.5824 -0.3211
  297MOL0     H39196   6.824  10.822   6.971 -0.1149  0.1465  1.0530
  297MOL0     H39197   6.880  10.810   7.122  2.1193  1.3321 -3.7139
  297MOL0     H39198   6.796  10.556   6.994 -0.2953 -0.9875  2.4596
  297MOL0     H39199   6.886  10.579   7.140  1.3720 -0.4086  0.4396
  297MOL0     H39200   7.040  10.515   6.975 -1.9727 -1.1681 -0.5493
  297MOL0     H39201   6.997  10.651   6.859 -2.1870 -0.4659  0.1003
  297MOL0     H39202   7.300  10.757   7.153 -1.4010 -0.4535  3.0719
  297MOL0     H39203   6.396  10.722   7.089 -1.5037 -0.2461 -0.5430
  297MOL0     H39204   6.151  10.795   7.140 -0.0300  0.3616  1.1487
  298MOL0     O39205   8.330   8.795   2.983  0.0892 -0.2236 -0.1230
  298MOL0     C39206   8.412   8.890   2.959 -0.8910  0.0364 -0.3079
  298MOL0     O39207   8.380   9.016   2.918 -0.2752 -0.4478  0.2447
  298MOL0     C39208   8.247   9.069   2.911 -0.0576  0.1911  1.0585
  298MOL0     C39209   8.247   9.206   2.898  0.0560  0.0303 -0.2198
  298MOL0     C39210   8.131   9.285   2.892  1.0656  0.7821 -0.0902
  298MOL0     C39211   8.005   9.223   2.900  0.5385 -0.5524 -0.6934
  298MOL0     O39212   7.887   9.302   2.891 -0.8250  0.0338 -0.6460
  298MOL0     C39213   7.897   9.437   2.926  0.2413  0.4214  1.3185
  298MOL0     C39214   7.764   9.509   2.918 -0.6725 -0.3747  0.1839
  298MOL0     C39215   7.665   9.458   3.021 -0.2438  0.1365  0.2799
  298MOL0     C39216   7.523   9.498   2.984 -0.9926 -0.0177 -0.2771
  298MOL0     C39217   7.424   9.410   3.044 -0.2625 -0.1529 -1.3339
  298MOL0     C39218   7.416   9.446   3.196 -0.1791  0.3561 -0.1356
  298MOL0     C39219   7.293   9.370   3.249  0.0707 -0.3184 -0.6489
  298MOL0     C39220   7.270   9.409   3.401  0.4455 -0.1910 -0.2949
  298MOL0     N39221   7.141   9.366   3.456 -0.1669  0.4231  0.8911
  298MOL0     C39222   7.022   9.432   3.438 -0.4956 -0.1333  0.6665
  298MOL0     C39223   6.929   9.358   3.492  0.0436 -0.7839  0.6496
  298MOL0     C39224   6.778   9.371   3.468  0.5965  0.3568 -0.0446
  298MOL0     C39225   6.703   9.296   3.578  0.4853  0.3443 -0.2212
  298MOL0     C39226   6.550   9.331   3.556  0.2890 -0.0337 -1.0109
  298MOL0     C39227   6.457   9.259   3.669  0.4595 -0.7426  0.4728
  298MOL0     O39228   6.357   9.352   3.730 -1.1425 -0.0394 -0.6272
  298MOL0     C39229   6.225   9.355   3.689  0.1393  0.4455 -0.0341
  298MOL0     C39230   6.173   9.286   3.586  0.4575  0.2151  0.3251
  298MOL0     C39231   6.031   9.289   3.559  0.0818 -0.0476  0.5153
  298MOL0     C39232   5.949   9.365   3.647  0.3171 -0.2898  0.3459
  298MOL0     C39233   5.800   9.364   3.635  0.5249 -0.2207 -0.3637
  298MOL0     O39234   5.751   9.266   3.558 -1.0775 -0.3028  0.3817
  298MOL0     C39235   5.623   9.262   3.518 -0.1301 -0.1674  0.5045
  298MOL0     C39236   5.593   9.221   3.390  0.0350 -1.2347 -0.6964
  298MOL0     C39237   5.463   9.204   3.351 -0.5560  0.1732  0.5065
  298MOL0     C39238   5.357   9.231   3.437  1.1661  0.4064  0.7702
  298MOL0     O39239   5.230   9.203   3.400 -0.4696 -0.1280 -0.0046
  298MOL0     C39240   5.191   9.278   3.284 -0.0943 -0.0413  0.5372
  298MOL0     C39241   5.054   9.217   3.231  0.7251  0.2453  0.4732
  298MOL0     C39242   4.947   9.193   3.344 -0.2368 -0.2233  0.5407
  298MOL0     C39243   4.826   9.122   3.294  0.6679  0.1869  0.3508
  298MOL0     C39244   4.740   9.076   3.412 -0.1012  0.1466  0.3204
  298MOL0     C39245   4.603   9.026   3.359 -0.3796  0.3723  0.1955
  298MOL0     C39246   4.616   8.896   3.281  0.8548 -0.1637 -0.2181
  298MOL0     C39247   4.481   8.819   3.262 -0.7199 -0.7039 -0.2678
  298MOL0    Cl39248   4.338   8.931   3.223 -0.1392  0.1150  0.0475
  298MOL0     C39249   5.382   9.280   3.564  0.1394  0.0085 -0.7934
  298MOL0     C39250   5.518   9.295   3.605 -0.4698  0.3835 -0.6880
  298MOL0     O39251   5.742   9.465   3.671  0.0082  0.2515  0.0058
  298MOL0     C39252   6.004   9.432   3.757  0.1619  0.0762  0.4885
  298MOL0     C39253   6.142   9.432   3.780  0.2648 -0.4120  0.2425
  298MOL0     N39254   6.986   9.246   3.541  0.5136  0.3551 -0.1833
  298MOL0     N39255   7.117   9.251   3.518  0.4890 -1.2879 -0.0532
  298MOL0     C39256   8.001   9.084   2.905 -0.6102 -0.0916  0.9980
  298MOL0     C39257   8.120   9.004   2.908  0.9489 -0.1406 -0.0937
  298MOL0     C39258   8.551   8.864   2.973 -0.3316 -0.5444  0.4582
  298MOL0     C39259   8.650   8.934   2.909 -0.6867 -0.5060  0.4537
  298MOL0     C39260   8.781   8.894   2.932 -0.6934 -0.1370  0.8159
  298MOL0     C39261   8.819   8.792   3.007  0.0024  0.8743 -0.1299
  298MOL0     O39262   8.957   8.778   3.030  0.3092  0.4388 -0.0469
  298MOL0     C39263   9.007   8.668   3.101  0.2918 -0.3897 -0.8933
  298MOL0     C39264   9.165   8.662   3.096 -0.1680 -0.1835  0.3273
  298MOL0     C39265   9.195   8.557   2.991  0.2813 -0.1954  0.4311
  298MOL0     C39266   9.344   8.577   2.951  0.1809 -0.8990 -0.1018
  298MOL0     C39267   9.390   8.462   2.862 -0.3143 -0.6500 -0.7155
  298MOL0     C39268   9.427   8.370   2.797  0.5629  0.1684  0.7630
  298MOL0     C39269   8.722   8.726   3.080  0.7932 -0.3436 -0.2372
  298MOL0     C39270   8.586   8.760   3.066 -0.2630  0.4754  0.2214
  298MOL0     H39271   8.341   9.260   2.884 -2.0217  4.1444  0.2117
  298MOL0     H39272   8.144   9.392   2.881 -1.0124  0.9624 -1.3064
  298MOL0     H39273   7.957   9.478   2.844  0.9500 -1.6724  0.7469
  298MOL0     H39274   7.925   9.443   3.032 -1.5955 -1.8175  2.0030
  298MOL0     H39275   7.728   9.497   2.815  2.8637  2.2999 -1.6019
  298MOL0     H39276   7.786   9.616   2.923  2.2334 -0.8694  0.2038
  298MOL0     H39277   7.699   9.493   3.119 -0.8129  1.9491 -0.1319
  298MOL0     H39278   7.673   9.349   3.021 -0.9688  0.0654  1.2899
  298MOL0     H39279   7.499   9.599   3.019 -1.0524  0.0613 -0.5476
  298MOL0     H39280   7.510   9.495   2.876 -2.3990 -4.4208 -0.1989
  298MOL0     H39281   7.440   9.303   3.031  0.9020 -0.0366 -0.9470
  298MOL0     H39282   7.330   9.440   2.996 -0.6765  0.7177 -0.0249
  298MOL0     H39283   7.394   9.553   3.201  0.7052  0.6044 -1.1571
  298MOL0     H39284   7.499   9.429   3.265 -1.0272  0.9310  1.0580
  298MOL0     H39285   7.201   9.386   3.192 -1.0956  0.8021  1.3921
  298MOL0     H39286   7.309   9.262   3.237 -2.4208 -0.6650 -1.5979
  298MOL0     H39287   7.276   9.516   3.419  0.5359 -0.5781  2.3581
  298MOL0     H39288   7.352   9.368   3.460  2.3943  0.0705 -2.6585
  298MOL0     H39289   7.010   9.526   3.385  0.6440  0.4339  1.3684
  298MOL0     H39290   6.759   9.327   3.370  2.2135 -1.3597  0.3539
  298MOL0     H39291   6.743   9.475   3.476 -0.5770 -0.0898  0.8659
  298MOL0     H39292   6.747   9.321   3.675  1.3066 -1.3963 -0.0915
  298MOL0     H39293   6.705   9.187   3.565 -1.4021  0.3769 -1.2653
  298MOL0     H39294   6.540   9.439   3.562  0.8249 -0.0593  1.0977
  298MOL0     H39295   6.519   9.293   3.458  0.5538 -1.3857 -0.5915
  298MOL0     H39296   6.509   9.198   3.744 -2.0419  1.1761  4.0252
  298MOL0     H39297   6.408   9.180   3.612 -1.2277 -0.9107  2.0742
  298MOL0     H39298   6.232   9.246   3.504 -1.8203  1.0989 -1.8849
  298MOL0     H39299   5.991   9.232   3.475 -1.9137 -0.4335  1.6710
  298MOL0     H39300   5.676   9.184   3.330 -0.5176  0.2586 -2.4472
  298MOL0     H39301   5.447   9.151   3.258 -0.2328  0.5582  0.2270
  298MOL0     H39302   5.268   9.268   3.208 -0.1053 -0.7336  0.6101
  298MOL0     H39303   5.176   9.381   3.318 -0.6453 -0.6930  2.3738
  298MOL0     H39304   5.082   9.120   3.188 -0.2061 -0.2506  0.9515
  298MOL0     H39305   5.005   9.286   3.162 -2.5066 -3.0418 -0.8610
  298MOL0     H39306   4.915   9.291   3.383 -1.1197 -0.9828  1.8030
  298MOL0     H39307   4.989   9.138   3.429 -2.4121 -0.1913  1.7090
  298MOL0     H39308   4.780   9.183   3.215  0.6157  0.9012  0.9296
  298MOL0     H39309   4.854   9.034   3.236 -0.6512  0.4346 -0.7341
  298MOL0     H39310   4.716   9.160   3.478 -1.7536  1.1661 -1.4697
  298MOL0     H39311   4.790   8.992   3.461  0.2489 -1.7954 -3.0153
  298MOL0     H39312   4.555   9.104   3.298 -0.6890 -0.2060 -0.3095
  298MOL0     H39313   4.533   9.003   3.439 -0.5183  3.3231  1.0445
  298MOL0     H39314   4.671   8.909   3.187  3.4233  2.9004  1.5081
  298MOL0     H39315   4.678   8.841   3.352  0.8481 -0.3374 -0.3475
  298MOL0     H39316   4.458   8.779   3.361 -0.5256 -1.1137 -0.3889
  298MOL0     H39317   4.479   8.732   3.196  1.4811 -0.1503 -1.1491
  298MOL0     H39318   5.301   9.305   3.631 -0.9909 -0.2876 -1.9896
  298MOL0     H39319   5.543   9.320   3.707  1.3862 -1.0433 -0.7547
  298MOL0     H39320   5.941   9.489   3.825  1.4422 -0.5974  2.3465
  298MOL0     H39321   6.195   9.477   3.863 -1.1961 -0.8440  1.4700
  298MOL0     H39322   7.907   9.032   2.918 -0.3769 -0.4471  1.3014
  298MOL0     H39323   8.115   8.899   2.934  0.9078 -0.2642 -0.5922
  298MOL0     H39324   8.639   9.021   2.846 -2.4574 -1.9351 -1.3384
  298MOL0     H39325   8.864   8.954   2.897 -0.7748  0.6365  1.8966
  298MOL0     H39326   8.956   8.575   3.075 -0.8032  0.2739 -1.1548
  298MOL0     H39327   8.979   8.686   3.205  0.2171  0.3554 -1.0435
  298MOL0     H39328   9.202   8.761   3.070 -1.4633 -0.7812 -4.8183
  298MOL0     H39329   9.202   8.628   3.193 -1.9067 -0.6584  0.8651
  298MOL0     H39330   9.125   8.563   2.907  0.6078  0.2901  0.1883
  298MOL0     H39331   9.179   8.458   3.034 -0.4884  0.2162  1.1347
  298MOL0     H39332   9.359   8.672   2.899  2.3074 -1.5854 -0.8609
  298MOL0     H39333   9.399   8.582   3.045 -1.4331  0.0197  0.8271
  298MOL0     H39334   9.467   8.303   2.723 -2.3496  0.0359 -0.8554
  298MOL0     H39335   8.727   8.635   3.140 -1.8972 -1.4043 -1.4519
  298MOL0     H39336   8.517   8.709   3.133  0.1691 -0.0775  0.2585
  299MOL0     O39337   4.572   3.364   7.320  0.0373  0.2512 -0.0791
  299MOL0     C39338   4.546   3.323   7.437 -0.2041  0.1569 -0.2904
  299MOL0     O39339   4.422   3.293   7.488  0.2996 -0.6235  0.6540
  299MOL0     C39340   4.328   3.324   7.399  1.6345  0.4864 -0.5974
  299MOL0     C39341   4.254   3.226   7.327 -0.4535  0.5095  0.0699
  299MOL0     C39342   4.134   3.262   7.256 -0.1018  0.3655  0.4005
  299MOL0     C39343   4.103   3.396   7.233  0.7764  0.0588  0.0949
  299MOL0     O39344   3.990   3.443   7.158  0.2817  0.1764  0.2084
  299MOL0     C39345   3.884   3.357   7.115  0.1139  0.5748  0.1580
  299MOL0     C39346   3.793   3.442   7.018  0.2618 -0.3193 -0.6377
  299MOL0     C39347   3.651   3.405   7.034  0.3756 -0.3769  0.5119
  299MOL0     C39348   3.557   3.495   6.951  0.4008 -0.0470 -0.1685
  299MOL0     C39349   3.419   3.432   6.932 -0.2431  0.3434 -0.2657
  299MOL0     C39350   3.313   3.542   6.897  0.3678 -0.1576  0.7636
  299MOL0     C39351   3.169   3.482   6.908  0.3978 -0.4861 -0.4517
  299MOL0     C39352   3.061   3.576   6.881  0.2539 -0.0182 -1.3621
  299MOL0     N39353   2.933   3.535   6.937 -0.3758 -0.0517 -0.0035
  299MOL0     C39354   2.894   3.513   7.064 -1.5996 -0.2786 -0.3810
  299MOL0     C39355   2.765   3.478   7.054 -0.9423 -0.2117 -0.3983
  299MOL0     C39356   2.683   3.437   7.177 -0.2279  0.3835 -0.5595
  299MOL0     C39357   2.709   3.295   7.229  0.3759 -0.4985  0.4267
  299MOL0     C39358   2.720   3.304   7.382  0.1764  0.0999  0.1406
  299MOL0     C39359   2.869   3.329   7.418 -0.9408  0.7792  0.0740
  299MOL0     O39360   2.898   3.332   7.563 -0.2053 -0.1062  0.0282
  299MOL0     C39361   3.028   3.311   7.594  1.3837  0.3793 -0.3292
  299MOL0     C39362   3.047   3.271   7.729 -0.0541 -0.3415 -0.0849
  299MOL0     C39363   3.180   3.247   7.770  0.8620 -0.7290  0.1050
  299MOL0     C39364   3.289   3.262   7.679  0.3568  0.6976 -1.3583
  299MOL0     C39365   3.426   3.245   7.721 -0.7243  0.2608  0.5123
  299MOL0     O39366   3.521   3.216   7.622 -0.0392  0.9728 -0.2911
  299MOL0     C39367   3.651   3.182   7.648 -0.5422  0.6814  0.7161
  299MOL0     C39368   3.699   3.130   7.766 -0.2903 -0.3215 -0.0584
  299MOL0     C39369   3.838   3.093   7.782  0.3477 -0.2936  0.2134
  299MOL0     C39370   3.928   3.121   7.684 -0.0980 -0.4624  0.0661
  299MOL0     O39371   4.065   3.099   7.703 -0.4733  0.4452  0.0322
  299MOL0     C39372   4.089   2.957   7.718  0.4974 -0.7727 -0.2898
  299MOL0     C39373   4.238   2.927   7.766 -0.9215 -0.5700  0.1238
  299MOL0     C39374   4.352   2.953   7.669  0.5860  0.0323  0.1570
  299MOL0     C39375   4.486   2.914   7.730 -0.0688  0.2706  0.3678
  299MOL0     C39376   4.597   2.942   7.630 -0.1138  0.1271  0.5488
  299MOL0     C39377   4.741   2.965   7.683  0.3989 -0.0146 -0.4152
  299MOL0     C39378   4.794   2.841   7.752  0.3260 -0.0774 -0.2174
  299MOL0     C39379   4.929   2.874   7.824 -0.0151 -0.0089 -0.5076
  299MOL0    Cl39380   4.912   2.965   7.978  0.1448  0.0465  0.1193
  299MOL0     C39381   3.885   3.179   7.563 -0.2967 -0.0691 -0.3060
  299MOL0     C39382   3.745   3.203   7.543  0.6013 -0.5876  0.2400
  299MOL0     O39383   3.454   3.267   7.842  0.3939  0.2157  0.1808
  299MOL0     C39384   3.259   3.288   7.551  0.2276  0.2682 -0.1605
  299MOL0     C39385   3.133   3.308   7.509 -0.3612 -1.2238 -0.5463
  299MOL0     N39386   2.730   3.476   6.919  0.0581 -0.7953  0.0464
  299MOL0     N39387   2.827   3.515   6.853 -0.7278 -0.2419  0.5331
  299MOL0     C39388   4.171   3.492   7.289  0.0860  0.0149 -1.2518
  299MOL0     C39389   4.286   3.458   7.373  0.2373 -0.7007  0.4149
  299MOL0     C39390   4.664   3.316   7.533 -0.2569  0.1941  0.3087
  299MOL0     C39391   4.632   3.308   7.667  0.0840  0.2999  0.7036
  299MOL0     C39392   4.733   3.323   7.758  0.5013  0.1829 -0.4651
  299MOL0     C39393   4.868   3.329   7.721  0.2501 -0.5895  0.6706
  299MOL0     O39394   4.954   3.340   7.826 -0.0658  0.0240 -0.2401
  299MOL0     C39395   5.089   3.379   7.793 -1.0629  0.6556 -0.3817
  299MOL0     C39396   5.168   3.251   7.770 -0.0069  0.7688  0.7510
  299MOL0     C39397   5.321   3.279   7.753 -0.4987  0.4509 -0.2651
  299MOL0     C39398   5.396   3.146   7.732 -0.1597  0.1071  0.1203
  299MOL0     C39399   5.537   3.169   7.709 -0.4064  0.2533 -0.2971
  299MOL0     C39400   5.658   3.192   7.686 -0.2236  0.4282 -0.0914
  299MOL0     C39401   4.903   3.322   7.585 -0.0753 -0.0392 -0.6430
  299MOL0     C39402   4.797   3.315   7.495 -0.2924  0.2385 -0.4829
  299MOL0     H39403   4.276   3.122   7.348 -0.8194  0.3458 -0.3413
  299MOL0     H39404   4.065   3.194   7.206  0.6971 -0.4975  0.4519
  299MOL0     H39405   3.832   3.313   7.200 -1.0038 -0.3779 -0.9796
  299MOL0     H39406   3.942   3.280   7.063  0.9221  1.6514 -0.6002
  299MOL0     H39407   3.831   3.430   6.916  5.7179 -2.9727  1.2775
  299MOL0     H39408   3.812   3.547   7.042  1.6448 -0.5491 -0.5997
  299MOL0     H39409   3.618   3.422   7.137 -0.8742  1.2093 -0.1126
  299MOL0     H39410   3.637   3.300   7.008 -0.2302  0.1916 -1.6338
  299MOL0     H39411   3.542   3.591   7.000 -0.9817 -1.6160  2.6934
  299MOL0     H39412   3.597   3.508   6.849 -1.2498 -2.5323 -1.2336
  299MOL0     H39413   3.398   3.382   7.027  1.8169 -2.0551 -0.9603
  299MOL0     H39414   3.416   3.358   6.851 -0.9642 -1.4045  1.2874
  299MOL0     H39415   3.320   3.580   6.795 -1.5663 -2.3455 -0.2726
  299MOL0     H39416   3.320   3.633   6.957 -3.3304  2.1563 -1.8263
  299MOL0     H39417   3.159   3.397   6.840  1.1345 -2.3228  1.6229
  299MOL0     H39418   3.173   3.437   7.008  1.7698 -0.2216 -0.3571
  299MOL0     H39419   3.045   3.587   6.774 -2.1971 -1.0694 -1.1866
  299MOL0     H39420   3.069   3.677   6.922  0.0278  0.0362 -1.4457
  299MOL0     H39421   2.957   3.528   7.151  2.3665 -1.7772 -2.7034
  299MOL0     H39422   2.578   3.464   7.165 -0.0016  1.6610  0.1442
  299MOL0     H39423   2.714   3.505   7.256 -1.5693 -2.7171  2.9404
  299MOL0     H39424   2.802   3.253   7.189 -1.1792 -1.7340 -2.2353
  299MOL0     H39425   2.624   3.231   7.201 -3.1110  2.6134  2.9750
  299MOL0     H39426   2.656   3.382   7.424 -1.4768  0.2616 -2.4277
  299MOL0     H39427   2.678   3.214   7.427  0.8502 -0.4564 -0.3313
  299MOL0     H39428   2.908   3.420   7.371 -1.0626 -0.2808 -2.1786
  299MOL0     H39429   2.920   3.249   7.363 -0.9877  0.6245  0.2539
  299MOL0     H39430   2.966   3.255   7.799  1.1369 -3.9487  0.6434
  299MOL0     H39431   3.209   3.226   7.872  2.1576 -0.1060 -0.1126
  299MOL0     H39432   3.636   3.121   7.853  0.4532 -1.1314  0.4159
  299MOL0     H39433   3.865   3.046   7.876  0.0886  2.3022  1.6744
  299MOL0     H39434   4.066   2.913   7.620 -1.2249  1.2659 -0.8947
  299MOL0     H39435   4.023   2.908   7.789  0.2304  2.1712  1.6791
  299MOL0     H39436   4.246   2.826   7.806  1.3621 -0.6616 -0.3964
  299MOL0     H39437   4.260   2.994   7.849  2.3135  0.7579 -1.6132
  299MOL0     H39438   4.356   3.061   7.652 -1.0981 -0.0708 -1.1691
  299MOL0     H39439   4.338   2.891   7.580  3.1734  0.7027 -0.7997
  299MOL0     H39440   4.505   2.976   7.818 -1.4020  1.4657 -0.1370
  299MOL0     H39441   4.487   2.811   7.765 -1.4632 -0.2840 -1.1002
  299MOL0     H39442   4.571   3.025   7.564 -0.4377  1.5354  2.3584
  299MOL0     H39443   4.601   2.848   7.573 -3.8613  0.6690 -0.8956
  299MOL0     H39444   4.727   3.041   7.761 -0.2694 -1.4661  0.9338
  299MOL0     H39445   4.804   2.995   7.599 -2.7623  1.2295 -2.5421
  299MOL0     H39446   4.727   2.819   7.836  0.8289  2.7575  1.0424
  299MOL0     H39447   4.807   2.757   7.683  0.9965 -1.1950  1.2023
  299MOL0     H39448   4.998   2.933   7.763 -0.6002  0.3953 -0.7938
  299MOL0     H39449   4.979   2.783   7.856 -0.3711 -0.2674 -0.6862
  299MOL0     H39450   3.961   3.200   7.489 -1.2177 -2.9507 -2.2365
  299MOL0     H39451   3.703   3.247   7.454  2.8093  1.7057  0.2415
  299MOL0     H39452   3.341   3.299   7.481  0.2577  2.3099  0.1222
  299MOL0     H39453   3.133   3.333   7.403  1.7305 -1.4003 -0.6408
  299MOL0     H39454   4.124   3.590   7.284  0.5001  0.3288  0.4407
  299MOL0     H39455   4.331   3.545   7.419  0.2298  0.0063 -0.8716
  299MOL0     H39456   4.531   3.284   7.699  0.8862 -2.2413  1.5796
  299MOL0     H39457   4.712   3.323   7.864 -1.0564 -0.0414 -0.7515
  299MOL0     H39458   5.147   3.426   7.874  2.8298 -1.3430 -1.7674
  299MOL0     H39459   5.102   3.445   7.707 -0.9616  2.4757  0.9694
  299MOL0     H39460   5.151   3.191   7.860  1.2627 -0.4879  0.1888
  299MOL0     H39461   5.128   3.193   7.686 -0.1152  1.3669  0.3868
  299MOL0     H39462   5.358   3.330   7.842  0.9817 -1.6746  0.4089
  299MOL0     H39463   5.325   3.342   7.663 -2.6024  0.7650 -0.1904
  299MOL0     H39464   5.376   3.076   7.813  4.4381 -0.2004  1.2672
  299MOL0     H39465   5.361   3.103   7.638 -0.6434  3.1857 -1.2223
  299MOL0     H39466   5.757   3.225   7.660  0.4112 -2.5137 -1.8295
  299MOL0     H39467   5.003   3.304   7.545  0.5242 -0.3957  0.9448
  299MOL0     H39468   4.822   3.297   7.391  1.2557 -0.0077 -0.0858
  300MOL0     O39469   6.289   7.119  10.327  0.4840  1.0107  0.0316
  300MOL0     C39470   6.331   7.029  10.257 -0.9996 -0.8378 -0.4374
  300MOL0     O39471   6.265   6.908  10.234 -0.8504  0.0332 -0.5862
  300MOL0     C39472   6.138   6.899  10.274 -0.0079 -0.2450  0.0376
  300MOL0     C39473   6.110   6.864  10.406  0.7533  0.6397 -0.5181
  300MOL0     C39474   5.976   6.849  10.440  0.7623 -0.0612 -0.6451
  300MOL0     C39475   5.867   6.864  10.346 -0.5713 -0.5813 -0.0134
  300MOL0     O39476   5.736   6.844  10.378 -0.1279  0.4876  0.3664
  300MOL0     C39477   5.651   6.785  10.278  0.9138 -0.0491 -0.2283
  300MOL0     C39478   5.544   6.873  10.219 -0.1049 -0.0630 -0.0915
  300MOL0     C39479   5.448   6.795  10.124 -0.2430  0.1934  1.1490
  300MOL0     C39480   5.360   6.902  10.056 -0.4300  0.1786  0.3198
  300MOL0     C39481   5.263   6.840   9.967 -0.1774 -0.8340 -0.8155
  300MOL0     C39482   5.123   6.916   9.962  0.1149  0.3115 -0.2697
  300MOL0     C39483   5.003   6.855   9.886 -0.4795  0.8150  0.1977
  300MOL0     C39484   4.884   6.946   9.916 -0.0456  0.6048  0.2402
  300MOL0     N39485   4.760   6.883   9.870 -0.4950 -0.4199  0.0070
  300MOL0     C39486   4.696   6.774   9.921 -0.5351 -0.4299 -0.1466
  300MOL0     C39487   4.577   6.774   9.866 -0.1668 -0.1793  0.0752
  300MOL0     C39488   4.469   6.672   9.902 -0.1778  0.6066  0.2661
  300MOL0     C39489   4.345   6.695   9.820 -0.3514 -0.0186  0.6524
  300MOL0     C39490   4.235   6.599   9.848 -1.2101  0.3134 -0.1202
  300MOL0     C39491   4.118   6.638   9.763  0.5613 -0.6738  0.2689
  300MOL0     O39492   4.052   6.763   9.804  0.2157  0.4260 -0.0747
  300MOL0     C39493   3.935   6.801   9.743  0.4128  0.4540 -0.4116
  300MOL0     C39494   3.889   6.759   9.618  0.1562 -0.0122 -0.1343
  300MOL0     C39495   3.769   6.801   9.568  1.0911 -0.5812  0.0859
  300MOL0     C39496   3.685   6.884   9.647 -0.1792  0.8671  0.2718
  300MOL0     C39497   3.557   6.931   9.595 -0.3292 -0.2575 -0.4709
  300MOL0     O39498   3.472   6.985   9.694 -0.5892 -0.0623 -0.8035
  300MOL0     C39499   3.343   7.027   9.666  0.4064 -0.2169  0.1952
  300MOL0     C39500   3.302   7.084   9.550 -1.0956  0.2218  0.0838
  300MOL0     C39501   3.174   7.124   9.526 -0.8614  0.0413 -0.5021
  300MOL0     C39502   3.078   7.123   9.627 -0.1202 -0.1057  0.0779
  300MOL0     O39503   2.946   7.149   9.593 -0.5749 -0.3460 -0.0122
  300MOL0     C39504   2.835   7.124   9.677  0.0623  0.3943 -0.4770
  300MOL0     C39505   2.703   7.146   9.606  0.3493 -0.3081  0.1083
  300MOL0     C39506   2.684   7.289   9.549 -0.3399  0.1065 -0.4306
  300MOL0     C39507   2.557   7.310   9.472 -0.1365 -0.1742  0.2214
  300MOL0     C39508   2.538   7.423   9.372 -1.1669  0.1750  0.6925
  300MOL0     C39509   2.618   7.387   9.237 -0.0663  0.0697  0.2366
  300MOL0     C39510   2.603   7.500   9.129 -0.6296 -0.1181 -0.0929
  300MOL0     C39511   2.625   7.445   8.985  1.0038  0.6414 -0.1820
  300MOL0    Cl39512   2.527   7.300   8.944  0.2685  0.1020  0.0227
  300MOL0     C39513   3.117   7.084   9.751  0.2802 -0.1931 -0.9116
  300MOL0     C39514   3.247   7.029   9.776 -0.5224 -0.0919  0.7153
  300MOL0     O39515   3.523   6.909   9.477  0.1076  0.2634 -0.1679
  300MOL0     C39516   3.736   6.923   9.783  0.6305 -0.2584 -0.1551
  300MOL0     C39517   3.870   6.894   9.812 -0.5051  0.1843  0.2892
  300MOL0     N39518   4.561   6.890   9.785 -0.2246 -0.1671  0.6471
  300MOL0     N39519   4.670   6.950   9.789 -0.4663 -1.1625 -0.1922
  300MOL0     C39520   5.903   6.907  10.219  0.3109  0.3441  0.5986
  300MOL0     C39521   6.035   6.924  10.180 -0.7477  0.8273 -0.0307
  300MOL0     C39522   6.470   7.044  10.209 -0.4896  0.3444  0.5987
  300MOL0     C39523   6.557   7.146  10.250 -1.3826  0.0064  0.1570
  300MOL0     C39524   6.686   7.149  10.197  0.8447 -0.1021 -0.1530
  300MOL0     C39525   6.728   7.053  10.108  0.0573  0.2993 -0.4946
  300MOL0     O39526   6.859   7.069  10.063 -0.1312  0.0904  0.0607
  300MOL0     C39527   6.912   6.991   9.961  0.4597 -0.1779  0.2961
  300MOL0     C39528   7.063   7.004   9.934  0.2713 -0.2707 -0.0483
  300MOL0     C39529   7.113   7.146   9.890  0.0555  0.1085  0.4388
  300MOL0     C39530   7.051   7.175   9.748 -1.0219 -0.5654 -0.8052
  300MOL0     C39531   7.106   7.296   9.701 -0.6232 -0.9362  0.6113
  300MOL0     C39532   7.151   7.402   9.644 -0.4236 -0.0884  1.0035
  300MOL0     C39533   6.636   6.964  10.053  0.4078 -0.6601 -0.0467
  300MOL0     C39534   6.508   6.961  10.109 -0.4329  0.1965 -0.4221
  300MOL0     H39535   6.191   6.840  10.473 -0.6759 -1.7197  0.5004
  300MOL0     H39536   5.942   6.813  10.536 -1.4471  1.8926 -0.5912
  300MOL0     H39537   5.604   6.700  10.329  1.6764 -0.9141 -0.9371
  300MOL0     H39538   5.712   6.748  10.195  1.5920  1.6133 -0.5146
  300MOL0     H39539   5.594   6.955  10.166  0.3978 -0.1834  0.1853
  300MOL0     H39540   5.482   6.919  10.296 -3.7008 -2.1001 -1.5292
  300MOL0     H39541   5.403   6.711  10.179  1.2291 -0.5492  1.2664
  300MOL0     H39542   5.507   6.746  10.046 -0.2617 -1.3674  2.0622
  300MOL0     H39543   5.303   6.950  10.135 -1.0985 -0.2258  0.0895
  300MOL0     H39544   5.416   6.983  10.009 -0.3280 -0.9915 -1.7054
  300MOL0     H39545   5.242   6.736   9.993  0.8742 -0.7222  0.5612
  300MOL0     H39546   5.315   6.833   9.871 -0.0215 -0.7067 -0.7400
  300MOL0     H39547   5.137   7.018   9.924  1.3400  0.0833 -0.4430
  300MOL0     H39548   5.086   6.933  10.063 -1.1230  2.0711 -0.9504
  300MOL0     H39549   5.018   6.842   9.778 -1.9509  3.9084 -0.4792
  300MOL0     H39550   4.996   6.751   9.918  0.6115  0.4937 -0.5472
  300MOL0     H39551   4.908   7.040   9.864 -2.0704  0.7454 -0.5451
  300MOL0     H39552   4.872   6.959  10.024  2.3107 -3.9357  1.2665
  300MOL0     H39553   4.735   6.693   9.981 -0.2233  0.6712  1.1578
  300MOL0     H39554   4.457   6.665  10.010  2.4367  1.6467  0.6917
  300MOL0     H39555   4.518   6.580   9.869  3.2535  1.0467  3.5447
  300MOL0     H39556   4.376   6.679   9.716 -0.9494  0.1094  0.4497
  300MOL0     H39557   4.314   6.799   9.834 -1.9225 -0.3660 -0.0141
  300MOL0     H39558   4.264   6.497   9.822  2.1950  1.0901  0.2803
  300MOL0     H39559   4.215   6.608   9.956  0.5243  1.1095  0.1581
  300MOL0     H39560   4.041   6.561   9.775 -0.0114 -0.0656  0.5238
  300MOL0     H39561   4.156   6.642   9.661 -2.1089 -1.3581 -0.8267
  300MOL0     H39562   3.953   6.700   9.552  0.4208 -0.7243  0.7448
  300MOL0     H39563   3.734   6.755   9.476  2.6827 -0.0629 -0.8270
  300MOL0     H39564   3.375   7.095   9.471 -1.1912 -1.8497 -0.3577
  300MOL0     H39565   3.155   7.164   9.427 -1.1943  1.9321  0.2731
  300MOL0     H39566   2.840   7.203   9.752  2.8497  0.9418 -1.1191
  300MOL0     H39567   2.841   7.028   9.730  0.5564  0.4638 -0.4068
  300MOL0     H39568   2.633   7.131   9.689  0.2756  1.6695  0.4581
  300MOL0     H39569   2.687   7.075   9.524 -1.8474 -0.5143  0.6423
  300MOL0     H39570   2.771   7.310   9.486 -0.3655 -2.8992 -1.6039
  300MOL0     H39571   2.690   7.362   9.630 -0.9871 -1.8357  1.4671
  300MOL0     H39572   2.532   7.219   9.417 -0.0530  0.8730 -1.6270
  300MOL0     H39573   2.480   7.323   9.548  0.0186  0.5377  0.2705
  300MOL0     H39574   2.584   7.516   9.406 -1.6795  0.2475  1.2110
  300MOL0     H39575   2.430   7.439   9.356 -1.5179 -1.5193  1.2355
  300MOL0     H39576   2.569   7.294   9.206 -1.4968  0.5945  0.8437
  300MOL0     H39577   2.725   7.376   9.257 -0.2365  0.5868  1.4602
  300MOL0     H39578   2.504   7.545   9.140 -0.1565  1.4678 -1.8233
  300MOL0     H39579   2.674   7.578   9.157 -1.2143 -0.4501  2.6402
  300MOL0     H39580   2.730   7.417   8.972  0.6747 -0.7637  0.0346
  300MOL0     H39581   2.598   7.529   8.921 -4.2335  3.4012  4.7221
  300MOL0     H39582   3.057   7.093   9.841 -0.2814  1.1511 -1.3813
  300MOL0     H39583   3.273   6.984   9.871 -1.5380 -0.7900  0.6742
  300MOL0     H39584   3.672   6.987   9.843  0.3384 -0.7944  0.1221
  300MOL0     H39585   3.914   6.936   9.901  2.8633  0.2663 -1.2687
  300MOL0     H39586   5.829   6.939  10.146  0.2922 -0.0902  0.4200
  300MOL0     H39587   6.061   6.955  10.079 -1.2555 -0.4090 -0.5558
  300MOL0     H39588   6.517   7.230  10.306 -0.4920  0.7633 -0.3162
  300MOL0     H39589   6.750   7.234  10.222 -2.7619  2.5869  0.7829
  300MOL0     H39590   6.857   7.012   9.869 -1.6389 -0.4976  1.4095
  300MOL0     H39591   6.884   6.889   9.987 -1.5783  0.6343  1.6052
  300MOL0     H39592   7.122   6.981  10.023  2.4122 -0.6509 -1.4622
  300MOL0     H39593   7.092   6.928   9.860  3.4725  0.1913  0.5539
  300MOL0     H39594   7.221   7.160   9.904  0.2537 -1.2179  0.3452
  300MOL0     H39595   7.067   7.219   9.958 -0.1337 -0.2969  0.7553
  300MOL0     H39596   7.087   7.100   9.677  1.6768 -0.2333  0.0918
  300MOL0     H39597   6.942   7.188   9.758 -0.5451  2.4254  3.8279
  300MOL0     H39598   7.170   7.486   9.580  0.5305 -1.6332 -0.8254
  300MOL0     H39599   6.649   6.890   9.974 -2.3851  1.2174 -2.4740
  300MOL0     H39600   6.433   6.894  10.069  0.5130 -0.5787 -0.9609
  301MOL0     O39601   6.416  10.276   3.939  0.7914 -0.1768 -0.1551
  301MOL0     C39602   6.479  10.346   3.858 -0.7241 -0.5799  0.4042
  301MOL0     O39603   6.429  10.404   3.742 -0.5569 -0.2260  0.1006
  301MOL0     C39604   6.309  10.356   3.694  0.9344 -0.1565 -0.5382
  301MOL0     C39605   6.269  10.220   3.698  0.3578 -0.1779 -1.0501
  301MOL0     C39606   6.147  10.177   3.649  0.2358 -0.1550  0.1947
  301MOL0     C39607   6.059  10.263   3.580  0.8087  0.7212 -0.0030
  301MOL0     O39608   5.935  10.210   3.540  0.3414  0.1750 -0.0450
  301MOL0     C39609   5.836  10.299   3.496  0.6167  0.4868  0.8587
  301MOL0     C39610   5.714  10.212   3.447 -0.3744  0.0213 -0.1182
  301MOL0     C39611   5.610  10.298   3.380  0.4243 -1.0663  1.0146
  301MOL0     C39612   5.497  10.194   3.342 -1.0917 -0.7741 -0.1626
  301MOL0     C39613   5.381  10.271   3.283 -0.8237  0.1298  0.3464
  301MOL0     C39614   5.285  10.170   3.213  0.2541 -0.3299 -0.0769
  301MOL0     C39615   5.169  10.232   3.132  0.4993  0.8324 -0.5610
  301MOL0     C39616   5.090  10.329   3.217  0.5727  0.7268  0.2595
  301MOL0     N39617   4.970  10.369   3.155 -0.0551  0.2349 -0.8027
  301MOL0     C39618   4.972  10.474   3.066 -0.6086  0.0404 -1.0348
  301MOL0     C39619   4.844  10.495   3.033  0.1554 -0.0506  0.1563
  301MOL0     C39620   4.769  10.573   2.935  0.4612 -0.2743  0.5585
  301MOL0     C39621   4.624  10.611   2.973 -0.4551 -0.4896 -0.7766
  301MOL0     C39622   4.578  10.705   2.858  0.5500  0.4368  0.1366
  301MOL0     C39623   4.429  10.723   2.870 -0.6125 -0.0349 -0.1863
  301MOL0     O39624   4.398  10.834   2.787 -0.1603  0.9139  0.0479
  301MOL0     C39625   4.266  10.881   2.781  0.1525  0.3360 -0.4941
  301MOL0     C39626   4.250  11.001   2.719 -0.4199  0.7307  0.2674
  301MOL0     C39627   4.127  11.066   2.708 -0.1648  0.0829  0.4071
  301MOL0     C39628   4.008  11.003   2.760 -0.2835  0.5560 -0.2826
  301MOL0     C39629   3.885  11.076   2.754  0.7628  1.0618  0.6684
  301MOL0     O39630   3.872  11.183   2.667 -0.1474 -0.5587 -0.0456
  301MOL0     C39631   3.753  11.245   2.631 -0.1337  0.4835  0.2045
  301MOL0     C39632   3.757  11.342   2.530  0.3332 -0.0677 -0.0716
  301MOL0     C39633   3.642  11.398   2.478 -0.5102 -1.4205  0.1419
  301MOL0     C39634   3.511  11.374   2.527  0.8421 -0.3781 -0.3667
  301MOL0     O39635   3.397  11.443   2.488 -0.2079  0.8527  0.2606
  301MOL0     C39636   3.270  11.386   2.514 -0.2867  0.3128  0.1908
  301MOL0     C39637   3.166  11.470   2.436 -0.4238  0.2241  0.1377
  301MOL0     C39638   3.192  11.455   2.290 -0.7503 -0.0844 -0.0304
  301MOL0     C39639   3.123  11.563   2.203  0.1026  0.6754 -0.0048
  301MOL0     C39640   3.077  11.524   2.062 -0.3576 -0.1218 -0.3947
  301MOL0     C39641   3.201  11.544   1.966 -1.0635 -0.8715  0.0527
  301MOL0     C39642   3.177  11.483   1.832  0.2199 -0.1984  0.4719
  301MOL0     C39643   3.313  11.446   1.763  0.0807 -0.0237  0.4179
  301MOL0    Cl39644   3.421  11.585   1.733 -0.0404 -0.1738  0.2289
  301MOL0     C39645   3.506  11.284   2.634  0.0970 -0.1912  0.6688
  301MOL0     C39646   3.622  11.225   2.686 -0.6797  0.4002  0.2162
  301MOL0     O39647   3.793  11.028   2.818  0.5339 -0.2358  0.5869
  301MOL0     C39648   4.026  10.874   2.820 -0.0386  0.3163 -0.2594
  301MOL0     C39649   4.154  10.819   2.835 -0.8780  0.1134 -0.8064
  301MOL0     N39650   4.766  10.408   3.106 -0.0478  0.1582  0.3629
  301MOL0     N39651   4.837  10.332   3.177 -0.4114 -0.5558 -0.1468
  301MOL0     C39652   6.096  10.399   3.582 -0.0606 -0.1494 -0.7451
  301MOL0     C39653   6.213  10.445   3.642  0.7330 -0.0578 -0.4418
  301MOL0     C39654   6.617  10.376   3.896 -0.6857 -1.0648 -0.4601
  301MOL0     C39655   6.712  10.412   3.801  0.5049 -0.7709  1.4406
  301MOL0     C39656   6.841  10.435   3.834 -0.3654  1.1419  0.3476
  301MOL0     C39657   6.882  10.436   3.967  0.2676  0.1386 -0.3195
  301MOL0     O39658   7.017  10.454   4.002  0.1820 -0.5191 -0.0180
  301MOL0     C39659   7.121  10.454   3.897 -0.0412 -0.2156 -0.2251
  301MOL0     C39660   7.258  10.479   3.969  0.3229  0.7732 -0.2507
  301MOL0     C39661   7.305  10.355   4.051 -0.4426 -0.3668  0.2850
  301MOL0     C39662   7.365  10.393   4.185  0.4861 -0.3918 -0.0761
  301MOL0     C39663   7.503  10.432   4.170 -0.0948 -0.4019  0.1393
  301MOL0     C39664   7.628  10.447   4.161  0.6516 -0.5318 -0.0069
  301MOL0     C39665   6.791  10.405   4.066  0.1945 -0.4401 -0.1758
  301MOL0     C39666   6.659  10.378   4.035  0.7131  0.5017  0.5333
  301MOL0     H39667   6.338  10.150   3.744  1.7076  1.5618 -0.2817
  301MOL0     H39668   6.130  10.070   3.654  0.2120 -0.0857  2.6788
  301MOL0     H39669   5.862  10.354   3.405 -2.2394 -1.0485 -1.0244
  301MOL0     H39670   5.806  10.364   3.579  1.0807  1.4516  0.2933
  301MOL0     H39671   5.678  10.146   3.527 -0.9235 -1.1794 -1.3128
  301MOL0     H39672   5.744  10.140   3.370 -1.0470 -0.0477 -0.3172
  301MOL0     H39673   5.655  10.333   3.287  0.0128 -1.0211  0.8316
  301MOL0     H39674   5.582  10.389   3.433 -0.2468  0.0208 -1.0744
  301MOL0     H39675   5.528  10.123   3.265 -0.5830  0.1451 -0.8173
  301MOL0     H39676   5.477  10.129   3.428  0.2148 -1.9482 -0.7095
  301MOL0     H39677   5.420  10.338   3.206 -2.1136 -0.4604 -0.8479
  301MOL0     H39678   5.331  10.330   3.361 -0.1144 -1.8986  2.4703
  301MOL0     H39679   5.238  10.115   3.294 -0.3723 -0.4466 -0.5075
  301MOL0     H39680   5.337  10.107   3.139  0.4554 -0.0033 -0.2159
  301MOL0     H39681   5.199  10.271   3.035  0.9308  0.4141 -0.5931
  301MOL0     H39682   5.101  10.149   3.111  0.9880 -0.0467  1.1626
  301MOL0     H39683   5.152  10.418   3.234  2.7522 -0.3520 -1.5833
  301MOL0     H39684   5.081  10.289   3.319  1.6763 -0.1040  0.0615
  301MOL0     H39685   5.057  10.526   3.021 -0.1857 -1.5070 -2.1083
  301MOL0     H39686   4.747  10.504   2.853 -2.1899 -1.7376  2.3674
  301MOL0     H39687   4.823  10.664   2.908  0.1788  0.0840  1.1969
  301MOL0     H39688   4.614  10.660   3.070 -2.7161 -2.2464 -0.0166
  301MOL0     H39689   4.567  10.520   2.993  0.4634 -1.0168 -0.5078
  301MOL0     H39690   4.619  10.806   2.856 -0.6367  0.9393 -1.6389
  301MOL0     H39691   4.594  10.656   2.762 -1.3051  0.0902 -0.0258
  301MOL0     H39692   4.415  10.759   2.973  3.9542  1.0787  0.2570
  301MOL0     H39693   4.372  10.630   2.857  1.5325 -1.8594  2.3578
  301MOL0     H39694   4.338  11.043   2.671  0.1039  1.3210  1.6933
  301MOL0     H39695   4.133  11.160   2.653 -0.5749  1.0802  2.0051
  301MOL0     H39696   3.850  11.359   2.476 -1.0290 -1.1547 -2.9796
  301MOL0     H39697   3.641  11.462   2.391 -0.0172  1.0174  1.8199
  301MOL0     H39698   3.267  11.386   2.624  2.1770  0.6560  0.3171
  301MOL0     H39699   3.257  11.282   2.483 -0.7260  0.7106 -1.0052
  301MOL0     H39700   3.187  11.577   2.446 -0.0352  0.1468  0.1601
  301MOL0     H39701   3.067  11.445   2.475 -0.2960  0.6691  0.7782
  301MOL0     H39702   3.151  11.361   2.253 -0.2349  0.3603 -1.8458
  301MOL0     H39703   3.297  11.440   2.267 -1.0612 -2.3384 -0.2467
  301MOL0     H39704   3.032  11.587   2.260  0.1052  2.4678 -0.6839
  301MOL0     H39705   3.187  11.652   2.205  1.8880 -0.5310 -0.9875
  301MOL0     H39706   3.004  11.593   2.018 -0.2607 -0.1494 -0.5968
  301MOL0     H39707   3.039  11.422   2.062 -1.2071  0.1566  1.2002
  301MOL0     H39708   3.289  11.495   2.010 -1.5158 -3.2829 -1.4927
  301MOL0     H39709   3.227  11.649   1.954  4.2101 -1.8391  0.4770
  301MOL0     H39710   3.118  11.391   1.840  0.6935 -0.5211  0.2521
  301MOL0     H39711   3.107  11.544   1.775 -2.0908 -3.0361  0.0021
  301MOL0     H39712   3.287  11.397   1.669  3.0323 -2.7684  0.8532
  301MOL0     H39713   3.363  11.370   1.824  2.5851 -0.6698 -2.1934
  301MOL0     H39714   3.417  11.242   2.682  0.3934 -0.3558  1.0815
  301MOL0     H39715   3.606  11.158   2.769 -2.0331 -0.1164 -0.4399
  301MOL0     H39716   3.943  10.823   2.868  1.7411 -2.3659  0.2114
  301MOL0     H39717   4.164  10.717   2.869 -1.0195  0.6824  1.0310
  301MOL0     H39718   6.029  10.474   3.543 -0.5734 -0.0137  0.3695
  301MOL0     H39719   6.222  10.553   3.646 -1.7613  0.1640  0.8283
  301MOL0     H39720   6.684  10.406   3.697  0.7136  1.9804  1.1636
  301MOL0     H39721   6.912  10.447   3.753  0.4973 -0.5393  0.8161
  301MOL0     H39722   7.101  10.525   3.816 -0.5049 -0.6892 -0.5309
  301MOL0     H39723   7.128  10.354   3.852  0.0514 -0.3011 -0.0247
  301MOL0     H39724   7.323  10.498   3.884  0.4138  1.8539  0.0472
  301MOL0     H39725   7.245  10.569   4.031 -1.0804 -0.0121  0.6575
  301MOL0     H39726   7.368  10.288   3.992  1.1228 -0.2842  1.8139
  301MOL0     H39727   7.220  10.295   4.085 -1.7162  0.9015 -0.5289
  301MOL0     H39728   7.299  10.473   4.220  4.2482  2.7595  0.5260
  301MOL0     H39729   7.361  10.304   4.248  1.1083  0.1211  0.7059
  301MOL0     H39730   7.734  10.459   4.155  0.3321  2.5018 -1.3039
  301MOL0     H39731   6.807  10.408   4.174 -2.5135 -0.8131  0.2923
  301MOL0     H39732   6.586  10.345   4.108  1.0845 -1.5023  0.0659
  302MOL0     O39733   1.034   5.765  11.160 -1.0006 -0.1900  0.0998
  302MOL0     C39734   1.140   5.726  11.116  0.5729  0.0943 -0.2222
  302MOL0     O39735   1.149   5.656  10.997 -0.0103  0.2236  0.2089
  302MOL0     C39736   1.033   5.616  10.939  0.5678 -0.2658 -0.5231
  302MOL0     C39737   0.918   5.547  10.996  0.3022  0.1100 -0.7011
  302MOL0     C39738   0.808   5.514  10.923 -0.0474 -0.2672  0.0809
  302MOL0     C39739   0.801   5.542  10.786 -0.8911  0.8269  0.4514
  302MOL0     O39740   0.687   5.522  10.708 -0.5982  0.6242  0.3711
  302MOL0     C39741   0.573   5.460  10.767  0.3362  0.4268 -0.2531
  302MOL0     C39742   0.464   5.433  10.666  0.5900  0.0638 -0.7661
  302MOL0     C39743   0.362   5.336  10.721 -0.4207  0.0208  0.1063
  302MOL0     C39744   0.274   5.283  10.602  0.0775 -0.3605 -0.1324
  302MOL0     C39745   0.162   5.198  10.653 -0.0377 -0.5813 -0.2835
  302MOL0     C39746   0.048   5.179  10.556  0.0066 -0.2298 -0.0297
  302MOL0     C39747  -0.003   5.037  10.549  0.7065 -0.3228 -0.1979
  302MOL0     C39748  -0.149   5.017  10.484 -0.0907 -0.5187 -0.3694
  302MOL0     N39749  -0.240   5.117  10.519  0.9100 -1.2528  0.3978
  302MOL0     C39750  -0.327   5.119  10.627 -0.3251 -0.3714 -1.0069
  302MOL0     C39751  -0.425   5.214  10.610  0.0140 -0.4969  0.6549
  302MOL0     C39752  -0.543   5.257  10.699 -0.4155  0.0870 -0.1507
  302MOL0     C39753  -0.552   5.187  10.834  0.1682  0.3201  0.0622
  302MOL0     C39754  -0.609   5.046  10.838 -0.0178 -0.1911  0.3267
  302MOL0     C39755  -0.764   5.039  10.824 -1.2655 -0.8007 -0.4262
  302MOL0     O39756  -0.830   5.130  10.914 -0.1259  0.2776  0.3011
  302MOL0     C39757  -0.966   5.102  10.921  0.5455 -0.5352  0.6351
  302MOL0     C39758  -1.029   5.132  11.039 -0.2456 -0.6928  0.0296
  302MOL0     C39759  -1.168   5.135  11.062  0.3875  0.0181  0.9268
  302MOL0     C39760  -1.250   5.081  10.958 -0.0362  0.4133  0.1076
  302MOL0     C39761  -1.395   5.073  10.959 -0.1203 -0.3965  1.2206
  302MOL0     O39762  -1.449   5.136  11.065 -0.5423  0.4169  1.0454
  302MOL0     C39763  -1.583   5.136  11.065  1.2764  0.0115 -0.2554
  302MOL0     C39764  -1.648   5.258  11.085  0.1529 -0.2287  0.7942
  302MOL0     C39765  -1.788   5.275  11.110  0.6491  0.2588  0.0755
  302MOL0     C39766  -1.867   5.155  11.094 -0.6504 -0.3402 -0.1478
  302MOL0     O39767  -2.005   5.165  11.113 -0.0889  0.2547 -0.1276
  302MOL0     C39768  -2.100   5.079  11.049 -0.6398  0.1736  0.2808
  302MOL0     C39769  -2.224   5.156  10.996  0.2053  0.2356 -0.0410
  302MOL0     C39770  -2.267   5.249  11.114  0.3545  0.0924  0.1823
  302MOL0     C39771  -2.394   5.323  11.082 -0.8815  0.0605 -0.1355
  302MOL0     C39772  -2.354   5.449  10.996 -0.1141 -0.3500  0.4038
  302MOL0     C39773  -2.489   5.506  10.942 -0.2903  0.2543 -0.1027
  302MOL0     C39774  -2.454   5.632  10.866  0.3750 -0.0882 -0.4255
  302MOL0     C39775  -2.408   5.756  10.948 -0.2662  0.3194  0.2565
  302MOL0    Cl39776  -2.377   5.897  10.843 -0.4605 -0.0377 -0.0435
  302MOL0     C39777  -1.806   5.031  11.062  0.2665  0.0750  0.6549
  302MOL0     C39778  -1.660   5.023  11.049  0.1195 -0.4596 -0.0707
  302MOL0     O39779  -1.452   5.007  10.866  0.9386  0.4905 -0.3675
  302MOL0     C39780  -1.180   5.034  10.841 -0.2198  0.1434  0.0499
  302MOL0     C39781  -1.043   5.049  10.814 -0.4951  0.2507 -0.0380
  302MOL0     N39782  -0.394   5.268  10.490 -0.4521 -0.0140 -0.6023
  302MOL0     N39783  -0.288   5.213  10.435 -0.2753  0.8263  0.0455
  302MOL0     C39784   0.907   5.613  10.728 -0.2825  0.5612 -0.3198
  302MOL0     C39785   1.024   5.643  10.805  1.5120  0.4403  0.2168
  302MOL0     C39786   1.263   5.782  11.178 -0.0651 -0.5452 -0.1148
  302MOL0     C39787   1.389   5.723  11.154 -0.4655  0.4695  1.2762
  302MOL0     C39788   1.499   5.798  11.195  0.1145  0.0480 -1.0206
  302MOL0     C39789   1.487   5.909  11.279 -0.2527  0.5008 -0.2323
  302MOL0     O39790   1.607   5.964  11.328  0.1108  0.0230  0.7690
  302MOL0     C39791   1.611   6.037  11.445  0.1944  0.5517 -1.2493
  302MOL0     C39792   1.758   6.017  11.500 -0.3668 -0.3629 -0.0496
  302MOL0     C39793   1.822   5.870  11.498 -0.3825  0.5114 -0.8027
  302MOL0     C39794   1.767   5.776  11.599  0.2566  0.2744 -0.1517
  302MOL0     C39795   1.802   5.796  11.739  0.3302 -0.1417  0.1194
  302MOL0     C39796   1.821   5.805  11.861  1.0695 -0.3061  0.5713
  302MOL0     C39797   1.365   5.962  11.311  0.3096  0.5638 -0.4938
  302MOL0     C39798   1.253   5.894  11.268  0.4457  0.3103  0.8734
  302MOL0     H39799   0.929   5.521  11.101 -1.0619  1.8872 -0.0688
  302MOL0     H39800   0.724   5.469  10.974  0.1913 -1.6498 -0.7149
  302MOL0     H39801   0.521   5.516  10.845  0.3394  0.3577 -0.2005
  302MOL0     H39802   0.605   5.360  10.801  0.3312  0.1106 -1.1596
  302MOL0     H39803   0.511   5.388  10.578 -0.6557  1.9446 -2.4754
  302MOL0     H39804   0.426   5.531  10.634 -0.2329  0.6283  1.7369
  302MOL0     H39805   0.294   5.378  10.795 -1.8607  1.7436 -2.0631
  302MOL0     H39806   0.417   5.255  10.770  2.3293 -0.4007 -3.2763
  302MOL0     H39807   0.223   5.365  10.552 -0.3637 -1.2198 -1.1396
  302MOL0     H39808   0.328   5.223  10.528  2.2308 -2.5518  2.9306
  302MOL0     H39809   0.124   5.240  10.747  2.9324 -2.6857  2.0695
  302MOL0     H39810   0.217   5.107  10.676  2.4426  0.5857 -1.2529
  302MOL0     H39811   0.067   5.208  10.452  1.8800 -1.3227 -0.0510
  302MOL0     H39812  -0.029   5.249  10.588  0.9047  0.0782  1.5313
  302MOL0     H39813   0.074   4.978  10.499  0.2320 -1.6714  0.6255
  302MOL0     H39814  -0.013   4.994  10.649 -1.4130 -2.3580 -1.1922
  302MOL0     H39815  -0.181   4.916  10.513  2.1543 -1.6723 -1.7058
  302MOL0     H39816  -0.146   5.024  10.375  1.6749  1.4039 -0.2587
  302MOL0     H39817  -0.313   5.059  10.716  0.6437  1.5691  0.2077
  302MOL0     H39818  -0.637   5.241  10.646 -1.1122  2.6353  0.2039
  302MOL0     H39819  -0.532   5.365  10.715  1.3808  0.1013 -1.1200
  302MOL0     H39820  -0.604   5.254  10.903 -1.0928 -0.5637  0.0028
  302MOL0     H39821  -0.451   5.188  10.876  0.3431 -0.3296 -0.3344
  302MOL0     H39822  -0.571   4.987  10.753  0.8153  1.1456 -0.2643
  302MOL0     H39823  -0.582   4.992  10.929 -1.2595 -0.4160  0.5807
  302MOL0     H39824  -0.790   4.933  10.832 -0.9869 -0.9541 -1.4136
  302MOL0     H39825  -0.789   5.065  10.721  0.8838 -0.6988 -0.9777
  302MOL0     H39826  -0.967   5.170  11.119 -0.1954  0.9263 -0.7267
  302MOL0     H39827  -1.218   5.176  11.149 -1.0328  0.3652 -0.0144
  302MOL0     H39828  -1.590   5.349  11.082  1.6455 -1.0350  2.9789
  302MOL0     H39829  -1.831   5.371  11.137  0.0345 -0.3186  1.2653
  302MOL0     H39830  -2.121   5.011  11.132  1.4293  0.8119  1.4000
  302MOL0     H39831  -2.047   5.029  10.967 -0.7519  1.2699 -0.4793
  302MOL0     H39832  -2.298   5.080  10.973  0.3422 -0.2400  1.0374
  302MOL0     H39833  -2.202   5.213  10.905  1.1379  0.0206  0.0413
  302MOL0     H39834  -2.189   5.318  11.146 -0.2141  1.0025 -0.3625
  302MOL0     H39835  -2.301   5.195  11.203 -0.4920 -2.9450 -1.8222
  302MOL0     H39836  -2.448   5.247  11.026  0.7319 -1.9223  0.8660
  302MOL0     H39837  -2.443   5.357  11.174  1.8353  0.7197  1.1604
  302MOL0     H39838  -2.287   5.433  10.911 -2.5384  3.1508 -2.4853
  302MOL0     H39839  -2.301   5.524  11.054 -1.6466  1.0387  0.0755
  302MOL0     H39840  -2.556   5.524  11.027  1.1635  0.0393  1.1213
  302MOL0     H39841  -2.532   5.436  10.870 -1.3179  1.1392 -0.3812
  302MOL0     H39842  -2.390   5.602  10.782  0.6598 -0.0155 -0.2361
  302MOL0     H39843  -2.544   5.674  10.820  0.3708 -0.2579 -0.5759
  302MOL0     H39844  -2.316   5.731  11.002  0.0204 -0.5546 -0.6125
  302MOL0     H39845  -2.485   5.785  11.020 -0.6328 -0.9646  0.4181
  302MOL0     H39846  -1.867   4.941  11.052  1.3260 -0.6663  0.6751
  302MOL0     H39847  -1.614   4.925  11.045  3.0037  0.8068 -3.1468
  302MOL0     H39848  -1.241   5.007  10.756  0.4720  1.0025 -0.7444
  302MOL0     H39849  -0.984   5.019  10.728 -1.5278  0.0358 -0.6853
  302MOL0     H39850   0.905   5.641  10.623  2.2137  0.6250 -0.4083
  302MOL0     H39851   1.112   5.681  10.753  0.8220  0.8948 -0.6327
  302MOL0     H39852   1.395   5.631  11.096 -0.5498 -0.0076  2.0064
  302MOL0     H39853   1.601   5.782  11.161  0.8310  2.5409 -0.2799
  302MOL0     H39854   1.538   6.011  11.521 -1.0777  1.1986 -2.1992
  302MOL0     H39855   1.604   6.144  11.423 -4.4233  1.0424  1.4526
  302MOL0     H39856   1.818   6.077  11.431 -1.4963 -0.4511 -1.1595
  302MOL0     H39857   1.763   6.062  11.600 -0.4006 -1.5472  0.5075
  302MOL0     H39858   1.931   5.881  11.506 -0.6095  2.1418  0.8752
  302MOL0     H39859   1.812   5.815  11.404  1.3238 -2.5743  0.6640
  302MOL0     H39860   1.659   5.760  11.589 -0.2404  2.8749  0.2691
  302MOL0     H39861   1.819   5.680  11.593 -1.2323 -0.9711  3.7074
  302MOL0     H39862   1.832   5.801  11.967  0.7502 -2.7762  0.5817
  302MOL0     H39863   1.355   6.053  11.369  3.3724  1.2343 -0.8802
  302MOL0     H39864   1.156   5.940  11.286 -0.3898 -0.8961 -0.3011
  303MOL0     O39865   7.226   5.415   4.643  0.3413 -0.0911  0.4019
  303MOL0     C39866   7.277   5.428   4.752 -0.7829  0.2692 -0.7188
  303MOL0     O39867   7.214   5.428   4.871  0.2103  0.5252 -0.0395
  303MOL0     C39868   7.074   5.401   4.872 -0.3094  0.9243 -0.3902
  303MOL0     C39869   7.034   5.278   4.922  0.4514  0.5562  0.2103
  303MOL0     C39870   6.890   5.246   4.928 -0.7138 -0.0024  0.8731
  303MOL0     C39871   6.797   5.339   4.880  0.2719  0.2734  0.1639
  303MOL0     O39872   6.665   5.300   4.878 -0.1858  0.1579  0.1573
  303MOL0     C39873   6.565   5.403   4.852 -0.3283 -0.2420 -0.5351
  303MOL0     C39874   6.435   5.315   4.834 -0.5097 -0.0580 -0.9753
  303MOL0     C39875   6.318   5.411   4.807  0.2585  0.1853 -0.0934
  303MOL0     C39876   6.201   5.330   4.752  0.4234 -0.7367 -0.0974
  303MOL0     C39877   6.065   5.402   4.757  0.3805 -0.6801  1.0212
  303MOL0     C39878   5.960   5.296   4.745  0.5834 -0.2617 -0.0453
  303MOL0     C39879   5.820   5.349   4.747  0.4676  0.1238 -0.7648
  303MOL0     C39880   5.772   5.406   4.614  0.2930  0.3609 -0.1858
  303MOL0     N39881   5.631   5.369   4.595 -0.5649 -0.3512  0.2936
  303MOL0     C39882   5.533   5.409   4.679  0.8737 -0.3282  0.0029
  303MOL0     C39883   5.425   5.366   4.611 -0.6730  0.2568 -1.1796
  303MOL0     C39884   5.287   5.378   4.672  0.1824 -0.0305  0.1178
  303MOL0     C39885   5.186   5.360   4.567 -0.5408  0.1524  0.1481
  303MOL0     C39886   5.058   5.326   4.637  0.5470 -0.8381 -0.1817
  303MOL0     C39887   4.953   5.295   4.530 -0.3555 -0.4772 -0.2049
  303MOL0     O39888   4.935   5.416   4.460 -0.1536  0.0469 -0.1377
  303MOL0     C39889   4.847   5.393   4.358 -0.1081 -0.5764 -0.8078
  303MOL0     C39890   4.811   5.497   4.274  0.4531 -0.9548  0.3155
  303MOL0     C39891   4.704   5.500   4.181 -0.6586 -0.1961 -0.1246
  303MOL0     C39892   4.636   5.380   4.168  0.0828 -0.6664 -0.3683
  303MOL0     C39893   4.516   5.369   4.081 -0.0759  0.2878  0.4965
  303MOL0     O39894   4.419   5.289   4.121 -0.2429  0.1519  0.0335
  303MOL0     C39895   4.298   5.270   4.059 -0.3240 -0.4965 -0.7726
  303MOL0     C39896   4.229   5.162   4.117 -0.3563 -0.2422  0.0588
  303MOL0     C39897   4.096   5.132   4.092  0.0526 -0.1304  0.8360
  303MOL0     C39898   4.029   5.207   3.995  0.4380  0.2811 -0.5997
  303MOL0     O39899   3.897   5.190   3.966  0.4204 -0.1521  0.0197
  303MOL0     C39900   3.849   5.050   3.964  1.5965  0.7748  0.1849
  303MOL0     C39901   3.716   5.034   3.906 -0.0574 -0.4254  0.3115
  303MOL0     C39902   3.604   5.125   3.966  1.0995  0.2837  0.0752
  303MOL0     C39903   3.473   5.109   3.895  1.2280  0.5663  0.3833
  303MOL0     C39904   3.354   5.101   3.997 -0.5157 -0.3037  0.3713
  303MOL0     C39905   3.219   5.122   3.928 -0.1975  0.5855  0.1443
  303MOL0     C39906   3.106   5.063   4.020 -0.0320  0.7122 -0.8011
  303MOL0     C39907   2.972   5.080   3.959  0.6725  0.3559 -0.2666
  303MOL0    Cl39908   2.838   4.992   4.038 -0.1402 -0.1801 -0.5014
  303MOL0     C39909   4.097   5.318   3.940 -0.4217 -0.9725 -0.5301
  303MOL0     C39910   4.229   5.355   3.976  0.4305 -0.0042  0.0818
  303MOL0     O39911   4.521   5.436   3.976 -0.1977  0.3237 -0.3345
  303MOL0     C39912   4.668   5.268   4.250 -0.5708  0.6434 -0.3201
  303MOL0     C39913   4.771   5.277   4.338 -0.0293  0.3053  0.9309
  303MOL0     N39914   5.454   5.303   4.491  0.0327 -0.0536 -0.4099
  303MOL0     N39915   5.580   5.308   4.483 -0.1790  0.4860 -0.6511
  303MOL0     C39916   6.841   5.464   4.823 -0.1000 -0.5357  0.6056
  303MOL0     C39917   6.981   5.489   4.824  0.3356 -0.0132 -0.0273
  303MOL0     C39918   7.425   5.416   4.761 -0.2013 -0.4994  0.8871
  303MOL0     C39919   7.494   5.431   4.885  0.4083 -0.2612 -0.6625
  303MOL0     C39920   7.627   5.429   4.883 -0.4457  0.4763 -0.3663
  303MOL0     C39921   7.702   5.404   4.766 -0.3304  0.4572  0.8370
  303MOL0     O39922   7.838   5.400   4.753 -0.3268  0.7763 -0.3497
  303MOL0     C39923   7.913   5.473   4.856  1.1703  0.6283  0.2474
  303MOL0     C39924   8.034   5.544   4.787 -0.0795 -0.0966  0.3308
  303MOL0     C39925   7.977   5.663   4.708 -0.3818 -0.0244 -0.0419
  303MOL0     C39926   8.083   5.725   4.610 -1.4637 -0.7417 -0.3124
  303MOL0     C39927   8.180   5.797   4.692  1.0371 -0.4767 -0.2071
  303MOL0     C39928   8.250   5.853   4.774 -0.3654 -0.2510  0.3096
  303MOL0     C39929   7.636   5.367   4.646 -0.2612 -1.1156 -0.8309
  303MOL0     C39930   7.499   5.382   4.644  0.0999 -0.7369 -0.0899
  303MOL0     H39931   7.112   5.213   4.960 -0.8842 -1.6486 -0.6452
  303MOL0     H39932   6.859   5.149   4.966 -0.4207  0.0783  1.3149
  303MOL0     H39933   6.587   5.457   4.760 -0.7617 -1.0845 -1.1528
  303MOL0     H39934   6.542   5.475   4.932 -1.8379  0.2309 -1.3563
  303MOL0     H39935   6.421   5.258   4.926  2.1169 -1.7016 -1.5046
  303MOL0     H39936   6.456   5.240   4.758 -0.0717 -2.1259  1.0768
  303MOL0     H39937   6.350   5.494   4.744  0.5469  1.1458  1.2722
  303MOL0     H39938   6.280   5.462   4.895 -1.6775 -0.8948 -0.2626
  303MOL0     H39939   6.230   5.307   4.649 -1.2930 -1.6004 -0.4176
  303MOL0     H39940   6.204   5.238   4.812 -1.0055 -1.3171 -0.8694
  303MOL0     H39941   6.036   5.470   4.677 -2.2704 -3.4693 -0.6332
  303MOL0     H39942   6.060   5.459   4.850  0.0391  3.0419 -1.1097
  303MOL0     H39943   5.971   5.235   4.835 -1.8327 -0.3973  0.2281
  303MOL0     H39944   5.977   5.233   4.657 -1.8036  0.9183 -1.4362
  303MOL0     H39945   5.760   5.264   4.783 -1.7513  2.2729  0.9386
  303MOL0     H39946   5.801   5.428   4.820  2.1943 -0.0415 -0.0743
  303MOL0     H39947   5.832   5.360   4.534 -0.1772  1.2437 -1.0719
  303MOL0     H39948   5.785   5.514   4.614 -0.6400  0.5350  2.2684
  303MOL0     H39949   5.526   5.452   4.778 -1.1442  0.6340 -0.4833
  303MOL0     H39950   5.264   5.478   4.711 -1.6028  0.2294 -1.4693
  303MOL0     H39951   5.288   5.307   4.755  1.0151 -1.5350 -1.1256
  303MOL0     H39952   5.212   5.274   4.505  4.1237  1.2225  0.2710
  303MOL0     H39953   5.178   5.455   4.513 -0.9315 -1.4771 -2.8411
  303MOL0     H39954   5.084   5.251   4.712 -1.2984 -0.4864  0.8546
  303MOL0     H39955   5.027   5.415   4.693  2.1268  0.1735 -0.8274
  303MOL0     H39956   4.858   5.270   4.579  0.5827  0.4856  2.2612
  303MOL0     H39957   4.996   5.213   4.473  4.9817  1.3187  0.6990
  303MOL0     H39958   4.881   5.579   4.285  0.8048 -1.2219  0.0989
  303MOL0     H39959   4.674   5.590   4.128 -1.9828 -1.3359 -1.3999
  303MOL0     H39960   4.284   5.097   4.185 -2.7208 -3.2601 -0.7149
  303MOL0     H39961   4.061   5.040   4.137 -0.0188 -0.1146  0.8138
  303MOL0     H39962   3.840   5.014   4.067 -0.3326 -0.6293 -0.4083
  303MOL0     H39963   3.918   4.982   3.913  0.6243  0.7705 -1.1905
  303MOL0     H39964   3.680   4.932   3.923 -1.3976  0.2035  1.4721
  303MOL0     H39965   3.724   5.062   3.800 -1.5996  1.2739  0.5907
  303MOL0     H39966   3.643   5.227   3.957 -1.6769  1.4336  0.0703
  303MOL0     H39967   3.575   5.101   4.069  1.4509 -2.6823 -0.4339
  303MOL0     H39968   3.465   5.179   3.812  0.6296  0.2364  0.1553
  303MOL0     H39969   3.477   5.012   3.845 -0.0059  1.2579 -1.1013
  303MOL0     H39970   3.375   5.188   4.061  1.9998  0.6316 -1.5410
  303MOL0     H39971   3.363   5.009   4.057 -0.6505 -1.4210 -1.2612
  303MOL0     H39972   3.224   5.062   3.837  1.4686  2.0321 -0.7781
  303MOL0     H39973   3.191   5.221   3.892 -4.1125 -0.6649 -0.6778
  303MOL0     H39974   3.136   4.959   4.035  0.5848  0.5142 -3.0358
  303MOL0     H39975   3.095   5.126   4.109  2.0751  2.0492 -1.4276
  303MOL0     H39976   2.977   5.019   3.868  0.6339  0.0768 -0.0809
  303MOL0     H39977   2.954   5.185   3.936  1.2642  0.7908  1.1670
  303MOL0     H39978   4.036   5.376   3.871  0.2888 -1.5647 -1.6734
  303MOL0     H39979   4.272   5.452   3.953 -0.2555  0.4815  0.8216
  303MOL0     H39980   4.608   5.178   4.251  2.3004 -1.4975  3.4774
  303MOL0     H39981   4.783   5.179   4.384 -1.7638 -0.5084 -0.2030
  303MOL0     H39982   6.770   5.542   4.795 -0.9205  0.6253  5.0585
  303MOL0     H39983   7.030   5.576   4.780  1.1138 -1.3772 -2.0183
  303MOL0     H39984   7.450   5.434   4.984 -0.9701  2.2424 -1.2808
  303MOL0     H39985   7.668   5.449   4.981 -1.7004  1.3351  0.0041
  303MOL0     H39986   7.954   5.404   4.930 -0.2226  0.5883  0.9961
  303MOL0     H39987   7.853   5.554   4.900 -1.2645 -1.2474  0.5365
  303MOL0     H39988   8.093   5.578   4.872  1.2876 -0.9450 -0.2323
  303MOL0     H39989   8.097   5.476   4.730 -0.2822  0.8373 -1.0634
  303MOL0     H39990   7.950   5.737   4.784 -0.0205  0.9531 -0.8416
  303MOL0     H39991   7.890   5.624   4.654 -0.0698 -0.4393 -0.2514
  303MOL0     H39992   8.133   5.645   4.553 -0.1166 -0.2144  0.0931
  303MOL0     H39993   8.026   5.792   4.545 -1.4452  0.5327  0.9374
  303MOL0     H39994   8.323   5.883   4.846  1.1651 -3.3323  0.2021
  303MOL0     H39995   7.678   5.341   4.549  1.1675  2.2575 -1.2855
  303MOL0     H39996   7.451   5.359   4.550 -0.0912  1.1634 -0.5030
  304MOL0     O39997   8.940   2.979   3.498 -0.6058  0.4741 -0.1515
  304MOL0     C39998   8.922   3.054   3.596  0.0710  0.4002  0.3575
  304MOL0     O39999   8.820   3.147   3.608  0.1366  0.2057  0.1665
  304MOL0     C40000   8.724   3.159   3.518 -0.0838  0.1104  0.9152
  304MOL0     C40001   8.684   3.291   3.501  0.8749  0.3970  0.1324
  304MOL0     C40002   8.574   3.323   3.410 -0.2867 -0.1072  0.4904
  304MOL0     C40003   8.513   3.219   3.346  0.2170  0.5583  0.0613
  304MOL0     O40004   8.413   3.233   3.259 -0.4773  0.4243  0.4851
  304MOL0     C40005   8.337   3.353   3.259 -0.9406 -0.0674 -0.5752
  304MOL0     C40006   8.199   3.314   3.208  0.2076  0.4635  0.2446
  304MOL0     C40007   8.104   3.425   3.174 -0.4307  0.2020 -0.2732
  304MOL0     C40008   7.981   3.370   3.108  0.7437 -0.2515 -0.7329
  304MOL0     C40009   7.869   3.488   3.117 -0.0933  0.2773 -1.0315
  304MOL0     C40010   7.736   3.445   3.063  1.4336  0.5115  0.5668
  304MOL0     C40011   7.620   3.522   3.125  0.2907 -0.5057  0.9215
  304MOL0     C40012   7.639   3.681   3.127  0.2192  0.2705 -0.0926
  304MOL0     N40013   7.520   3.744   3.165  0.6865 -0.1283  0.3654
  304MOL0     C40014   7.476   3.790   3.283  0.8271  0.2302 -0.5525
  304MOL0     C40015   7.352   3.832   3.246  0.3770  0.8952 -0.2908
  304MOL0     C40016   7.286   3.929   3.336  0.0663  0.4195 -0.4888
  304MOL0     C40017   7.181   3.863   3.433 -0.4760  1.0408 -0.2872
  304MOL0     C40018   7.109   3.959   3.529 -0.1148 -1.4284 -0.0825
  304MOL0     C40019   7.016   3.901   3.636  0.0693 -0.2742  0.3770
  304MOL0     O40020   6.922   3.802   3.588 -0.6532  0.0332  0.3057
  304MOL0     C40021   6.791   3.842   3.577  0.2546 -0.1069  0.5009
  304MOL0     C40022   6.714   3.848   3.695  0.2241  1.3461  0.1989
  304MOL0     C40023   6.580   3.877   3.686  0.3332 -0.8543  0.8847
  304MOL0     C40024   6.519   3.896   3.560 -0.0298  0.5036  0.5618
  304MOL0     C40025   6.372   3.920   3.560  0.2997 -0.1077 -0.1151
  304MOL0     O40026   6.314   3.940   3.440 -0.3812  0.4513  0.3174
  304MOL0     C40027   6.173   3.947   3.431 -0.1114 -0.8218 -0.0359
  304MOL0     C40028   6.087   3.863   3.500 -0.1090  0.2521  0.8668
  304MOL0     C40029   5.951   3.886   3.474  0.5298 -0.2713 -0.1236
  304MOL0     C40030   5.896   3.971   3.377 -0.2266 -0.3393 -0.6656
  304MOL0     O40031   5.761   3.990   3.364 -0.0019  0.0735  0.0150
  304MOL0     C40032   5.668   3.885   3.399 -0.0843  0.6876 -0.4826
  304MOL0     C40033   5.530   3.952   3.394 -0.4073 -0.0564  0.6551
  304MOL0     C40034   5.506   3.979   3.245 -0.2550 -1.1934 -0.1091
  304MOL0     C40035   5.375   4.052   3.234  0.5808 -0.4610 -0.0592
  304MOL0     C40036   5.301   4.049   3.096 -0.1638  0.9572  0.3448
  304MOL0     C40037   5.160   4.103   3.096  0.2592 -0.1836 -0.4713
  304MOL0     C40038   5.154   4.256   3.138  0.2836 -0.6043  0.0050
  304MOL0     C40039   5.018   4.301   3.092 -0.0736  0.6747  0.2328
  304MOL0    Cl40040   4.986   4.461   3.164 -0.0079  0.1060  0.0563
  304MOL0     C40041   5.988   4.061   3.312 -0.0691 -0.5022  0.6530
  304MOL0     C40042   6.122   4.046   3.338  0.1521  0.2768 -0.6064
  304MOL0     O40043   6.309   3.911   3.661  0.0076 -0.5336  0.0301
  304MOL0     C40044   6.600   3.904   3.450 -0.0460 -0.3566 -0.0694
  304MOL0     C40045   6.737   3.876   3.455  0.2634 -0.0462  0.3738
  304MOL0     N40046   7.312   3.800   3.114 -1.2318 -0.3063  0.6462
  304MOL0     N40047   7.417   3.742   3.074  0.1211 -0.2347  0.4233
  304MOL0     C40048   8.562   3.088   3.361 -0.5084 -0.4429 -0.0047
  304MOL0     C40049   8.664   3.057   3.445  0.2264  0.1316  0.8815
  304MOL0     C40050   9.030   3.067   3.697  0.1443 -0.6670 -0.2334
  304MOL0     C40051   9.107   2.960   3.740 -0.9101  0.7227  0.3246
  304MOL0     C40052   9.214   2.972   3.832 -0.4500  0.4352 -0.4429
  304MOL0     C40053   9.253   3.093   3.888  0.4896 -0.8426 -0.1295
  304MOL0     O40054   9.337   3.108   4.000 -0.2342  0.0169  0.9967
  304MOL0     C40055   9.449   3.017   4.002  0.3735  0.9143  0.3387
  304MOL0     C40056   9.550   3.069   4.106  0.3636 -0.4751  0.5385
  304MOL0     C40057   9.616   3.204   4.067 -0.1292 -0.6318 -0.8761
  304MOL0     C40058   9.708   3.252   4.187  0.5902  0.5274 -0.4799
  304MOL0     C40059   9.845   3.232   4.168 -0.3674 -0.2868 -0.7381
  304MOL0     C40060   9.964   3.197   4.172  0.1486 -0.6332 -0.6978
  304MOL0     C40061   9.180   3.201   3.847  0.5335 -0.1796  0.1190
  304MOL0     C40062   9.066   3.192   3.758 -0.7695  0.2392 -0.5056
  304MOL0     H40063   8.739   3.367   3.557  0.4272 -0.0285  1.1828
  304MOL0     H40064   8.556   3.428   3.388  1.8763  0.6492  1.9519
  304MOL0     H40065   8.376   3.440   3.205 -0.5530  0.5107  0.5968
  304MOL0     H40066   8.331   3.391   3.362 -0.5695 -1.0110 -0.2013
  304MOL0     H40067   8.153   3.245   3.279 -0.4813  2.2474  1.6040
  304MOL0     H40068   8.223   3.258   3.117 -2.6574  0.3498 -0.5521
  304MOL0     H40069   8.151   3.511   3.126 -1.9936  0.3096 -1.7227
  304MOL0     H40070   8.080   3.453   3.277  2.2723  2.9301 -0.2197
  304MOL0     H40071   8.005   3.335   3.008  1.4329  1.2699 -1.1310
  304MOL0     H40072   7.940   3.282   3.159 -0.7867  1.7909  1.8358
  304MOL0     H40073   7.906   3.580   3.070  1.0930 -0.7906 -2.2843
  304MOL0     H40074   7.861   3.517   3.222 -0.8273 -1.0210 -0.7089
  304MOL0     H40075   7.711   3.338   3.069 -0.3331  0.6245 -2.8000
  304MOL0     H40076   7.744   3.470   2.957  0.3923  1.9455  0.7952
  304MOL0     H40077   7.541   3.488   3.057  0.9857 -1.0861  0.4012
  304MOL0     H40078   7.595   3.489   3.226  0.5992  1.8489  1.8323
  304MOL0     H40079   7.665   3.706   3.024 -0.4666 -4.1478 -1.5533
  304MOL0     H40080   7.720   3.714   3.192  0.7526  2.3856 -1.7502
  304MOL0     H40081   7.537   3.797   3.373  2.7127 -1.5518 -1.6047
  304MOL0     H40082   7.237   4.006   3.275  1.3738 -0.3838 -2.6340
  304MOL0     H40083   7.365   3.985   3.387 -0.1195 -0.2754  0.5920
  304MOL0     H40084   7.233   3.778   3.478  0.2861  2.3340  1.3614
  304MOL0     H40085   7.097   3.816   3.380 -0.2007 -0.1526  0.2901
  304MOL0     H40086   7.182   4.023   3.579 -0.8585  0.0107 -0.7795
  304MOL0     H40087   7.045   4.023   3.468  0.2769 -1.6222 -0.6990
  304MOL0     H40088   6.956   3.988   3.664  0.8073 -0.6649  3.5291
  304MOL0     H40089   7.074   3.859   3.718  0.8578  0.6919  0.3252
  304MOL0     H40090   6.768   3.831   3.787  0.7315  1.4538 -0.0744
  304MOL0     H40091   6.529   3.881   3.782  3.2240 -4.0062  2.7726
  304MOL0     H40092   6.112   3.786   3.573  0.1813 -1.1005 -0.5979
  304MOL0     H40093   5.890   3.814   3.527 -2.5615  3.2740  1.5795
  304MOL0     H40094   5.694   3.868   3.504  0.0469  2.6790 -0.1421
  304MOL0     H40095   5.680   3.794   3.340  0.3800 -1.5285  2.7288
  304MOL0     H40096   5.521   4.036   3.464  0.0341  0.7861 -0.2536
  304MOL0     H40097   5.451   3.883   3.425  0.0185 -0.1568  1.5306
  304MOL0     H40098   5.507   3.880   3.198  2.4134 -1.9265  1.2513
  304MOL0     H40099   5.583   4.045   3.203 -1.5911  0.9331  0.6175
  304MOL0     H40100   5.298   4.022   3.305 -0.8511  0.2198 -1.2671
  304MOL0     H40101   5.402   4.153   3.266  0.4386 -0.8712  1.3888
  304MOL0     H40102   5.302   3.944   3.064  2.4944  0.4360  1.8384
  304MOL0     H40103   5.359   4.089   3.012 -0.0095 -0.6808 -0.3746
  304MOL0     H40104   5.104   4.033   3.158  3.3370 -0.0741  2.7720
  304MOL0     H40105   5.129   4.097   2.991 -0.6532 -0.7660 -0.1749
  304MOL0     H40106   5.178   4.287   3.241 -1.3193  0.2783  0.1396
  304MOL0     H40107   5.228   4.303   3.072  1.9779 -5.4715 -1.9945
  304MOL0     H40108   4.935   4.235   3.119  0.3099  0.3081  0.5258
  304MOL0     H40109   5.005   4.305   2.984 -1.2134 -0.7583  0.2760
  304MOL0     H40110   5.951   4.143   3.251  0.4697  0.1457  1.1819
  304MOL0     H40111   6.200   4.110   3.299  1.2029 -1.3281 -1.2406
  304MOL0     H40112   6.555   3.917   3.352  0.6192 -0.3742 -0.3847
  304MOL0     H40113   6.790   3.880   3.361  0.7778  1.4109  0.6990
  304MOL0     H40114   8.517   3.006   3.306  1.5133 -0.3253 -1.9839
  304MOL0     H40115   8.696   2.953   3.441  0.5595  0.2432 -3.6138
  304MOL0     H40116   9.063   2.867   3.707 -1.4646  0.1192  2.5968
  304MOL0     H40117   9.261   2.878   3.860 -0.5977 -0.1033 -1.8939
  304MOL0     H40118   9.502   2.993   3.909  1.1974  0.9444  0.7906
  304MOL0     H40119   9.409   2.923   4.041  1.5412  0.5921  0.8103
  304MOL0     H40120   9.499   3.075   4.203 -0.2704  3.2572  0.1259
  304MOL0     H40121   9.625   2.990   4.118 -0.2065 -1.5432 -2.2093
  304MOL0     H40122   9.543   3.279   4.034  0.5793  0.2659 -0.4570
  304MOL0     H40123   9.683   3.196   3.981  2.1762 -0.4068  0.7845
  304MOL0     H40124   9.683   3.356   4.212 -2.4712  0.6769 -3.5092
  304MOL0     H40125   9.686   3.196   4.278 -1.0393  1.6832 -0.1203
  304MOL0     H40126  10.069   3.181   4.169  0.4611  1.0534 -0.0087
  304MOL0     H40127   9.203   3.296   3.893  0.3406 -0.9290  1.8274
  304MOL0     H40128   9.003   3.281   3.754 -0.5279  0.4170 -0.4158
  305MOL0     O40129   0.774   9.996  10.658  0.8016  0.4257  0.0293
  305MOL0     C40130   0.742  10.117  10.643 -0.0578  0.3833 -0.1701
  305MOL0     O40131   0.613  10.159  10.664  0.2093 -0.1174  0.1795
  305MOL0     C40132   0.518  10.061  10.687  0.5906 -0.0711 -0.4558
  305MOL0     C40133   0.504   9.946  10.609 -0.1479  0.3348  0.3087
  305MOL0     C40134   0.411   9.848  10.636  0.2881 -0.2855  0.0926
  305MOL0     C40135   0.325   9.873  10.738 -0.4893 -0.0151  0.0176
  305MOL0     O40136   0.234   9.769  10.753  0.2791  0.3065 -0.0874
  305MOL0     C40137   0.114   9.783  10.837  0.6082 -0.1341  0.4222
  305MOL0     C40138   0.023   9.667  10.791  0.0857 -0.7577  0.0325
  305MOL0     C40139  -0.097   9.669  10.884  0.2802 -0.0435 -0.4751
  305MOL0     C40140  -0.207   9.572  10.834 -0.3088  1.0310  0.0061
  305MOL0     C40141  -0.325   9.564  10.925  0.6662 -0.4916  0.4521
  305MOL0     C40142  -0.421   9.452  10.876 -0.1290 -0.2394 -0.5025
  305MOL0     C40143  -0.541   9.425  10.967 -0.4439  0.5376  0.5528
  305MOL0     C40144  -0.642   9.533  10.956  0.6530 -0.6356  0.4343
  305MOL0     N40145  -0.735   9.520  11.071  0.6328 -0.1762  0.4620
  305MOL0     C40146  -0.846   9.440  11.062 -0.2850  0.2540  0.0268
  305MOL0     C40147  -0.908   9.460  11.180  0.0034  0.8552  0.3505
  305MOL0     C40148  -1.036   9.388  11.208  0.4555 -0.2103  0.3630
  305MOL0     C40149  -1.148   9.477  11.176  1.0698  0.1930 -0.7266
  305MOL0     C40150  -1.283   9.385  11.169 -0.3528 -0.0750 -0.1882
  305MOL0     C40151  -1.415   9.449  11.180  0.4943 -0.4483 -0.6860
  305MOL0     O40152  -1.430   9.534  11.294 -0.3940  0.0504 -0.0309
  305MOL0     C40153  -1.563   9.544  11.349  0.0399 -0.7720  0.4152
  305MOL0     C40154  -1.587   9.578  11.475  0.1784  0.3267 -0.1144
  305MOL0     C40155  -1.710   9.616  11.531 -0.1469  0.4138  0.5776
  305MOL0     C40156  -1.817   9.626  11.435  0.2416  0.1136  0.7983
  305MOL0     C40157  -1.946   9.675  11.487 -0.3236  0.4049 -0.3856
  305MOL0     O40158  -2.049   9.706  11.398 -0.4274 -0.5603 -0.1389
  305MOL0     C40159  -2.169   9.736  11.452 -0.5634  0.2867 -0.4027
  305MOL0     C40160  -2.187   9.832  11.560 -0.1532 -0.9002  0.2592
  305MOL0     C40161  -2.308   9.857  11.614 -0.3165 -0.5938  0.0121
  305MOL0     C40162  -2.418   9.810  11.549  0.4875 -0.2765 -0.2982
  305MOL0     O40163  -2.543   9.848  11.580 -0.3033 -0.3744 -0.0716
  305MOL0     C40164  -2.565   9.961  11.665  0.0348 -0.4238  0.5384
  305MOL0     C40165  -2.715   9.964  11.686  0.1693  0.0705  0.4975
  305MOL0     C40166  -2.778  10.041  11.562  0.0248  0.5636  0.7129
  305MOL0     C40167  -2.932  10.050  11.605  0.7315  0.0544  0.3215
  305MOL0     C40168  -3.016  10.066  11.485  0.1589 -0.2720 -0.4546
  305MOL0     C40169  -3.146   9.991  11.483  0.3951  0.8459  0.7438
  305MOL0     C40170  -3.249  10.016  11.579 -0.5134  1.0385 -0.0931
  305MOL0     C40171  -3.390   9.958  11.541 -0.6381 -0.1236  0.3127
  305MOL0    Cl40172  -3.527   9.997  11.646 -0.5075  0.1320 -0.0641
  305MOL0     C40173  -2.413   9.721  11.440 -0.2817 -0.3544  0.7400
  305MOL0     C40174  -2.281   9.682  11.391  1.1355 -0.8017 -0.5102
  305MOL0     O40175  -1.945   9.673  11.612 -0.1807  0.3359  0.5272
  305MOL0     C40176  -1.796   9.597  11.297  0.2389 -0.2652 -0.9735
  305MOL0     C40177  -1.663   9.554  11.256  0.2266 -0.1572 -0.1376
  305MOL0     N40178  -0.833   9.552  11.259  0.0106 -0.7381 -0.0564
  305MOL0     N40179  -0.736   9.592  11.187  0.5464  0.3748  0.9473
  305MOL0     C40180   0.327   9.990  10.812  0.0913  0.0851  0.8499
  305MOL0     C40181   0.419  10.086  10.787 -0.0314  0.6740  0.7346
  305MOL0     C40182   0.840  10.218  10.589 -0.2870  0.2350  0.2486
  305MOL0     C40183   0.977  10.199  10.593  0.1904 -0.2062  0.3278
  305MOL0     C40184   1.062  10.302  10.561 -0.1160  0.3620  0.5691
  305MOL0     C40185   1.019  10.423  10.518 -0.2614  0.5476 -0.4418
  305MOL0     O40186   1.104  10.515  10.474  0.2267 -0.1900  0.1475
  305MOL0     C40187   1.187  10.574  10.582  0.6070 -0.5391  0.8818
  305MOL0     C40188   1.272  10.696  10.531 -0.7391  0.2599  0.5137
  305MOL0     C40189   1.309  10.797  10.644  0.6775 -0.1454 -0.2880
  305MOL0     C40190   1.351  10.926  10.579  0.5941  0.0288 -0.4645
  305MOL0     C40191   1.399  11.027  10.671  0.0389  0.5621  0.2476
  305MOL0     C40192   1.442  11.125  10.739  0.2701  0.4842 -0.6847
  305MOL0     C40193   0.887  10.442  10.528  0.5941  0.8131  0.0608
  305MOL0     C40194   0.799  10.343  10.558  0.2843  0.2045  0.5248
  305MOL0     H40195   0.568   9.919  10.525 -0.0661 -1.1017  0.7982
  305MOL0     H40196   0.404   9.752  10.586  0.1804 -0.7892  1.0431
  305MOL0     H40197   0.064   9.879  10.823 -1.1478 -0.9142  1.0940
  305MOL0     H40198   0.148   9.786  10.941 -0.3617 -0.6822  0.7604
  305MOL0     H40199   0.072   9.571  10.806 -0.4432 -1.6459 -3.1457
  305MOL0     H40200  -0.009   9.681  10.687  1.5645 -0.3494 -0.4061
  305MOL0     H40201  -0.141   9.768  10.902  2.3665  0.4076  3.2817
  305MOL0     H40202  -0.053   9.643  10.981  0.6705 -0.9790 -0.8971
  305MOL0     H40203  -0.229   9.584  10.728 -0.2021 -2.7222 -0.5649
  305MOL0     H40204  -0.163   9.472  10.838 -1.7533  0.3185 -0.8652
  305MOL0     H40205  -0.381   9.658  10.923 -0.4134 -1.1109  1.1066
  305MOL0     H40206  -0.292   9.538  11.026  1.7534  0.1909  0.2909
  305MOL0     H40207  -0.364   9.360  10.863  1.5940  1.1533 -4.1953
  305MOL0     H40208  -0.453   9.473  10.773  2.0786  1.3299 -0.9502
  305MOL0     H40209  -0.590   9.333  10.933 -0.8323  0.9178  0.0679
  305MOL0     H40210  -0.517   9.404  11.071  0.5302 -0.0498  0.2259
  305MOL0     H40211  -0.691   9.532  10.858 -3.7568  1.9230  2.3084
  305MOL0     H40212  -0.603   9.635  10.963  0.5421 -0.6256  0.9096
  305MOL0     H40213  -0.876   9.375  10.981 -2.3175  1.0910  0.0406
  305MOL0     H40214  -1.042   9.365  11.315 -1.4329  2.6379  0.9748
  305MOL0     H40215  -1.044   9.302  11.141  0.3650 -1.9168  2.4560
  305MOL0     H40216  -1.143   9.520  11.076 -1.7413  1.8627 -0.2545
  305MOL0     H40217  -1.169   9.559  11.246 -1.9159 -1.8078  0.9736
  305MOL0     H40218  -1.294   9.326  11.077 -0.2184 -0.0536 -0.2174
  305MOL0     H40219  -1.279   9.308  11.247 -0.9917  0.5189  0.4469
  305MOL0     H40220  -1.482   9.364  11.195 -1.3613  1.2449  1.2108
  305MOL0     H40221  -1.439   9.505  11.089  1.6873  1.8293  0.3180
  305MOL0     H40222  -1.502   9.579  11.543 -0.8042 -0.0246  1.1550
  305MOL0     H40223  -1.715   9.638  11.637  2.1407  0.2053  0.7901
  305MOL0     H40224  -2.096   9.878  11.598  1.0949 -0.0402 -3.3187
  305MOL0     H40225  -2.309   9.922  11.700 -2.2767 -0.1719 -0.2856
  305MOL0     H40226  -2.508  10.047  11.630 -1.0795  0.4040  0.6838
  305MOL0     H40227  -2.518   9.941  11.762  1.3071 -2.7677 -0.4954
  305MOL0     H40228  -2.732  10.031  11.771  0.5839 -1.2356  1.6457
  305MOL0     H40229  -2.756   9.866  11.712  1.3866 -1.9554 -4.1676
  305MOL0     H40230  -2.766   9.979  11.473 -1.7192  2.1213 -0.6714
  305MOL0     H40231  -2.737  10.140  11.542  0.1487  0.0851 -1.6303
  305MOL0     H40232  -2.959   9.952  11.646  0.3168 -1.7430 -3.7993
  305MOL0     H40233  -2.957  10.119  11.686 -1.0026  0.1589 -0.2701
  305MOL0     H40234  -2.962  10.038  11.395  1.1003  1.5220 -0.4994
  305MOL0     H40235  -3.041  10.172  11.473 -0.5356 -0.4725 -0.8337
  305MOL0     H40236  -3.133   9.883  11.486 -1.0145  0.5942 -0.6601
  305MOL0     H40237  -3.196  10.015  11.388  1.2309  0.7388  0.2677
  305MOL0     H40238  -3.231   9.973  11.679 -1.3524  1.8140  0.4076
  305MOL0     H40239  -3.264  10.124  11.582  0.6001  1.2043  2.3532
  305MOL0     H40240  -3.374   9.851  11.524  2.0200  0.1460  0.5645
  305MOL0     H40241  -3.413   9.996  11.441 -3.3559 -0.6971  0.6553
  305MOL0     H40242  -2.504   9.687  11.393 -0.8480  1.2918  0.5964
  305MOL0     H40243  -2.263   9.624  11.301  3.6458 -1.0963  0.1118
  305MOL0     H40244  -1.873   9.616  11.222 -0.4092 -1.2273 -0.5691
  305MOL0     H40245  -1.658   9.527  11.151  0.1423  0.3167 -0.2693
  305MOL0     H40246   0.246  10.008  10.883  0.4137  1.1108  0.9855
  305MOL0     H40247   0.411  10.183  10.836 -0.3047  0.3168  1.4138
  305MOL0     H40248   1.015  10.098  10.591 -1.9016 -1.0815  1.1815
  305MOL0     H40249   1.168  10.281  10.545  0.4750  1.4282  2.6651
  305MOL0     H40250   1.248  10.490  10.616  1.5283 -0.2054  0.0786
  305MOL0     H40251   1.121  10.603  10.664  1.7259  1.2975  1.1757
  305MOL0     H40252   1.369  10.663  10.492  0.1986  0.5816  2.4458
  305MOL0     H40253   1.211  10.744  10.454 -1.0660  1.0943  1.2776
  305MOL0     H40254   1.378  10.752  10.716 -1.1212  0.8635  2.1847
  305MOL0     H40255   1.233  10.827  10.715  1.6569  0.4823  0.5251
  305MOL0     H40256   1.439  10.905  10.517  0.8061 -1.2490  0.2476
  305MOL0     H40257   1.273  10.975  10.521 -1.0141  1.5616  2.7234
  305MOL0     H40258   1.454  11.187  10.826 -4.8788 -1.1312  1.5412
  305MOL0     H40259   0.850  10.538  10.494 -1.5655 -0.1700 -0.5597
  305MOL0     H40260   0.690  10.348  10.555  0.3262  0.6985 -1.3073
  306MOL0     O40261   8.309  10.564   1.278 -0.3553 -0.5999  0.1546
  306MOL0     C40262   8.292  10.494   1.378 -0.8094  0.4904  0.0305
  306MOL0     O40263   8.386  10.491   1.476  0.0070  0.2004  0.1561
  306MOL0     C40264   8.511  10.560   1.465  0.3946 -0.9366 -0.0817
  306MOL0     C40265   8.544  10.605   1.597 -0.3737 -0.1547  0.3991
  306MOL0     C40266   8.663  10.679   1.631  0.2063  0.3590  0.4377
  306MOL0     C40267   8.767  10.680   1.527 -0.2967  0.0142  0.5779
  306MOL0     O40268   8.890  10.730   1.544 -0.3346  0.4209 -0.4604
  306MOL0     C40269   8.903  10.843   1.630  0.2956  0.4165  0.2715
  306MOL0     C40270   9.049  10.868   1.670 -0.3822 -0.3337  0.3424
  306MOL0     C40271   9.084  10.778   1.789  0.3691 -0.1857  0.2670
  306MOL0     C40272   9.231  10.793   1.829  0.1619 -0.8494 -0.1780
  306MOL0     C40273   9.254  10.757   1.971 -0.6242 -0.4229 -0.4687
  306MOL0     C40274   9.406  10.763   1.996  0.9132  0.0185  0.8345
  306MOL0     C40275   9.464  10.897   1.983 -1.0743 -0.4868  0.5063
  306MOL0     C40276   9.603  10.908   2.059 -0.5783  0.4980 -0.1752
  306MOL0     N40277   9.699  10.804   2.021  0.5679 -0.3554 -0.4802
  306MOL0     C40278   9.751  10.799   1.899 -1.0851 -0.4890  0.1559
  306MOL0     C40279   9.846  10.700   1.901 -0.0417  0.2538  0.0232
  306MOL0     C40280   9.927  10.639   1.789  0.4581 -0.0170 -0.0682
  306MOL0     C40281   9.840  10.539   1.703 -1.0641  0.0440  0.0580
  306MOL0     C40282   9.700  10.592   1.665 -1.2076  0.0938  0.5224
  306MOL0     C40283   9.615  10.493   1.591  0.7420 -0.1037 -0.0493
  306MOL0     O40284   9.479  10.550   1.596 -0.4590 -0.5736 -0.4135
  306MOL0     C40285   9.379  10.481   1.533 -0.0804  0.0705 -0.0200
  306MOL0     C40286   9.382  10.358   1.477  0.3303  0.7262 -0.2742
  306MOL0     C40287   9.267  10.288   1.437 -0.6855  0.1784  0.5781
  306MOL0     C40288   9.146  10.350   1.436 -0.2637  0.4427 -0.6581
  306MOL0     C40289   9.015  10.288   1.389  0.1058 -0.5747 -0.0293
  306MOL0     O40290   8.899  10.351   1.414 -0.0748  0.1563  0.2522
  306MOL0     C40291   8.787  10.288   1.371 -0.1150  0.8061  0.4948
  306MOL0     C40292   8.749  10.278   1.233  0.5613  0.3827  0.4898
  306MOL0     C40293   8.626  10.229   1.190 -0.1322 -0.7367 -0.2555
  306MOL0     C40294   8.540  10.168   1.284  0.2684 -0.4090 -0.5224
  306MOL0     O40295   8.420  10.114   1.260 -0.1387  0.1559  0.1386
  306MOL0     C40296   8.377  10.067   1.128  0.1901  0.1343  0.4360
  306MOL0     C40297   8.244  10.001   1.147  0.0100 -0.1224 -0.3413
  306MOL0     C40298   8.124  10.096   1.172 -0.0617 -0.3368  0.7105
  306MOL0     C40299   7.991  10.017   1.197  0.2323 -0.2266 -0.0132
  306MOL0     C40300   7.864  10.095   1.176 -0.2833  0.7750 -0.4498
  306MOL0     C40301   7.735  10.018   1.200 -0.6699  0.5391 -0.1048
  306MOL0     C40302   7.610  10.100   1.145  0.7603 -0.6349 -0.3265
  306MOL0     C40303   7.573  10.216   1.237 -0.7843  0.7924  0.2370
  306MOL0    Cl40304   7.405  10.272   1.215 -0.1568 -0.4692  0.3351
  306MOL0     C40305   8.575  10.178   1.420 -0.0322 -1.1015  0.5426
  306MOL0     C40306   8.696  10.232   1.456 -0.2845 -0.3829 -0.3197
  306MOL0     O40307   9.030  10.179   1.328 -0.5887  0.4017  0.2843
  306MOL0     C40308   9.138  10.477   1.484 -0.3895 -0.3391  0.7597
  306MOL0     C40309   9.254  10.537   1.521  0.9538 -0.2012  0.5381
  306MOL0     N40310   9.840  10.649   2.025 -0.1410  0.2445 -0.1260
  306MOL0     N40311   9.748  10.708   2.096  0.8185  0.1289 -0.2044
  306MOL0     C40312   8.734  10.626   1.404 -0.3237 -0.1141  0.2276
  306MOL0     C40313   8.612  10.572   1.372  0.9109  0.2438  0.4466
  306MOL0     C40314   8.152  10.449   1.410 -0.5202  0.5239  0.1556
  306MOL0     C40315   8.052  10.500   1.336 -0.0689 -0.6593 -0.1171
  306MOL0     C40316   7.921  10.468   1.364  0.5892  0.3746 -0.9865
  306MOL0     C40317   7.892  10.385   1.474  0.7999  0.2997 -0.1479
  306MOL0     O40318   7.769  10.353   1.526 -0.0858  0.3401 -0.0137
  306MOL0     C40319   7.670  10.454   1.513  0.5851 -0.1407  0.4422
  306MOL0     C40320   7.559  10.437   1.624  0.7108 -0.2187  0.7771
  306MOL0     C40321   7.422  10.450   1.557  0.3345 -0.4613 -1.0409
  306MOL0     C40322   7.318  10.429   1.666  0.6098  0.6560  0.5131
  306MOL0     C40323   7.194  10.497   1.627 -0.0145  0.1998 -0.2812
  306MOL0     C40324   7.092  10.562   1.604  0.8105  0.8607  0.2998
  306MOL0     C40325   7.995  10.334   1.552  0.1102  0.5364  1.3718
  306MOL0     C40326   8.130  10.366   1.523 -0.0557 -0.7665  0.5973
  306MOL0     H40327   8.483  10.593   1.686  0.8618  3.4296  1.9281
  306MOL0     H40328   8.672  10.719   1.732  0.2871  0.0060  0.5719
  306MOL0     H40329   8.842  10.854   1.720  0.4017  2.6103  0.1406
  306MOL0     H40330   8.879  10.936   1.577  1.5690  0.5334 -0.1340
  306MOL0     H40331   9.054  10.971   1.705 -1.1592  0.5341 -1.9455
  306MOL0     H40332   9.110  10.846   1.582 -0.2401 -1.5687  0.7204
  306MOL0     H40333   9.061  10.674   1.764 -3.8078  1.3572 -3.7159
  306MOL0     H40334   9.028  10.808   1.878 -3.2142 -0.5929 -1.6850
  306MOL0     H40335   9.285  10.726   1.763  1.1378 -0.1942 -0.0653
  306MOL0     H40336   9.262  10.894   1.800  0.2454 -1.3040 -1.7493
  306MOL0     H40337   9.220  10.654   1.986  2.5780 -1.6072 -0.5463
  306MOL0     H40338   9.204  10.826   2.039  0.0529 -1.2193  0.8787
  306MOL0     H40339   9.454  10.691   1.929 -0.0223 -1.6351  1.8570
  306MOL0     H40340   9.430  10.721   2.093  4.9783  0.0092 -0.0148
  306MOL0     H40341   9.480  10.918   1.877  1.0737  1.5532  1.1391
  306MOL0     H40342   9.395  10.972   2.022 -0.6153  0.4454 -0.4150
  306MOL0     H40343   9.589  10.902   2.168  1.8193  1.1458  0.2342
  306MOL0     H40344   9.649  11.007   2.047 -1.2783  0.8525 -0.0130
  306MOL0     H40345   9.743  10.876   1.822  2.0789  0.2499  0.4329
  306MOL0     H40346  10.003  10.574   1.832  1.7375 -0.3685 -2.6229
  306MOL0     H40347   9.985  10.711   1.730 -0.9245  0.8312 -0.4416
  306MOL0     H40348   9.815  10.452   1.764  4.0949 -0.1598  2.3719
  306MOL0     H40349   9.892  10.510   1.611 -1.3778  0.5649 -0.2922
  306MOL0     H40350   9.643  10.621   1.754  0.8172 -1.2928  2.3662
  306MOL0     H40351   9.731  10.673   1.597 -1.1013  0.7382  1.3264
  306MOL0     H40352   9.621  10.400   1.647 -1.0144  0.7380  1.6844
  306MOL0     H40353   9.646  10.473   1.488 -0.4841 -0.1939 -0.4180
  306MOL0     H40354   9.470  10.296   1.493  1.5108  2.5423  0.5904
  306MOL0     H40355   9.278  10.190   1.391 -1.9481  0.1513  0.2853
  306MOL0     H40356   8.815  10.328   1.162  0.5895 -0.6943 -0.2691
  306MOL0     H40357   8.596  10.233   1.086 -1.9160 -1.0505  0.2121
  306MOL0     H40358   8.459  10.006   1.088  2.6857  3.0272  0.7286
  306MOL0     H40359   8.366  10.154   1.062  0.7481  0.9468  1.3926
  306MOL0     H40360   8.249   9.942   1.239 -0.7712 -0.6673 -0.6348
  306MOL0     H40361   8.224   9.941   1.057  0.9835  2.3175 -2.3058
  306MOL0     H40362   8.111  10.149   1.077 -0.9239 -1.9117 -0.0909
  306MOL0     H40363   8.145  10.161   1.257 -1.8711 -0.3771  1.2259
  306MOL0     H40364   7.986   9.931   1.130 -2.0182  0.8693 -1.3741
  306MOL0     H40365   8.008   9.975   1.296 -0.3826  0.4904  0.4052
  306MOL0     H40366   7.857  10.143   1.078 -1.4843  4.3962  1.2140
  306MOL0     H40367   7.862  10.181   1.244 -0.0142  0.4607 -0.0402
  306MOL0     H40368   7.719   9.984   1.303  0.0141 -2.7908 -0.9648
  306MOL0     H40369   7.742   9.927   1.139  0.8071 -1.1891  2.4036
  306MOL0     H40370   7.629  10.128   1.042  0.9217  0.4358 -0.0180
  306MOL0     H40371   7.523  10.034   1.147  1.4257 -1.5687  2.2669
  306MOL0     H40372   7.635  10.299   1.203  0.1791  0.1965  0.4848
  306MOL0     H40373   7.601  10.197   1.341  0.3611  1.3993  0.0548
  306MOL0     H40374   8.506  10.132   1.490  1.5892 -0.9304  2.3268
  306MOL0     H40375   8.716  10.223   1.563 -0.7104  0.1114 -0.1946
  306MOL0     H40376   9.040  10.526   1.488 -2.0719 -3.3608 -0.3150
  306MOL0     H40377   9.239  10.642   1.546 -3.0231  0.1684 -2.4580
  306MOL0     H40378   8.803  10.631   1.320 -1.1246 -0.9529 -0.5088
  306MOL0     H40379   8.578  10.539   1.274 -2.2613  1.3482  1.0742
  306MOL0     H40380   8.071  10.564   1.250  0.9124 -0.6878  0.0765
  306MOL0     H40381   7.842  10.521   1.312  0.3707  0.3796 -0.6536
  306MOL0     H40382   7.619  10.437   1.418 -1.3255 -0.1844  1.4231
  306MOL0     H40383   7.720  10.551   1.517  0.1808  0.1054 -0.3745
  306MOL0     H40384   7.572  10.341   1.675  0.9617  0.2284  1.5721
  306MOL0     H40385   7.565  10.519   1.696  0.8150 -0.0495  0.5773
  306MOL0     H40386   7.419  10.373   1.480  1.1226 -1.3754 -0.1884
  306MOL0     H40387   7.404  10.547   1.510 -0.1781  0.4733  0.9693
  306MOL0     H40388   7.301  10.322   1.681 -3.0741  1.0009 -0.2735
  306MOL0     H40389   7.358  10.478   1.755  1.3777  0.7854  0.1052
  306MOL0     H40390   7.000  10.614   1.585 -0.6508 -1.2169  1.2538
  306MOL0     H40391   7.978  10.273   1.640 -0.7916  2.1137  2.3310
  306MOL0     H40392   8.213  10.313   1.568  0.9020 -1.1319 -1.5025
  307MOL0     O40393   2.778   2.611   4.130  0.2804 -0.1960  0.1733
  307MOL0     C40394   2.819   2.549   4.033 -0.3791  0.0476  0.7817
  307MOL0     O40395   2.744   2.463   3.958 -0.6433  0.1354 -0.1985
  307MOL0     C40396   2.616   2.436   4.003  0.4602  0.3767  0.0237
  307MOL0     C40397   2.513   2.501   3.952 -0.0866 -0.3321 -0.2494
  307MOL0     C40398   2.380   2.482   3.987 -0.7489 -0.1646 -0.0156
  307MOL0     C40399   2.354   2.392   4.095 -0.2303 -0.5763 -0.4984
  307MOL0     O40400   2.223   2.356   4.122  0.6285  0.5070 -0.3518
  307MOL0     C40401   2.187   2.322   4.255 -0.4431 -0.0581  0.3322
  307MOL0     C40402   2.060   2.403   4.283 -0.2647  0.1722 -0.1606
  307MOL0     C40403   1.995   2.375   4.418  0.6930  0.0693  0.2438
  307MOL0     C40404   1.879   2.474   4.441 -0.1518 -0.3366  0.4656
  307MOL0     C40405   1.787   2.430   4.548 -0.2119 -0.1218 -0.8371
  307MOL0     C40406   1.861   2.388   4.671 -0.8155 -0.0442 -0.0487
  307MOL0     C40407   1.766   2.344   4.789  0.0558  0.1593  0.1185
  307MOL0     C40408   1.811   2.223   4.873 -0.3437  1.0828  0.3134
  307MOL0     N40409   1.938   2.251   4.941 -0.0187  0.0732 -0.0076
  307MOL0     C40410   2.049   2.175   4.941  0.2846  0.7970  0.4595
  307MOL0     C40411   2.136   2.225   5.037  0.4331 -0.5327 -0.2309
  307MOL0     C40412   2.264   2.156   5.078 -0.3704 -0.8253 -0.0194
  307MOL0     C40413   2.374   2.265   5.053  0.6739  0.4283  0.2386
  307MOL0     C40414   2.403   2.282   4.907  0.2447  0.2385  0.4154
  307MOL0     C40415   2.537   2.344   4.882 -0.0388 -0.3470 -0.4778
  307MOL0     O40416   2.644   2.265   4.947  0.4557  0.1896 -0.1807
  307MOL0     C40417   2.776   2.283   4.920  0.4861  0.6626 -1.0684
  307MOL0     C40418   2.865   2.201   4.988  0.7996  0.7866  0.2371
  307MOL0     C40419   3.003   2.201   4.956 -0.8009  0.0426  0.2133
  307MOL0     C40420   3.052   2.294   4.864 -0.6499 -0.6483  0.3251
  307MOL0     C40421   3.198   2.315   4.848  0.1309  0.0580  0.9592
  307MOL0     O40422   3.236   2.444   4.809  0.6071  0.0322  0.0857
  307MOL0     C40423   3.368   2.457   4.782  0.4277  0.2804 -1.2736
  307MOL0     C40424   3.454   2.485   4.884 -0.0523 -0.8136 -0.2444
  307MOL0     C40425   3.593   2.503   4.849  0.4969  0.1823 -0.1320
  307MOL0     C40426   3.639   2.468   4.723  0.8793 -0.7414 -0.3465
  307MOL0     O40427   3.775   2.475   4.713  0.4053  0.1286 -0.1306
  307MOL0     C40428   3.835   2.465   4.583 -0.4858 -0.5933 -0.2490
  307MOL0     C40429   3.989   2.464   4.599 -0.7104 -0.2779  0.3439
  307MOL0     C40430   4.035   2.342   4.681  0.2014 -0.5223  0.0256
  307MOL0     C40431   4.174   2.361   4.726 -0.6124  0.1854  0.0031
  307MOL0     C40432   4.202   2.234   4.801 -0.1125 -0.2426 -0.1546
  307MOL0     C40433   4.327   2.258   4.892 -0.5724  0.4528 -0.4622
  307MOL0     C40434   4.467   2.238   4.816  0.4909  0.1243 -0.3465
  307MOL0     C40435   4.596   2.240   4.904  0.8723  0.3137 -0.5354
  307MOL0    Cl40436   4.590   2.118   5.035  0.6485  0.0293  0.3132
  307MOL0     C40437   3.545   2.439   4.621 -0.7960 -0.2653  0.4516
  307MOL0     C40438   3.409   2.439   4.649  0.8578  0.2710 -0.3305
  307MOL0     O40439   3.276   2.226   4.884 -0.3809  0.0833 -0.1857
  307MOL0     C40440   2.962   2.383   4.814  0.6358  0.8605  0.4109
  307MOL0     C40441   2.826   2.378   4.833  0.5350 -0.4937 -0.2604
  307MOL0     N40442   2.071   2.338   5.092 -0.4779  1.3612 -0.0961
  307MOL0     N40443   1.956   2.355   5.036  0.1236  0.6427  0.7149
  307MOL0     C40444   2.464   2.329   4.163 -0.5508  0.1210  0.2201
  307MOL0     C40445   2.598   2.354   4.118  0.9679 -0.2471  0.4606
  307MOL0     C40446   2.954   2.591   3.989  0.4571 -0.8306 -0.2924
  307MOL0     C40447   3.029   2.521   3.891 -0.8568  0.9498  0.1598
  307MOL0     C40448   3.163   2.550   3.857  0.0807 -0.1549 -0.2893
  307MOL0     C40449   3.235   2.650   3.928  0.4298  0.3747 -0.1525
  307MOL0     O40450   3.367   2.671   3.888  0.6202 -0.1113 -0.4774
  307MOL0     C40451   3.416   2.804   3.930  0.7123  0.1417  0.3650
  307MOL0     C40452   3.503   2.857   3.816 -0.4959 -0.2298 -0.7007
  307MOL0     C40453   3.632   2.783   3.822 -0.2985 -0.1596  0.3130
  307MOL0     C40454   3.699   2.797   3.685  0.8393  0.3849  0.5557
  307MOL0     C40455   3.733   2.935   3.649 -0.1601  0.6847 -0.4309
  307MOL0     C40456   3.782   3.045   3.624  0.9663  0.2037  0.2196
  307MOL0     C40457   3.163   2.718   4.028  0.0605 -0.6659 -0.5713
  307MOL0     C40458   3.030   2.687   4.059 -0.2419 -0.4022 -0.6801
  307MOL0     H40459   2.527   2.587   3.887 -0.0660 -0.0813  0.0872
  307MOL0     H40460   2.298   2.540   3.945 -0.0965  0.1935 -0.8321
  307MOL0     H40461   2.267   2.349   4.324 -0.7994  0.3092  0.6097
  307MOL0     H40462   2.171   2.214   4.262 -2.3194  0.2093  0.6589
  307MOL0     H40463   1.992   2.395   4.197 -0.9946 -3.7015  0.6231
  307MOL0     H40464   2.103   2.504   4.288  0.8275 -0.2535 -0.6682
  307MOL0     H40465   2.084   2.391   4.481  2.2206  2.1689 -2.2633
  307MOL0     H40466   1.955   2.274   4.430  2.2364 -0.6260 -0.2104
  307MOL0     H40467   1.902   2.580   4.456 -1.1726  0.1294 -1.0011
  307MOL0     H40468   1.818   2.458   4.352 -1.2198 -0.0749  1.1251
  307MOL0     H40469   1.732   2.340   4.520  0.3173 -1.1492  1.2451
  307MOL0     H40470   1.709   2.503   4.576 -1.2599 -1.9722  1.4259
  307MOL0     H40471   1.938   2.459   4.700  2.1631 -3.2454  0.4642
  307MOL0     H40472   1.921   2.301   4.642 -1.3235 -1.0741  1.8667
  307MOL0     H40473   1.766   2.432   4.854 -0.7929  0.6797 -0.5630
  307MOL0     H40474   1.661   2.328   4.764  0.1968 -1.6556  0.5627
  307MOL0     H40475   1.816   2.130   4.816 -2.1618  0.6717  0.7660
  307MOL0     H40476   1.724   2.201   4.936 -1.5313 -3.0450 -2.4074
  307MOL0     H40477   2.083   2.090   4.881  1.1982  1.2079  0.3825
  307MOL0     H40478   2.280   2.066   5.019 -0.5792 -1.1155  0.3661
  307MOL0     H40479   2.258   2.135   5.185  1.5835  0.5645  0.4234
  307MOL0     H40480   2.464   2.244   5.112 -1.0422  0.6868  3.1507
  307MOL0     H40481   2.339   2.363   5.086  1.9930  1.4276 -1.2566
  307MOL0     H40482   2.394   2.183   4.861 -1.5307  1.2553 -1.6403
  307MOL0     H40483   2.324   2.340   4.859 -0.1697  0.3647  1.2242
  307MOL0     H40484   2.527   2.440   4.935  4.0487 -0.9126  1.6900
  307MOL0     H40485   2.543   2.361   4.774 -3.9060  2.7812 -0.4450
  307MOL0     H40486   2.820   2.128   5.054  0.8104 -0.7360 -1.3640
  307MOL0     H40487   3.068   2.129   5.004 -2.3498 -0.6522  1.3443
  307MOL0     H40488   3.423   2.495   4.988  0.0015 -0.5934 -0.2483
  307MOL0     H40489   3.668   2.511   4.926  2.2136  0.3397 -1.7406
  307MOL0     H40490   3.808   2.549   4.518  0.4314  0.7777  1.0665
  307MOL0     H40491   3.803   2.381   4.522 -0.9862 -0.1502 -0.6131
  307MOL0     H40492   4.013   2.562   4.642  0.8321 -0.5197  0.0937
  307MOL0     H40493   4.027   2.450   4.498 -0.7584  2.5259 -0.1363
  307MOL0     H40494   4.012   2.253   4.622 -0.6030 -0.7043  0.5899
  307MOL0     H40495   3.968   2.334   4.768 -1.3208 -0.0444 -1.0578
  307MOL0     H40496   4.243   2.376   4.643 -2.5434  0.8703 -1.5502
  307MOL0     H40497   4.187   2.448   4.792  0.2923 -2.0307  2.9515
  307MOL0     H40498   4.232   2.151   4.736  2.5595 -1.0262  1.8912
  307MOL0     H40499   4.122   2.209   4.871  2.4296 -3.1545  2.0198
  307MOL0     H40500   4.313   2.182   4.970  0.5792  2.8279  2.2383
  307MOL0     H40501   4.320   2.355   4.942  2.4896  1.8232 -2.4202
  307MOL0     H40502   4.464   2.143   4.762 -1.5277  0.2601 -0.5478
  307MOL0     H40503   4.464   2.314   4.737 -0.9159 -0.4341 -0.8609
  307MOL0     H40504   4.614   2.336   4.953 -0.0676  0.0181  0.4367
  307MOL0     H40505   4.679   2.226   4.835  0.9171  0.5083 -0.5215
  307MOL0     H40506   3.580   2.427   4.519  1.9821 -0.6483  1.3707
  307MOL0     H40507   3.332   2.439   4.573  0.9058 -0.3301 -0.3876
  307MOL0     H40508   2.997   2.465   4.751  0.5318 -0.5193 -1.5138
  307MOL0     H40509   2.759   2.442   4.777 -1.4344 -1.2692  1.0946
  307MOL0     H40510   2.448   2.258   4.243  1.5616  0.3575  0.9111
  307MOL0     H40511   2.679   2.310   4.174  1.4819 -2.1800 -1.6563
  307MOL0     H40512   2.978   2.442   3.838 -0.2186  1.2204 -0.8951
  307MOL0     H40513   3.226   2.497   3.786  0.9335  3.5994 -2.5748
  307MOL0     H40514   3.460   2.789   4.029 -1.6004 -2.4420  1.1316
  307MOL0     H40515   3.329   2.871   3.932 -2.8069 -3.8751 -1.2509
  307MOL0     H40516   3.446   2.831   3.726 -0.7833 -3.0920  0.2244
  307MOL0     H40517   3.515   2.966   3.818  0.1363 -0.2763 -1.3548
  307MOL0     H40518   3.629   2.677   3.849  2.5464  0.3204  3.2025
  307MOL0     H40519   3.692   2.840   3.894  0.0555  0.8752 -0.7796
  307MOL0     H40520   3.784   2.729   3.671  0.5083  0.1902 -0.6348
  307MOL0     H40521   3.632   2.748   3.613  2.3580 -1.9154  0.6216
  307MOL0     H40522   3.819   3.144   3.610 -0.2125  0.6839  0.3646
  307MOL0     H40523   3.215   2.797   4.082  0.6177  0.2781 -2.3915
  307MOL0     H40524   2.992   2.739   4.146 -1.7715 -2.2856 -0.1522
  308MOL0     O40525   7.101   4.566   0.044 -1.3443  0.0570  0.5149
  308MOL0     C40526   7.018   4.656   0.044 -0.1682  1.4237 -0.6479
  308MOL0     O40527   6.950   4.703  -0.060 -0.0522  0.7778 -0.1092
  308MOL0     C40528   6.955   4.633  -0.177  0.4377  0.0496 -0.6628
  308MOL0     C40529   6.960   4.708  -0.289 -0.2527 -0.5451  0.3708
  308MOL0     C40530   6.973   4.649  -0.417  0.3989 -0.5616 -0.2536
  308MOL0     C40531   6.968   4.518  -0.427 -0.8238 -0.0271 -0.1049
  308MOL0     O40532   6.987   4.467  -0.550 -0.2695 -0.2657 -0.5682
  308MOL0     C40533   6.990   4.321  -0.563 -0.8031 -0.1556  0.2139
  308MOL0     C40534   7.041   4.286  -0.710 -0.3709 -0.2137  0.0864
  308MOL0     C40535   6.932   4.198  -0.785  0.7867 -0.4865 -0.2795
  308MOL0     C40536   6.802   4.278  -0.834  0.2170  0.5023 -0.4365
  308MOL0     C40537   6.680   4.191  -0.847 -0.1206  0.2817 -0.6952
  308MOL0     C40538   6.563   4.266  -0.909 -0.4948 -0.6033  0.1897
  308MOL0     C40539   6.429   4.191  -0.917 -0.0660  0.5113 -0.2073
  308MOL0     C40540   6.340   4.246  -1.033 -0.2518  0.0933 -0.6463
  308MOL0     N40541   6.215   4.171  -1.044 -0.3049 -0.3845  0.4311
  308MOL0     C40542   6.106   4.205  -0.968 -0.0298 -0.2894  0.4474
  308MOL0     C40543   6.005   4.129  -1.029 -0.6039  0.6598 -0.2991
  308MOL0     C40544   5.871   4.118  -0.959  0.1062  0.6329  0.5704
  308MOL0     C40545   5.767   4.045  -1.038 -0.1158 -0.1952  0.6767
  308MOL0     C40546   5.629   4.039  -0.962 -0.2767  0.1581  0.0254
  308MOL0     C40547   5.509   4.007  -1.052 -0.1798  0.1354  0.5997
  308MOL0     O40548   5.414   3.922  -0.992 -0.0676 -0.4393  0.5786
  308MOL0     C40549   5.281   3.938  -1.015 -0.2780 -0.1071 -0.3458
  308MOL0     C40550   5.208   4.008  -1.108  1.0706  0.5218  0.1288
  308MOL0     C40551   5.065   4.006  -1.120  0.2779  0.4865  0.3717
  308MOL0     C40552   5.001   3.927  -1.027  0.0106  0.5890  0.7671
  308MOL0     C40553   4.853   3.923  -1.023 -0.2702 -0.3522 -0.3461
  308MOL0     O40554   4.782   3.980  -1.127  0.1391  0.1118  0.1151
  308MOL0     C40555   4.649   3.989  -1.125  0.1957 -0.0754  0.3490
  308MOL0     C40556   4.573   4.103  -1.164  0.3229  0.8249  0.5636
  308MOL0     C40557   4.429   4.110  -1.157  0.3014 -0.5766  0.1199
  308MOL0     C40558   4.361   3.998  -1.107 -0.0433  0.3025  0.5099
  308MOL0     O40559   4.223   4.017  -1.120 -0.0334  0.9233  0.4747
  308MOL0     C40560   4.142   3.907  -1.111  0.7458  0.3293  0.6886
  308MOL0     C40561   4.005   3.956  -1.140 -0.0568  0.4589  0.2673
  308MOL0     C40562   3.901   3.843  -1.148 -0.8437  0.3050  0.2145
  308MOL0     C40563   3.890   3.751  -1.028  0.4327 -0.4952 -0.2282
  308MOL0     C40564   3.841   3.823  -0.905 -0.1920  0.4507  0.4926
  308MOL0     C40565   3.752   3.735  -0.810  0.1901 -0.9720  0.5622
  308MOL0     C40566   3.768   3.794  -0.666 -0.2550 -0.7564  0.3709
  308MOL0     C40567   3.650   3.773  -0.574 -0.4833 -0.0443 -1.4682
  308MOL0    Cl40568   3.625   3.608  -0.528 -0.3998 -0.1741 -0.0023
  308MOL0     C40569   4.433   3.877  -1.081 -0.0060 -0.2362  0.3454
  308MOL0     C40570   4.574   3.875  -1.087  0.0388 -0.5093 -0.2994
  308MOL0     O40571   4.801   3.868  -0.923 -0.6042  0.2501  0.0051
  308MOL0     C40572   5.073   3.861  -0.930  0.2202  0.1883  0.6665
  308MOL0     C40573   5.210   3.862  -0.923 -0.0262 -0.6056  0.9179
  308MOL0     N40574   6.054   4.048  -1.125 -0.5045  0.5038 -0.1839
  308MOL0     N40575   6.180   4.066  -1.126 -0.4534  0.2268 -0.8077
  308MOL0     C40576   6.954   4.433  -0.313 -0.3043 -0.4440 -0.8954
  308MOL0     C40577   6.953   4.492  -0.193 -0.2939 -0.7020 -0.4467
  308MOL0     C40578   7.013   4.725   0.174 -0.0250  0.2451 -0.2259
  308MOL0     C40579   6.888   4.767   0.222 -0.0140  0.3775  0.4817
  308MOL0     C40580   6.881   4.819   0.353  0.1066 -0.0006 -0.4899
  308MOL0     C40581   6.996   4.852   0.422 -0.5956 -0.1046  0.1873
  308MOL0     O40582   6.983   4.929   0.533  0.4704 -0.6442 -0.6225
  308MOL0     C40583   7.049   5.056   0.515 -0.0135 -0.1079 -0.1206
  308MOL0     C40584   7.000   5.151   0.619 -0.3495  1.0080 -0.4840
  308MOL0     C40585   7.061   5.284   0.573  0.7458  0.5998 -0.7603
  308MOL0     C40586   7.028   5.395   0.665  0.3369 -0.5618  0.1724
  308MOL0     C40587   7.059   5.384   0.809 -0.7848 -0.0796 -0.6607
  308MOL0     C40588   7.088   5.360   0.926  0.0486 -0.5774 -0.1058
  308MOL0     C40589   7.118   4.809   0.373  0.0307  0.2949 -0.1146
  308MOL0     C40590   7.125   4.740   0.251 -0.5479  0.2841 -0.5566
  308MOL0     H40591   6.966   4.816  -0.282  1.8381 -0.5638 -0.2409
  308MOL0     H40592   6.967   4.712  -0.505 -0.5560  1.1563  0.9912
  308MOL0     H40593   6.888   4.284  -0.550 -1.1653  1.3095  2.0124
  308MOL0     H40594   7.057   4.274  -0.491 -0.4558 -2.0393 -1.2531
  308MOL0     H40595   7.131   4.227  -0.692 -0.9746 -0.3154  3.3408
  308MOL0     H40596   7.072   4.372  -0.772 -3.6216  0.8566 -0.2585
  308MOL0     H40597   6.898   4.115  -0.723 -1.2437 -1.1973 -2.2244
  308MOL0     H40598   6.978   4.142  -0.868 -0.9763 -1.8357 -0.3921
  308MOL0     H40599   6.784   4.360  -0.764  1.3251 -0.0008  0.4589
  308MOL0     H40600   6.823   4.321  -0.932  0.0025  0.5347 -0.4682
  308MOL0     H40601   6.651   4.151  -0.749 -1.1494 -2.3055 -1.9347
  308MOL0     H40602   6.694   4.111  -0.920 -0.3041  0.8655 -1.3716
  308MOL0     H40603   6.595   4.293  -1.010  1.1755 -2.3761  0.1810
  308MOL0     H40604   6.546   4.358  -0.851 -1.4362 -0.0184 -0.9701
  308MOL0     H40605   6.437   4.084  -0.938  1.5055  0.5591  0.0109
  308MOL0     H40606   6.377   4.197  -0.821  1.4942  1.6281  0.6159
  308MOL0     H40607   6.387   4.247  -1.131  0.6998  0.1014 -0.1991
  308MOL0     H40608   6.318   4.349  -1.005 -2.6308 -0.4332 -0.3287
  308MOL0     H40609   6.088   4.279  -0.890 -0.1878  0.3095 -0.1466
  308MOL0     H40610   5.838   4.220  -0.938  0.3168  0.4920  1.6662
  308MOL0     H40611   5.888   4.063  -0.865  1.2176 -3.1344 -1.6233
  308MOL0     H40612   5.799   3.942  -1.060 -2.0745 -0.0964 -3.4434
  308MOL0     H40613   5.736   4.092  -1.131 -2.9174 -1.1226  1.0637
  308MOL0     H40614   5.641   3.951  -0.898 -1.9373  0.1382  0.3623
  308MOL0     H40615   5.617   4.126  -0.897  0.4409 -0.8359  1.5529
  308MOL0     H40616   5.541   3.958  -1.145 -2.0848  0.7794 -0.4494
  308MOL0     H40617   5.464   4.103  -1.078 -0.9418 -0.6363 -1.1656
  308MOL0     H40618   5.258   4.068  -1.184 -1.6953  5.7248  1.9105
  308MOL0     H40619   5.006   4.050  -1.200  0.0967 -0.1422  0.1450
  308MOL0     H40620   4.622   4.193  -1.198 -1.4324  1.8561  0.6254
  308MOL0     H40621   4.386   4.205  -1.189  0.3902 -0.6922 -0.3515
  308MOL0     H40622   4.148   3.866  -1.010  1.8929  1.7690  1.2471
  308MOL0     H40623   4.173   3.828  -1.180  0.9768  0.0965  1.0549
  308MOL0     H40624   4.011   4.014  -1.232 -0.2980 -1.4054 -0.9895
  308MOL0     H40625   3.977   4.015  -1.052 -2.2967 -0.7072  0.3992
  308MOL0     H40626   3.916   3.790  -1.242  0.2747  0.6020  0.2157
  308MOL0     H40627   3.803   3.892  -1.147 -2.2398 -2.3030 -0.7469
  308MOL0     H40628   3.820   3.669  -1.046  0.8815 -0.5156 -2.0685
  308MOL0     H40629   3.992   3.714  -1.014  1.0659  1.0370 -0.6347
  308MOL0     H40630   3.781   3.912  -0.927 -0.7563 -0.3369 -1.3820
  308MOL0     H40631   3.935   3.859  -0.862 -0.4114  2.3436 -0.4787
  308MOL0     H40632   3.786   3.631  -0.819  1.1440 -0.8807  2.5667
  308MOL0     H40633   3.648   3.747  -0.840  0.8055 -0.6420 -1.6517
  308MOL0     H40634   3.861   3.772  -0.613 -1.5345 -2.7651  1.9179
  308MOL0     H40635   3.761   3.903  -0.674  0.9055 -0.5792  1.5303
  308MOL0     H40636   3.560   3.822  -0.614 -1.4578 -0.8493 -0.3391
  308MOL0     H40637   3.661   3.823  -0.478  0.7360 -1.0917 -1.0426
  308MOL0     H40638   4.389   3.780  -1.063 -0.7928  0.3051  1.4484
  308MOL0     H40639   4.624   3.781  -1.066  1.4616  0.3080  0.1019
  308MOL0     H40640   5.020   3.798  -0.858 -0.6938 -0.1728 -0.2897
  308MOL0     H40641   5.268   3.821  -0.842 -0.0718 -0.7487  0.8788
  308MOL0     H40642   6.960   4.325  -0.319 -0.4078 -0.4300 -1.3021
  308MOL0     H40643   6.935   4.422  -0.111 -2.8477  0.2398 -0.1147
  308MOL0     H40644   6.799   4.741   0.164  1.4434 -1.0062 -1.2475
  308MOL0     H40645   6.790   4.853   0.403  2.6880  2.2369  3.2405
  308MOL0     H40646   7.028   5.100   0.416  0.1746 -0.0654 -0.1409
  308MOL0     H40647   7.158   5.049   0.518  0.0836  1.2041  0.1302
  308MOL0     H40648   6.891   5.156   0.613 -0.3909  0.0768 -0.8439
  308MOL0     H40649   7.033   5.122   0.719 -1.6333  1.9660  0.2457
  308MOL0     H40650   7.030   5.302   0.470 -0.8956  1.4197 -0.1509
  308MOL0     H40651   7.170   5.268   0.568  0.7358 -0.3900  1.0379
  308MOL0     H40652   7.075   5.486   0.627  1.4039 -1.8724 -1.8219
  308MOL0     H40653   6.920   5.412   0.667  0.7037  2.3157 -0.5917
  308MOL0     H40654   7.088   5.359   1.033  0.0587 -0.2884 -0.1007
  308MOL0     H40655   7.210   4.819   0.430  0.6643  1.3886 -1.2881
  308MOL0     H40656   7.214   4.682   0.228 -0.3282  1.5150 -3.1672
  309MOL0     O40657   7.476   1.313   4.385 -0.1499 -0.0899  0.4019
  309MOL0     C40658   7.507   1.228   4.473  0.0877  0.4541  0.3436
  309MOL0     O40659   7.433   1.179   4.574  0.2941 -1.1986 -0.5707
  309MOL0     C40660   7.314   1.236   4.593  0.2241  0.5356 -0.3601
  309MOL0     C40661   7.207   1.210   4.514  0.2235 -0.7320 -0.1964
  309MOL0     C40662   7.074   1.260   4.541 -0.2294 -0.1248  0.8047
  309MOL0     C40663   7.055   1.329   4.667  0.0774  0.5616  0.2890
  309MOL0     O40664   6.931   1.370   4.715  0.0972 -0.1447  0.0350
  309MOL0     C40665   6.820   1.333   4.629  0.2246 -0.0822 -0.6117
  309MOL0     C40666   6.689   1.378   4.695 -0.2221  0.6831 -0.1037
  309MOL0     C40667   6.653   1.299   4.820  0.1194  0.0538  0.0526
  309MOL0     C40668   6.509   1.328   4.878  0.5980  0.2010 -0.4782
  309MOL0     C40669   6.499   1.261   5.017  0.6944 -0.5590 -0.1677
  309MOL0     C40670   6.359   1.288   5.086 -1.0177  1.3618 -0.1472
  309MOL0     C40671   6.259   1.191   5.018 -0.6712  0.2807  0.1249
  309MOL0     C40672   6.136   1.173   5.108 -0.5987 -1.0269  0.3422
  309MOL0     N40673   6.024   1.108   5.039  0.3342 -0.4767  0.1588
  309MOL0     C40674   5.921   1.175   4.987 -0.2695 -0.0225  0.4792
  309MOL0     C40675   5.856   1.085   4.909  0.1020 -0.6784 -0.8330
  309MOL0     C40676   5.734   1.118   4.820 -0.7149  0.3022 -0.2316
  309MOL0     C40677   5.621   1.004   4.836 -0.4682 -0.3036 -0.1528
  309MOL0     C40678   5.536   0.989   4.710  0.8648 -0.0461  0.1497
  309MOL0     C40679   5.386   0.959   4.730 -0.5398  0.0307 -0.7943
  309MOL0     O40680   5.322   1.065   4.799 -0.2531 -0.4329  0.1054
  309MOL0     C40681   5.185   1.072   4.803 -0.3653  0.4388  0.0183
  309MOL0     C40682   5.103   0.963   4.767  0.2777  0.3035  0.9066
  309MOL0     C40683   4.963   0.976   4.771 -0.1725  1.0427  1.2445
  309MOL0     C40684   4.906   1.096   4.816 -0.0296  0.0205 -0.0231
  309MOL0     C40685   4.759   1.116   4.825 -0.9644  1.4607  0.1686
  309MOL0     O40686   4.706   1.237   4.847 -0.6114 -0.0118 -0.1556
  309MOL0     C40687   4.575   1.262   4.819  0.5562  0.2906  0.0552
  309MOL0     C40688   4.512   1.222   4.696  0.8197  0.0183 -0.0318
  309MOL0     C40689   4.380   1.259   4.670 -0.0169 -0.5044 -0.8303
  309MOL0     C40690   4.309   1.338   4.759 -1.2029  0.2110 -0.7314
  309MOL0     O40691   4.176   1.352   4.727 -0.4448 -0.1180  0.0705
  309MOL0     C40692   4.102   1.449   4.792 -0.1820 -0.6843  0.1993
  309MOL0     C40693   3.954   1.438   4.774 -0.6245 -0.1966  0.0687
  309MOL0     C40694   3.860   1.540   4.849 -0.6206 -0.3824  0.8776
  309MOL0     C40695   3.714   1.523   4.794 -0.1574 -1.0566  0.4747
  309MOL0     C40696   3.624   1.641   4.814  0.2021  0.3795 -0.5563
  309MOL0     C40697   3.561   1.641   4.954 -0.6095 -0.2412 -0.4583
  309MOL0     C40698   3.475   1.761   4.980  0.0688 -0.0358 -0.2149
  309MOL0     C40699   3.400   1.732   5.105  0.1013  0.6084  0.3864
  309MOL0    Cl40700   3.304   1.876   5.160 -0.3738  0.3564 -0.2024
  309MOL0     C40701   4.374   1.388   4.875 -0.6728 -0.2315 -0.5994
  309MOL0     C40702   4.510   1.355   4.898 -0.0156 -0.3155  0.1967
  309MOL0     O40703   4.700   1.007   4.820  0.1579 -0.3241  0.3285
  309MOL0     C40704   4.988   1.205   4.856  0.0586 -0.0134  0.7912
  309MOL0     C40705   5.128   1.190   4.849 -0.5559 -0.8135 -0.0974
  309MOL0     N40706   5.914   0.964   4.925 -0.4007  0.7271 -0.6972
  309MOL0     N40707   6.009   0.977   5.012  0.0859  0.0401  0.3380
  309MOL0     C40708   7.168   1.351   4.746  0.3042  0.8856 -0.3063
  309MOL0     C40709   7.294   1.311   4.707 -0.7638  0.6327 -0.2073
  309MOL0     C40710   7.641   1.172   4.479 -0.7089 -0.3720 -0.5016
  309MOL0     C40711   7.728   1.210   4.374 -0.6057 -0.3084  0.4967
  309MOL0     C40712   7.852   1.152   4.364  0.6944  0.0775  0.3324
  309MOL0     C40713   7.886   1.042   4.435 -0.2943  0.0752 -0.5568
  309MOL0     O40714   8.009   0.978   4.420 -1.1908 -0.0351  0.4098
  309MOL0     C40715   8.123   1.049   4.354  0.1137  0.1305 -0.3362
  309MOL0     C40716   8.258   1.010   4.426  0.2850 -0.0315  0.4311
  309MOL0     C40717   8.303   0.870   4.386  0.3356  0.5994  1.2768
  309MOL0     C40718   8.395   0.801   4.490  0.2945  0.6482 -0.0194
  309MOL0     C40719   8.444   0.668   4.446  0.2079 -0.1278 -0.2274
  309MOL0     C40720   8.486   0.565   4.404  0.6510  0.2764 -0.1354
  309MOL0     C40721   7.800   1.006   4.536 -0.0826  0.4901 -0.9354
  309MOL0     C40722   7.679   1.071   4.563  0.0028 -0.1372 -0.5133
  309MOL0     H40723   7.213   1.153   4.421  0.1842 -0.0742 -0.6131
  309MOL0     H40724   6.984   1.246   4.482 -0.7480 -2.2388  1.9899
  309MOL0     H40725   6.822   1.225   4.613 -0.4195 -0.6363  2.3853
  309MOL0     H40726   6.825   1.391   4.536 -1.1381  1.5840  0.2934
  309MOL0     H40727   6.608   1.372   4.621  1.1970  0.6332 -1.7234
  309MOL0     H40728   6.694   1.486   4.714  0.7979  0.5490  0.4855
  309MOL0     H40729   6.733   1.319   4.892  0.8768 -0.2641 -0.6755
  309MOL0     H40730   6.654   1.191   4.803 -2.2715  0.0223 -0.1512
  309MOL0     H40731   6.478   1.433   4.881  0.8915  0.2750  1.0440
  309MOL0     H40732   6.437   1.277   4.813 -1.3657  0.4535  1.3678
  309MOL0     H40733   6.573   1.301   5.086  1.3294 -1.2286 -0.4499
  309MOL0     H40734   6.514   1.153   5.023 -3.1632 -1.4468 -2.7572
  309MOL0     H40735   6.332   1.392   5.066 -2.1197  0.9992 -0.6473
  309MOL0     H40736   6.361   1.273   5.195 -0.9051  1.6116 -0.1137
  309MOL0     H40737   6.229   1.246   4.928  0.7031 -0.5922 -0.8992
  309MOL0     H40738   6.309   1.098   4.990  2.1612  1.6899  0.1483
  309MOL0     H40739   6.102   1.269   5.148 -1.6991 -1.2358 -0.0504
  309MOL0     H40740   6.174   1.107   5.186 -0.2552  0.2039  1.2523
  309MOL0     H40741   5.920   1.283   4.995  1.7058 -0.0147  1.1670
  309MOL0     H40742   5.765   1.125   4.716 -0.3570 -1.8915 -0.3074
  309MOL0     H40743   5.708   1.219   4.855 -0.2390  0.7953 -1.2435
  309MOL0     H40744   5.557   1.015   4.924 -1.9870 -1.6471 -1.0213
  309MOL0     H40745   5.674   0.909   4.848  1.5683  0.8756  0.6181
  309MOL0     H40746   5.544   1.086   4.661  3.3556  0.7919  1.9832
  309MOL0     H40747   5.572   0.906   4.648  1.2516 -1.1439  1.7618
  309MOL0     H40748   5.376   0.876   4.800  0.1502 -1.0176 -1.8993
  309MOL0     H40749   5.339   0.945   4.632 -1.2872  4.4150 -1.2864
  309MOL0     H40750   5.147   0.870   4.732 -0.2873  0.9106 -1.6508
  309MOL0     H40751   4.905   0.886   4.752 -0.1339  1.3167 -0.3274
  309MOL0     H40752   4.555   1.162   4.617  3.0639  1.6019 -0.0918
  309MOL0     H40753   4.338   1.214   4.581 -1.8973 -0.2756 -0.0927
  309MOL0     H40754   4.141   1.542   4.751 -2.7128  0.9481  1.2792
  309MOL0     H40755   4.122   1.453   4.900  0.3410 -0.6790  0.1069
  309MOL0     H40756   3.930   1.335   4.805  0.4630 -0.1467  1.1392
  309MOL0     H40757   3.932   1.446   4.667  2.6662  0.9439 -0.6190
  309MOL0     H40758   3.903   1.637   4.822 -1.8633  0.2094  0.9381
  309MOL0     H40759   3.860   1.520   4.956 -3.7188  1.1236  1.2734
  309MOL0     H40760   3.735   1.514   4.687  3.2971 -0.1085  0.9395
  309MOL0     H40761   3.673   1.427   4.827  0.3878 -1.1248  0.9669
  309MOL0     H40762   3.538   1.633   4.747 -1.0331 -2.0180  1.1709
  309MOL0     H40763   3.679   1.732   4.790  1.0202 -0.5175 -2.3330
  309MOL0     H40764   3.637   1.634   5.031 -0.9700 -0.1429 -0.0914
  309MOL0     H40765   3.499   1.551   4.956 -0.2389 -0.5073  2.4088
  309MOL0     H40766   3.538   1.850   4.990  2.0941 -1.2816 -1.1320
  309MOL0     H40767   3.400   1.773   4.901 -2.8904 -2.5921  1.9445
  309MOL0     H40768   3.463   1.700   5.189  0.6203 -1.8950 -0.8475
  309MOL0     H40769   3.322   1.657   5.092 -2.4762  2.9606  1.2632
  309MOL0     H40770   4.329   1.467   4.935  1.1417 -1.3229  2.4399
  309MOL0     H40771   4.575   1.409   4.967  1.4431  0.0450 -1.3804
  309MOL0     H40772   4.951   1.303   4.884  1.0721  0.9485 -1.0674
  309MOL0     H40773   5.182   1.277   4.883 -1.0704  0.4837 -2.3737
  309MOL0     H40774   7.157   1.408   4.837 -3.7269  1.2330 -0.8483
  309MOL0     H40775   7.383   1.313   4.770 -0.5201  1.5522 -0.5590
  309MOL0     H40776   7.698   1.295   4.313 -1.8052  0.2601  1.8077
  309MOL0     H40777   7.901   1.176   4.270 -1.0586 -0.2932 -0.7241
  309MOL0     H40778   8.109   1.157   4.352  0.7030  0.2057 -0.8942
  309MOL0     H40779   8.119   1.026   4.247 -1.4333 -0.1176 -0.2405
  309MOL0     H40780   8.321   1.084   4.375  0.5164 -0.0643  0.6709
  309MOL0     H40781   8.249   1.024   4.534  3.9685 -2.7736  1.2995
  309MOL0     H40782   8.366   0.881   4.298  0.9849  1.3806  1.8283
  309MOL0     H40783   8.219   0.804   4.363 -0.1488  1.1564  1.4248
  309MOL0     H40784   8.482   0.863   4.512  1.3214 -0.5735 -0.4932
  309MOL0     H40785   8.342   0.787   4.584  2.1298  1.4647  1.2043
  309MOL0     H40786   8.496   0.472   4.351 -0.5476  1.0047 -1.7301
  309MOL0     H40787   7.821   0.927   4.608 -0.1195  0.9975 -0.3555
  309MOL0     H40788   7.621   1.028   4.645 -0.7383  2.0619  0.1816
  310MOL0     O40789   9.842   8.753   6.324 -0.2034 -0.1518  0.3205
  310MOL0     C40790   9.878   8.637   6.303 -0.9914  1.1542  0.4889
  310MOL0     O40791   9.794   8.537   6.274 -0.7108  0.2040  0.7057
  310MOL0     C40792   9.656   8.570   6.260  0.7512 -0.1754 -0.2015
  310MOL0     C40793   9.555   8.503   6.333  0.3825  0.0096 -0.1346
  310MOL0     C40794   9.419   8.528   6.339  0.4523 -0.2747  0.1763
  310MOL0     C40795   9.375   8.623   6.242  0.1061  0.5302  0.0373
  310MOL0     O40796   9.245   8.652   6.254  0.3642 -0.2484  0.2854
  310MOL0     C40797   9.168   8.678   6.128  0.2849 -0.3828  0.3884
  310MOL0     C40798   9.025   8.653   6.161  0.2636 -0.1796 -1.1565
  310MOL0     C40799   8.936   8.660   6.039  0.4352  0.0188 -0.3033
  310MOL0     C40800   8.800   8.603   6.078 -0.6947 -0.1214  0.0281
  310MOL0     C40801   8.695   8.610   5.967 -0.4283  0.3579  0.2109
  310MOL0     C40802   8.558   8.589   6.024 -0.4298  0.5430 -0.2495
  310MOL0     C40803   8.465   8.562   5.904 -0.0930 -1.0841  0.5184
  310MOL0     C40804   8.311   8.557   5.940 -0.0078  0.1942 -0.8974
  310MOL0     N40805   8.222   8.586   5.831  0.4062  0.7279 -0.2748
  310MOL0     C40806   8.096   8.523   5.802  0.1579 -0.3323  0.3694
  310MOL0     C40807   8.039   8.585   5.692  0.3183 -0.3604  1.0256
  310MOL0     C40808   7.907   8.560   5.629 -0.2583 -0.5093  0.0420
  310MOL0     C40809   7.855   8.416   5.650 -0.0801  0.3631  0.3808
  310MOL0     C40810   7.772   8.414   5.783 -0.5360  0.1284  0.2806
  310MOL0     C40811   7.735   8.275   5.826  1.0872  0.2970 -0.0824
  310MOL0     O40812   7.636   8.218   5.733 -0.2471  0.4244 -0.1539
  310MOL0     C40813   7.530   8.158   5.785  0.7239  0.7836 -0.3153
  310MOL0     C40814   7.534   8.071   5.896 -0.9493 -0.1206 -0.0491
  310MOL0     C40815   7.428   7.983   5.929 -0.8641 -0.3300  0.6140
  310MOL0     C40816   7.302   8.008   5.870 -1.0691  0.0859 -0.2150
  310MOL0     C40817   7.180   7.917   5.896  0.2075 -1.2334  0.1447
  310MOL0     O40818   7.064   7.938   5.819  0.0677  0.3216 -0.6736
  310MOL0     C40819   6.960   7.875   5.870 -0.0089  0.0014 -0.0417
  310MOL0     C40820   6.857   7.954   5.919 -0.0532 -0.0691 -0.0805
  310MOL0     C40821   6.741   7.893   5.981 -0.2921 -0.6254  0.0072
  310MOL0     C40822   6.729   7.757   5.984 -1.0951  0.7154 -0.0336
  310MOL0     O40823   6.617   7.689   6.028  0.8898 -0.1222  0.2207
  310MOL0     C40824   6.555   7.731   6.144  0.0133 -0.1431 -1.1741
  310MOL0     C40825   6.476   7.622   6.205  0.2811  0.5714 -1.2604
  310MOL0     C40826   6.326   7.629   6.178  0.8026  0.4550 -0.8700
  310MOL0     C40827   6.257   7.513   6.239  0.6373  0.2273  0.1033
  310MOL0     C40828   6.104   7.554   6.229 -0.7785 -0.1268 -1.1848
  310MOL0     C40829   5.993   7.458   6.270 -0.3815 -1.1404  0.7385
  310MOL0     C40830   5.856   7.535   6.252 -0.2754  1.0720  0.4049
  310MOL0     C40831   5.785   7.573   6.374  1.5148  0.4977  0.3090
  310MOL0    Cl40832   5.604   7.584   6.347  0.1033  0.3009  0.3503
  310MOL0     C40833   6.832   7.677   5.933 -0.1556  0.7066 -0.2958
  310MOL0     C40834   6.943   7.732   5.867 -0.2001  0.3418 -0.4807
  310MOL0     O40835   7.198   7.823   5.971 -0.2715 -0.1420 -0.8741
  310MOL0     C40836   7.292   8.109   5.773  0.6240 -0.1661 -0.1307
  310MOL0     C40837   7.400   8.187   5.735 -0.3180  0.3224  1.0334
  310MOL0     N40838   8.128   8.690   5.657 -0.7888  0.1620 -0.1290
  310MOL0     N40839   8.225   8.688   5.739  0.2010 -1.5753 -1.0382
  310MOL0     C40840   9.470   8.695   6.160  0.4210 -0.1698  0.2925
  310MOL0     C40841   9.610   8.666   6.168 -0.6248 -0.2104  1.2252
  310MOL0     C40842  10.023   8.613   6.294 -0.5847 -0.2991 -0.5212
  310MOL0     C40843  10.129   8.702   6.354  0.4119  0.3387 -0.1842
  310MOL0     C40844  10.265   8.677   6.343 -0.3805 -0.5185 -0.1599
  310MOL0     C40845  10.311   8.561   6.285 -0.3084  0.7945  0.2172
  310MOL0     O40846  10.448   8.540   6.270 -0.1148 -1.0995  0.0705
  310MOL0     C40847  10.499   8.571   6.133 -0.8028  0.6424 -0.0787
  310MOL0     C40848  10.649   8.613   6.132  0.5930 -0.6798 -0.0039
  310MOL0     C40849  10.653   8.757   6.176 -0.3708 -0.2816  0.0345
  310MOL0     C40850  10.800   8.793   6.179 -0.3715 -0.7269 -0.1431
  310MOL0     C40851  10.869   8.788   6.048  0.2210 -0.1344 -0.2326
  310MOL0     C40852  10.924   8.786   5.942 -0.0863 -0.0779  0.3180
  310MOL0     C40853  10.219   8.472   6.229 -0.7121  0.0458 -0.5529
  310MOL0     C40854  10.079   8.503   6.226 -1.1785  0.6252  1.0639
  310MOL0     H40855   9.589   8.420   6.394  0.1979 -2.0818 -2.6845
  310MOL0     H40856   9.344   8.474   6.396 -0.8819  0.6009 -0.6819
  310MOL0     H40857   9.204   8.614   6.046 -0.4241 -0.3493  0.0480
  310MOL0     H40858   9.189   8.783   6.106  3.1953 -0.3363  2.7917
  310MOL0     H40859   8.978   8.721   6.232  1.0049 -1.3789  0.5289
  310MOL0     H40860   9.016   8.559   6.217  1.1192  1.0345  1.1479
  310MOL0     H40861   8.968   8.591   5.961 -2.4371 -1.0883 -0.6234
  310MOL0     H40862   8.942   8.759   5.992  1.4424  0.6801  1.1386
  310MOL0     H40863   8.815   8.503   6.121  0.6892 -0.4403 -1.1213
  310MOL0     H40864   8.765   8.672   6.155  1.4142 -0.1222  1.0559
  310MOL0     H40865   8.723   8.526   5.902  1.5461 -0.4074  1.9528
  310MOL0     H40866   8.692   8.704   5.912 -1.0545  1.8860  2.7186
  310MOL0     H40867   8.523   8.676   6.080 -1.4550  0.8967 -1.3902
  310MOL0     H40868   8.554   8.501   6.088  1.6937  0.6310  0.0844
  310MOL0     H40869   8.481   8.647   5.836 -0.6764 -2.1374 -0.9843
  310MOL0     H40870   8.495   8.474   5.847 -1.4748 -2.1452  1.3493
  310MOL0     H40871   8.292   8.616   6.031  1.2013 -2.5492  1.2801
  310MOL0     H40872   8.294   8.451   5.960  0.9287  0.1643 -0.1845
  310MOL0     H40873   8.047   8.442   5.856 -2.5047  0.2411 -1.0412
  310MOL0     H40874   7.926   8.567   5.522 -1.9131 -0.6673 -0.2932
  310MOL0     H40875   7.836   8.640   5.651 -0.0411  0.8775 -3.5902
  310MOL0     H40876   7.938   8.345   5.643 -1.8061 -1.8797  1.3791
  310MOL0     H40877   7.779   8.393   5.575  0.1712 -1.6733  0.6855
  310MOL0     H40878   7.843   8.457   5.854 -0.0010  1.7730 -1.1773
  310MOL0     H40879   7.687   8.484   5.781 -0.8828 -0.2968  0.0203
  310MOL0     H40880   7.698   8.264   5.928 -0.0298 -2.6448 -0.6986
  310MOL0     H40881   7.822   8.210   5.828  1.0752  0.2214  3.1245
  310MOL0     H40882   7.630   8.052   5.943 -1.4431 -1.0456  0.6063
  310MOL0     H40883   7.446   7.894   5.989 -1.9650 -0.8014  0.2581
  310MOL0     H40884   6.865   8.062   5.914 -2.0304  0.0933 -1.0284
  310MOL0     H40885   6.665   7.963   6.017 -0.3819 -0.8190  0.1935
  310MOL0     H40886   6.497   7.822   6.125  1.8468  1.4713  0.5796
  310MOL0     H40887   6.626   7.765   6.219 -1.1500 -0.5241  0.1596
  310MOL0     H40888   6.493   7.621   6.313 -1.6835  0.9678 -0.8976
  310MOL0     H40889   6.509   7.526   6.165  0.1458 -1.0761  2.1799
  310MOL0     H40890   6.306   7.619   6.071 -2.2418 -0.5269 -0.3053
  310MOL0     H40891   6.283   7.723   6.213 -1.4439  0.0849 -2.4109
  310MOL0     H40892   6.279   7.420   6.185  0.5979 -1.0706  2.1730
  310MOL0     H40893   6.275   7.490   6.345  2.1979 -0.5560 -0.3008
  310MOL0     H40894   6.081   7.575   6.124 -2.0807  0.1798 -0.8559
  310MOL0     H40895   6.097   7.645   6.288  0.2200 -0.7008 -0.1384
  310MOL0     H40896   6.008   7.412   6.368 -1.5036 -3.8449 -0.2611
  310MOL0     H40897   5.995   7.373   6.201  1.6978 -2.3817  2.2323
  310MOL0     H40898   5.868   7.623   6.188  0.1413 -1.7081 -3.7741
  310MOL0     H40899   5.793   7.473   6.187  0.3271  0.6600  0.2009
  310MOL0     H40900   5.834   7.665   6.407  0.2177  1.0999  0.6410
  310MOL0     H40901   5.805   7.499   6.452 -0.4773  0.0350  0.4366
  310MOL0     H40902   6.821   7.570   5.949 -2.4962  1.0577  0.8391
  310MOL0     H40903   7.010   7.660   5.821  0.6697  0.2521  0.9001
  310MOL0     H40904   7.192   8.124   5.731 -0.6168 -1.7353  2.0544
  310MOL0     H40905   7.399   8.262   5.656 -4.9796 -0.7005 -0.1632
  310MOL0     H40906   9.421   8.773   6.103  2.4207  2.6975  2.2235
  310MOL0     H40907   9.679   8.718   6.103 -2.9241 -1.2538 -2.3127
  310MOL0     H40908  10.090   8.791   6.402 -1.0440  1.2790 -2.8900
  310MOL0     H40909  10.343   8.738   6.388  0.9875 -2.3050  0.0221
  310MOL0     H40910  10.433   8.640   6.081 -0.3660  0.6927 -0.5786
  310MOL0     H40911  10.503   8.475   6.081  0.6997  1.1066 -0.8732
  310MOL0     H40912  10.709   8.547   6.195 -0.0245  0.3053  1.6749
  310MOL0     H40913  10.680   8.590   6.030 -0.3971  1.3025 -0.7929
  310MOL0     H40914  10.598   8.762   6.271 -0.3474 -2.3902  0.2090
  310MOL0     H40915  10.600   8.820   6.104  0.9246 -1.0384 -1.6444
  310MOL0     H40916  10.814   8.893   6.220 -1.8395  0.7688 -2.9812
  310MOL0     H40917  10.859   8.730   6.246  0.8792 -0.2236 -0.7262
  310MOL0     H40918  10.975   8.808   5.850  1.9154  0.0167  1.4119
  310MOL0     H40919  10.258   8.375   6.198  1.4492  0.3354  1.0192
  310MOL0     H40920  10.020   8.442   6.158  1.5927  0.5923 -1.5252
  311MOL0     O40921   2.164   3.513   0.383 -0.0735 -0.0978 -0.4909
  311MOL0     C40922   2.255   3.580   0.441  0.8046 -0.6163 -0.2641
  311MOL0     O40923   2.255   3.624   0.565 -0.0846  0.4745  0.1845
  311MOL0     C40924   2.151   3.595   0.643 -0.4186 -0.2458 -0.1809
  311MOL0     C40925   2.160   3.482   0.727 -0.0593  0.3493  0.0286
  311MOL0     C40926   2.062   3.443   0.815  0.2825 -0.4684  0.0979
  311MOL0     C40927   1.948   3.517   0.822  0.5026 -0.4195 -0.5989
  311MOL0     O40928   1.844   3.489   0.903  0.8226  0.3557 -0.0435
  311MOL0     C40929   1.870   3.379   1.000 -0.1500  0.3112  0.3750
  311MOL0     C40930   1.748   3.379   1.086  0.6850  0.0514 -0.7989
  311MOL0     C40931   1.622   3.353   1.003  0.1956  0.9121  0.2311
  311MOL0     C40932   1.500   3.356   1.098  0.3807  0.6308  0.7393
  311MOL0     C40933   1.360   3.320   1.032 -0.6698 -0.0201  0.0053
  311MOL0     C40934   1.251   3.347   1.137  0.3244 -0.5372  0.2482
  311MOL0     C40935   1.112   3.339   1.077  0.2603 -0.4765  0.7086
  311MOL0     C40936   1.047   3.198   1.068 -0.2459 -0.6570 -0.0173
  311MOL0     N40937   0.915   3.225   1.006  0.0565  0.3647  0.2899
  311MOL0     C40938   0.806   3.152   1.033  0.1393 -0.2976 -0.2192
  311MOL0     C40939   0.708   3.189   0.947 -0.6656  0.4300  0.9020
  311MOL0     C40940   0.568   3.146   0.925 -0.1689 -0.3321  0.5488
  311MOL0     C40941   0.486   3.098   1.039 -1.1009 -0.0320 -0.2771
  311MOL0     C40942   0.346   3.028   1.016 -0.8407  0.2205  0.5866
  311MOL0     C40943   0.283   2.993   1.152  0.1151 -0.6760 -0.3717
  311MOL0     O40944   0.199   2.878   1.142 -0.5866 -0.7170 -0.9278
  311MOL0     C40945   0.074   2.900   1.095  0.0140 -0.1814  0.3838
  311MOL0     C40946   0.028   2.860   0.968 -0.3723  0.0415 -0.3219
  311MOL0     C40947  -0.106   2.876   0.932  0.5095 -0.1466  0.6459
  311MOL0     C40948  -0.195   2.957   1.013  0.7882 -0.3305 -0.3532
  311MOL0     C40949  -0.340   2.977   0.980  0.2486 -1.1257  0.8363
  311MOL0     O40950  -0.390   2.917   0.868  0.3131 -0.0545  0.1902
  311MOL0     C40951  -0.527   2.931   0.833  0.5770 -0.2005  1.0752
  311MOL0     C40952  -0.577   3.061   0.788  0.7542  0.1575  0.0378
  311MOL0     C40953  -0.702   3.066   0.731 -0.1020  0.0716  0.3555
  311MOL0     C40954  -0.789   2.956   0.731 -0.1555  0.0646 -0.7758
  311MOL0     O40955  -0.914   2.969   0.666  0.1288  0.8384 -0.0837
  311MOL0     C40956  -0.960   2.855   0.589 -0.0039  0.6894  0.5867
  311MOL0     C40957  -1.093   2.864   0.514  0.2985  0.0594  0.2750
  311MOL0     C40958  -1.199   2.926   0.610 -0.4416  0.1030  0.3433
  311MOL0     C40959  -1.327   2.955   0.541 -0.5108  0.2332  0.4151
  311MOL0     C40960  -1.406   2.836   0.490  0.0619 -0.0061  0.6289
  311MOL0     C40961  -1.542   2.885   0.467  0.0518 -0.5355 -0.0459
  311MOL0     C40962  -1.621   2.752   0.437  0.7344 -0.2088  1.1654
  311MOL0     C40963  -1.764   2.781   0.455  0.1121 -0.3464 -0.0300
  311MOL0    Cl40964  -1.832   2.896   0.331 -0.0013 -0.0536 -0.1368
  311MOL0     C40965  -0.739   2.830   0.788  0.3897 -0.1015 -0.3188
  311MOL0     C40966  -0.616   2.823   0.841  0.2092 -0.5956 -0.7641
  311MOL0     O40967  -0.405   3.059   1.050 -0.3845  0.3362 -0.7071
  311MOL0     C40968  -0.145   3.009   1.133  0.4360  0.1005  0.1463
  311MOL0     C40969  -0.017   2.967   1.181  0.0379  0.1073 -0.3201
  311MOL0     N40970   0.759   3.303   0.878  0.4428 -1.0339  0.6462
  311MOL0     N40971   0.885   3.315   0.910  0.5677 -0.8383  0.5219
  311MOL0     C40972   1.931   3.631   0.743 -0.9162  0.1406 -0.7090
  311MOL0     C40973   2.038   3.667   0.658 -0.0768  0.7815  0.0190
  311MOL0     C40974   2.370   3.620   0.360  0.0109  1.1209 -0.3032
  311MOL0     C40975   2.475   3.703   0.412  0.0724  0.7876  0.2149
  311MOL0     C40976   2.594   3.718   0.345  0.6298 -0.3881 -0.1169
  311MOL0     C40977   2.618   3.658   0.217  0.7764  0.4154  0.2611
  311MOL0     O40978   2.737   3.659   0.155 -0.6358 -0.0662 -0.3507
  311MOL0     C40979   2.842   3.733   0.220  0.3081  0.1516  0.6656
  311MOL0     C40980   2.939   3.759   0.105 -0.4717  0.6781 -0.0231
  311MOL0     C40981   3.001   3.620   0.083  0.1709  0.5080  0.4460
  311MOL0     C40982   3.107   3.640  -0.022  0.0778  0.0857 -0.2427
  311MOL0     C40983   3.227   3.700   0.031  0.1909 -0.3850 -0.0516
  311MOL0     C40984   3.325   3.749   0.078 -0.4131  0.1058  0.7807
  311MOL0     C40985   2.511   3.585   0.164 -0.4250 -0.7959  0.2927
  311MOL0     C40986   2.396   3.569   0.232  0.8090  1.0613  0.3098
  311MOL0     H40987   2.242   3.410   0.724  0.2319  0.5655  1.7651
  311MOL0     H40988   2.072   3.353   0.875  0.0639  0.3776  1.4375
  311MOL0     H40989   1.965   3.394   1.052  3.5131  0.3213 -5.4812
  311MOL0     H40990   1.877   3.283   0.949  1.7027 -1.1789  3.1885
  311MOL0     H40991   1.752   3.474   1.140  5.4239  0.5093 -1.5470
  311MOL0     H40992   1.750   3.301   1.163 -1.3236  0.3842 -0.3662
  311MOL0     H40993   1.618   3.264   0.939 -2.0974  1.0263  0.1178
  311MOL0     H40994   1.599   3.437   0.937  0.2214  1.6743  1.1705
  311MOL0     H40995   1.513   3.294   1.188 -0.0883 -0.3530  0.1534
  311MOL0     H40996   1.495   3.459   1.133  1.1747  0.8773  0.1536
  311MOL0     H40997   1.362   3.211   1.021  1.3107  0.0614 -0.8688
  311MOL0     H40998   1.344   3.365   0.934  1.5533  0.1740 -0.3102
  311MOL0     H40999   1.283   3.438   1.188  1.7972 -1.2368  0.6424
  311MOL0     H41000   1.257   3.265   1.208  1.9352  0.8951  1.8484
  311MOL0     H41001   1.049   3.398   1.143 -1.8816 -0.4839 -1.1732
  311MOL0     H41002   1.115   3.385   0.977 -0.0644  0.7984  1.2742
  311MOL0     H41003   1.032   3.166   1.171 -1.6870  0.1967  0.0581
  311MOL0     H41004   1.101   3.121   1.012  0.7055 -1.6537  2.1588
  311MOL0     H41005   0.804   3.072   1.107 -2.1266 -0.3275 -0.2716
  311MOL0     H41006   0.563   3.058   0.859 -0.8331  0.1491 -0.0575
  311MOL0     H41007   0.506   3.225   0.883 -0.2126 -1.2239 -1.1673
  311MOL0     H41008   0.467   3.189   1.097 -2.4704 -0.4829  0.0245
  311MOL0     H41009   0.549   3.026   1.091 -1.6625 -0.8733 -0.7437
  311MOL0     H41010   0.281   3.092   0.956 -0.6045  0.1146  0.2185
  311MOL0     H41011   0.354   2.944   0.947  0.6622  0.4805  0.4266
  311MOL0     H41012   0.224   3.077   1.190  0.6896 -0.5848  0.3299
  311MOL0     H41013   0.369   2.965   1.213  0.7097  0.6504 -0.5710
  311MOL0     H41014   0.094   2.796   0.910  0.2433  1.6143 -1.4384
  311MOL0     H41015  -0.143   2.847   0.835 -1.1467  0.4888  1.0501
  311MOL0     H41016  -0.509   3.144   0.802  0.5716  0.3996 -0.4839
  311MOL0     H41017  -0.729   3.156   0.678 -0.0665 -0.4294 -0.5357
  311MOL0     H41018  -0.964   2.769   0.656  3.2420 -1.1420 -1.3288
  311MOL0     H41019  -0.880   2.842   0.515 -1.5009 -1.4905 -0.7296
  311MOL0     H41020  -1.129   2.766   0.483  1.4335 -0.5581  0.8221
  311MOL0     H41021  -1.077   2.931   0.430  0.2178  3.5081  2.7994
  311MOL0     H41022  -1.158   3.019   0.652 -3.5293  1.0750  1.5340
  311MOL0     H41023  -1.215   2.875   0.706 -0.8394  1.1422  0.8437
  311MOL0     H41024  -1.391   3.015   0.607 -0.7884  1.6925 -1.1229
  311MOL0     H41025  -1.306   3.014   0.452 -4.4422 -0.9653 -1.5614
  311MOL0     H41026  -1.409   2.769   0.577 -0.6689 -0.7413  0.0548
  311MOL0     H41027  -1.362   2.782   0.406 -1.3937  0.0340 -0.1892
  311MOL0     H41028  -1.541   2.958   0.385 -3.4917  1.5063  1.5018
  311MOL0     H41029  -1.589   2.930   0.555 -2.1882 -2.4462 -0.1588
  311MOL0     H41030  -1.611   2.715   0.334 -1.3721 -1.0115  1.1888
  311MOL0     H41031  -1.594   2.674   0.509  0.7416  0.0270  1.4168
  311MOL0     H41032  -1.792   2.826   0.550 -2.3191 -2.2871  0.2513
  311MOL0     H41033  -1.826   2.692   0.444 -1.6303  0.9209 -1.0275
  311MOL0     H41034  -0.797   2.738   0.795  0.7128 -0.3941 -1.3760
  311MOL0     H41035  -0.575   2.733   0.886  1.8168 -0.4407 -1.8150
  311MOL0     H41036  -0.219   3.063   1.192  0.4225 -0.1051  0.3157
  311MOL0     H41037   0.007   2.979   1.287 -0.9822 -0.5561 -0.0074
  311MOL0     H41038   1.844   3.696   0.741 -0.1622  1.1651 -1.0464
  311MOL0     H41039   2.017   3.759   0.604 -2.2139  0.1993 -0.2098
  311MOL0     H41040   2.476   3.749   0.511  1.4409  0.8092  0.2118
  311MOL0     H41041   2.670   3.776   0.396  1.2321 -1.3075  0.0625
  311MOL0     H41042   2.884   3.680   0.306 -0.4775  0.5536  1.3172
  311MOL0     H41043   2.796   3.828   0.248 -1.8829 -1.0073  1.2442
  311MOL0     H41044   2.884   3.798   0.018 -1.8894  1.3730  1.1242
  311MOL0     H41045   3.013   3.833   0.137  0.6840 -0.0357 -0.9712
  311MOL0     H41046   2.931   3.546   0.042 -0.1178 -0.3545  2.3698
  311MOL0     H41047   3.041   3.584   0.178 -1.6481 -0.5593  0.8508
  311MOL0     H41048   3.118   3.542  -0.068 -3.2045  0.4853 -2.1873
  311MOL0     H41049   3.059   3.707  -0.094  1.5443  2.4349  0.8418
  311MOL0     H41050   3.418   3.780   0.122 -0.7871  0.2035  1.5269
  311MOL0     H41051   2.517   3.539   0.065 -2.8586 -2.2979  0.7386
  311MOL0     H41052   2.331   3.498   0.183  1.4931  0.1283  0.7124
  312MOL0     O41053   9.908  10.865   1.524 -1.1794  0.4382 -0.3013
  312MOL0     C41054   9.839  10.851   1.419 -0.1785 -0.2747 -0.0747
  312MOL0     O41055   9.881  10.796   1.297  0.1024  0.1990  0.2335
  312MOL0     C41056  10.003  10.735   1.276 -0.3266 -0.6319 -0.1920
  312MOL0     C41057  10.092  10.680   1.372  0.0031 -1.0634 -0.1556
  312MOL0     C41058  10.222  10.646   1.352  0.0828 -0.2941  0.2462
  312MOL0     C41059  10.267  10.647   1.223  0.0746 -0.7600  0.2652
  312MOL0     O41060  10.392  10.606   1.189  0.0348 -0.4471 -0.5334
  312MOL0     C41061  10.486  10.704   1.126  0.2132  0.4590 -0.1779
  312MOL0     C41062  10.598  10.616   1.070  0.3985  0.0298 -0.3342
  312MOL0     C41063  10.713  10.707   1.017 -0.2427 -0.4176 -1.1586
  312MOL0     C41064  10.843  10.629   0.982  0.3305  0.2264  0.4869
  312MOL0     C41065  10.962  10.725   0.964  0.1308 -0.4576  0.4228
  312MOL0     C41066  11.070  10.654   0.884  0.6006 -0.2340 -0.8085
  312MOL0     C41067  11.123  10.520   0.941  0.2406 -0.0135 -0.2455
  312MOL0     C41068  11.233  10.459   0.849  0.6940 -0.2435  0.1898
  312MOL0     N41069  11.374  10.488   0.881 -0.4036 -0.1050 -0.6371
  312MOL0     C41070  11.473  10.454   0.800  0.2074 -0.9145  0.3164
  312MOL0     C41071  11.584  10.525   0.836  0.7448 -0.0254  0.6520
  312MOL0     C41072  11.725  10.505   0.781 -0.3529 -0.2953 -0.1886
  312MOL0     C41073  11.823  10.495   0.903  0.0789 -0.1253  0.5198
  312MOL0     C41074  11.838  10.633   0.973  0.3158  0.0130  0.0573
  312MOL0     C41075  11.922  10.617   1.108  0.2184 -0.3006 -0.5344
  312MOL0     O41076  12.054  10.580   1.069  0.4253 -0.8686 -0.7919
  312MOL0     C41077  12.154  10.686   1.057  0.6198  0.1739 -0.0851
  312MOL0     C41078  12.266  10.639   0.993 -0.1678 -0.3291  0.4431
  312MOL0     C41079  12.383  10.720   0.968  0.3390 -0.3547 -0.5671
  312MOL0     C41080  12.377  10.852   1.013 -0.1747 -0.8611  0.2606
  312MOL0     C41081  12.487  10.950   1.012 -1.0214 -0.3216  0.4786
  312MOL0     O41082  12.460  11.085   1.026 -0.5976 -0.1037 -0.1065
  312MOL0     C41083  12.544  11.194   1.017 -0.9082  0.6402 -0.1422
  312MOL0     C41084  12.678  11.179   1.042 -0.1887 -0.2050 -0.0401
  312MOL0     C41085  12.770  11.282   1.031 -0.3950  0.3200 -0.8541
  312MOL0     C41086  12.722  11.406   0.983  0.5996 -0.3121  0.0822
  312MOL0     O41087  12.811  11.504   0.950  0.2373 -0.2789  0.0912
  312MOL0     C41088  12.821  11.521   0.804  0.2565  0.2574 -0.3225
  312MOL0     C41089  12.934  11.620   0.761  0.4672  0.3526  0.0936
  312MOL0     C41090  13.079  11.560   0.745 -0.4756  0.6955 -0.0002
  312MOL0     C41091  13.133  11.461   0.850 -0.2056  0.0308  0.6049
  312MOL0     C41092  13.267  11.401   0.809 -0.4741  0.1153  0.3402
  312MOL0     C41093  13.385  11.507   0.774  0.0084 -0.1425 -0.2136
  312MOL0     C41094  13.424  11.574   0.907  0.3489  0.1605  0.0158
  312MOL0     C41095  13.557  11.644   0.893  0.1105 -0.6327 -0.4354
  312MOL0    Cl41096  13.698  11.541   0.875 -0.2641  0.1961  0.1779
  312MOL0     C41097  12.580  11.423   0.963 -0.5524  0.0387 -0.3207
  312MOL0     C41098  12.492  11.318   0.984  0.2235  0.4680 -0.6877
  312MOL0     O41099  12.590  10.898   0.985 -1.0168 -0.2095 -0.3524
  312MOL0     C41100  12.259  10.906   1.075 -0.6976  0.5383 -0.8086
  312MOL0     C41101  12.156  10.819   1.102  0.2865  0.7778 -0.1996
  312MOL0     N41102  11.542  10.602   0.945  0.5455 -1.2578 -0.1397
  312MOL0     N41103  11.417  10.590   0.956  0.2772  0.7799  0.8593
  312MOL0     C41104  10.183  10.678   1.113  0.0932  0.7608 -0.5789
  312MOL0     C41105  10.054  10.730   1.141 -0.2220  0.6040  0.1699
  312MOL0     C41106   9.705  10.893   1.426  0.0333 -1.2889 -0.4479
  312MOL0     C41107   9.651  10.957   1.543 -1.0762  0.1655  0.4884
  312MOL0     C41108   9.529  11.015   1.537  0.1232 -0.2317 -0.2016
  312MOL0     C41109   9.424  10.982   1.436  0.0440  0.1886 -0.2179
  312MOL0     O41110   9.301  11.042   1.459 -0.1119  0.2792 -0.1424
  312MOL0     C41111   9.197  11.011   1.366 -0.7254 -0.0506 -0.4896
  312MOL0     C41112   9.080  11.103   1.376 -0.5049 -0.0574  0.2409
  312MOL0     C41113   8.991  11.102   1.249 -0.3875 -0.2827  0.7296
  312MOL0     C41114   8.934  10.962   1.217  0.4643  0.2374  0.3715
  312MOL0     C41115   8.849  10.962   1.089 -0.0371 -0.3409  0.2756
  312MOL0     C41116   8.776  10.969   0.992 -0.1090  0.2540  0.3028
  312MOL0     C41117   9.473  10.908   1.327 -0.0675  0.1740 -0.7177
  312MOL0     C41118   9.614  10.877   1.321 -0.4741  0.3077  0.1777
  312MOL0     H41119  10.059  10.690   1.475  0.4750 -0.0649 -0.0921
  312MOL0     H41120  10.281  10.598   1.428 -1.7065 -0.2971  1.7026
  312MOL0     H41121  10.535  10.778   1.189 -1.6494  1.9057 -0.3345
  312MOL0     H41122  10.434  10.755   1.044 -1.1025 -1.2899 -0.5068
  312MOL0     H41123  10.565  10.562   0.981  2.5912  2.1751 -2.6168
  312MOL0     H41124  10.621  10.550   1.154 -0.4102 -2.6725 -2.1148
  312MOL0     H41125  10.740  10.781   1.093 -2.3970  0.7126 -1.4234
  312MOL0     H41126  10.666  10.753   0.930 -1.5537 -1.6962 -1.1631
  312MOL0     H41127  10.858  10.555   1.061  1.0845  0.5563  0.6643
  312MOL0     H41128  10.827  10.576   0.888 -0.2373  0.6539  0.3372
  312MOL0     H41129  11.015  10.735   1.059  1.0440 -1.0352 -0.0104
  312MOL0     H41130  10.929  10.818   0.918  0.1004 -0.4540  0.4515
  312MOL0     H41131  11.150  10.729   0.884  2.3549 -1.7148  4.3309
  312MOL0     H41132  11.022  10.638   0.786 -0.1706 -2.4546 -0.1275
  312MOL0     H41133  11.158  10.540   1.043  1.5724 -0.9036 -0.5108
  312MOL0     H41134  11.044  10.446   0.956 -1.0375  1.2165 -0.6831
  312MOL0     H41135  11.202  10.490   0.748 -1.5288  0.9086  1.1563
  312MOL0     H41136  11.225  10.350   0.846 -3.0754 -0.0682 -2.1992
  312MOL0     H41137  11.464  10.384   0.718  2.3298  1.2912 -2.0060
  312MOL0     H41138  11.753  10.598   0.729 -0.5955  0.8789  1.6940
  312MOL0     H41139  11.747  10.418   0.718 -0.6868 -1.1134  0.8062
  312MOL0     H41140  11.921  10.468   0.864 -0.1229 -0.3445  0.1529
  312MOL0     H41141  11.792  10.420   0.976  2.4479 -2.3555 -0.6265
  312MOL0     H41142  11.891  10.699   0.904 -0.0467 -1.5061 -1.7733
  312MOL0     H41143  11.745  10.685   0.996 -1.0538 -1.2294 -2.2851
  312MOL0     H41144  11.877  10.535   1.165 -0.5736  0.1230 -0.5296
  312MOL0     H41145  11.912  10.712   1.161 -1.4785  1.1853 -3.2915
  312MOL0     H41146  12.273  10.539   0.951  0.9835 -1.5136  3.1967
  312MOL0     H41147  12.463  10.668   0.916  0.4894  0.5289 -1.2416
  312MOL0     H41148  12.723  11.083   1.066 -3.6021 -1.8883  0.2289
  312MOL0     H41149  12.871  11.261   1.064 -0.5469  1.8056  0.6823
  312MOL0     H41150  12.731  11.566   0.760  0.0657  0.8991  0.6934
  312MOL0     H41151  12.845  11.423   0.761 -1.1254 -0.5139  0.5586
  312MOL0     H41152  12.947  11.707   0.826  2.9425 -0.5789  0.9353
  312MOL0     H41153  12.893  11.664   0.669  0.5878  2.5177  1.0043
  312MOL0     H41154  13.154  11.637   0.767  1.4074 -1.8722  3.5429
  312MOL0     H41155  13.092  11.521   0.644  1.6161 -0.7477  0.7593
  312MOL0     H41156  13.149  11.510   0.946  0.6212  0.9274  0.0214
  312MOL0     H41157  13.068  11.374   0.865 -1.8173  1.2692  1.0586
  312MOL0     H41158  13.250  11.337   0.723  0.2810  2.0795 -1.3690
  312MOL0     H41159  13.298  11.344   0.897 -0.4345 -2.0875 -1.0290
  312MOL0     H41160  13.359  11.577   0.695 -0.8604 -0.5790 -0.3357
  312MOL0     H41161  13.467  11.447   0.734  0.8657  0.1955  0.9877
  312MOL0     H41162  13.354  11.654   0.932 -1.8604  0.4291 -5.6176
  312MOL0     H41163  13.424  11.499   0.987 -2.6844 -0.3299 -0.3383
  312MOL0     H41164  13.568  11.692   0.991 -0.3328 -1.3211 -0.0348
  312MOL0     H41165  13.554  11.720   0.814 -2.5708  1.7900  1.7634
  312MOL0     H41166  12.533  11.519   0.943 -0.1791 -0.0220 -1.5995
  312MOL0     H41167  12.387  11.337   0.965  0.8465  3.4060 -1.9074
  312MOL0     H41168  12.264  10.999   1.129 -1.6617  0.0342  0.1873
  312MOL0     H41169  12.074  10.854   1.164  0.1766  0.3124 -0.0820
  312MOL0     H41170  10.211  10.652   1.012 -1.8758 -3.5679 -0.2742
  312MOL0     H41171   9.988  10.770   1.065 -2.0926 -2.7295 -0.1435
  312MOL0     H41172   9.729  10.991   1.611  2.4333 -0.6927 -2.7701
  312MOL0     H41173   9.508  11.079   1.622  0.6603  1.0919 -1.0326
  312MOL0     H41174   9.165  10.907   1.366  0.9189 -0.5891  0.5892
  312MOL0     H41175   9.229  11.023   1.262  0.0918 -1.8177 -0.4749
  312MOL0     H41176   9.013  11.071   1.457 -2.1874  2.5597 -0.0255
  312MOL0     H41177   9.109  11.203   1.407 -0.0272 -1.0390  3.3846
  312MOL0     H41178   9.049  11.143   1.166  1.3604  0.2181  2.1358
  312MOL0     H41179   8.911  11.175   1.265 -0.7919 -0.7711  0.9779
  312MOL0     H41180   9.015  10.892   1.194 -0.8801 -1.8095  1.4668
  312MOL0     H41181   8.879  10.923   1.303  0.7477 -2.0130 -0.3805
  312MOL0     H41182   8.697  10.971   0.919  0.1328  1.2148  0.0516
  312MOL0     H41183   9.404  10.876   1.250 -0.6738  0.6291 -0.3739
  312MOL0     H41184   9.648  10.821   1.234  1.5612  0.0365  1.0903
  313MOL0     O41185   4.387   5.429   7.664 -0.7729 -0.2597  0.1352
  313MOL0     C41186   4.417   5.358   7.764  0.2206  1.8341  0.2542
  313MOL0     O41187   4.325   5.294   7.845  0.1427 -0.7228  0.6181
  313MOL0     C41188   4.197   5.297   7.809  0.1581  0.5875  0.4542
  313MOL0     C41189   4.145   5.213   7.706  0.4744 -0.1598  0.5446
  313MOL0     C41190   4.012   5.208   7.676  0.0854  0.4755 -0.1441
  313MOL0     C41191   3.919   5.285   7.754 -0.6375  0.4144  0.0936
  313MOL0     O41192   3.789   5.285   7.714 -0.1926  0.2258 -0.7064
  313MOL0     C41193   3.687   5.367   7.790  0.0510  0.7402  0.2785
  313MOL0     C41194   3.548   5.337   7.721  0.2657 -1.3015 -0.0854
  313MOL0     C41195   3.491   5.200   7.773 -0.6882 -0.1572  0.0401
  313MOL0     C41196   3.430   5.214   7.912  0.5814  1.1033  0.4665
  313MOL0     C41197   3.427   5.080   7.988 -0.3459  0.0774  0.5061
  313MOL0     C41198   3.352   4.971   7.907 -0.5915 -1.0077  0.8585
  313MOL0     C41199   3.382   4.833   7.971  0.6836  0.0446  0.5773
  313MOL0     C41200   3.279   4.721   7.940  0.2644 -0.2812  0.3680
  313MOL0     N41201   3.143   4.751   7.982 -0.3996  0.0425  0.0979
  313MOL0     C41202   3.036   4.738   7.899 -0.2931 -0.1533 -0.0084
  313MOL0     C41203   2.929   4.778   7.976  0.1930  1.1963 -0.1234
  313MOL0     C41204   2.785   4.777   7.929  0.0148  0.5051  0.0789
  313MOL0     C41205   2.685   4.785   8.040 -0.0898  0.6836 -0.3834
  313MOL0     C41206   2.689   4.657   8.132 -0.5409  0.3763  0.1292
  313MOL0     C41207   2.589   4.669   8.242 -0.3899 -0.6601 -0.3288
  313MOL0     O41208   2.465   4.681   8.185  0.5910  0.2784  0.1210
  313MOL0     C41209   2.365   4.722   8.267 -0.7266  0.3382 -0.1520
  313MOL0     C41210   2.234   4.726   8.211  0.3525  0.8831 -0.6012
  313MOL0     C41211   2.115   4.759   8.273  0.4437 -0.0918 -0.1988
  313MOL0     C41212   2.128   4.789   8.409  0.3617 -0.3408  0.6939
  313MOL0     C41213   2.001   4.814   8.476  0.0166 -0.0555  0.0824
  313MOL0     O41214   1.895   4.838   8.404 -0.1101  0.0762 -0.0577
  313MOL0     C41215   1.775   4.814   8.465 -0.4304 -0.2983  0.8173
  313MOL0     C41216   1.684   4.914   8.485  0.4631 -0.3953 -1.2949
  313MOL0     C41217   1.557   4.896   8.545 -0.2550 -0.4335  0.1460
  313MOL0     C41218   1.515   4.766   8.574  0.0231  0.7568 -0.1395
  313MOL0     O41219   1.400   4.737   8.648 -0.0413  0.3854  0.1925
  313MOL0     C41220   1.313   4.851   8.680  0.2724 -0.0971  0.0428
  313MOL0     C41221   1.203   4.807   8.784  0.6183 -0.0729  0.5732
  313MOL0     C41222   1.108   4.699   8.729 -0.2393 -0.0290  0.1402
  313MOL0     C41223   1.027   4.621   8.839 -0.1760 -0.3498 -0.4214
  313MOL0     C41224   0.949   4.709   8.941 -0.6779 -0.2729  0.7513
  313MOL0     C41225   0.849   4.802   8.871  0.4602 -1.2327 -0.0616
  313MOL0     C41226   0.750   4.875   8.964  0.5032  0.4696  0.7615
  313MOL0     C41227   0.701   5.006   8.886  0.3100 -0.1355  0.2933
  313MOL0    Cl41228   0.603   4.970   8.739  0.0233 -0.1810 -0.1552
  313MOL0     C41229   1.611   4.664   8.563  0.2480 -0.3679 -0.1446
  313MOL0     C41230   1.739   4.683   8.505  0.2976 -0.1663 -0.2739
  313MOL0     O41231   2.002   4.789   8.598 -0.0105 -1.0321 -0.1948
  313MOL0     C41232   2.259   4.778   8.473  0.2483  0.5801 -0.4481
  313MOL0     C41233   2.377   4.744   8.404  0.0595 -0.0028  0.4193
  313MOL0     N41234   2.975   4.804   8.101 -0.3284  0.0472  0.7037
  313MOL0     N41235   3.104   4.782   8.105 -0.2021 -0.2996  0.4687
  313MOL0     C41236   3.967   5.369   7.860  0.0651  0.4240  0.1489
  313MOL0     C41237   4.103   5.379   7.872 -0.5886 -0.2759  0.7281
  313MOL0     C41238   4.558   5.336   7.789  0.1751  0.2938  0.4241
  313MOL0     C41239   4.604   5.224   7.862  0.0860  0.3682  0.6770
  313MOL0     C41240   4.745   5.202   7.879  0.1833  0.5811  0.3305
  313MOL0     C41241   4.843   5.281   7.816 -0.2315  0.0088 -0.1642
  313MOL0     O41242   4.980   5.274   7.837  0.4025  0.4869 -0.1067
  313MOL0     C41243   5.034   5.173   7.930  1.4096  1.0490 -0.1157
  313MOL0     C41244   5.188   5.171   7.943  0.1455 -0.3842 -0.1024
  313MOL0     C41245   5.268   5.121   7.813  0.4762  0.1142  0.1102
  313MOL0     C41246   5.421   5.104   7.837  0.0594  0.2237  0.0246
  313MOL0     C41247   5.493   5.232   7.858  0.3958 -0.2000 -0.4262
  313MOL0     C41248   5.538   5.342   7.850  0.1134 -0.1629 -1.2402
  313MOL0     C41249   4.795   5.379   7.734  0.0532  0.5606 -0.6269
  313MOL0     C41250   4.658   5.414   7.732  0.3338  0.4137 -0.0656
  313MOL0     H41251   4.217   5.148   7.655  1.7455  2.2234 -0.8871
  313MOL0     H41252   3.983   5.146   7.592 -1.2775  1.9343 -0.8116
  313MOL0     H41253   3.692   5.476   7.787 -3.1118  0.9842  0.4836
  313MOL0     H41254   3.668   5.341   7.895 -2.1718 -0.1805 -0.2953
  313MOL0     H41255   3.553   5.343   7.612  0.1424  3.1827  0.0008
  313MOL0     H41256   3.478   5.417   7.745  0.5294 -1.3301  0.8103
  313MOL0     H41257   3.584   5.144   7.789 -0.3067  0.8339  1.4862
  313MOL0     H41258   3.429   5.158   7.693 -0.4387  0.8020 -0.6747
  313MOL0     H41259   3.489   5.292   7.962 -0.6391  1.9621  0.6004
  313MOL0     H41260   3.329   5.253   7.901  0.3052  0.5160  0.9238
  313MOL0     H41261   3.378   5.102   8.084  0.2359  1.3385  0.5319
  313MOL0     H41262   3.532   5.053   8.002 -0.2875 -1.9218 -2.7019
  313MOL0     H41263   3.384   4.979   7.803 -1.6889 -0.3185  0.5597
  313MOL0     H41264   3.244   4.990   7.905 -0.5499 -0.1372 -3.4667
  313MOL0     H41265   3.485   4.810   7.941  0.4971  0.2532 -0.2417
  313MOL0     H41266   3.385   4.839   8.080 -1.1350 -0.5865  0.6848
  313MOL0     H41267   3.303   4.626   7.988  1.0958 -2.1981 -3.4520
  313MOL0     H41268   3.283   4.724   7.830 -0.8497  1.8432  0.3349
  313MOL0     H41269   3.040   4.733   7.790  0.5403  0.5702 -0.0198
  313MOL0     H41270   2.771   4.678   7.884  2.4045 -0.9896  2.3005
  313MOL0     H41271   2.768   4.852   7.851 -1.5091  1.5998  1.4045
  313MOL0     H41272   2.584   4.794   8.000  0.3077  3.3729 -1.0069
  313MOL0     H41273   2.695   4.875   8.102  1.4913 -0.3502  0.9451
  313MOL0     H41274   2.662   4.567   8.076 -2.1832  0.1814  1.1710
  313MOL0     H41275   2.790   4.635   8.168 -0.2107 -1.0343 -1.4951
  313MOL0     H41276   2.607   4.758   8.303 -0.7636  1.2456 -2.8335
  313MOL0     H41277   2.602   4.585   8.310 -0.0814  2.2206  3.4937
  313MOL0     H41278   2.236   4.708   8.104  0.2849 -0.0318 -0.4525
  313MOL0     H41279   2.018   4.750   8.226  0.1691 -0.0144  0.3492
  313MOL0     H41280   1.716   5.013   8.454  2.6359  0.2543  2.4643
  313MOL0     H41281   1.496   4.984   8.567 -0.3562 -1.1195  3.1285
  313MOL0     H41282   1.273   4.887   8.585  3.1580 -0.1614 -1.3083
  313MOL0     H41283   1.374   4.928   8.727  0.3901 -0.8437  1.1495
  313MOL0     H41284   1.145   4.896   8.809  0.0526 -0.4584  0.6477
  313MOL0     H41285   1.258   4.776   8.873  0.0560  0.4283  1.1036
  313MOL0     H41286   1.174   4.635   8.669 -0.8483 -0.1083 -0.4523
  313MOL0     H41287   1.040   4.758   8.667  1.5775  0.9517 -1.0197
  313MOL0     H41288   0.950   4.562   8.788  0.8179 -0.5861 -1.7082
  313MOL0     H41289   1.089   4.553   8.899 -0.4650 -0.1648  0.0899
  313MOL0     H41290   1.016   4.751   9.017 -1.4351 -0.3061  1.4486
  313MOL0     H41291   0.880   4.646   8.998  0.3442 -1.0346  1.1799
  313MOL0     H41292   0.799   4.735   8.800 -1.6912 -1.1334  1.2688
  313MOL0     H41293   0.916   4.875   8.824  0.2663 -0.9013  0.1740
  313MOL0     H41294   0.677   4.799   8.994  1.3944 -1.4685 -1.6389
  313MOL0     H41295   0.804   4.902   9.056 -2.1159 -1.5253  3.0792
  313MOL0     H41296   0.782   5.074   8.858  0.0315  0.5756  1.1599
  313MOL0     H41297   0.638   5.063   8.955  2.2854 -0.9838  2.9599
  313MOL0     H41298   1.588   4.568   8.606 -0.8749 -0.4135 -0.7916
  313MOL0     H41299   1.810   4.601   8.499  2.1385  1.4352 -2.5202
  313MOL0     H41300   2.253   4.800   8.579 -1.5343  1.1199 -0.6360
  313MOL0     H41301   2.469   4.729   8.460  1.3353  2.8446 -0.6769
  313MOL0     H41302   3.899   5.431   7.917 -2.6358 -0.6579 -1.7098
  313MOL0     H41303   4.156   5.441   7.943 -0.1250 -2.1109  2.0807
  313MOL0     H41304   4.532   5.154   7.904  3.3725 -1.7522  3.3166
  313MOL0     H41305   4.774   5.120   7.944 -0.5697  0.8168  0.9892
  313MOL0     H41306   4.998   5.073   7.905 -1.8707  1.9708  0.4540
  313MOL0     H41307   5.006   5.205   8.031  2.1511 -1.6435  1.0117
  313MOL0     H41308   5.217   5.271   7.977 -0.9110 -0.5967  1.5266
  313MOL0     H41309   5.206   5.099   8.023  1.8745  0.3431  0.2137
  313MOL0     H41310   5.261   5.187   7.726  0.5645  1.6676  1.2346
  313MOL0     H41311   5.218   5.027   7.791 -3.1678  0.8952  3.9444
  313MOL0     H41312   5.436   5.032   7.918  0.3268 -0.5972 -0.7370
  313MOL0     H41313   5.457   5.060   7.743  2.0088  0.4254  0.6446
  313MOL0     H41314   5.582   5.439   7.843  0.2127 -0.0970 -0.0309
  313MOL0     H41315   4.857   5.440   7.669 -1.7287  0.4465 -2.5417
  313MOL0     H41316   4.635   5.499   7.669  2.5257 -0.1491 -1.7459
  314MOL0     O41317   9.662   1.269  10.585  0.1307  0.4084 -0.0590
  314MOL0     C41318   9.726   1.353  10.633  0.4761 -0.3128  0.4327
  314MOL0     O41319   9.680   1.477  10.659 -1.1095  0.0476 -0.1700
  314MOL0     C41320   9.540   1.488  10.660 -0.0210 -0.1537  0.7405
  314MOL0     C41321   9.458   1.445  10.769  1.0812 -0.0276 -0.7391
  314MOL0     C41322   9.326   1.482  10.773 -0.8387  0.6942 -0.8977
  314MOL0     C41323   9.275   1.551  10.675  0.1533 -0.3400 -1.0426
  314MOL0     O41324   9.145   1.595  10.691 -0.4198 -0.3051  0.3902
  314MOL0     C41325   9.042   1.495  10.722 -0.1752  0.0824  0.7051
  314MOL0     C41326   8.916   1.556  10.663  0.1816  0.4500 -0.2962
  314MOL0     C41327   8.782   1.493  10.714 -0.9824 -0.5111 -0.4373
  314MOL0     C41328   8.660   1.512  10.629  0.2113  0.3347  0.5721
  314MOL0     C41329   8.548   1.421  10.671  0.0490  0.4652 -0.5014
  314MOL0     C41330   8.416   1.483  10.621  0.7817  0.8008 -0.0290
  314MOL0     C41331   8.413   1.476  10.468 -0.1186  0.1089  0.7464
  314MOL0     C41332   8.299   1.546  10.406 -0.3160  0.2001 -0.7911
  314MOL0     N41333   8.318   1.546  10.258  0.7281 -0.9924 -0.0652
  314MOL0     C41334   8.235   1.488  10.166 -0.4618  0.3297 -0.7118
  314MOL0     C41335   8.297   1.509  10.050 -1.2754  0.0855  0.0369
  314MOL0     C41336   8.240   1.454   9.925  0.0818  0.1262  0.5782
  314MOL0     C41337   8.134   1.343   9.956  0.4974 -0.5346 -0.0889
  314MOL0     C41338   8.078   1.270   9.839  0.8339  0.5066 -0.7534
  314MOL0     C41339   7.944   1.204   9.865  0.4262  1.3747 -0.1457
  314MOL0     O41340   7.843   1.290   9.916 -0.2359 -0.2834  0.3252
  314MOL0     C41341   7.790   1.371   9.819  0.2361  0.6880 -0.1232
  314MOL0     C41342   7.837   1.504   9.807  0.2048  0.5301 -1.0361
  314MOL0     C41343   7.777   1.597   9.723 -0.1718 -0.0367  0.9162
  314MOL0     C41344   7.676   1.563   9.642  0.2188  0.0405  1.2701
  314MOL0     C41345   7.594   1.662   9.565  0.0732 -0.2528  0.1931
  314MOL0     O41346   7.641   1.786   9.551  0.1928  0.9054  0.2888
  314MOL0     C41347   7.573   1.878   9.473  0.2328 -0.5879 -0.8606
  314MOL0     C41348   7.489   1.852   9.362  0.1875 -0.7269 -0.6009
  314MOL0     C41349   7.427   1.952   9.282 -0.5363  0.1832  0.4201
  314MOL0     C41350   7.425   2.082   9.324 -0.5769 -0.2213 -0.0019
  314MOL0     O41351   7.353   2.171   9.242 -0.1703 -0.1708 -0.2141
  314MOL0     C41352   7.318   2.295   9.309  0.9671 -0.1863  0.0286
  314MOL0     C41353   7.212   2.368   9.217  0.6094 -0.6542 -0.8307
  314MOL0     C41354   7.180   2.505   9.271  0.4342 -0.9938  0.4480
  314MOL0     C41355   7.096   2.510   9.404 -0.2106 -0.0580 -0.2230
  314MOL0     C41356   7.056   2.650   9.441 -1.0484  0.4683 -0.2660
  314MOL0     C41357   6.987   2.660   9.577 -0.4910  0.1473 -0.3796
  314MOL0     C41358   7.091   2.634   9.683 -0.1272 -0.1316  0.3381
  314MOL0     C41359   7.067   2.709   9.820  0.3706  0.8820  0.5377
  314MOL0    Cl41360   6.903   2.665   9.884  0.0635 -0.0987 -0.5108
  314MOL0     C41361   7.522   2.116   9.422 -0.8257 -0.0105 -0.1347
  314MOL0     C41362   7.593   2.021   9.500  0.0892  0.4645  0.8877
  314MOL0     O41363   7.480   1.624   9.534  0.7344 -0.1276 -0.8153
  314MOL0     C41364   7.641   1.428   9.641 -0.5046  0.0917 -0.4712
  314MOL0     C41365   7.689   1.334   9.733  0.0592 -0.7752  0.4966
  314MOL0     N41366   8.408   1.590  10.064  0.3336  0.7196 -0.1164
  314MOL0     N41367   8.420   1.609  10.194  1.6000  0.1378  0.7842
  314MOL0     C41368   9.348   1.589  10.561  0.2572  0.3466  0.2754
  314MOL0     C41369   9.481   1.545  10.549  0.4141 -0.1840  0.1694
  314MOL0     C41370   9.868   1.327  10.650 -1.0712  0.1294 -0.0115
  314MOL0     C41371   9.914   1.202  10.692 -0.4344  0.4040  0.6063
  314MOL0     C41372  10.045   1.173  10.730  0.7894 -0.7035  0.3056
  314MOL0     C41373  10.143   1.275  10.740  0.5818 -0.5401 -0.4296
  314MOL0     O41374  10.271   1.249  10.783  0.5943 -0.4984 -0.0930
  314MOL0     C41375  10.282   1.184  10.914  0.3603 -0.5344 -0.7472
  314MOL0     C41376  10.431   1.209  10.958  0.5833  0.0156 -0.2844
  314MOL0     C41377  10.429   1.172  11.109 -0.4135  0.0582  0.1532
  314MOL0     C41378  10.549   1.233  11.188 -1.0140 -0.1027  0.2801
  314MOL0     C41379  10.540   1.380  11.183 -0.6565  0.4467  0.7712
  314MOL0     C41380  10.515   1.498  11.185  0.6211 -0.3758  0.3446
  314MOL0     C41381  10.108   1.392  10.690 -0.4872 -0.6618 -0.1329
  314MOL0     C41382   9.976   1.421  10.647  0.2043 -0.1133  0.8576
  314MOL0     H41383   9.506   1.390  10.850 -1.0909 -1.4299 -0.3110
  314MOL0     H41384   9.273   1.454  10.864 -0.4972 -1.1181 -1.2226
  314MOL0     H41385   9.028   1.490  10.830 -0.2042  0.3430  0.7147
  314MOL0     H41386   9.052   1.398  10.672 -0.2950  0.1174  0.6132
  314MOL0     H41387   8.912   1.544  10.555 -1.8516  1.4676 -0.3955
  314MOL0     H41388   8.903   1.664  10.679  0.4240  0.5179 -0.5559
  314MOL0     H41389   8.762   1.541  10.810  5.1326  1.2454  0.3752
  314MOL0     H41390   8.794   1.385  10.721 -1.2022 -0.5811 -1.1052
  314MOL0     H41391   8.624   1.616  10.630 -1.9100 -0.2247 -2.2641
  314MOL0     H41392   8.679   1.496  10.522 -1.2618  3.0964 -0.2270
  314MOL0     H41393   8.540   1.405  10.779 -1.3752 -3.2862 -0.9825
  314MOL0     H41394   8.560   1.316  10.643  0.8176  0.1006  1.0961
  314MOL0     H41395   8.413   1.588  10.652  1.0700  0.7282  0.2474
  314MOL0     H41396   8.331   1.427  10.662  0.5678  0.2560 -1.1785
  314MOL0     H41397   8.508   1.519  10.434  0.2003 -0.1052  1.3446
  314MOL0     H41398   8.393   1.374  10.432 -1.1076  0.3530  0.5782
  314MOL0     H41399   8.307   1.652  10.429 -0.9461  0.0968 -0.0177
  314MOL0     H41400   8.205   1.498  10.437  0.0082 -0.0723 -0.2078
  314MOL0     H41401   8.144   1.432  10.184  0.8259 -2.0160 -1.0379
  314MOL0     H41402   8.322   1.406   9.871 -0.5856 -0.3497 -0.0164
  314MOL0     H41403   8.190   1.531   9.866  1.1355  0.1479 -0.3116
  314MOL0     H41404   8.051   1.389  10.010  2.4819  2.3827  0.7144
  314MOL0     H41405   8.180   1.269  10.022  0.0788  0.4164  1.2920
  314MOL0     H41406   8.066   1.347   9.762  1.5366 -0.1400 -1.5357
  314MOL0     H41407   8.151   1.194   9.809  1.2478  1.3498 -1.9937
  314MOL0     H41408   7.949   1.120   9.935 -5.6510  0.9371  0.3139
  314MOL0     H41409   7.919   1.153   9.772  0.2459  1.7698 -0.3160
  314MOL0     H41410   7.911   1.539   9.878 -0.8776  3.4771 -1.2480
  314MOL0     H41411   7.802   1.702   9.733 -0.1478 -0.2340  3.5243
  314MOL0     H41412   7.476   1.747   9.340 -2.8488 -1.1679  2.5481
  314MOL0     H41413   7.355   1.914   9.210  2.7289 -2.8497 -1.5376
  314MOL0     H41414   7.401   2.365   9.308  0.5832  0.2705 -1.4627
  314MOL0     H41415   7.280   2.275   9.410 -2.1071  1.6823 -0.6084
  314MOL0     H41416   7.122   2.306   9.221  0.1960 -0.0598  2.8082
  314MOL0     H41417   7.251   2.376   9.115  0.2114 -0.7222 -0.9883
  314MOL0     H41418   7.116   2.553   9.196  2.4738  0.1627 -0.6468
  314MOL0     H41419   7.273   2.562   9.284  1.6721 -2.9687  0.6797
  314MOL0     H41420   7.011   2.446   9.382 -0.4155  1.2078 -3.7053
  314MOL0     H41421   7.156   2.471   9.487  2.5010  1.2535 -1.4423
  314MOL0     H41422   6.987   2.689   9.365  1.0365  0.5139 -2.2328
  314MOL0     H41423   7.150   2.704   9.447 -1.4874  1.2950 -0.6531
  314MOL0     H41424   6.904   2.589   9.578 -0.2406 -0.2052 -1.6714
  314MOL0     H41425   6.932   2.754   9.591 -1.7728 -0.8021  1.2642
  314MOL0     H41426   7.091   2.525   9.695  1.8741 -0.4080 -1.4968
  314MOL0     H41427   7.194   2.657   9.652 -0.8507  1.1410 -1.2326
  314MOL0     H41428   7.072   2.817   9.809 -0.1763  0.8270 -0.3562
  314MOL0     H41429   7.146   2.675   9.888  2.5665  3.4968 -0.5143
  314MOL0     H41430   7.528   2.218   9.459  1.1465 -0.5574  1.2280
  314MOL0     H41431   7.670   2.052   9.569  3.4740 -2.0480 -1.4480
  314MOL0     H41432   7.555   1.393   9.584 -1.5398  1.5741  0.1446
  314MOL0     H41433   7.636   1.239   9.731 -0.9590 -0.2140  0.0026
  314MOL0     H41434   9.314   1.657  10.484  3.4772  0.0044 -1.6730
  314MOL0     H41435   9.550   1.580  10.473  1.3685  1.7205  1.8373
  314MOL0     H41436   9.845   1.118  10.688 -0.7778  0.6601  1.0491
  314MOL0     H41437  10.069   1.076  10.773  0.8016 -0.7169  0.2688
  314MOL0     H41438  10.243   1.082  10.925 -0.8116 -0.1054 -0.7903
  314MOL0     H41439  10.224   1.236  10.991  1.5166 -1.6102  0.9357
  314MOL0     H41440  10.494   1.144  10.897  0.6535  0.0395 -0.2364
  314MOL0     H41441  10.456   1.314  10.944  2.4985  0.0099  2.3038
  314MOL0     H41442  10.429   1.064  11.125  0.8421  0.3389  2.5119
  314MOL0     H41443  10.344   1.204  11.169 -1.2530  1.3077 -1.6303
  314MOL0     H41444  10.551   1.195  11.291  1.7540 -0.3311  0.2215
  314MOL0     H41445  10.645   1.202  11.145 -2.2937 -2.3122 -1.1509
  314MOL0     H41446  10.480   1.599  11.185 -1.8911 -1.1693  0.1317
  314MOL0     H41447  10.183   1.468  10.708 -3.1693  2.0773  0.5209
  314MOL0     H41448   9.949   1.520  10.612 -3.0008 -1.5841 -1.4202
  315MOL0     O41449   2.733   0.712   1.877  0.3643 -0.4003  0.2083
  315MOL0     C41450   2.756   0.795   1.784  0.2548  0.1203  0.0399
  315MOL0     O41451   2.668   0.817   1.680 -1.2064  0.4729 -0.1035
  315MOL0     C41452   2.549   0.753   1.677  0.1812  1.5077  0.5593
  315MOL0     C41453   2.543   0.631   1.605  0.7995 -0.0917 -0.6975
  315MOL0     C41454   2.420   0.563   1.602  0.3175 -0.7733 -0.3238
  315MOL0     C41455   2.312   0.598   1.689  1.0261  0.8559 -0.1895
  315MOL0     O41456   2.199   0.526   1.708 -0.2377 -0.6771 -0.0689
  315MOL0     C41457   2.195   0.394   1.646 -0.2074 -0.3904 -0.2488
  315MOL0     C41458   2.059   0.331   1.664  0.1738 -0.4287  0.2986
  315MOL0     C41459   2.049   0.202   1.585 -0.0366 -0.3063  0.0906
  315MOL0     C41460   1.912   0.138   1.608  1.1085 -0.5311  0.4329
  315MOL0     C41461   1.904   0.010   1.516 -0.1243 -0.7812 -0.1381
  315MOL0     C41462   1.766  -0.065   1.527  0.1381  0.5951 -0.0752
  315MOL0     C41463   1.772  -0.181   1.429 -0.0574 -0.2036  0.5662
  315MOL0     C41464   1.642  -0.260   1.441  0.3556  0.1128 -0.0919
  315MOL0     N41465   1.655  -0.390   1.382  0.0931 -0.1710  0.0405
  315MOL0     C41466   1.585  -0.428   1.267  0.3785  0.3171 -0.0982
  315MOL0     C41467   1.636  -0.554   1.245 -0.0929  0.0515 -0.8845
  315MOL0     C41468   1.594  -0.638   1.133  0.0683  0.1175  0.1355
  315MOL0     C41469   1.654  -0.609   0.999 -0.0989 -0.3226  1.0411
  315MOL0     C41470   1.595  -0.693   0.883 -0.0067  0.1531  0.7279
  315MOL0     C41471   1.613  -0.651   0.732 -0.0491  0.1593 -0.2599
  315MOL0     O41472   1.751  -0.609   0.703 -0.2792  0.2679  0.4617
  315MOL0     C41473   1.855  -0.695   0.685 -0.5259 -0.2527  0.3358
  315MOL0     C41474   1.969  -0.636   0.643 -0.3241 -0.1230  0.5972
  315MOL0     C41475   2.076  -0.710   0.601  1.0559  0.1798  0.9665
  315MOL0     C41476   2.068  -0.847   0.580 -0.0561  0.2350 -0.4036
  315MOL0     C41477   2.178  -0.927   0.527 -0.7928  0.0049  0.4833
  315MOL0     O41478   2.284  -0.867   0.475  0.2749 -0.0006  0.3355
  315MOL0     C41479   2.399  -0.940   0.451  0.1376 -0.4011 -0.0318
  315MOL0     C41480   2.408  -1.037   0.347  0.2856 -0.0846 -0.8074
  315MOL0     C41481   2.520  -1.119   0.332 -0.3011  0.0485  0.8700
  315MOL0     C41482   2.630  -1.102   0.413  0.2356 -0.0792 -0.1998
  315MOL0     O41483   2.743  -1.179   0.380 -0.2649  0.3336  0.3365
  315MOL0     C41484   2.871  -1.112   0.388  0.4195 -0.2831 -0.5757
  315MOL0     C41485   2.999  -1.190   0.367  0.2970  0.3726 -0.1632
  315MOL0     C41486   3.024  -1.321   0.444 -0.2240  0.3327  0.2819
  315MOL0     C41487   3.156  -1.374   0.378  0.1904  0.2071  0.4209
  315MOL0     C41488   3.228  -1.462   0.485 -0.1905 -1.3862  0.4355
  315MOL0     C41489   3.370  -1.495   0.447  0.8562 -0.3921  0.1194
  315MOL0     C41490   3.438  -1.580   0.553 -0.2252  0.1338  0.1862
  315MOL0     C41491   3.542  -1.679   0.498  0.4389  0.8840 -0.8882
  315MOL0    Cl41492   3.691  -1.614   0.424  0.3493  0.1631  0.3826
  315MOL0     C41493   2.628  -0.997   0.510  0.6651  0.1811  0.2294
  315MOL0     C41494   2.514  -0.912   0.521 -0.8354 -0.0227 -0.2555
  315MOL0     O41495   2.174  -1.047   0.536  0.1398 -0.5736  0.2946
  315MOL0     C41496   1.946  -0.909   0.616  0.1730 -0.7417 -0.1966
  315MOL0     C41497   1.841  -0.836   0.670  0.0117  0.6068 -0.1755
  315MOL0     N41498   1.707  -0.600   1.353 -0.3856 -0.0995  0.4233
  315MOL0     N41499   1.731  -0.501   1.431  0.6703  0.7246 -0.1130
  315MOL0     C41500   2.323   0.718   1.758  0.6801 -0.8854 -0.3255
  315MOL0     C41501   2.438   0.796   1.751  0.2642  0.5519  0.6056
  315MOL0     C41502   2.879   0.875   1.794 -0.1990  0.1882  0.7289
  315MOL0     C41503   2.899   0.980   1.707  0.2538  0.8250 -0.4392
  315MOL0     C41504   3.020   1.044   1.708  0.1068 -0.6170  0.5239
  315MOL0     C41505   3.116   1.015   1.806 -0.3940  0.3398  0.7251
  315MOL0     O41506   3.232   1.090   1.792 -0.1948  0.8108 -0.0133
  315MOL0     C41507   3.354   1.059   1.863 -0.2715  0.0454  0.7123
  315MOL0     C41508   3.361   1.138   1.999 -0.7119  0.4637 -0.0064
  315MOL0     C41509   3.480   1.103   2.089  0.2661 -0.3833  0.3368
  315MOL0     C41510   3.621   1.122   2.036  0.1190  0.4222  0.5071
  315MOL0     C41511   3.716   1.088   2.136 -0.2048  0.0502  0.1221
  315MOL0     C41512   3.828   1.082   2.198  0.8104 -0.5713  0.2220
  315MOL0     C41513   3.089   0.922   1.903  0.1240  0.4070 -0.3137
  315MOL0     C41514   2.971   0.842   1.886 -0.1748  0.1819 -0.0024
  315MOL0     H41515   2.632   0.593   1.557  2.0510  1.8584 -0.0560
  315MOL0     H41516   2.411   0.489   1.523  1.4836 -0.6582 -0.5864
  315MOL0     H41517   2.275   0.328   1.683  1.8482  1.2920 -1.4772
  315MOL0     H41518   2.219   0.402   1.540  0.8590 -0.2461 -0.0046
  315MOL0     H41519   1.981   0.402   1.637 -2.0119 -1.8850  2.2923
  315MOL0     H41520   2.040   0.317   1.771  0.0879  3.8389  1.0228
  315MOL0     H41521   2.133   0.143   1.622  1.8569  2.3951  0.3414
  315MOL0     H41522   2.060   0.227   1.479 -0.2901 -2.5488 -0.5229
  315MOL0     H41523   1.893   0.107   1.711 -2.3612  2.1581  0.7688
  315MOL0     H41524   1.826   0.200   1.584  1.7909  1.2057  2.1888
  315MOL0     H41525   1.983  -0.060   1.544 -0.7677 -1.4326  0.0752
  315MOL0     H41526   1.914   0.038   1.410 -0.2042  0.8024  0.2424
  315MOL0     H41527   1.684   0.003   1.503  0.2210  0.1728 -1.6379
  315MOL0     H41528   1.750  -0.098   1.631  0.6053  0.2419 -0.1086
  315MOL0     H41529   1.768  -0.150   1.324  0.6775 -3.4383 -0.5434
  315MOL0     H41530   1.859  -0.243   1.454 -1.8878 -2.7068  1.2590
  315MOL0     H41531   1.556  -0.208   1.398 -0.0579 -1.3834 -1.1589
  315MOL0     H41532   1.624  -0.279   1.548 -0.1323  0.6015 -0.0822
  315MOL0     H41533   1.518  -0.364   1.209 -2.2313  0.1562  2.4762
  315MOL0     H41534   1.485  -0.642   1.132  0.0787 -0.1696 -0.0471
  315MOL0     H41535   1.629  -0.740   1.151  1.7395  0.8507  1.3129
  315MOL0     H41536   1.762  -0.628   1.001 -0.3720 -2.3117 -0.3154
  315MOL0     H41537   1.636  -0.504   0.976 -1.4418 -0.3504  1.8659
  315MOL0     H41538   1.652  -0.787   0.890 -0.1557  0.1620  2.4678
  315MOL0     H41539   1.490  -0.714   0.906 -0.2701 -0.6486 -1.0062
  315MOL0     H41540   1.552  -0.564   0.705 -0.6759 -0.9369 -2.5863
  315MOL0     H41541   1.576  -0.727   0.663 -0.5027  3.4213 -3.9700
  315MOL0     H41542   1.983  -0.529   0.639  1.7794 -0.3540  0.5831
  315MOL0     H41543   2.156  -0.638   0.584 -0.2633  1.9889  1.9809
  315MOL0     H41544   2.324  -1.047   0.278  0.4165  2.0698 -1.3397
  315MOL0     H41545   2.526  -1.188   0.249 -1.4674 -1.2588  1.8089
  315MOL0     H41546   2.882  -1.067   0.487  2.3883 -2.1054  0.0952
  315MOL0     H41547   2.868  -1.029   0.316  1.4075 -1.5381 -2.1472
  315MOL0     H41548   3.082  -1.129   0.404  0.6481 -0.2515  0.0918
  315MOL0     H41549   3.004  -1.207   0.259 -0.6254 -1.2062  0.0241
  315MOL0     H41550   2.949  -1.400   0.442 -0.4262  0.4465  2.0055
  315MOL0     H41551   3.049  -1.298   0.548  0.5249 -1.2540  0.4698
  315MOL0     H41552   3.140  -1.439   0.291  1.3502 -0.6725  0.8370
  315MOL0     H41553   3.225  -1.293   0.351 -1.4626  0.9068 -2.0568
  315MOL0     H41554   3.156  -1.544   0.492  0.4148 -1.9611  0.1333
  315MOL0     H41555   3.225  -1.413   0.582 -1.0315 -1.6345  0.5448
  315MOL0     H41556   3.428  -1.403   0.441  0.4354 -0.2165 -2.9614
  315MOL0     H41557   3.367  -1.537   0.346  0.2202  2.4407 -1.1622
  315MOL0     H41558   3.488  -1.514   0.624 -1.3333  2.1906 -0.8591
  315MOL0     H41559   3.359  -1.632   0.608 -0.8194  2.1953  1.3744
  315MOL0     H41560   3.489  -1.750   0.434 -0.6623 -0.7303  1.6516
  315MOL0     H41561   3.578  -1.740   0.581 -1.8170 -0.5035 -0.8461
  315MOL0     H41562   2.704  -0.970   0.582  0.9584 -0.1504  0.0458
  315MOL0     H41563   2.528  -0.828   0.588 -0.2858  0.7891 -1.3638
  315MOL0     H41564   1.920  -1.011   0.591  1.7854 -1.0925 -0.5385
  315MOL0     H41565   1.754  -0.895   0.695 -0.3236  1.0442 -0.3109
  315MOL0     H41566   2.236   0.735   1.819  0.2575 -1.1844 -0.8348
  315MOL0     H41567   2.453   0.877   1.821  2.0286 -0.7414  1.7870
  315MOL0     H41568   2.823   1.011   1.637 -0.2135  1.4033  0.3122
  315MOL0     H41569   3.028   1.126   1.637  2.3313 -0.6217  0.7119
  315MOL0     H41570   3.446   1.073   1.805  0.4194 -2.8784  0.9444
  315MOL0     H41571   3.365   0.951   1.883  0.0314  0.3289  2.1936
  315MOL0     H41572   3.373   1.245   1.978  2.2774  0.2105 -0.0013
  315MOL0     H41573   3.270   1.126   2.058 -0.6220 -2.9646 -0.3860
  315MOL0     H41574   3.472   0.997   2.116 -0.9909 -0.2998  0.3831
  315MOL0     H41575   3.463   1.162   2.180 -2.0398  0.6383 -0.6645
  315MOL0     H41576   3.646   1.066   1.945 -1.8450 -2.2073  1.4797
  315MOL0     H41577   3.631   1.230   2.017  0.9268  0.1813 -0.5237
  315MOL0     H41578   3.918   1.086   2.256  1.3612  0.0556 -0.6552
  315MOL0     H41579   3.159   0.911   1.986  0.9960 -0.0101 -1.0778
  315MOL0     H41580   2.962   0.756   1.952 -0.1181 -0.2270 -0.5249
  316MOL0     O41581  11.027   2.754   5.334 -0.8032 -0.3759  0.2063
  316MOL0     C41582  11.063   2.796   5.229 -0.5714  0.5490  0.4193
  316MOL0     O41583  11.045   2.931   5.186 -0.0076  0.3492 -0.0171
  316MOL0     C41584  10.933   2.998   5.233  0.6607  0.5675 -0.1988
  316MOL0     C41585  10.945   3.135   5.273 -0.3784  0.1352  0.1636
  316MOL0     C41586  10.844   3.199   5.325 -0.3014  0.1760 -0.3075
  316MOL0     C41587  10.716   3.140   5.336 -1.0869 -0.8376  0.0987
  316MOL0     O41588  10.624   3.230   5.387  0.6215 -0.6367 -0.3429
  316MOL0     C41589  10.520   3.187   5.476 -0.0162  0.0618  0.1325
  316MOL0     C41590  10.462   3.307   5.537 -0.0466 -0.2909 -0.1902
  316MOL0     C41591  10.375   3.267   5.652  1.0662  0.0377 -0.4211
  316MOL0     C41592  10.292   3.383   5.712 -0.5944  0.9393 -0.0901
  316MOL0     C41593  10.185   3.424   5.602 -0.1878  0.0425 -0.7072
  316MOL0     C41594  10.101   3.542   5.658 -0.4169  0.7290  0.3039
  316MOL0     C41595  10.019   3.612   5.550  0.2244 -0.3555 -0.8587
  316MOL0     C41596   9.886   3.681   5.605 -0.9244  0.2082 -1.1548
  316MOL0     N41597   9.923   3.787   5.702  0.0292  0.0748 -0.5983
  316MOL0     C41598  10.003   3.890   5.665 -0.1619  0.3600  0.0368
  316MOL0     C41599  10.044   3.954   5.778 -1.0879  0.1482  0.2494
  316MOL0     C41600  10.147   4.064   5.795  0.2575  0.2041  0.2218
  316MOL0     C41601  10.291   4.041   5.790 -0.1892  0.1275 -0.4729
  316MOL0     C41602  10.359   4.118   5.909  0.1748 -0.7621  0.9679
  316MOL0     C41603  10.505   4.103   5.929  0.3768  0.1795 -0.5852
  316MOL0     O41604  10.561   4.192   5.835  0.0340 -0.4166  0.2609
  316MOL0     C41605  10.686   4.174   5.786  0.5199  0.0515 -0.1864
  316MOL0     C41606  10.771   4.066   5.817  0.1477  0.4256 -0.3385
  316MOL0     C41607  10.897   4.052   5.762 -0.0139  0.2192  0.6429
  316MOL0     C41608  10.949   4.148   5.669 -0.0945  1.0123  0.0316
  316MOL0     C41609  11.068   4.127   5.589 -0.1261  0.2158 -1.1777
  316MOL0     O41610  11.134   4.008   5.600 -0.2281  0.0604 -0.0453
  316MOL0     C41611  11.227   3.972   5.512 -0.3497  0.9310 -0.0684
  316MOL0     C41612  11.337   4.053   5.470  0.7942  0.0457  0.8114
  316MOL0     C41613  11.426   4.012   5.375 -0.1764 -0.0428  0.3763
  316MOL0     C41614  11.426   3.874   5.335  0.0843 -0.8013  0.2677
  316MOL0     O41615  11.515   3.819   5.242  0.3813 -0.1946 -0.6406
  316MOL0     C41616  11.657   3.848   5.269 -0.0125  0.2248 -0.3822
  316MOL0     C41617  11.744   3.722   5.293 -0.3072  1.1255 -0.1766
  316MOL0     C41618  11.700   3.626   5.412  0.1031 -0.3063 -0.2788
  316MOL0     C41619  11.800   3.511   5.416 -0.0391  0.0866 -0.1923
  316MOL0     C41620  11.777   3.416   5.539 -0.3487 -0.8450  0.0499
  316MOL0     C41621  11.888   3.311   5.567 -1.0274 -0.3676  0.3061
  316MOL0     C41622  11.857   3.220   5.691 -0.5865  0.3989 -0.7390
  316MOL0     C41623  11.980   3.135   5.734 -0.1161 -0.5528 -0.9956
  316MOL0    Cl41624  12.011   3.017   5.605 -0.3722  0.4463 -0.0263
  316MOL0     C41625  11.327   3.791   5.383 -0.2385 -0.1716  0.1749
  316MOL0     C41626  11.225   3.838   5.465 -0.1918  0.6646  0.7188
  316MOL0     O41627  11.082   4.209   5.501 -0.3800 -0.0426  0.5587
  316MOL0     C41628  10.868   4.257   5.641  0.7002 -0.7469 -0.1408
  316MOL0     C41629  10.740   4.273   5.703 -0.0529  0.5623  0.3218
  316MOL0     N41630   9.989   3.888   5.887 -0.6375 -0.3773  0.0456
  316MOL0     N41631   9.922   3.788   5.841  0.1908 -0.8255  0.1239
  316MOL0     C41632  10.705   3.003   5.303 -0.2311  0.7104  0.0484
  316MOL0     C41633  10.818   2.931   5.258  0.3217 -1.0889 -0.3772
  316MOL0     C41634  11.142   2.710   5.144  0.3302  0.2422  0.9503
  316MOL0     C41635  11.194   2.593   5.192 -0.0132 -0.7373 -0.0941
  316MOL0     C41636  11.281   2.518   5.103  0.1068 -0.4393 -0.0723
  316MOL0     C41637  11.314   2.564   4.973 -0.2039  0.4065 -0.1253
  316MOL0     O41638  11.387   2.482   4.886 -0.7252 -0.4857 -0.4304
  316MOL0     C41639  11.450   2.543   4.778  0.6323 -0.8620 -0.4029
  316MOL0     C41640  11.539   2.431   4.723 -1.0674  0.5427 -0.0073
  316MOL0     C41641  11.639   2.392   4.823 -0.1837 -0.1906 -0.2194
  316MOL0     C41642  11.755   2.310   4.762 -0.3188 -0.2375  0.0543
  316MOL0     C41643  11.852   2.266   4.860 -0.8472  0.2191  0.2362
  316MOL0     C41644  11.930   2.208   4.931  0.2103 -0.1488 -0.6355
  316MOL0     C41645  11.263   2.677   4.934  0.2072 -0.2016  0.5142
  316MOL0     C41646  11.178   2.755   5.019 -0.4994  0.1059 -0.3490
  316MOL0     H41647  11.042   3.183   5.266  1.9535 -3.9469  1.3497
  316MOL0     H41648  10.860   3.304   5.351  0.4773 -0.1799  0.7204
  316MOL0     H41649  10.560   3.119   5.552 -0.0879  0.1040  0.2073
  316MOL0     H41650  10.441   3.146   5.412  2.7421  0.2961 -3.7929
  316MOL0     H41651  10.409   3.354   5.453  1.8667 -1.0440 -1.9026
  316MOL0     H41652  10.546   3.372   5.563  0.1241 -0.0036 -1.3945
  316MOL0     H41653  10.440   3.232   5.732  2.4721  0.0874 -1.5057
  316MOL0     H41654  10.301   3.194   5.618  0.6350 -0.9676  2.4590
  316MOL0     H41655  10.255   3.342   5.807  0.8678 -0.1693  0.0376
  316MOL0     H41656  10.348   3.473   5.742 -0.0194  0.1210  1.4473
  316MOL0     H41657  10.126   3.334   5.583 -0.8367  0.0730  0.9621
  316MOL0     H41658  10.236   3.457   5.511  3.2707 -1.0655  0.6216
  316MOL0     H41659  10.174   3.610   5.704  2.2002 -0.5633 -1.7237
  316MOL0     H41660  10.029   3.500   5.730  0.0111 -1.0063 -0.2350
  316MOL0     H41661  10.085   3.684   5.500  0.4458  0.7863  0.9460
  316MOL0     H41662   9.982   3.538   5.480 -0.2714 -0.3066 -0.6555
  316MOL0     H41663   9.822   3.608   5.656 -1.7617 -0.3784 -2.9840
  316MOL0     H41664   9.819   3.720   5.528 -0.1796  3.0537 -0.4740
  316MOL0     H41665  10.022   3.921   5.563 -2.9284  0.3106 -0.5704
  316MOL0     H41666  10.127   4.106   5.894  1.1371  1.8420 -0.2569
  316MOL0     H41667  10.116   4.126   5.710 -1.1813  0.9624  1.2489
  316MOL0     H41668  10.327   4.067   5.690 -1.7678 -1.5339 -1.5285
  316MOL0     H41669  10.309   3.935   5.811 -0.8971 -0.3942 -2.3644
  316MOL0     H41670  10.330   4.223   5.905 -0.1825 -0.8973 -0.9224
  316MOL0     H41671  10.320   4.057   5.991  1.0165 -1.9255  0.5410
  316MOL0     H41672  10.532   3.998   5.913  1.8214  0.4267  0.0730
  316MOL0     H41673  10.537   4.117   6.032 -2.5477 -0.7318  0.5418
  316MOL0     H41674  10.743   3.981   5.878  0.3194  1.2117  0.8775
  316MOL0     H41675  10.950   3.961   5.787 -0.1058 -0.5174 -1.5656
  316MOL0     H41676  11.347   4.158   5.497 -1.5776  1.2233 -2.2949
  316MOL0     H41677  11.487   4.091   5.331 -0.1919  0.0147  0.4570
  316MOL0     H41678  11.682   3.919   5.348  1.1940 -0.5956  0.0035
  316MOL0     H41679  11.694   3.894   5.176  1.9390 -1.5402 -0.5712
  316MOL0     H41680  11.839   3.762   5.329 -0.3080  1.0451 -0.0883
  316MOL0     H41681  11.766   3.677   5.196  0.5556 -0.8734  0.9005
  316MOL0     H41682  11.594   3.599   5.403  0.3787 -2.6266  2.3457
  316MOL0     H41683  11.711   3.678   5.507 -2.8743  2.2175 -1.1524
  316MOL0     H41684  11.797   3.450   5.325 -0.4384 -1.0648  0.5717
  316MOL0     H41685  11.899   3.558   5.414  1.2148 -2.3753 -2.4270
  316MOL0     H41686  11.678   3.372   5.530 -0.3582 -0.5725 -1.2501
  316MOL0     H41687  11.764   3.475   5.630 -1.2687  0.7107 -1.0540
  316MOL0     H41688  11.987   3.351   5.588  0.1501 -3.6204  1.4545
  316MOL0     H41689  11.897   3.236   5.488  2.7269  1.7243 -1.5271
  316MOL0     H41690  11.815   3.275   5.775 -1.1408 -2.0536  0.6924
  316MOL0     H41691  11.781   3.148   5.659 -1.5655  1.9192 -1.9425
  316MOL0     H41692  11.962   3.087   5.831  1.4451  1.8674  0.5917
  316MOL0     H41693  12.070   3.197   5.744  1.2820 -2.6980  0.5347
  316MOL0     H41694  11.342   3.686   5.360  3.1150  0.1286  0.5239
  316MOL0     H41695  11.157   3.762   5.503  2.4578 -0.9310  2.6072
  316MOL0     H41696  10.901   4.332   5.570  2.1178 -0.3614  0.8782
  316MOL0     H41697  10.681   4.362   5.686  0.7889  1.2347  0.8412
  316MOL0     H41698  10.613   2.948   5.318  0.2165  0.6452  3.4684
  316MOL0     H41699  10.808   2.828   5.228 -0.2357 -1.4528  0.9776
  316MOL0     H41700  11.177   2.562   5.294 -0.4789  1.0718  0.4095
  316MOL0     H41701  11.330   2.424   5.127 -0.2316 -0.2500  1.4873
  316MOL0     H41702  11.499   2.635   4.811 -1.1176 -0.1556  0.3314
  316MOL0     H41703  11.384   2.574   4.696  1.0844  1.3457 -0.0040
  316MOL0     H41704  11.481   2.346   4.687 -1.0130 -0.6081  2.4486
  316MOL0     H41705  11.590   2.471   4.634  0.2465 -0.6713  0.1734
  316MOL0     H41706  11.588   2.334   4.901 -1.9986  1.5418 -0.0179
  316MOL0     H41707  11.690   2.478   4.868 -2.3823  1.6703 -1.0686
  316MOL0     H41708  11.719   2.217   4.717 -1.3202  0.8112 -1.4168
  316MOL0     H41709  11.806   2.358   4.678 -0.6109  0.2685  0.1673
  316MOL0     H41710  12.002   2.160   4.995 -0.6701  0.5477  0.9331
  316MOL0     H41711  11.283   2.715   4.835  3.6964  0.4797  1.3510
  316MOL0     H41712  11.142   2.846   4.972 -1.6176 -0.6804 -1.0548
  317MOL0     O41713  10.037   8.173  11.180 -0.2296 -0.3044 -0.5430
  317MOL0     C41714   9.921   8.148  11.202 -0.4090  0.8947  0.0542
  317MOL0     O41715   9.861   8.156  11.319 -0.0283  0.2795 -0.4465
  317MOL0     C41716   9.937   8.204  11.424  0.4061  0.5989  0.9317
  317MOL0     C41717  10.007   8.329  11.429 -0.8497  0.2981  0.6146
  317MOL0     C41718  10.042   8.385  11.548  0.9496  0.3719  0.0154
  317MOL0     C41719  10.035   8.313  11.670  0.0968  0.3746 -0.0320
  317MOL0     O41720  10.086   8.351  11.795  0.0379  0.3805 -0.1662
  317MOL0     C41721  10.088   8.489  11.822  0.7547 -0.5601  0.4548
  317MOL0     C41722  10.086   8.516  11.975  0.1499  0.3237  0.1077
  317MOL0     C41723  10.069   8.661  11.992 -1.0306  0.0739 -0.5402
  317MOL0     C41724  10.057   8.696  12.145 -0.0345 -0.9031 -0.5464
  317MOL0     C41725  10.073   8.844  12.159 -0.0991  0.0748  0.4585
  317MOL0     C41726   9.957   8.919  12.083  0.0308  1.0402  0.0844
  317MOL0     C41727   9.970   9.071  12.130 -0.3936  0.3151 -0.3285
  317MOL0     C41728   9.883   9.096  12.256  0.9170 -0.4974  0.2801
  317MOL0     N41729   9.738   9.089  12.234 -0.5158 -0.4884  0.1687
  317MOL0     C41730   9.662   9.167  12.150  0.1671 -0.2624  0.3874
  317MOL0     C41731   9.540   9.114  12.160 -0.1035  0.1903  0.2097
  317MOL0     C41732   9.411   9.153  12.097  0.3645  1.2580 -0.4863
  317MOL0     C41733   9.291   9.130  12.184 -0.3586  0.4667  0.2608
  317MOL0     C41734   9.162   9.150  12.102  0.0995 -0.3636  0.3046
  317MOL0     C41735   9.036   9.099  12.174  0.0631  0.2795 -0.0638
  317MOL0     O41736   9.030   8.961  12.221 -0.5524  0.3455  0.1783
  317MOL0     C41737   8.909   8.907  12.245 -0.1487 -0.5111 -0.0176
  317MOL0     C41738   8.899   8.771  12.263 -0.7550  0.3101 -0.1929
  317MOL0     C41739   8.780   8.717  12.321 -0.5299 -0.1717  0.3165
  317MOL0     C41740   8.672   8.798  12.353 -0.2507  0.5797  0.3783
  317MOL0     C41741   8.546   8.742  12.399  0.5656 -0.0070  0.2600
  317MOL0     O41742   8.455   8.828  12.420 -0.0530  0.8915 -0.3740
  317MOL0     C41743   8.324   8.794  12.449 -0.6045  0.3869  0.4836
  317MOL0     C41744   8.222   8.837  12.365 -0.8514  0.5514 -0.2479
  317MOL0     C41745   8.086   8.824  12.405 -0.4146  0.1824 -0.3807
  317MOL0     C41746   8.049   8.768  12.522  0.5298  0.1906 -0.4055
  317MOL0     O41747   7.915   8.735  12.547  0.8559 -0.2128 -0.0973
  317MOL0     C41748   7.818   8.729  12.439  0.4318  0.2173  0.6480
  317MOL0     C41749   7.691   8.654  12.480 -0.3144  0.8132  0.3100
  317MOL0     C41750   7.594   8.741  12.554  1.2506  0.4028  0.7846
  317MOL0     C41751   7.484   8.659  12.626 -0.3232 -0.7005  0.0715
  317MOL0     C41752   7.413   8.560  12.535  0.6064 -0.3143 -0.2582
  317MOL0     C41753   7.335   8.629  12.420  0.3623  0.2319  1.0404
  317MOL0     C41754   7.258   8.523  12.339 -0.6570 -0.2152  0.6330
  317MOL0     C41755   7.134   8.570  12.273 -0.3038  0.5544 -0.8189
  317MOL0    Cl41756   7.004   8.586  12.388  0.1447 -0.0882  0.1123
  317MOL0     C41757   8.147   8.738  12.612  0.3070 -0.5872 -0.3790
  317MOL0     C41758   8.282   8.745  12.573 -0.2079  0.1803 -0.2724
  317MOL0     O41759   8.535   8.621  12.421 -0.3636 -0.3941 -0.1325
  317MOL0     C41760   8.689   8.929  12.319  0.0701 -0.0743 -0.0222
  317MOL0     C41761   8.797   8.985  12.272  0.0876  0.1256 -0.2032
  317MOL0     N41762   9.545   9.010  12.253  0.5405  0.4583  0.5393
  317MOL0     N41763   9.673   8.986  12.281  0.4582 -0.0337  0.1862
  317MOL0     C41764   9.986   8.184  11.664  0.4486 -0.0232  0.0688
  317MOL0     C41765   9.937   8.134  11.538  0.9534  0.3907 -0.6151
  317MOL0     C41766   9.839   8.091  11.091 -0.8094  0.5560  0.1528
  317MOL0     C41767   9.722   8.030  11.127 -0.6991 -0.3309  0.2074
  317MOL0     C41768   9.634   7.975  11.035 -0.2452 -0.1918  0.4970
  317MOL0     C41769   9.671   7.977  10.899  0.0577  0.0707  0.3078
  317MOL0     O41770   9.594   7.925  10.800  0.2378 -0.2652  0.4435
  317MOL0     C41771   9.508   7.815  10.818 -0.4085  0.0494 -0.6122
  317MOL0     C41772   9.401   7.796  10.707  0.0197 -0.6678  0.3196
  317MOL0     C41773   9.303   7.680  10.736  0.7034 -0.4284 -0.1783
  317MOL0     C41774   9.187   7.673  10.641 -0.8499 -0.7232  0.2575
  317MOL0     C41775   9.103   7.559  10.680 -0.2242  0.3348 -0.9487
  317MOL0     C41776   9.033   7.472  10.714 -0.3474  0.4706 -0.1216
  317MOL0     C41777   9.795   8.036  10.859  0.1003 -0.3785 -0.5205
  317MOL0     C41778   9.880   8.094  10.961 -0.4983  0.6396  0.7853
  317MOL0     H41779  10.014   8.394  11.342 -1.3783  2.9925  2.4778
  317MOL0     H41780  10.096   8.480  11.548  3.1109 -0.7399 -2.2631
  317MOL0     H41781  10.007   8.547  11.776  1.0992 -1.4149 -1.2951
  317MOL0     H41782  10.183   8.527  11.783 -1.0084  0.7027 -2.9752
  317MOL0     H41783  10.182   8.483  12.014  1.1327  2.2262 -0.5861
  317MOL0     H41784  10.014   8.461  12.038 -0.9336  1.3189 -0.2244
  317MOL0     H41785   9.976   8.695  11.944 -2.0331 -2.9869 -0.9984
  317MOL0     H41786  10.153   8.717  11.951  2.0686 -3.3746  0.5672
  317MOL0     H41787   9.970   8.653  12.195 -1.4712  1.8738 -0.4336
  317MOL0     H41788  10.143   8.645  12.190  1.3438  1.4026 -0.3629
  317MOL0     H41789  10.171   8.871  12.120  0.7232  0.1461  2.4836
  317MOL0     H41790  10.082   8.864  12.266 -1.0998  0.7757  0.4301
  317MOL0     H41791   9.858   8.874  12.099  0.7702 -0.6338  0.1087
  317MOL0     H41792   9.976   8.902  11.977 -1.3382 -2.1739  0.2182
  317MOL0     H41793  10.076   9.099  12.136  0.1321 -1.8436  2.7012
  317MOL0     H41794   9.927   9.131  12.050 -1.1614  0.7223  0.3841
  317MOL0     H41795   9.902   9.196  12.294 -0.8015 -0.1149  0.2220
  317MOL0     H41796   9.917   9.023  12.330 -0.9947 -0.5878  1.1196
  317MOL0     H41797   9.701   9.259  12.107  1.2357  1.2547  4.1563
  317MOL0     H41798   9.393   9.099  12.004  0.7219 -2.6896  1.5132
  317MOL0     H41799   9.411   9.256  12.058  0.2650  1.0979 -0.9130
  317MOL0     H41800   9.292   9.198  12.271 -0.0992 -2.2124  2.4908
  317MOL0     H41801   9.279   9.030  12.226 -2.5866  0.7229  0.3486
  317MOL0     H41802   9.160   9.259  12.093  2.8082 -0.2731  0.2192
  317MOL0     H41803   9.168   9.109  12.001  0.1094  0.0410  0.1377
  317MOL0     H41804   8.960   9.119  12.098  0.8051  2.1816 -0.3484
  317MOL0     H41805   9.007   9.158  12.261 -0.1164 -1.1291  0.8752
  317MOL0     H41806   8.977   8.698  12.244 -1.5585 -0.4109 -0.7647
  317MOL0     H41807   8.761   8.613  12.345 -2.9448  0.0434 -0.3727
  317MOL0     H41808   8.232   8.897  12.276 -1.3380 -0.7905 -1.2313
  317MOL0     H41809   8.006   8.850  12.336 -1.5808 -1.1209  0.4125
  317MOL0     H41810   7.864   8.679  12.353 -1.4584 -0.0152 -0.2805
  317MOL0     H41811   7.794   8.827  12.396  0.6050 -0.5963 -1.4674
  317MOL0     H41812   7.722   8.567  12.538 -2.3593  1.6803  2.9422
  317MOL0     H41813   7.638   8.611  12.395  2.0743  0.8500 -1.2920
  317MOL0     H41814   7.547   8.804  12.477  2.6723  2.0524  1.2002
  317MOL0     H41815   7.654   8.802  12.623  2.6441 -1.7822  1.5781
  317MOL0     H41816   7.538   8.596  12.698 -0.9266 -0.7325  0.5022
  317MOL0     H41817   7.410   8.720  12.678  2.4268  2.3762  0.7213
  317MOL0     H41818   7.341   8.501  12.592  0.6961 -1.4075 -1.2603
  317MOL0     H41819   7.482   8.489  12.490 -0.4793 -1.7304  0.2326
  317MOL0     H41820   7.417   8.668  12.359  0.6691 -0.2601  1.1326
  317MOL0     H41821   7.262   8.708  12.441 -1.0365 -1.0367  1.1479
  317MOL0     H41822   7.329   8.495  12.261  0.2490 -2.5852  2.1892
  317MOL0     H41823   7.221   8.440  12.401 -1.6925  0.9663  1.6800
  317MOL0     H41824   7.094   8.497  12.201 -0.1320  0.5949 -0.9560
  317MOL0     H41825   7.142   8.661  12.213 -0.0459  1.7012  0.8754
  317MOL0     H41826   8.132   8.689  12.708  0.3467  0.3656  0.1204
  317MOL0     H41827   8.360   8.715  12.643  2.9139  1.8478 -2.7676
  317MOL0     H41828   8.613   8.999  12.355 -2.9325 -2.4502 -1.3361
  317MOL0     H41829   8.809   9.093  12.275  2.4466 -0.0493 -1.0458
  317MOL0     H41830   9.982   8.124  11.754 -0.5530 -2.2040 -1.3519
  317MOL0     H41831   9.891   8.036  11.533  1.6066 -0.4571  4.5405
  317MOL0     H41832   9.688   8.022  11.230 -0.0562 -0.6908  0.4006
  317MOL0     H41833   9.541   7.933  11.073 -2.1453  1.8214 -1.5652
  317MOL0     H41834   9.452   7.823  10.911  1.6328  2.3815  0.5291
  317MOL0     H41835   9.573   7.727  10.830 -0.2373  0.4036  1.5912
  317MOL0     H41836   9.335   7.882  10.690 -1.8233 -2.6867 -4.8380
  317MOL0     H41837   9.445   7.798  10.607 -4.3866  3.1259 -1.9605
  317MOL0     H41838   9.263   7.698  10.837  1.4912  1.9615 -0.2376
  317MOL0     H41839   9.342   7.578  10.741  1.3090 -0.1699  0.5904
  317MOL0     H41840   9.129   7.766  10.640 -0.9863 -0.7640  2.0917
  317MOL0     H41841   9.228   7.654  10.541  0.0292 -1.8858  0.8301
  317MOL0     H41842   8.966   7.390  10.731 -0.4788  0.9567  1.8869
  317MOL0     H41843   9.833   8.041  10.758  0.3511  1.0264 -0.3866
  317MOL0     H41844   9.974   8.137  10.926 -0.3547 -1.6643 -2.0743
  318MOL0     O41845   1.550   6.175   9.909  0.6405  0.1073 -0.0485
  318MOL0     C41846   1.646   6.123   9.960  0.6659  0.0480 -0.0247
  318MOL0     O41847   1.666   5.985   9.972  0.4982  0.1453  0.6787
  318MOL0     C41848   1.572   5.891   9.936 -0.8706 -0.6728 -0.6966
  318MOL0     C41849   1.483   5.905   9.829 -0.8433  0.7962  0.3972
  318MOL0     C41850   1.377   5.810   9.805 -0.4848  0.1581 -0.2540
  318MOL0     C41851   1.360   5.704   9.897  0.4563  0.3164  0.6681
  318MOL0     O41852   1.273   5.604   9.862 -0.3434 -0.1682  0.3534
  318MOL0     C41853   1.206   5.529   9.964  0.1122  0.2903  0.4073
  318MOL0     C41854   1.096   5.449   9.898  0.5977 -0.1122 -0.7114
  318MOL0     C41855   0.980   5.539   9.873  0.8498 -0.3295  0.5085
  318MOL0     C41856   0.852   5.459   9.832 -0.2898 -0.5955 -0.3495
  318MOL0     C41857   0.735   5.552   9.831 -0.2384  0.0903 -0.0723
  318MOL0     C41858   0.605   5.472   9.826  0.4763  0.1401  0.1432
  318MOL0     C41859   0.496   5.578   9.833  0.1488 -0.0091 -0.1851
  318MOL0     C41860   0.349   5.518   9.837  0.0500  0.5114 -0.1829
  318MOL0     N41861   0.308   5.486   9.970 -0.6325 -0.3282  0.4486
  318MOL0     C41862   0.257   5.569  10.068  1.0209  0.1639  0.6681
  318MOL0     C41863   0.218   5.487  10.172 -0.1401 -1.4458  0.1823
  318MOL0     C41864   0.151   5.538  10.296  0.7891  0.8085 -0.3183
  318MOL0     C41865   0.026   5.624  10.268 -0.9600  0.8938  0.0551
  318MOL0     C41866  -0.062   5.642  10.393  0.1158  0.0170  0.3518
  318MOL0     C41867  -0.204   5.686  10.354  0.7831 -0.1762 -0.7978
  318MOL0     O41868  -0.283   5.736  10.471  0.7284 -0.5272 -0.9684
  318MOL0     C41869  -0.409   5.708  10.480  0.3491 -0.4756  0.0623
  318MOL0     C41870  -0.453   5.578  10.472 -0.1288  0.2692 -0.5020
  318MOL0     C41871  -0.583   5.543  10.493 -0.4457  0.0242  1.3432
  318MOL0     C41872  -0.686   5.635  10.510 -0.3967  0.0884 -0.0537
  318MOL0     C41873  -0.835   5.597  10.535 -0.0461  0.6825 -0.1003
  318MOL0     O41874  -0.870   5.464  10.506 -0.3024  0.1331  0.5728
  318MOL0     C41875  -0.996   5.431  10.557 -0.9636  0.2182 -0.3953
  318MOL0     C41876  -1.016   5.424  10.693  0.1233 -0.0194  0.7802
  318MOL0     C41877  -1.150   5.410  10.744 -0.0533 -0.7969 -0.1691
  318MOL0     C41878  -1.252   5.403  10.661  0.9395 -0.1492  0.0204
  318MOL0     O41879  -1.374   5.403  10.716  0.1716  0.1816 -0.4283
  318MOL0     C41880  -1.494   5.401  10.637  0.1962  0.3965  0.5583
  318MOL0     C41881  -1.614   5.416  10.722 -0.1213  0.0784  0.0400
  318MOL0     C41882  -1.748   5.415  10.649 -0.1859 -0.2540  0.4445
  318MOL0     C41883  -1.861   5.373  10.743 -1.2597 -0.2829  0.7238
  318MOL0     C41884  -2.000   5.373  10.688  0.0981 -0.2218  0.5035
  318MOL0     C41885  -2.048   5.506  10.619  0.1624  0.4594 -1.0066
  318MOL0     C41886  -2.164   5.477  10.528 -0.1085  0.4870 -0.4224
  318MOL0     C41887  -2.189   5.602  10.446  0.4145 -0.0402  0.0401
  318MOL0    Cl41888  -2.249   5.729  10.548  0.2577  0.4638 -0.0250
  318MOL0     C41889  -1.231   5.396  10.519  0.8663  0.1270 -0.4679
  318MOL0     C41890  -1.102   5.417  10.469 -0.3208 -0.1763  0.3971
  318MOL0     O41891  -0.906   5.684  10.572 -0.7018 -0.9823 -0.4532
  318MOL0     C41892  -0.640   5.769  10.534 -0.7380  0.0708  0.1629
  318MOL0     C41893  -0.504   5.801  10.516 -0.3398 -0.4571 -0.0731
  318MOL0     N41894   0.255   5.362  10.142  0.5081 -0.5029 -0.4094
  318MOL0     N41895   0.297   5.360  10.017  0.8766 -0.6454 -0.4026
  318MOL0     C41896   1.443   5.697  10.010 -1.0167  0.0554  0.6332
  318MOL0     C41897   1.547   5.793  10.029 -0.5478  0.1896 -0.4251
  318MOL0     C41898   1.751   6.207   9.994 -0.6701 -0.2380  0.7579
  318MOL0     C41899   1.884   6.158  10.020 -0.0963 -0.2898 -0.2575
  318MOL0     C41900   1.981   6.248  10.059 -0.4308  1.1237 -0.2304
  318MOL0     C41901   1.965   6.385  10.074 -0.7809  0.2942  0.9444
  318MOL0     O41902   2.075   6.459  10.114  0.4882  0.3668  0.6442
  318MOL0     C41903   2.051   6.601  10.147 -0.1541 -0.2515 -0.1608
  318MOL0     C41904   2.174   6.658  10.203  0.2406 -1.2282 -0.1915
  318MOL0     C41905   2.237   6.579  10.325  0.3009 -0.1242  0.0456
  318MOL0     C41906   2.360   6.647  10.382 -0.6275  0.1726 -0.0932
  318MOL0     C41907   2.411   6.565  10.487  0.6888 -0.9701 -0.7634
  318MOL0     C41908   2.459   6.523  10.588 -0.0931 -0.0657 -0.4354
  318MOL0     C41909   1.846   6.435  10.041  1.2101  0.6198  0.0733
  318MOL0     C41910   1.740   6.345  10.002  0.0437  0.5514 -0.7323
  318MOL0     H41911   1.501   5.978   9.750 -0.9402  0.7012  0.2872
  318MOL0     H41912   1.331   5.822   9.707 -1.0910  0.5341  0.0683
  318MOL0     H41913   1.162   5.593  10.041  0.6314  1.5612 -0.3347
  318MOL0     H41914   1.274   5.458  10.013  1.2456  0.1762 -1.2458
  318MOL0     H41915   1.068   5.373   9.971  1.3641  1.6504  1.5359
  318MOL0     H41916   1.131   5.405   9.804  0.2337 -0.5515 -0.6441
  318MOL0     H41917   1.013   5.601   9.789  3.4027 -0.0864  1.5890
  318MOL0     H41918   0.969   5.609   9.955  2.5115 -1.2758  1.6120
  318MOL0     H41919   0.863   5.411   9.734  1.4374 -0.2060 -0.3775
  318MOL0     H41920   0.829   5.382   9.906  2.8490 -1.5033 -0.1798
  318MOL0     H41921   0.731   5.623   9.748 -1.3163  1.1134  0.8178
  318MOL0     H41922   0.747   5.621   9.915 -1.0803  1.0232 -0.6870
  318MOL0     H41923   0.588   5.409   9.914  1.3141 -2.9653 -1.7737
  318MOL0     H41924   0.587   5.410   9.738  0.8042  0.1824  0.0458
  318MOL0     H41925   0.507   5.637   9.925 -0.9323 -2.6670  1.7860
  318MOL0     H41926   0.496   5.641   9.744  1.1648 -1.3571 -1.1776
  318MOL0     H41927   0.345   5.429   9.775  0.4377  0.3922 -0.0419
  318MOL0     H41928   0.274   5.580   9.787 -3.4353 -2.6615  0.6530
  318MOL0     H41929   0.240   5.676  10.062  2.2987  0.3384 -0.0833
  318MOL0     H41930   0.216   5.607  10.351 -0.9956  0.9758  1.7080
  318MOL0     H41931   0.135   5.449  10.357  3.9047  0.7535  0.6038
  318MOL0     H41932  -0.031   5.585  10.183 -1.4190  1.9910 -0.1561
  318MOL0     H41933   0.066   5.722  10.242 -0.4488  1.1943  1.8496
  318MOL0     H41934  -0.064   5.552  10.455  1.0998  0.8514  1.6391
  318MOL0     H41935  -0.012   5.720  10.451  0.4473 -0.5700  0.8730
  318MOL0     H41936  -0.257   5.600  10.310 -1.5227  0.3134  0.8148
  318MOL0     H41937  -0.203   5.771  10.285  1.9840 -1.1936 -2.1089
  318MOL0     H41938  -0.371   5.507  10.472  1.1051  1.6613 -0.4153
  318MOL0     H41939  -0.612   5.439  10.483 -1.1540  0.3334 -0.1501
  318MOL0     H41940  -0.925   5.433  10.750  3.1184  1.1603 -3.6826
  318MOL0     H41941  -1.171   5.429  10.849 -0.9267  1.0384 -0.6453
  318MOL0     H41942  -1.502   5.299  10.597  1.2116  1.0504 -1.4650
  318MOL0     H41943  -1.495   5.468  10.551  1.2322  1.9921  1.7401
  318MOL0     H41944  -1.607   5.507  10.782 -1.2127 -1.6399  3.0255
  318MOL0     H41945  -1.602   5.337  10.797 -0.3679 -1.1246 -1.1391
  318MOL0     H41946  -1.743   5.347  10.564  2.2019  0.4764 -0.0645
  318MOL0     H41947  -1.767   5.517  10.614 -1.5424  0.4104  2.8500
  318MOL0     H41948  -1.835   5.276  10.787  2.1043  0.5763  0.8924
  318MOL0     H41949  -1.852   5.432  10.835 -1.1426 -2.5404  2.2381
  318MOL0     H41950  -2.068   5.351  10.772  0.4212 -1.5324  0.4487
  318MOL0     H41951  -2.011   5.287  10.621  1.6966 -0.2188  0.2041
  318MOL0     H41952  -1.959   5.544  10.568  0.1709  0.1201 -1.2471
  318MOL0     H41953  -2.090   5.570  10.696 -3.0211 -0.4347 -1.8302
  318MOL0     H41954  -2.127   5.399  10.460 -2.3184  0.2449 -1.4595
  318MOL0     H41955  -2.258   5.442  10.573 -0.4998  2.5666  0.4742
  318MOL0     H41956  -2.249   5.571  10.361  0.4214 -2.1660  0.7482
  318MOL0     H41957  -2.091   5.641  10.416  0.1477  0.4132 -0.2453
  318MOL0     H41958  -1.312   5.393  10.447 -1.0617  1.0296  1.5371
  318MOL0     H41959  -1.080   5.424  10.363  0.0434 -1.6002  0.3485
  318MOL0     H41960  -0.721   5.831  10.572 -0.7612 -1.7670  3.4926
  318MOL0     H41961  -0.459   5.898  10.536  2.2274 -1.5841  0.0538
  318MOL0     H41962   1.450   5.622  10.087 -0.8571  2.3615  3.0248
  318MOL0     H41963   1.619   5.795  10.111  0.6645 -1.5238 -1.3799
  318MOL0     H41964   1.889   6.051  10.037 -3.1321 -0.2533  1.5203
  318MOL0     H41965   2.080   6.214  10.089 -0.5446  1.6348  0.7506
  318MOL0     H41966   1.970   6.610  10.220  0.4853  3.4047  0.2841
  318MOL0     H41967   2.011   6.653  10.059 -1.0510  2.6918  1.8719
  318MOL0     H41968   2.251   6.661  10.125 -0.2012  0.1298 -0.6022
  318MOL0     H41969   2.155   6.761  10.232 -1.2623 -1.9137  1.4106
  318MOL0     H41970   2.267   6.480  10.288 -2.3927 -2.2069  2.8874
  318MOL0     H41971   2.167   6.557  10.406 -2.3620  0.3029 -2.0057
  318MOL0     H41972   2.435   6.660  10.304 -1.0672  1.1142 -0.3780
  318MOL0     H41973   2.328   6.742  10.426  2.3487  1.5889 -0.7159
  318MOL0     H41974   2.517   6.486  10.670 -0.0848  0.7343 -0.0680
  318MOL0     H41975   1.827   6.542  10.044 -1.5318  0.2281  3.8612
  318MOL0     H41976   1.646   6.395   9.984 -0.0396  0.3764 -0.7788
  319MOL0     O41977   0.231   0.020   7.985 -0.8501  0.6063 -0.0118
  319MOL0     C41978   0.274  -0.007   8.099  0.4575  0.7294 -0.2773
  319MOL0     O41979   0.203  -0.079   8.198  0.2496 -0.1018  0.5201
  319MOL0     C41980   0.088  -0.150   8.168  0.3761  0.1142  0.3796
  319MOL0     C41981   0.068  -0.268   8.232  0.0313 -0.3085  0.8634
  319MOL0     C41982  -0.044  -0.351   8.198 -0.2293 -0.8299  0.4637
  319MOL0     C41983  -0.141  -0.307   8.110  0.8900 -0.0030  0.0171
  319MOL0     O41984  -0.258  -0.384   8.086  0.1639 -0.3491 -0.6110
  319MOL0     C41985  -0.238  -0.525   8.053  0.2363  0.9621 -0.6560
  319MOL0     C41986  -0.373  -0.589   8.022  0.2784  0.6180 -0.0887
  319MOL0     C41987  -0.468  -0.496   7.941  0.2966 -0.1395 -0.2281
  319MOL0     C41988  -0.589  -0.562   7.888  0.8313 -0.4622 -0.6072
  319MOL0     C41989  -0.682  -0.616   7.997 -0.1075 -0.0559  0.3184
  319MOL0     C41990  -0.821  -0.652   7.935 -0.8572  0.7981 -0.3995
  319MOL0     C41991  -0.933  -0.547   7.950 -0.3780  0.1481  0.3038
  319MOL0     C41992  -1.052  -0.578   7.878  0.3689  0.3401  0.3366
  319MOL0     N41993  -1.110  -0.715   7.908 -0.5463  0.0857 -0.2063
  319MOL0     C41994  -1.154  -0.751   8.038 -0.0509 -0.3387 -0.4309
  319MOL0     C41995  -1.193  -0.882   8.031  0.1750 -0.1562 -0.1673
  319MOL0     C41996  -1.254  -0.947   8.148  0.0531  1.0838 -0.1516
  319MOL0     C41997  -1.321  -1.083   8.124 -0.0147  0.4300  0.3641
  319MOL0     C41998  -1.357  -1.159   8.253 -0.4703  0.4892  0.4134
  319MOL0     C41999  -1.489  -1.088   8.317  0.1420  0.7639  0.5743
  319MOL0     O42000  -1.513  -1.145   8.444 -1.2181  0.5704 -0.4789
  319MOL0     C42001  -1.614  -1.094   8.515  0.3036 -0.4712 -0.4919
  319MOL0     C42002  -1.718  -1.025   8.454 -0.0490 -0.4141 -0.0600
  319MOL0     C42003  -1.811  -0.959   8.521  0.2651 -0.8418  0.0639
  319MOL0     C42004  -1.820  -0.959   8.659  0.0372  0.1242 -1.2826
  319MOL0     C42005  -1.925  -0.888   8.726  0.4977  0.0123 -0.1731
  319MOL0     O42006  -2.025  -0.841   8.647  0.2710  0.1694 -0.3137
  319MOL0     C42007  -2.126  -0.756   8.691  0.4248 -0.6341  0.3155
  319MOL0     C42008  -2.246  -0.772   8.629  0.8086 -0.0235 -0.0011
  319MOL0     C42009  -2.355  -0.704   8.681  0.4056  0.0354  0.1124
  319MOL0     C42010  -2.354  -0.620   8.797  0.2278  0.4275  0.1120
  319MOL0     O42011  -2.460  -0.543   8.839  0.6560 -0.6440  0.4684
  319MOL0     C42012  -2.587  -0.570   8.773  0.7481 -0.6043  0.3974
  319MOL0     C42013  -2.692  -0.488   8.845  1.7847 -0.3249 -0.0877
  319MOL0     C42014  -2.841  -0.492   8.794  0.0741 -0.5350 -0.8507
  319MOL0     C42015  -2.916  -0.410   8.896  0.1826  0.1963  0.2664
  319MOL0     C42016  -3.070  -0.412   8.871 -0.1299  0.3271 -0.4733
  319MOL0     C42017  -3.134  -0.361   8.999  0.3875 -0.4994 -0.5494
  319MOL0     C42018  -3.288  -0.329   8.984 -0.2359  1.0498  0.3138
  319MOL0     C42019  -3.338  -0.299   9.120 -0.6935  0.7016 -0.2394
  319MOL0    Cl42020  -3.511  -0.293   9.098  0.3961  0.2492 -0.1222
  319MOL0     C42021  -2.227  -0.601   8.857  0.2270  0.3051 -0.6134
  319MOL0     C42022  -2.117  -0.669   8.803  0.2820 -0.1462 -0.2656
  319MOL0     O42023  -1.927  -0.884   8.846 -0.0958  0.1621 -0.2448
  319MOL0     C42024  -1.715  -1.029   8.725  0.3502 -0.0802 -0.5734
  319MOL0     C42025  -1.609  -1.093   8.657 -0.5922 -0.0596  0.9397
  319MOL0     N42026  -1.177  -0.924   7.895 -0.3966  0.2838 -0.7121
  319MOL0     N42027  -1.131  -0.821   7.832 -0.5994  0.2010  0.2355
  319MOL0     C42028  -0.125  -0.189   8.043 -0.5769  0.2311  0.2732
  319MOL0     C42029  -0.018  -0.105   8.083 -0.6309  0.7047  0.4247
  319MOL0     C42030   0.400   0.053   8.140  0.0992  0.7954  0.3116
  319MOL0     C42031   0.466   0.131   8.041  0.2596 -0.3153 -0.0500
  319MOL0     C42032   0.594   0.169   8.063 -0.2321 -0.0461  0.0975
  319MOL0     C42033   0.661   0.151   8.188 -0.1036  0.2140  0.0098
  319MOL0     O42034   0.792   0.188   8.219  0.1950  0.4745  0.0292
  319MOL0     C42035   0.861   0.254   8.115  0.2128 -1.1505  0.1202
  319MOL0     C42036   1.002   0.279   8.168  0.0038 -1.0772  0.4124
  319MOL0     C42037   1.071   0.153   8.202 -0.7075  0.1215  0.5035
  319MOL0     C42038   1.214   0.142   8.131  0.1557 -0.7359 -0.1822
  319MOL0     C42039   1.211   0.149   7.985  0.6530 -0.6847 -0.2293
  319MOL0     C42040   1.193   0.161   7.861  0.2038  0.4467 -0.9305
  319MOL0     C42041   0.586   0.082   8.284  0.1184 -0.5767 -0.0006
  319MOL0     C42042   0.464   0.026   8.255 -0.2409  0.3052  0.1046
  319MOL0     H42043   0.139  -0.304   8.306  0.3851 -0.0721  0.6447
  319MOL0     H42044  -0.048  -0.447   8.249 -1.3156 -0.1085  1.8147
  319MOL0     H42045  -0.184  -0.579   8.131  0.7604 -0.5351 -2.0124
  319MOL0     H42046  -0.175  -0.533   7.964 -0.0954  1.4109 -0.9367
  319MOL0     H42047  -0.424  -0.616   8.115 -0.3424  0.7838 -0.3790
  319MOL0     H42048  -0.350  -0.682   7.970 -0.4057  0.0467  0.6130
  319MOL0     H42049  -0.416  -0.439   7.863 -0.8108  1.7829  0.3633
  319MOL0     H42050  -0.496  -0.412   8.006  1.7125 -0.0087  0.2557
  319MOL0     H42051  -0.651  -0.489   7.834  1.5384  0.8740  0.3351
  319MOL0     H42052  -0.554  -0.630   7.810  1.4872  0.6022 -1.2624
  319MOL0     H42053  -0.681  -0.551   8.084 -2.3071  1.1195 -0.4572
  319MOL0     H42054  -0.623  -0.703   8.027 -0.9705 -2.0642 -3.2080
  319MOL0     H42055  -0.846  -0.742   7.992  1.9744 -0.3963 -0.8451
  319MOL0     H42056  -0.807  -0.682   7.830  3.6251 -1.4918  0.5862
  319MOL0     H42057  -0.961  -0.520   8.052  1.7509  1.0858  0.6912
  319MOL0     H42058  -0.892  -0.455   7.907 -1.3037  2.0130  3.1600
  319MOL0     H42059  -1.020  -0.578   7.773 -0.1008 -0.9430  0.1783
  319MOL0     H42060  -1.133  -0.506   7.895 -2.8141 -3.1294  1.3975
  319MOL0     H42061  -1.158  -0.681   8.121  1.9328 -0.1473 -0.4476
  319MOL0     H42062  -1.329  -0.886   8.200 -0.6549 -0.6940  1.0060
  319MOL0     H42063  -1.174  -0.970   8.218 -1.7499 -0.3537  1.5602
  319MOL0     H42064  -1.253  -1.145   8.064 -0.7910  0.8982 -1.0575
  319MOL0     H42065  -1.408  -1.073   8.058  1.7898  2.0330 -1.9460
  319MOL0     H42066  -1.388  -1.262   8.236  0.0102 -0.1006  2.7249
  319MOL0     H42067  -1.280  -1.161   8.331 -1.3141  0.3330  1.2701
  319MOL0     H42068  -1.567  -1.106   8.243  0.7729 -1.9972  0.4684
  319MOL0     H42069  -1.477  -0.980   8.325 -1.0426  1.0011 -0.6138
  319MOL0     H42070  -1.739  -1.011   8.348 -0.9583  0.9533  0.2639
  319MOL0     H42071  -1.899  -0.923   8.468 -0.2085  0.7867  1.8580
  319MOL0     H42072  -2.250  -0.829   8.536  1.0966  0.8810 -0.5834
  319MOL0     H42073  -2.442  -0.723   8.619 -0.1926 -2.5576  1.5948
  319MOL0     H42074  -2.617  -0.675   8.763 -1.6776  0.2022 -2.7340
  319MOL0     H42075  -2.587  -0.520   8.676 -0.8409 -0.5813  0.3741
  319MOL0     H42076  -2.655  -0.386   8.851 -1.5099  0.9423  0.9427
  319MOL0     H42077  -2.698  -0.516   8.950  0.7707  3.0926  0.8945
  319MOL0     H42078  -2.878  -0.595   8.794 -2.5446  0.2154  2.5685
  319MOL0     H42079  -2.842  -0.447   8.694  0.4727  0.0219 -0.6070
  319MOL0     H42080  -2.890  -0.440   8.997  1.9389  1.6117  0.2706
  319MOL0     H42081  -2.881  -0.308   8.908 -3.1419  1.5633 -0.4691
  319MOL0     H42082  -3.098  -0.514   8.842  0.2261  0.1053 -0.0595
  319MOL0     H42083  -3.092  -0.351   8.783  1.1935 -1.6922 -2.3349
  319MOL0     H42084  -3.082  -0.265   9.009  0.3658 -0.3922 -1.4174
  319MOL0     H42085  -3.112  -0.417   9.090 -0.9803 -2.9885 -1.6497
  319MOL0     H42086  -3.318  -0.245   8.921 -5.3372 -0.1724  0.6622
  319MOL0     H42087  -3.340  -0.418   8.947  3.1733  0.1171 -2.7091
  319MOL0     H42088  -3.297  -0.203   9.154  2.1754 -1.2152  2.2391
  319MOL0     H42089  -3.307  -0.384   9.181 -0.8950 -0.1646 -1.3272
  319MOL0     H42090  -2.214  -0.533   8.940 -0.5433  0.5222 -0.6680
  319MOL0     H42091  -2.030  -0.652   8.866 -0.5233 -0.6162  1.0112
  319MOL0     H42092  -1.701  -1.019   8.832  0.5813  0.7238 -0.6742
  319MOL0     H42093  -1.534  -1.158   8.702 -1.0710 -0.6299  0.9102
  319MOL0     H42094  -0.201  -0.155   7.973 -2.2394 -4.8080 -0.7338
  319MOL0     H42095  -0.009  -0.003   8.048 -0.7676  0.2601 -1.0028
  319MOL0     H42096   0.415   0.144   7.946  0.7240 -0.9948 -0.3994
  319MOL0     H42097   0.631   0.216   7.973 -1.5784  1.8419  0.4815
  319MOL0     H42098   0.816   0.351   8.093  3.7736  0.9332  1.1367
  319MOL0     H42099   0.864   0.190   8.026 -1.2850 -1.1466  0.0525
  319MOL0     H42100   1.052   0.329   8.085 -0.3138 -0.7431  0.4225
  319MOL0     H42101   0.998   0.355   8.247  3.0142 -0.5532  0.1702
  319MOL0     H42102   1.020   0.063   8.168 -1.3845  1.1536 -1.3657
  319MOL0     H42103   1.084   0.152   8.311 -1.3869 -2.1280  0.6109
  319MOL0     H42104   1.279   0.214   8.181 -2.6897 -0.2949  3.2965
  319MOL0     H42105   1.255   0.043   8.153  2.4212  0.0551 -0.6165
  319MOL0     H42106   1.174   0.166   7.755 -1.4730 -2.0973 -0.8486
  319MOL0     H42107   0.631   0.071   8.382  1.9732 -1.2164 -0.8866
  319MOL0     H42108   0.413  -0.037   8.328  0.1427  0.0015  0.1140
  320MOL0     O42109   1.602   1.182   4.446 -0.2846  0.2239 -0.3301
  320MOL0     C42110   1.642   1.195   4.331 -0.2380 -0.4242  1.1094
  320MOL0     O42111   1.570   1.194   4.215  0.0306  0.4519 -0.5607
  320MOL0     C42112   1.435   1.212   4.219  0.1858  0.0402 -0.8607
  320MOL0     C42113   1.356   1.277   4.324  0.4494  0.0714  0.3690
  320MOL0     C42114   1.217   1.289   4.314 -0.8169 -0.0476 -0.5232
  320MOL0     C42115   1.155   1.246   4.199  0.7781  0.0925  0.5459
  320MOL0     O42116   1.018   1.268   4.193 -0.1681  0.0577 -0.1438
  320MOL0     C42117   0.957   1.196   4.086  0.6930 -0.1240  0.6933
  320MOL0     C42118   0.804   1.196   4.105 -0.9450  0.5342  0.6198
  320MOL0     C42119   0.721   1.125   3.992  0.1758 -0.1982 -0.8293
  320MOL0     C42120   0.571   1.151   4.024 -0.9416 -0.4087  0.2785
  320MOL0     C42121   0.523   1.089   4.153 -0.2931  0.6106  0.7424
  320MOL0     C42122   0.385   1.028   4.125  0.2164 -0.4565  0.0352
  320MOL0     C42123   0.346   0.958   4.251  0.0832 -0.0757  0.5609
  320MOL0     C42124   0.199   0.923   4.248  0.1478 -0.1438  0.1303
  320MOL0     N42125   0.104   1.028   4.288 -0.0413  0.0266  0.2047
  320MOL0     C42126  -0.022   1.003   4.344  0.7615  0.4611  0.6404
  320MOL0     C42127  -0.092   1.112   4.312 -1.1057  0.0636 -0.3392
  320MOL0     C42128  -0.232   1.145   4.351  0.7621  0.4080 -0.7620
  320MOL0     C42129  -0.308   1.225   4.250  0.5237 -0.8571  0.7597
  320MOL0     C42130  -0.456   1.220   4.276  0.1747  0.2731 -0.3227
  320MOL0     C42131  -0.519   1.293   4.170 -0.0043  0.1323  0.4445
  320MOL0     O42132  -0.660   1.280   4.205  0.0917 -0.2500 -0.5740
  320MOL0     C42133  -0.753   1.331   4.127  0.0566  0.2584 -0.2330
  320MOL0     C42134  -0.728   1.419   4.023  0.8437  0.2112 -0.2987
  320MOL0     C42135  -0.841   1.487   3.969  0.0493  0.5131 -0.1114
  320MOL0     C42136  -0.969   1.453   4.008  0.3352 -0.4212 -0.8394
  320MOL0     C42137  -1.085   1.514   3.932  0.1393 -0.8901 -0.5796
  320MOL0     O42138  -1.203   1.449   3.928  0.1794  0.2135  0.2538
  320MOL0     C42139  -1.321   1.488   3.858  0.1001 -0.1429  0.0767
  320MOL0     C42140  -1.439   1.429   3.897  0.4258 -0.8459 -0.6768
  320MOL0     C42141  -1.562   1.455   3.832 -0.0637  0.2769 -0.1295
  320MOL0     C42142  -1.564   1.549   3.732  0.1825 -0.4600  0.0745
  320MOL0     O42143  -1.681   1.578   3.662  0.1249 -0.4735 -0.3979
  320MOL0     C42144  -1.806   1.561   3.721 -0.1109 -0.0422  0.2414
  320MOL0     C42145  -1.840   1.630   3.852  0.2645 -0.2367 -0.2490
  320MOL0     C42146  -1.984   1.615   3.900 -0.3703 -0.3866 -0.3736
  320MOL0     C42147  -1.999   1.528   4.031  0.4529  0.7089  0.1255
  320MOL0     C42148  -1.978   1.379   4.004  0.4981  0.3544 -0.4578
  320MOL0     C42149  -1.955   1.307   4.139 -0.2586 -0.0908  0.2150
  320MOL0     C42150  -1.935   1.155   4.119 -1.1148  0.7131  0.9071
  320MOL0     C42151  -1.953   1.081   4.248 -0.0397  0.2049 -0.0995
  320MOL0    Cl42152  -1.913   0.908   4.210 -0.2997 -0.1089  0.2618
  320MOL0     C42153  -1.442   1.600   3.680  0.5668 -0.7582 -0.6395
  320MOL0     C42154  -1.321   1.580   3.748  0.2037 -0.5910 -0.5041
  320MOL0     O42155  -1.073   1.620   3.880 -0.1297  0.4364 -0.1787
  320MOL0     C42156  -0.992   1.350   4.103  0.4762  0.3977 -0.5477
  320MOL0     C42157  -0.879   1.291   4.165  0.6459 -0.9880  0.0817
  320MOL0     N42158  -0.006   1.201   4.250  0.2095  0.1277  0.4621
  320MOL0     N42159   0.102   1.149   4.231  0.0130  0.3431  0.3452
  320MOL0     C42160   1.230   1.184   4.095 -0.6954  0.8783 -0.1498
  320MOL0     C42161   1.367   1.171   4.107  0.2376  0.2347  0.0241
  320MOL0     C42162   1.786   1.207   4.300 -0.2428  0.2081  0.1958
  320MOL0     C42163   1.848   1.204   4.177  0.2734 -1.4428  0.6376
  320MOL0     C42164   1.986   1.216   4.148 -0.3904 -0.1639  0.2548
  320MOL0     C42165   2.069   1.226   4.268  1.3395 -0.0557  1.1475
  320MOL0     O42166   2.200   1.244   4.243  0.1348  0.4876 -0.0152
  320MOL0     C42167   2.285   1.291   4.345 -0.7429 -0.8247 -0.3414
  320MOL0     C42168   2.420   1.349   4.290 -0.3993  0.1838 -0.5083
  320MOL0     C42169   2.488   1.432   4.398 -0.4150 -0.3535  0.0881
  320MOL0     C42170   2.620   1.474   4.358  0.7815  0.7212  0.4339
  320MOL0     C42171   2.692   1.570   4.444 -0.1323  0.0856 -0.0812
  320MOL0     C42172   2.773   1.643   4.495 -0.8155 -0.5411 -0.2588
  320MOL0     C42173   2.012   1.212   4.392  0.1489  0.5345  0.7975
  320MOL0     C42174   1.878   1.200   4.411  0.2726 -0.3999  0.1975
  320MOL0     H42175   1.395   1.317   4.418  1.1095 -0.8107  0.4920
  320MOL0     H42176   1.158   1.325   4.398  1.7100  2.0523  0.5236
  320MOL0     H42177   0.990   1.092   4.080  1.9239  0.2812  0.2129
  320MOL0     H42178   0.993   1.238   3.992  1.4803  0.4992  1.2571
  320MOL0     H42179   0.758   1.295   4.104 -2.7179 -0.1931 -2.0773
  320MOL0     H42180   0.776   1.162   4.205 -0.7746  0.4472  0.6386
  320MOL0     H42181   0.741   1.017   3.991  0.9067 -0.0732 -1.6848
  320MOL0     H42182   0.742   1.166   3.893 -1.0420 -1.6168 -1.7127
  320MOL0     H42183   0.551   1.258   4.031 -1.2250 -0.5300  1.6328
  320MOL0     H42184   0.529   1.116   3.929  1.8514 -3.0443 -0.1563
  320MOL0     H42185   0.522   1.161   4.235  3.7633  1.3753  0.3326
  320MOL0     H42186   0.590   1.003   4.166  0.3368  1.2680  1.8978
  320MOL0     H42187   0.398   0.954   4.046 -0.0815 -1.6151  1.0429
  320MOL0     H42188   0.317   1.106   4.090  0.8483 -1.2827 -3.3825
  320MOL0     H42189   0.398   0.862   4.259  0.8905  0.2846 -0.1854
  320MOL0     H42190   0.364   1.019   4.339  1.7109 -0.5111  0.5616
  320MOL0     H42191   0.182   0.844   4.322  1.3910  0.7036  1.3689
  320MOL0     H42192   0.163   0.877   4.155  2.1368  0.3325 -0.9258
  320MOL0     H42193  -0.061   0.909   4.382  1.7004  0.6388  2.1201
  320MOL0     H42194  -0.230   1.196   4.448  1.7339 -1.9727  0.5608
  320MOL0     H42195  -0.299   1.061   4.374  0.8384  1.2574  3.3396
  320MOL0     H42196  -0.287   1.190   4.148 -1.9068  2.4885 -1.0944
  320MOL0     H42197  -0.277   1.330   4.252 -1.9958 -0.0196 -0.1896
  320MOL0     H42198  -0.496   1.118   4.279  1.0547 -0.0675  2.0633
  320MOL0     H42199  -0.477   1.264   4.374 -3.7529 -1.8130 -0.0113
  320MOL0     H42200  -0.505   1.248   4.072 -0.2876  2.0079 -0.5158
  320MOL0     H42201  -0.485   1.397   4.169  0.5378 -0.0434  0.4859
  320MOL0     H42202  -0.629   1.446   3.989  0.9854 -0.4792 -0.4419
  320MOL0     H42203  -0.822   1.562   3.893 -0.5747 -0.8191 -1.6472
  320MOL0     H42204  -1.438   1.370   3.988  3.0442  0.0412 -0.0383
  320MOL0     H42205  -1.650   1.400   3.863  1.9597 -2.4907  1.1904
  320MOL0     H42206  -1.841   1.458   3.729 -1.6899  0.5670  1.9987
  320MOL0     H42207  -1.872   1.609   3.649 -2.0339 -3.0324 -0.1912
  320MOL0     H42208  -1.822   1.733   3.820 -0.1503 -0.6208 -1.7588
  320MOL0     H42209  -1.769   1.599   3.930 -0.9348 -0.2567  0.8775
  320MOL0     H42210  -2.051   1.587   3.818 -1.6356  0.9219  0.1627
  320MOL0     H42211  -2.011   1.716   3.931  3.3051  1.3374 -2.1966
  320MOL0     H42212  -1.924   1.563   4.103  1.8713  0.2002 -1.0558
  320MOL0     H42213  -2.100   1.540   4.071 -1.0652 -0.9719 -2.8793
  320MOL0     H42214  -1.895   1.361   3.934  1.0307  0.3658  0.1549
  320MOL0     H42215  -2.067   1.333   3.960  0.4257 -0.2930  0.3425
  320MOL0     H42216  -2.044   1.315   4.203  0.2433 -2.4330  1.3366
  320MOL0     H42217  -1.871   1.353   4.191  2.2831 -3.6038 -0.4595
  320MOL0     H42218  -2.006   1.109   4.051 -0.7504 -0.4094  1.2727
  320MOL0     H42219  -1.834   1.128   4.088 -0.8335 -0.7636  2.8951
  320MOL0     H42220  -2.058   1.089   4.277  0.1175 -0.3702  0.6800
  320MOL0     H42221  -1.893   1.111   4.334  1.3512  2.5004 -1.7544
  320MOL0     H42222  -1.448   1.668   3.596  1.1466 -0.7275 -0.6578
  320MOL0     H42223  -1.231   1.632   3.717 -0.4504  0.9254 -0.0083
  320MOL0     H42224  -1.090   1.309   4.124  1.3600 -3.3809 -2.7169
  320MOL0     H42225  -0.895   1.221   4.247  2.7723 -0.1766  1.2621
  320MOL0     H42226   1.185   1.128   4.014 -1.1772  1.0628 -0.0150
  320MOL0     H42227   1.411   1.104   4.034 -1.8606 -1.5001  0.2198
  320MOL0     H42228   1.788   1.197   4.087 -0.4991 -3.1887  1.2513
  320MOL0     H42229   2.030   1.214   4.049  1.7357 -0.0653  1.1381
  320MOL0     H42230   2.314   1.215   4.419  0.3577  1.5684  1.8498
  320MOL0     H42231   2.231   1.371   4.397  0.8834  0.7272 -0.9145
  320MOL0     H42232   2.486   1.271   4.250 -0.6784  0.3140 -1.2274
  320MOL0     H42233   2.410   1.418   4.206  2.7049 -0.0247 -1.1753
  320MOL0     H42234   2.484   1.372   4.490  1.5933  0.2335  0.6164
  320MOL0     H42235   2.436   1.523   4.429 -0.6843 -0.1087 -1.0745
  320MOL0     H42236   2.679   1.382   4.357  1.2877  1.0146  1.8316
  320MOL0     H42237   2.619   1.504   4.253 -2.0593 -1.8796 -0.4429
  320MOL0     H42238   2.846   1.705   4.544 -0.4562  0.7447 -2.2973
  320MOL0     H42239   2.073   1.220   4.482 -0.8568 -0.7381  1.6422
  320MOL0     H42240   1.847   1.199   4.515 -1.8767  1.9454 -0.3274
  321MOL0     O42241   0.517   6.711   8.991 -0.1736 -0.3706  0.4142
  321MOL0     C42242   0.558   6.717   8.875 -0.5397 -0.0255 -0.3894
  321MOL0     O42243   0.478   6.691   8.760  0.2539 -0.7322 -0.4529
  321MOL0     C42244   0.338   6.682   8.763 -0.3831  0.3876  0.1043
  321MOL0     C42245   0.260   6.732   8.873 -0.2777 -0.1083 -0.0973
  321MOL0     C42246   0.123   6.720   8.855  0.7053 -0.0882 -0.8331
  321MOL0     C42247   0.057   6.661   8.746 -0.0078 -0.4666 -0.1382
  321MOL0     O42248  -0.083   6.661   8.721 -0.2465 -0.4420 -0.4926
  321MOL0     C42249  -0.161   6.760   8.781  0.3322  0.2191 -0.0447
  321MOL0     C42250  -0.213   6.703   8.911  0.8255  0.7909 -0.6454
  321MOL0     C42251  -0.346   6.771   8.949 -0.3113  0.0009 -0.1717
  321MOL0     C42252  -0.462   6.741   8.856 -0.9019  1.0667 -0.3603
  321MOL0     C42253  -0.582   6.795   8.923 -0.8260  1.3090  0.3759
  321MOL0     C42254  -0.695   6.772   8.832  0.2464  0.2277  0.4656
  321MOL0     C42255  -0.833   6.774   8.898 -0.3174 -0.4398 -0.1628
  321MOL0     C42256  -0.942   6.780   8.794  0.7166  0.6680  0.3633
  321MOL0     N42257  -1.071   6.795   8.858 -0.5639 -0.5716 -0.0505
  321MOL0     C42258  -1.151   6.694   8.901  0.3087 -0.5234  0.3495
  321MOL0     C42259  -1.250   6.750   8.966  0.5333  0.2251  1.0172
  321MOL0     C42260  -1.366   6.680   9.042 -0.6851 -0.3800 -0.2335
  321MOL0     C42261  -1.392   6.719   9.188  0.6395  0.2403 -0.4570
  321MOL0     C42262  -1.499   6.631   9.255 -0.7296  0.5375 -0.4880
  321MOL0     C42263  -1.538   6.672   9.392  0.3260 -0.4124 -0.0804
  321MOL0     O42264  -1.640   6.581   9.433 -0.5085 -0.0456 -0.1820
  321MOL0     C42265  -1.740   6.612   9.527  0.1448  0.5863 -0.4951
  321MOL0     C42266  -1.729   6.707   9.625  0.0338 -0.2566 -0.2947
  321MOL0     C42267  -1.829   6.734   9.713  0.2674  0.3714  0.3626
  321MOL0     C42268  -1.958   6.670   9.702  0.0222 -0.6082 -0.3411
  321MOL0     C42269  -2.064   6.719   9.800 -0.3821  0.4737  0.3253
  321MOL0     O42270  -2.039   6.777   9.922 -0.1798 -0.4250  0.2009
  321MOL0     C42271  -2.135   6.786  10.019  0.1858  0.2897  0.3533
  321MOL0     C42272  -2.222   6.677  10.046  0.0062  0.5707  0.1396
  321MOL0     C42273  -2.318   6.691  10.153 -0.9382 -0.3235  0.3515
  321MOL0     C42274  -2.329   6.801  10.229 -0.8050 -0.1279  0.0910
  321MOL0     O42275  -2.440   6.797  10.310 -0.0021 -0.4044  1.3809
  321MOL0     C42276  -2.460   6.912  10.389 -0.1264 -0.7274  0.7386
  321MOL0     C42277  -2.568   6.890  10.488  0.6431 -0.0170  0.0005
  321MOL0     C42278  -2.700   6.854  10.423  0.7988  0.0114 -0.0968
  321MOL0     C42279  -2.811   6.841  10.527  0.1574 -0.1730  0.5728
  321MOL0     C42280  -2.925   6.754  10.482 -0.0376 -0.8655  0.3245
  321MOL0     C42281  -3.050   6.755  10.576 -0.0210  0.6461 -0.5871
  321MOL0     C42282  -3.155   6.656  10.517  0.5647 -0.3148 -0.2496
  321MOL0     C42283  -3.273   6.622  10.605  0.5828 -0.4940 -0.1419
  321MOL0    Cl42284  -3.332   6.767  10.697  0.4924 -0.2076 -0.1380
  321MOL0     C42285  -2.240   6.911  10.207  1.0571 -0.1077 -0.0719
  321MOL0     C42286  -2.146   6.897  10.099  0.1573 -0.7495 -0.2179
  321MOL0     O42287  -2.172   6.689   9.751 -0.7388  0.1416  0.4535
  321MOL0     C42288  -1.966   6.581   9.596 -0.7236  1.0183 -0.8856
  321MOL0     C42289  -1.860   6.548   9.518  0.0198  0.2368 -0.4151
  321MOL0     N42290  -1.219   6.889   8.973  0.1264 -0.3305 -0.0405
  321MOL0     N42291  -1.114   6.913   8.903  0.3842 -0.4733 -0.7302
  321MOL0     C42292   0.143   6.628   8.639 -1.1714 -0.3115  0.4975
  321MOL0     C42293   0.278   6.638   8.644  0.1001 -0.1192  0.3606
  321MOL0     C42294   0.707   6.715   8.853  0.4382 -0.5854  0.0863
  321MOL0     C42295   0.801   6.741   8.960 -0.6344 -0.4109 -0.2966
  321MOL0     C42296   0.940   6.758   8.940  0.5818 -0.2982 -0.4821
  321MOL0     C42297   0.988   6.741   8.815 -1.3801 -0.0851 -0.2205
  321MOL0     O42298   1.127   6.766   8.807  0.5817  0.1241  0.4963
  321MOL0     C42299   1.194   6.791   8.677 -0.6416  0.5526 -0.5217
  321MOL0     C42300   1.344   6.827   8.706  0.1968  0.7106  0.1192
  321MOL0     C42301   1.427   6.881   8.584 -0.4628 -0.6159 -0.5145
  321MOL0     C42302   1.539   6.971   8.625 -0.2345  0.1187  0.1853
  321MOL0     C42303   1.605   7.009   8.504  0.0687  0.3527 -0.1690
  321MOL0     C42304   1.660   7.038   8.397  1.1140  0.1094 -0.7872
  321MOL0     C42305   0.901   6.714   8.712  0.1726 -0.4311  0.3055
  321MOL0     C42306   0.765   6.702   8.729 -0.3540  0.7928 -0.0377
  321MOL0     H42307   0.307   6.787   8.954  2.4114 -0.6443 -1.1960
  321MOL0     H42308   0.071   6.776   8.932  2.5698 -1.2185  1.3760
  321MOL0     H42309  -0.248   6.769   8.715 -0.3337  3.4316  1.0908
  321MOL0     H42310  -0.109   6.856   8.779  0.7233  0.0112 -1.8378
  321MOL0     H42311  -0.138   6.692   8.990  3.2685  0.6211 -2.8638
  321MOL0     H42312  -0.243   6.598   8.896  3.9353 -0.6319  1.8537
  321MOL0     H42313  -0.332   6.879   8.949 -0.9069  0.1078  1.7574
  321MOL0     H42314  -0.370   6.741   9.052  0.4761  4.2221  1.4364
  321MOL0     H42315  -0.444   6.786   8.758 -0.2603  0.2151 -0.6403
  321MOL0     H42316  -0.453   6.633   8.841 -0.5159  1.0637 -0.1215
  321MOL0     H42317  -0.586   6.904   8.934 -2.3792  1.1744  1.3035
  321MOL0     H42318  -0.599   6.751   9.022 -0.2960 -0.1757 -0.1695
  321MOL0     H42319  -0.689   6.676   8.780  1.8847  0.7310 -0.3707
  321MOL0     H42320  -0.696   6.855   8.761 -1.8667  2.7431  3.2308
  321MOL0     H42321  -0.836   6.680   8.952  3.0704 -1.9152 -2.2044
  321MOL0     H42322  -0.844   6.853   8.973  1.6812 -0.5388  0.2694
  321MOL0     H42323  -0.949   6.689   8.734  0.1271  2.4879 -2.5377
  321MOL0     H42324  -0.923   6.854   8.715  1.3660  0.2512  0.1262
  321MOL0     H42325  -1.136   6.587   8.888 -1.7627 -0.5047 -3.4884
  321MOL0     H42326  -1.359   6.571   9.052  0.3454 -0.2779  0.3076
  321MOL0     H42327  -1.459   6.705   8.991 -0.5960 -0.5286 -0.4733
  321MOL0     H42328  -1.431   6.820   9.202  1.4671  0.5617 -0.4112
  321MOL0     H42329  -1.300   6.711   9.247 -0.3133 -1.6353  0.8688
  321MOL0     H42330  -1.587   6.630   9.190  0.7801 -0.1967 -2.6369
  321MOL0     H42331  -1.454   6.532   9.270  1.1218  1.5726  1.2930
  321MOL0     H42332  -1.575   6.774   9.402 -0.7808 -0.8374  0.2057
  321MOL0     H42333  -1.450   6.660   9.456 -0.3708  2.7314  1.6666
  321MOL0     H42334  -1.639   6.767   9.632  0.2818 -0.7612  1.1006
  321MOL0     H42335  -1.811   6.812   9.786 -1.0543  1.2146 -0.1820
  321MOL0     H42336  -2.223   6.592   9.979 -1.8618  1.8381 -1.5472
  321MOL0     H42337  -2.386   6.609  10.173 -0.0509 -1.5651 -1.4004
  321MOL0     H42338  -2.495   6.996  10.328 -0.3371 -0.3834  1.3259
  321MOL0     H42339  -2.361   6.918  10.436  0.5782 -3.3390 -0.2164
  321MOL0     H42340  -2.579   6.983  10.545 -5.2254  0.0185 -0.6174
  321MOL0     H42341  -2.538   6.815  10.562 -0.1520 -0.9879 -0.6406
  321MOL0     H42342  -2.680   6.758  10.376  2.4195 -0.6998  1.8709
  321MOL0     H42343  -2.733   6.919  10.341  0.1919  0.2144  0.2977
  321MOL0     H42344  -2.771   6.800  10.621  2.6885 -2.9918 -1.5386
  321MOL0     H42345  -2.858   6.933  10.563  0.3716 -0.3868  1.4152
  321MOL0     H42346  -2.892   6.650  10.470  0.8971 -0.4310 -1.0377
  321MOL0     H42347  -2.957   6.778  10.380  2.2748 -0.6154 -0.3916
  321MOL0     H42348  -3.084   6.858  10.584  1.7435  1.1631  0.9724
  321MOL0     H42349  -3.032   6.717  10.677  2.7494 -2.2376 -1.9902
  321MOL0     H42350  -3.189   6.700  10.423 -0.7899 -0.5030  0.1271
  321MOL0     H42351  -3.100   6.564  10.492  0.9739  0.4541 -2.3585
  321MOL0     H42352  -3.236   6.552  10.680 -0.4846  0.1852  1.0538
  321MOL0     H42353  -3.353   6.583  10.541  0.7928  1.0319 -1.4149
  321MOL0     H42354  -2.241   6.993  10.278 -0.1823 -0.9811  0.9564
  321MOL0     H42355  -2.080   6.982  10.088  0.1025 -0.8853 -2.0029
  321MOL0     H42356  -2.061   6.532   9.578 -1.2345  1.7079 -0.0795
  321MOL0     H42357  -1.875   6.471   9.443  2.0546 -3.4311  2.5807
  321MOL0     H42358   0.097   6.602   8.544 -0.5764  0.6504 -0.0707
  321MOL0     H42359   0.330   6.601   8.556 -1.1993 -1.9383  0.3111
  321MOL0     H42360   0.768   6.757   9.062  0.9852 -0.6342  0.3027
  321MOL0     H42361   1.011   6.783   9.018  0.8308  2.6678 -1.5612
  321MOL0     H42362   1.145   6.868   8.617 -0.6466  0.4921 -0.5947
  321MOL0     H42363   1.192   6.696   8.624 -1.0516  0.1710  0.1580
  321MOL0     H42364   1.341   6.899   8.789 -0.4030  0.7844  0.0358
  321MOL0     H42365   1.393   6.737   8.744 -3.5851 -1.1576  1.0304
  321MOL0     H42366   1.370   6.939   8.511 -0.3061 -0.1789 -0.2895
  321MOL0     H42367   1.459   6.795   8.524 -0.5194  0.3362 -1.9446
  321MOL0     H42368   1.511   7.055   8.690 -0.7152 -1.4109  2.0637
  321MOL0     H42369   1.612   6.923   8.691  0.0802  1.6447  0.9977
  321MOL0     H42370   1.710   7.061   8.305  2.7842 -3.3796 -0.9255
  321MOL0     H42371   0.941   6.695   8.613 -1.1608 -0.0721 -0.3296
  321MOL0     H42372   0.696   6.686   8.647 -1.2422  0.9517  0.6608
  322MOL0     O42373   0.374   3.013   5.581  0.3287  0.5623 -0.8785
  322MOL0     C42374   0.310   2.977   5.486 -0.4154 -1.0427  0.0279
  322MOL0     O42375   0.182   3.007   5.459 -0.3091 -0.1167 -0.0174
  322MOL0     C42376   0.113   3.098   5.523 -0.4373 -0.7616 -0.0574
  322MOL0     C42377   0.163   3.205   5.604  0.1966 -0.0686  0.3732
  322MOL0     C42378   0.080   3.297   5.670  0.8348 -0.0686  0.0744
  322MOL0     C42379  -0.057   3.286   5.663  0.2104  0.6412  0.3018
  322MOL0     O42380  -0.130   3.377   5.735  0.3348  0.2313 -0.3441
  322MOL0     C42381  -0.254   3.416   5.670  0.4534  0.2406 -0.2004
  322MOL0     C42382  -0.304   3.558   5.709 -0.5959 -0.4320  0.7380
  322MOL0     C42383  -0.433   3.599   5.638 -0.6945 -0.4222 -0.2157
  322MOL0     C42384  -0.494   3.736   5.694  0.2169  0.0460 -0.0874
  322MOL0     C42385  -0.642   3.749   5.666  0.1075 -0.4412 -0.3381
  322MOL0     C42386  -0.680   3.776   5.518 -0.9506  0.3144  0.2551
  322MOL0     C42387  -0.819   3.845   5.504 -0.8752  0.6438  0.1494
  322MOL0     C42388  -0.860   3.843   5.361 -0.1528  0.0854  0.9814
  322MOL0     N42389  -0.994   3.919   5.355 -0.0710  0.3412  0.1305
  322MOL0     C42390  -1.109   3.894   5.289 -0.4957 -0.4286  0.8377
  322MOL0     C42391  -1.186   4.007   5.314 -0.8910  0.1075 -0.5860
  322MOL0     C42392  -1.324   4.044   5.257  0.2704  0.4528 -0.3610
  322MOL0     C42393  -1.440   4.004   5.355  0.4072  0.3993 -1.0637
  322MOL0     C42394  -1.567   4.092   5.346 -0.4482 -0.0726 -0.4167
  322MOL0     C42395  -1.635   4.112   5.214 -0.1801  0.1312 -0.0529
  322MOL0     O42396  -1.682   3.986   5.177  0.6229  0.0979  0.0899
  322MOL0     C42397  -1.819   3.951   5.196  0.1068  0.4308 -0.2073
  322MOL0     C42398  -1.902   4.011   5.291  0.1106 -0.3435  0.0300
  322MOL0     C42399  -2.030   3.954   5.298  0.9211 -0.0835  0.2292
  322MOL0     C42400  -2.081   3.858   5.203 -0.3560 -0.4329  0.2228
  322MOL0     C42401  -2.216   3.809   5.215  0.7741  0.2045 -1.1544
  322MOL0     O42402  -2.289   3.836   5.325 -0.6403  0.1278  0.5593
  322MOL0     C42403  -2.414   3.783   5.333  0.3421  0.0469  0.0157
  322MOL0     C42404  -2.440   3.681   5.419 -0.1201 -0.6139 -0.4272
  322MOL0     C42405  -2.562   3.604   5.412 -0.3755  0.2014 -0.0582
  322MOL0     C42406  -2.663   3.641   5.319 -0.2242 -0.3835 -0.3446
  322MOL0     O42407  -2.780   3.566   5.314 -0.0655 -0.0160 -0.2655
  322MOL0     C42408  -2.821   3.471   5.414 -0.6523 -0.4587 -0.3050
  322MOL0     C42409  -2.957   3.427   5.376 -0.3067  0.4211 -0.5264
  322MOL0     C42410  -3.069   3.519   5.425 -0.0145 -0.1728 -0.0732
  322MOL0     C42411  -3.198   3.479   5.349  0.8755 -0.3446 -0.4842
  322MOL0     C42412  -3.307   3.589   5.382  0.1462  0.4229 -0.3791
  322MOL0     C42413  -3.434   3.564   5.300 -0.9305  0.5340  1.2211
  322MOL0     C42414  -3.545   3.667   5.343 -0.6238  0.3043  0.1499
  322MOL0     C42415  -3.657   3.664   5.253 -0.7225  0.5544 -0.0628
  322MOL0    Cl42416  -3.740   3.504   5.253  0.0561 -0.5803 -0.3398
  322MOL0     C42417  -2.638   3.756   5.238  0.4992 -0.2358 -0.0964
  322MOL0     C42418  -2.510   3.819   5.235  0.3572 -0.6455  0.8437
  322MOL0     O42419  -2.253   3.742   5.122 -0.4285 -0.8475  0.2039
  322MOL0     C42420  -1.990   3.817   5.100  0.7502 -0.6390  0.3183
  322MOL0     C42421  -1.864   3.861   5.099  0.4981  0.0691 -0.0477
  322MOL0     N42422  -1.116   4.096   5.393 -0.8481 -0.3721  0.3684
  322MOL0     N42423  -0.996   4.044   5.414  0.0389  0.3016  0.1563
  322MOL0     C42424  -0.111   3.181   5.588 -0.6161 -0.4569 -1.0173
  322MOL0     C42425  -0.024   3.097   5.514  0.3428  0.4048  0.8050
  322MOL0     C42426   0.388   2.891   5.392  0.0659 -0.4942 -0.2555
  322MOL0     C42427   0.347   2.866   5.257  0.0795 -0.0111 -0.6636
  322MOL0     C42428   0.422   2.784   5.174 -0.3281 -0.0747 -0.1633
  322MOL0     C42429   0.546   2.737   5.226  0.6026  0.6060  0.0963
  322MOL0     O42430   0.627   2.663   5.142  0.8767 -0.5922 -0.2480
  322MOL0     C42431   0.676   2.536   5.187 -0.1229 -0.1337  0.8699
  322MOL0     C42432   0.783   2.509   5.079  0.4042 -0.4203  0.3899
  322MOL0     C42433   0.917   2.574   5.112  0.7638  1.0098 -0.5130
  322MOL0     C42434   1.015   2.566   4.994 -0.2542  0.5357  0.6001
  322MOL0     C42435   1.152   2.573   5.040 -0.5786  0.4539  0.1861
  322MOL0     C42436   1.273   2.575   5.077  0.7807 -0.1094 -1.1129
  322MOL0     C42437   0.595   2.766   5.348  1.4177 -0.2987  0.2595
  322MOL0     C42438   0.517   2.841   5.434  0.6462 -0.2664 -0.3986
  322MOL0     H42439   0.266   3.217   5.633  0.1358  0.9262  0.2271
  322MOL0     H42440   0.126   3.370   5.736 -0.5305  1.4406 -0.5720
  322MOL0     H42441  -0.340   3.356   5.699 -1.2058  2.9940  0.9878
  322MOL0     H42442  -0.231   3.409   5.563 -2.2182 -0.7103 -0.7835
  322MOL0     H42443  -0.227   3.633   5.687 -1.2424 -0.5598 -2.4817
  322MOL0     H42444  -0.319   3.549   5.817 -3.2043  1.1777  0.5932
  322MOL0     H42445  -0.497   3.518   5.673 -0.4335  0.5447  2.8577
  322MOL0     H42446  -0.423   3.603   5.529  0.3283  1.9378 -0.1036
  322MOL0     H42447  -0.481   3.735   5.803  0.7308  1.5506 -0.1154
  322MOL0     H42448  -0.442   3.825   5.659  1.2885 -0.4849  0.1311
  322MOL0     H42449  -0.679   3.831   5.729 -1.8245 -0.6408 -1.1433
  322MOL0     H42450  -0.696   3.658   5.691 -1.4172  0.5587  0.1486
  322MOL0     H42451  -0.665   3.684   5.462  0.1776  1.8932 -2.1986
  322MOL0     H42452  -0.608   3.850   5.481 -2.6720  1.5582 -0.7065
  322MOL0     H42453  -0.882   3.786   5.571 -3.1470  0.5397 -1.9749
  322MOL0     H42454  -0.813   3.950   5.536  0.7022  0.2048  1.4700
  322MOL0     H42455  -0.868   3.741   5.323  0.4857  0.1731  0.6127
  322MOL0     H42456  -0.786   3.909   5.316 -1.5859  1.9522  1.2309
  322MOL0     H42457  -1.135   3.814   5.219  0.7798  1.1823 -1.6253
  322MOL0     H42458  -1.332   3.991   5.161 -1.8806 -0.1356  0.0963
  322MOL0     H42459  -1.332   4.152   5.247  0.9017  0.4985 -0.4401
  322MOL0     H42460  -1.413   4.005   5.462 -3.0061 -0.3707 -0.0834
  322MOL0     H42461  -1.482   3.903   5.345 -3.4679  1.7921 -0.5337
  322MOL0     H42462  -1.643   4.062   5.419 -0.2657  0.2164 -0.1038
  322MOL0     H42463  -1.537   4.195   5.371 -1.9690  0.2026  0.4292
  322MOL0     H42464  -1.569   4.151   5.136 -1.8839  0.2495 -1.5223
  322MOL0     H42465  -1.714   4.187   5.218 -0.6795 -0.3867  0.0255
  322MOL0     H42466  -1.875   4.093   5.357  2.2205  1.5746 -2.9264
  322MOL0     H42467  -2.104   3.997   5.364 -0.2753 -0.9812 -0.4833
  322MOL0     H42468  -2.360   3.657   5.489 -0.0301 -1.1586 -0.7087
  322MOL0     H42469  -2.571   3.518   5.477  3.7480 -1.0814 -0.9049
  322MOL0     H42470  -2.819   3.508   5.517 -1.0100 -2.1254  0.3201
  322MOL0     H42471  -2.759   3.383   5.397 -4.0669 -2.7080 -2.5667
  322MOL0     H42472  -2.985   3.334   5.426  1.0832  0.4079  0.2709
  322MOL0     H42473  -2.963   3.409   5.268 -3.4063  0.1321 -0.4123
  322MOL0     H42474  -3.046   3.623   5.398  1.0092 -0.3253  0.1821
  322MOL0     H42475  -3.082   3.515   5.534 -2.8555  0.7977 -0.3070
  322MOL0     H42476  -3.191   3.467   5.241 -0.8399  0.3487 -0.7020
  322MOL0     H42477  -3.230   3.385   5.395 -0.2515  0.9825  1.6045
  322MOL0     H42478  -3.269   3.686   5.350  0.3668 -0.2787 -2.3642
  322MOL0     H42479  -3.333   3.587   5.489 -1.0798  0.0302 -0.6610
  322MOL0     H42480  -3.469   3.461   5.315  0.4280 -0.4137 -1.5516
  322MOL0     H42481  -3.403   3.571   5.196  0.4498  1.8854  1.6812
  322MOL0     H42482  -3.585   3.659   5.445  2.3099 -0.5735  1.3189
  322MOL0     H42483  -3.497   3.762   5.321 -0.8152 -0.1262 -2.4061
  322MOL0     H42484  -3.621   3.690   5.153  1.2796  1.4403  0.8366
  322MOL0     H42485  -3.737   3.734   5.282 -0.3671  0.3513  1.4700
  322MOL0     H42486  -2.710   3.772   5.158 -0.0805  0.0553  0.4811
  322MOL0     H42487  -2.481   3.895   5.164 -0.8907 -1.4530 -0.5733
  322MOL0     H42488  -2.018   3.749   5.020 -2.0609 -0.8661  1.3871
  322MOL0     H42489  -1.787   3.830   5.029  1.4463  2.0359  0.0612
  322MOL0     H42490  -0.219   3.174   5.587 -0.7347  0.7743 -3.3244
  322MOL0     H42491  -0.064   3.025   5.443  1.6008  1.7465 -1.3636
  322MOL0     H42492   0.254   2.914   5.231 -0.1999 -0.3629 -0.3358
  322MOL0     H42493   0.408   2.760   5.069  3.2287  1.6261 -1.1788
  322MOL0     H42494   0.598   2.460   5.190  1.7341 -2.2010 -0.4877
  322MOL0     H42495   0.717   2.535   5.288  0.8478 -1.7105  0.5065
  322MOL0     H42496   0.803   2.402   5.078  2.6313 -0.0440 -0.4151
  322MOL0     H42497   0.745   2.546   4.983  2.2578 -1.2093 -0.6978
  322MOL0     H42498   0.960   2.516   5.193  1.9694  0.7480 -1.3063
  322MOL0     H42499   0.897   2.675   5.148 -1.1810 -0.4300  2.9132
  322MOL0     H42500   1.002   2.464   4.956 -0.6153  0.6921  0.2988
  322MOL0     H42501   1.002   2.644   4.919 -0.8669  0.1509  0.2956
  322MOL0     H42502   1.372   2.573   5.119  0.6884  0.3306 -0.8724
  322MOL0     H42503   0.690   2.730   5.385  0.8912 -3.0502 -0.8633
  322MOL0     H42504   0.547   2.854   5.538 -3.9772 -0.2857  1.1735
  323MOL0     O42505   8.506   9.046   4.588  0.3430  0.3834 -0.0846
  323MOL0     C42506   8.524   9.034   4.470  0.8662  0.4490  0.0188
  323MOL0     O42507   8.437   9.078   4.371  0.0286  0.8116 -0.3777
  323MOL0     C42508   8.314   9.113   4.397  0.3231 -0.0990 -0.1153
  323MOL0     C42509   8.218   9.079   4.299  0.0282  0.6784 -0.6815
  323MOL0     C42510   8.087   9.118   4.304 -0.1687 -0.0354  0.2393
  323MOL0     C42511   8.043   9.203   4.407 -0.4095  0.7096  0.1590
  323MOL0     O42512   7.924   9.262   4.404 -0.0928  0.1847  0.2618
  323MOL0     C42513   7.865   9.291   4.528  0.3646 -0.7317 -0.6801
  323MOL0     C42514   7.723   9.344   4.508 -0.3959 -0.6520  1.0350
  323MOL0     C42515   7.648   9.366   4.642  0.3774  0.2078  0.2652
  323MOL0     C42516   7.503   9.388   4.612  0.5056 -0.5191 -0.1618
  323MOL0     C42517   7.407   9.385   4.734  0.4280  0.0909 -0.4244
  323MOL0     C42518   7.441   9.499   4.828  0.5212  0.6725 -0.2373
  323MOL0     C42519   7.351   9.500   4.956  0.5470 -0.2189 -0.3138
  323MOL0     C42520   7.372   9.629   5.048  0.1928 -0.0468  1.0885
  323MOL0     N42521   7.312   9.608   5.183  0.8785  0.2231 -0.7832
  323MOL0     C42522   7.182   9.582   5.230  0.1636  0.5310 -0.0690
  323MOL0     C42523   7.196   9.555   5.362 -0.0291  0.7853  0.1142
  323MOL0     C42524   7.086   9.528   5.466  0.7296  0.1052  0.5961
  323MOL0     C42525   7.015   9.659   5.507 -0.0036 -0.0466  0.3010
  323MOL0     C42526   6.954   9.643   5.645 -0.4236  0.8759  0.2998
  323MOL0     C42527   6.822   9.731   5.656 -0.4302  0.3387  0.0968
  323MOL0     O42528   6.786   9.745   5.790  0.0367  0.2532  0.0865
  323MOL0     C42529   6.664   9.792   5.827 -0.8037  0.2030  0.2807
  323MOL0     C42530   6.574   9.844   5.735 -0.9701  0.8984  0.2339
  323MOL0     C42531   6.446   9.879   5.778  0.1742 -0.4411  0.4004
  323MOL0     C42532   6.399   9.867   5.906  0.0064  0.9645 -0.4059
  323MOL0     C42533   6.263   9.913   5.943 -0.5812  0.3077  0.0178
  323MOL0     O42534   6.221   9.892   6.072  0.3654 -0.1772  0.6057
  323MOL0     C42535   6.108   9.945   6.122  0.1370 -0.3304  0.2316
  323MOL0     C42536   6.085   9.898   6.252  0.0263  0.9787 -0.4080
  323MOL0     C42537   5.986   9.958   6.324  0.1501  0.1990 -0.0230
  323MOL0     C42538   5.909  10.066   6.280 -0.7029  0.4242 -0.0231
  323MOL0     O42539   5.825  10.126   6.371  0.6302  0.6378  0.4797
  323MOL0     C42540   5.737  10.227   6.323  0.1393 -0.4416 -0.2937
  323MOL0     C42541   5.641  10.259   6.437  0.2805  0.6166  0.2800
  323MOL0     C42542   5.561  10.386   6.417 -0.7453 -0.9272  0.3094
  323MOL0     C42543   5.456  10.413   6.528  1.3306 -0.1386  0.2605
  323MOL0     C42544   5.361  10.520   6.463 -0.3803 -0.4822 -0.0960
  323MOL0     C42545   5.237  10.548   6.548  0.3020 -0.3275  0.2209
  323MOL0     C42546   5.166  10.675   6.498  0.1810  0.3425  0.3184
  323MOL0     C42547   5.028  10.706   6.556 -0.2497  0.1359 -0.6365
  323MOL0    Cl42548   5.035  10.726   6.729  0.0237 -0.4803  0.6010
  323MOL0     C42549   5.924  10.104   6.154 -0.7345 -0.7916 -0.7325
  323MOL0     C42550   6.014  10.042   6.069  0.3819  0.0445 -0.1142
  323MOL0     O42551   6.193   9.950   5.852  0.5896  0.1744  0.5499
  323MOL0     C42552   6.482   9.797   5.992 -0.5137  0.3610 -0.1896
  323MOL0     C42553   6.613   9.767   5.957  0.8684  0.3277 -0.3414
  323MOL0     N42554   7.327   9.569   5.398 -0.9827 -0.3158  0.4184
  323MOL0     N42555   7.390   9.595   5.290 -0.1063 -0.3730 -0.6379
  323MOL0     C42556   8.141   9.239   4.508  0.4646  0.4367 -1.1452
  323MOL0     C42557   8.272   9.196   4.494 -0.2575 -0.1845 -1.1389
  323MOL0     C42558   8.651   8.968   4.428 -0.4917 -0.1217 -0.1708
  323MOL0     C42559   8.682   8.956   4.279  0.1048  0.8849 -0.2971
  323MOL0     C42560   8.805   8.895   4.247 -0.0318  0.3073 -1.0687
  323MOL0     C42561   8.899   8.864   4.347  0.0839  0.1034  0.0356
  323MOL0     O42562   9.020   8.804   4.322 -0.0691 -0.4327  0.1468
  323MOL0     C42563   9.073   8.811   4.189  0.4860 -0.2207  0.4970
  323MOL0     C42564   9.230   8.784   4.198  0.4323 -0.2420 -1.0569
  323MOL0     C42565   9.299   8.888   4.278  0.6550 -0.1974  0.4776
  323MOL0     C42566   9.445   8.869   4.296  0.9007 -0.0224 -0.5304
  323MOL0     C42567   9.523   8.906   4.182 -0.3235 -0.1813 -0.2829
  323MOL0     C42568   9.605   8.931   4.091  0.5966  0.2514  0.5090
  323MOL0     C42569   8.868   8.869   4.480 -0.2182  0.0393  0.0950
  323MOL0     C42570   8.744   8.918   4.520  0.0185  0.6649 -0.2750
  323MOL0     H42571   8.251   9.015   4.218 -0.9828  3.6045 -3.5704
  323MOL0     H42572   8.020   9.093   4.222  1.3377 -1.8406 -0.5049
  323MOL0     H42573   7.919   9.374   4.574 -0.5974  0.3465 -1.4288
  323MOL0     H42574   7.859   9.202   4.592 -0.7570  0.0352  0.3385
  323MOL0     H42575   7.667   9.271   4.449  1.3996 -2.2162  1.1459
  323MOL0     H42576   7.729   9.445   4.465 -0.4815 -1.0026  0.1646
  323MOL0     H42577   7.681   9.449   4.705 -1.6689  0.7449  0.7179
  323MOL0     H42578   7.658   9.279   4.707  1.2035  0.1085  0.0118
  323MOL0     H42579   7.487   9.481   4.555  1.0318 -0.5398 -0.3488
  323MOL0     H42580   7.468   9.309   4.545  1.0046 -0.7360 -0.1650
  323MOL0     H42581   7.430   9.287   4.776  2.9408 -0.5242 -2.9188
  323MOL0     H42582   7.305   9.387   4.695  0.4184 -0.3774 -0.4284
  323MOL0     H42583   7.425   9.585   4.763  0.5484 -0.0943 -1.2940
  323MOL0     H42584   7.546   9.492   4.856  0.5718 -2.9082 -0.8595
  323MOL0     H42585   7.249   9.484   4.919  1.0300 -0.9353 -1.4150
  323MOL0     H42586   7.370   9.413   5.019  1.4756 -1.0354 -1.6559
  323MOL0     H42587   7.327   9.717   5.000  0.2445 -0.2380  0.6912
  323MOL0     H42588   7.478   9.651   5.062  0.9637 -1.2599 -2.1230
  323MOL0     H42589   7.090   9.587   5.172 -0.1765  1.5020  0.5328
  323MOL0     H42590   7.140   9.479   5.548  0.5310 -0.7721  0.2187
  323MOL0     H42591   7.017   9.457   5.419  0.0759  0.7418  0.5911
  323MOL0     H42592   6.940   9.690   5.434 -0.4706  1.0799  1.2262
  323MOL0     H42593   7.078   9.748   5.505 -1.4326  1.0218  1.2282
  323MOL0     H42594   6.922   9.540   5.659  2.7820 -0.0434  1.9166
  323MOL0     H42595   7.026   9.681   5.718 -2.2992  1.9858  1.6680
  323MOL0     H42596   6.738   9.677   5.611 -0.3424 -0.8584  1.2837
  323MOL0     H42597   6.834   9.824   5.601 -2.1656  1.6998  1.8966
  323MOL0     H42598   6.598   9.874   5.633 -0.5615 -0.6164 -0.1410
  323MOL0     H42599   6.373   9.924   5.712 -0.5070 -1.3766  0.5031
  323MOL0     H42600   6.147   9.818   6.290 -0.2211  1.7581  1.7849
  323MOL0     H42601   5.989   9.932   6.429  4.8081 -0.6324 -0.1299
  323MOL0     H42602   5.680  10.195   6.235  1.1949 -0.1709 -1.1041
  323MOL0     H42603   5.794  10.319   6.308  0.8471 -0.5812  1.3445
  323MOL0     H42604   5.701  10.283   6.525  0.6438  1.8564 -0.2946
  323MOL0     H42605   5.579  10.172   6.462  1.0157  0.1192  0.4363
  323MOL0     H42606   5.512  10.373   6.320 -0.4075 -0.3600  0.0604
  323MOL0     H42607   5.635  10.466   6.409 -0.7136 -1.1055 -1.4988
  323MOL0     H42608   5.408  10.315   6.534 -0.5188  0.6833 -0.2457
  323MOL0     H42609   5.484  10.432   6.631  0.3567  0.0077  0.5103
  323MOL0     H42610   5.321  10.516   6.361 -2.9487  1.0387  0.7483
  323MOL0     H42611   5.425  10.609   6.461 -0.3176 -0.4880  0.9876
  323MOL0     H42612   5.267  10.574   6.651 -2.1101 -0.9014  1.1350
  323MOL0     H42613   5.169  10.463   6.540  2.7148 -2.3377 -0.5085
  323MOL0     H42614   5.237  10.757   6.508  0.5378  0.0166  0.4499
  323MOL0     H42615   5.142  10.659   6.392  2.6730 -2.7757  0.0883
  323MOL0     H42616   4.963  10.619   6.544  1.7801 -1.6777  0.7645
  323MOL0     H42617   4.989  10.798   6.512 -4.7230 -1.3213 -0.2175
  323MOL0     H42618   5.869  10.186   6.109  0.4025  0.7015  0.4766
  323MOL0     H42619   6.013  10.069   5.964  1.0429 -0.0844 -0.1544
  323MOL0     H42620   6.449   9.779   6.094  1.2109  3.2479  0.9706
  323MOL0     H42621   6.666   9.707   6.030  1.3310  0.4503 -0.5708
  323MOL0     H42622   8.105   9.286   4.599 -0.2252 -1.7517 -0.2020
  323MOL0     H42623   8.337   9.226   4.576  0.5291 -0.7989 -1.5250
  323MOL0     H42624   8.620   8.997   4.200  0.1898 -2.5490 -2.3215
  323MOL0     H42625   8.828   8.880   4.142  3.5565 -0.9278 -0.2315
  323MOL0     H42626   9.039   8.902   4.137 -0.9111  0.3519  2.2756
  323MOL0     H42627   9.025   8.726   4.141  0.9923  0.2584 -0.9123
  323MOL0     H42628   9.248   8.683   4.236  1.9233  1.1199  2.2660
  323MOL0     H42629   9.261   8.788   4.093  1.8271 -2.6607 -0.8028
  323MOL0     H42630   9.254   8.888   4.378  1.6125  1.7582  0.9597
  323MOL0     H42631   9.283   8.987   4.235 -0.5375 -1.2813 -1.7738
  323MOL0     H42632   9.478   8.938   4.374  0.9100  0.8455 -1.2914
  323MOL0     H42633   9.467   8.769   4.334  1.0979 -0.6097 -2.1161
  323MOL0     H42634   9.664   8.941   4.002 -0.0115  0.3346  0.1074
  323MOL0     H42635   8.946   8.831   4.546  1.9111 -0.1863 -2.4009
  323MOL0     H42636   8.729   8.945   4.624 -1.8060  0.4957 -0.4539
  324MOL0     O42637   3.827   3.784   3.933 -0.3752 -0.0065 -0.3785
  324MOL0     C42638   3.862   3.664   3.932  0.1402  0.2954  0.1444
  324MOL0     O42639   3.783   3.563   3.917 -1.0193  0.4495 -0.1646
  324MOL0     C42640   3.663   3.578   3.858  0.0140  0.5928  0.1071
  324MOL0     C42641   3.559   3.546   3.941  0.0886  0.1075  0.0463
  324MOL0     C42642   3.429   3.546   3.901  0.1944 -0.7853  0.0746
  324MOL0     C42643   3.393   3.605   3.776  0.3603 -0.5465 -0.4146
  324MOL0     O42644   3.263   3.637   3.748 -0.3974 -0.7238  0.7183
  324MOL0     C42645   3.162   3.580   3.835 -0.2359 -0.2813  0.6535
  324MOL0     C42646   3.027   3.625   3.785 -0.4737  0.0639 -0.1091
  324MOL0     C42647   2.918   3.559   3.858 -0.7162  0.1306 -0.0167
  324MOL0     C42648   2.785   3.602   3.809  0.2580 -0.1391 -0.2253
  324MOL0     C42649   2.682   3.536   3.908 -0.1657 -0.0979 -0.9212
  324MOL0     C42650   2.535   3.583   3.877 -0.0431 -0.5402  0.0608
  324MOL0     C42651   2.513   3.737   3.887  0.4957  0.3268 -0.5669
  324MOL0     C42652   2.373   3.793   3.843 -0.4347 -0.2117 -0.4278
  324MOL0     N42653   2.276   3.780   3.948  0.3132 -0.8868 -0.5897
  324MOL0     C42654   2.191   3.880   3.974 -0.3201 -0.3412 -0.4206
  324MOL0     C42655   2.110   3.831   4.073  0.1422 -0.0776 -0.4314
  324MOL0     C42656   1.983   3.891   4.124 -0.6838 -0.0728  0.2046
  324MOL0     C42657   1.854   3.822   4.092  0.6122  0.6969 -0.2112
  324MOL0     C42658   1.809   3.845   3.954  0.8629 -0.2863  0.3103
  324MOL0     C42659   1.680   3.761   3.928  0.1135 -1.0685 -0.0690
  324MOL0     O42660   1.575   3.809   4.017  0.6066  0.1481 -0.1229
  324MOL0     C42661   1.447   3.769   3.988  0.4580 -0.4172 -0.4833
  324MOL0     C42662   1.356   3.835   4.066 -0.4356  0.7555  0.4221
  324MOL0     C42663   1.223   3.807   4.045 -0.0526 -0.1707 -0.2847
  324MOL0     C42664   1.174   3.711   3.947 -0.1869  0.2293 -0.9577
  324MOL0     C42665   1.035   3.676   3.927  0.2234 -1.0773  0.3820
  324MOL0     O42666   0.951   3.750   4.005 -0.2241  0.0449 -0.1063
  324MOL0     C42667   0.810   3.763   3.980 -0.5378  0.0135 -0.6481
  324MOL0     C42668   0.743   3.863   4.059 -1.4487  0.2555 -0.5658
  324MOL0     C42669   0.608   3.889   4.054  0.8370  0.3804  0.3226
  324MOL0     C42670   0.528   3.811   3.966  0.5248 -0.3318  0.6514
  324MOL0     O42671   0.399   3.857   3.959 -0.2204  0.2704  0.8305
  324MOL0     C42672   0.302   3.754   3.931 -0.0421 -0.7605  0.0870
  324MOL0     C42673   0.155   3.807   3.943  0.4682 -0.4814  0.2234
  324MOL0     C42674   0.142   3.938   4.019 -0.4228 -0.1877 -0.7688
  324MOL0     C42675  -0.008   3.978   4.040 -0.0682  0.3172 -0.6857
  324MOL0     C42676  -0.012   4.118   4.097 -1.1430  0.6566  0.1527
  324MOL0     C42677  -0.160   4.174   4.126  0.4044 -0.1631 -0.5712
  324MOL0     C42678  -0.150   4.298   4.215  0.2756 -0.7116 -0.0444
  324MOL0     C42679  -0.280   4.372   4.251  0.0385  0.1893 -0.0007
  324MOL0    Cl42680  -0.403   4.391   4.118 -0.3771  0.2572 -0.1561
  324MOL0     C42681   0.590   3.712   3.895  0.0176 -0.5119  0.6697
  324MOL0     C42682   0.726   3.679   3.910  0.0863  0.8993  0.5614
  324MOL0     O42683   1.008   3.602   3.832 -0.8085 -0.6788  1.1350
  324MOL0     C42684   1.273   3.647   3.869  0.8407 -0.5103  0.6724
  324MOL0     C42685   1.403   3.671   3.891  0.0924  0.4283 -0.1051
  324MOL0     N42686   2.149   3.705   4.107 -0.0748 -0.3408 -0.2101
  324MOL0     N42687   2.256   3.685   4.041  0.0886  0.3006 -0.5749
  324MOL0     C42688   3.494   3.651   3.697 -0.0216 -0.4131 -0.4350
  324MOL0     C42689   3.632   3.634   3.735  0.4677  0.2168  0.6792
  324MOL0     C42690   4.007   3.634   3.939  0.3470  0.0773 -0.7315
  324MOL0     C42691   4.054   3.504   3.958  0.1988  0.5815  0.4884
  324MOL0     C42692   4.189   3.469   3.976  1.4416  0.4243  0.3610
  324MOL0     C42693   4.279   3.573   3.983 -0.4104  0.2235 -0.0392
  324MOL0     O42694   4.409   3.537   3.995 -0.0186 -0.0200  0.4085
  324MOL0     C42695   4.520   3.626   3.976 -0.5923 -0.2843  0.4975
  324MOL0     C42696   4.649   3.541   3.960  0.1725  0.7306 -0.5426
  324MOL0     C42697   4.694   3.479   4.089 -0.4755 -0.2719  0.3929
  324MOL0     C42698   4.813   3.385   4.071 -0.4939  0.1061  0.3297
  324MOL0     C42699   4.943   3.454   4.051  0.4484 -0.3702 -0.3283
  324MOL0     C42700   5.049   3.512   4.031  0.3248 -0.3159  0.0729
  324MOL0     C42701   4.240   3.708   3.962  0.2834 -0.0696  0.7080
  324MOL0     C42702   4.106   3.743   3.931 -0.2453 -0.7201  0.4324
  324MOL0     H42703   3.592   3.516   4.040  0.4427 -1.0356 -0.4028
  324MOL0     H42704   3.358   3.515   3.978 -0.5075  1.8267  0.5965
  324MOL0     H42705   3.165   3.621   3.936  1.9750 -1.8933  1.3015
  324MOL0     H42706   3.177   3.472   3.837  1.8259 -0.0719 -0.8532
  324MOL0     H42707   3.011   3.598   3.680  1.3897 -0.1198 -0.3738
  324MOL0     H42708   3.012   3.733   3.795 -1.5386  0.0328 -1.1040
  324MOL0     H42709   2.936   3.590   3.961  1.7117  4.4571 -1.4924
  324MOL0     H42710   2.934   3.451   3.856  0.8956  0.3440 -1.2183
  324MOL0     H42711   2.782   3.711   3.806 -0.4768 -0.1191  0.7457
  324MOL0     H42712   2.752   3.555   3.716 -2.2673 -3.3034  2.0547
  324MOL0     H42713   2.694   3.554   4.015 -1.5939 -3.0644 -0.1360
  324MOL0     H42714   2.680   3.427   3.904  0.0427 -0.1507  0.1042
  324MOL0     H42715   2.466   3.536   3.947 -1.2303 -1.8185 -1.8960
  324MOL0     H42716   2.507   3.556   3.775  1.7425  1.2351 -0.9815
  324MOL0     H42717   2.539   3.767   3.989  0.8014  0.1481 -0.5887
  324MOL0     H42718   2.596   3.777   3.827  1.6214 -0.2052  0.6023
  324MOL0     H42719   2.327   3.742   3.758 -0.6138 -1.9762  0.6770
  324MOL0     H42720   2.388   3.899   3.820  3.1899 -0.1523  1.5224
  324MOL0     H42721   2.190   3.976   3.924  2.5473 -1.8543 -3.8579
  324MOL0     H42722   1.989   3.993   4.084  1.2688  0.1199  0.8651
  324MOL0     H42723   1.983   3.915   4.231  0.1354  1.7191 -0.1504
  324MOL0     H42724   1.781   3.861   4.164  0.8606  1.1586 -0.2033
  324MOL0     H42725   1.873   3.715   4.106  3.2249  1.4860  4.0804
  324MOL0     H42726   1.784   3.951   3.941 -4.1271 -1.0030  1.8039
  324MOL0     H42727   1.881   3.821   3.875 -0.0844  2.8280 -1.6943
  324MOL0     H42728   1.709   3.660   3.960 -0.2997 -0.2104  3.5152
  324MOL0     H42729   1.650   3.778   3.825 -0.4559  2.8586  0.6011
  324MOL0     H42730   1.384   3.904   4.145 -1.6109  0.6224  0.9690
  324MOL0     H42731   1.145   3.851   4.106  0.5053 -2.2889  2.1368
  324MOL0     H42732   0.807   3.917   4.128  1.5720 -0.8735 -2.3124
  324MOL0     H42733   0.561   3.966   4.115  0.8254  0.4124  0.2731
  324MOL0     H42734   0.313   3.675   4.005 -1.6869 -0.8874  0.2437
  324MOL0     H42735   0.314   3.719   3.829  1.3745  1.8759 -0.7393
  324MOL0     H42736   0.094   3.729   3.990 -1.3413 -1.7404 -3.7971
  324MOL0     H42737   0.108   3.822   3.845  0.0287 -2.1823  0.1412
  324MOL0     H42738   0.198   4.013   3.962 -0.1083 -2.0891 -3.1078
  324MOL0     H42739   0.184   3.925   4.120 -0.8175  0.5942 -0.4965
  324MOL0     H42740  -0.060   3.984   3.944 -2.2771 -2.6910  0.1893
  324MOL0     H42741  -0.066   3.904   4.095 -2.2300  1.5405 -1.1629
  324MOL0     H42742   0.038   4.193   4.035  0.8406 -0.3063  0.5221
  324MOL0     H42743   0.040   4.110   4.193  1.6686  1.9657 -1.1342
  324MOL0     H42744  -0.223   4.096   4.168 -0.8611  1.4637  0.6721
  324MOL0     H42745  -0.196   4.203   4.027 -1.9345  0.4001  0.3932
  324MOL0     H42746  -0.108   4.273   4.313 -2.2965 -1.1253  1.0501
  324MOL0     H42747  -0.079   4.364   4.165  1.4626 -1.1528  0.9993
  324MOL0     H42748  -0.254   4.474   4.283  1.3865 -0.7827  2.1639
  324MOL0     H42749  -0.318   4.314   4.335  1.7219  0.7376  1.1815
  324MOL0     H42750   0.537   3.646   3.828  1.9885  0.2198 -1.7513
  324MOL0     H42751   0.761   3.593   3.853  1.2546  1.2360  0.7595
  324MOL0     H42752   1.242   3.574   3.795  0.3728  0.0749  0.2749
  324MOL0     H42753   1.465   3.632   3.812 -1.2519  2.5107 -2.3246
  324MOL0     H42754   3.471   3.706   3.606  1.2512  2.6637  0.9642
  324MOL0     H42755   3.706   3.662   3.660  1.7977  1.4915  2.3925
  324MOL0     H42756   3.995   3.413   3.969  0.5149  0.2932 -0.1604
  324MOL0     H42757   4.216   3.365   3.964 -0.8282  0.0292 -2.4163
  324MOL0     H42758   4.536   3.690   4.063 -1.3584  2.3943 -1.1898
  324MOL0     H42759   4.498   3.690   3.889 -2.8246  0.6598  1.6769
  324MOL0     H42760   4.635   3.457   3.890  0.5435 -1.4829  1.8925
  324MOL0     H42761   4.727   3.608   3.922 -0.3168  2.9843  2.1556
  324MOL0     H42762   4.607   3.424   4.126 -1.9560  0.4186 -1.8852
  324MOL0     H42763   4.715   3.548   4.171  0.6975  0.2366 -0.3140
  324MOL0     H42764   4.815   3.336   4.169 -0.3271 -0.0721  0.2373
  324MOL0     H42765   4.798   3.310   3.992  0.2341  0.0634  0.2177
  324MOL0     H42766   5.146   3.555   4.020  0.4365 -0.0432  1.7814
  324MOL0     H42767   4.311   3.786   3.937 -0.9607  0.8638 -0.0644
  324MOL0     H42768   4.093   3.851   3.930  3.5476 -0.0333 -3.5578
  325MOL0     O42769   1.092   9.485   4.471 -0.3166  0.3988 -1.1559
  325MOL0     C42770   1.164   9.389   4.497  0.5259  0.9514 -0.3742
  325MOL0     O42771   1.121   9.260   4.502  0.3060 -0.1164 -0.0297
  325MOL0     C42772   0.992   9.211   4.517  0.7719 -0.1721 -1.0593
  325MOL0     C42773   0.971   9.077   4.480 -0.0206 -0.5534  0.1755
  325MOL0     C42774   0.838   9.021   4.489  0.0406  0.0302  0.0782
  325MOL0     C42775   0.730   9.096   4.529  0.5767 -0.3105 -0.0863
  325MOL0     O42776   0.601   9.047   4.549 -0.3979  0.6487  0.3513
  325MOL0     C42777   0.557   8.943   4.465  0.4872 -0.1482 -1.0266
  325MOL0     C42778   0.410   8.915   4.491  0.3600 -0.2453  0.1547
  325MOL0     C42779   0.382   8.849   4.625 -0.2413  0.4593  0.0260
  325MOL0     C42780   0.240   8.797   4.624 -0.0624  0.3277 -0.3691
  325MOL0     C42781   0.189   8.754   4.769  0.0992  0.7325  0.5265
  325MOL0     C42782   0.170   8.869   4.872  0.1375 -0.3105 -1.2131
  325MOL0     C42783   0.068   8.828   4.984  0.7942  0.1666  0.1841
  325MOL0     C42784   0.007   8.956   5.050  0.4328 -0.1338 -0.5960
  325MOL0     N42785  -0.136   8.955   5.054  0.6011  0.4996 -1.0990
  325MOL0     C42786  -0.214   8.851   5.098 -0.5382 -0.8179 -0.2587
  325MOL0     C42787  -0.344   8.891   5.075  0.2669 -0.4660 -0.1462
  325MOL0     C42788  -0.469   8.831   5.129 -0.3109 -0.1273 -0.4355
  325MOL0     C42789  -0.576   8.837   5.035  0.8516  0.4756  0.3227
  325MOL0     C42790  -0.712   8.809   5.094 -0.3292  0.4859 -0.1921
  325MOL0     C42791  -0.715   8.656   5.137 -1.5900 -0.1499  0.9896
  325MOL0     O42792  -0.824   8.608   5.207 -0.7056 -0.1230  0.4010
  325MOL0     C42793  -0.938   8.581   5.129  0.0204 -0.5951 -0.7654
  325MOL0     C42794  -1.051   8.565   5.206  0.0603  0.1053  0.3120
  325MOL0     C42795  -1.184   8.561   5.155 -0.4297 -0.4480 -0.0018
  325MOL0     C42796  -1.196   8.561   5.015 -0.8988 -0.1281 -0.1504
  325MOL0     C42797  -1.321   8.544   4.944 -0.8231 -0.4267 -0.2413
  325MOL0     O42798  -1.434   8.535   5.017 -0.1607 -0.4174 -0.4691
  325MOL0     C42799  -1.551   8.493   4.964  0.7564  0.4023  0.4851
  325MOL0     C42800  -1.665   8.537   5.030  0.2971  0.0485 -0.3565
  325MOL0     C42801  -1.802   8.507   4.996  0.1066  0.0309  0.6112
  325MOL0     C42802  -1.820   8.432   4.885  0.8728  0.0346  0.7798
  325MOL0     O42803  -1.945   8.389   4.848  0.3836 -0.4113  0.4654
  325MOL0     C42804  -2.031   8.485   4.780 -0.3575 -0.1026 -1.0099
  325MOL0     C42805  -2.177   8.439   4.772  0.4623 -0.1029  0.2634
  325MOL0     C42806  -2.187   8.303   4.697  0.0098 -0.3565  0.4468
  325MOL0     C42807  -2.326   8.249   4.698 -0.1381  0.7590  0.2661
  325MOL0     C42808  -2.325   8.097   4.673  0.6436 -0.4585  0.9660
  325MOL0     C42809  -2.452   8.040   4.628 -0.4689  0.5289  0.1202
  325MOL0     C42810  -2.558   8.059   4.734  0.7453 -0.0077  0.2514
  325MOL0     C42811  -2.687   7.994   4.674 -0.0958 -0.3668 -0.0521
  325MOL0    Cl42812  -2.646   7.822   4.654  0.0437 -0.6179 -0.0003
  325MOL0     C42813  -1.707   8.380   4.821  0.7469  0.3059  0.6404
  325MOL0     C42814  -1.573   8.407   4.859  0.3637  0.3364  0.1845
  325MOL0     O42815  -1.314   8.522   4.823 -0.2996 -0.1197 -0.4666
  325MOL0     C42816  -1.081   8.574   4.931  0.1483  0.4770  0.1218
  325MOL0     C42817  -0.954   8.593   4.992 -0.1121 -0.3753  0.1139
  325MOL0     N42818  -0.345   9.019   5.026 -0.7316  0.1906  0.2885
  325MOL0     N42819  -0.223   9.051   5.003 -0.9143  0.1273  0.0022
  325MOL0     C42820   0.754   9.225   4.555  0.3966  0.4653  0.5554
  325MOL0     C42821   0.881   9.288   4.550 -0.3085  0.3340 -0.4320
  325MOL0     C42822   1.307   9.405   4.520  0.2045  0.0116  0.0876
  325MOL0     C42823   1.396   9.294   4.535 -0.2061  0.4024 -0.5265
  325MOL0     C42824   1.537   9.312   4.544  0.2326 -0.4612 -0.5672
  325MOL0     C42825   1.585   9.447   4.553  0.0688  0.1064 -0.4367
  325MOL0     O42826   1.718   9.485   4.541 -0.3156  1.0890 -0.3516
  325MOL0     C42827   1.820   9.388   4.526  0.1845 -0.0822  0.5951
  325MOL0     C42828   1.902   9.361   4.655 -0.1559 -0.3625 -0.2661
  325MOL0     C42829   2.029   9.280   4.619 -0.4753  1.1206 -0.4301
  325MOL0     C42830   2.090   9.239   4.756 -0.2490  0.1080  0.2380
  325MOL0     C42831   2.226   9.191   4.744 -0.7212 -0.4805  0.8580
  325MOL0     C42832   2.345   9.174   4.716 -0.8522  0.1694  0.8747
  325MOL0     C42833   1.494   9.555   4.562 -0.9849 -0.6858  0.3599
  325MOL0     C42834   1.360   9.536   4.544  0.2496  0.5771 -1.1008
  325MOL0     H42835   1.060   9.017   4.460  0.2228 -0.4418  0.8987
  325MOL0     H42836   0.829   8.915   4.472  1.0161 -0.4870  2.4210
  325MOL0     H42837   0.617   8.855   4.488  0.0178 -0.7594 -2.0576
  325MOL0     H42838   0.569   8.964   4.358  0.1498 -3.2086 -1.7631
  325MOL0     H42839   0.365   8.845   4.420 -1.5442 -1.5553  2.4964
  325MOL0     H42840   0.363   9.013   4.499  3.3524  1.3567 -0.3978
  325MOL0     H42841   0.394   8.920   4.707  1.9970 -0.3844  0.5005
  325MOL0     H42842   0.458   8.771   4.638 -1.6610 -0.9638  0.0522
  325MOL0     H42843   0.172   8.876   4.591 -0.3677  1.7829  3.2870
  325MOL0     H42844   0.237   8.711   4.556  2.2854 -0.5056  0.4641
  325MOL0     H42845   0.250   8.671   4.807 -1.4560 -1.1979 -0.9604
  325MOL0     H42846   0.088   8.715   4.753 -0.9476  2.4913  2.3904
  325MOL0     H42847   0.141   8.954   4.810 -1.0148 -0.4808 -0.9318
  325MOL0     H42848   0.266   8.891   4.919 -1.1274  1.8010  0.5257
  325MOL0     H42849  -0.008   8.761   4.943  1.6394 -1.1605  0.7326
  325MOL0     H42850   0.112   8.762   5.060  0.7138  1.8184  1.7364
  325MOL0     H42851   0.050   9.042   4.999 -0.0225 -1.2063 -2.9223
  325MOL0     H42852   0.037   8.960   5.155 -0.1122 -1.3017 -0.3807
  325MOL0     H42853  -0.181   8.758   5.143 -1.3504 -0.7873  0.4216
  325MOL0     H42854  -0.501   8.879   5.222 -0.0985 -1.6659  0.4734
  325MOL0     H42855  -0.445   8.725   5.144 -0.1711  0.2706  2.9595
  325MOL0     H42856  -0.552   8.773   4.951  2.3216  1.0079  0.3060
  325MOL0     H42857  -0.587   8.941   5.001 -0.3510  0.6844  1.2476
  325MOL0     H42858  -0.718   8.877   5.179 -0.1824  0.5666 -0.2450
  325MOL0     H42859  -0.794   8.839   5.028 -0.8340 -1.6996 -0.6299
  325MOL0     H42860  -0.624   8.640   5.196 -2.5823  1.0860  2.9772
  325MOL0     H42861  -0.710   8.591   5.050 -1.5989  1.7888 -0.5386
  325MOL0     H42862  -1.027   8.557   5.312 -0.5307  0.1348  0.4501
  325MOL0     H42863  -1.280   8.547   5.203 -0.6559 -0.7375 -0.5223
  325MOL0     H42864  -1.644   8.591   5.122  1.5347 -0.4782 -0.3118
  325MOL0     H42865  -1.880   8.532   5.068  0.3765  1.7408  0.3584
  325MOL0     H42866  -2.008   8.513   4.677  1.5961 -0.4597 -0.7062
  325MOL0     H42867  -2.027   8.569   4.851 -1.5410 -0.6371 -0.2802
  325MOL0     H42868  -2.234   8.512   4.714  0.9469 -1.9034 -2.6545
  325MOL0     H42869  -2.213   8.431   4.875 -0.0506  2.3964  0.3380
  325MOL0     H42870  -2.122   8.230   4.747  1.2507  0.6356  0.3434
  325MOL0     H42871  -2.154   8.320   4.594 -1.3865 -0.4274 -0.0362
  325MOL0     H42872  -2.371   8.272   4.795  1.1151  0.1316  1.0313
  325MOL0     H42873  -2.381   8.306   4.623 -0.9864  1.9544  1.7512
  325MOL0     H42874  -2.283   8.053   4.764  3.5053  2.8766  1.5028
  325MOL0     H42875  -2.238   8.075   4.609 -0.0567 -1.8802  0.4640
  325MOL0     H42876  -2.421   7.936   4.612  0.3566  0.5630  1.2966
  325MOL0     H42877  -2.480   8.073   4.528  0.8516 -1.8711 -1.1552
  325MOL0     H42878  -2.527   8.023   4.832  0.7311  2.0244  1.0675
  325MOL0     H42879  -2.582   8.166   4.741  2.0620  0.5651 -2.4894
  325MOL0     H42880  -2.712   8.049   4.583  1.2451  1.0100  0.3700
  325MOL0     H42881  -2.771   8.005   4.743 -1.5923 -0.5101 -1.7664
  325MOL0     H42882  -1.728   8.313   4.739  1.0935 -0.4879  1.1935
  325MOL0     H42883  -1.487   8.355   4.818  1.4368  0.5327  2.0474
  325MOL0     H42884  -1.083   8.576   4.822  0.3916 -0.2267  0.0996
  325MOL0     H42885  -0.866   8.609   4.931  0.0756  0.8113  0.6800
  325MOL0     H42886   0.678   9.294   4.589  1.5424  1.7585  0.6077
  325MOL0     H42887   0.895   9.391   4.580  0.5552 -0.2203  1.2076
  325MOL0     H42888   1.370   9.189   4.522 -1.0196  0.1946  2.2090
  325MOL0     H42889   1.607   9.231   4.525 -0.4348 -1.1780 -0.0057
  325MOL0     H42890   1.895   9.427   4.457 -0.8495 -0.0417 -0.5379
  325MOL0     H42891   1.784   9.295   4.481 -0.0999  1.3901 -2.4295
  325MOL0     H42892   1.928   9.456   4.704 -0.4861 -1.3322  1.8806
  325MOL0     H42893   1.836   9.307   4.723 -1.6532  1.6676 -0.0186
  325MOL0     H42894   2.087   9.342   4.551  0.6340  0.5999  0.0164
  325MOL0     H42895   1.992   9.189   4.571 -1.0355 -0.4749  2.7177
  325MOL0     H42896   2.095   9.330   4.817 -0.0236  0.9313 -0.9804
  325MOL0     H42897   2.034   9.170   4.820 -0.4976 -1.5225 -1.6561
  325MOL0     H42898   2.451   9.160   4.713 -0.7836 -0.8295  3.9481
  325MOL0     H42899   1.533   9.654   4.585 -0.0587 -0.9092 -0.2001
  325MOL0     H42900   1.288   9.615   4.564 -3.5736 -2.3265 -2.3417
  326MOL0     O42901   5.582   9.880  11.124  0.1414  0.1845  0.7065
  326MOL0     C42902   5.579   9.922  11.010  0.2472 -0.5607  0.9651
  326MOL0     O42903   5.474   9.942  10.933  0.4132  0.1102  0.3025
  326MOL0     C42904   5.345   9.895  10.958 -1.3555 -0.1864  0.1366
  326MOL0     C42905   5.295   9.809  11.060 -0.2323  0.6201 -0.1780
  326MOL0     C42906   5.158   9.806  11.082  1.1459 -0.6571 -0.4047
  326MOL0     C42907   5.061   9.873  11.002 -0.0848 -0.2247  0.2996
  326MOL0     O42908   4.928   9.859  11.031  0.3648 -0.2741  0.2875
  326MOL0     C42909   4.833   9.907  10.941  1.0487  0.0586  0.0416
  326MOL0     C42910   4.694   9.842  10.966  0.0399  0.2099  0.3404
  326MOL0     C42911   4.598   9.869  10.851  0.1038 -0.1226  0.5763
  326MOL0     C42912   4.461   9.788  10.863  0.8284  0.2578 -0.2144
  326MOL0     C42913   4.383   9.783  10.997 -0.2175 -0.3230 -0.4198
  326MOL0     C42914   4.317   9.926  11.007 -1.0138 -0.3822  0.5230
  326MOL0     C42915   4.297   9.955  11.161  0.3847  0.1102  0.0611
  326MOL0     C42916   4.176   9.876  11.216 -1.0466 -0.4155 -0.2666
  326MOL0     N42917   4.117   9.935  11.340 -0.2354  0.3807 -0.3952
  326MOL0     C42918   4.101   9.865  11.469  0.7147 -0.3604 -0.2155
  326MOL0     C42919   4.031   9.950  11.545 -0.1513  0.0525 -0.3681
  326MOL0     C42920   4.008   9.919  11.691  0.0340  0.0420 -0.1312
  326MOL0     C42921   3.856   9.944  11.731  0.0601 -0.4242  0.0433
  326MOL0     C42922   3.845  10.063  11.830  0.1732  0.0099 -0.0769
  326MOL0     C42923   3.698  10.068  11.852  0.6945 -0.3982 -0.0189
  326MOL0     O42924   3.622  10.121  11.745 -0.5684 -0.1363 -0.0303
  326MOL0     C42925   3.486  10.144  11.757 -0.1877 -0.0364 -0.5305
  326MOL0     C42926   3.406  10.090  11.858  0.7411 -0.5773 -0.0300
  326MOL0     C42927   3.278  10.142  11.878  0.2954 -0.8782  0.4898
  326MOL0     C42928   3.232  10.257  11.805  1.0494 -0.0763  0.8454
  326MOL0     C42929   3.102  10.313  11.831  0.0466 -0.1293  0.7994
  326MOL0     O42930   3.080  10.435  11.766 -0.3934 -0.1409 -0.0809
  326MOL0     C42931   2.951  10.483  11.759 -0.7380 -0.0405 -0.1672
  326MOL0     C42932   2.869  10.505  11.872  1.1026  0.2335  0.6163
  326MOL0     C42933   2.743  10.559  11.847 -0.0421 -0.4449  0.1818
  326MOL0     C42934   2.690  10.589  11.713 -0.0437 -0.3986 -0.2486
  326MOL0     O42935   2.570  10.648  11.698  0.2645 -0.1832  0.3428
  326MOL0     C42936   2.533  10.712  11.571 -0.3314 -0.2062 -0.4746
  326MOL0     C42937   2.386  10.742  11.579 -0.0799 -0.5579 -0.8851
  326MOL0     C42938   2.324  10.737  11.432 -0.1965 -0.2504 -0.5905
  326MOL0     C42939   2.172  10.730  11.446  0.4065 -0.4583  0.1066
  326MOL0     C42940   2.101  10.863  11.488 -0.3526 -0.1986  0.1479
  326MOL0     C42941   1.949  10.838  11.508 -0.2606 -0.9836 -0.6580
  326MOL0     C42942   1.879  10.973  11.491 -0.0376 -0.3915  0.2104
  326MOL0     C42943   1.727  10.952  11.475 -0.3147  0.1584 -0.2391
  326MOL0    Cl42944   1.630  11.102  11.487 -0.4417  0.3958 -0.1748
  326MOL0     C42945   2.774  10.553  11.607  0.6006  1.0180 -0.4106
  326MOL0     C42946   2.898  10.499  11.627 -0.0324  0.9674  0.2225
  326MOL0     O42947   3.021  10.249  11.894 -0.1537 -0.1498 -0.2861
  326MOL0     C42948   3.313  10.303  11.693  0.1232  0.0108 -0.5346
  326MOL0     C42949   3.439  10.243  11.669  0.9126 -0.3823 -0.1543
  326MOL0     N42950   4.007  10.069  11.472 -0.1923  0.4191  0.7142
  326MOL0     N42951   4.051  10.049  11.345 -0.1051 -0.4023 -0.4565
  326MOL0     C42952   5.112   9.940  10.891 -0.4688  0.7137 -0.3933
  326MOL0     C42953   5.253   9.957  10.870  0.4048  0.4236 -0.4409
  326MOL0     C42954   5.704   9.966  10.937  0.6284  0.4057  0.4228
  326MOL0     C42955   5.832   9.968  10.996 -0.4592  0.2998  0.3792
  326MOL0     C42956   5.952   9.996  10.923 -0.4529  0.5688  0.2576
  326MOL0     C42957   5.947  10.018  10.784  0.2224 -0.1145 -0.4381
  326MOL0     O42958   6.052  10.051  10.692  0.1155 -0.1154 -0.5242
  326MOL0     C42959   6.191   9.995  10.713 -0.6496  0.0195  0.9184
  326MOL0     C42960   6.271  10.109  10.783  0.3000  0.6769 -0.2635
  326MOL0     C42961   6.228  10.249  10.721  0.2639  1.0100  0.4229
  326MOL0     C42962   6.320  10.351  10.777 -0.0230 -0.6243  0.0406
  326MOL0     C42963   6.309  10.473  10.693 -0.4961 -0.2091 -0.2162
  326MOL0     C42964   6.280  10.571  10.629  0.4038 -0.1643 -0.1850
  326MOL0     C42965   5.818  10.022  10.727 -0.7282  1.0554  0.2223
  326MOL0     C42966   5.699   9.992  10.803  0.6765  0.4346 -0.0587
  326MOL0     H42967   5.365   9.761  11.128 -2.9225  0.5673  2.8019
  326MOL0     H42968   5.117   9.747  11.164 -0.8567 -0.4923 -1.2351
  326MOL0     H42969   4.849   9.893  10.834 -2.9885  0.9510 -0.8252
  326MOL0     H42970   4.818  10.015  10.948 -1.0043 -0.0400 -1.7935
  326MOL0     H42971   4.653   9.899  11.050 -1.3373  1.5967 -1.1801
  326MOL0     H42972   4.706   9.734  10.978 -1.4088  0.0281  0.2867
  326MOL0     H42973   4.644   9.834  10.757  0.9706  2.4340 -0.0332
  326MOL0     H42974   4.586   9.976  10.834  3.8212 -0.0559 -3.4987
  326MOL0     H42975   4.401   9.816  10.776  2.5204  0.1589 -1.4583
  326MOL0     H42976   4.489   9.683  10.850 -3.0783 -1.0545  0.6292
  326MOL0     H42977   4.443   9.776  11.087  0.5550 -0.9469 -0.9712
  326MOL0     H42978   4.303   9.708  10.993 -1.1599  0.5390 -5.4728
  326MOL0     H42979   4.221   9.921  10.953 -0.5840  0.8148 -0.3899
  326MOL0     H42980   4.372  10.006  10.957 -0.6051 -1.3318 -0.5940
  326MOL0     H42981   4.386   9.941  11.223  1.4708  2.7579 -0.7449
  326MOL0     H42982   4.277  10.062  11.176  1.2532  0.2588  0.2449
  326MOL0     H42983   4.207   9.771  11.225 -0.7385 -0.2002  1.6388
  326MOL0     H42984   4.098   9.879  11.139  0.5164  2.2693 -1.8736
  326MOL0     H42985   4.127   9.768  11.510 -1.7973 -1.2390 -0.5114
  326MOL0     H42986   4.077   9.985  11.744 -0.7952  0.9538 -0.1745
  326MOL0     H42987   4.022   9.812  11.708  0.3738 -0.2010 -1.7712
  326MOL0     H42988   3.828   9.847  11.772  2.2341 -1.4912 -0.8351
  326MOL0     H42989   3.797   9.959  11.640 -2.6900 -1.4000  1.5348
  326MOL0     H42990   3.911  10.055  11.917  0.0188 -1.1400 -0.0471
  326MOL0     H42991   3.880  10.152  11.777 -1.5568  0.4114 -0.5798
  326MOL0     H42992   3.673  10.144  11.926  1.7703 -1.1112  1.1181
  326MOL0     H42993   3.659   9.970  11.882 -0.6236  0.4868  1.2846
  326MOL0     H42994   3.441  10.014  11.927  2.1954  0.8595  0.8694
  326MOL0     H42995   3.215  10.093  11.952  0.5937 -0.8930  0.7369
  326MOL0     H42996   2.896  10.495  11.976  1.1896 -1.4196  0.4605
  326MOL0     H42997   2.683  10.578  11.935 -1.7322  2.3556 -1.4110
  326MOL0     H42998   2.545  10.644  11.486  1.3145  0.7283 -1.0296
  326MOL0     H42999   2.588  10.804  11.549 -1.2768  0.2377 -1.0549
  326MOL0     H43000   2.374  10.837  11.631  0.6131 -2.0297  2.2107
  326MOL0     H43001   2.338  10.672  11.648  2.0801  0.6704  2.0425
  326MOL0     H43002   2.355  10.644  11.383  1.0605  0.3552 -0.9670
  326MOL0     H43003   2.364  10.817  11.370  1.1215 -0.0170  0.5028
  326MOL0     H43004   2.138  10.703  11.346  0.4836 -0.6216  0.1247
  326MOL0     H43005   2.148  10.647  11.513  1.2079 -0.1071  0.8540
  326MOL0     H43006   2.121  10.945  11.419 -1.6315 -1.4686 -1.8318
  326MOL0     H43007   2.148  10.892  11.583  0.4581 -0.4798 -0.1616
  326MOL0     H43008   1.932  10.790  11.604  3.8419 -1.9880 -0.2078
  326MOL0     H43009   1.909  10.774  11.429  0.3935 -0.2177 -1.6325
  326MOL0     H43010   1.914  11.032  11.576 -0.7372 -0.1522  0.3372
  326MOL0     H43011   1.912  11.022  11.400  0.4941 -1.4638 -0.1902
  326MOL0     H43012   1.693  10.893  11.560  2.7839  0.9449  1.7092
  326MOL0     H43013   1.713  10.899  11.380  0.2745 -0.1949 -0.1341
  326MOL0     H43014   2.737  10.559  11.505  1.3760 -0.7625 -0.8296
  326MOL0     H43015   2.962  10.485  11.540  0.6936  0.1853  0.8565
  326MOL0     H43016   3.283  10.395  11.643 -0.5622  0.2039  0.1935
  326MOL0     H43017   3.501  10.276  11.587 -1.1021  0.1122 -1.5418
  326MOL0     H43018   5.044   9.981  10.817 -3.1518 -3.2205 -0.4022
  326MOL0     H43019   5.302  10.006  10.787  0.9154 -0.7321 -0.8407
  326MOL0     H43020   5.851   9.958  11.103  0.3215 -0.2141  0.2040
  326MOL0     H43021   6.045  10.024  10.971 -1.1584 -2.3615  3.8774
  326MOL0     H43022   6.230   9.974  10.613 -1.0622 -2.0819  1.1469
  326MOL0     H43023   6.184   9.904  10.775 -1.0444  0.3852  1.4224
  326MOL0     H43024   6.250  10.117  10.890  1.3146  0.3555 -0.0304
  326MOL0     H43025   6.377  10.095  10.762  0.2101  1.2206 -1.1328
  326MOL0     H43026   6.128  10.283  10.750  0.3505  0.1243  1.8826
  326MOL0     H43027   6.239  10.243  10.613  1.9627 -2.2764  0.6494
  326MOL0     H43028   6.304  10.377  10.882 -0.2216 -1.0986  0.1341
  326MOL0     H43029   6.422  10.312  10.768 -0.4372 -1.3415 -2.9113
  326MOL0     H43030   6.265  10.662  10.573  0.0588 -1.8774 -3.0616
  326MOL0     H43031   5.791  10.041  10.623 -1.6502 -0.5718  0.1362
  326MOL0     H43032   5.603   9.997  10.752 -1.0337 -2.6408  2.4868
  327MOL0     O43033   6.809   2.296  10.084 -0.1676  0.4388  0.4116
  327MOL0     C43034   6.802   2.278  10.209  0.2678  0.6494  0.2351
  327MOL0     O43035   6.895   2.308  10.295 -0.1068 -0.6877 -0.1936
  327MOL0     C43036   7.014   2.370  10.257  0.7123  0.4369  0.1921
  327MOL0     C43037   7.074   2.375  10.129 -0.6368 -0.0051  0.1223
  327MOL0     C43038   7.200   2.439  10.123 -0.3251  0.3820  0.0129
  327MOL0     C43039   7.254   2.514  10.225 -0.2656  0.5577  0.8226
  327MOL0     O43040   7.373   2.573  10.207  0.4784  0.1046  0.6664
  327MOL0     C43041   7.400   2.699  10.265 -0.7274  0.1096  0.4404
  327MOL0     C43042   7.547   2.737  10.256  0.1018  0.7690  0.2499
  327MOL0     C43043   7.602   2.747  10.118 -0.0908  0.2161  0.1584
  327MOL0     C43044   7.505   2.833  10.030 -0.3412  0.1365  0.2409
  327MOL0     C43045   7.564   2.863   9.886  0.7453  0.0458 -0.4878
  327MOL0     C43046   7.438   2.888   9.799 -0.6330  1.3088 -0.1383
  327MOL0     C43047   7.489   2.934   9.663  0.1676  0.5398 -0.5978
  327MOL0     C43048   7.385   2.942   9.555  0.1135 -0.6425  0.0295
  327MOL0     N43049   7.271   3.029   9.590  0.0483 -0.1518 -0.2130
  327MOL0     C43050   7.268   3.156   9.626  0.4150 -0.5649 -0.6303
  327MOL0     C43051   7.141   3.191   9.658  0.0411  0.0942 -0.1556
  327MOL0     C43052   7.093   3.323   9.702 -0.2667  0.1507  0.2630
  327MOL0     C43053   7.062   3.418   9.580 -0.1938  0.3181 -0.2988
  327MOL0     C43054   6.993   3.549   9.624  0.5234 -0.2628 -0.2581
  327MOL0     C43055   6.845   3.511   9.662 -0.4786 -0.2332  0.0819
  327MOL0     O43056   6.771   3.631   9.635 -0.2583 -1.0533 -0.8948
  327MOL0     C43057   6.636   3.631   9.629 -0.5298 -0.4319 -0.0276
  327MOL0     C43058   6.583   3.723   9.540  0.8115 -0.3137 -0.1426
  327MOL0     C43059   6.440   3.730   9.533 -0.4632 -0.0222  0.2191
  327MOL0     C43060   6.363   3.643   9.607  0.0364 -0.8128  0.1166
  327MOL0     C43061   6.210   3.659   9.588  0.3940 -0.7107 -0.0191
  327MOL0     O43062   6.151   3.771   9.534  0.0263  1.1129  0.3916
  327MOL0     C43063   6.017   3.777   9.515  0.0755  0.3511 -0.1578
  327MOL0     C43064   5.952   3.895   9.549 -1.0150  0.2754 -0.2587
  327MOL0     C43065   5.813   3.899   9.538  0.0504 -0.4880 -0.3022
  327MOL0     C43066   5.731   3.797   9.494  0.7442  0.2505 -0.7627
  327MOL0     O43067   5.600   3.835   9.498 -0.5756  0.9465 -0.1843
  327MOL0     C43068   5.505   3.751   9.437  0.4655 -0.2889 -0.1766
  327MOL0     C43069   5.367   3.817   9.458 -0.8373  0.1574 -0.3512
  327MOL0     C43070   5.244   3.749   9.388  0.1469  0.1651  0.1129
  327MOL0     C43071   5.120   3.828   9.394 -0.0786 -0.6042  0.4522
  327MOL0     C43072   4.992   3.754   9.352  0.0436  1.2849  0.6363
  327MOL0     C43073   4.865   3.832   9.385 -0.1245 -0.3212  0.2598
  327MOL0     C43074   4.746   3.769   9.308 -0.5083  0.2907  0.1551
  327MOL0     C43075   4.625   3.797   9.398  0.2802 -0.2796  0.1614
  327MOL0    Cl43076   4.483   3.754   9.285 -0.0327 -0.2568  0.1635
  327MOL0     C43077   5.797   3.684   9.448  0.2758  0.3550 -1.6221
  327MOL0     C43078   5.935   3.676   9.456 -1.1762 -0.2504 -0.0320
  327MOL0     O43079   6.149   3.562   9.633  0.5404 -0.5214  0.0990
  327MOL0     C43080   6.421   3.550   9.691 -0.1474  0.4824  0.1458
  327MOL0     C43081   6.561   3.541   9.694  0.3537 -0.1247 -0.5445
  327MOL0     N43082   7.062   3.081   9.634 -0.0068  1.1570  0.0216
  327MOL0     N43083   7.141   2.989   9.585  0.3191 -0.3340 -0.0809
  327MOL0     C43084   7.185   2.507  10.343 -0.7338  0.8969  0.4364
  327MOL0     C43085   7.062   2.441  10.367 -0.1473 -0.1637  1.1448
  327MOL0     C43086   6.674   2.221  10.263 -0.5828 -0.2014 -1.1162
  327MOL0     C43087   6.585   2.167  10.175 -0.7898  0.5106  0.8613
  327MOL0     C43088   6.462   2.122  10.220  0.5817  0.3712  0.2038
  327MOL0     C43089   6.435   2.117  10.358 -0.6449 -0.5056  0.2370
  327MOL0     O43090   6.318   2.069  10.406 -0.1971 -0.5423  1.0048
  327MOL0     C43091   6.202   2.131  10.339 -0.7061 -0.5099 -0.2229
  327MOL0     C43092   6.082   2.127  10.431 -0.4636 -0.4506 -0.4239
  327MOL0     C43093   6.040   1.988  10.461  0.4017  0.1392 -0.1580
  327MOL0     C43094   5.896   1.968  10.526  0.8481  0.6470  0.2608
  327MOL0     C43095   5.800   2.017  10.434  1.1362 -0.5109 -0.2723
  327MOL0     C43096   5.703   2.067  10.372 -0.1095 -0.6258  0.1471
  327MOL0     C43097   6.527   2.171  10.447  0.8342 -0.2972  0.7063
  327MOL0     C43098   6.651   2.217  10.404 -0.6034  0.2541  0.7428
  327MOL0     H43099   7.039   2.344  10.031 -0.1952 -0.2836  0.0520
  327MOL0     H43100   7.261   2.417  10.036 -2.1371 -1.8251 -0.8127
  327MOL0     H43101   7.378   2.693  10.372  1.0398 -0.3843  0.8092
  327MOL0     H43102   7.351   2.784  10.216  2.1892  0.2075 -2.7245
  327MOL0     H43103   7.609   2.667  10.314  1.8272  3.8245  2.3827
  327MOL0     H43104   7.561   2.827  10.316  1.8336  0.6393  0.0945
  327MOL0     H43105   7.620   2.652  10.066 -1.5334  0.5932 -1.0880
  327MOL0     H43106   7.689   2.811  10.130 -2.0830  2.7220  2.5720
  327MOL0     H43107   7.412   2.777  10.025 -0.4861  0.1072  2.3798
  327MOL0     H43108   7.479   2.929  10.076 -1.7322  0.2664 -0.7616
  327MOL0     H43109   7.618   2.779   9.842  1.6134  0.7790 -0.8411
  327MOL0     H43110   7.622   2.955   9.897 -0.0936  0.7315 -1.5048
  327MOL0     H43111   7.391   2.969   9.855  1.4178  2.1688  0.4361
  327MOL0     H43112   7.385   2.792   9.801  3.1276 -0.9534  0.6760
  327MOL0     H43113   7.539   3.029   9.684  0.5407 -0.0338  1.3496
  327MOL0     H43114   7.571   2.872   9.627 -1.6268 -2.6435  0.3260
  327MOL0     H43115   7.356   2.839   9.531 -0.8974 -0.5468  0.7548
  327MOL0     H43116   7.435   2.990   9.471  0.1639  1.0905  1.0188
  327MOL0     H43117   7.346   3.230   9.614 -1.0255  0.7152 -2.8501
  327MOL0     H43118   7.165   3.360   9.776 -0.8336 -0.8840  1.3662
  327MOL0     H43119   6.998   3.311   9.755 -1.2025  1.1268 -1.1280
  327MOL0     H43120   6.997   3.372   9.506 -1.2344 -0.2337  0.9310
  327MOL0     H43121   7.158   3.440   9.532  0.5873  0.3759  1.2232
  327MOL0     H43122   7.048   3.591   9.709 -0.1647 -0.2377  0.1856
  327MOL0     H43123   6.999   3.621   9.542  2.1890  0.1575  0.1872
  327MOL0     H43124   6.846   3.478   9.766  1.1204  0.5284  0.3413
  327MOL0     H43125   6.804   3.430   9.602  0.6222 -2.5429  2.2424
  327MOL0     H43126   6.647   3.792   9.486  0.0316  1.1346  0.6905
  327MOL0     H43127   6.396   3.804   9.467  0.7995  1.4004  0.9035
  327MOL0     H43128   6.014   3.978   9.581 -1.4689  0.4190  0.2430
  327MOL0     H43129   5.771   3.993   9.571  1.7261  0.6768 -1.3639
  327MOL0     H43130   5.499   3.652   9.481 -1.6780  0.2209  0.8167
  327MOL0     H43131   5.530   3.734   9.332 -0.3528 -1.0045 -0.2621
  327MOL0     H43132   5.378   3.916   9.413  3.6997 -0.0285 -0.0822
  327MOL0     H43133   5.346   3.839   9.563  1.0700 -0.6828  0.2359
  327MOL0     H43134   5.229   3.659   9.449  2.9045  1.3492  2.8113
  327MOL0     H43135   5.270   3.718   9.286  0.2269  1.1580 -0.1725
  327MOL0     H43136   5.123   3.887   9.486  2.3969 -2.5101  1.7169
  327MOL0     H43137   5.127   3.901   9.313 -5.2540  1.5267  1.5123
  327MOL0     H43138   4.997   3.653   9.394 -3.3110  1.9389  3.0468
  327MOL0     H43139   4.991   3.749   9.243  0.0372 -1.8997  0.6856
  327MOL0     H43140   4.874   3.933   9.343 -1.1782 -0.9643 -1.6107
  327MOL0     H43141   4.848   3.828   9.493 -0.6148 -3.0656  0.1502
  327MOL0     H43142   4.734   3.816   9.210 -0.9386  1.4301  0.7372
  327MOL0     H43143   4.763   3.664   9.280  1.1554  0.1657  1.5327
  327MOL0     H43144   4.612   3.899   9.433 -3.0384  0.7953 -3.5058
  327MOL0     H43145   4.622   3.732   9.485  1.8578  0.4750  0.8276
  327MOL0     H43146   5.745   3.601   9.402 -1.1498  0.4448 -0.2835
  327MOL0     H43147   5.974   3.580   9.425  0.8322  1.0254 -1.7717
  327MOL0     H43148   6.352   3.494   9.754  0.7682  1.3297  2.0052
  327MOL0     H43149   6.606   3.462   9.754  0.5845  1.2904  1.2484
  327MOL0     H43150   7.230   2.561  10.426 -0.5041  0.6001  0.5034
  327MOL0     H43151   7.001   2.445  10.456 -1.2260 -4.4516  0.8211
  327MOL0     H43152   6.594   2.176  10.067 -1.1832 -0.4776  0.7304
  327MOL0     H43153   6.391   2.087  10.146 -0.1885 -0.9898  1.5460
  327MOL0     H43154   6.171   2.096  10.240 -5.2756 -0.7475  1.0805
  327MOL0     H43155   6.231   2.236  10.329  2.5354 -1.3251 -0.7737
  327MOL0     H43156   6.110   2.160  10.532 -4.1387 -1.6774  1.2075
  327MOL0     H43157   5.997   2.173  10.380 -3.2459 -3.1528  1.4192
  327MOL0     H43158   6.109   1.941  10.532  0.8041  2.3578  0.9851
  327MOL0     H43159   6.035   1.926  10.371 -1.0469  0.0479 -0.0376
  327MOL0     H43160   5.883   1.860  10.543  1.7852  0.1478 -1.8530
  327MOL0     H43161   5.905   2.029  10.616  0.6567  2.1233 -0.6829
  327MOL0     H43162   5.617   2.110  10.325 -1.8252 -2.6651  1.2430
  327MOL0     H43163   6.503   2.168  10.553  1.8497 -1.8552  0.9321
  327MOL0     H43164   6.726   2.237  10.479  0.0422 -1.1902  0.5114
  328MOL0     O43165   2.509   0.589   4.231  0.0698  0.1265  0.1695
  328MOL0     C43166   2.529   0.709   4.226 -0.4597 -0.4998  0.1417
  328MOL0     O43167   2.433   0.809   4.226 -0.1119  0.0116 -0.5996
  328MOL0     C43168   2.297   0.777   4.236 -0.4487  0.4474 -0.0915
  328MOL0     C43169   2.219   0.873   4.304 -0.4331  0.0426 -0.1163
  328MOL0     C43170   2.088   0.845   4.335 -0.0663 -0.3147  0.8341
  328MOL0     C43171   2.032   0.726   4.295 -0.2259  0.5061 -0.3173
  328MOL0     O43172   1.900   0.701   4.298  0.3384 -0.2297  0.0957
  328MOL0     C43173   1.809   0.810   4.313 -0.1540 -0.1357  0.1058
  328MOL0     C43174   1.674   0.764   4.253  0.2642 -0.9569 -0.5375
  328MOL0     C43175   1.563   0.827   4.341 -0.6336  0.8862  0.4522
  328MOL0     C43176   1.423   0.822   4.263  0.5283 -0.0435 -0.2186
  328MOL0     C43177   1.310   0.877   4.350  0.0873  0.3383 -0.7549
  328MOL0     C43178   1.182   0.836   4.280  0.4976 -0.0376 -0.1625
  328MOL0     C43179   1.060   0.871   4.366  0.5171 -1.0173 -0.3542
  328MOL0     C43180   0.938   0.787   4.319  0.2184 -0.0714 -0.1920
  328MOL0     N43181   0.813   0.802   4.395  0.1922  0.6307 -0.0395
  328MOL0     C43182   0.786   0.720   4.501 -1.0324 -0.0912  1.4837
  328MOL0     C43183   0.656   0.738   4.525  0.4189 -0.3289 -0.3817
  328MOL0     C43184   0.575   0.666   4.637  0.3798  0.2816 -0.8074
  328MOL0     C43185   0.457   0.754   4.686  0.8468  0.4475 -0.4103
  328MOL0     C43186   0.358   0.669   4.769 -0.8362  0.0142  0.2328
  328MOL0     C43187   0.253   0.761   4.826  0.0655 -0.9209  0.2873
  328MOL0     O43188   0.153   0.776   4.721  0.1475  0.0184 -0.2158
  328MOL0     C43189   0.095   0.895   4.719  0.5410 -0.8187  0.0061
  328MOL0     C43190  -0.038   0.903   4.771 -0.6241  0.2907 -0.7594
  328MOL0     C43191  -0.107   1.026   4.760  0.3198  0.5825  0.4266
  328MOL0     C43192  -0.042   1.143   4.711 -0.0253  0.2262 -0.4334
  328MOL0     C43193  -0.121   1.268   4.705 -0.9234 -0.1476 -0.4555
  328MOL0     O43194  -0.060   1.376   4.665  0.0480  0.4163 -0.0888
  328MOL0     C43195  -0.136   1.486   4.640  0.9237 -0.9804  0.0898
  328MOL0     C43196  -0.242   1.491   4.551 -0.1900  0.2804 -0.1957
  328MOL0     C43197  -0.296   1.617   4.531  0.2228  0.2955  0.8898
  328MOL0     C43198  -0.251   1.739   4.584  0.1222  0.1032 -0.2898
  328MOL0     O43199  -0.312   1.858   4.551 -0.5704  0.0966  0.2139
  328MOL0     C43200  -0.247   1.916   4.439 -0.7570 -0.3480  0.1338
  328MOL0     C43201  -0.125   2.010   4.487  0.2452 -1.1018  0.9843
  328MOL0     C43202  -0.159   2.127   4.575 -0.1719  0.9197 -0.3907
  328MOL0     C43203  -0.279   2.213   4.529 -0.9799  1.0545  0.4368
  328MOL0     C43204  -0.290   2.337   4.620 -0.0552 -0.1800 -0.3690
  328MOL0     C43205  -0.365   2.454   4.546 -0.2884  0.4830 -0.0564
  328MOL0     C43206  -0.400   2.573   4.643 -0.1561 -0.9198  0.1131
  328MOL0     C43207  -0.548   2.618   4.633 -0.1419 -0.1122 -0.0650
  328MOL0    Cl43208  -0.570   2.703   4.478 -0.1065 -0.2017  0.0134
  328MOL0     C43209  -0.146   1.731   4.673 -0.8684 -0.3650 -0.1429
  328MOL0     C43210  -0.090   1.596   4.707  0.2191 -0.9531 -0.0309
  328MOL0     O43211  -0.238   1.260   4.741  0.3836  0.0943  0.0213
  328MOL0     C43212   0.089   1.132   4.654 -1.0287  0.0210 -0.5708
  328MOL0     C43213   0.157   1.005   4.652  0.2495 -0.2349  0.3722
  328MOL0     N43214   0.607   0.829   4.438  0.0844  1.0144  0.3130
  328MOL0     N43215   0.698   0.874   4.363 -0.5213 -0.0470  0.3614
  328MOL0     C43216   2.111   0.634   4.223  0.2553  0.7197  0.1786
  328MOL0     C43217   2.233   0.663   4.188 -0.0009  0.4628  0.0714
  328MOL0     C43218   2.680   0.737   4.202  0.7602  0.1953  0.4201
  328MOL0     C43219   2.714   0.865   4.171  0.3409  0.4242  0.0499
  328MOL0     C43220   2.854   0.891   4.147  0.4447  0.9522 -1.0977
  328MOL0     C43221   2.955   0.795   4.160  0.7996 -0.2682 -0.7749
  328MOL0     O43222   3.090   0.816   4.164  0.4892 -0.2388  0.0439
  328MOL0     C43223   3.130   0.950   4.139 -0.2667 -0.3369  0.3776
  328MOL0     C43224   3.283   0.947   4.161 -0.7347  0.4029  1.1339
  328MOL0     C43225   3.337   0.887   4.298  0.5652 -0.4133  0.6330
  328MOL0     C43226   3.490   0.916   4.302  0.2211  0.0202 -0.7335
  328MOL0     C43227   3.540   0.877   4.444  0.0429 -0.1833 -0.2035
  328MOL0     C43228   3.557   0.857   4.560  0.8455  0.5949 -0.3316
  328MOL0     C43229   2.906   0.665   4.177 -0.1847 -0.4285 -0.5632
  328MOL0     C43230   2.774   0.631   4.189  0.0853 -0.6443  0.1784
  328MOL0     H43231   2.255   0.974   4.316  1.2361 -0.6228  0.8614
  328MOL0     H43232   2.029   0.922   4.385 -2.0357 -2.0321  1.2784
  328MOL0     H43233   1.844   0.901   4.263  2.6902 -0.0761  1.9419
  328MOL0     H43234   1.796   0.845   4.416 -3.3562 -1.5949  0.3162
  328MOL0     H43235   1.659   0.656   4.259 -1.1232 -0.7285  0.8021
  328MOL0     H43236   1.669   0.792   4.147  2.1453 -3.9182 -1.5339
  328MOL0     H43237   1.586   0.926   4.379  1.3985 -0.1942  2.2344
  328MOL0     H43238   1.558   0.763   4.429  3.3590 -0.8553 -0.3699
  328MOL0     H43239   1.435   0.877   4.169 -0.5389 -0.2955 -0.5171
  328MOL0     H43240   1.399   0.717   4.243 -0.2494  0.0718  0.0881
  328MOL0     H43241   1.320   0.986   4.352  3.8706  0.1665 -2.0862
  328MOL0     H43242   1.302   0.838   4.452  0.7530 -1.3890 -1.3284
  328MOL0     H43243   1.183   0.729   4.260  0.6215 -0.2174  0.7473
  328MOL0     H43244   1.171   0.887   4.184  1.7925 -0.9302 -0.8202
  328MOL0     H43245   1.081   0.850   4.471  0.1321  0.1057 -0.0316
  328MOL0     H43246   1.032   0.977   4.358 -1.3520 -1.4491 -0.0573
  328MOL0     H43247   0.969   0.684   4.341 -0.5077 -0.2687 -0.0756
  328MOL0     H43248   0.920   0.798   4.212  0.9451 -1.7431 -0.5198
  328MOL0     H43249   0.853   0.643   4.538  1.1861 -0.6543 -3.0990
  328MOL0     H43250   0.637   0.645   4.724 -2.1478  1.3356  1.4081
  328MOL0     H43251   0.534   0.571   4.602  0.3844 -0.3405  0.7969
  328MOL0     H43252   0.411   0.795   4.596  0.4438 -0.1985 -0.5118
  328MOL0     H43253   0.500   0.845   4.728  0.9706 -0.0209  0.5173
  328MOL0     H43254   0.313   0.590   4.709 -3.1072  2.4262 -1.4841
  328MOL0     H43255   0.411   0.622   4.852 -1.3408  2.4599  2.0825
  328MOL0     H43256   0.291   0.858   4.860 -1.8779  0.0332 -0.1129
  328MOL0     H43257   0.226   0.713   4.921 -0.3916 -1.4945 -0.1289
  328MOL0     H43258  -0.081   0.813   4.813 -0.3943  0.0802 -0.9789
  328MOL0     H43259  -0.207   1.028   4.800 -0.4696  2.0169 -1.4538
  328MOL0     H43260  -0.269   1.406   4.488  0.7100 -0.4421  0.3629
  328MOL0     H43261  -0.381   1.622   4.464 -0.9150 -0.5022  2.2401
  328MOL0     H43262  -0.326   1.969   4.385 -0.6220 -0.0142  0.2585
  328MOL0     H43263  -0.205   1.849   4.363  0.1801  0.8782 -0.4770
  328MOL0     H43264  -0.100   2.050   4.388 -0.8823 -0.9953  0.7197
  328MOL0     H43265  -0.037   1.963   4.531  0.1296 -0.3354  2.0372
  328MOL0     H43266  -0.070   2.189   4.585 -0.4313  0.9519  5.2097
  328MOL0     H43267  -0.174   2.088   4.676 -3.0313  1.2336 -0.6084
  328MOL0     H43268  -0.257   2.246   4.427 -0.3733  1.3111  0.6446
  328MOL0     H43269  -0.371   2.154   4.529 -1.8876  2.4126  0.2112
  328MOL0     H43270  -0.191   2.371   4.653  0.8440 -2.5474 -0.4288
  328MOL0     H43271  -0.345   2.318   4.713 -1.6091  1.9335 -0.7678
  328MOL0     H43272  -0.449   2.415   4.488 -0.3518  0.9773 -0.2998
  328MOL0     H43273  -0.285   2.483   4.477  2.1930 -1.0870  1.9904
  328MOL0     H43274  -0.371   2.537   4.742  0.0114 -0.0448  0.3889
  328MOL0     H43275  -0.337   2.660   4.623 -0.8351 -0.0454  1.5944
  328MOL0     H43276  -0.566   2.688   4.715 -1.4341 -1.3307  0.7440
  328MOL0     H43277  -0.617   2.532   4.642  0.5794 -0.5048  2.6212
  328MOL0     H43278  -0.109   1.817   4.728  0.3596 -0.5277 -0.6695
  328MOL0     H43279  -0.004   1.582   4.771  0.7061 -2.7501 -1.0224
  328MOL0     H43280   0.142   1.219   4.616  1.4339 -0.0829  2.2717
  328MOL0     H43281   0.246   0.992   4.591 -1.9082  2.5077 -3.8573
  328MOL0     H43282   2.057   0.547   4.190  0.2202  0.6968  0.2937
  328MOL0     H43283   2.283   0.587   4.129  1.5925  2.0231 -0.6895
  328MOL0     H43284   2.627   0.929   4.163 -1.2970 -1.6739  0.2357
  328MOL0     H43285   2.884   0.991   4.116 -2.3493  1.8560 -1.2119
  328MOL0     H43286   3.096   1.014   4.221 -1.0859 -1.2316  0.7549
  328MOL0     H43287   3.098   0.986   4.040 -0.9262  0.5060  0.8828
  328MOL0     H43288   3.333   0.893   4.080  0.9897 -0.2470  2.5655
  328MOL0     H43289   3.312   1.052   4.163  0.2829  0.1294  1.2557
  328MOL0     H43290   3.306   0.782   4.300 -0.0684 -0.2743 -0.6368
  328MOL0     H43291   3.290   0.932   4.386  0.4304  1.1225 -0.2053
  328MOL0     H43292   3.541   0.850   4.231 -1.5078 -1.7270 -0.4445
  328MOL0     H43293   3.523   1.016   4.273  1.9146 -0.8456 -1.9557
  328MOL0     H43294   3.568   0.844   4.666 -2.5934  2.0727  0.3457
  328MOL0     H43295   2.978   0.585   4.188 -0.1479 -0.6250 -2.1149
  328MOL0     H43296   2.734   0.531   4.204  1.0826 -0.8352  1.8751
  329MOL0     O43297   9.050   6.145   2.271  0.3991 -0.6574  0.2194
  329MOL0     C43298   9.114   6.250   2.233 -0.1602  0.3191  0.2520
  329MOL0     O43299   9.057   6.382   2.221 -0.8796  0.5728 -0.1200
  329MOL0     C43300   8.925   6.407   2.250  0.5141 -1.6727  0.4458
  329MOL0     C43301   8.883   6.536   2.209  0.1866  0.0465 -0.4144
  329MOL0     C43302   8.756   6.578   2.250  0.1818 -0.6264 -1.0756
  329MOL0     C43303   8.670   6.496   2.314  0.8814 -0.0745 -0.7970
  329MOL0     O43304   8.542   6.552   2.339 -0.6266 -0.6440  0.7717
  329MOL0     C43305   8.446   6.479   2.407  0.2183  0.3198 -0.2200
  329MOL0     C43306   8.472   6.483   2.558  0.2165 -0.2705  0.4572
  329MOL0     C43307   8.469   6.636   2.606 -0.3054  0.1869 -0.3565
  329MOL0     C43308   8.467   6.651   2.757  0.1094  0.3713  0.2430
  329MOL0     C43309   8.521   6.795   2.787  1.2086 -0.4090 -0.1052
  329MOL0     C43310   8.609   6.809   2.908  1.1136  0.3099 -0.1556
  329MOL0     C43311   8.542   6.831   3.044  0.0294 -0.1140 -0.1761
  329MOL0     C43312   8.478   6.965   3.052  0.0852 -0.5596 -0.1436
  329MOL0     N43313   8.371   6.967   3.159 -0.1832  0.0237  0.9219
  329MOL0     C43314   8.385   6.931   3.295 -0.2653  0.4639  0.8429
  329MOL0     C43315   8.271   6.976   3.351  0.1393 -0.3595 -0.5229
  329MOL0     C43316   8.227   6.960   3.491  0.3847  0.3784 -0.5435
  329MOL0     C43317   8.117   7.058   3.530  0.4801  0.9256  0.4427
  329MOL0     C43318   8.055   7.027   3.669 -0.7950  0.6490  0.5338
  329MOL0     C43319   7.937   7.117   3.699  0.4160  0.0021  0.4334
  329MOL0     O43320   7.845   7.117   3.585  0.0474  0.1944 -0.0057
  329MOL0     C43321   7.724   7.174   3.603 -1.0511  0.2018  0.1887
  329MOL0     C43322   7.685   7.260   3.701  0.2775 -0.2679 -0.3544
  329MOL0     C43323   7.550   7.298   3.715 -0.4268 -0.5761  0.3156
  329MOL0     C43324   7.456   7.270   3.615  0.4700 -0.5229  0.4692
  329MOL0     C43325   7.317   7.306   3.634 -0.1078 -1.2272 -0.1729
  329MOL0     O43326   7.269   7.329   3.765 -0.5941 -0.3213  0.5365
  329MOL0     C43327   7.140   7.377   3.800  0.4805  0.3291  0.1022
  329MOL0     C43328   7.031   7.405   3.716 -0.3790 -0.4900 -0.3540
  329MOL0     C43329   6.916   7.460   3.768 -0.1519 -1.4591 -0.4701
  329MOL0     C43330   6.908   7.504   3.901  0.2578  0.1675 -0.4400
  329MOL0     O43331   6.807   7.569   3.963 -0.1902  0.2018 -0.1590
  329MOL0     C43332   6.697   7.611   3.876  0.3200  0.3250 -0.0068
  329MOL0     C43333   6.600   7.707   3.945 -0.1591  0.7562  0.4564
  329MOL0     C43334   6.666   7.841   3.975 -0.6418 -0.2394  0.7611
  329MOL0     C43335   6.574   7.918   4.071 -0.0852 -0.1087  0.1935
  329MOL0     C43336   6.634   8.054   4.116 -0.7578  0.0059 -0.2323
  329MOL0     C43337   6.768   8.049   4.194 -1.0308  0.1210 -0.2500
  329MOL0     C43338   6.830   8.188   4.244  0.6789  1.3982  0.5971
  329MOL0     C43339   6.746   8.246   4.360  0.8102  0.7328  0.3577
  329MOL0    Cl43340   6.788   8.413   4.400  0.2904 -0.2013 -0.4579
  329MOL0     C43341   7.020   7.476   3.981  0.5166 -0.6524 -0.0023
  329MOL0     C43342   7.137   7.418   3.936  0.6107 -0.8439  0.4821
  329MOL0     O43343   7.250   7.329   3.531  0.4582 -0.0966  0.1359
  329MOL0     C43344   7.496   7.198   3.508 -0.0894  0.4632 -0.0979
  329MOL0     C43345   7.634   7.154   3.499 -0.0495 -0.4312 -0.3047
  329MOL0     N43346   8.193   7.043   3.253 -0.1465  0.0833 -0.8995
  329MOL0     N43347   8.258   7.031   3.138 -0.1443 -0.4137  0.8324
  329MOL0     C43348   8.700   6.363   2.341  0.3955 -0.1695 -0.2829
  329MOL0     C43349   8.829   6.324   2.318  0.1271  1.5079 -0.8766
  329MOL0     C43350   9.266   6.238   2.218  0.5535 -0.2891  0.3518
  329MOL0     C43351   9.341   6.137   2.281 -0.4878  0.0847 -1.2616
  329MOL0     C43352   9.479   6.137   2.280 -0.2242 -0.5382 -0.7836
  329MOL0     C43353   9.546   6.235   2.201 -0.0131 -0.5399 -0.4029
  329MOL0     O43354   9.684   6.236   2.215 -0.3424  0.2439  0.6127
  329MOL0     C43355   9.761   6.313   2.118  0.1929 -0.6388 -0.4899
  329MOL0     C43356   9.901   6.262   2.112  0.0978  0.8756  0.7552
  329MOL0     C43357   9.899   6.118   2.060 -0.2811  0.9220  0.8697
  329MOL0     C43358  10.038   6.055   2.048  0.5206 -0.2188 -0.2208
  329MOL0     C43359  10.107   6.108   1.923  0.0541  0.1718 -0.7111
  329MOL0     C43360  10.143   6.156   1.818  0.0603 -0.3296 -0.1428
  329MOL0     C43361   9.467   6.325   2.133  0.2759 -0.9560  0.2063
  329MOL0     C43362   9.331   6.337   2.142 -0.0380 -0.3883 -1.3210
  329MOL0     H43363   8.958   6.598   2.161  0.1741  0.2800 -0.1351
  329MOL0     H43364   8.726   6.680   2.228  0.1419  0.1433  2.1053
  329MOL0     H43365   8.440   6.375   2.376 -1.0508 -0.1656  1.5447
  329MOL0     H43366   8.355   6.536   2.390  1.0090  1.6791 -0.0831
  329MOL0     H43367   8.571   6.442   2.578  1.1657  2.3993  1.6818
  329MOL0     H43368   8.393   6.422   2.604 -0.3370 -2.0490 -2.5636
  329MOL0     H43369   8.373   6.681   2.577  0.4653  1.5876 -0.8152
  329MOL0     H43370   8.549   6.687   2.552  0.3526 -0.6319 -0.1757
  329MOL0     H43371   8.368   6.635   2.800  0.3456  2.0254  1.5446
  329MOL0     H43372   8.537   6.579   2.801  1.1590 -0.3931 -2.4803
  329MOL0     H43373   8.437   6.859   2.815  1.1243 -0.2303 -0.7502
  329MOL0     H43374   8.562   6.840   2.695  1.4061  0.3601  0.3508
  329MOL0     H43375   8.687   6.886   2.901  1.4854  0.1374  1.6310
  329MOL0     H43376   8.674   6.721   2.911  1.7989  0.8268  0.5033
  329MOL0     H43377   8.474   6.746   3.051  0.3229 -0.2459  1.5738
  329MOL0     H43378   8.619   6.817   3.120  1.9812  0.9751 -1.8619
  329MOL0     H43379   8.421   6.993   2.963 -0.6813 -2.0583 -0.1632
  329MOL0     H43380   8.555   7.040   3.074  2.2102 -2.9969  1.3364
  329MOL0     H43381   8.469   6.871   3.329  0.9353 -0.5186 -3.2352
  329MOL0     H43382   8.310   6.978   3.560 -1.5209 -1.1514  2.3635
  329MOL0     H43383   8.197   6.855   3.502  3.4762 -0.7580 -1.9600
  329MOL0     H43384   8.045   7.055   3.448  0.2620  2.4560  0.5513
  329MOL0     H43385   8.171   7.152   3.543 -0.3801  1.2831  1.5825
  329MOL0     H43386   8.023   6.922   3.668  1.1426  0.0032 -0.2823
  329MOL0     H43387   8.128   7.048   3.748 -0.5993 -1.1411  0.8676
  329MOL0     H43388   7.975   7.218   3.715 -0.4821  0.4401 -0.1298
  329MOL0     H43389   7.884   7.098   3.792  0.7864  1.8700  1.0676
  329MOL0     H43390   7.754   7.290   3.779  0.3736  2.9320 -1.5374
  329MOL0     H43391   7.512   7.350   3.802  1.0714 -0.0613  0.6867
  329MOL0     H43392   7.021   7.384   3.610  1.0127  3.3733 -1.4408
  329MOL0     H43393   6.837   7.491   3.700  0.3226  1.3921  0.1769
  329MOL0     H43394   6.635   7.524   3.852  0.3836 -0.8005  3.3116
  329MOL0     H43395   6.735   7.652   3.783 -1.5962 -1.7138 -1.8127
  329MOL0     H43396   6.577   7.652   4.036  2.8385 -4.0057 -1.3067
  329MOL0     H43397   6.514   7.729   3.881  0.6572  1.1279 -0.5357
  329MOL0     H43398   6.675   7.891   3.878  0.8985 -1.0238  0.4666
  329MOL0     H43399   6.765   7.834   4.020  0.7439 -0.3804 -2.0932
  329MOL0     H43400   6.476   7.916   4.023  0.4182 -0.2696 -0.8464
  329MOL0     H43401   6.550   7.858   4.159 -0.2809  2.2204  1.8126
  329MOL0     H43402   6.570   8.124   4.170  2.8952  1.3310  2.7954
  329MOL0     H43403   6.657   8.098   4.018  1.4831  1.3702  0.8263
  329MOL0     H43404   6.837   8.008   4.120  1.1046  2.3420  0.3811
  329MOL0     H43405   6.752   7.984   4.280 -0.3880 -1.1773 -1.0838
  329MOL0     H43406   6.934   8.162   4.265  0.2059 -2.0567 -0.7555
  329MOL0     H43407   6.821   8.258   4.161  1.3014  1.2134  0.3662
  329MOL0     H43408   6.773   8.189   4.449  0.5091  0.1640  0.0883
  329MOL0     H43409   6.640   8.235   4.337  1.0579  1.4999 -1.3259
  329MOL0     H43410   7.013   7.510   4.083  0.8373  0.2155 -0.2542
  329MOL0     H43411   7.231   7.428   3.989  2.0410  0.1011 -2.0726
  329MOL0     H43412   7.421   7.173   3.433 -3.1610 -0.7083  3.0876
  329MOL0     H43413   7.662   7.090   3.416 -0.5595 -0.3660 -0.5337
  329MOL0     H43414   8.636   6.304   2.405  0.1240  0.1779 -0.2283
  329MOL0     H43415   8.843   6.219   2.342  0.2171  1.6007 -0.5149
  329MOL0     H43416   9.296   6.057   2.338  3.3080 -0.2474  1.7063
  329MOL0     H43417   9.528   6.067   2.347 -0.3566  2.1017  2.2809
  329MOL0     H43418   9.751   6.417   2.150 -2.0838 -0.1762 -2.4473
  329MOL0     H43419   9.719   6.306   2.017  2.2915 -3.0005 -1.3143
  329MOL0     H43420   9.963   6.318   2.042 -1.2648 -1.0927 -2.1974
  329MOL0     H43421   9.954   6.261   2.208  1.0403 -1.1141  0.2651
  329MOL0     H43422   9.851   6.104   1.962  3.0521  0.8920 -0.8876
  329MOL0     H43423   9.842   6.051   2.125 -1.2981  0.3577 -0.5365
  329MOL0     H43424  10.104   6.086   2.130  0.1485 -0.2375  0.0861
  329MOL0     H43425  10.032   5.947   2.032 -0.1075  0.1626 -3.1825
  329MOL0     H43426  10.182   6.195   1.727 -0.5003 -3.7520 -2.0164
  329MOL0     H43427   9.519   6.408   2.086 -2.2547  0.8258  0.3605
  329MOL0     H43428   9.285   6.425   2.098 -3.2853 -0.8582  0.7595
  330MOL0     O43429   2.404   3.963   0.135 -0.4324 -0.7808  0.1158
  330MOL0     C43430   2.371   3.915   0.024  0.3395 -0.0586  0.2463
  330MOL0     O43431   2.240   3.881  -0.015 -0.0560 -0.4263  0.7941
  330MOL0     C43432   2.139   3.877   0.076  0.3862 -0.2160 -0.0690
  330MOL0     C43433   2.094   3.999   0.122  0.7657  0.1621 -0.5684
  330MOL0     C43434   1.996   3.992   0.226  0.3815 -0.3419  0.7915
  330MOL0     C43435   1.947   3.875   0.278 -0.6896 -0.9033 -0.1833
  330MOL0     O43436   1.854   3.864   0.379 -0.1592  0.0140 -0.2578
  330MOL0     C43437   1.759   3.972   0.385 -0.4343 -0.0422 -0.3001
  330MOL0     C43438   1.653   3.955   0.501  0.6512 -0.3778 -0.5470
  330MOL0     C43439   1.560   3.832   0.466  0.1948 -0.7962 -0.5389
  330MOL0     C43440   1.457   3.801   0.568 -0.1991  0.4561 -0.2152
  330MOL0     C43441   1.359   3.697   0.511 -0.0791  0.3956  0.2263
  330MOL0     C43442   1.246   3.663   0.613 -0.6747 -0.3577  0.3978
  330MOL0     C43443   1.162   3.541   0.571  0.7430  0.0517 -0.6645
  330MOL0     C43444   1.051   3.564   0.480  1.0465  0.1441  0.2154
  330MOL0     N43445   0.978   3.439   0.455  0.1138  0.1655  0.3372
  330MOL0     C43446   0.925   3.351   0.545 -0.6902 -0.2998  0.3056
  330MOL0     C43447   0.840   3.276   0.474  0.5115  0.1807 -0.7797
  330MOL0     C43448   0.750   3.162   0.512 -0.4739 -0.1017  0.5184
  330MOL0     C43449   0.603   3.187   0.485 -0.3788  0.0707 -0.6965
  330MOL0     C43450   0.553   3.316   0.552 -0.4059  0.3370 -0.1078
  330MOL0     C43451   0.404   3.335   0.529 -0.4114 -1.1828  1.4814
  330MOL0     O43452   0.345   3.235   0.601 -0.0103  0.4647  0.2949
  330MOL0     C43453   0.222   3.192   0.561  0.1427  0.7081  0.1855
  330MOL0     C43454   0.194   3.060   0.618 -0.0141  0.3831  0.4302
  330MOL0     C43455   0.075   3.002   0.594  0.2696  0.1023  0.1447
  330MOL0     C43456  -0.029   3.073   0.521 -0.3204 -0.8941  0.2661
  330MOL0     C43457  -0.148   3.008   0.480 -0.1037 -0.2435 -0.9861
  330MOL0     O43458  -0.223   3.059   0.378 -0.0178 -0.2303  0.3327
  330MOL0     C43459  -0.345   3.006   0.344  0.5115 -0.5711 -0.1228
  330MOL0     C43460  -0.447   2.977   0.429 -0.3618  0.3129 -0.5692
  330MOL0     C43461  -0.570   2.941   0.385  0.1678 -0.1839  0.7233
  330MOL0     C43462  -0.592   2.939   0.247  0.3049  0.8390 -0.1070
  330MOL0     O43463  -0.721   2.901   0.210 -0.2588  0.7569  0.3298
  330MOL0     C43464  -0.770   2.947   0.081  0.7027  0.0444 -0.0551
  330MOL0     C43465  -0.923   2.968   0.061  0.1325 -0.1005  0.6708
  330MOL0     C43466  -0.957   3.039  -0.062  1.0372 -0.6670 -0.0473
  330MOL0     C43467  -0.935   2.963  -0.191 -0.2445  0.5658 -0.2856
  330MOL0     C43468  -1.011   2.824  -0.208  0.3517 -0.1406 -0.0858
  330MOL0     C43469  -1.047   2.798  -0.360  0.4710  0.4796  0.2842
  330MOL0     C43470  -1.094   2.650  -0.382 -1.0063  0.2324  0.0673
  330MOL0     C43471  -1.106   2.620  -0.529 -0.1584  0.2355 -0.3584
  330MOL0    Cl43472  -1.209   2.725  -0.625  0.2218 -0.0903  0.2278
  330MOL0     C43473  -0.488   2.956   0.160 -0.0950 -0.8882 -0.1525
  330MOL0     C43474  -0.371   3.005   0.214 -0.2256  0.1567  0.0140
  330MOL0     O43475  -0.162   2.902   0.542  0.3172  0.3480 -0.4916
  330MOL0     C43476   0.001   3.213   0.486  0.1621  0.1772 -0.0413
  330MOL0     C43477   0.125   3.268   0.498 -0.4071  0.3240 -0.2946
  330MOL0     N43478   0.848   3.310   0.344 -0.6748  0.5576  0.5752
  330MOL0     N43479   0.931   3.412   0.336 -0.8275  0.3507 -0.7358
  330MOL0     C43480   2.005   3.759   0.243 -0.3104 -0.2606 -0.6261
  330MOL0     C43481   2.103   3.759   0.143  0.9654  0.4791 -0.1051
  330MOL0     C43482   2.483   3.902  -0.071 -0.1397 -0.0909 -0.0088
  330MOL0     C43483   2.612   3.956  -0.046 -0.1640 -0.3737  0.0193
  330MOL0     C43484   2.701   3.964  -0.152 -0.7903 -0.1319  0.0065
  330MOL0     C43485   2.671   3.927  -0.286 -0.3476 -0.2200  0.4181
  330MOL0     O43486   2.769   3.921  -0.383 -0.7071  0.6559 -0.7134
  330MOL0     C43487   2.750   3.844  -0.501 -0.6249 -0.0151  0.9922
  330MOL0     C43488   2.853   3.869  -0.615  0.0587 -0.2531  0.3009
  330MOL0     C43489   2.863   4.010  -0.660  0.0973 -0.2936 -0.7751
  330MOL0     C43490   3.007   4.064  -0.673 -0.3008 -0.7729  0.7789
  330MOL0     C43491   3.098   3.981  -0.748 -0.6512  0.4471  0.2039
  330MOL0     C43492   3.158   3.913  -0.831 -0.2140  0.0508  0.4178
  330MOL0     C43493   2.551   3.864  -0.302 -0.6664  0.0758 -0.0350
  330MOL0     C43494   2.458   3.861  -0.201 -0.4730  0.8025 -0.0061
  330MOL0     H43495   2.126   4.092   0.077 -1.1024  1.3865  0.4895
  330MOL0     H43496   1.953   4.083   0.267 -2.5398 -1.3359  0.1031
  330MOL0     H43497   1.709   3.972   0.288 -1.7450 -0.0615  0.3639
  330MOL0     H43498   1.811   4.066   0.405  0.4967 -0.5194 -0.3762
  330MOL0     H43499   1.609   4.049   0.533  0.8987 -0.7028  0.8093
  330MOL0     H43500   1.698   3.931   0.598  0.8510  0.7149 -0.3660
  330MOL0     H43501   1.618   3.741   0.447 -1.9859 -3.0002  2.3457
  330MOL0     H43502   1.513   3.848   0.368  0.1225 -0.6375 -0.4790
  330MOL0     H43503   1.509   3.750   0.649 -0.1335 -2.9569 -2.2055
  330MOL0     H43504   1.405   3.892   0.598  0.7649  1.8095 -2.3953
  330MOL0     H43505   1.423   3.611   0.489  0.6166  0.5581  1.4993
  330MOL0     H43506   1.315   3.724   0.415 -0.5893  4.1942  1.3695
  330MOL0     H43507   1.186   3.753   0.626 -0.0466 -0.0447  1.2149
  330MOL0     H43508   1.286   3.644   0.714  0.9139 -0.2638 -0.1771
  330MOL0     H43509   1.228   3.463   0.531 -3.9090 -3.9043 -1.5705
  330MOL0     H43510   1.119   3.503   0.664  2.0379 -1.7009 -0.7296
  330MOL0     H43511   1.087   3.614   0.390  0.0064  1.6333  0.5860
  330MOL0     H43512   0.970   3.625   0.520  0.4001  0.3609 -1.3601
  330MOL0     H43513   0.945   3.351   0.651 -2.1732  0.2060  0.6070
  330MOL0     H43514   0.767   3.127   0.614 -1.4499 -1.4036  0.2588
  330MOL0     H43515   0.780   3.081   0.445  2.5975  0.0983  1.5309
  330MOL0     H43516   0.540   3.108   0.526 -0.4958  1.8038  2.8107
  330MOL0     H43517   0.578   3.190   0.379  2.5629 -1.1530 -1.5253
  330MOL0     H43518   0.558   3.298   0.660 -2.1164  0.5459  0.0364
  330MOL0     H43519   0.624   3.398   0.535  1.9006 -1.7589 -1.1475
  330MOL0     H43520   0.390   3.323   0.421  0.7662 -0.8912  1.2856
  330MOL0     H43521   0.362   3.433   0.554 -0.6958 -0.1765 -2.3191
  330MOL0     H43522   0.258   3.004   0.685 -3.5494 -0.9115  3.0186
  330MOL0     H43523   0.059   2.900   0.628 -0.0672  0.5278  1.3178
  330MOL0     H43524  -0.426   2.978   0.536 -0.5863 -1.0038 -0.4924
  330MOL0     H43525  -0.648   2.918   0.456 -1.2218 -0.3071 -0.7783
  330MOL0     H43526  -0.738   2.877   0.004  0.6129  0.7373 -0.7327
  330MOL0     H43527  -0.724   3.045   0.067  0.6906 -0.1896 -2.0320
  330MOL0     H43528  -0.973   3.029   0.137 -1.7749  1.1867 -1.4975
  330MOL0     H43529  -0.971   2.869   0.063 -0.1713 -0.0824 -2.1352
  330MOL0     H43530  -0.906   3.136  -0.069  0.9470 -0.7042 -1.5599
  330MOL0     H43531  -1.064   3.060  -0.050  1.2801  1.2088 -0.7737
  330MOL0     H43532  -0.968   3.029  -0.272 -0.5144 -0.7717 -1.3105
  330MOL0     H43533  -0.828   2.948  -0.210 -0.8032 -0.6698 -3.0303
  330MOL0     H43534  -1.104   2.822  -0.151  0.7339 -2.0970  0.5421
  330MOL0     H43535  -0.940   2.747  -0.176  0.0720 -2.0203 -3.4773
  330MOL0     H43536  -0.957   2.815  -0.420  0.7880  0.4153  0.7321
  330MOL0     H43537  -1.116   2.877  -0.390  0.7892  0.7680  0.2899
  330MOL0     H43538  -1.019   2.582  -0.341 -1.4179 -0.2348  0.0447
  330MOL0     H43539  -1.186   2.619  -0.332 -1.2640  1.3525  0.3161
  330MOL0     H43540  -1.148   2.519  -0.536 -2.9109  1.2280  0.3162
  330MOL0     H43541  -1.011   2.621  -0.584  1.1358 -3.4784  1.4703
  330MOL0     H43542  -0.498   2.948   0.052 -0.9219  0.7694 -0.2149
  330MOL0     H43543  -0.292   3.034   0.145 -0.5203  0.2276 -0.2924
  330MOL0     H43544  -0.074   3.271   0.435  0.0667  0.7297  0.7156
  330MOL0     H43545   0.144   3.368   0.461 -0.5700  1.0635  1.5528
  330MOL0     H43546   1.963   3.674   0.296 -0.5952  0.6043  0.5694
  330MOL0     H43547   2.154   3.669   0.112  1.2925 -0.4934  2.9206
  330MOL0     H43548   2.634   3.982   0.057 -1.2223  0.8814 -0.0397
  330MOL0     H43549   2.802   3.997  -0.131 -1.3917  1.1232  0.9790
  330MOL0     H43550   2.649   3.853  -0.543 -1.3123 -2.9426  1.8332
  330MOL0     H43551   2.764   3.741  -0.469  2.1209  0.3863  1.2545
  330MOL0     H43552   2.955   3.840  -0.586  0.9669  1.3952 -1.1147
  330MOL0     H43553   2.832   3.804  -0.700  1.7191 -2.0530  1.1623
  330MOL0     H43554   2.811   4.068  -0.583  1.5967 -0.3826  0.3454
  330MOL0     H43555   2.812   4.028  -0.755 -0.2567  1.0822 -0.3580
  330MOL0     H43556   2.995   4.161  -0.722 -0.6078 -0.2551  1.8448
  330MOL0     H43557   3.051   4.085  -0.575 -0.4830 -0.4642  0.7962
  330MOL0     H43558   3.217   3.868  -0.908 -2.4755 -0.1589 -1.3000
  330MOL0     H43559   2.520   3.823  -0.397 -0.5933 -2.7975  1.0566
  330MOL0     H43560   2.368   3.810  -0.234  0.3324 -1.0006  0.4628
  331MOL0     O43561   6.179   8.922   1.743 -0.3323 -0.6604 -0.0211
  331MOL0     C43562   6.152   8.808   1.773  0.7416 -0.0704  0.4738
  331MOL0     O43563   6.029   8.744   1.770  0.2320 -0.1979 -0.1404
  331MOL0     C43564   5.924   8.828   1.727 -0.4321  1.0930  0.2105
  331MOL0     C43565   5.854   8.895   1.822  0.4965  0.0299 -0.0341
  331MOL0     C43566   5.761   8.985   1.788  0.3108 -0.0312 -0.0902
  331MOL0     C43567   5.715   9.008   1.656 -0.5790  0.6785 -0.6782
  331MOL0     O43568   5.613   9.092   1.612  0.8506 -0.1863 -0.7838
  331MOL0     C43569   5.518   9.134   1.713 -0.3792  0.5297 -0.1806
  331MOL0     C43570   5.402   9.220   1.656 -0.1319  0.5867 -0.7005
  331MOL0     C43571   5.271   9.198   1.740 -0.2304  0.3223  1.3336
  331MOL0     C43572   5.304   9.255   1.885  0.0179  0.0034 -0.3101
  331MOL0     C43573   5.188   9.245   1.989 -0.9362  0.2110  0.6127
  331MOL0     C43574   5.053   9.304   1.936 -0.2680  0.6124  0.0373
  331MOL0     C43575   4.942   9.323   2.039  0.4346  0.4679 -0.4537
  331MOL0     C43576   4.877   9.186   2.086  0.9231  0.1125 -0.2001
  331MOL0     N43577   4.804   9.195   2.218  0.4005  0.9030 -0.2869
  331MOL0     C43578   4.714   9.290   2.254 -0.3323 -0.1281 -0.3851
  331MOL0     C43579   4.700   9.266   2.392  0.7290 -0.1577  0.7138
  331MOL0     C43580   4.618   9.329   2.499 -0.7335  0.5043  0.3861
  331MOL0     C43581   4.485   9.378   2.455 -1.0480  0.3335 -0.3256
  331MOL0     C43582   4.380   9.265   2.482 -0.2246 -0.4587 -0.2097
  331MOL0     C43583   4.241   9.320   2.443 -0.3666 -0.3370 -0.2913
  331MOL0     O43584   4.200   9.416   2.542  0.4247  0.1162 -0.6791
  331MOL0     C43585   4.132   9.527   2.492 -0.2561 -1.2872 -1.3636
  331MOL0     C43586   4.012   9.573   2.555  0.3320 -0.1860 -1.0179
  331MOL0     C43587   3.939   9.686   2.521 -0.2066 -0.6998 -0.2301
  331MOL0     C43588   3.978   9.760   2.404  0.5845 -0.4080 -0.2292
  331MOL0     C43589   3.899   9.873   2.348 -0.3096  1.4111  0.5295
  331MOL0     O43590   3.814   9.944   2.427  0.0674 -0.7040 -0.2672
  331MOL0     C43591   3.742  10.049   2.363 -0.1226  0.3681  0.4119
  331MOL0     C43592   3.658  10.022   2.253 -0.8261  0.4103  0.9092
  331MOL0     C43593   3.574  10.122   2.207 -1.5008 -0.4061 -0.3489
  331MOL0     C43594   3.581  10.255   2.258 -0.6014  0.2542 -0.2078
  331MOL0     O43595   3.508  10.362   2.204 -0.3013 -0.0311 -0.2572
  331MOL0     C43596   3.380  10.332   2.152 -0.0631  0.1177  0.7054
  331MOL0     C43597   3.312  10.461   2.103  0.5586 -0.6598  0.9286
  331MOL0     C43598   3.156  10.430   2.078 -0.2567  0.9138 -0.0686
  331MOL0     C43599   3.088  10.544   2.012 -0.2297 -0.7542 -0.4661
  331MOL0     C43600   2.942  10.528   1.969  0.0615 -0.1784 -0.2534
  331MOL0     C43601   2.876  10.662   1.954  0.2050  0.4262  0.2989
  331MOL0     C43602   2.733  10.641   1.900 -0.5431 -0.2259  0.0357
  331MOL0     C43603   2.649  10.770   1.914  0.8257 -0.4511 -0.2059
  331MOL0    Cl43604   2.478  10.748   1.855 -0.1838 -0.5142 -0.0620
  331MOL0     C43605   3.656  10.276   2.369  0.0177  0.3589 -0.5507
  331MOL0     C43606   3.735  10.174   2.428  0.5567 -0.7163 -0.1791
  331MOL0     O43607   3.917   9.886   2.231  0.3140  0.7842  0.6101
  331MOL0     C43608   4.096   9.725   2.344  0.6273 -0.2999 -0.0188
  331MOL0     C43609   4.167   9.615   2.387 -0.4431 -0.5422 -0.7193
  331MOL0     N43610   4.789   9.179   2.429 -0.4703  1.1671  0.4871
  331MOL0     N43611   4.862   9.132   2.328 -0.1381  0.3026 -0.3887
  331MOL0     C43612   5.786   8.928   1.559  0.1655  0.3093 -0.6781
  331MOL0     C43613   5.892   8.845   1.596  1.4212 -0.1063  0.3507
  331MOL0     C43614   6.273   8.729   1.815  0.7030 -0.8439  0.7002
  331MOL0     C43615   6.396   8.786   1.830 -0.8688 -1.2869  0.1006
  331MOL0     C43616   6.503   8.718   1.901  1.1403 -0.1530 -0.2873
  331MOL0     C43617   6.487   8.580   1.937 -1.4610  0.7049  0.2037
  331MOL0     O43618   6.591   8.530   2.020 -0.0375 -0.3958  0.4175
  331MOL0     C43619   6.614   8.391   2.043 -0.1516  0.2934  1.4722
  331MOL0     C43620   6.678   8.328   1.917 -0.2612  0.1948 -0.6624
  331MOL0     C43621   6.720   8.188   1.958 -0.9107 -0.0049  0.6635
  331MOL0     C43622   6.843   8.131   1.875  0.9060  0.9716  0.9060
  331MOL0     C43623   6.959   8.217   1.867 -0.0015  0.6325  0.0215
  331MOL0     C43624   7.042   8.298   1.861  0.0658 -0.0185 -1.2609
  331MOL0     C43625   6.366   8.514   1.914 -0.2308  0.4289 -0.0652
  331MOL0     C43626   6.262   8.588   1.851  0.2314 -0.1721 -0.1145
  331MOL0     H43627   5.873   8.874   1.927 -1.5411  1.0693  0.5876
  331MOL0     H43628   5.701   9.021   1.872 -0.6360 -3.1172  0.6886
  331MOL0     H43629   5.567   9.200   1.785 -2.2114  0.1192  1.5485
  331MOL0     H43630   5.476   9.050   1.769  0.0265  0.4497  0.0055
  331MOL0     H43631   5.390   9.192   1.551 -0.1817 -1.2752 -0.2304
  331MOL0     H43632   5.422   9.327   1.663 -1.9163  0.8210  2.7067
  331MOL0     H43633   5.238   9.094   1.744  2.3155 -0.5322  1.7399
  331MOL0     H43634   5.186   9.258   1.706 -0.4838 -0.7334  0.0607
  331MOL0     H43635   5.393   9.210   1.929 -0.2867 -0.2746  0.0368
  331MOL0     H43636   5.319   9.362   1.875 -4.0310  0.5936 -2.1925
  331MOL0     H43637   5.221   9.286   2.085 -2.5950 -2.2840  2.3565
  331MOL0     H43638   5.164   9.142   2.017 -0.0165  0.0461  0.8154
  331MOL0     H43639   5.014   9.240   1.857 -2.5976  4.4278 -2.2401
  331MOL0     H43640   5.076   9.399   1.886 -1.9932  0.5634 -0.8924
  331MOL0     H43641   4.982   9.378   2.125 -1.9621 -0.7198  1.5713
  331MOL0     H43642   4.857   9.384   2.007 -0.6270  0.8240  2.6788
  331MOL0     H43643   4.953   9.108   2.078 -0.0780 -1.2976  2.6439
  331MOL0     H43644   4.804   9.156   2.011 -1.2015 -0.8500  2.1126
  331MOL0     H43645   4.661   9.357   2.187 -0.9211 -0.7133 -0.5128
  331MOL0     H43646   4.671   9.409   2.551  0.3616  1.7108 -2.4366
  331MOL0     H43647   4.604   9.255   2.579  1.0436  0.7361  0.9466
  331MOL0     H43648   4.485   9.423   2.355 -1.3050  0.0779 -0.4415
  331MOL0     H43649   4.467   9.456   2.530  0.0898  1.7737 -1.4978
  331MOL0     H43650   4.402   9.167   2.438 -0.5420 -0.7208  0.2080
  331MOL0     H43651   4.386   9.258   2.591 -3.4761  3.1794  0.3956
  331MOL0     H43652   4.169   9.237   2.444 -1.2704  0.3599  2.4755
  331MOL0     H43653   4.253   9.352   2.339  1.9507  0.7165  0.2365
  331MOL0     H43654   3.976   9.510   2.635 -0.4577 -1.0939 -2.0680
  331MOL0     H43655   3.843   9.700   2.569  0.2786  0.1074  0.5609
  331MOL0     H43656   3.668   9.924   2.207 -0.6623  0.6201  0.4995
  331MOL0     H43657   3.509  10.105   2.122 -3.4326 -0.8668  1.1588
  331MOL0     H43658   3.305  10.293   2.222 -0.4798  0.6696  0.5766
  331MOL0     H43659   3.392  10.261   2.070 -0.1052  0.0489  0.7586
  331MOL0     H43660   3.355  10.483   2.005  0.6397  1.0164  1.3145
  331MOL0     H43661   3.323  10.548   2.169  1.1200  1.8527 -2.2506
  331MOL0     H43662   3.106  10.389   2.167  0.8441 -2.5942 -0.9111
  331MOL0     H43663   3.153  10.350   2.004 -1.7535  0.3172  0.5809
  331MOL0     H43664   3.104  10.630   2.078  1.9552 -1.3985 -0.0643
  331MOL0     H43665   3.137  10.569   1.917  1.3092  0.5927  0.6198
  331MOL0     H43666   2.895  10.475   2.052  0.1423 -0.3042 -0.2876
  331MOL0     H43667   2.924  10.477   1.874  0.0310  2.3740 -1.7200
  331MOL0     H43668   2.918  10.717   1.869 -1.8758 -1.2107 -1.9059
  331MOL0     H43669   2.884  10.712   2.051 -1.2725 -0.9335  1.1676
  331MOL0     H43670   2.736  10.617   1.793  0.8289 -1.2644  0.2814
  331MOL0     H43671   2.682  10.561   1.954 -1.2508  0.5234  0.5087
  331MOL0     H43672   2.688  10.857   1.860  1.3310 -0.0671  0.7479
  331MOL0     H43673   2.638  10.799   2.019 -0.5163  1.7034 -0.8645
  331MOL0     H43674   3.645  10.369   2.423 -0.8106  1.3492 -2.3207
  331MOL0     H43675   3.786  10.190   2.523 -0.1001 -0.3926  0.1255
  331MOL0     H43676   4.128   9.785   2.259 -0.7228 -1.9799 -1.7929
  331MOL0     H43677   4.267   9.616   2.346  0.2020 -0.6912  0.7993
  331MOL0     H43678   5.760   8.933   1.453  0.1145 -0.5292 -0.7085
  331MOL0     H43679   5.945   8.800   1.513  0.8972  1.5630 -0.9427
  331MOL0     H43680   6.418   8.885   1.792  3.9762 -1.4078  1.8385
  331MOL0     H43681   6.590   8.780   1.920 -0.8900  2.9127 -0.1713
  331MOL0     H43682   6.520   8.343   2.070 -0.2293 -1.3155 -1.2337
  331MOL0     H43683   6.680   8.376   2.129  3.4785  0.4879 -1.0291
  331MOL0     H43684   6.616   8.310   1.828  1.8254  1.5597 -2.4898
  331MOL0     H43685   6.760   8.389   1.879 -0.0701 -0.6788 -1.6855
  331MOL0     H43686   6.635   8.122   1.939 -0.8736  0.1568 -0.0854
  331MOL0     H43687   6.743   8.175   2.064 -1.0635 -0.2581  0.6647
  331MOL0     H43688   6.875   8.042   1.931  0.7729 -1.2411 -2.2544
  331MOL0     H43689   6.804   8.113   1.775 -0.6352  1.4132  1.3963
  331MOL0     H43690   7.120   8.371   1.873 -0.4533  0.4384 -0.5325
  331MOL0     H43691   6.347   8.410   1.942 -1.9102  0.0888 -2.2160
  331MOL0     H43692   6.163   8.543   1.848 -0.1482  0.6342 -0.0495
  332MOL0     O43693   2.478   0.242   7.893  0.2394 -0.8066  0.1860
  332MOL0     C43694   2.590   0.275   7.860  0.4444 -0.2397 -0.1830
  332MOL0     O43695   2.624   0.356   7.753 -0.2018  0.4798 -0.4392
  332MOL0     C43696   2.522   0.401   7.674 -0.0509  0.0127 -0.5144
  332MOL0     C43697   2.446   0.509   7.723 -0.0504  0.1150 -0.9466
  332MOL0     C43698   2.338   0.554   7.663  0.2622 -0.3904 -0.1653
  332MOL0     C43699   2.290   0.494   7.547 -0.0749 -1.1229  0.3987
  332MOL0     O43700   2.177   0.524   7.468  0.1632  0.6382 -0.1066
  332MOL0     C43701   2.055   0.515   7.548 -1.1191  0.2393  0.1318
  332MOL0     C43702   1.978   0.649   7.523  0.1159 -0.0958 -0.8534
  332MOL0     C43703   2.057   0.773   7.568  0.5187  0.3038  0.2054
  332MOL0     C43704   1.994   0.898   7.515  0.4056  0.0200  0.4212
  332MOL0     C43705   2.070   1.027   7.561 -1.1678  0.4365  0.3721
  332MOL0     C43706   1.991   1.151   7.550 -0.2364 -0.4223 -1.2192
  332MOL0     C43707   2.054   1.277   7.614 -0.0390  0.1972 -0.6397
  332MOL0     C43708   1.974   1.405   7.594  0.7765  0.1433  0.4423
  332MOL0     N43709   1.849   1.418   7.682 -0.5757 -0.6602  0.8779
  332MOL0     C43710   1.735   1.349   7.662 -0.8936 -0.3232  0.4111
  332MOL0     C43711   1.648   1.396   7.753 -0.4451 -0.3857  0.0976
  332MOL0     C43712   1.509   1.353   7.761 -0.3759  0.2660  0.0589
  332MOL0     C43713   1.421   1.349   7.634  0.7754  0.3084  0.2675
  332MOL0     C43714   1.275   1.367   7.655  0.2730 -0.2124 -0.4379
  332MOL0     C43715   1.230   1.268   7.771  0.2925  0.2106  0.0813
  332MOL0     O43716   1.233   1.133   7.727 -0.6317 -0.7722 -0.4161
  332MOL0     C43717   1.104   1.082   7.719 -0.6535  0.9418 -0.1175
  332MOL0     C43718   1.093   0.998   7.606  0.0782 -0.2376 -0.0533
  332MOL0     C43719   0.982   0.920   7.580  0.3193 -0.3689  0.7195
  332MOL0     C43720   0.867   0.925   7.666  0.3517 -0.0167 -0.5668
  332MOL0     C43721   0.748   0.841   7.638  0.8699 -0.2083 -0.4840
  332MOL0     O43722   0.635   0.888   7.688  0.1254 -0.6940  0.4743
  332MOL0     C43723   0.516   0.848   7.637  0.4833  0.1754  0.5022
  332MOL0     C43724   0.431   0.779   7.722  0.1778 -0.1490  0.6352
  332MOL0     C43725   0.311   0.729   7.669  0.2331  0.5393 -0.4187
  332MOL0     C43726   0.271   0.755   7.537 -0.3891  0.8446 -0.2076
  332MOL0     O43727   0.155   0.714   7.482 -0.1402 -0.0564  0.9869
  332MOL0     C43728   0.050   0.662   7.569  0.0552  0.0702  0.1204
  332MOL0     C43729  -0.083   0.679   7.493  0.2557 -0.3501  0.1488
  332MOL0     C43730  -0.191   0.596   7.559 -0.1894 -0.4306 -0.1611
  332MOL0     C43731  -0.321   0.614   7.486 -0.0847 -0.2087  0.8663
  332MOL0     C43732  -0.428   0.516   7.523 -0.2364  0.1329  0.8951
  332MOL0     C43733  -0.499   0.537   7.656 -0.2563 -0.4216 -0.4370
  332MOL0     C43734  -0.638   0.470   7.679  0.3000 -0.7126  0.5369
  332MOL0     C43735  -0.661   0.334   7.611 -0.1228  0.3068 -0.9628
  332MOL0    Cl43736  -0.830   0.285   7.616  0.0376 -0.0959  0.3613
  332MOL0     C43737   0.356   0.838   7.454  0.3759 -0.8356  0.4777
  332MOL0     C43738   0.477   0.884   7.505  0.6866  0.7365 -0.2305
  332MOL0     O43739   0.759   0.743   7.564  0.4646  0.0341  0.1576
  332MOL0     C43740   0.885   1.006   7.778  0.3656 -0.6640  0.5870
  332MOL0     C43741   0.998   1.082   7.797 -0.1392 -0.1845 -0.6368
  332MOL0     N43742   1.717   1.495   7.822  0.0464 -0.0040 -0.2713
  332MOL0     N43743   1.837   1.505   7.783  0.1711  0.5567  0.5393
  332MOL0     C43744   2.370   0.390   7.499  0.7161  0.1187  0.7720
  332MOL0     C43745   2.484   0.335   7.563 -0.4272 -0.8676  0.6552
  332MOL0     C43746   2.703   0.234   7.939  0.0525 -1.3192  0.6545
  332MOL0     C43747   2.829   0.222   7.874 -0.2964 -0.2066  0.6648
  332MOL0     C43748   2.940   0.163   7.939  0.0007  0.5037  0.3974
  332MOL0     C43749   2.921   0.111   8.069 -0.1546 -0.5866 -0.2039
  332MOL0     O43750   3.023   0.070   8.151  0.3112  0.3544  0.6408
  332MOL0     C43751   3.152   0.113   8.122 -0.1938 -0.7865  0.1724
  332MOL0     C43752   3.252   0.054   8.223  0.4646 -1.0030 -0.4615
  332MOL0     C43753   3.387   0.048   8.169 -0.0134  0.3941  0.6192
  332MOL0     C43754   3.488  -0.029   8.261  0.2551  0.5659 -0.0562
  332MOL0     C43755   3.630  -0.014   8.216 -0.1289 -0.5058 -0.2578
  332MOL0     C43756   3.741  -0.009   8.171  0.1527  0.7673 -0.8610
  332MOL0     C43757   2.793   0.121   8.135 -0.6995  0.6250  0.6421
  332MOL0     C43758   2.687   0.181   8.063 -0.2004 -0.0203 -0.5279
  332MOL0     H43759   2.481   0.550   7.817  0.8020 -0.4566 -1.0023
  332MOL0     H43760   2.288   0.643   7.699  0.3151 -0.5303  0.2549
  332MOL0     H43761   2.082   0.495   7.652  1.7866 -0.0199 -0.6045
  332MOL0     H43762   1.994   0.428   7.519 -1.3602  0.1699  0.8276
  332MOL0     H43763   1.880   0.652   7.571  1.1786  1.2818  1.3889
  332MOL0     H43764   1.958   0.653   7.415  1.8921  3.8307 -1.2303
  332MOL0     H43765   2.162   0.779   7.541  0.8918  0.4434  1.6080
  332MOL0     H43766   2.048   0.780   7.677 -4.4516 -0.1800  0.0821
  332MOL0     H43767   2.000   0.885   7.406  0.0844  2.6384  0.0408
  332MOL0     H43768   1.891   0.890   7.552  0.5913 -1.5291  0.6820
  332MOL0     H43769   2.158   1.025   7.496  0.6513  0.9321  2.7095
  332MOL0     H43770   2.108   1.016   7.663  4.0797  3.4241 -0.8945
  332MOL0     H43771   1.895   1.141   7.600 -0.2719 -3.0925 -1.6731
  332MOL0     H43772   1.977   1.167   7.443 -2.4058  2.0792 -0.6707
  332MOL0     H43773   2.071   1.261   7.721 -0.1985 -3.8144 -1.0286
  332MOL0     H43774   2.153   1.290   7.571 -0.2559  0.6368 -1.0195
  332MOL0     H43775   1.944   1.405   7.489  1.6784 -0.3427  0.1831
  332MOL0     H43776   2.035   1.493   7.618 -1.2201  1.9970 -0.8809
  332MOL0     H43777   1.712   1.304   7.566 -1.0005  2.3680 -0.9232
  332MOL0     H43778   1.462   1.410   7.842  1.8431  0.4551  1.2941
  332MOL0     H43779   1.520   1.252   7.799 -0.2941  1.0498  2.2561
  332MOL0     H43780   1.432   1.256   7.578 -0.3955  0.4953 -0.2977
  332MOL0     H43781   1.454   1.434   7.573  1.6859 -0.7341 -0.7257
  332MOL0     H43782   1.249   1.466   7.692  0.9547  0.8956 -2.7672
  332MOL0     H43783   1.210   1.354   7.568 -0.7062  0.4269  0.1850
  332MOL0     H43784   1.138   1.304   7.817  0.5032  1.7492 -0.6026
  332MOL0     H43785   1.295   1.257   7.858  0.5822 -3.0670 -0.4073
  332MOL0     H43786   1.177   0.999   7.538  0.5259  1.7040  0.4623
  332MOL0     H43787   0.980   0.860   7.490  2.6288  2.9178 -1.7991
  332MOL0     H43788   0.450   0.782   7.829  2.5145 -0.3286  0.2620
  332MOL0     H43789   0.246   0.674   7.736  1.4626 -1.1359 -0.5160
  332MOL0     H43790   0.043   0.721   7.661 -1.1869 -0.3894  0.3334
  332MOL0     H43791   0.071   0.557   7.589 -0.0954 -0.5656 -2.6379
  332MOL0     H43792  -0.080   0.650   7.388  1.5180  0.1641  0.0218
  332MOL0     H43793  -0.109   0.785   7.508 -0.3163 -0.5753  0.8336
  332MOL0     H43794  -0.206   0.625   7.663 -2.5610 -0.1526 -0.5126
  332MOL0     H43795  -0.151   0.494   7.556  2.1319  0.4006  0.6892
  332MOL0     H43796  -0.359   0.716   7.498 -0.8603 -0.6629  2.5867
  332MOL0     H43797  -0.307   0.597   7.378 -0.8118  0.4844  0.6484
  332MOL0     H43798  -0.400   0.410   7.523  1.5426  0.3691 -3.6974
  332MOL0     H43799  -0.497   0.524   7.438  1.0283 -2.3612 -0.4826
  332MOL0     H43800  -0.525   0.643   7.653 -1.6063 -0.7430 -0.7965
  332MOL0     H43801  -0.429   0.521   7.738  1.4028  0.0833 -1.7016
  332MOL0     H43802  -0.659   0.473   7.787  0.2733  0.0843  0.5173
  332MOL0     H43803  -0.719   0.526   7.633 -0.9888 -2.5000  0.5675
  332MOL0     H43804  -0.599   0.266   7.670 -1.3118  1.5017  1.8811
  332MOL0     H43805  -0.633   0.337   7.506  0.6187  0.7810 -0.7637
  332MOL0     H43806   0.330   0.857   7.351  0.7737 -2.6886  0.0087
  332MOL0     H43807   0.538   0.952   7.447  0.0870  2.2279  0.8092
  332MOL0     H43808   0.799   1.009   7.844 -2.3554  0.0689 -2.7645
  332MOL0     H43809   0.991   1.132   7.893  0.4804  0.4710 -0.9195
  332MOL0     H43810   2.332   0.336   7.412 -0.5233  2.2655 -0.1067
  332MOL0     H43811   2.529   0.239   7.538 -0.7862 -1.6663  2.8839
  332MOL0     H43812   2.848   0.250   7.771  0.6026 -1.3806  0.4898
  332MOL0     H43813   3.028   0.154   7.876 -0.2686  1.6028 -0.1688
  332MOL0     H43814   3.169   0.220   8.137  2.1282 -1.1680  0.6658
  332MOL0     H43815   3.179   0.080   8.022 -2.4021  0.4537 -0.8995
  332MOL0     H43816   3.266   0.126   8.305  1.5013 -0.8951 -0.7232
  332MOL0     H43817   3.206  -0.034   8.269 -0.4181  0.3199  1.3113
  332MOL0     H43818   3.414   0.148   8.132  0.4689 -0.9485 -3.1528
  332MOL0     H43819   3.384  -0.012   8.078  1.4413  1.3836 -0.1229
  332MOL0     H43820   3.473   0.016   8.360  0.7213  0.6376 -0.0164
  332MOL0     H43821   3.466  -0.136   8.269  0.8627  0.5897  3.5306
  332MOL0     H43822   3.843  -0.006   8.137  0.0792  2.1158 -1.0201
  332MOL0     H43823   2.774   0.079   8.233 -2.8421 -0.9120 -0.3471
  332MOL0     H43824   2.588   0.196   8.106 -0.3933 -0.2187 -0.8984
  333MOL0     O43825   3.877   1.758   8.293 -0.1043 -0.3850 -0.0656
  333MOL0     C43826   3.833   1.664   8.224 -0.6491 -0.5116  1.1365
  333MOL0     O43827   3.703   1.649   8.175 -0.0757 -0.2562 -0.0959
  333MOL0     C43828   3.608   1.741   8.210 -0.3816  0.2104 -0.5251
  333MOL0     C43829   3.582   1.846   8.130  0.0028  0.1813  0.3047
  333MOL0     C43830   3.479   1.935   8.169 -0.0378  0.2538 -0.3124
  333MOL0     C43831   3.400   1.927   8.284 -0.6178 -0.9424 -0.8000
  333MOL0     O43832   3.303   2.020   8.309 -0.5481  0.2324  0.4228
  333MOL0     C43833   3.192   1.996   8.400  0.1760 -0.0195  0.4069
  333MOL0     C43834   3.083   2.098   8.359  0.5847  0.4133 -0.1633
  333MOL0     C43835   2.958   2.078   8.445  0.8160  0.3760  0.5149
  333MOL0     C43836   2.853   2.167   8.401  0.6485  0.4180  0.2851
  333MOL0     C43837   2.744   2.190   8.509  0.2919  0.3380 -0.0174
  333MOL0     C43838   2.646   2.074   8.488 -0.7946  0.3267 -0.5883
  333MOL0     C43839   2.508   2.089   8.550  0.4585  0.0941 -0.2174
  333MOL0     C43840   2.528   2.108   8.706  0.0456 -0.1722  0.4815
  333MOL0     N43841   2.398   2.139   8.762 -0.2357  0.5450 -0.1249
  333MOL0     C43842   2.365   2.254   8.833 -0.0452  0.8777  0.3494
  333MOL0     C43843   2.236   2.231   8.886  0.0455  0.6855 -0.5222
  333MOL0     C43844   2.158   2.314   8.986  0.5267  0.5089  0.1227
  333MOL0     C43845   2.026   2.362   8.926  0.0567  0.2424  0.2730
  333MOL0     C43846   1.950   2.443   9.030  0.4554 -0.1269  0.1718
  333MOL0     C43847   1.806   2.471   8.972 -0.0110  0.1766 -0.3346
  333MOL0     O43848   1.728   2.352   8.939 -0.4264  0.5170 -0.9452
  333MOL0     C43849   1.589   2.354   8.950  0.4967  1.0817 -0.7931
  333MOL0     C43850   1.511   2.466   8.953  0.8259 -0.1444  0.8129
  333MOL0     C43851   1.369   2.460   8.944 -0.3562 -0.3367 -0.2154
  333MOL0     C43852   1.310   2.335   8.970  0.8369  0.0862 -0.3577
  333MOL0     C43853   1.157   2.321   8.981 -0.8998 -0.2361  1.0438
  333MOL0     O43854   1.083   2.431   8.942 -0.3408  0.2146 -0.7412
  333MOL0     C43855   0.948   2.448   8.964  0.8369 -0.5029  0.2700
  333MOL0     C43856   0.850   2.361   9.002  0.0861  0.8051 -0.0993
  333MOL0     C43857   0.712   2.398   9.012 -0.1528  1.0784  0.1022
  333MOL0     C43858   0.673   2.534   8.980 -0.2742  1.0199  0.4833
  333MOL0     O43859   0.535   2.560   8.986 -0.4115 -0.2399 -0.5461
  333MOL0     C43860   0.480   2.698   8.985  0.3082  0.1145 -0.2673
  333MOL0     C43861   0.385   2.706   9.104  0.1552 -0.3950 -0.4532
  333MOL0     C43862   0.458   2.762   9.230 -0.0063  0.6672  1.0326
  333MOL0     C43863   0.373   2.774   9.352  0.1257 -0.1465 -0.5609
  333MOL0     C43864   0.457   2.795   9.484 -0.0636 -0.2547 -0.0606
  333MOL0     C43865   0.369   2.827   9.614  0.3043 -0.9421  0.3810
  333MOL0     C43866   0.253   2.722   9.647 -1.3991  0.1455 -0.1452
  333MOL0     C43867   0.201   2.770   9.784 -0.5352  1.3058 -0.4959
  333MOL0    Cl43868   0.157   2.945   9.787  0.0538 -0.1396 -0.2018
  333MOL0     C43869   0.768   2.621   8.924 -0.1813 -0.5894  0.4128
  333MOL0     C43870   0.900   2.580   8.923 -0.1152  0.2413  0.9712
  333MOL0     O43871   1.114   2.217   9.033 -0.3502  0.4115 -0.1767
  333MOL0     C43872   1.390   2.225   8.986  0.1475  0.4359 -0.2933
  333MOL0     C43873   1.527   2.229   8.970 -0.0087  0.4035 -0.5673
  333MOL0     N43874   2.198   2.099   8.843 -0.0639  0.1094  0.8021
  333MOL0     N43875   2.306   2.047   8.780  0.3269  0.1623  0.3784
  333MOL0     C43876   3.427   1.817   8.365 -0.2302  0.6652  0.1277
  333MOL0     C43877   3.524   1.722   8.323  0.4190 -0.8764 -1.1223
  333MOL0     C43878   3.938   1.566   8.183 -0.3132  0.1001  0.8505
  333MOL0     C43879   4.078   1.579   8.196  0.8516 -0.2817 -0.4836
  333MOL0     C43880   4.170   1.483   8.151  1.0871 -0.1223  0.2879
  333MOL0     C43881   4.110   1.369   8.084  0.4817  0.5159 -0.3515
  333MOL0     O43882   4.200   1.271   8.047 -0.3087  1.0087  0.5768
  333MOL0     C43883   4.168   1.149   7.991  1.0323  0.5746  0.2328
  333MOL0     C43884   4.103   1.040   8.083 -0.1096  0.7910  0.7719
  333MOL0     C43885   4.166   1.009   8.224  0.3487  0.4349  0.7730
  333MOL0     C43886   4.123   0.871   8.269  0.2863  0.1413  0.2980
  333MOL0     C43887   4.193   0.833   8.390  0.2529  0.3429 -0.4777
  333MOL0     C43888   4.229   0.805   8.498  0.6086 -0.5033 -0.1389
  333MOL0     C43889   3.973   1.359   8.062 -0.3000  0.1513 -0.2710
  333MOL0     C43890   3.889   1.452   8.112  0.5930  0.6305 -0.6085
  333MOL0     H43891   3.630   1.872   8.036  1.3599  0.7111  1.1145
  333MOL0     H43892   3.455   2.016   8.101 -0.2174  1.3185  0.9914
  333MOL0     H43893   3.232   2.017   8.500  1.5703  2.5170 -0.5834
  333MOL0     H43894   3.148   1.896   8.398  4.8090 -2.3462 -1.9713
  333MOL0     H43895   3.070   2.092   8.251 -1.9729  0.5863  0.0627
  333MOL0     H43896   3.130   2.196   8.374 -1.6067  1.3201  1.3445
  333MOL0     H43897   2.983   2.095   8.550  3.0499  2.0084 -0.1811
  333MOL0     H43898   2.923   1.977   8.422  1.5305  0.1837  0.2324
  333MOL0     H43899   2.901   2.263   8.382  1.0597  0.5854  2.0258
  333MOL0     H43900   2.817   2.135   8.303  3.5831  1.1001 -1.1022
  333MOL0     H43901   2.706   2.288   8.478  1.5261  1.4372  1.7466
  333MOL0     H43902   2.785   2.184   8.610  0.1435 -0.3115  0.0081
  333MOL0     H43903   2.696   1.982   8.520 -1.7456  0.2934  0.8904
  333MOL0     H43904   2.632   2.068   8.380 -0.2208 -0.8052 -0.6166
  333MOL0     H43905   2.453   2.174   8.508  2.0428  0.4299 -1.7069
  333MOL0     H43906   2.449   1.999   8.531  1.6703 -1.1674  1.6083
  333MOL0     H43907   2.597   2.190   8.727  0.8196 -0.1946 -1.7215
  333MOL0     H43908   2.572   2.016   8.747  2.6272  1.2990  1.2559
  333MOL0     H43909   2.425   2.342   8.850  0.3159  0.4924  1.1588
  333MOL0     H43910   2.221   2.400   9.009  0.2770  1.8377 -3.4951
  333MOL0     H43911   2.135   2.242   9.065  1.6099  0.3774  0.3360
  333MOL0     H43912   1.966   2.274   8.900  2.2521 -0.3377 -3.5834
  333MOL0     H43913   2.041   2.407   8.828 -1.2974  0.2359  0.0365
  333MOL0     H43914   1.946   2.388   9.124  0.2006  1.7011  1.2809
  333MOL0     H43915   1.999   2.538   9.049 -0.5407  0.8461 -1.7713
  333MOL0     H43916   1.818   2.528   8.879 -2.2035 -0.9473 -1.4087
  333MOL0     H43917   1.749   2.530   9.045  1.2564 -0.8425  1.5534
  333MOL0     H43918   1.554   2.564   8.936 -1.3658  0.4321 -2.5567
  333MOL0     H43919   1.313   2.550   8.918 -0.7641 -0.8911 -1.3532
  333MOL0     H43920   0.891   2.262   9.021  3.1805  2.1994  1.1458
  333MOL0     H43921   0.633   2.333   9.048  2.0201 -1.9416 -0.2108
  333MOL0     H43922   0.428   2.720   8.891  1.6045  0.7184 -0.8700
  333MOL0     H43923   0.557   2.775   8.998  0.2663  0.1382 -0.1587
  333MOL0     H43924   0.345   2.605   9.121 -0.9427  0.0429 -0.3803
  333MOL0     H43925   0.303   2.775   9.086 -0.3088 -1.5728 -3.4380
  333MOL0     H43926   0.497   2.860   9.197  2.7629 -0.4046  0.7923
  333MOL0     H43927   0.540   2.691   9.246 -0.6928 -0.1201  1.1052
  333MOL0     H43928   0.297   2.852   9.340  0.7093  0.3968 -0.8252
  333MOL0     H43929   0.321   2.679   9.366 -0.5787 -0.0738 -2.3313
  333MOL0     H43930   0.519   2.885   9.473 -0.1180 -0.3772 -1.6478
  333MOL0     H43931   0.522   2.708   9.500 -1.1326 -0.9594  0.5254
  333MOL0     H43932   0.318   2.921   9.590 -0.1202 -1.7562 -2.1676
  333MOL0     H43933   0.427   2.832   9.706 -0.8464  1.1147  1.0722
  333MOL0     H43934   0.189   2.699   9.562  0.6051 -2.5808 -1.0520
  333MOL0     H43935   0.302   2.626   9.665  1.6409  1.3726 -1.2732
  333MOL0     H43936   0.271   2.756   9.867  1.0201  0.3545 -1.9225
  333MOL0     H43937   0.114   2.711   9.814 -0.8181  2.2050  0.5341
  333MOL0     H43938   0.747   2.724   8.896 -0.0656  0.5811  4.1423
  333MOL0     H43939   0.977   2.652   8.897  0.7686 -0.7371  0.7509
  333MOL0     H43940   1.340   2.133   9.014  0.9017  0.5157  1.4326
  333MOL0     H43941   1.582   2.136   8.979 -2.7718 -1.1933  1.0369
  333MOL0     H43942   3.378   1.811   8.462 -3.2680 -2.6203 -1.3538
  333MOL0     H43943   3.549   1.651   8.402  3.5155  1.9763  0.7087
  333MOL0     H43944   4.107   1.674   8.241 -0.5218  0.3631 -0.9139
  333MOL0     H43945   4.275   1.507   8.159  1.1259  0.4021 -1.5360
  333MOL0     H43946   4.262   1.118   7.946  0.1347 -1.6869 -0.2018
  333MOL0     H43947   4.096   1.166   7.910 -1.8246  1.7332  2.7874
  333MOL0     H43948   3.998   1.059   8.108 -0.8196 -0.2582 -1.1648
  333MOL0     H43949   4.102   0.952   8.018 -2.2825 -0.0762  1.8724
  333MOL0     H43950   4.145   1.082   8.303 -0.6660  1.4379 -0.3774
  333MOL0     H43951   4.275   1.008   8.212  0.2218 -1.5546 -0.6504
  333MOL0     H43952   4.018   0.876   8.298  0.3954  0.7807  0.6029
  333MOL0     H43953   4.140   0.790   8.198  0.1193 -0.6336  1.1391
  333MOL0     H43954   4.247   0.790   8.603  0.8057  0.4517 -0.0276
  333MOL0     H43955   3.934   1.271   8.011 -0.3758  1.0325 -1.7851
  333MOL0     H43956   3.782   1.434   8.110 -0.0501  3.6821  0.5215
  334MOL0     O43957   0.783   8.395   8.822  0.1480 -0.0627 -0.2844
  334MOL0     C43958   0.776   8.277   8.789 -0.3473 -0.5662 -0.6041
  334MOL0     O43959   0.672   8.188   8.809  0.5548 -0.2710 -0.3109
  334MOL0     C43960   0.552   8.237   8.863 -0.2387  0.6123 -0.4492
  334MOL0     C43961   0.545   8.299   8.991  0.4189 -0.0800 -0.3046
  334MOL0     C43962   0.420   8.336   9.046 -0.2612  0.7367 -0.1416
  334MOL0     C43963   0.304   8.299   8.979  0.1454  0.5410  0.9258
  334MOL0     O43964   0.192   8.342   9.050  0.2386  0.5317  0.3176
  334MOL0     C43965   0.067   8.322   8.982 -0.4920  0.4238  0.6461
  334MOL0     C43966  -0.049   8.354   9.074  0.4021 -0.1153 -0.4574
  334MOL0     C43967  -0.181   8.303   9.015  0.2542  0.2540  0.5851
  334MOL0     C43968  -0.293   8.339   9.120  1.1622 -0.8369 -0.4990
  334MOL0     C43969  -0.419   8.325   9.031 -0.0077  0.1092 -0.0421
  334MOL0     C43970  -0.530   8.320   9.133 -0.5349  1.4885  0.8142
  334MOL0     C43971  -0.651   8.271   9.049 -0.1552  0.4073  0.2051
  334MOL0     C43972  -0.775   8.237   9.149 -0.1339 -0.1586  0.7174
  334MOL0     N43973  -0.901   8.262   9.071  0.1549  0.6908  1.4480
  334MOL0     C43974  -0.978   8.368   9.087 -0.3955 -0.0006 -0.7616
  334MOL0     C43975  -1.082   8.344   9.007 -0.3776  0.2271 -0.3770
  334MOL0     C43976  -1.195   8.439   8.993 -0.7359 -1.2342 -0.3301
  334MOL0     C43977  -1.323   8.368   8.959 -0.9745  0.0360  0.9682
  334MOL0     C43978  -1.435   8.472   8.944 -1.0741  0.0109  1.1556
  334MOL0     C43979  -1.526   8.483   9.058 -0.4780  0.4203 -0.2535
  334MOL0     O43980  -1.634   8.573   9.012 -0.1796 -0.1309  0.0745
  334MOL0     C43981  -1.750   8.523   8.955 -0.8729  0.0542  0.2142
  334MOL0     C43982  -1.853   8.604   8.902  0.7005 -0.1597 -0.2266
  334MOL0     C43983  -1.962   8.552   8.826 -0.5299 -0.4020  0.5493
  334MOL0     C43984  -1.974   8.408   8.818  0.0429  0.8625  0.4270
  334MOL0     C43985  -2.089   8.348   8.731 -0.8954 -0.3182 -0.3449
  334MOL0     O43986  -2.188   8.434   8.707 -0.0227 -0.2087 -0.3636
  334MOL0     C43987  -2.302   8.383   8.645 -0.0148 -0.1891  0.8076
  334MOL0     C43988  -2.295   8.321   8.514 -0.3229 -0.7894  0.4791
  334MOL0     C43989  -2.404   8.276   8.447 -0.9822  0.1682 -0.5072
  334MOL0     C43990  -2.527   8.303   8.491 -0.2250  0.2228 -0.3980
  334MOL0     O43991  -2.629   8.259   8.407 -0.4220  0.3431 -0.8818
  334MOL0     C43992  -2.739   8.344   8.412  0.5187 -0.0965  0.4613
  334MOL0     C43993  -2.859   8.298   8.498  0.1824 -0.3058  0.1414
  334MOL0     C43994  -2.939   8.196   8.409 -0.2453 -0.1184  0.1056
  334MOL0     C43995  -3.036   8.115   8.493 -0.4191 -0.1288  0.1495
  334MOL0     C43996  -3.042   7.970   8.454  1.0009 -0.9223  0.1687
  334MOL0     C43997  -3.087   7.951   8.308  0.0590  0.7005 -0.6383
  334MOL0     C43998  -3.226   8.014   8.280  0.1394 -0.2871  0.0242
  334MOL0     C43999  -3.257   7.993   8.126 -0.3636  0.2448 -0.3339
  334MOL0    Cl44000  -3.155   8.070   8.012  0.0481 -0.3251 -0.1416
  334MOL0     C44001  -2.539   8.358   8.626  1.0819  0.2164 -0.1270
  334MOL0     C44002  -2.426   8.398   8.699 -0.4532  0.0395 -0.3912
  334MOL0     O44003  -2.078   8.230   8.701 -0.1361 -0.7510  0.6040
  334MOL0     C44004  -1.888   8.328   8.891  0.2666  0.3959  0.3660
  334MOL0     C44005  -1.774   8.381   8.952  0.5814 -0.2288  0.1427
  334MOL0     N44006  -1.068   8.211   8.957  0.2431 -0.4409 -0.0460
  334MOL0     N44007  -0.955   8.170   8.981  0.0860  0.6058 -0.1977
  334MOL0     C44008   0.316   8.225   8.861  0.1866 -0.2872  1.0921
  334MOL0     C44009   0.435   8.195   8.801  0.3245  0.1254 -0.6794
  334MOL0     C44010   0.903   8.215   8.739  0.6098 -1.1040  0.6056
  334MOL0     C44011   1.014   8.293   8.719  0.7751 -0.0960 -0.4762
  334MOL0     C44012   1.137   8.239   8.669  0.1055 -0.1816  0.0038
  334MOL0     C44013   1.151   8.099   8.650  0.1034 -0.4035 -0.0093
  334MOL0     O44014   1.267   8.040   8.602 -0.0896 -0.1915  0.2938
  334MOL0     C44015   1.368   8.132   8.553 -0.1654  0.7948 -0.3658
  334MOL0     C44016   1.487   8.043   8.541 -0.5224 -0.0439 -0.4152
  334MOL0     C44017   1.516   7.971   8.679 -0.2602  0.4418 -0.4866
  334MOL0     C44018   1.663   7.927   8.704 -0.1516  0.1951  0.0789
  334MOL0     C44019   1.713   7.837   8.606 -0.1829  0.7783  0.0566
  334MOL0     C44020   1.756   7.746   8.530  0.0625  0.1096  0.1632
  334MOL0     C44021   1.045   8.020   8.684 -0.0484 -0.6799 -0.1716
  334MOL0     C44022   0.922   8.077   8.720 -0.7778 -0.1072 -0.1065
  334MOL0     H44023   0.632   8.333   9.046 -0.5755  1.3462  0.4560
  334MOL0     H44024   0.424   8.387   9.142 -0.1620 -0.6980  0.6360
  334MOL0     H44025   0.059   8.219   8.944  0.1908 -0.4280  2.6879
  334MOL0     H44026   0.053   8.387   8.895  0.0379 -0.9051 -0.4902
  334MOL0     H44027  -0.047   8.464   9.071 -1.6563 -0.0406 -0.3121
  334MOL0     H44028  -0.044   8.328   9.181 -3.6817  1.0699  0.2002
  334MOL0     H44029  -0.191   8.195   9.008  1.1436  0.0089  2.4223
  334MOL0     H44030  -0.200   8.340   8.914 -0.9842 -1.6377  0.0863
  334MOL0     H44031  -0.299   8.277   9.210  1.9264  1.3014  1.1047
  334MOL0     H44032  -0.280   8.440   9.160 -0.9406 -1.5598  2.3938
  334MOL0     H44033  -0.411   8.234   8.970 -2.8151  0.6626 -1.3978
  334MOL0     H44034  -0.438   8.411   8.966  0.3415  0.2492  0.0413
  334MOL0     H44035  -0.553   8.419   9.174  0.8687  1.7895  0.9061
  334MOL0     H44036  -0.511   8.246   9.211  0.0516  1.6187  0.7987
  334MOL0     H44037  -0.681   8.350   8.980  0.0005  3.0585  2.9847
  334MOL0     H44038  -0.626   8.185   8.985 -0.0645  0.5881 -0.0059
  334MOL0     H44039  -0.759   8.300   9.238  1.1781 -1.9380  1.8109
  334MOL0     H44040  -0.771   8.133   9.181  0.6887 -0.1175  0.7714
  334MOL0     H44041  -0.960   8.453   9.152 -3.0067 -0.3574  0.5715
  334MOL0     H44042  -1.178   8.510   8.912 -1.6167 -0.3437  0.2448
  334MOL0     H44043  -1.214   8.491   9.087  2.1491 -1.4390  0.4749
  334MOL0     H44044  -1.356   8.299   9.038 -1.7067  0.5176  1.0970
  334MOL0     H44045  -1.312   8.310   8.867 -0.1236 -0.8938  1.6262
  334MOL0     H44046  -1.395   8.573   8.933 -1.1686  0.2317  2.6976
  334MOL0     H44047  -1.491   8.445   8.854  1.4096 -2.4663  0.1933
  334MOL0     H44048  -1.459   8.529   9.131 -0.3087 -1.6410  0.9764
  334MOL0     H44049  -1.554   8.384   9.096  0.9125  0.5702  1.2943
  334MOL0     H44050  -1.846   8.712   8.912 -0.5597 -0.0661 -0.2734
  334MOL0     H44051  -2.030   8.620   8.777  0.4685 -0.4814 -1.0158
  334MOL0     H44052  -2.201   8.320   8.459 -0.5296 -1.4436  0.1338
  334MOL0     H44053  -2.373   8.229   8.354 -0.4091  0.3866 -0.4295
  334MOL0     H44054  -2.779   8.377   8.316  0.0222 -0.4129  0.5570
  334MOL0     H44055  -2.709   8.437   8.462  0.1215  0.2414  0.0742
  334MOL0     H44056  -2.923   8.385   8.513 -1.3505 -1.8594  3.6359
  334MOL0     H44057  -2.835   8.265   8.599  1.0125 -1.6629 -0.4697
  334MOL0     H44058  -2.860   8.134   8.365 -0.1551 -1.1610  1.6621
  334MOL0     H44059  -2.986   8.245   8.324 -2.3603 -1.8868  0.1721
  334MOL0     H44060  -3.014   8.134   8.599  0.3275  1.4534 -0.2604
  334MOL0     H44061  -3.132   8.167   8.486 -0.9198 -0.3543  3.4721
  334MOL0     H44062  -3.117   7.921   8.517 -0.1028 -0.2954 -0.6196
  334MOL0     H44063  -2.944   7.931   8.482  0.1227 -3.3175  0.1534
  334MOL0     H44064  -3.099   7.844   8.289  0.8665  0.2735  1.0860
  334MOL0     H44065  -3.018   7.989   8.232 -0.7345 -2.6788 -3.2940
  334MOL0     H44066  -3.302   7.955   8.332  0.3963 -1.3545 -0.7604
  334MOL0     H44067  -3.224   8.118   8.314  1.7037  0.4394 -2.0490
  334MOL0     H44068  -3.358   8.027   8.102 -1.6258 -1.5660  1.9966
  334MOL0     H44069  -3.267   7.885   8.112 -2.0081  0.1178  1.3706
  334MOL0     H44070  -2.639   8.361   8.670 -0.5428 -0.9566 -3.4088
  334MOL0     H44071  -2.423   8.442   8.798  0.0355 -2.1786  0.6316
  334MOL0     H44072  -1.911   8.223   8.906  0.5926  0.5010  1.7819
  334MOL0     H44073  -1.713   8.302   8.995  0.5060 -0.1567  0.3833
  334MOL0     H44074   0.225   8.206   8.805  1.0172 -1.8827  0.2145
  334MOL0     H44075   0.441   8.155   8.700  2.0448 -0.9048 -0.2053
  334MOL0     H44076   1.027   8.401   8.728 -0.6576  0.4643 -3.5857
  334MOL0     H44077   1.222   8.307   8.658 -1.1262  1.2898 -0.8147
  334MOL0     H44078   1.394   8.213   8.622 -1.9872  1.9009 -0.9074
  334MOL0     H44079   1.332   8.179   8.461 -1.0544 -0.2296 -0.5577
  334MOL0     H44080   1.486   7.973   8.457 -0.0900  1.0907 -1.3974
  334MOL0     H44081   1.572   8.111   8.529 -3.1345  3.7728  0.6620
  334MOL0     H44082   1.453   7.884   8.698  1.3941 -1.1017 -1.7146
  334MOL0     H44083   1.495   8.045   8.757 -1.0914  0.5263 -0.7788
  334MOL0     H44084   1.730   8.014   8.708 -1.6030  1.5566 -2.2957
  334MOL0     H44085   1.667   7.876   8.800  0.1552  0.8297  0.4076
  334MOL0     H44086   1.785   7.669   8.460  0.2221  0.2160  0.1119
  334MOL0     H44087   1.064   7.914   8.674  1.4595 -0.4030 -0.4638
  334MOL0     H44088   0.846   8.001   8.735 -0.8195  0.1687  1.2700
  335MOL0     O44089   8.758  10.106  10.814 -0.3022 -0.0592  0.3824
  335MOL0     C44090   8.820  10.173  10.725  0.6170  0.4174 -0.1508
  335MOL0     O44091   8.765  10.279  10.651 -0.6728  0.2846  0.2077
  335MOL0     C44092   8.631  10.301  10.649 -0.3496  0.7175  0.1532
  335MOL0     C44093   8.560  10.353  10.763  0.3790 -0.0205  0.4080
  335MOL0     C44094   8.418  10.362  10.756 -0.0410  0.2226 -1.4597
  335MOL0     C44095   8.347  10.344  10.644  0.1540  0.4228  1.1635
  335MOL0     O44096   8.214  10.382  10.650  0.2684  0.2920 -0.7256
  335MOL0     C44097   8.135  10.362  10.530  0.5712 -0.0923 -0.6846
  335MOL0     C44098   8.002  10.423  10.563 -0.5800 -0.2062  0.3137
  335MOL0     C44099   7.906  10.407  10.442  0.2230  0.6310 -0.5636
  335MOL0     C44100   7.758  10.423  10.499 -0.0088  0.1702 -0.1034
  335MOL0     C44101   7.647  10.417  10.394  0.3030  0.5202 -0.3071
  335MOL0     C44102   7.653  10.516  10.284 -0.1429 -0.8257  0.0672
  335MOL0     C44103   7.530  10.504  10.188 -0.3303  0.3923 -0.5643
  335MOL0     C44104   7.421  10.592  10.243 -0.0330 -0.2475 -0.0060
  335MOL0     N44105   7.298  10.567  10.166 -0.0306 -0.3455 -0.9707
  335MOL0     C44106   7.186  10.498  10.209  0.6978  1.3919 -0.5351
  335MOL0     C44107   7.089  10.528  10.114 -0.1606 -0.2445  0.6693
  335MOL0     C44108   6.940  10.489  10.109 -0.7302 -0.4135 -0.4527
  335MOL0     C44109   6.840  10.585  10.186 -0.1075 -0.1091 -0.0132
  335MOL0     C44110   6.799  10.715  10.112  0.2304 -0.1761  0.2623
  335MOL0     C44111   6.717  10.684   9.990  0.3954  0.1459 -0.3173
  335MOL0     O44112   6.646  10.803   9.956  0.3992  0.3430  0.0084
  335MOL0     C44113   6.520  10.789   9.913  0.5215 -0.0316 -0.0262
  335MOL0     C44114   6.434  10.900   9.920 -0.4257 -0.3408  0.0392
  335MOL0     C44115   6.309  10.900   9.861  0.1739 -0.6732  0.0421
  335MOL0     C44116   6.249  10.783   9.812  0.1863 -0.4990  0.6137
  335MOL0     C44117   6.109  10.776   9.762 -0.9623 -0.3269  0.1671
  335MOL0     O44118   6.037  10.893   9.763 -0.3830 -0.7137 -0.1482
  335MOL0     C44119   5.917  10.895   9.692 -0.5556  0.0126  1.0773
  335MOL0     C44120   5.912  10.975   9.577 -0.0471 -0.0464  0.3428
  335MOL0     C44121   5.795  10.988   9.508  0.0778 -0.2405 -0.2930
  335MOL0     C44122   5.675  10.920   9.560 -0.0018 -0.9304 -0.2028
  335MOL0     O44123   5.555  10.958   9.503  0.0109  0.2849 -0.2022
  335MOL0     C44124   5.449  10.867   9.510 -1.1374  0.7371  0.1307
  335MOL0     C44125   5.336  10.885   9.410  0.2772 -0.9064 -0.3532
  335MOL0     C44126   5.213  10.796   9.462 -0.4717  0.5329 -0.3901
  335MOL0     C44127   5.100  10.813   9.359  0.6401 -0.0793 -0.2381
  335MOL0     C44128   4.980  10.756   9.434 -0.5233 -0.1390  0.0548
  335MOL0     C44129   4.862  10.754   9.337  1.2894 -0.6932  0.1871
  335MOL0     C44130   4.729  10.762   9.403  0.6399  0.4213 -0.7756
  335MOL0     C44131   4.707  10.656   9.509  0.7838  0.4445 -0.4247
  335MOL0    Cl44132   4.544  10.695   9.573 -0.6615  0.3521  0.2638
  335MOL0     C44133   5.680  10.844   9.667  0.3779  0.5063 -0.0923
  335MOL0     C44134   5.806  10.826   9.731  0.7490 -0.9544  0.8777
  335MOL0     O44135   6.074  10.667   9.720  0.9256 -0.1486 -0.0699
  335MOL0     C44136   6.328  10.670   9.810 -0.2191 -0.1264  0.3735
  335MOL0     C44137   6.461  10.678   9.854  0.2293  0.0437 -0.6971
  335MOL0     N44138   7.143  10.607  10.014 -0.1410  0.5795  0.3375
  335MOL0     N44139   7.265  10.632  10.052  0.0175 -0.8691 -0.4158
  335MOL0     C44140   8.422  10.312  10.524 -0.7184 -0.2935 -0.0291
  335MOL0     C44141   8.559  10.292  10.530  0.1711 -0.2530 -0.0074
  335MOL0     C44142   8.963  10.150  10.711  0.2851 -0.4542  0.3398
  335MOL0     C44143   9.016  10.037  10.774 -0.2884  0.4770 -0.1578
  335MOL0     C44144   9.153  10.009  10.766 -0.3597 -0.4884  0.3306
  335MOL0     C44145   9.238  10.101  10.699  0.5937  0.2695 -0.8117
  335MOL0     O44146   9.375  10.062  10.705 -0.6300 -0.8429  1.0883
  335MOL0     C44147   9.470  10.173  10.678 -1.0073  0.5581 -0.2550
  335MOL0     C44148   9.501  10.178  10.529  0.0285 -0.6010  0.0375
  335MOL0     C44149   9.566  10.318  10.509  0.0120  0.4559 -0.2694
  335MOL0     C44150   9.713  10.305  10.493  0.2166 -0.3733  0.1917
  335MOL0     C44151   9.786  10.281  10.619 -0.9797 -0.1681  0.1865
  335MOL0     C44152   9.844  10.249  10.716  0.3906  0.5984 -0.0658
  335MOL0     C44153   9.180  10.205  10.627 -0.3358  0.4974  0.4736
  335MOL0     C44154   9.047  10.224  10.633 -0.5559 -1.1006  0.3726
  335MOL0     H44155   8.607  10.381  10.857  2.0194 -5.0045  1.3660
  335MOL0     H44156   8.376  10.394  10.851 -0.1275 -2.9036 -0.3251
  335MOL0     H44157   8.137  10.256  10.504  2.7249 -0.1980 -0.3296
  335MOL0     H44158   8.186  10.414  10.448  4.4092  0.1211  1.5739
  335MOL0     H44159   8.011  10.530  10.586  0.0572  0.0830 -1.1360
  335MOL0     H44160   7.966  10.369  10.651  2.4757 -1.1734  1.1071
  335MOL0     H44161   7.922  10.305  10.408 -1.8616  0.3803 -0.9134
  335MOL0     H44162   7.926  10.486  10.369 -2.1276  1.3269 -0.5475
  335MOL0     H44163   7.728  10.346  10.571 -1.4274  0.0365 -0.7977
  335MOL0     H44164   7.755  10.525  10.538 -0.7827  0.1569 -0.1114
  335MOL0     H44165   7.549  10.423  10.442 -0.1263 -1.5979 -0.8075
  335MOL0     H44166   7.649  10.318  10.347 -0.0911 -0.5307  1.7845
  335MOL0     H44167   7.747  10.511  10.228 -0.7461 -0.7289 -0.9867
  335MOL0     H44168   7.657  10.616  10.327 -2.3395 -0.0299 -1.3876
  335MOL0     H44169   7.550  10.542  10.087 -1.0363  0.5037 -0.6698
  335MOL0     H44170   7.501  10.401  10.167  1.6948 -0.2397 -0.4891
  335MOL0     H44171   7.457  10.693  10.222  0.8865 -0.2498  1.4085
  335MOL0     H44172   7.406  10.558  10.346  1.9542 -2.3439 -0.3068
  335MOL0     H44173   7.175  10.444  10.302  1.3960  0.2557 -1.0919
  335MOL0     H44174   6.957  10.391  10.154  2.9444 -0.0921 -0.8493
  335MOL0     H44175   6.901  10.480  10.007  0.5224  1.2652 -1.1239
  335MOL0     H44176   6.867  10.602  10.291 -1.0208 -1.6386  0.4950
  335MOL0     H44177   6.746  10.531  10.199 -0.8407  1.1368  0.1216
  335MOL0     H44178   6.742  10.776  10.183  0.1503  1.3124 -1.0255
  335MOL0     H44179   6.896  10.760  10.091  1.4059 -2.5214  0.3398
  335MOL0     H44180   6.648  10.601  10.010 -0.5680  1.2386  1.1431
  335MOL0     H44181   6.787  10.650   9.913 -0.6243 -0.1443 -1.1392
  335MOL0     H44182   6.461  10.996   9.962  2.2294 -0.5220 -1.0698
  335MOL0     H44183   6.254  10.992   9.877 -0.9040 -0.8939 -2.0860
  335MOL0     H44184   6.005  11.025   9.552  0.6712 -1.4395  0.1615
  335MOL0     H44185   5.778  11.061   9.430  4.0258 -1.8449 -2.9887
  335MOL0     H44186   5.414  10.864   9.613  1.8875  1.2075  1.2743
  335MOL0     H44187   5.495  10.769   9.496 -0.4434  0.9557  0.8342
  335MOL0     H44188   5.367  10.863   9.308  0.0197  1.6782 -1.0514
  335MOL0     H44189   5.301  10.989   9.408  0.9703 -0.5045  2.7370
  335MOL0     H44190   5.177  10.840   9.555 -2.1765  0.3580 -0.9378
  335MOL0     H44191   5.240  10.691   9.480 -1.5618  0.5540  1.6082
  335MOL0     H44192   5.092  10.918   9.331 -2.0527  0.1846  1.1690
  335MOL0     H44193   5.115  10.763   9.262  0.4520  2.1234 -1.4666
  335MOL0     H44194   4.952  10.823   9.516  1.2157  0.4268  0.2305
  335MOL0     H44195   5.004  10.658   9.475 -2.0467 -0.4806  0.1915
  335MOL0     H44196   4.866  10.662   9.279 -2.3582  0.0782 -1.5455
  335MOL0     H44197   4.857  10.838   9.267 -2.4065 -1.8258 -1.0902
  335MOL0     H44198   4.707  10.859   9.449  0.2144  0.2180 -0.5370
  335MOL0     H44199   4.650  10.757   9.328 -1.2535  1.0899  1.0528
  335MOL0     H44200   4.776  10.660   9.593  0.2511  0.5673  0.0100
  335MOL0     H44201   4.694  10.557   9.464  3.2964  0.6352 -1.7742
  335MOL0     H44202   5.593  10.802   9.717 -0.4244  1.0350 -1.0218
  335MOL0     H44203   5.808  10.759   9.816 -0.9759 -2.0279  0.1134
  335MOL0     H44204   6.304  10.573   9.767  1.0472 -0.7139  0.9338
  335MOL0     H44205   6.521  10.588   9.840 -2.5093 -1.6865 -2.1416
  335MOL0     H44206   8.368  10.306  10.430 -0.2250  1.3279 -0.4551
  335MOL0     H44207   8.620  10.279  10.441  1.5143  0.1874  0.8203
  335MOL0     H44208   8.956   9.965  10.829  0.6885 -1.9450 -2.0758
  335MOL0     H44209   9.206   9.928  10.816 -0.2182 -0.5346  0.1054
  335MOL0     H44210   9.562  10.156  10.734 -0.7326 -0.9129 -1.1277
  335MOL0     H44211   9.427  10.264  10.723 -0.0291  0.8258  0.1768
  335MOL0     H44212   9.574  10.101  10.502  0.5988  0.7180 -2.4255
  335MOL0     H44213   9.416  10.175  10.461  0.6714 -0.2277 -0.7880
  335MOL0     H44214   9.558  10.384  10.596  0.2064 -1.3849  1.2222
  335MOL0     H44215   9.529  10.364  10.417  0.6851  0.6765 -0.4357
  335MOL0     H44216   9.737  10.232  10.415  4.7016 -1.1501  1.9822
  335MOL0     H44217   9.761  10.395  10.454 -0.3206  1.0520  2.6415
  335MOL0     H44218   9.882  10.217  10.810 -0.5615 -1.6637 -0.3974
  335MOL0     H44219   9.234  10.276  10.566  2.8876 -1.7801  0.4544
  335MOL0     H44220   9.012  10.300  10.564 -0.4032  1.2809  2.7470
  336MOL0     O44221   9.638  10.187   6.294  0.1809 -0.0579 -0.1783
  336MOL0     C44222   9.668  10.095   6.367  0.5160 -0.7055 -0.7199
  336MOL0     O44223   9.586  10.032   6.452 -0.2517  0.0245 -0.0464
  336MOL0     C44224   9.453  10.059   6.457 -0.3013 -0.1920 -0.3458
  336MOL0     C44225   9.361   9.959   6.410 -0.3638 -0.7079  0.1717
  336MOL0     C44226   9.224   9.994   6.388 -0.7654  0.0589  1.2560
  336MOL0     C44227   9.177  10.118   6.411  0.0104 -0.3349  0.3617
  336MOL0     O44228   9.057  10.169   6.387  0.2614 -0.4204  0.1129
  336MOL0     C44229   8.951  10.085   6.363 -0.6813 -0.7878 -0.1334
  336MOL0     C44230   8.822  10.158   6.357  0.0844 -0.0265  0.1754
  336MOL0     C44231   8.702  10.065   6.345  0.0846 -0.2150 -0.3566
  336MOL0     C44232   8.567  10.141   6.334  0.3001  1.1190  0.3451
  336MOL0     C44233   8.453  10.043   6.362  1.4351  0.1041 -0.3791
  336MOL0     C44234   8.429  10.006   6.508  0.2408 -0.2089 -0.9772
  336MOL0     C44235   8.317   9.910   6.521 -0.7127  0.4412 -0.0629
  336MOL0     C44236   8.174   9.968   6.478  0.2695 -0.0953 -1.1078
  336MOL0     N44237   8.059   9.882   6.477 -0.1300  0.5721 -0.1163
  336MOL0     C44238   8.057   9.753   6.530  0.0307 -0.3734  0.0776
  336MOL0     C44239   7.916   9.725   6.518 -0.5038  0.0261 -0.7104
  336MOL0     C44240   7.848   9.613   6.579 -0.3610  0.3384  0.2121
  336MOL0     C44241   7.855   9.621   6.730  0.2794 -0.0033 -0.7733
  336MOL0     C44242   7.780   9.497   6.797 -0.5178  0.0401 -0.6037
  336MOL0     C44243   7.790   9.492   6.948 -0.4974 -0.6915 -0.4725
  336MOL0     O44244   7.713   9.603   7.009 -0.0139 -0.0384 -0.4222
  336MOL0     C44245   7.577   9.604   6.996 -0.2394  0.1367 -0.4644
  336MOL0     C44246   7.490   9.491   6.981 -0.4902  0.1527 -0.6233
  336MOL0     C44247   7.353   9.498   6.987  0.6181 -0.7794 -0.8352
  336MOL0     C44248   7.294   9.622   7.038  0.3185 -0.4661  0.4489
  336MOL0     C44249   7.141   9.629   7.075 -0.0068 -0.2219 -0.2752
  336MOL0     O44250   7.093   9.752   7.112  0.5076  0.1533  0.1803
  336MOL0     C44251   6.962   9.747   7.163  0.1669  0.6427 -0.0645
  336MOL0     C44252   6.937   9.693   7.291 -0.2099 -0.5656  0.7932
  336MOL0     C44253   6.802   9.688   7.339 -0.2089 -1.1033 -0.0450
  336MOL0     C44254   6.694   9.736   7.256 -0.0188 -0.7247 -0.2985
  336MOL0     O44255   6.562   9.746   7.293  0.2596  0.3880  0.6143
  336MOL0     C44256   6.540   9.721   7.435  0.5621 -0.3455  0.8172
  336MOL0     C44257   6.392   9.758   7.467 -0.2541 -0.8918  0.5301
  336MOL0     C44258   6.286   9.704   7.374 -0.5673  0.4660  0.1108
  336MOL0     C44259   6.147   9.746   7.430  0.6011 -0.0510  0.0766
  336MOL0     C44260   6.042   9.654   7.354 -0.4800  0.0769  0.1659
  336MOL0     C44261   5.907   9.686   7.418 -0.7306 -0.2366 -0.0170
  336MOL0     C44262   5.800   9.629   7.323 -1.1648 -0.1215  0.6364
  336MOL0     C44263   5.661   9.614   7.388 -1.2004 -0.1711  0.1211
  336MOL0    Cl44264   5.545   9.578   7.250  0.1890 -0.1810 -0.4240
  336MOL0     C44265   6.726   9.786   7.128 -0.1585  0.0469 -0.0130
  336MOL0     C44266   6.856   9.787   7.079 -0.9103  0.2936  0.0581
  336MOL0     O44267   7.082   9.524   7.075  0.2061  0.2974 -0.2648
  336MOL0     C44268   7.374   9.730   7.055  0.5952  0.6128 -1.0172
  336MOL0     C44269   7.512   9.719   7.041 -0.1088  0.1110  0.0012
  336MOL0     N44270   7.855   9.814   6.446  0.1754  0.1695 -0.2739
  336MOL0     N44271   7.940   9.911   6.424  0.0242 -0.4923  0.1414
  336MOL0     C44272   9.264  10.214   6.472 -0.1502 -0.1009 -0.3908
  336MOL0     C44273   9.400  10.188   6.490  0.6425  0.2956 -0.0964
  336MOL0     C44274   9.814  10.061   6.372  0.6657  0.0457 -0.3374
  336MOL0     C44275   9.916  10.127   6.296  0.0096 -0.1113 -0.0714
  336MOL0     C44276  10.044  10.070   6.282  0.2027 -0.9018 -0.7606
  336MOL0     C44277  10.080   9.951   6.354  0.1481 -0.7890 -0.2799
  336MOL0     O44278  10.187   9.869   6.340 -0.1773 -0.2200  0.5521
  336MOL0     C44279  10.300   9.927   6.272 -1.0493 -0.4227  0.0797
  336MOL0     C44280  10.428   9.856   6.308 -0.9440 -0.5055 -0.0825
  336MOL0     C44281  10.472   9.877   6.454  0.6293  0.2864  0.1521
  336MOL0     C44282  10.550  10.014   6.455  0.3055  0.4189 -0.2471
  336MOL0     C44283  10.589  10.043   6.594  0.2678  0.2428  0.2154
  336MOL0     C44284  10.634  10.059   6.709  0.7664 -0.3753 -0.5484
  336MOL0     C44285   9.979   9.900   6.438 -0.2098  0.0623  0.1956
  336MOL0     C44286   9.854   9.948   6.445  0.4165 -0.1306 -0.3718
  336MOL0     H44287   9.394   9.857   6.388  0.9404 -0.4866  0.9854
  336MOL0     H44288   9.162   9.927   6.330  0.3240  1.1429 -1.3125
  336MOL0     H44289   8.942  10.000   6.432  0.7710 -0.2939  0.6916
  336MOL0     H44290   8.976  10.043   6.265 -1.8509 -3.2930  0.5612
  336MOL0     H44291   8.825  10.234   6.278 -1.7298 -1.7029 -1.6252
  336MOL0     H44292   8.813  10.218   6.448  1.1893  1.1865 -0.4908
  336MOL0     H44293   8.703   9.998   6.431  2.6122  0.4681  0.2447
  336MOL0     H44294   8.720  10.002   6.257 -0.8709 -2.7452  1.1496
  336MOL0     H44295   8.562  10.219   6.411  0.1695  0.1846  1.3201
  336MOL0     H44296   8.560  10.187   6.235  2.3520  2.1109  0.6184
  336MOL0     H44297   8.453   9.958   6.293 -0.0322 -0.8889  0.7687
  336MOL0     H44298   8.365  10.105   6.343  0.3060 -1.8520 -1.9253
  336MOL0     H44299   8.407  10.099   6.562 -1.9212 -1.0573 -0.2604
  336MOL0     H44300   8.518   9.955   6.545  0.4144 -0.5206 -1.8192
  336MOL0     H44301   8.349   9.828   6.456  0.5319 -0.4575  1.6054
  336MOL0     H44302   8.320   9.863   6.620  2.0176  1.1678  0.2971
  336MOL0     H44303   8.188  10.003   6.376  2.6103  0.4215 -0.6766
  336MOL0     H44304   8.157  10.056   6.541 -1.8420 -2.2568  1.6142
  336MOL0     H44305   8.126   9.681   6.572 -0.1628 -0.3507  0.4335
  336MOL0     H44306   7.878   9.514   6.542  1.5480  1.8912 -2.7299
  336MOL0     H44307   7.741   9.616   6.557 -0.4214 -2.3035 -0.2306
  336MOL0     H44308   7.803   9.715   6.750 -0.0738  0.8919 -4.8987
  336MOL0     H44309   7.956   9.627   6.770 -0.6752  0.9598  1.6949
  336MOL0     H44310   7.677   9.485   6.761 -1.0306 -0.1355  0.8876
  336MOL0     H44311   7.833   9.404   6.773 -1.0508  0.1639 -2.4327
  336MOL0     H44312   7.895   9.510   6.974 -0.2107 -0.4616 -1.7162
  336MOL0     H44313   7.750   9.399   6.989 -0.1642  0.3604  2.4618
  336MOL0     H44314   7.533   9.394   6.956  1.9068  1.0346 -0.1766
  336MOL0     H44315   7.287   9.412   6.975 -1.1714  0.7274 -2.7002
  336MOL0     H44316   7.015   9.661   7.360  1.2536  0.2858 -0.4137
  336MOL0     H44317   6.791   9.645   7.438 -1.1742 -0.2439  0.2368
  336MOL0     H44318   6.602   9.791   7.490 -0.8846  2.4925 -0.9143
  336MOL0     H44319   6.546   9.615   7.460 -0.7690 -1.2079 -2.0617
  336MOL0     H44320   6.391   9.867   7.467  0.3894 -0.8485 -1.1317
  336MOL0     H44321   6.375   9.739   7.573  0.7678  3.6385  1.7238
  336MOL0     H44322   6.289   9.594   7.374 -2.5422  0.2686  3.3536
  336MOL0     H44323   6.299   9.755   7.279  1.5890  0.7446  0.4924
  336MOL0     H44324   6.156   9.732   7.539  2.5749 -0.3119 -0.0903
  336MOL0     H44325   6.125   9.847   7.397 -1.5690 -0.3883  0.3550
  336MOL0     H44326   6.066   9.548   7.366 -1.6652 -0.2152  0.0516
  336MOL0     H44327   6.045   9.676   7.247  1.6250 -0.4273  0.0727
  336MOL0     H44328   5.884   9.793   7.431  0.3116 -0.0574  0.4838
  336MOL0     H44329   5.904   9.630   7.512 -0.2699 -1.7248 -0.8606
  336MOL0     H44330   5.806   9.700   7.240  1.0627  0.2079  1.0110
  336MOL0     H44331   5.833   9.530   7.290 -1.5005  0.0515 -0.2505
  336MOL0     H44332   5.627   9.691   7.457 -2.0323 -0.5114  0.1038
  336MOL0     H44333   5.665   9.529   7.457 -0.4138 -1.3919 -1.3773
  336MOL0     H44334   6.641   9.824   7.072 -1.5860 -1.3278  1.1295
  336MOL0     H44335   6.885   9.823   6.981 -0.3239 -0.6320 -0.1270
  336MOL0     H44336   7.327   9.825   7.081  0.1490 -0.0388  0.6268
  336MOL0     H44337   7.570   9.807   7.066  4.1770 -2.8099  1.5020
  336MOL0     H44338   9.236  10.311   6.512 -0.9743  0.1889 -1.6048
  336MOL0     H44339   9.468  10.267   6.519  0.4220  0.5032 -0.1333
  336MOL0     H44340   9.883  10.213   6.239 -0.9079  0.1943  0.8878
  336MOL0     H44341  10.112  10.113   6.209  0.5945 -1.3621 -0.6753
  336MOL0     H44342  10.314  10.034   6.290 -3.5227  0.2155 -1.2316
  336MOL0     H44343  10.281   9.922   6.164 -0.3920  0.4983 -0.0936
  336MOL0     H44344  10.405   9.752   6.284 -1.6230 -0.5159  0.5691
  336MOL0     H44345  10.502   9.894   6.238 -0.3598 -0.0481  0.7683
  336MOL0     H44346  10.543   9.800   6.486  1.8136  2.0642  2.0633
  336MOL0     H44347  10.380   9.873   6.513  0.5608  2.2540  0.2492
  336MOL0     H44348  10.645  10.017   6.400  1.7318  2.2726  2.1347
  336MOL0     H44349  10.475  10.088   6.426  0.9239  0.9582 -0.4691
  336MOL0     H44350  10.679  10.098   6.798 -2.3460  1.5474  0.3762
  336MOL0     H44351   9.993   9.805   6.489  0.3882 -0.4400 -0.8743
  336MOL0     H44352   9.791   9.900   6.519 -1.3461 -2.1846 -3.0280
  337MOL0     O44353   6.937   1.818   7.562  0.3327 -0.6895 -0.5882
  337MOL0     C44354   6.874   1.770   7.469 -0.0262 -0.2412 -0.3927
  337MOL0     O44355   6.750   1.813   7.426  0.5816 -0.4056  0.1683
  337MOL0     C44356   6.664   1.894   7.498 -0.1445 -0.3266  0.2184
  337MOL0     C44357   6.552   1.942   7.429  0.7515  0.1600  0.2546
  337MOL0     C44358   6.448   2.009   7.494  0.3602 -0.1119 -0.0050
  337MOL0     C44359   6.456   2.029   7.632  0.5068 -0.1346 -0.5006
  337MOL0     O44360   6.367   2.090   7.714  0.4630  0.2567  0.6747
  337MOL0     C44361   6.248   2.159   7.658  0.2144 -0.1564  1.0648
  337MOL0     C44362   6.141   2.058   7.609  0.0704 -0.7076 -0.2312
  337MOL0     C44363   6.021   2.151   7.566  0.7238 -0.7732  1.0778
  337MOL0     C44364   5.943   2.101   7.446 -0.8309  0.0570  0.1150
  337MOL0     C44365   5.829   2.188   7.393  0.2705 -0.4175 -0.0102
  337MOL0     C44366   5.737   2.113   7.315  0.2801  0.3493  0.0855
  337MOL0     C44367   5.624   2.206   7.280  0.3484 -0.0564  1.3771
  337MOL0     C44368   5.533   2.149   7.181 -0.4240  0.0020 -0.5049
  337MOL0     N44369   5.422   2.240   7.158  0.6835  0.1383  0.7348
  337MOL0     C44370   5.393   2.336   7.055  0.0172  1.1368  0.5093
  337MOL0     C44371   5.272   2.383   7.074 -0.2351 -0.1205 -0.9023
  337MOL0     C44372   5.190   2.470   6.987  0.6374 -0.3901  0.4923
  337MOL0     C44373   5.039   2.464   7.020  0.5485 -0.6729 -0.3918
  337MOL0     C44374   4.951   2.535   6.920  0.0527  0.2266  0.1747
  337MOL0     C44375   4.798   2.497   6.938 -0.3449 -0.4988  0.4958
  337MOL0     O44376   4.719   2.614   6.925 -0.2584 -0.8446  0.0469
  337MOL0     C44377   4.585   2.602   6.913 -0.3050  0.6069 -0.3967
  337MOL0     C44378   4.518   2.713   6.852 -0.3249  0.0251  0.8267
  337MOL0     C44379   4.379   2.703   6.828 -0.3743  0.0250  0.3892
  337MOL0     C44380   4.304   2.595   6.865  0.6874  0.1706 -0.3976
  337MOL0     C44381   4.155   2.595   6.830 -1.1044  0.0677 -0.2713
  337MOL0     O44382   4.105   2.691   6.747  0.5364 -0.0267  0.1452
  337MOL0     C44383   3.969   2.694   6.703 -0.5259  0.2445  0.2067
  337MOL0     C44384   3.866   2.608   6.752 -0.3912 -0.6153  0.8098
  337MOL0     C44385   3.734   2.617   6.704 -0.1697 -0.0121  0.6683
  337MOL0     C44386   3.708   2.716   6.609  0.5773 -0.8207  0.5046
  337MOL0     O44387   3.575   2.755   6.580  0.1891 -0.6245 -0.1835
  337MOL0     C44388   3.462   2.676   6.620  0.0697  0.1094  0.6501
  337MOL0     C44389   3.353   2.737   6.526  0.5795 -0.2721  0.4921
  337MOL0     C44390   3.213   2.658   6.523 -1.5071  0.6820 -0.2514
  337MOL0     C44391   3.122   2.727   6.421 -0.5319 -0.3581 -0.2847
  337MOL0     C44392   2.985   2.664   6.395 -0.4319 -0.8644 -1.1502
  337MOL0     C44393   2.896   2.731   6.494  0.4740  0.4132  0.1805
  337MOL0     C44394   2.750   2.682   6.497 -0.6404 -0.0204 -0.0013
  337MOL0     C44395   2.717   2.592   6.616 -0.3955  0.3039  0.0360
  337MOL0    Cl44396   2.823   2.444   6.606 -0.0377 -0.1712  0.2802
  337MOL0     C44397   3.808   2.796   6.551  0.2122  0.0911  0.5059
  337MOL0     C44398   3.940   2.783   6.600  0.2407  0.0799 -0.4047
  337MOL0     O44399   4.093   2.505   6.890  0.8800  0.0262 -0.2039
  337MOL0     C44400   4.375   2.488   6.920 -0.5573 -0.0438  0.4191
  337MOL0     C44401   4.512   2.490   6.950 -0.5923  0.4024  0.5041
  337MOL0     N44402   5.223   2.329   7.194  0.2052 -0.7422  0.4960
  337MOL0     N44403   5.318   2.251   7.246  0.7176 -0.4227  0.3904
  337MOL0     C44404   6.565   1.980   7.700 -0.2859  0.4185  0.4760
  337MOL0     C44405   6.670   1.913   7.629  0.6469 -0.3963  0.1188
  337MOL0     C44406   6.934   1.653   7.398 -0.0592 -0.1856 -0.1237
  337MOL0     C44407   7.032   1.575   7.455  0.4163  0.5809 -0.0964
  337MOL0     C44408   7.096   1.471   7.375 -0.3570  0.0942 -0.1690
  337MOL0     C44409   7.055   1.438   7.243 -0.2312 -0.3584 -0.2366
  337MOL0     O44410   7.113   1.328   7.173  0.0295 -0.4760  0.2936
  337MOL0     C44411   7.251   1.306   7.198  0.1993 -1.0651  0.4778
  337MOL0     C44412   7.335   1.423   7.134 -0.9452 -0.0797 -0.4840
  337MOL0     C44413   7.485   1.377   7.163 -0.5239 -0.6997 -0.2774
  337MOL0     C44414   7.535   1.345   7.312  0.3232 -0.4876 -0.1259
  337MOL0     C44415   7.516   1.464   7.398  0.6791 -0.1415  0.4716
  337MOL0     C44416   7.494   1.559   7.466 -0.0476 -0.2778 -0.7310
  337MOL0     C44417   6.960   1.521   7.189  0.7043  0.3846 -1.1018
  337MOL0     C44418   6.897   1.621   7.263 -0.1096 -0.2682  0.4157
  337MOL0     H44419   6.544   1.924   7.322  1.4214 -0.5213  0.3071
  337MOL0     H44420   6.371   2.057   7.436 -0.5616  2.8501  3.3072
  337MOL0     H44421   6.285   2.228   7.582 -1.1825  1.2389  1.6033
  337MOL0     H44422   6.204   2.221   7.736  0.8578  3.0921 -0.9876
  337MOL0     H44423   6.108   1.992   7.689 -3.1947  0.6248 -0.3643
  337MOL0     H44424   6.176   1.997   7.525 -1.3812 -1.7268 -0.1217
  337MOL0     H44425   6.051   2.256   7.557  0.9997 -0.8879  0.6470
  337MOL0     H44426   5.953   2.149   7.652  1.2438 -2.4820  1.4808
  337MOL0     H44427   6.007   2.074   7.362 -1.2084  1.5662 -0.6961
  337MOL0     H44428   5.900   2.003   7.464 -1.2250 -0.0080 -1.0948
  337MOL0     H44429   5.864   2.277   7.340  0.3720  0.0108  0.7672
  337MOL0     H44430   5.778   2.223   7.484  1.0680 -0.8932  0.6319
  337MOL0     H44431   5.694   2.032   7.374 -1.8124  1.4235  0.1312
  337MOL0     H44432   5.782   2.069   7.226 -1.4837 -0.8284 -0.2702
  337MOL0     H44433   5.564   2.225   7.370  1.3470 -2.0902  2.5550
  337MOL0     H44434   5.659   2.300   7.238 -0.7269 -0.9989 -1.8946
  337MOL0     H44435   5.484   2.059   7.218 -3.3104  1.1270 -1.3853
  337MOL0     H44436   5.590   2.130   7.090  1.4213 -0.1530  0.6167
  337MOL0     H44437   5.459   2.350   6.970 -1.5009  1.1082 -0.7151
  337MOL0     H44438   5.209   2.433   6.886  3.0812  0.1535  0.7027
  337MOL0     H44439   5.242   2.566   6.991 -2.0426  1.1512  0.7661
  337MOL0     H44440   5.030   2.512   7.118 -2.0214  1.2155 -1.4407
  337MOL0     H44441   5.020   2.357   7.027 -0.7378 -0.3998  0.7649
  337MOL0     H44442   4.958   2.644   6.928  2.2929  0.3143 -1.6089
  337MOL0     H44443   4.980   2.507   6.818  0.0251  1.3837 -0.1559
  337MOL0     H44444   4.802   2.445   7.034  2.4596 -1.3903  0.0026
  337MOL0     H44445   4.755   2.425   6.869  1.1051  0.9155 -2.0333
  337MOL0     H44446   4.577   2.788   6.800  2.2334 -3.8333 -2.4738
  337MOL0     H44447   4.332   2.774   6.761 -0.2986 -1.6305 -1.4961
  337MOL0     H44448   3.863   2.530   6.828 -0.8312 -0.8659  0.5382
  337MOL0     H44449   3.664   2.549   6.751  2.4518 -2.3861  1.3846
  337MOL0     H44450   3.423   2.679   6.722 -2.8742 -0.4636 -0.3710
  337MOL0     H44451   3.479   2.576   6.578 -1.1713  0.2869 -0.3432
  337MOL0     H44452   3.384   2.746   6.421 -1.8294 -0.5332 -0.3137
  337MOL0     H44453   3.337   2.840   6.558 -0.2353 -1.1066  2.9656
  337MOL0     H44454   3.159   2.662   6.618 -0.4303  2.1535  0.3189
  337MOL0     H44455   3.233   2.554   6.497  1.4149  0.1308  3.4559
  337MOL0     H44456   3.118   2.829   6.459  0.5115  0.3683 -1.9883
  337MOL0     H44457   3.182   2.715   6.330  0.0416 -4.5893  0.4417
  337MOL0     H44458   2.989   2.557   6.418 -4.2713 -0.6092  1.7062
  337MOL0     H44459   2.941   2.675   6.296 -1.4691 -3.7050 -1.0801
  337MOL0     H44460   2.880   2.835   6.464 -1.0599 -0.7214 -3.6412
  337MOL0     H44461   2.942   2.721   6.592  1.8837 -3.7290 -0.7004
  337MOL0     H44462   2.687   2.771   6.504  4.3806  3.9166  0.9181
  337MOL0     H44463   2.720   2.636   6.402 -2.6184  2.8583 -0.9264
  337MOL0     H44464   2.611   2.564   6.612 -0.7922  1.8452 -1.9771
  337MOL0     H44465   2.743   2.652   6.704 -2.1642  2.7909 -0.9879
  337MOL0     H44466   3.797   2.873   6.475  4.3594 -0.8271 -1.2664
  337MOL0     H44467   4.017   2.845   6.557 -0.7772 -0.5281 -3.2931
  337MOL0     H44468   4.322   2.394   6.934 -1.7569  0.9146  3.1190
  337MOL0     H44469   4.561   2.413   7.010  0.3063  1.2871  0.9395
  337MOL0     H44470   6.577   2.002   7.806 -0.3500 -1.3174  0.8643
  337MOL0     H44471   6.747   1.873   7.694  0.4958 -0.4822  0.2451
  337MOL0     H44472   7.067   1.587   7.557  0.1139  0.7507 -0.0098
  337MOL0     H44473   7.172   1.412   7.425 -0.8838 -0.3463  0.1270
  337MOL0     H44474   7.287   1.219   7.141  0.9469 -1.0232  0.8824
  337MOL0     H44475   7.264   1.295   7.306 -2.6969  0.7695  1.1340
  337MOL0     H44476   7.311   1.437   7.029 -1.5039 -1.2865 -0.5276
  337MOL0     H44477   7.316   1.521   7.181  1.2957  0.8547 -1.3797
  337MOL0     H44478   7.557   1.456   7.137  0.3526 -0.5552  2.2751
  337MOL0     H44479   7.522   1.290   7.108 -0.2772 -0.0517 -1.1758
  337MOL0     H44480   7.476   1.267   7.361 -1.2984 -0.4275 -1.8613
  337MOL0     H44481   7.635   1.300   7.314  0.0012 -1.2783 -0.8930
  337MOL0     H44482   7.471   1.644   7.526 -1.5211 -1.0884 -0.1032
  337MOL0     H44483   6.930   1.484   7.092 -1.1625 -0.8351 -0.1158
  337MOL0     H44484   6.820   1.677   7.211 -2.2705 -1.8947  1.7130
  338MOL0     O44485   8.382   3.437   8.844  0.2373  0.2074 -0.6634
  338MOL0     C44486   8.304   3.533   8.873  0.1372  0.2259  0.8188
  338MOL0     O44487   8.319   3.633   8.962 -0.3244  0.0881 -0.3362
  338MOL0     C44488   8.432   3.628   9.042  0.7985  0.0391  0.3573
  338MOL0     C44489   8.489   3.507   9.100  0.1261 -0.9071  0.8643
  338MOL0     C44490   8.608   3.508   9.163 -0.3529  0.7506 -0.8289
  338MOL0     C44491   8.675   3.629   9.195 -0.9444  0.5729 -0.2465
  338MOL0     O44492   8.803   3.640   9.249  1.2492  0.5868  0.1331
  338MOL0     C44493   8.889   3.522   9.249  0.5336 -0.4818  0.0162
  338MOL0     C44494   9.041   3.547   9.293  0.1046 -0.5502 -0.2578
  338MOL0     C44495   9.062   3.641   9.413  1.5404 -0.3377  0.6877
  338MOL0     C44496   8.998   3.585   9.532  0.1609  0.4048 -0.0891
  338MOL0     C44497   9.061   3.644   9.667 -0.1544  0.0193  0.5136
  338MOL0     C44498   9.042   3.794   9.682 -1.1826 -0.8476 -0.4693
  338MOL0     C44499   9.097   3.840   9.817 -0.1539  0.0011  0.3880
  338MOL0     C44500   9.162   3.975   9.824  0.3561  0.0607 -0.6449
  338MOL0     N44501   9.056   4.076   9.854 -0.5072 -0.5977 -0.4201
  338MOL0     C44502   8.926   4.065   9.892  0.1928  0.1408  0.0590
  338MOL0     C44503   8.888   4.188   9.938  0.3341 -0.1048  0.1632
  338MOL0     C44504   8.746   4.235   9.971  0.0364 -0.3617 -0.8753
  338MOL0     C44505   8.741   4.328  10.082  0.0792 -0.6433  0.2834
  338MOL0     C44506   8.610   4.403  10.098  0.4346 -0.0746 -0.3320
  338MOL0     C44507   8.504   4.297  10.128 -0.4562 -0.4014  0.3636
  338MOL0     O44508   8.540   4.249  10.253 -0.5980 -0.3485  0.1404
  338MOL0     C44509   8.460   4.146  10.298  0.2623  0.1405 -0.3394
  338MOL0     C44510   8.491   4.104  10.426 -0.2865  0.5614  0.5051
  338MOL0     C44511   8.422   4.000  10.483 -0.4189  0.2359  0.8112
  338MOL0     C44512   8.314   3.935  10.414  0.0527  0.0285 -0.5965
  338MOL0     C44513   8.225   3.832  10.480 -0.3592  0.7425 -0.0813
  338MOL0     O44514   8.266   3.795  10.615 -0.1260 -0.3247  0.4989
  338MOL0     C44515   8.181   3.710  10.676 -0.6447  0.3231  0.2097
  338MOL0     C44516   8.216   3.576  10.680  0.3231 -0.2585  0.0139
  338MOL0     C44517   8.126   3.487  10.739  0.5432  0.1970 -0.7263
  338MOL0     C44518   8.011   3.529  10.808  0.6596 -0.6700  0.3141
  338MOL0     O44519   7.925   3.444  10.863  0.5549 -0.2787 -0.4318
  338MOL0     C44520   7.796   3.486  10.915 -0.7075  0.4145  0.1765
  338MOL0     C44521   7.724   3.360  10.955 -0.2327 -0.0004 -0.4417
  338MOL0     C44522   7.592   3.388  11.030 -0.1936 -0.3554 -0.0116
  338MOL0     C44523   7.532   3.259  11.074 -0.0876 -0.1809  0.0694
  338MOL0     C44524   7.417   3.279  11.175  0.2277 -1.1617  0.0604
  338MOL0     C44525   7.326   3.159  11.195 -0.1009 -0.1925 -0.9292
  338MOL0     C44526   7.187   3.204  11.239 -0.0375  0.0465  0.8577
  338MOL0     C44527   7.083   3.095  11.253 -0.5659 -0.5012  0.7121
  338MOL0    Cl44528   7.164   2.964  11.357 -0.2383 -0.1602  0.2626
  338MOL0     C44529   7.970   3.663  10.778  0.2178  0.0188 -0.2285
  338MOL0     C44530   8.060   3.757  10.718  1.2731  0.2338  0.8214
  338MOL0     O44531   8.128   3.788  10.419  1.5125 -0.7438  0.1701
  338MOL0     C44532   8.295   3.966  10.279  0.3892 -0.6530  0.0559
  338MOL0     C44533   8.366   4.075  10.223 -0.4807 -0.4686  0.5034
  338MOL0     N44534   8.996   4.274   9.915  0.4861  0.3025  0.6376
  338MOL0     N44535   9.095   4.203   9.875 -0.5839  0.6169  0.2876
  338MOL0     C44536   8.625   3.745   9.134  0.3819 -0.6121  0.4571
  338MOL0     C44537   8.498   3.746   9.070 -0.1752  0.2685 -0.2489
  338MOL0     C44538   8.170   3.527   8.803  0.0061 -0.1613  0.1396
  338MOL0     C44539   8.099   3.645   8.779  0.3634  0.4893 -0.9925
  338MOL0     C44540   7.970   3.648   8.732 -0.2642  0.2182 -0.4370
  338MOL0     C44541   7.895   3.531   8.703  0.0581 -0.2370 -1.3795
  338MOL0     O44542   7.769   3.536   8.662  0.4095  0.4881 -0.1718
  338MOL0     C44543   7.747   3.626   8.541 -0.0711  0.3755 -0.3345
  338MOL0     C44544   7.645   3.557   8.453  0.1192 -0.7392 -0.5925
  338MOL0     C44545   7.580   3.654   8.359 -0.4441 -0.0285  0.5441
  338MOL0     C44546   7.494   3.583   8.256 -0.4045 -0.6783  0.3169
  338MOL0     C44547   7.350   3.613   8.272 -0.5531  0.0461  0.6266
  338MOL0     C44548   7.233   3.638   8.297 -0.1210 -0.5667  0.7789
  338MOL0     C44549   7.968   3.414   8.738 -0.8209 -0.5923 -0.2345
  338MOL0     C44550   8.101   3.410   8.774  0.9145 -0.3613  0.6194
  338MOL0     H44551   8.442   3.411   9.080 -3.4082  0.3338  2.3908
  338MOL0     H44552   8.658   3.413   9.183 -3.0585 -0.9153 -1.4306
  338MOL0     H44553   8.890   3.469   9.154  1.4582 -1.6335  0.6429
  338MOL0     H44554   8.852   3.454   9.326  1.0881 -0.6090  0.1771
  338MOL0     H44555   9.091   3.596   9.209 -2.6537  1.2200 -1.0027
  338MOL0     H44556   9.088   3.450   9.313  2.4202  0.5077 -0.2057
  338MOL0     H44557   9.033   3.744   9.388  0.0098 -1.3789 -2.2738
  338MOL0     H44558   9.169   3.647   9.434  1.6079 -0.0650  0.2600
  338MOL0     H44559   8.893   3.615   9.538  0.0621  0.2330 -0.9025
  338MOL0     H44560   9.005   3.476   9.537 -0.9110  0.3326  0.0413
  338MOL0     H44561   9.169   3.625   9.667 -0.1649 -0.1987 -0.9390
  338MOL0     H44562   9.027   3.586   9.754 -0.1374  0.1123  0.5820
  338MOL0     H44563   8.937   3.824   9.681 -0.8073  0.4965 -1.1874
  338MOL0     H44564   9.108   3.839   9.607  0.3499 -1.4110  0.4916
  338MOL0     H44565   9.019   3.821   9.892 -1.6609  1.3415 -0.7540
  338MOL0     H44566   9.177   3.771   9.843 -0.2718  0.1224  1.0920
  338MOL0     H44567   9.225   3.999   9.738  1.7863 -0.1637  0.3057
  338MOL0     H44568   9.234   3.971   9.906 -1.1469  1.3511  0.8185
  338MOL0     H44569   8.854   3.986   9.874 -0.2506  0.4712  0.3710
  338MOL0     H44570   8.694   4.145  10.005 -0.3804 -0.4842 -1.7890
  338MOL0     H44571   8.686   4.267   9.886  1.0637 -1.4048 -2.0515
  338MOL0     H44572   8.812   4.409  10.063 -0.5108 -0.4085 -0.9558
  338MOL0     H44573   8.769   4.286  10.179  0.1547 -2.0915 -0.3434
  338MOL0     H44574   8.620   4.469  10.185  2.2535 -0.6912 -0.0261
  338MOL0     H44575   8.580   4.446  10.002  1.0753  0.7654 -0.1701
  338MOL0     H44576   8.503   4.218  10.052  0.7669  0.9843 -1.1533
  338MOL0     H44577   8.399   4.327  10.132 -0.1131  1.2253 -1.5459
  338MOL0     H44578   8.561   4.155  10.492 -0.3811  0.5950  0.5788
  338MOL0     H44579   8.444   3.981  10.587 -0.6180  2.3549  1.2849
  338MOL0     H44580   8.312   3.543  10.644  0.1955 -1.6262  0.8410
  338MOL0     H44581   8.140   3.381  10.753 -0.6327  0.0132 -0.8119
  338MOL0     H44582   7.735   3.509  10.828 -1.6118 -0.7041  0.4942
  338MOL0     H44583   7.786   3.569  10.986 -0.3683  3.0068 -2.6092
  338MOL0     H44584   7.784   3.301  11.026 -3.8491 -0.2850  2.7152
  338MOL0     H44585   7.703   3.296  10.869 -1.0678 -1.6737  0.9323
  338MOL0     H44586   7.531   3.449  10.963  1.0752  0.9036 -0.0605
  338MOL0     H44587   7.610   3.441  11.124  0.7224  2.4102 -1.6338
  338MOL0     H44588   7.506   3.192  10.991  1.0504 -1.3938  0.6442
  338MOL0     H44589   7.612   3.202  11.122 -1.1333 -0.5853  1.3929
  338MOL0     H44590   7.354   3.355  11.127  0.8373 -0.5816  0.1640
  338MOL0     H44591   7.453   3.302  11.275  1.0523 -0.8459 -0.2982
  338MOL0     H44592   7.369   3.096  11.273 -3.2335  1.0863  2.0926
  338MOL0     H44593   7.308   3.102  11.104 -2.3269 -0.0089 -0.6497
  338MOL0     H44594   7.194   3.257  11.334  2.7327  0.5064  0.4782
  338MOL0     H44595   7.133   3.271  11.170 -2.5478  0.0771  2.6972
  338MOL0     H44596   7.072   3.050  11.154  0.1838 -1.3230  0.9956
  338MOL0     H44597   6.988   3.134  11.291 -0.1872 -0.9090  2.1394
  338MOL0     H44598   7.875   3.697  10.818  1.1541  0.1941  1.9962
  338MOL0     H44599   8.038   3.862  10.700  2.5933  0.4120  0.1654
  338MOL0     H44600   8.217   3.925  10.215 -0.2183  1.6936 -0.8254
  338MOL0     H44601   8.345   4.110  10.122  0.9729 -0.6013  0.1328
  338MOL0     H44602   8.679   3.840   9.141 -0.6437  0.1503 -1.3400
  338MOL0     H44603   8.468   3.832   9.010 -0.2905 -1.6290 -3.1093
  338MOL0     H44604   8.130   3.741   8.820  1.6479  0.0450 -0.8605
  338MOL0     H44605   7.916   3.742   8.732  0.4810  0.7247  2.1091
  338MOL0     H44606   7.832   3.633   8.473 -1.6418 -3.5562 -3.1002
  338MOL0     H44607   7.713   3.725   8.572 -1.2407 -0.1906  0.2512
  338MOL0     H44608   7.692   3.474   8.400  0.2821 -0.8835 -0.2202
  338MOL0     H44609   7.564   3.522   8.516  0.5127 -0.7287 -0.0752
  338MOL0     H44610   7.658   3.714   8.310  0.2399 -1.6460 -0.4282
  338MOL0     H44611   7.529   3.733   8.415  0.0579  2.4941 -2.3158
  338MOL0     H44612   7.518   3.626   8.158  0.8310 -3.0991 -0.5118
  338MOL0     H44613   7.510   3.475   8.259 -1.0678 -0.7912 -0.0727
  338MOL0     H44614   7.130   3.662   8.317 -0.5206  0.2858 -1.9344
  338MOL0     H44615   7.915   3.321   8.718  0.3532 -0.8749 -2.3313
  338MOL0     H44616   8.135   3.314   8.812 -0.8320 -0.5872  1.7255
  339MOL0     O44617   5.916   5.813   4.273  0.4600 -0.0858  0.0497
  339MOL0     C44618   5.848   5.731   4.332  0.8482  0.3569 -1.0262
  339MOL0     O44619   5.898   5.627   4.405 -0.2060  0.5847 -0.6189
  339MOL0     C44620   6.036   5.630   4.433 -0.2682  0.2044 -0.1500
  339MOL0     C44621   6.121   5.532   4.372  0.2934 -0.8813  0.2457
  339MOL0     C44622   6.261   5.542   4.386  0.6440 -0.5105  0.0026
  339MOL0     C44623   6.327   5.638   4.471  0.2217 -0.0031  0.1041
  339MOL0     O44624   6.459   5.642   4.499  0.0436 -0.9015  0.3342
  339MOL0     C44625   6.536   5.526   4.461 -0.2369 -0.3141 -0.3963
  339MOL0     C44626   6.686   5.571   4.461  0.6532 -0.0940  0.0973
  339MOL0     C44627   6.793   5.465   4.414  0.4494  0.0492 -0.5222
  339MOL0     C44628   6.936   5.520   4.405  0.1326  0.2974 -0.1810
  339MOL0     C44629   7.026   5.445   4.301  0.7627  0.0880  0.5959
  339MOL0     C44630   7.176   5.453   4.317  0.2497 -0.3873 -0.0917
  339MOL0     C44631   7.233   5.597   4.320  0.6045  0.8380 -0.1299
  339MOL0     C44632   7.308   5.626   4.190  0.5545 -0.3515 -0.6484
  339MOL0     N44633   7.215   5.630   4.076  0.2263  0.8210  0.1917
  339MOL0     C44634   7.110   5.712   4.051  0.4571 -0.2634  0.5576
  339MOL0     C44635   7.040   5.657   3.951  0.0737  0.4319  0.4342
  339MOL0     C44636   6.920   5.713   3.878 -0.6798 -1.0073  0.9562
  339MOL0     C44637   6.804   5.754   3.978  0.0434  0.0298 -0.5326
  339MOL0     C44638   6.734   5.622   4.026 -0.0021  0.0830 -0.3938
  339MOL0     C44639   6.584   5.628   4.041  0.1797 -0.8691 -0.1050
  339MOL0     O44640   6.532   5.502   4.084  0.4362 -0.9199  0.5602
  339MOL0     C44641   6.397   5.481   4.067  0.4807  0.5048 -0.8628
  339MOL0     C44642   6.306   5.582   4.045 -0.0608  0.0155 -0.8883
  339MOL0     C44643   6.173   5.551   4.032  0.5263 -0.6472  0.3972
  339MOL0     C44644   6.122   5.418   4.050  0.0510  0.3100 -0.0132
  339MOL0     C44645   5.976   5.376   4.048  0.6498  0.6972 -0.4464
  339MOL0     O44646   5.885   5.462   3.990 -0.2730  0.0213 -0.6578
  339MOL0     C44647   5.753   5.425   3.996 -1.1983  0.6356 -0.3648
  339MOL0     C44648   5.698   5.317   3.933 -0.3172  0.2030  0.1077
  339MOL0     C44649   5.565   5.271   3.945  0.8388 -0.1004  1.4668
  339MOL0     C44650   5.479   5.345   4.029  1.1072 -0.8471 -0.5857
  339MOL0     O44651   5.347   5.303   4.038 -0.1604 -0.1143  0.0558
  339MOL0     C44652   5.271   5.344   4.154 -0.0008  0.2761 -0.3706
  339MOL0     C44653   5.149   5.263   4.182  0.2972 -0.2175  0.8774
  339MOL0     C44654   5.087   5.202   4.060 -0.0011  1.0620  0.4292
  339MOL0     C44655   4.984   5.292   3.992 -0.3719 -0.5905  0.0790
  339MOL0     C44656   4.952   5.243   3.854  0.9099 -0.0244  0.0553
  339MOL0     C44657   4.824   5.317   3.809 -0.2930 -1.0171 -0.0422
  339MOL0     C44658   4.778   5.246   3.672 -0.1999 -0.2515 -0.4784
  339MOL0     C44659   4.627   5.265   3.646  0.0996  0.0608  0.9168
  339MOL0    Cl44660   4.611   5.145   3.511 -0.2473 -0.1335 -0.1696
  339MOL0     C44661   5.522   5.460   4.090  0.3973  0.1362 -0.2147
  339MOL0     C44662   5.663   5.492   4.077 -0.1396 -1.4943 -0.0404
  339MOL0     O44663   5.947   5.268   4.109 -0.2995  0.6990  0.1845
  339MOL0     C44664   6.213   5.320   4.087  0.5376 -0.4997 -0.6680
  339MOL0     C44665   6.348   5.353   4.087  0.5595  0.0208 -0.0160
  339MOL0     N44666   7.111   5.545   3.918 -0.0017  0.6793 -0.3753
  339MOL0     N44667   7.215   5.534   3.990 -0.6323  0.0269 -0.0401
  339MOL0     C44668   6.237   5.728   4.538 -0.6468 -0.2974  0.0882
  339MOL0     C44669   6.095   5.729   4.515 -0.7533  0.4105 -0.4774
  339MOL0     C44670   5.701   5.747   4.318 -0.8830 -0.1178 -0.2563
  339MOL0     C44671   5.610   5.650   4.363 -0.5884 -1.0004 -0.6876
  339MOL0     C44672   5.472   5.676   4.373  0.6797 -0.5708  0.3847
  339MOL0     C44673   5.415   5.797   4.326  0.0050  0.7435  0.8627
  339MOL0     O44674   5.286   5.829   4.317  0.9275  0.3038 -0.9235
  339MOL0     C44675   5.184   5.729   4.339 -0.5429 -0.4460 -0.2193
  339MOL0     C44676   5.120   5.749   4.475  0.0580 -0.3340 -0.2745
  339MOL0     C44677   5.218   5.775   4.592  0.1279  0.2515 -0.0307
  339MOL0     C44678   5.154   5.759   4.733  0.7803 -0.5174 -0.2516
  339MOL0     C44679   5.255   5.748   4.833 -0.0511 -0.0124 -0.8360
  339MOL0     C44680   5.327   5.718   4.922  0.3837 -0.7262 -0.2450
  339MOL0     C44681   5.506   5.885   4.272 -0.3962 -0.3711  0.1201
  339MOL0     C44682   5.652   5.866   4.269  0.1681  0.2411 -0.9737
  339MOL0     H44683   6.073   5.454   4.315 -2.0040 -0.1452  1.0677
  339MOL0     H44684   6.311   5.462   4.333 -1.2543 -2.2084  0.6882
  339MOL0     H44685   6.515   5.496   4.358 -0.3695  1.4459 -0.9146
  339MOL0     H44686   6.518   5.452   4.540  3.8415 -2.7255 -1.4073
  339MOL0     H44687   6.706   5.609   4.561  1.5308 -0.7780  0.1968
  339MOL0     H44688   6.686   5.660   4.397 -0.0600  1.1380  1.7390
  339MOL0     H44689   6.760   5.433   4.315  0.6610 -0.3878 -0.4534
  339MOL0     H44690   6.798   5.383   4.487  2.5953  0.2559 -0.3794
  339MOL0     H44691   6.933   5.628   4.388 -0.8469  0.7329  2.4085
  339MOL0     H44692   6.988   5.506   4.500  2.0668 -0.2973 -1.2683
  339MOL0     H44693   6.995   5.482   4.202  1.9200  1.5831  0.7518
  339MOL0     H44694   7.006   5.339   4.315  1.1465  0.3303  3.5845
  339MOL0     H44695   7.234   5.409   4.235  1.9771 -1.8975  1.8404
  339MOL0     H44696   7.198   5.389   4.402  0.7754 -2.6205 -1.8194
  339MOL0     H44697   7.150   5.666   4.335  0.1865  0.3345 -0.1059
  339MOL0     H44698   7.302   5.604   4.405 -1.1725 -0.1032  1.4438
  339MOL0     H44699   7.393   5.563   4.165  0.8444  0.5085 -1.9138
  339MOL0     H44700   7.364   5.718   4.207  1.1184 -0.4599 -1.7871
  339MOL0     H44701   7.080   5.806   4.096  0.6976 -0.1200  0.4210
  339MOL0     H44702   6.890   5.646   3.796  1.6731 -1.9505  0.7804
  339MOL0     H44703   6.953   5.806   3.831  1.2422 -0.0425  3.9758
  339MOL0     H44704   6.731   5.813   3.923  1.8270  0.7983 -2.2260
  339MOL0     H44705   6.841   5.809   4.065  0.0192  1.9755 -1.7013
  339MOL0     H44706   6.762   5.544   3.955  4.8177  0.6362  0.5232
  339MOL0     H44707   6.775   5.587   4.121  0.5594 -1.7191 -1.2630
  339MOL0     H44708   6.540   5.650   3.943  0.2054 -1.6648 -0.2983
  339MOL0     H44709   6.555   5.714   4.102 -1.7719 -0.3859 -1.6172
  339MOL0     H44710   6.332   5.687   4.057  0.6593 -0.2740  0.3382
  339MOL0     H44711   6.103   5.626   3.996  1.6224  0.3436  0.2649
  339MOL0     H44712   5.770   5.257   3.878 -0.0883 -0.4704  1.1218
  339MOL0     H44713   5.532   5.183   3.890  0.7002  0.8109  0.0431
  339MOL0     H44714   5.248   5.450   4.141 -0.3027  0.4814  1.6388
  339MOL0     H44715   5.317   5.336   4.252 -1.7947 -1.4805  0.3891
  339MOL0     H44716   5.077   5.323   4.238  1.4030  1.7665  0.2675
  339MOL0     H44717   5.182   5.182   4.248 -0.9931 -1.7937 -0.3290
  339MOL0     H44718   5.018   5.128   4.100  1.0100  0.6117  1.4170
  339MOL0     H44719   5.162   5.156   3.995  0.3266  1.5918  0.4235
  339MOL0     H44720   4.895   5.294   4.057 -2.4195  1.9593 -2.5433
  339MOL0     H44721   5.016   5.396   3.980 -1.4653 -0.5362 -3.3759
  339MOL0     H44722   4.928   5.138   3.875  3.9514 -1.0136 -0.9008
  339MOL0     H44723   5.036   5.257   3.785 -0.0585  1.6858 -0.8533
  339MOL0     H44724   4.854   5.419   3.784  0.9063 -1.1935  0.6009
  339MOL0     H44725   4.742   5.335   3.880 -0.8296  1.3034 -1.1489
  339MOL0     H44726   4.836   5.274   3.584 -2.6986 -0.3080 -2.2586
  339MOL0     H44727   4.791   5.139   3.690  0.1503 -0.7060 -3.1352
  339MOL0     H44728   4.591   5.362   3.611  0.6899 -0.1570 -0.3402
  339MOL0     H44729   4.567   5.236   3.733  0.8018 -0.6254  1.1774
  339MOL0     H44730   5.457   5.532   4.139  0.2248  0.5030 -0.9740
  339MOL0     H44731   5.705   5.586   4.111 -2.6922  1.9222 -4.9790
  339MOL0     H44732   6.189   5.219   4.117  3.5323 -1.1190 -0.0201
  339MOL0     H44733   6.423   5.278   4.108  0.5226 -0.2856 -0.9272
  339MOL0     H44734   6.281   5.798   4.610  2.1691 -0.2440 -1.5313
  339MOL0     H44735   6.031   5.805   4.559  3.3248  3.1654  1.3214
  339MOL0     H44736   5.639   5.555   4.407 -1.4542 -1.0686 -0.2497
  339MOL0     H44737   5.406   5.605   4.422  0.2698 -0.1322  0.4756
  339MOL0     H44738   5.225   5.627   4.333  4.1409  1.0850  1.6429
  339MOL0     H44739   5.110   5.747   4.260  0.2858  0.2695 -0.8552
  339MOL0     H44740   5.048   5.831   4.466 -2.2634 -2.3429 -1.0002
  339MOL0     H44741   5.053   5.664   4.488 -1.7000  0.6388 -2.2518
  339MOL0     H44742   5.261   5.876   4.589 -0.4510  0.4710 -1.5739
  339MOL0     H44743   5.300   5.704   4.579 -0.8516 -0.4090 -3.6078
  339MOL0     H44744   5.081   5.837   4.757  0.9126 -0.1551 -0.9782
  339MOL0     H44745   5.107   5.660   4.727 -0.0957 -0.0481 -4.1531
  339MOL0     H44746   5.397   5.702   5.001 -0.1759 -1.0897  0.1821
  339MOL0     H44747   5.463   5.977   4.233  1.9069 -0.6609 -3.7241
  339MOL0     H44748   5.724   5.932   4.222 -0.0715 -0.5810 -2.5815
  340MOL0     O44749   0.293   1.947   2.480 -0.2809  0.1782  0.2701
  340MOL0     C44750   0.375   1.997   2.393  0.2720 -0.6700 -0.4448
  340MOL0     O44751   0.367   2.125   2.336  0.6372 -0.1556  0.1553
  340MOL0     C44752   0.247   2.197   2.359 -0.4631 -0.3543 -0.3304
  340MOL0     C44753   0.171   2.245   2.250  0.4628 -0.5089 -0.4309
  340MOL0     C44754   0.047   2.313   2.269  0.3805 -0.5372 -0.9557
  340MOL0     C44755   0.007   2.345   2.403  0.0608 -0.8193  1.1009
  340MOL0     O44756  -0.116   2.409   2.416 -0.3539 -0.8590  0.7099
  340MOL0     C44757  -0.161   2.466   2.542  0.4409 -0.1296 -0.0875
  340MOL0     C44758  -0.293   2.545   2.532 -0.7697  0.3963 -0.5450
  340MOL0     C44759  -0.406   2.472   2.461  0.3086  1.1292  0.4777
  340MOL0     C44760  -0.523   2.561   2.434 -0.3156  0.0987 -0.0338
  340MOL0     C44761  -0.648   2.490   2.377  0.3890  0.8711 -0.9292
  340MOL0     C44762  -0.742   2.595   2.326 -0.1165 -0.7104 -1.2702
  340MOL0     C44763  -0.853   2.536   2.239  0.3875  0.6357  0.1765
  340MOL0     C44764  -0.947   2.640   2.181 -0.2206  0.8634 -0.5838
  340MOL0     N44765  -1.047   2.575   2.104  0.6146  0.0506  0.4236
  340MOL0     C44766  -1.140   2.480   2.142  0.1245 -0.8332  0.1033
  340MOL0     C44767  -1.223   2.458   2.037  0.4837  0.4068 -0.1528
  340MOL0     C44768  -1.333   2.354   2.046 -0.1391 -0.2316  0.0424
  340MOL0     C44769  -1.472   2.421   2.010 -0.4565  0.0130 -0.7763
  340MOL0     C44770  -1.577   2.324   2.049  0.6003  0.2487  0.1061
  340MOL0     C44771  -1.708   2.393   2.034 -0.5445  0.4328 -0.0423
  340MOL0     O44772  -1.725   2.429   1.897  0.3298  0.3669 -0.1109
  340MOL0     C44773  -1.855   2.473   1.856 -0.1942  0.3378 -0.8681
  340MOL0     C44774  -1.955   2.519   1.948  0.3459 -0.1171  0.3987
  340MOL0     C44775  -2.071   2.579   1.885  0.5237 -0.0992  0.1420
  340MOL0     C44776  -2.089   2.588   1.748 -0.2359 -0.7500 -0.0100
  340MOL0     C44777  -2.210   2.649   1.683 -0.0987 -1.2422 -0.2665
  340MOL0     O44778  -2.302   2.718   1.767 -0.2307 -0.5049 -0.7240
  340MOL0     C44779  -2.419   2.761   1.706 -0.0975 -0.2794  0.2823
  340MOL0     C44780  -2.459   2.893   1.758 -0.2023  0.2939 -0.5674
  340MOL0     C44781  -2.591   2.939   1.746  0.4586  0.2110  0.9905
  340MOL0     C44782  -2.681   2.874   1.655  0.0720 -0.8785 -0.2061
  340MOL0     O44783  -2.806   2.912   1.617 -0.6593  0.1006 -0.6047
  340MOL0     C44784  -2.834   2.944   1.481  0.3456 -0.2093  1.1133
  340MOL0     C44785  -2.971   2.998   1.480 -0.0131  0.3675 -0.5322
  340MOL0     C44786  -3.075   2.893   1.538 -0.1503 -0.3683  0.6023
  340MOL0     C44787  -3.221   2.947   1.534  0.0782 -0.2224 -0.6996
  340MOL0     C44788  -3.326   2.834   1.554 -0.2311 -0.8404 -0.1003
  340MOL0     C44789  -3.459   2.874   1.505  0.0429 -0.3225 -0.5401
  340MOL0     C44790  -3.582   2.803   1.565  0.1958  0.1542  0.4834
  340MOL0     C44791  -3.709   2.886   1.542  0.7617  0.2985  0.1414
  340MOL0    Cl44792  -3.736   2.901   1.368  0.0743 -0.0426  0.0413
  340MOL0     C44793  -2.639   2.752   1.596 -0.5539  0.0747  0.4579
  340MOL0     C44794  -2.514   2.692   1.627 -1.0585 -0.3068  0.4449
  340MOL0     O44795  -2.212   2.655   1.566 -0.5196 -0.0332  0.1286
  340MOL0     C44796  -1.986   2.532   1.670  0.1501 -0.4605 -0.4467
  340MOL0     C44797  -1.870   2.486   1.725 -0.5465  0.0811  0.0454
  340MOL0     N44798  -1.179   2.532   1.931  0.3875 -0.9339  0.7889
  340MOL0     N44799  -1.074   2.597   1.968 -0.7189  0.1918 -0.2405
  340MOL0     C44800   0.083   2.306   2.509  0.0152 -0.2469 -0.4609
  340MOL0     C44801   0.192   2.223   2.485 -0.4294  0.9153 -0.4462
  340MOL0     C44802   0.499   1.925   2.370 -0.1319  0.7283 -0.9185
  340MOL0     C44803   0.590   1.962   2.271 -0.2397  0.4000  0.7382
  340MOL0     C44804   0.721   1.897   2.263 -0.1118 -0.4411  0.5218
  340MOL0     C44805   0.754   1.792   2.347  0.6349  0.5709 -0.3175
  340MOL0     O44806   0.875   1.727   2.344  0.2840  0.0304  0.4994
  340MOL0     C44807   0.977   1.825   2.313 -0.5375 -0.5698  0.1790
  340MOL0     C44808   1.105   1.743   2.341  0.1346 -0.1636 -0.3314
  340MOL0     C44809   1.110   1.703   2.491  0.6210  0.1454  0.4791
  340MOL0     C44810   1.227   1.615   2.524  1.1524  0.6092  0.6977
  340MOL0     C44811   1.244   1.572   2.667  0.8459  0.5846 -0.0132
  340MOL0     C44812   1.250   1.549   2.784  0.0312  0.1482 -0.4731
  340MOL0     C44813   0.657   1.746   2.440 -0.3909  0.0871 -0.0150
  340MOL0     C44814   0.537   1.816   2.456 -0.2806  0.5765  0.6028
  340MOL0     H44815   0.213   2.239   2.150 -1.7259  1.6470 -1.5828
  340MOL0     H44816  -0.014   2.350   2.187  0.9784 -0.5758 -1.4308
  340MOL0     H44817  -0.095   2.538   2.590 -3.0384  2.0136  1.9320
  340MOL0     H44818  -0.189   2.380   2.605 -2.2584  1.7538  1.5057
  340MOL0     H44819  -0.264   2.637   2.481  2.1903  0.1349  0.4900
  340MOL0     H44820  -0.319   2.583   2.631 -0.7434 -0.8052 -0.0569
  340MOL0     H44821  -0.441   2.386   2.519 -1.2551  2.2568  1.2783
  340MOL0     H44822  -0.383   2.435   2.361 -2.0077  2.2718 -0.5457
  340MOL0     H44823  -0.549   2.621   2.522 -2.8844  0.7905 -1.1881
  340MOL0     H44824  -0.481   2.631   2.361 -1.0006 -0.2475 -0.7745
  340MOL0     H44825  -0.700   2.441   2.460  1.9658  3.2603  1.6162
  340MOL0     H44826  -0.627   2.416   2.299  0.2607 -1.2008  0.8921
  340MOL0     H44827  -0.687   2.669   2.268  1.6967  0.1006  1.3494
  340MOL0     H44828  -0.786   2.649   2.410  0.3652  1.6500 -2.4357
  340MOL0     H44829  -0.806   2.484   2.155 -2.3643  1.3056 -1.9586
  340MOL0     H44830  -0.905   2.462   2.301 -0.8914  2.7018  1.6881
  340MOL0     H44831  -0.882   2.707   2.125  0.3409  2.7364  2.1167
  340MOL0     H44832  -1.001   2.706   2.249 -1.6683  0.3458 -1.1798
  340MOL0     H44833  -1.158   2.434   2.239 -0.0452 -1.2743 -0.1307
  340MOL0     H44834  -1.328   2.315   2.148 -0.4583  3.1515  1.4954
  340MOL0     H44835  -1.308   2.276   1.973 -1.8462  0.5837 -1.4735
  340MOL0     H44836  -1.475   2.452   1.905  0.3323  1.5360 -0.3881
  340MOL0     H44837  -1.474   2.511   2.072  1.5979  0.0827 -0.7227
  340MOL0     H44838  -1.570   2.243   1.975 -0.3202  0.6674 -0.4482
  340MOL0     H44839  -1.584   2.292   2.154 -1.3258 -0.7966 -0.2963
  340MOL0     H44840  -1.708   2.475   2.107  0.7679  1.5972 -1.2756
  340MOL0     H44841  -1.789   2.326   2.063  1.4921 -2.8698 -1.4418
  340MOL0     H44842  -1.949   2.519   2.057 -2.0024 -1.2583  0.6019
  340MOL0     H44843  -2.144   2.635   1.942 -0.0152 -1.6189  0.9869
  340MOL0     H44844  -2.395   2.933   1.837  0.2463  0.7930 -1.1713
  340MOL0     H44845  -2.627   3.024   1.802  0.8593 -0.5820  2.5123
  340MOL0     H44846  -2.835   2.855   1.416  0.4046  0.6871 -0.1457
  340MOL0     H44847  -2.764   3.020   1.446 -0.7903  1.4028  2.1777
  340MOL0     H44848  -3.006   3.023   1.380 -5.9052  0.2255  1.0756
  340MOL0     H44849  -2.968   3.086   1.546 -0.9403 -1.2636  1.8363
  340MOL0     H44850  -3.063   2.863   1.642  1.2175  0.0624  0.5878
  340MOL0     H44851  -3.062   2.804   1.475  2.5377 -1.2739  2.2461
  340MOL0     H44852  -3.238   3.018   1.616  0.9541 -1.2557  0.4300
  340MOL0     H44853  -3.242   2.988   1.435 -2.4790 -2.2308 -1.0750
  340MOL0     H44854  -3.340   2.820   1.662 -0.8408 -3.0121 -0.4067
  340MOL0     H44855  -3.302   2.734   1.517 -1.3331 -1.0438 -0.3021
  340MOL0     H44856  -3.464   2.882   1.396 -1.0407 -1.3393 -0.5943
  340MOL0     H44857  -3.475   2.978   1.536  0.9167 -0.1688 -0.5930
  340MOL0     H44858  -3.600   2.705   1.520 -0.3067  0.2294  0.5105
  340MOL0     H44859  -3.567   2.793   1.673 -1.7017 -1.1392  0.6739
  340MOL0     H44860  -3.697   2.984   1.589  1.1094  0.4555 -0.2618
  340MOL0     H44861  -3.798   2.840   1.586  1.5336  0.9243  2.4736
  340MOL0     H44862  -2.718   2.698   1.544 -1.9577  0.8962  1.6807
  340MOL0     H44863  -2.490   2.591   1.597 -1.4637  0.5388 -3.3156
  340MOL0     H44864  -1.991   2.550   1.563 -0.5376  0.3300 -0.2871
  340MOL0     H44865  -1.783   2.461   1.665 -0.6299  0.5495 -0.2753
  340MOL0     H44866   0.060   2.324   2.614 -1.4227 -3.1058 -0.1812
  340MOL0     H44867   0.245   2.190   2.574 -0.5450 -1.1206 -1.0845
  340MOL0     H44868   0.561   2.040   2.201  0.0640 -0.9272 -0.9456
  340MOL0     H44869   0.780   1.933   2.179 -0.2566  2.3539  1.5081
  340MOL0     H44870   0.965   1.911   2.380 -1.0992 -2.1451  2.2231
  340MOL0     H44871   0.976   1.853   2.208 -1.3418 -0.1930  0.2772
  340MOL0     H44872   1.103   1.650   2.284  1.6731 -0.8140  0.5992
  340MOL0     H44873   1.197   1.796   2.316 -0.4041  0.8254 -0.2397
  340MOL0     H44874   1.018   1.667   2.539 -0.6890  0.9876 -1.3135
  340MOL0     H44875   1.130   1.790   2.554  2.0768 -0.9370  1.5933
  340MOL0     H44876   1.236   1.518   2.474  0.2382  0.2613  1.1926
  340MOL0     H44877   1.308   1.685   2.502  0.1340  2.0224  1.2882
  340MOL0     H44878   1.233   1.523   2.886  2.4081 -1.8416 -0.5063
  340MOL0     H44879   0.676   1.667   2.512 -1.3889 -0.2739 -0.1327
  340MOL0     H44880   0.463   1.787   2.530 -3.0892  0.2714 -2.0696
  341MOL0     O44881   4.372   0.063   6.452  0.9246  0.5324  0.3476
  341MOL0     C44882   4.407  -0.049   6.482  0.3073 -0.0003  0.1431
  341MOL0     O44883   4.330  -0.139   6.559 -0.3568 -0.1624 -0.0960
  341MOL0     C44884   4.199  -0.109   6.585 -0.1077  0.0218  0.6148
  341MOL0     C44885   4.148  -0.129   6.713  0.1267 -0.4639 -0.3605
  341MOL0     C44886   4.015  -0.103   6.734  0.4980  0.3165 -0.0440
  341MOL0     C44887   3.926  -0.051   6.641 -0.0648 -0.0011 -0.3668
  341MOL0     O44888   3.805  -0.011   6.694  0.0003  0.5651  0.3925
  341MOL0     C44889   3.733   0.065   6.601  0.3070 -0.1852 -0.2326
  341MOL0     C44890   3.589   0.090   6.653  0.2218  0.0476  1.0319
  341MOL0     C44891   3.494   0.163   6.551  0.0468  0.1918 -0.2586
  341MOL0     C44892   3.346   0.173   6.584 -0.8062  0.2086  0.5595
  341MOL0     C44893   3.267   0.034   6.573  0.6086 -0.2964 -0.0528
  341MOL0     C44894   3.120   0.067   6.608 -0.0891  0.5234  0.4878
  341MOL0     C44895   3.050  -0.065   6.630  0.3157 -0.0839 -0.6772
  341MOL0     C44896   2.909  -0.049   6.700 -0.6150 -0.5815  0.3945
  341MOL0     N44897   2.871  -0.183   6.738  0.6047 -1.1201  0.4080
  341MOL0     C44898   2.897  -0.238   6.863  0.0605 -0.0856  0.2989
  341MOL0     C44899   2.809  -0.335   6.886  0.7048  0.6398 -0.1171
  341MOL0     C44900   2.796  -0.419   7.008  0.5018  0.4306 -0.5313
  341MOL0     C44901   2.652  -0.425   7.059  0.2821  0.0055 -0.4786
  341MOL0     C44902   2.590  -0.287   7.088 -0.4968 -0.0849  0.0341
  341MOL0     C44903   2.441  -0.288   7.109 -0.6737 -0.2351 -0.1256
  341MOL0     O44904   2.403  -0.374   7.218  0.0779 -0.0965 -0.3483
  341MOL0     C44905   2.270  -0.405   7.230 -0.0443  0.3701  0.1275
  341MOL0     C44906   2.162  -0.330   7.184 -0.9693  0.7768  0.6199
  341MOL0     C44907   2.030  -0.358   7.212 -0.7724  0.2125 -0.9279
  341MOL0     C44908   2.002  -0.469   7.288 -0.1928  0.1820  0.5260
  341MOL0     C44909   1.859  -0.499   7.324  0.0950  0.0474 -0.7935
  341MOL0     O44910   1.761  -0.417   7.277 -0.2345 -0.0518 -0.0735
  341MOL0     C44911   1.639  -0.464   7.295  0.8974  0.0711 -1.2284
  341MOL0     C44912   1.583  -0.451   7.422  0.5371 -0.3649 -0.1183
  341MOL0     C44913   1.460  -0.510   7.446  0.2726 -0.5569  0.0355
  341MOL0     C44914   1.386  -0.575   7.339 -0.8360  0.1351 -1.0251
  341MOL0     O44915   1.274  -0.649   7.374 -0.2132  0.2664  0.3084
  341MOL0     C44916   1.212  -0.747   7.287  0.5950  0.0795  0.8438
  341MOL0     C44917   1.074  -0.785   7.338  0.9681 -0.2929  0.7979
  341MOL0     C44918   1.013  -0.903   7.259  0.6454 -0.0865  0.4018
  341MOL0     C44919   0.886  -0.940   7.346 -0.5429  0.5973 -0.2926
  341MOL0     C44920   0.812  -1.067   7.287 -0.3172 -1.0282  0.2346
  341MOL0     C44921   0.669  -1.074   7.345 -0.7482 -0.0035 -0.4835
  341MOL0     C44922   0.593  -1.200   7.301 -0.1561 -0.2869 -0.1285
  341MOL0     C44923   0.455  -1.206   7.375  0.2116  0.4289 -0.1828
  341MOL0    Cl44924   0.353  -1.346   7.330  0.2279  0.2150 -0.2589
  341MOL0     C44925   1.443  -0.575   7.212  0.7786 -0.5418 -0.6151
  341MOL0     C44926   1.572  -0.521   7.189 -0.1297 -0.1511 -0.2243
  341MOL0     O44927   1.842  -0.586   7.411 -0.0242 -0.0573  0.5629
  341MOL0     C44928   2.107  -0.556   7.319  0.0086 -0.3651 -1.1560
  341MOL0     C44929   2.235  -0.520   7.297 -0.6399 -0.7019 -0.1016
  341MOL0     N44930   2.739  -0.343   6.765  0.1299  0.5011 -0.1082
  341MOL0     N44931   2.784  -0.260   6.677  0.9271  0.5516  0.0239
  341MOL0     C44932   3.979  -0.026   6.508  0.2858  0.5717  0.5919
  341MOL0     C44933   4.114  -0.055   6.478 -0.3070  0.0205 -0.4620
  341MOL0     C44934   4.556  -0.082   6.458  0.0143 -0.2579  0.1512
  341MOL0     C44935   4.619  -0.181   6.537  0.2687 -0.6626  0.8866
  341MOL0     C44936   4.758  -0.198   6.532  0.6631 -0.0606  0.5814
  341MOL0     C44937   4.835  -0.111   6.452  0.6195  0.0295  0.7061
  341MOL0     O44938   4.974  -0.136   6.464 -0.2383 -0.8241  0.3922
  341MOL0     C44939   5.063  -0.102   6.353 -0.1883  0.1582  0.0678
  341MOL0     C44940   5.165  -0.221   6.356 -0.4961  0.8290  0.5731
  341MOL0     C44941   5.268  -0.202   6.246 -0.3359 -0.3094 -0.4189
  341MOL0     C44942   5.378  -0.303   6.252  0.3130 -0.1223 -0.5487
  341MOL0     C44943   5.470  -0.298   6.145  0.5128  0.7746  0.3720
  341MOL0     C44944   5.545  -0.284   6.056 -0.1354 -0.4229  0.4729
  341MOL0     C44945   4.775  -0.020   6.362  0.2277  0.6712  0.6903
  341MOL0     C44946   4.635  -0.008   6.369  0.0914 -0.6751 -0.1717
  341MOL0     H44947   4.219  -0.146   6.793  0.8832  1.9664 -0.4258
  341MOL0     H44948   3.973  -0.114   6.833 -0.2879 -2.1706 -0.5800
  341MOL0     H44949   3.706  -0.000   6.518 -0.4490  1.8816 -1.6768
  341MOL0     H44950   3.791   0.154   6.576  2.7938 -1.4356  0.7127
  341MOL0     H44951   3.605   0.152   6.742  2.4350 -1.1130  1.5195
  341MOL0     H44952   3.538  -0.002   6.684 -1.0806  0.2189 -0.4668
  341MOL0     H44953   3.495   0.103   6.460  0.1241 -2.2256  1.2530
  341MOL0     H44954   3.530   0.264   6.530  5.9673 -0.4897  4.0192
  341MOL0     H44955   3.326   0.226   6.678 -1.4355 -1.9241  1.7026
  341MOL0     H44956   3.315   0.235   6.500  0.4483  0.2280  0.0930
  341MOL0     H44957   3.300  -0.039   6.647 -0.1537 -1.8827 -1.2373
  341MOL0     H44958   3.276  -0.007   6.472  1.5568 -1.2617  0.4052
  341MOL0     H44959   3.073   0.119   6.525  2.9877 -0.4900 -2.1285
  341MOL0     H44960   3.118   0.123   6.702  0.9497 -0.4175  1.1042
  341MOL0     H44961   3.039  -0.116   6.534  2.2825 -0.6912 -0.6377
  341MOL0     H44962   3.121  -0.129   6.683  1.2267 -0.1928 -1.9915
  341MOL0     H44963   2.837  -0.012   6.626 -0.1003 -0.5255 -0.0960
  341MOL0     H44964   2.915   0.016   6.788  2.8548  2.1910 -1.5635
  341MOL0     H44965   2.953  -0.194   6.945 -2.8768 -0.8762  2.9164
  341MOL0     H44966   2.863  -0.382   7.086 -0.3132 -0.9709  0.8987
  341MOL0     H44967   2.840  -0.517   6.986  2.0822  0.8651  0.4495
  341MOL0     H44968   2.642  -0.485   7.150 -4.5901  1.6153  0.3579
  341MOL0     H44969   2.595  -0.479   6.982  0.3334 -0.8822  0.0903
  341MOL0     H44970   2.633  -0.254   7.183  0.2781  2.0230 -0.9695
  341MOL0     H44971   2.625  -0.213   7.015  0.4155  2.3865  2.7766
  341MOL0     H44972   2.400  -0.326   7.015  1.8897  1.4550 -2.0811
  341MOL0     H44973   2.400  -0.189   7.131 -0.8412 -0.2104 -0.5426
  341MOL0     H44974   2.183  -0.232   7.142 -2.6055  0.1589 -1.8516
  341MOL0     H44975   1.943  -0.298   7.188 -1.3392  1.0666  2.6786
  341MOL0     H44976   1.627  -0.403   7.509  0.1007 -0.6556  0.2736
  341MOL0     H44977   1.415  -0.508   7.545  0.4666 -1.0526  0.1369
  341MOL0     H44978   1.278  -0.834   7.298  0.4481 -0.1448  0.0110
  341MOL0     H44979   1.217  -0.721   7.181  0.7334  2.2925  1.3519
  341MOL0     H44980   1.002  -0.703   7.337 -1.3255 -2.1493 -1.6371
  341MOL0     H44981   1.098  -0.820   7.439  1.5905 -0.8299  0.4690
  341MOL0     H44982   1.068  -0.997   7.254  1.2654 -0.0586  3.9617
  341MOL0     H44983   0.998  -0.875   7.155 -1.0754 -0.5668  0.4991
  341MOL0     H44984   0.913  -0.963   7.450 -1.7695  0.0337 -0.0818
  341MOL0     H44985   0.812  -0.860   7.356 -2.5030 -1.1050 -0.5951
  341MOL0     H44986   0.870  -1.155   7.314  4.1640  1.1853 -1.2745
  341MOL0     H44987   0.806  -1.062   7.178  0.8973  1.4310  0.2118
  341MOL0     H44988   0.624  -0.983   7.305 -1.1335 -0.3453 -0.8459
  341MOL0     H44989   0.678  -1.082   7.453 -1.3570 -1.1441 -0.5045
  341MOL0     H44990   0.574  -1.194   7.194  1.7704  3.1472 -0.4225
  341MOL0     H44991   0.649  -1.291   7.326 -0.3702 -0.0928  1.1135
  341MOL0     H44992   0.392  -1.122   7.345 -0.5683  0.1730  0.6977
  341MOL0     H44993   0.470  -1.193   7.483 -1.6663  1.0701  0.0464
  341MOL0     H44994   1.382  -0.621   7.135 -3.1129  0.1025  1.8046
  341MOL0     H44995   1.619  -0.521   7.091 -1.7655 -0.4389 -1.0517
  341MOL0     H44996   2.090  -0.642   7.383 -1.4907  1.0423  0.4191
  341MOL0     H44997   2.314  -0.587   7.328  0.4640  1.6767  2.7451
  341MOL0     H44998   3.910   0.007   6.431  1.1363  0.9551 -0.0197
  341MOL0     H44999   4.151  -0.053   6.376 -3.3142 -0.7574 -1.6634
  341MOL0     H45000   4.557  -0.244   6.601 -0.7551 -1.2221 -0.6105
  341MOL0     H45001   4.803  -0.274   6.595 -0.7003 -2.0777 -0.7546
  341MOL0     H45002   5.127  -0.013   6.362 -0.0353  0.1375 -0.8046
  341MOL0     H45003   5.001  -0.087   6.265 -0.9625  0.3347  0.6267
  341MOL0     H45004   5.215  -0.232   6.452 -0.4191 -0.8168  0.3605
  341MOL0     H45005   5.106  -0.310   6.333  3.8175 -1.8926 -1.1938
  341MOL0     H45006   5.304  -0.099   6.253  0.6895 -0.6611 -0.4275
  341MOL0     H45007   5.212  -0.206   6.152 -1.4458  2.4264  0.0219
  341MOL0     H45008   5.440  -0.285   6.341 -0.9819  0.3047  0.2940
  341MOL0     H45009   5.335  -0.403   6.253 -0.0023  0.0043 -1.3365
  341MOL0     H45010   5.623  -0.278   5.983  0.8975 -2.9491  1.2426
  341MOL0     H45011   4.846   0.033   6.299  1.6347 -1.6973  0.1568
  341MOL0     H45012   4.588   0.073   6.313  2.7172 -1.2134 -3.4599
  342MOL0     O45013   9.482   1.490  10.216  0.1888  0.5116 -0.4773
  342MOL0     C45014   9.564   1.397  10.223  0.0609 -0.7769 -1.0687
  342MOL0     O45015   9.536   1.265  10.212 -0.5593 -0.1750  0.2700
  342MOL0     C45016   9.405   1.231  10.231 -0.6170  0.1079  0.2091
  342MOL0     C45017   9.360   1.237  10.360 -0.6747  0.8682 -0.8233
  342MOL0     C45018   9.225   1.239  10.385  0.0437 -0.1442 -0.0972
  342MOL0     C45019   9.128   1.210  10.280  0.6858  0.1705 -0.5312
  342MOL0     O45020   8.994   1.190  10.300  0.1983  0.0696  0.4883
  342MOL0     C45021   8.950   1.219  10.437  0.1615  0.0017 -0.3889
  342MOL0     C45022   8.801   1.209  10.468  0.1371  0.0328  0.9429
  342MOL0     C45023   8.724   1.082  10.428 -0.5863  0.1862 -0.0531
  342MOL0     C45024   8.695   1.075  10.278 -0.8709  0.1173 -0.3483
  342MOL0     C45025   8.634   0.943  10.239 -0.7192 -0.1570 -0.3872
  342MOL0     C45026   8.493   0.905  10.304 -0.1004  0.4116  0.5002
  342MOL0     C45027   8.387   1.005  10.267 -0.1977  0.0896 -0.2633
  342MOL0     C45028   8.247   0.965  10.313 -0.4174  0.9798 -0.0220
  342MOL0     N45029   8.161   1.081  10.352 -0.7346  0.2766 -0.0275
  342MOL0     C45030   8.144   1.129  10.481  0.4899  0.5863  0.3356
  342MOL0     C45031   8.053   1.226  10.469 -0.4193  0.1165 -0.1808
  342MOL0     C45032   7.996   1.299  10.590  0.3283 -0.1339  0.5695
  342MOL0     C45033   7.842   1.294  10.579 -1.1192 -0.3739 -0.0179
  342MOL0     C45034   7.788   1.155  10.610 -0.1549  0.4031  0.2343
  342MOL0     C45035   7.636   1.173  10.598  0.2884 -0.6211 -0.0409
  342MOL0     O45036   7.569   1.052  10.637  0.2438  0.8542  0.8486
  342MOL0     C45037   7.438   1.038  10.636 -0.1500  1.0770 -0.0358
  342MOL0     C45038   7.371   0.923  10.692 -0.3894 -0.3909 -0.6348
  342MOL0     C45039   7.231   0.900  10.686  0.2098  0.1983 -0.7317
  342MOL0     C45040   7.158   0.995  10.612  1.7907 -0.0785 -0.6249
  342MOL0     C45041   7.009   0.994  10.596 -0.6883  0.2467  0.1749
  342MOL0     O45042   6.962   1.078  10.499  0.1920  0.7771  0.0180
  342MOL0     C45043   6.832   1.055  10.461  0.1306  0.7309 -0.0595
  342MOL0     C45044   6.744   1.168  10.456  0.0154  0.8213  0.3005
  342MOL0     C45045   6.605   1.160  10.437  0.0823  0.5660 -0.5237
  342MOL0     C45046   6.550   1.030  10.436  0.5682  0.0512 -0.2182
  342MOL0     O45047   6.412   1.027  10.436  0.2187  0.5242 -0.3829
  342MOL0     C45048   6.338   0.904  10.431 -0.5308  0.2531 -0.2690
  342MOL0     C45049   6.190   0.932  10.471 -0.4414  0.4344  0.3644
  342MOL0     C45050   6.146   1.053  10.397  0.0202 -0.0745  0.3992
  342MOL0     C45051   6.001   1.098  10.430 -0.7643  0.6070 -0.3238
  342MOL0     C45052   5.890   1.003  10.390 -0.0607 -0.4753  0.7023
  342MOL0     C45053   5.750   1.052  10.458  0.3792  0.0001 -0.3851
  342MOL0     C45054   5.628   0.987  10.394  0.7184  0.1551  0.4691
  342MOL0     C45055   5.505   1.068  10.428 -0.7606  0.6505  0.0375
  342MOL0    Cl45056   5.492   1.079  10.605 -0.3629  0.2344 -0.2491
  342MOL0     C45057   6.634   0.917  10.424  0.8417 -0.1936  0.4888
  342MOL0     C45058   6.772   0.930  10.437  0.1337  0.5412  0.6462
  342MOL0     O45059   6.946   0.915  10.667 -0.1646  0.1870  0.2355
  342MOL0     C45060   7.218   1.116  10.562  0.8226 -0.2194 -0.3862
  342MOL0     C45061   7.360   1.132  10.573  0.3151 -0.6604  0.4187
  342MOL0     N45062   8.026   1.241  10.335  0.0815  0.3000 -0.0127
  342MOL0     N45063   8.095   1.153  10.267  0.7863 -0.1162 -0.0401
  342MOL0     C45064   9.173   1.194  10.156 -0.3281 -0.1363  0.1472
  342MOL0     C45065   9.310   1.222  10.124 -0.3259 -0.2563  0.1582
  342MOL0     C45066   9.711   1.439  10.243 -0.2785 -0.0482  0.5002
  342MOL0     C45067   9.742   1.566  10.289  0.0160  0.0721  0.0666
  342MOL0     C45068   9.873   1.592  10.306  0.1256  0.4378 -0.5025
  342MOL0     C45069   9.975   1.499  10.285 -0.2661 -0.1405 -1.0365
  342MOL0     O45070  10.107   1.530  10.306  0.4174 -0.3038  0.1490
  342MOL0     C45071  10.207   1.433  10.332  0.2119 -1.1817  0.7016
  342MOL0     C45072  10.330   1.499  10.393 -0.7178 -0.1017 -0.6333
  342MOL0     C45073  10.374   1.622  10.312  0.1819 -0.3949 -0.3811
  342MOL0     C45074  10.501   1.688  10.375 -0.0778  0.1851 -0.1442
  342MOL0     C45075  10.620   1.604  10.364 -0.9418  1.1868 -0.0794
  342MOL0     C45076  10.721   1.549  10.341 -0.1910 -0.0709 -0.0418
  342MOL0     C45077   9.937   1.377  10.232 -0.8631 -0.1823 -0.7195
  342MOL0     C45078   9.809   1.342  10.205 -0.0190  0.2497 -0.2505
  342MOL0     H45079   9.438   1.248  10.434 -0.9693 -0.8281 -0.2149
  342MOL0     H45080   9.197   1.251  10.490  0.5591  1.2533 -0.1060
  342MOL0     H45081   8.986   1.319  10.461  2.2551 -1.6178  4.3785
  342MOL0     H45082   8.999   1.145  10.501  1.6980 -1.8007 -3.3749
  342MOL0     H45083   8.756   1.297  10.421  0.4747  0.0200  0.5929
  342MOL0     H45084   8.783   1.219  10.575 -3.8034 -4.1718  0.9958
  342MOL0     H45085   8.626   1.096  10.473 -1.1837  1.9140 -1.7296
  342MOL0     H45086   8.781   1.000  10.474 -3.0206 -0.1153  2.7004
  342MOL0     H45087   8.619   1.146  10.244 -1.8279 -1.6779 -2.1838
  342MOL0     H45088   8.789   1.098  10.226 -1.1768  0.6885 -0.6639
  342MOL0     H45089   8.711   0.867  10.251 -1.8497 -1.0850  1.4964
  342MOL0     H45090   8.614   0.949  10.132  1.2516 -0.8382 -0.8353
  342MOL0     H45091   8.508   0.909  10.412 -1.2618  2.6966  0.6441
  342MOL0     H45092   8.470   0.804  10.269 -0.9413  0.4628  0.8873
  342MOL0     H45093   8.409   1.106  10.304  1.3800  0.2794 -1.5932
  342MOL0     H45094   8.382   1.018  10.159 -0.1428  2.1092 -0.0681
  342MOL0     H45095   8.241   0.887  10.389 -0.9253  0.5977 -0.4409
  342MOL0     H45096   8.209   0.925  10.218  1.3086 -0.6004 -0.1106
  342MOL0     H45097   8.192   1.088  10.570  1.3924 -0.2533 -0.5166
  342MOL0     H45098   8.028   1.404  10.585 -1.0080  0.3119  1.0699
  342MOL0     H45099   8.044   1.272  10.685  0.5793 -0.8543  0.2461
  342MOL0     H45100   7.810   1.323  10.478 -4.1363 -1.4003  0.5340
  342MOL0     H45101   7.796   1.370  10.642  0.5186  0.7691 -0.1406
  342MOL0     H45102   7.823   1.084  10.535  0.6607  2.6473 -1.6556
  342MOL0     H45103   7.811   1.128  10.713  1.4147  1.4833  0.1951
  342MOL0     H45104   7.614   1.188  10.491  0.9540  0.1849 -0.0779
  342MOL0     H45105   7.604   1.260  10.656  0.3516 -1.6104  1.5309
  342MOL0     H45106   7.426   0.848  10.749 -0.6842  0.8855  1.4077
  342MOL0     H45107   7.170   0.814  10.711  0.0552  0.2997 -0.7582
  342MOL0     H45108   6.787   1.268  10.465  1.1305  0.1755  3.1906
  342MOL0     H45109   6.541   1.248  10.428 -0.0974  0.5003  0.0740
  342MOL0     H45110   6.381   0.838  10.507 -2.2829  1.0832  1.5216
  342MOL0     H45111   6.349   0.852  10.335  0.9653 -0.5401  0.2820
  342MOL0     H45112   6.190   0.949  10.579  3.9746  0.0164  0.6113
  342MOL0     H45113   6.130   0.846  10.441  1.1081 -0.9028  0.9431
  342MOL0     H45114   6.147   1.034  10.289 -2.5463  0.8428  0.1465
  342MOL0     H45115   6.207   1.143  10.413 -0.4451  0.6422 -1.4981
  342MOL0     H45116   5.981   1.107  10.537  0.8053 -0.6487  0.1270
  342MOL0     H45117   5.979   1.188  10.372 -2.2422  0.5874  0.1717
  342MOL0     H45118   5.906   0.901  10.425  0.6261 -0.5854  0.0844
  342MOL0     H45119   5.886   1.000  10.281  1.1127 -0.0158  0.6342
  342MOL0     H45120   5.738   1.160  10.454  0.5046  0.0319  0.0099
  342MOL0     H45121   5.755   1.020  10.563 -1.6771 -1.4661 -0.6883
  342MOL0     H45122   5.644   0.989  10.286  0.7767  1.2490  0.4935
  342MOL0     H45123   5.626   0.879  10.413  0.0829  0.4141  2.0014
  342MOL0     H45124   5.412   1.022  10.395 -0.8676 -0.4431  1.7453
  342MOL0     H45125   5.513   1.170  10.388 -0.0948  0.0039 -1.5570
  342MOL0     H45126   6.593   0.817  10.416 -0.3036  0.0352  2.5413
  342MOL0     H45127   6.820   0.833  10.435 -0.4195  0.2649 -1.1629
  342MOL0     H45128   7.167   1.207  10.533 -2.4035 -0.9608  2.4156
  342MOL0     H45129   7.404   1.223  10.532  0.2425  0.9689  3.6103
  342MOL0     H45130   9.103   1.161  10.080 -1.3188  3.2957 -0.6170
  342MOL0     H45131   9.354   1.205  10.026 -1.9838  0.9742 -0.8466
  342MOL0     H45132   9.671   1.646  10.310 -2.7964 -2.1170 -0.4345
  342MOL0     H45133   9.907   1.690  10.339  0.7009  1.0879 -2.8821
  342MOL0     H45134  10.236   1.387  10.237  0.7069 -1.6696  1.0790
  342MOL0     H45135  10.171   1.348  10.391  0.6638 -1.6043  0.3842
  342MOL0     H45136  10.319   1.518  10.501 -2.0455 -0.2457 -0.7241
  342MOL0     H45137  10.398   1.415  10.380 -0.0642  0.4555 -0.8627
  342MOL0     H45138  10.286   1.686  10.321 -0.9107 -1.6798 -1.3415
  342MOL0     H45139  10.384   1.608  10.204  3.4196 -0.7309 -0.1352
  342MOL0     H45140  10.527   1.782  10.326  1.4661 -0.8043 -1.3429
  342MOL0     H45141  10.500   1.703  10.483  4.6230  2.7885 -0.1632
  342MOL0     H45142  10.814   1.499  10.326  0.5852  1.0165  0.9737
  342MOL0     H45143  10.023   1.317  10.205  1.1208  1.3519  1.7024
  342MOL0     H45144   9.788   1.242  10.168  1.5879  0.7305 -2.6465
  343MOL0     O45145   7.587   6.516   9.859  0.3651 -0.1121 -0.2151
  343MOL0     C45146   7.569   6.400   9.856  0.5410 -0.4679  0.9354
  343MOL0     O45147   7.455   6.332   9.847  0.8629  0.0498 -0.4950
  343MOL0     C45148   7.330   6.386   9.856 -0.0553  0.0245 -0.3610
  343MOL0     C45149   7.224   6.319   9.796 -0.1128 -0.1726  0.1531
  343MOL0     C45150   7.098   6.370   9.811  0.4119  0.5446 -1.0897
  343MOL0     C45151   7.075   6.488   9.885  0.8523 -0.0436 -0.2318
  343MOL0     O45152   6.946   6.539   9.890 -0.1819  0.1265  1.3224
  343MOL0     C45153   6.912   6.574  10.025 -0.1457 -0.1094 -0.8580
  343MOL0     C45154   6.773   6.621  10.034  0.1751 -0.5933 -0.5356
  343MOL0     C45155   6.676   6.518   9.966  0.0628 -0.1557  0.7450
  343MOL0     C45156   6.533   6.561   9.974 -0.6570  1.1716 -0.2030
  343MOL0     C45157   6.481   6.583  10.119 -0.7580 -0.5635  1.0851
  343MOL0     C45158   6.343   6.537  10.155  0.7721 -0.5356  0.0934
  343MOL0     C45159   6.222   6.584  10.073 -0.7594 -0.1054  0.7286
  343MOL0     C45160   6.086   6.579  10.145 -0.2391  0.1182  0.0155
  343MOL0     N45161   6.040   6.456  10.200 -0.3988 -0.1066  1.2575
  343MOL0     C45162   5.953   6.367  10.134  1.0827 -0.4691 -0.4766
  343MOL0     C45163   5.921   6.269  10.223 -0.4655  0.2196  0.3124
  343MOL0     C45164   5.827   6.161  10.196  0.5947 -0.1394  0.2230
  343MOL0     C45165   5.692   6.169  10.272  0.3510  0.0643 -0.1714
  343MOL0     C45166   5.609   6.305  10.253 -0.2597 -0.1886  0.7118
  343MOL0     C45167   5.458   6.263  10.258 -0.1315  0.0388  0.9342
  343MOL0     O45168   5.382   6.386  10.245 -0.0781  0.0845 -0.2505
  343MOL0     C45169   5.246   6.386  10.201  0.5648  0.8606 -0.4383
  343MOL0     C45170   5.183   6.261  10.170 -0.1256 -0.3180 -0.1014
  343MOL0     C45171   5.047   6.261  10.131 -0.6884 -0.1253 -0.5441
  343MOL0     C45172   4.968   6.378  10.137  0.3894 -0.6245  0.5462
  343MOL0     C45173   4.824   6.381  10.099  0.4420  0.6105  0.5150
  343MOL0     O45174   4.767   6.260  10.079 -0.2766 -0.2221 -0.3864
  343MOL0     C45175   4.637   6.258  10.040 -0.2588  0.1159  0.2140
  343MOL0     C45176   4.531   6.238  10.133 -0.1247  0.4102  0.4462
  343MOL0     C45177   4.398   6.224  10.087  0.1163 -0.9079  0.3726
  343MOL0     C45178   4.358   6.237   9.958 -0.0913  0.0384  1.0016
  343MOL0     O45179   4.225   6.218   9.917 -0.1159 -0.3095 -0.2367
  343MOL0     C45180   4.122   6.285  10.001 -0.4281  0.0917 -0.2577
  343MOL0     C45181   3.999   6.272   9.911 -0.3596 -0.0197 -0.4891
  343MOL0     C45182   3.953   6.127   9.898 -0.1799  0.0905 -1.0712
  343MOL0     C45183   3.818   6.116   9.836  0.1979  0.1443  0.2669
  343MOL0     C45184   3.776   5.969   9.814 -0.6351 -0.0330  1.0189
  343MOL0     C45185   3.623   5.962   9.792  0.4482  0.9812 -0.3817
  343MOL0     C45186   3.569   5.830   9.718  0.0966  0.7501 -0.2468
  343MOL0     C45187   3.603   5.824   9.569 -0.2935 -0.2870  0.6833
  343MOL0    Cl45188   3.547   5.975   9.485  0.2941 -0.0007  0.2703
  343MOL0     C45189   4.465   6.245   9.862 -0.7667 -1.6337 -0.3724
  343MOL0     C45190   4.606   6.262   9.905 -0.1002 -0.2162 -0.4523
  343MOL0     O45191   4.762   6.483  10.095  0.0110 -0.4807  0.2875
  343MOL0     C45192   5.031   6.492  10.175  0.2552 -0.8085  0.3920
  343MOL0     C45193   5.164   6.503  10.202 -0.4037 -0.0773  0.5376
  343MOL0     N45194   5.979   6.305  10.343  0.4115 -0.5651 -0.1062
  343MOL0     N45195   6.048   6.417  10.329 -0.4535  0.2772 -0.0276
  343MOL0     C45196   7.181   6.553   9.944 -0.2374 -0.0107 -0.0141
  343MOL0     C45197   7.308   6.496   9.938  0.5414  0.5128 -0.8827
  343MOL0     C45198   7.686   6.309   9.844  0.3820 -0.2984  0.6925
  343MOL0     C45199   7.679   6.181   9.903 -0.0900  0.7736 -0.2334
  343MOL0     C45200   7.798   6.102   9.913  0.6997  0.0703 -0.0332
  343MOL0     C45201   7.916   6.148   9.858 -0.1424 -0.5495  0.4942
  343MOL0     O45202   8.025   6.060   9.867 -0.8053  0.4223 -0.1404
  343MOL0     C45203   8.138   6.131   9.912 -0.3842 -0.1219  0.1391
  343MOL0     C45204   8.254   6.021   9.935  0.0223 -0.0491 -0.3406
  343MOL0     C45205   8.379   6.083   9.980 -0.4959 -0.2883  0.4379
  343MOL0     C45206   8.482   5.996  10.042 -0.6298  0.8564 -0.1365
  343MOL0     C45207   8.526   5.913   9.933 -1.4405 -0.7230  0.3260
  343MOL0     C45208   8.567   5.861   9.833 -0.9215 -0.1780 -0.2357
  343MOL0     C45209   7.912   6.262   9.782 -0.2764  1.0960 -0.9575
  343MOL0     C45210   7.807   6.352   9.779  0.6984  0.1867 -0.0447
  343MOL0     H45211   7.234   6.226   9.741  2.5166 -0.1905  0.5144
  343MOL0     H45212   7.015   6.312   9.771  1.0897 -1.1712 -0.1155
  343MOL0     H45213   6.969   6.663  10.053 -0.5034 -0.6124  1.6923
  343MOL0     H45214   6.950   6.494  10.089 -1.1519  0.7864  0.9263
  343MOL0     H45215   6.763   6.718   9.985  1.4971 -0.2516 -0.1725
  343MOL0     H45216   6.775   6.631  10.143  2.8092  1.8081 -0.6999
  343MOL0     H45217   6.690   6.417  10.005  2.6151 -0.2178 -0.0951
  343MOL0     H45218   6.700   6.519   9.859 -0.8521  1.1339  0.5350
  343MOL0     H45219   6.516   6.660   9.929  0.3099  3.1916  3.5269
  343MOL0     H45220   6.478   6.489   9.912  2.9438 -0.4926 -1.7136
  343MOL0     H45221   6.479   6.691  10.139 -0.5140  0.7438 -4.4177
  343MOL0     H45222   6.543   6.522  10.184 -0.9709 -1.0321  0.8518
  343MOL0     H45223   6.319   6.579  10.253 -1.4612 -0.2278 -0.5366
  343MOL0     H45224   6.340   6.428  10.153 -2.1737 -0.6229  2.8530
  343MOL0     H45225   6.239   6.688  10.044 -2.0003 -0.6244 -2.2232
  343MOL0     H45226   6.224   6.509   9.993  1.7331  0.7563 -0.1241
  343MOL0     H45227   6.002   6.624  10.092  0.2806  2.1938  0.8816
  343MOL0     H45228   6.088   6.653  10.225  1.9641 -0.9493  1.0446
  343MOL0     H45229   5.918   6.353  10.032  0.3661 -5.7395  0.2057
  343MOL0     H45230   5.865   6.060  10.210  0.5490 -0.5186 -1.9513
  343MOL0     H45231   5.791   6.158  10.092 -0.3895 -0.2364  0.5548
  343MOL0     H45232   5.712   6.151  10.378 -2.6917  0.1962  0.5235
  343MOL0     H45233   5.623   6.088  10.245 -1.4353  1.3671  0.2282
  343MOL0     H45234   5.645   6.374  10.330  2.8893 -1.6738  0.6998
  343MOL0     H45235   5.641   6.344  10.156  0.1913 -3.3900 -0.5342
  343MOL0     H45236   5.433   6.204  10.347  1.1898 -0.0652  1.2505
  343MOL0     H45237   5.430   6.202  10.171  1.7566  1.2797 -0.6175
  343MOL0     H45238   5.224   6.162  10.186 -3.2670 -1.5831  0.9927
  343MOL0     H45239   5.011   6.164  10.098 -2.1249 -0.7361  2.4827
  343MOL0     H45240   4.555   6.230  10.238  1.4722 -0.5539  0.0483
  343MOL0     H45241   4.313   6.204  10.152 -0.1931  1.2387  0.7000
  343MOL0     H45242   4.133   6.393  10.011 -2.3505  0.5179 -2.0749
  343MOL0     H45243   4.108   6.251  10.104  3.5074  2.6453  1.3530
  343MOL0     H45244   4.019   6.317   9.813  0.6960  0.8498  0.0851
  343MOL0     H45245   3.916   6.329   9.955 -0.5308  1.6135 -2.7567
  343MOL0     H45246   3.942   6.088  10.000  0.6565  0.9028 -0.6552
  343MOL0     H45247   4.037   6.071   9.855 -0.5467 -1.9737  0.7135
  343MOL0     H45248   3.736   6.172   9.880 -1.4517 -0.1610 -2.2345
  343MOL0     H45249   3.835   6.157   9.736 -0.9999 -0.3437 -0.1587
  343MOL0     H45250   3.806   5.901   9.894 -0.8818 -0.1653  1.0020
  343MOL0     H45251   3.832   5.940   9.725  1.4073  1.4391  1.7547
  343MOL0     H45252   3.590   6.052   9.740 -1.2074  1.6884  1.7326
  343MOL0     H45253   3.580   5.972   9.892  1.9048  2.1566  0.1664
  343MOL0     H45254   3.617   5.746   9.769 -1.4112 -0.9078 -1.4723
  343MOL0     H45255   3.460   5.827   9.726  0.1460  0.2041  0.2900
  343MOL0     H45256   3.548   5.738   9.530 -0.0897 -0.1341  0.0574
  343MOL0     H45257   3.710   5.805   9.554 -0.6542 -1.0089 -1.1528
  343MOL0     H45258   4.443   6.229   9.757  3.5760  0.1202 -1.7965
  343MOL0     H45259   4.684   6.282   9.832  1.0039 -1.5639  0.2857
  343MOL0     H45260   4.988   6.591  10.187  2.0863  0.0841 -0.0634
  343MOL0     H45261   5.201   6.602  10.222  0.0316 -0.5585  2.2368
  343MOL0     H45262   7.156   6.635  10.010 -0.5051 -0.8779  0.9859
  343MOL0     H45263   7.381   6.549   9.998 -0.9517  1.6367  0.0203
  343MOL0     H45264   7.595   6.130   9.949  0.3663 -1.6007 -1.8632
  343MOL0     H45265   7.790   6.020   9.984  1.4241 -0.6152 -0.7363
  343MOL0     H45266   8.115   6.192  10.000 -0.5549  1.3445 -0.8878
  343MOL0     H45267   8.176   6.198   9.834  0.2364 -1.5311 -0.8116
  343MOL0     H45268   8.227   5.953  10.015  2.1470 -0.7958 -0.2174
  343MOL0     H45269   8.265   5.966   9.841  0.3359 -0.3875 -0.1032
  343MOL0     H45270   8.357   6.167  10.047  0.2146  1.5635 -1.4953
  343MOL0     H45271   8.420   6.127   9.888  1.6714 -1.3380  0.8472
  343MOL0     H45272   8.568   6.055  10.075 -0.3870  1.7599 -2.2252
  343MOL0     H45273   8.441   5.939  10.126 -0.5552 -0.2853 -0.8462
  343MOL0     H45274   8.614   5.800   9.758 -0.1041  0.8315 -0.5756
  343MOL0     H45275   8.002   6.283   9.724  0.0091  2.2174 -0.1576
  343MOL0     H45276   7.793   6.446   9.726 -2.2644 -0.3585 -0.3819
  344MOL0     O45277   7.448   2.966   3.863 -0.0065  0.0828 -0.0351
  344MOL0     C45278   7.398   2.935   3.968  0.0734  0.2369  0.1032
  344MOL0     O45279   7.464   2.878   4.072  0.3197  0.1564  0.6010
  344MOL0     C45280   7.603   2.876   4.063  0.4621  0.1421 -0.1630
  344MOL0     C45281   7.668   2.780   3.988 -0.2597 -0.2452 -0.0042
  344MOL0     C45282   7.808   2.756   3.992  0.3154 -0.9094 -0.6842
  344MOL0     C45283   7.886   2.836   4.072  0.4373  0.1914 -0.9531
  344MOL0     O45284   8.018   2.810   4.088  0.7958 -0.4410 -0.3813
  344MOL0     C45285   8.075   2.749   3.969  0.4434 -0.9095  0.0523
  344MOL0     C45286   8.224   2.776   3.973 -0.0281  0.2982  0.9837
  344MOL0     C45287   8.299   2.703   4.094  0.4808 -0.2456  0.0905
  344MOL0     C45288   8.448   2.742   4.093 -0.9720  0.9387 -0.1571
  344MOL0     C45289   8.521   2.683   4.221  0.1503 -0.3532  0.5909
  344MOL0     C45290   8.671   2.712   4.208  0.4148 -0.0436  0.5356
  344MOL0     C45291   8.758   2.665   4.322 -0.1946 -0.6134  0.0155
  344MOL0     C45292   8.798   2.520   4.300 -0.5453 -0.9959  0.4460
  344MOL0     N45293   8.893   2.480   4.400  0.0080  0.5048  0.7655
  344MOL0     C45294   8.971   2.367   4.382  0.3775  0.7012 -0.9001
  344MOL0     C45295   9.068   2.379   4.480  0.2680  0.2942 -0.3507
  344MOL0     C45296   9.174   2.289   4.512 -0.5992  0.8917  0.1525
  344MOL0     C45297   9.288   2.280   4.404  0.1123 -0.7017  0.2478
  344MOL0     C45298   9.373   2.159   4.429  0.1511  1.1629 -0.0273
  344MOL0     C45299   9.451   2.139   4.567  0.1417  0.4394  0.6221
  344MOL0     O45300   9.519   2.266   4.589  0.1853  0.4744 -0.2320
  344MOL0     C45301   9.634   2.265   4.657 -0.5729 -0.2255  1.1047
  344MOL0     C45302   9.718   2.379   4.652  0.6918 -0.3233  0.7406
  344MOL0     C45303   9.842   2.393   4.719 -0.1037 -0.2818 -1.0458
  344MOL0     C45304   9.882   2.293   4.812  0.6991 -0.3201  0.6377
  344MOL0     C45305  10.003   2.300   4.902  0.9319 -0.4128 -0.2620
  344MOL0     O45306  10.018   2.208   5.006  0.7082 -0.4142  0.1050
  344MOL0     C45307  10.135   2.216   5.073 -0.8055  0.4444  0.0687
  344MOL0     C45308  10.231   2.112   5.066  0.3702  0.1569  0.0784
  344MOL0     C45309  10.341   2.111   5.149  0.4069  0.5172 -0.2858
  344MOL0     C45310  10.359   2.215   5.243 -0.1672  0.8541 -0.3976
  344MOL0     O45311  10.473   2.220   5.329 -0.0541 -0.4754 -0.9941
  344MOL0     C45312  10.573   2.123   5.317 -0.3820 -0.2364  0.2902
  344MOL0     C45313  10.660   2.143   5.454 -0.3325  0.0859  0.3785
  344MOL0     C45314  10.772   2.033   5.469 -0.8541 -0.0393  0.2399
  344MOL0     C45315  10.844   2.050   5.598  0.5599  0.1651  0.4070
  344MOL0     C45316  10.919   1.907   5.629 -0.3018 -0.5263 -0.2280
  344MOL0     C45317  11.045   1.880   5.541 -0.4063 -0.0236 -0.5300
  344MOL0     C45318  11.119   1.758   5.586  0.2798  0.0280  0.0381
  344MOL0     C45319  11.218   1.705   5.483  0.4417  0.2699 -0.3918
  344MOL0    Cl45320  11.343   1.834   5.466  0.2500 -0.2063  0.1492
  344MOL0     C45321  10.276   2.318   5.244 -0.4195  0.4412  0.3098
  344MOL0     C45322  10.162   2.318   5.162  0.1308  0.4376  0.3452
  344MOL0     O45323  10.073   2.405   4.885  0.2881  0.5618  0.5291
  344MOL0     C45324   9.793   2.187   4.832  0.5236 -0.4046 -0.3980
  344MOL0     C45325   9.676   2.168   4.756  1.0727  0.5149 -0.4736
  344MOL0     N45326   9.039   2.486   4.563 -0.3249 -0.6025  0.4010
  344MOL0     N45327   8.930   2.539   4.513  0.2230  0.1901  0.0139
  344MOL0     C45328   7.821   2.936   4.152  0.1585 -0.0570 -0.4032
  344MOL0     C45329   7.684   2.946   4.146  0.7906  1.0784 -0.1147
  344MOL0     C45330   7.251   2.958   3.989 -0.3891 -0.1238  0.0215
  344MOL0     C45331   7.196   2.878   4.092 -0.1524 -0.2285 -0.0818
  344MOL0     C45332   7.067   2.908   4.140  0.3270  0.5038 -0.7648
  344MOL0     C45333   6.986   2.998   4.068 -0.5267  0.2682 -0.1822
  344MOL0     O45334   6.850   3.011   4.095 -0.2282  0.0722 -0.2644
  344MOL0     C45335   6.765   3.104   4.031 -0.3102 -0.9775  0.4113
  344MOL0     C45336   6.631   3.092   4.090  0.6154  0.6426  0.5669
  344MOL0     C45337   6.627   3.128   4.235 -0.0872 -0.4079 -0.9526
  344MOL0     C45338   6.490   3.185   4.286  0.7083 -0.3078  0.8993
  344MOL0     C45339   6.378   3.104   4.229  0.2478  0.1696  0.4876
  344MOL0     C45340   6.302   3.025   4.174 -0.5759  0.5074  0.3243
  344MOL0     C45341   7.039   3.065   3.964  0.1151 -0.0425 -0.3761
  344MOL0     C45342   7.170   3.054   3.930  0.4600 -0.9679 -1.0195
  344MOL0     H45343   7.609   2.707   3.932 -1.5475 -0.6535  1.7834
  344MOL0     H45344   7.843   2.675   3.930  1.6002 -0.6602 -0.3089
  344MOL0     H45345   8.045   2.789   3.871  1.2292  0.2738  0.2779
  344MOL0     H45346   8.063   2.641   3.981 -2.0228 -0.9283 -1.7599
  344MOL0     H45347   8.228   2.884   3.987 -1.1444  0.2724  1.7027
  344MOL0     H45348   8.266   2.753   3.875 -2.1152 -1.1929  0.3389
  344MOL0     H45349   8.281   2.596   4.103 -0.2886 -0.0454  1.2072
  344MOL0     H45350   8.262   2.757   4.182 -3.1923  1.0924 -2.0413
  344MOL0     H45351   8.492   2.693   4.006 -1.9699 -2.5255  1.1435
  344MOL0     H45352   8.461   2.850   4.079  0.5975  0.5943 -1.7388
  344MOL0     H45353   8.502   2.576   4.208 -3.8825  0.0384  1.9238
  344MOL0     H45354   8.469   2.699   4.315  0.7513  1.3632  0.6718
  344MOL0     H45355   8.687   2.819   4.191  0.0103  0.6282  3.8173
  344MOL0     H45356   8.701   2.656   4.118 -1.0285  1.2047 -0.7912
  344MOL0     H45357   8.844   2.733   4.329  0.2779 -1.2743  0.8537
  344MOL0     H45358   8.698   2.676   4.413  1.0300 -1.2829  0.9398
  344MOL0     H45359   8.848   2.503   4.205  0.0438 -1.2038  0.7887
  344MOL0     H45360   8.713   2.450   4.298 -2.6717  1.4362 -0.5072
  344MOL0     H45361   8.965   2.282   4.316 -0.8236 -0.7342  0.9670
  344MOL0     H45362   9.142   2.186   4.533  1.1915  0.6211  1.9066
  344MOL0     H45363   9.230   2.321   4.600  1.8172 -0.2955 -0.8476
  344MOL0     H45364   9.359   2.364   4.399 -0.5068 -0.1601  0.4297
  344MOL0     H45365   9.234   2.268   4.310  1.1828 -1.7355 -0.2636
  344MOL0     H45366   9.312   2.068   4.424  1.9564 -0.1059 -0.1264
  344MOL0     H45367   9.452   2.159   4.353  0.7883  0.7184  0.6182
  344MOL0     H45368   9.522   2.056   4.565 -1.2580 -0.7975  0.6410
  344MOL0     H45369   9.377   2.139   4.647 -0.5782 -1.3620 -0.0096
  344MOL0     H45370   9.696   2.464   4.589  0.3540 -0.9624 -0.0177
  344MOL0     H45371   9.895   2.487   4.701 -1.9122  0.7583 -1.1948
  344MOL0     H45372  10.224   2.040   4.985 -0.2383  2.3048 -1.8976
  344MOL0     H45373  10.408   2.029   5.126  0.3045  0.4548 -0.3632
  344MOL0     H45374  10.629   2.153   5.228  0.2526 -1.9723  0.0792
  344MOL0     H45375  10.536   2.021   5.310  0.6357 -0.4831 -2.5028
  344MOL0     H45376  10.588   2.148   5.536 -1.8383  0.8490 -0.9302
  344MOL0     H45377  10.719   2.234   5.441  0.7607 -1.0083 -3.7242
  344MOL0     H45378  10.847   2.052   5.391 -0.0173  0.6594  1.1982
  344MOL0     H45379  10.733   1.933   5.448  3.5616 -1.4730 -2.5820
  344MOL0     H45380  10.925   2.119   5.577  1.6048 -1.7228 -2.3784
  344MOL0     H45381  10.779   2.079   5.681  1.6422 -0.0292  1.3411
  344MOL0     H45382  10.852   1.821   5.619  0.1341 -0.8509 -0.4442
  344MOL0     H45383  10.957   1.910   5.731 -0.5025 -1.5212 -0.1078
  344MOL0     H45384  11.119   1.960   5.537 -0.5394  0.0699 -1.1005
  344MOL0     H45385  11.000   1.871   5.442  1.9926  0.7989 -1.7705
  344MOL0     H45386  11.170   1.783   5.680  0.3913  1.4405 -0.3828
  344MOL0     H45387  11.048   1.681   5.619  0.3342 -0.1152 -0.1776
  344MOL0     H45388  11.168   1.674   5.391 -1.2794 -1.8186  1.1483
  344MOL0     H45389  11.264   1.616   5.527  0.1551  0.7212  0.8673
  344MOL0     H45390  10.287   2.406   5.308  2.2845  0.3324  0.0916
  344MOL0     H45391  10.090   2.399   5.170  0.8064  1.1199 -0.3247
  344MOL0     H45392   9.814   2.113   4.909 -2.2845 -0.7466  0.1230
  344MOL0     H45393   9.597   2.095   4.765 -1.4666  3.0498 -0.7240
  344MOL0     H45394   7.885   2.976   4.230  1.0719 -1.6931 -0.2654
  344MOL0     H45395   7.637   3.020   4.209  0.3206  0.4269  0.3163
  344MOL0     H45396   7.252   2.809   4.154  0.6689 -0.2574 -0.8373
  344MOL0     H45397   7.027   2.856   4.226  1.9470  2.5173  1.3500
  344MOL0     H45398   6.759   3.078   3.925 -0.2429 -1.4949  0.5343
  344MOL0     H45399   6.793   3.209   4.047  2.1479 -1.7546  1.8018
  344MOL0     H45400   6.569   3.169   4.043 -0.5703 -2.1347 -2.8763
  344MOL0     H45401   6.598   2.991   4.062  0.3993  1.6175 -3.1070
  344MOL0     H45402   6.695   3.203   4.275 -0.8249 -0.6935  0.9620
  344MOL0     H45403   6.641   3.031   4.285 -3.6182 -1.7683 -2.2401
  344MOL0     H45404   6.481   3.193   4.395  2.3967 -1.6979  1.1785
  344MOL0     H45405   6.480   3.286   4.244 -0.1856 -0.7137  0.0891
  344MOL0     H45406   6.237   2.951   4.131 -0.2494  0.0542  0.6007
  344MOL0     H45407   6.977   3.132   3.906  0.2364  0.9501  0.6134
  344MOL0     H45408   7.205   3.110   3.845  2.4534  1.9293  1.4826
  345MOL0     O45409   5.995   9.552   7.801 -0.2613  0.5207 -0.1579
  345MOL0     C45410   5.989   9.437   7.762  0.5393 -0.0785  0.1597
  345MOL0     O45411   5.875   9.382   7.716 -0.0686 -0.5641  0.1738
  345MOL0     C45412   5.755   9.437   7.753  0.1263 -0.1570  1.1866
  345MOL0     C45413   5.660   9.329   7.759 -0.2485 -0.1984 -0.3370
  345MOL0     C45414   5.534   9.355   7.804  0.1756 -0.4144  0.2487
  345MOL0     C45415   5.489   9.487   7.835 -0.1558  0.1588  0.2979
  345MOL0     O45416   5.353   9.493   7.861 -0.4691  1.0504  0.3696
  345MOL0     C45417   5.282   9.579   7.770  0.5230  0.3876  0.0043
  345MOL0     C45418   5.143   9.512   7.786  0.7804 -0.6697  0.3009
  345MOL0     C45419   5.132   9.369   7.740  0.1679 -0.0620 -0.2118
  345MOL0     C45420   4.987   9.330   7.748  0.5342 -0.0572 -1.0503
  345MOL0     C45421   4.974   9.178   7.727  0.2086  0.5060 -0.6051
  345MOL0     C45422   4.830   9.129   7.724  0.5014 -0.0911 -0.0194
  345MOL0     C45423   4.741   9.209   7.623  0.3472 -0.6321  0.1806
  345MOL0     C45424   4.666   9.330   7.685  0.0046  0.0958  0.2860
  345MOL0     N45425   4.572   9.384   7.594  0.6563 -0.3919 -0.1396
  345MOL0     C45426   4.433   9.363   7.602  0.1273  1.1638  0.1549
  345MOL0     C45427   4.383   9.461   7.523  0.9582  0.0603  0.4501
  345MOL0     C45428   4.234   9.468   7.524  0.8040 -0.1373  0.7483
  345MOL0     C45429   4.179   9.563   7.417  0.6254  0.6787 -0.4177
  345MOL0     C45430   4.038   9.600   7.442  0.2380 -0.3565  0.0523
  345MOL0     C45431   3.989   9.687   7.322  0.4409  0.1444  0.5110
  345MOL0     O45432   3.863   9.750   7.359 -0.5485 -0.5166  0.1099
  345MOL0     C45433   3.790   9.821   7.265  0.4382  0.2431 -0.4979
  345MOL0     C45434   3.671   9.865   7.308 -0.3960 -0.3414 -0.1444
  345MOL0     C45435   3.587   9.948   7.229  0.0517  0.4186  0.4697
  345MOL0     C45436   3.616   9.972   7.088  0.1405  0.4580  0.0375
  345MOL0     C45437   3.523  10.048   7.000 -0.4847  0.0738 -0.4903
  345MOL0     O45438   3.396  10.048   7.037 -0.3058  0.4906  0.5019
  345MOL0     C45439   3.302  10.117   6.960 -0.2473  0.2862 -0.1518
  345MOL0     C45440   3.307  10.151   6.824 -0.5046 -0.2336  0.5179
  345MOL0     C45441   3.191  10.219   6.770  0.1957  0.3371  0.6099
  345MOL0     C45442   3.086  10.271   6.841  0.3815  0.0481 -0.6123
  345MOL0     O45443   2.986  10.333   6.776  0.3611  0.7468 -0.1112
  345MOL0     C45444   2.889  10.396   6.863 -0.1470  0.1890  0.0927
  345MOL0     C45445   2.771  10.456   6.784  0.2890  0.5586  0.0862
  345MOL0     C45446   2.651  10.368   6.773  0.7224 -0.5272 -1.0628
  345MOL0     C45447   2.545  10.460   6.703  0.5074 -0.5825  0.1083
  345MOL0     C45448   2.409  10.379   6.693  0.3220  0.1713  0.9437
  345MOL0     C45449   2.304  10.476   6.642  0.2692 -0.1690  0.4360
  345MOL0     C45450   2.188  10.409   6.561  0.0832  0.1692  0.3293
  345MOL0     C45451   2.092  10.518   6.515 -0.5212 -0.1997 -0.2794
  345MOL0    Cl45452   1.943  10.469   6.424 -0.1743 -0.1383  0.3240
  345MOL0     C45453   3.086  10.230   6.981  0.6058  0.6151  0.5225
  345MOL0     C45454   3.189  10.161   7.036  0.6394  0.9261 -0.1515
  345MOL0     O45455   3.571  10.100   6.899  0.4368 -0.0906  0.0413
  345MOL0     C45456   3.741   9.920   7.038  0.8759  0.1350 -0.5620
  345MOL0     C45457   3.823   9.839   7.127  0.3223 -0.0089  0.9601
  345MOL0     N45458   4.474   9.530   7.452 -0.5507  0.0454 -0.8142
  345MOL0     N45459   4.595   9.488   7.500  0.3639  0.0709  0.7183
  345MOL0     C45460   5.578   9.598   7.819 -1.1293  0.9789  0.2311
  345MOL0     C45461   5.711   9.573   7.772  0.4298  0.2665 -0.2072
  345MOL0     C45462   6.118   9.357   7.755 -0.5445  0.0754 -0.2012
  345MOL0     C45463   6.107   9.220   7.753 -0.1737 -0.0047 -0.0090
  345MOL0     C45464   6.221   9.143   7.770  1.0334  0.1861 -0.1467
  345MOL0     C45465   6.343   9.201   7.779  0.4169  1.1744 -0.6512
  345MOL0     O45466   6.447   9.121   7.827  0.7991 -0.0525 -0.0396
  345MOL0     C45467   6.569   9.129   7.754  0.3724  0.9894  0.1349
  345MOL0     C45468   6.638   8.993   7.777  0.3025 -0.5483  0.0991
  345MOL0     C45469   6.778   8.983   7.722  0.3962 -0.3976  0.3417
  345MOL0     C45470   6.895   9.052   7.806  1.1165 -0.6266 -0.1855
  345MOL0     C45471   7.034   9.049   7.755  0.5232 -0.5206 -0.1749
  345MOL0     C45472   7.145   9.046   7.709 -0.2829 -0.2028  0.1849
  345MOL0     C45473   6.364   9.339   7.761 -0.0463 -0.4027  0.3377
  345MOL0     C45474   6.248   9.419   7.757 -0.0797  1.0739  0.7123
  345MOL0     H45475   5.680   9.223   7.746  0.6688 -0.1076  0.2350
  345MOL0     H45476   5.466   9.271   7.815  1.4637 -1.2548  2.7167
  345MOL0     H45477   5.326   9.575   7.671 -1.3006  1.0850 -0.8798
  345MOL0     H45478   5.292   9.682   7.807  2.2752  0.6412 -1.0709
  345MOL0     H45479   5.074   9.580   7.735  0.0063 -0.8379  1.0978
  345MOL0     H45480   5.122   9.507   7.893  1.5660  1.9560  0.6677
  345MOL0     H45481   5.193   9.300   7.798 -0.1893  0.4828  0.8373
  345MOL0     H45482   5.173   9.375   7.639  1.9665  0.5960  0.5159
  345MOL0     H45483   4.937   9.360   7.841  1.8345  2.3528 -1.0422
  345MOL0     H45484   4.938   9.388   7.669  2.6170  2.5436 -0.5683
  345MOL0     H45485   5.031   9.128   7.805 -1.0081  0.0696  0.0311
  345MOL0     H45486   5.018   9.159   7.628 -0.1904  0.2381 -0.7329
  345MOL0     H45487   4.779   9.140   7.820 -0.0776  0.8843 -0.4334
  345MOL0     H45488   4.831   9.022   7.699 -0.9395 -0.4470  1.2932
  345MOL0     H45489   4.805   9.239   7.539  1.7145  3.9123  2.5135
  345MOL0     H45490   4.665   9.137   7.592 -0.4203 -0.8700  2.4054
  345MOL0     H45491   4.740   9.397   7.731  0.3636  0.0673 -0.2482
  345MOL0     H45492   4.603   9.285   7.763  1.3868 -0.8508  0.9007
  345MOL0     H45493   4.376   9.291   7.659 -1.3341  1.9686 -0.2387
  345MOL0     H45494   4.204   9.506   7.622  1.6802  1.8415  0.3044
  345MOL0     H45495   4.197   9.366   7.516  4.0182 -1.4267  0.4649
  345MOL0     H45496   4.189   9.536   7.312 -1.0397  0.3055 -0.5052
  345MOL0     H45497   4.241   9.652   7.432  1.2699 -0.0077  1.2890
  345MOL0     H45498   3.970   9.516   7.460  0.7309 -0.9704 -0.8942
  345MOL0     H45499   4.028   9.660   7.533  0.7195 -0.5919  0.2641
  345MOL0     H45500   3.968   9.618   7.240 -0.4797 -0.3748  1.1601
  345MOL0     H45501   4.073   9.752   7.293  0.7091 -0.4525 -0.0776
  345MOL0     H45502   3.654   9.827   7.409  2.6971 -0.6261  0.3822
  345MOL0     H45503   3.493   9.981   7.272 -0.0516  1.4433 -0.5000
  345MOL0     H45504   3.387  10.126   6.755  0.1801  0.9024  0.8625
  345MOL0     H45505   3.195  10.242   6.664  3.4855  1.4656  0.8370
  345MOL0     H45506   2.939  10.474   6.921 -0.7709  0.7788 -0.1499
  345MOL0     H45507   2.835  10.320   6.921 -1.5057  0.0719 -1.2388
  345MOL0     H45508   2.806  10.492   6.687  0.6558  0.4191  0.1649
  345MOL0     H45509   2.743  10.545   6.841 -2.9688 -0.4669  0.2734
  345MOL0     H45510   2.615  10.337   6.871 -0.3191 -1.4055 -1.6979
  345MOL0     H45511   2.667  10.271   6.726  1.2423 -2.1492  2.2076
  345MOL0     H45512   2.523  10.555   6.753 -1.4622 -0.9362 -0.0187
  345MOL0     H45513   2.577  10.473   6.599  0.9483  0.3495  0.3526
  345MOL0     H45514   2.382  10.332   6.788 -0.7861 -2.0381 -0.3761
  345MOL0     H45515   2.430  10.294   6.626  3.3535  3.6542 -3.1343
  345MOL0     H45516   2.343  10.544   6.566 -1.5789  1.2535  0.6908
  345MOL0     H45517   2.271  10.542   6.723  0.4993  0.4559  0.0261
  345MOL0     H45518   2.218  10.367   6.465 -2.2996  1.2849 -0.9991
  345MOL0     H45519   2.122  10.345   6.621 -0.3213 -0.6045 -0.9059
  345MOL0     H45520   2.150  10.572   6.440  1.6447 -3.9935 -1.5878
  345MOL0     H45521   2.067  10.589   6.595  0.1152  0.3759 -0.5842
  345MOL0     H45522   3.013  10.273   7.048 -0.4001 -0.0569 -0.1288
  345MOL0     H45523   3.185  10.129   7.139 -0.5332  1.3353 -0.0520
  345MOL0     H45524   3.766   9.940   6.934  0.1396 -2.7606 -1.4157
  345MOL0     H45525   3.914   9.797   7.086 -0.5709 -1.8046  0.7475
  345MOL0     H45526   5.557   9.704   7.825  0.7481  1.3154  2.1123
  345MOL0     H45527   5.777   9.656   7.751  0.1577  0.4317 -0.4085
  345MOL0     H45528   6.005   9.183   7.749  0.3611 -2.0595  2.4614
  345MOL0     H45529   6.201   9.037   7.769  1.1186  0.1067 -3.1511
  345MOL0     H45530   6.631   9.212   7.792 -1.0114  1.3944  1.6466
  345MOL0     H45531   6.548   9.149   7.649 -1.3127  1.0358  0.4580
  345MOL0     H45532   6.654   8.986   7.885 -1.1053  0.5445  0.4126
  345MOL0     H45533   6.575   8.910   7.743  3.7144 -2.5263 -1.8932
  345MOL0     H45534   6.768   9.037   7.627 -2.1712  1.4221  1.5408
  345MOL0     H45535   6.807   8.879   7.705  1.1109 -0.2711  0.7355
  345MOL0     H45536   6.874   9.158   7.823 -0.0775 -1.0105  0.8593
  345MOL0     H45537   6.892   8.992   7.897 -1.0408  0.3984  0.5011
  345MOL0     H45538   7.234   9.045   7.649 -0.2919  0.1513  0.1614
  345MOL0     H45539   6.465   9.377   7.767  0.0489 -0.2281 -1.6102
  345MOL0     H45540   6.255   9.527   7.763 -1.6525  1.2279  0.1925
  346MOL0     O45541  10.956   7.116   4.465 -0.5766 -0.5350 -0.2894
  346MOL0     C45542  10.851   7.105   4.530 -0.9125 -0.1280 -0.3610
  346MOL0     O45543  10.837   7.148   4.657 -0.4484 -0.2722  0.3655
  346MOL0     C45544  10.930   7.218   4.727 -0.4701  0.3121 -0.5404
  346MOL0     C45545  10.884   7.300   4.833 -0.0801  0.3038  0.2020
  346MOL0     C45546  10.972   7.385   4.909  0.2175 -0.7622 -0.8545
  346MOL0     C45547  11.111   7.388   4.888 -0.1632  0.5450  1.1517
  346MOL0     O45548  11.195   7.480   4.952  1.1526 -0.0575  0.0388
  346MOL0     C45549  11.331   7.476   4.934  0.1867  0.0768 -0.4158
  346MOL0     C45550  11.384   7.560   5.049  0.0621  0.0431 -0.6524
  346MOL0     C45551  11.532   7.587   5.040  0.2191 -0.0882  0.1676
  346MOL0     C45552  11.594   7.623   5.178  0.2205 -0.0211  0.3577
  346MOL0     C45553  11.746   7.657   5.158  0.1988 -0.0275  0.1088
  346MOL0     C45554  11.831   7.532   5.144  0.1925 -0.4531  0.0277
  346MOL0     C45555  11.979   7.552   5.127 -0.1764  0.7115  0.1204
  346MOL0     C45556  12.019   7.568   4.978 -0.0821 -0.2047 -0.0173
  346MOL0     N45557  12.157   7.611   4.959  0.9191  0.1184 -0.1260
  346MOL0     C45558  12.273   7.570   5.028 -0.0019  0.4665 -0.7693
  346MOL0     C45559  12.365   7.653   4.991 -0.2501  0.3919 -0.1768
  346MOL0     C45560  12.508   7.657   5.043 -0.2602 -0.6418 -0.5479
  346MOL0     C45561  12.611   7.673   4.936 -0.0678 -0.7227  0.7650
  346MOL0     C45562  12.590   7.807   4.863 -0.1922  0.4883 -0.9604
  346MOL0     C45563  12.729   7.848   4.812 -0.1245  0.2258 -0.1924
  346MOL0     O45564  12.807   7.902   4.921 -0.1365  0.3084  0.7781
  346MOL0     C45565  12.941   7.937   4.898  0.4046 -0.8301 -0.7921
  346MOL0     C45566  13.026   7.877   4.807  0.3303 -0.4384 -0.1533
  346MOL0     C45567  13.159   7.924   4.793  0.4884  0.2556 -0.0146
  346MOL0     C45568  13.200   8.040   4.868  0.0924 -0.5674  0.2877
  346MOL0     C45569  13.336   8.104   4.847 -0.1689  0.6636 -0.3080
  346MOL0     O45570  13.375   8.191   4.940 -0.1091  0.4639  0.5887
  346MOL0     C45571  13.492   8.239   4.920  0.1519 -0.2114  0.3864
  346MOL0     C45572  13.600   8.173   4.981  0.5807  0.3703  0.6697
  346MOL0     C45573  13.728   8.223   4.962  0.4412 -0.8016  0.1882
  346MOL0     C45574  13.751   8.345   4.895  0.3096 -0.3652 -0.2043
  346MOL0     O45575  13.873   8.410   4.880  0.4025 -0.3058 -0.3493
  346MOL0     C45576  13.992   8.339   4.910 -0.1181  0.4062 -0.1964
  346MOL0     C45577  14.111   8.416   4.851 -0.0760 -0.1422 -0.8650
  346MOL0     C45578  14.129   8.555   4.924 -0.8973  0.2648  0.1661
  346MOL0     C45579  14.161   8.538   5.064 -0.1004 -0.2092 -0.2223
  346MOL0     C45580  14.235   8.659   5.119 -0.3499 -0.6251 -0.2105
  346MOL0     C45581  14.197   8.693   5.262 -0.0252  0.5683 -0.3078
  346MOL0     C45582  14.254   8.597   5.369 -0.8568  0.0983 -0.0277
  346MOL0     C45583  14.367   8.663   5.437 -0.3118 -0.5386 -0.6310
  346MOL0    Cl45584  14.494   8.710   5.321 -0.5776  0.7060  0.2248
  346MOL0     C45585  13.646   8.409   4.841 -0.3465  0.7335  0.7627
  346MOL0     C45586  13.510   8.359   4.847 -0.3720 -0.2528 -0.1981
  346MOL0     O45587  13.408   8.050   4.764 -0.7595  0.1646  0.0749
  346MOL0     C45588  13.106   8.111   4.940  0.4733  0.9293  0.0282
  346MOL0     C45589  12.977   8.057   4.962 -0.7683 -0.1355  0.4770
  346MOL0     N45590  12.314   7.745   4.907 -0.2693  0.2212  0.6049
  346MOL0     N45591  12.192   7.716   4.884  0.1815 -0.0797 -0.3034
  346MOL0     C45592  11.153   7.304   4.793  0.3337 -0.2801  0.9938
  346MOL0     C45593  11.074   7.222   4.713 -0.0557  1.1142  0.0611
  346MOL0     C45594  10.728   7.066   4.463 -0.3671 -0.0101 -0.1590
  346MOL0     C45595  10.729   7.017   4.326  0.3758  0.4788  0.0745
  346MOL0     C45596  10.603   6.978   4.266 -0.6831 -0.6794 -0.2904
  346MOL0     C45597  10.483   6.982   4.329 -0.4299  0.1049 -0.6738
  346MOL0     O45598  10.371   6.923   4.277  0.2228 -0.3213  0.2489
  346MOL0     C45599  10.303   6.837   4.369 -0.3991  0.1887  0.1343
  346MOL0     C45600  10.394   6.707   4.399 -0.0686  0.4281  1.3292
  346MOL0     C45601  10.445   6.708   4.540  0.4012  0.0017  0.4992
  346MOL0     C45602  10.500   6.563   4.573 -0.0034  0.0615 -0.3322
  346MOL0     C45603  10.393   6.462   4.582  0.0824  0.0535  0.4476
  346MOL0     C45604  10.314   6.373   4.580 -0.3694  0.7443 -0.1083
  346MOL0     C45605  10.489   7.049   4.452 -0.0715  0.3109  0.0367
  346MOL0     C45606  10.604   7.083   4.516 -0.0167 -0.7387  0.2112
  346MOL0     H45607  10.778   7.314   4.855  0.2639  2.7141  0.5794
  346MOL0     H45608  10.928   7.453   4.981  0.9962 -0.8646 -0.2662
  346MOL0     H45609  11.355   7.524   4.838  1.9198  0.7532  0.3065
  346MOL0     H45610  11.369   7.374   4.936 -0.6220 -0.2193  1.1388
  346MOL0     H45611  11.365   7.498   5.138  2.8256  1.3024  0.9364
  346MOL0     H45612  11.319   7.648   5.059  1.0967  0.6232  1.9369
  346MOL0     H45613  11.544   7.675   4.976 -1.8945  0.9949  1.1393
  346MOL0     H45614  11.581   7.504   4.989 -0.9056 -0.0125 -1.0943
  346MOL0     H45615  11.534   7.700   5.227  0.6185  0.4076  0.1723
  346MOL0     H45616  11.577   7.535   5.240 -0.3447 -0.6317 -0.6239
  346MOL0     H45617  11.794   7.715   5.238 -2.4788  1.1152  0.9841
  346MOL0     H45618  11.755   7.722   5.070 -1.6420  1.4281  0.9335
  346MOL0     H45619  11.797   7.491   5.048  0.8356  0.4718 -0.6165
  346MOL0     H45620  11.809   7.464   5.227 -1.3193  1.7423  1.5196
  346MOL0     H45621  12.008   7.634   5.193 -1.1510  0.7057  0.5649
  346MOL0     H45622  12.021   7.458   5.164 -0.0532 -0.2150 -2.1812
  346MOL0     H45623  11.950   7.642   4.936  0.3337  0.0797 -0.2104
  346MOL0     H45624  11.996   7.476   4.924 -3.8399  0.5174  0.1108
  346MOL0     H45625  12.297   7.490   5.097  2.4581  2.5666  1.0074
  346MOL0     H45626  12.526   7.563   5.096  1.4642  0.0198  0.1017
  346MOL0     H45627  12.509   7.740   5.115 -0.5791  0.2582 -1.5645
  346MOL0     H45628  12.606   7.592   4.862  1.8811 -0.3979  0.1936
  346MOL0     H45629  12.707   7.680   4.988 -0.3869 -0.0681  1.2807
  346MOL0     H45630  12.529   7.790   4.774 -0.2847  0.1464 -0.8324
  346MOL0     H45631  12.552   7.894   4.917 -0.7990 -1.9786  2.9659
  346MOL0     H45632  12.722   7.932   4.743  0.8983 -0.6969 -1.4634
  346MOL0     H45633  12.768   7.754   4.771 -2.3687 -2.4974  3.3315
  346MOL0     H45634  12.992   7.789   4.754  1.3764 -0.4475 -0.8518
  346MOL0     H45635  13.229   7.872   4.727 -0.8636  1.3736 -2.4801
  346MOL0     H45636  13.593   8.083   5.040 -0.3404 -0.9147 -1.2756
  346MOL0     H45637  13.804   8.170   5.018 -0.3838 -0.8436  1.3257
  346MOL0     H45638  13.991   8.247   4.851 -2.0164  0.3227 -0.0830
  346MOL0     H45639  13.997   8.323   5.018  1.2217 -2.1904 -0.5708
  346MOL0     H45640  14.083   8.440   4.748  0.6778  0.1269 -1.0132
  346MOL0     H45641  14.199   8.352   4.847  0.0500 -0.0877  0.6963
  346MOL0     H45642  14.038   8.613   4.903 -1.0065 -0.4288 -1.4103
  346MOL0     H45643  14.204   8.617   4.874 -0.6521  1.2525  1.6813
  346MOL0     H45644  14.065   8.521   5.114  0.8261 -1.5201  1.1972
  346MOL0     H45645  14.228   8.453   5.078  0.9104  0.2145 -2.0917
  346MOL0     H45646  14.195   8.746   5.066 -0.0157  0.0563  0.6413
  346MOL0     H45647  14.342   8.654   5.100 -0.4118 -1.8099 -0.3670
  346MOL0     H45648  14.088   8.694   5.265 -0.0446  0.4355 -0.8738
  346MOL0     H45649  14.225   8.795   5.290 -1.6307  0.1575  3.4034
  346MOL0     H45650  14.172   8.571   5.438 -1.7190 -0.7867 -1.3449
  346MOL0     H45651  14.285   8.498   5.334  1.1016  0.4684  0.5074
  346MOL0     H45652  14.404   8.598   5.517 -0.5949 -1.4506 -1.2322
  346MOL0     H45653  14.331   8.749   5.495  0.8797 -0.9594  0.8184
  346MOL0     H45654  13.671   8.494   4.779 -0.6354 -0.0474 -0.4730
  346MOL0     H45655  13.430   8.403   4.787  0.2128  3.0754  1.2452
  346MOL0     H45656  13.130   8.205   4.989  1.7947  1.3539 -1.3659
  346MOL0     H45657  12.906   8.120   5.015  0.0043  2.0509 -0.9058
  346MOL0     H45658  11.256   7.308   4.758 -0.2896  1.3535 -0.8125
  346MOL0     H45659  11.116   7.144   4.650 -2.4068 -0.9691  0.9084
  346MOL0     H45660  10.822   7.000   4.274 -0.4128  1.5961 -1.8061
  346MOL0     H45661  10.613   6.925   4.172 -2.2670 -0.9726 -0.3176
  346MOL0     H45662  10.205   6.815   4.327 -0.0836  0.4558 -0.7497
  346MOL0     H45663  10.266   6.879   4.463 -0.8671  1.6958 -0.7043
  346MOL0     H45664  10.341   6.613   4.379 -1.0561  1.6305 -2.7942
  346MOL0     H45665  10.473   6.716   4.323  0.5585  0.2639  1.9515
  346MOL0     H45666  10.362   6.729   4.608 -2.4621 -1.9639 -2.1089
  346MOL0     H45667  10.531   6.775   4.539  0.5762 -0.2093 -0.9693
  346MOL0     H45668  10.559   6.539   4.485 -0.9697  0.3402 -1.0820
  346MOL0     H45669  10.552   6.558   4.669 -1.0360 -4.1324  0.1914
  346MOL0     H45670  10.241   6.295   4.573  1.9647 -2.1509  3.7079
  346MOL0     H45671  10.395   7.057   4.507 -0.4870  0.9039 -0.7381
  346MOL0     H45672  10.590   7.113   4.619  0.2421  0.1311 -0.0033
  347MOL0     O45673   4.082   9.874   9.256 -0.5337  0.4070 -1.1088
  347MOL0     C45674   4.171   9.815   9.202 -1.2181 -1.0236  0.4772
  347MOL0     O45675   4.152   9.702   9.127 -0.2561  0.3626 -0.6098
  347MOL0     C45676   4.036   9.630   9.147 -0.4038 -0.0099  0.2005
  347MOL0     C45677   3.991   9.597   9.277 -0.5948 -0.3763  0.4857
  347MOL0     C45678   3.876   9.524   9.294  0.4187  0.3436  0.0720
  347MOL0     C45679   3.807   9.471   9.185  0.5880  0.2561  0.2607
  347MOL0     O45680   3.683   9.401   9.193  0.0416 -0.0271 -0.1093
  347MOL0     C45681   3.615   9.403   9.327 -0.1484  1.4119 -0.4743
  347MOL0     C45682   3.492   9.329   9.322 -0.1973  0.3556  0.1891
  347MOL0     C45683   3.440   9.292   9.460 -0.1853 -0.1691  0.1036
  347MOL0     C45684   3.385   9.417   9.527  0.7343  0.1372 -0.7131
  347MOL0     C45685   3.335   9.394   9.668 -0.5538  1.3941 -0.3862
  347MOL0     C45686   3.439   9.319   9.752 -0.2518 -0.2537 -0.1707
  347MOL0     C45687   3.395   9.313   9.897 -0.5092 -0.5498 -0.4974
  347MOL0     C45688   3.486   9.214   9.983  0.1298  0.1595  0.2705
  347MOL0     N45689   3.590   9.291  10.056  0.9426 -0.3940 -0.3267
  347MOL0     C45690   3.688   9.365   9.998 -0.1091 -0.9772 -0.5408
  347MOL0     C45691   3.758   9.401  10.113 -0.1016  0.2804  0.5219
  347MOL0     C45692   3.873   9.497  10.108  0.4782 -0.0349 -0.1609
  347MOL0     C45693   4.010   9.447  10.093  0.1084 -0.8077  0.0210
  347MOL0     C45694   4.045   9.377  10.224 -0.3898  0.0422  0.8000
  347MOL0     C45695   4.191   9.329  10.229  0.2533 -0.7893  0.2873
  347MOL0     O45696   4.287   9.433  10.205 -0.4951  0.3559 -0.4202
  347MOL0     C45697   4.415   9.402  10.205 -0.2986 -0.7115  0.1095
  347MOL0     C45698   4.506   9.499  10.219  0.0663  0.2130  0.8496
  347MOL0     C45699   4.640   9.487  10.232 -0.0962 -0.0795 -0.7576
  347MOL0     C45700   4.693   9.359  10.251  0.9353 -0.1399 -0.0414
  347MOL0     C45701   4.835   9.338  10.282  0.3790 -0.3742  0.7277
  347MOL0     O45702   4.927   9.426  10.253 -0.7142 -0.6688 -0.2622
  347MOL0     C45703   5.055   9.414  10.300 -0.9800  0.5791  0.3680
  347MOL0     C45704   5.127   9.287  10.311 -0.8243  0.1388  0.7983
  347MOL0     C45705   5.266   9.281  10.343  0.4557  0.2855 -0.0852
  347MOL0     C45706   5.339   9.390  10.351  0.6016  0.4068 -0.2193
  347MOL0     O45707   5.476   9.363  10.372  0.6481  0.7379 -0.8143
  347MOL0     C45708   5.560   9.475  10.401  0.4338  0.3441 -0.7214
  347MOL0     C45709   5.691   9.427  10.425 -0.3782 -0.3959  0.0903
  347MOL0     C45710   5.764   9.382  10.296 -0.2612  0.6148  0.2912
  347MOL0     C45711   5.914   9.342  10.323  0.7475 -0.5099  0.3686
  347MOL0     C45712   5.993   9.283  10.200 -0.2621  0.1958 -0.7488
  347MOL0     C45713   6.135   9.274  10.243 -0.3726 -0.0010 -0.4383
  347MOL0     C45714   6.221   9.219  10.131 -0.0725 -0.3947 -0.8553
  347MOL0     C45715   6.366   9.199  10.165 -0.0691 -0.4638 -0.5309
  347MOL0    Cl45716   6.451   9.127  10.024  0.2047  0.1590 -0.1631
  347MOL0     C45717   5.276   9.520  10.347  0.2813  0.2776 -0.0593
  347MOL0     C45718   5.139   9.522  10.312  0.0134 -0.5291 -0.2334
  347MOL0     O45719   4.857   9.235  10.340  0.1901 -0.0897  0.2662
  347MOL0     C45720   4.602   9.249  10.252 -0.7549  1.1068  0.2317
  347MOL0     C45721   4.466   9.274  10.214 -0.2705  0.2918 -0.7723
  347MOL0     N45722   3.706   9.353  10.219  0.2696  0.1760  0.1586
  347MOL0     N45723   3.606   9.282  10.188 -0.5763  0.4393  0.5415
  347MOL0     C45724   3.855   9.498   9.059 -0.0271  1.1319  0.4853
  347MOL0     C45725   3.968   9.578   9.042 -0.5944  0.2324  0.2633
  347MOL0     C45726   4.315   9.866   9.214 -0.8294  0.0137  0.3145
  347MOL0     C45727   4.431   9.786   9.168  0.3384  0.5188 -0.3490
  347MOL0     C45728   4.566   9.818   9.208 -0.0471 -0.3042 -0.1194
  347MOL0     C45729   4.589   9.937   9.280  0.2025  0.4028  0.1786
  347MOL0     O45730   4.709   9.978   9.337  0.8588 -0.1959  0.1164
  347MOL0     C45731   4.807   9.875   9.335  0.3623  0.2487 -0.0223
  347MOL0     C45732   4.936   9.922   9.399 -0.7896 -0.1361 -0.3097
  347MOL0     C45733   4.944   9.911   9.553  0.4787  0.5522  0.7628
  347MOL0     C45734   5.049   9.985   9.618  0.5677 -1.2460 -0.5908
  347MOL0     C45735   5.183   9.935   9.603 -0.3596 -0.4877 -1.1401
  347MOL0     C45736   5.297   9.909   9.589 -0.4474 -1.3573  0.6422
  347MOL0     C45737   4.482  10.017   9.307 -0.0820  0.0892 -0.0589
  347MOL0     C45738   4.346   9.995   9.262  0.2975  0.6250 -0.1003
  347MOL0     H45739   4.049   9.644   9.356 -2.1614  0.3650  1.2550
  347MOL0     H45740   3.844   9.515   9.397 -0.0356 -0.7589 -0.1512
  347MOL0     H45741   3.606   9.505   9.367  1.7675  1.4866 -0.1246
  347MOL0     H45742   3.688   9.357   9.395  1.0260 -0.3096 -2.7530
  347MOL0     H45743   3.516   9.235   9.270 -0.9210  0.0318  0.4402
  347MOL0     H45744   3.407   9.367   9.264 -1.8087  0.1129  2.2916
  347MOL0     H45745   3.518   9.237   9.513  0.0204  1.6352  1.7979
  347MOL0     H45746   3.344   9.243   9.441  1.0099 -1.8090 -2.2294
  347MOL0     H45747   3.467   9.487   9.549  1.0244 -0.0877 -1.0715
  347MOL0     H45748   3.315   9.480   9.473 -5.6718 -3.3180  2.4456
  347MOL0     H45749   3.242   9.337   9.658  0.1313 -0.5651  3.0169
  347MOL0     H45750   3.303   9.486   9.717 -3.1232  0.1468  0.4758
  347MOL0     H45751   3.538   9.365   9.740 -1.3436  2.0002 -1.1532
  347MOL0     H45752   3.451   9.215   9.721 -1.2996 -0.5223  0.3018
  347MOL0     H45753   3.409   9.412   9.941 -1.1528 -1.0848  0.9598
  347MOL0     H45754   3.289   9.294   9.917 -0.3241  0.5935  1.9110
  347MOL0     H45755   3.521   9.137   9.914 -2.8361 -1.8597  0.8283
  347MOL0     H45756   3.417   9.161  10.050  0.5552 -1.1249 -0.2977
  347MOL0     H45757   3.683   9.403   9.896 -0.4071  1.4519  0.3332
  347MOL0     H45758   3.867   9.564  10.195  1.2399  1.9225 -1.5368
  347MOL0     H45759   3.857   9.569  10.027 -1.6595 -0.2954 -0.0227
  347MOL0     H45760   4.081   9.528  10.071  1.2385 -1.7841 -0.0185
  347MOL0     H45761   4.014   9.384  10.004  0.4696  1.8379 -1.9846
  347MOL0     H45762   4.035   9.448  10.306  0.2353 -1.1187  1.9288
  347MOL0     H45763   3.987   9.286  10.245  0.7571 -0.8857  0.0982
  347MOL0     H45764   4.205   9.255  10.150  1.8972 -0.4648  0.2412
  347MOL0     H45765   4.223   9.286  10.325  1.7512 -2.3857 -0.8682
  347MOL0     H45766   4.470   9.601  10.218 -0.5333  0.0208 -0.5040
  347MOL0     H45767   4.701   9.576  10.237  2.9771 -1.9249 -2.0085
  347MOL0     H45768   5.081   9.189  10.308 -1.2911  0.3057  2.2459
  347MOL0     H45769   5.314   9.187  10.369  2.2666  1.2740  0.3294
  347MOL0     H45770   5.522   9.534  10.485 -0.8487  1.6534 -2.1499
  347MOL0     H45771   5.557   9.545  10.316  0.4766  1.1174 -0.0965
  347MOL0     H45772   5.692   9.346  10.499  0.6287 -0.0484  0.4772
  347MOL0     H45773   5.746   9.511  10.469 -2.9507  0.0050  2.8954
  347MOL0     H45774   5.776   9.458  10.219 -3.6520  1.7238  0.7190
  347MOL0     H45775   5.709   9.295  10.259 -0.5791  1.1556 -0.5061
  347MOL0     H45776   5.962   9.433  10.360 -1.8011  0.4928  1.4742
  347MOL0     H45777   5.931   9.271  10.405  2.1078  0.6422  1.1319
  347MOL0     H45778   5.991   9.347  10.111  1.4775  0.9938 -0.2710
  347MOL0     H45779   5.946   9.188  10.176 -2.7244  0.0835  3.5298
  347MOL0     H45780   6.135   9.202  10.326 -4.4578  0.3289  0.0601
  347MOL0     H45781   6.172   9.371  10.277  2.5568 -2.1216  3.2913
  347MOL0     H45782   6.181   9.122  10.100 -1.6952  0.6754 -2.3104
  347MOL0     H45783   6.212   9.289  10.047 -2.9311 -1.6631 -1.7514
  347MOL0     H45784   6.378   9.129  10.248 -1.6952 -0.9210 -0.6290
  347MOL0     H45785   6.401   9.299  10.191  0.0432 -0.3540 -1.1150
  347MOL0     H45786   5.326   9.615  10.363 -0.4526  0.4887  1.1313
  347MOL0     H45787   5.078   9.612  10.318  1.1704  0.3341 -1.0793
  347MOL0     H45788   4.631   9.146  10.273 -0.8434  0.3996 -2.6152
  347MOL0     H45789   4.413   9.180  10.202 -2.4309  1.6260 -2.1193
  347MOL0     H45790   3.785   9.462   8.985 -0.5849  0.9813  1.0708
  347MOL0     H45791   4.005   9.586   8.941 -1.3622 -2.3186 -0.3135
  347MOL0     H45792   4.402   9.697   9.113 -1.1458  1.2416 -0.8015
  347MOL0     H45793   4.643   9.747   9.179  1.8174 -0.4001  4.2558
  347MOL0     H45794   4.834   9.851   9.232  1.5155  1.2972  0.0089
  347MOL0     H45795   4.764   9.794   9.394 -1.0875 -0.6463 -2.1614
  347MOL0     H45796   5.017   9.857   9.365 -2.5063 -1.3394 -2.4249
  347MOL0     H45797   4.957  10.025   9.369 -0.3053  0.0295  0.5875
  347MOL0     H45798   4.963   9.815   9.601  1.0925  1.2152  1.9016
  347MOL0     H45799   4.849   9.956   9.584 -0.4154  0.8397 -2.0589
  347MOL0     H45800   5.051  10.094   9.609  2.5425 -1.1961 -0.0063
  347MOL0     H45801   5.025   9.987   9.725 -2.6355 -0.5370 -1.2272
  347MOL0     H45802   5.398   9.875   9.576 -0.7935 -3.1221  1.9957
  347MOL0     H45803   4.514  10.110   9.353 -0.6239 -0.1582  0.8395
  347MOL0     H45804   4.271  10.070   9.286  1.2746  0.9362  2.2173
  348MOL0     O45805   4.755   9.942   1.634  0.3751 -0.9561  0.2745
  348MOL0     C45806   4.704  10.053   1.622  0.6236  0.1950 -0.6512
  348MOL0     O45807   4.764  10.173   1.639  0.4959  0.0572 -0.3341
  348MOL0     C45808   4.894  10.189   1.673 -0.3293  0.8775  0.1939
  348MOL0     C45809   4.944  10.170   1.802  0.6214 -0.0828 -0.1909
  348MOL0     C45810   5.077  10.208   1.815 -0.0922  0.5234 -0.0606
  348MOL0     C45811   5.170  10.231   1.712  0.3286  0.1551 -0.1111
  348MOL0     O45812   5.296  10.263   1.761 -0.2001 -0.2448  0.3345
  348MOL0     C45813   5.389  10.303   1.659  0.9313 -0.3647  0.0459
  348MOL0     C45814   5.527  10.342   1.720 -0.2330 -0.5206  0.7711
  348MOL0     C45815   5.609  10.218   1.759  0.3509  0.1888 -0.1455
  348MOL0     C45816   5.756  10.259   1.797 -0.1417 -0.4334  0.5782
  348MOL0     C45817   5.852  10.142   1.773 -0.4806 -0.2266  0.1974
  348MOL0     C45818   5.996  10.178   1.801 -0.1304 -0.4537 -0.5713
  348MOL0     C45819   6.086  10.055   1.767  0.2569  0.4677 -0.2505
  348MOL0     C45820   6.235  10.083   1.747  0.1405 -0.8974  0.1086
  348MOL0     N45821   6.315   9.974   1.795 -0.8018 -0.2276 -0.0267
  348MOL0     C45822   6.313   9.848   1.742 -0.1426 -0.3150 -0.0544
  348MOL0     C45823   6.403   9.776   1.804 -0.5911 -0.1841 -0.5048
  348MOL0     C45824   6.430   9.633   1.778  0.3462  0.6454 -0.0691
  348MOL0     C45825   6.487   9.604   1.639 -0.6049  0.0382 -0.1306
  348MOL0     C45826   6.531   9.452   1.626  0.3238  0.1978 -0.2613
  348MOL0     C45827   6.617   9.423   1.498  0.2048 -0.2935  0.0749
  348MOL0     O45828   6.653   9.285   1.493 -0.1252  0.1295 -0.2869
  348MOL0     C45829   6.558   9.204   1.432 -0.0958 -0.0555 -0.3213
  348MOL0     C45830   6.557   9.201   1.295  0.4217  0.5406  0.7820
  348MOL0     C45831   6.453   9.144   1.230 -0.0103  0.6107  0.2674
  348MOL0     C45832   6.338   9.092   1.302 -0.0897 -0.1677  0.3219
  348MOL0     C45833   6.232   9.020   1.233 -0.1302 -0.8199  0.8899
  348MOL0     O45834   6.160   8.924   1.310  0.0182 -0.4137 -0.3633
  348MOL0     C45835   6.050   8.861   1.253  0.0515 -0.0883  0.3508
  348MOL0     C45836   5.946   8.933   1.181 -0.3496  0.6076  0.0646
  348MOL0     C45837   5.831   8.863   1.134  0.6083 -0.0081 -0.7004
  348MOL0     C45838   5.807   8.725   1.159  0.3234  0.1835 -0.0179
  348MOL0     O45839   5.700   8.670   1.105  0.9654  0.6626 -0.3165
  348MOL0     C45840   5.640   8.548   1.156 -0.9620  0.4581  0.4795
  348MOL0     C45841   5.495   8.549   1.130  0.0517 -0.2609 -0.2512
  348MOL0     C45842   5.419   8.669   1.180 -0.2242  0.7180  0.3798
  348MOL0     C45843   5.441   8.670   1.336 -0.1556  0.4048 -0.5500
  348MOL0     C45844   5.372   8.795   1.401 -0.2612  0.0465 -1.0583
  348MOL0     C45845   5.222   8.780   1.404 -0.1546  0.1699  1.0672
  348MOL0     C45846   5.161   8.875   1.505 -0.7107 -0.7157  0.4242
  348MOL0     C45847   5.006   8.865   1.512 -0.2987 -0.2993  0.0247
  348MOL0    Cl45848   4.963   8.702   1.585 -0.1120  0.0644 -0.1620
  348MOL0     C45849   5.903   8.667   1.253  0.3420  0.5409  0.9408
  348MOL0     C45850   6.022   8.734   1.281 -0.1284 -0.8724  0.9912
  348MOL0     O45851   6.208   9.056   1.123 -0.1283 -0.3222  0.0551
  348MOL0     C45852   6.348   9.090   1.438 -0.5331  0.2303  0.2717
  348MOL0     C45853   6.456   9.145   1.504 -0.6261  0.5399  0.3466
  348MOL0     N45854   6.451   9.859   1.906  0.2444  0.7151  0.4632
  348MOL0     N45855   6.401   9.983   1.893  0.6888  0.2236  0.3974
  348MOL0     C45856   5.121  10.231   1.585  0.6769 -0.5996 -0.1790
  348MOL0     C45857   4.981  10.217   1.563  0.4080 -0.2927 -0.2158
  348MOL0     C45858   4.569  10.059   1.557  0.3014  0.4035 -0.4362
  348MOL0     C45859   4.478   9.951   1.555  0.3676 -0.4866 -0.0348
  348MOL0     C45860   4.354   9.963   1.496  0.1411 -0.9582  0.0896
  348MOL0     C45861   4.307  10.085   1.443  0.2420 -0.3140  0.3966
  348MOL0     O45862   4.178  10.093   1.398  0.1655 -0.1019 -0.3671
  348MOL0     C45863   4.144  10.139   1.266  0.6712  0.3539  1.5264
  348MOL0     C45864   4.037  10.037   1.202 -0.1000  0.4976  0.1546
  348MOL0     C45865   3.904  10.045   1.275 -0.4169  0.0997 -0.4994
  348MOL0     C45866   3.794   9.951   1.226  0.6147 -0.0093 -0.9299
  348MOL0     C45867   3.668   9.995   1.290 -0.2678 -0.3047 -0.3489
  348MOL0     C45868   3.573  10.044   1.354 -0.3981  0.6364  0.7128
  348MOL0     C45869   4.401  10.186   1.431 -0.0251 -0.1110 -0.3295
  348MOL0     C45870   4.526  10.177   1.496 -0.5812  0.0591 -0.2618
  348MOL0     H45871   4.874  10.135   1.877  0.1284 -1.4878 -1.2583
  348MOL0     H45872   5.122  10.203   1.913 -2.9896 -4.5188  1.3588
  348MOL0     H45873   5.343  10.388   1.609  4.0157  0.9023 -0.8326
  348MOL0     H45874   5.402  10.220   1.589 -0.6352  1.2849 -2.3490
  348MOL0     H45875   5.507  10.416   1.798  0.7358  2.0310 -1.2204
  348MOL0     H45876   5.584  10.403   1.648  1.4303  0.6405  2.9620
  348MOL0     H45877   5.606  10.165   1.663  0.8529 -1.3665  0.6723
  348MOL0     H45878   5.570  10.154   1.838 -2.4441 -0.2056 -1.7048
  348MOL0     H45879   5.787  10.337   1.728 -0.2097 -0.9271 -0.0201
  348MOL0     H45880   5.761  10.299   1.899 -2.2871 -1.3097  1.0856
  348MOL0     H45881   5.846  10.101   1.672 -0.2124  2.3098 -0.9313
  348MOL0     H45882   5.826  10.063   1.844  2.4321 -0.2700  1.3494
  348MOL0     H45883   6.015  10.202   1.906  0.3474 -3.1464  0.0330
  348MOL0     H45884   6.023  10.272   1.750 -0.2337  0.1360  0.4379
  348MOL0     H45885   6.069   9.990   1.853 -2.1434  2.2911  0.7436
  348MOL0     H45886   6.056   9.998   1.678 -0.5888 -1.3000  1.0943
  348MOL0     H45887   6.252  10.176   1.803  0.9178 -0.9220 -0.0790
  348MOL0     H45888   6.262  10.103   1.643 -0.2508  0.0157  0.1684
  348MOL0     H45889   6.255   9.810   1.659 -2.6947 -1.2574  2.0244
  348MOL0     H45890   6.345   9.570   1.808 -0.8794  1.7202 -1.1230
  348MOL0     H45891   6.506   9.595   1.846 -1.0418 -1.2882  0.4869
  348MOL0     H45892   6.570   9.669   1.613 -1.2356  0.6890 -0.5441
  348MOL0     H45893   6.402   9.617   1.571 -0.5962 -3.7091 -1.0755
  348MOL0     H45894   6.583   9.432   1.720  0.0556  1.6665  0.2300
  348MOL0     H45895   6.434   9.402   1.632 -0.2211  1.4402  2.9428
  348MOL0     H45896   6.715   9.468   1.516  0.5485 -1.6187  1.7113
  348MOL0     H45897   6.561   9.455   1.409 -0.1499  0.6688  0.6257
  348MOL0     H45898   6.630   9.247   1.229  0.6310 -2.6685 -1.4198
  348MOL0     H45899   6.446   9.135   1.122 -1.5231  1.5106  0.2679
  348MOL0     H45900   5.958   9.040   1.167 -0.7209  0.9209  1.9895
  348MOL0     H45901   5.756   8.911   1.073 -0.4704 -0.0584  0.5342
  348MOL0     H45902   5.670   8.524   1.259 -0.1349 -0.7399 -0.0137
  348MOL0     H45903   5.676   8.462   1.099 -4.3159  0.1933 -1.5010
  348MOL0     H45904   5.444   8.461   1.171 -0.7601  0.5699  0.5716
  348MOL0     H45905   5.500   8.543   1.021  2.8906 -3.5612 -0.1257
  348MOL0     H45906   5.314   8.656   1.152 -0.3874  1.9565  0.3885
  348MOL0     H45907   5.452   8.759   1.127  1.0737  0.0135 -0.0424
  348MOL0     H45908   5.404   8.575   1.375 -0.4768 -0.3862 -2.6261
  348MOL0     H45909   5.547   8.671   1.364 -0.7256 -1.6380  2.0376
  348MOL0     H45910   5.405   8.889   1.356  2.4570  2.0538  4.2122
  348MOL0     H45911   5.401   8.812   1.505 -2.3034  0.4366 -0.5201
  348MOL0     H45912   5.196   8.676   1.424 -0.9868  0.2994  0.7181
  348MOL0     H45913   5.189   8.808   1.303 -1.8600 -1.8970  0.9826
  348MOL0     H45914   5.195   8.859   1.607  0.7016  1.7041  0.4127
  348MOL0     H45915   5.190   8.977   1.477 -2.0959  0.4005  2.7139
  348MOL0     H45916   4.960   8.867   1.413 -0.3653 -0.1143  0.0573
  348MOL0     H45917   4.956   8.948   1.563 -0.0761 -0.3378  0.3108
  348MOL0     H45918   5.891   8.563   1.281  0.4411 -0.8717 -3.4530
  348MOL0     H45919   6.090   8.676   1.342 -0.6218 -1.3035  1.1301
  348MOL0     H45920   6.264   9.057   1.497 -2.0813 -0.3500 -2.0933
  348MOL0     H45921   6.443   9.147   1.612  1.9800 -3.2045  0.9328
  348MOL0     H45922   5.184  10.251   1.500  0.0051 -0.1334 -0.5737
  348MOL0     H45923   4.937  10.231   1.465 -3.2929 -2.9992  0.8666
  348MOL0     H45924   4.502   9.858   1.604  2.7300 -1.3085 -2.5021
  348MOL0     H45925   4.276   9.888   1.509 -1.7939  1.2472  2.2776
  348MOL0     H45926   4.234  10.143   1.204 -0.7578 -0.0339 -0.7245
  348MOL0     H45927   4.096  10.237   1.269 -0.7649  0.3502 -5.0139
  348MOL0     H45928   4.026  10.059   1.096 -0.5611  0.2362  0.1446
  348MOL0     H45929   4.089   9.941   1.209  0.3235  0.6077 -1.2373
  348MOL0     H45930   3.874  10.150   1.265  3.8157  1.4652 -1.0793
  348MOL0     H45931   3.919  10.023   1.381  2.6440  1.6219 -0.4937
  348MOL0     H45932   3.790   9.950   1.116  3.8989 -0.2832 -1.1546
  348MOL0     H45933   3.816   9.849   1.259 -2.8398 -0.4400  0.4865
  348MOL0     H45934   3.497  10.099   1.407 -0.0847  0.2536  1.5751
  348MOL0     H45935   4.373  10.278   1.381  1.4568  0.8593  0.5555
  348MOL0     H45936   4.589  10.265   1.503  0.8510 -1.0159  1.1430
  349MOL0     O45937   0.276   5.355   6.405  0.1905 -0.0517  0.2794
  349MOL0     C45938   0.270   5.257   6.333  0.3416  0.2655 -0.2639
  349MOL0     O45939   0.149   5.195   6.305 -0.1592  0.4747 -0.5334
  349MOL0     C45940   0.028   5.257   6.337 -0.6721 -0.4332  0.6548
  349MOL0     C45941   0.008   5.398   6.329  0.0298 -0.0891  0.2524
  349MOL0     C45942  -0.117   5.449   6.360  0.6572  0.3388  0.2093
  349MOL0     C45943  -0.219   5.365   6.410  0.1787  0.2730 -0.3204
  349MOL0     O45944  -0.340   5.423   6.442  0.4762  0.1499 -0.3781
  349MOL0     C45945  -0.447   5.334   6.494 -0.4592 -0.1429 -0.4393
  349MOL0     C45946  -0.576   5.411   6.524  0.3519  1.3418 -0.2423
  349MOL0     C45947  -0.702   5.326   6.506  0.8127 -0.7581 -0.3121
  349MOL0     C45948  -0.826   5.414   6.505  0.2412 -0.4871 -0.1468
  349MOL0     C45949  -0.949   5.336   6.476  0.3988  0.0267 -0.2951
  349MOL0     C45950  -1.074   5.420   6.440 -0.8887  0.5116  0.0993
  349MOL0     C45951  -1.201   5.333   6.429 -0.2663 -0.0513  0.3939
  349MOL0     C45952  -1.324   5.410   6.384  0.5463  0.0768 -0.0576
  349MOL0     N45953  -1.358   5.516   6.480  0.7667 -0.2820 -0.7083
  349MOL0     C45954  -1.427   5.508   6.599 -0.0009 -0.4720 -0.1673
  349MOL0     C45955  -1.452   5.638   6.642  0.3869  0.4881  0.0796
  349MOL0     C45956  -1.516   5.661   6.773 -0.0904  0.1494 -0.2977
  349MOL0     C45957  -1.669   5.650   6.785 -0.2793  0.2421 -0.0368
  349MOL0     C45958  -1.729   5.728   6.909 -0.6772  0.8116 -0.4630
  349MOL0     C45959  -1.879   5.746   6.898 -0.8173 -0.1344  0.6558
  349MOL0     O45960  -1.931   5.618   6.932  0.1480  0.8297  0.2414
  349MOL0     C45961  -2.066   5.612   6.942  0.2678  0.0236  0.2788
  349MOL0     C45962  -2.160   5.713   6.917 -0.3258 -0.4852 -0.3246
  349MOL0     C45963  -2.291   5.690   6.937  0.6148 -0.1337 -0.1206
  349MOL0     C45964  -2.341   5.567   6.980 -0.9959 -0.6702  0.6470
  349MOL0     C45965  -2.483   5.547   7.016  0.4837 -0.2701 -0.4062
  349MOL0     O45966  -2.521   5.425   7.062  0.3733 -0.2204 -0.9275
  349MOL0     C45967  -2.643   5.395   7.118 -0.7430 -0.0921 -0.0997
  349MOL0     C45968  -2.641   5.274   7.187 -0.3655 -0.4627 -0.1712
  349MOL0     C45969  -2.761   5.227   7.249 -0.1232  0.0817 -0.0256
  349MOL0     C45970  -2.870   5.310   7.260  0.1742 -0.3011 -0.0788
  349MOL0     O45971  -2.985   5.286   7.325 -0.5811 -0.4837  0.0425
  349MOL0     C45972  -3.007   5.164   7.393  0.9448  0.2127 -0.4943
  349MOL0     C45973  -3.142   5.153   7.462 -0.5402 -0.3418 -0.1023
  349MOL0     C45974  -3.189   5.270   7.544  0.3810 -0.4526 -0.9840
  349MOL0     C45975  -3.226   5.386   7.464  0.2760  0.0831  0.8757
  349MOL0     C45976  -3.324   5.472   7.541  0.2938  0.6588  0.0488
  349MOL0     C45977  -3.269   5.529   7.668  0.1722 -0.3871  0.4482
  349MOL0     C45978  -3.369   5.629   7.733  0.3560  0.0571  0.0701
  349MOL0     C45979  -3.321   5.694   7.859 -0.4485  0.7289 -0.4198
  349MOL0    Cl45980  -3.326   5.575   7.983  0.4353  0.1032  0.0948
  349MOL0     C45981  -2.867   5.427   7.189 -0.2427 -0.1061 -0.3877
  349MOL0     C45982  -2.759   5.473   7.120  0.2015 -0.0660  0.6595
  349MOL0     O45983  -2.555   5.649   7.006  0.3337  0.5732 -0.3311
  349MOL0     C45984  -2.253   5.460   6.991  0.3051  0.1831  0.0751
  349MOL0     C45985  -2.119   5.486   6.975  0.7718 -0.6890  0.3853
  349MOL0     N45986  -1.391   5.720   6.546 -0.4528 -0.5098  0.8508
  349MOL0     N45987  -1.353   5.649   6.446 -0.3951  0.3591 -1.2395
  349MOL0     C45988  -0.196   5.227   6.426  0.4793 -0.3150  0.2433
  349MOL0     C45989  -0.066   5.176   6.382  0.6617  0.5557 -0.9377
  349MOL0     C45990   0.394   5.219   6.278  0.2478 -0.1190 -0.3381
  349MOL0     C45991   0.398   5.116   6.180  0.1978 -0.5286  0.0024
  349MOL0     C45992   0.515   5.087   6.108  0.0834 -0.1211  0.9396
  349MOL0     C45993   0.633   5.148   6.138  0.8407 -0.2506 -0.4737
  349MOL0     O45994   0.733   5.111   6.058  0.1524  0.0037  0.1474
  349MOL0     C45995   0.870   5.138   6.095 -0.1086  0.6918  0.0086
  349MOL0     C45996   0.951   5.030   6.026 -0.6806  0.3022  0.2666
  349MOL0     C45997   0.926   5.007   5.875  0.0347 -0.3400  0.5994
  349MOL0     C45998   0.906   5.144   5.800  0.0856  0.1095  0.3127
  349MOL0     C45999   1.036   5.214   5.793  0.1380 -0.0688  0.0029
  349MOL0     C46000   1.146   5.276   5.800 -0.4218  0.8814 -0.0732
  349MOL0     C46001   0.632   5.253   6.233 -0.1995 -0.6137 -0.9635
  349MOL0     C46002   0.516   5.286   6.311  0.6885 -0.3978 -0.5913
  349MOL0     H46003   0.084   5.463   6.287  0.2574 -0.9994 -0.7966
  349MOL0     H46004  -0.141   5.553   6.343  0.5667  0.1341 -1.0729
  349MOL0     H46005  -0.423   5.293   6.592  0.0234  2.5917  0.6935
  349MOL0     H46006  -0.474   5.258   6.420  1.5770 -0.9337 -0.4248
  349MOL0     H46007  -0.588   5.497   6.458 -0.9100  1.9313  0.7234
  349MOL0     H46008  -0.574   5.443   6.629 -0.9185 -1.8920  0.9171
  349MOL0     H46009  -0.700   5.248   6.583  0.8459  0.0395  0.5130
  349MOL0     H46010  -0.689   5.278   6.408  1.9952  0.1995 -0.6420
  349MOL0     H46011  -0.830   5.473   6.596 -2.0295 -0.8792  0.0562
  349MOL0     H46012  -0.806   5.493   6.433 -0.3868  0.2905  0.5167
  349MOL0     H46013  -0.970   5.288   6.572  0.0285  2.2947  0.8119
  349MOL0     H46014  -0.928   5.259   6.401  0.6449 -0.9603  0.7575
  349MOL0     H46015  -1.062   5.476   6.346 -2.2460  0.9137  0.1413
  349MOL0     H46016  -1.088   5.500   6.513  0.5201 -1.1292  2.3054
  349MOL0     H46017  -1.193   5.251   6.357 -1.7445 -0.6674  0.8760
  349MOL0     H46018  -1.220   5.282   6.524 -1.3360 -1.5518 -0.5943
  349MOL0     H46019  -1.407   5.339   6.380  0.5966  0.0182 -0.0709
  349MOL0     H46020  -1.309   5.462   6.288 -1.0006  0.1015 -0.3119
  349MOL0     H46021  -1.463   5.414   6.641  0.6381 -1.2174 -1.2372
  349MOL0     H46022  -1.492   5.767   6.787  0.7571 -0.0840  0.1319
  349MOL0     H46023  -1.470   5.603   6.855 -1.6011 -1.8397 -0.7855
  349MOL0     H46024  -1.696   5.545   6.802  1.4746 -0.4788 -1.3068
  349MOL0     H46025  -1.713   5.690   6.693  1.0708  1.9358 -0.0009
  349MOL0     H46026  -1.701   5.692   7.009 -2.4754  0.8921  0.1055
  349MOL0     H46027  -1.684   5.828   6.902  1.6194 -0.0032  1.3743
  349MOL0     H46028  -1.912   5.782   6.800 -2.7128 -4.3875 -0.5209
  349MOL0     H46029  -1.901   5.817   6.978 -2.1763 -0.9853  1.0648
  349MOL0     H46030  -2.140   5.814   6.883 -0.3991  1.0838  3.7491
  349MOL0     H46031  -2.359   5.771   6.913 -0.5816 -1.3795 -1.0327
  349MOL0     H46032  -2.556   5.208   7.200 -0.1731 -0.2893 -0.5434
  349MOL0     H46033  -2.760   5.133   7.304  2.2737 -0.1445 -0.3208
  349MOL0     H46034  -2.934   5.146   7.471 -1.1617 -0.2397  1.4857
  349MOL0     H46035  -3.005   5.080   7.322 -2.0895 -1.2617  0.9819
  349MOL0     H46036  -3.146   5.062   7.521  0.6977  0.3742  1.1375
  349MOL0     H46037  -3.211   5.132   7.380  0.4100  0.1919 -1.0761
  349MOL0     H46038  -3.120   5.302   7.623  1.9246 -1.8235 -1.7132
  349MOL0     H46039  -3.284   5.237   7.588 -0.0987  1.8412 -0.1873
  349MOL0     H46040  -3.134   5.441   7.441 -1.1633  2.5572  0.6949
  349MOL0     H46041  -3.272   5.342   7.375  0.6741  0.5847  0.4155
  349MOL0     H46042  -3.421   5.422   7.556  0.5669 -0.5447 -1.8723
  349MOL0     H46043  -3.348   5.560   7.481 -0.3276  0.0241 -0.6637
  349MOL0     H46044  -3.180   5.586   7.640  0.8284 -1.4792  0.2427
  349MOL0     H46045  -3.237   5.446   7.732  2.9941 -0.1023 -0.4683
  349MOL0     H46046  -3.398   5.708   7.664  2.3415 -1.9483 -3.3564
  349MOL0     H46047  -3.455   5.565   7.754  0.8188 -2.4951 -4.4224
  349MOL0     H46048  -3.391   5.773   7.885  1.9156  1.9223  3.1107
  349MOL0     H46049  -3.218   5.731   7.850 -1.5540  4.0311 -1.1419
  349MOL0     H46050  -2.952   5.490   7.213  0.6676  2.2128 -2.7805
  349MOL0     H46051  -2.759   5.568   7.067  2.3144 -0.3472  0.0608
  349MOL0     H46052  -2.286   5.362   7.025  0.7399 -0.1805 -0.5211
  349MOL0     H46053  -2.047   5.408   6.998  1.1171 -0.7332 -0.7534
  349MOL0     H46054  -0.267   5.160   6.473  1.8361 -1.7126  0.3725
  349MOL0     H46055  -0.035   5.072   6.392 -0.7631  0.2229  0.3771
  349MOL0     H46056   0.303   5.078   6.146 -0.4712  1.3411 -0.3100
  349MOL0     H46057   0.519   5.015   6.027  2.4892  1.4004 -0.3829
  349MOL0     H46058   0.880   5.132   6.204 -1.7330  1.6261  0.2461
  349MOL0     H46059   0.890   5.233   6.045 -0.9533 -0.9955 -3.9447
  349MOL0     H46060   1.059   5.034   6.046 -0.6269 -0.0687  0.0607
  349MOL0     H46061   0.918   4.932   6.062 -1.4618 -0.6815 -2.8373
  349MOL0     H46062   0.846   4.934   5.867 -1.3076  1.2260 -1.1916
  349MOL0     H46063   1.012   4.968   5.821 -0.7667  0.1075 -1.0637
  349MOL0     H46064   0.867   5.131   5.698  0.3983  1.4591 -0.0047
  349MOL0     H46065   0.824   5.200   5.847 -0.3977 -2.7326  3.2029
  349MOL0     H46066   1.243   5.320   5.812  1.2702 -2.3539 -0.9631
  349MOL0     H46067   0.726   5.307   6.239 -0.2201 -0.5540 -1.1649
  349MOL0     H46068   0.531   5.370   6.378 -2.2383 -0.7516  0.6710
  350MOL0     O46069   5.415   2.912   0.827  0.1843  0.1142 -0.4642
  350MOL0     C46070   5.486   2.983   0.893  0.5646  0.1099  0.0190
  350MOL0     O46071   5.442   3.075   0.978  0.3974 -0.1686  0.0902
  350MOL0     C46072   5.308   3.093   0.987  0.3363  0.4679  0.4393
  350MOL0     C46073   5.283   3.226   1.026 -0.0922  0.5554  0.0791
  350MOL0     C46074   5.156   3.277   1.043 -0.4506 -0.2062  0.4302
  350MOL0     C46075   5.043   3.196   1.017 -0.3740  1.0806  0.2575
  350MOL0     O46076   4.911   3.227   1.031 -0.4714  0.1426 -0.0807
  350MOL0     C46077   4.874   3.337   1.113  1.6108 -0.6280  0.2313
  350MOL0     C46078   4.724   3.376   1.082 -0.2904  0.0360  0.1141
  350MOL0     C46079   4.694   3.473   1.185  0.0373 -0.7345 -0.2257
  350MOL0     C46080   4.568   3.560   1.159  0.2421  0.4379  0.4611
  350MOL0     C46081   4.438   3.480   1.166 -0.6231  0.2347  0.0942
  350MOL0     C46082   4.311   3.570   1.151  0.0604  0.1442  0.8041
  350MOL0     C46083   4.178   3.488   1.140  0.6749  1.0007  0.1590
  350MOL0     C46084   4.064   3.578   1.105  0.5933 -0.1338 -0.5381
  350MOL0     N46085   3.932   3.527   1.121  0.0905  0.3025  0.2511
  350MOL0     C46086   3.824   3.556   1.039 -0.1480  0.1006 -0.3249
  350MOL0     C46087   3.729   3.468   1.085 -0.5305 -0.5852  0.1529
  350MOL0     C46088   3.592   3.455   1.046  0.8033  0.9684 -0.3466
  350MOL0     C46089   3.538   3.320   1.077  0.4577  0.4789  0.5012
  350MOL0     C46090   3.399   3.307   1.022  0.4421  0.8574 -0.5228
  350MOL0     C46091   3.313   3.198   1.078 -0.5884 -0.0060 -0.0664
  350MOL0     O46092   3.315   3.222   1.224 -0.0959 -0.6078 -0.2615
  350MOL0     C46093   3.220   3.162   1.307 -0.1580 -0.2150  0.3067
  350MOL0     C46094   3.139   3.057   1.267 -0.2514  0.3005 -0.9445
  350MOL0     C46095   3.067   2.979   1.362  0.5973  0.6154  0.4975
  350MOL0     C46096   3.066   3.010   1.499 -0.2399 -0.5171  0.3160
  350MOL0     C46097   2.981   2.927   1.592 -0.6992 -1.2751  0.3763
  350MOL0     O46098   2.971   2.971   1.725 -0.3269  0.0822 -0.4757
  350MOL0     C46099   2.883   2.923   1.821  0.8788  0.7673 -0.6562
  350MOL0     C46100   2.760   2.871   1.789 -0.1345  0.0310  0.6097
  350MOL0     C46101   2.663   2.836   1.887  0.1091 -0.7720 -0.2988
  350MOL0     C46102   2.687   2.865   2.019 -0.5656  0.2874  0.8391
  350MOL0     O46103   2.587   2.831   2.107  0.2066 -0.3891  0.0481
  350MOL0     C46104   2.557   2.945   2.203  0.2649  0.5932  0.7394
  350MOL0     C46105   2.424   2.941   2.266  0.4538  0.2884  0.5002
  350MOL0     C46106   2.396   2.807   2.339  0.3924  0.0310 -0.2306
  350MOL0     C46107   2.251   2.801   2.405 -0.4454 -0.3169 -0.0103
  350MOL0     C46108   2.212   2.657   2.427 -0.5689  0.7702  0.1383
  350MOL0     C46109   2.075   2.638   2.480  1.0428  0.3899 -0.0452
  350MOL0     C46110   2.044   2.490   2.502  0.1659  0.3303 -0.6267
  350MOL0     C46111   1.904   2.458   2.555  0.4687 -0.5410 -0.6474
  350MOL0    Cl46112   1.794   2.467   2.413 -0.2156  0.0937 -0.5018
  350MOL0     C46113   2.817   2.907   2.052 -0.3428 -0.7859 -0.1765
  350MOL0     C46114   2.913   2.948   1.951 -0.1103  1.0150  0.0258
  350MOL0     O46115   2.917   2.834   1.544 -0.1988  0.6033  0.4994
  350MOL0     C46116   3.145   3.125   1.535 -0.0761  0.1743 -0.4684
  350MOL0     C46117   3.217   3.198   1.438 -0.2644 -0.4512 -0.5567
  350MOL0     N46118   3.783   3.383   1.175  0.0827  0.5062 -0.1990
  350MOL0     N46119   3.900   3.422   1.201  0.3369  0.0414 -0.7272
  350MOL0     C46120   5.069   3.055   0.983  0.4946 -0.0813 -1.1615
  350MOL0     C46121   5.196   3.001   0.973  0.1394 -0.6961  0.3017
  350MOL0     C46122   5.632   2.969   0.871  0.1408  0.2995  0.0229
  350MOL0     C46123   5.728   3.025   0.962 -0.6887  0.1585 -0.2137
  350MOL0     C46124   5.865   2.995   0.950 -0.4850 -0.3156  0.2777
  350MOL0     C46125   5.910   2.919   0.837 -0.2015  0.2888  0.3668
  350MOL0     O46126   6.041   2.879   0.819 -0.1260 -0.0649 -0.4493
  350MOL0     C46127   6.136   2.915   0.922  0.6335  0.2261  0.6451
  350MOL0     C46128   6.136   2.807   1.025 -0.2424  0.4150  0.0820
  350MOL0     C46129   6.182   2.672   0.979 -0.4736 -0.3373 -0.7786
  350MOL0     C46130   6.326   2.670   0.944 -0.3351  0.6900 -0.4586
  350MOL0     C46131   6.381   2.534   0.904 -0.5585 -0.1110 -1.0521
  350MOL0     C46132   6.427   2.426   0.876 -0.2372 -0.6578  0.4708
  350MOL0     C46133   5.812   2.868   0.747  0.5074  0.3560 -0.0272
  350MOL0     C46134   5.676   2.893   0.758 -0.1219  0.2096 -0.4818
  350MOL0     H46135   5.367   3.294   1.033 -1.0397  1.6575  1.1551
  350MOL0     H46136   5.142   3.382   1.065 -1.1475 -0.1711 -0.1479
  350MOL0     H46137   4.923   3.428   1.079 -2.0662  0.9334 -1.4546
  350MOL0     H46138   4.892   3.320   1.220  3.5598 -2.2811 -0.2914
  350MOL0     H46139   4.665   3.284   1.092  2.3577 -2.0079 -1.7350
  350MOL0     H46140   4.715   3.421   0.982 -0.9008  2.0345  0.9990
  350MOL0     H46141   4.765   3.556   1.191 -0.6404 -0.0415 -1.4872
  350MOL0     H46142   4.679   3.425   1.282  2.1090  0.4826  0.7732
  350MOL0     H46143   4.582   3.640   1.233  3.5405  1.2101 -0.7953
  350MOL0     H46144   4.578   3.607   1.061  0.6331  2.2335  1.3164
  350MOL0     H46145   4.428   3.433   1.264 -1.9305 -0.4166 -0.3200
  350MOL0     H46146   4.440   3.405   1.087  0.0541  2.5380 -2.2221
  350MOL0     H46147   4.331   3.633   1.064 -2.5488 -1.1346 -0.8520
  350MOL0     H46148   4.301   3.652   1.223 -0.8673 -0.4621  1.3960
  350MOL0     H46149   4.177   3.413   1.060  0.2000  0.2146  0.8942
  350MOL0     H46150   4.174   3.459   1.245 -0.8386 -0.9012 -0.3707
  350MOL0     H46151   4.078   3.602   0.999 -1.3399 -0.3304 -0.8756
  350MOL0     H46152   4.067   3.663   1.173 -3.9244  0.1115 -0.3641
  350MOL0     H46153   3.820   3.630   0.959 -0.2393 -0.9545 -1.3187
  350MOL0     H46154   3.582   3.477   0.939  1.2852  2.6852 -0.0651
  350MOL0     H46155   3.526   3.521   1.103 -1.0936  0.2013 -1.5413
  350MOL0     H46156   3.546   3.309   1.186 -0.6950 -0.3298  0.5242
  350MOL0     H46157   3.595   3.236   1.036 -2.6034 -1.9009  0.7809
  350MOL0     H46158   3.344   3.401   1.026 -2.4616 -0.7457  0.5064
  350MOL0     H46159   3.419   3.277   0.918 -2.7140 -0.3205 -0.9016
  350MOL0     H46160   3.366   3.104   1.058  3.3498  2.3981 -2.1866
  350MOL0     H46161   3.218   3.192   1.026 -0.8987  0.3464  0.4482
  350MOL0     H46162   3.138   3.014   1.167  2.0999  2.3157 -1.9224
  350MOL0     H46163   2.998   2.906   1.321 -2.4198  3.7049 -0.3580
  350MOL0     H46164   2.742   2.855   1.683  0.3453  1.4076  0.3040
  350MOL0     H46165   2.577   2.786   1.843 -1.1209  0.7169  0.2945
  350MOL0     H46166   2.563   3.041   2.152 -1.2402  0.2361 -0.1504
  350MOL0     H46167   2.636   2.956   2.279  2.4962  1.1577 -1.5167
  350MOL0     H46168   2.352   2.954   2.184  0.5744 -0.7101  0.2307
  350MOL0     H46169   2.419   3.026   2.335  1.5850  0.2148  0.6898
  350MOL0     H46170   2.476   2.801   2.414 -0.3090  0.7023  0.5879
  350MOL0     H46171   2.409   2.724   2.268 -0.7494  0.2653 -0.7292
  350MOL0     H46172   2.250   2.861   2.497  0.2629  2.4061 -1.6455
  350MOL0     H46173   2.176   2.852   2.344 -0.3953  1.4266  1.3076
  350MOL0     H46174   2.287   2.609   2.491 -0.9407 -1.0429 -0.7359
  350MOL0     H46175   2.216   2.602   2.332 -0.7359 -1.5535  1.4047
  350MOL0     H46176   2.001   2.690   2.418  1.2294  2.8769  1.7046
  350MOL0     H46177   2.069   2.696   2.572 -1.0929 -0.4874  0.4337
  350MOL0     H46178   2.062   2.431   2.412 -2.5628  2.5214 -2.8036
  350MOL0     H46179   2.114   2.464   2.582  1.0864  1.3232 -1.0779
  350MOL0     H46180   1.873   2.522   2.639  3.4254 -1.7047  1.4869
  350MOL0     H46181   1.902   2.358   2.599  2.3175  0.3311  1.6522
  350MOL0     H46182   2.858   2.914   2.152 -0.0976 -0.2945 -0.3111
  350MOL0     H46183   3.007   2.991   1.983  0.4296 -0.1765  0.0659
  350MOL0     H46184   3.149   3.166   1.636 -1.2235 -0.1953 -0.2632
  350MOL0     H46185   3.280   3.280   1.472  0.6844 -0.5300 -2.0541
  350MOL0     H46186   4.991   2.979   0.987  0.3902  0.0513  3.0022
  350MOL0     H46187   5.210   2.895   0.955  1.9584 -0.5897  0.8619
  350MOL0     H46188   5.697   3.080   1.050  1.9721  1.8019 -0.1951
  350MOL0     H46189   5.923   3.033   1.033 -0.9834 -1.7997  1.3632
  350MOL0     H46190   6.108   3.011   0.966 -2.4008 -0.9676  1.6199
  350MOL0     H46191   6.231   2.914   0.868  1.2993  2.4007  1.6633
  350MOL0     H46192   6.180   2.844   1.118  0.1230 -0.9845  0.5006
  350MOL0     H46193   6.034   2.796   1.062  0.1132 -1.1510  0.7030
  350MOL0     H46194   6.128   2.641   0.890 -0.7498 -0.2865 -0.6279
  350MOL0     H46195   6.158   2.600   1.057 -2.3055  1.1367  0.1020
  350MOL0     H46196   6.335   2.738   0.859 -0.0592  1.6808  0.3440
  350MOL0     H46197   6.387   2.709   1.026 -3.2570  1.4858  1.4820
  350MOL0     H46198   6.471   2.334   0.843 -1.0361 -0.5936 -0.8283
  350MOL0     H46199   5.846   2.796   0.673 -0.0624 -0.1644  0.2112
  350MOL0     H46200   5.601   2.852   0.691 -0.3144  3.2003 -2.3180
  351MOL0     O46201   9.306  10.972   7.015  0.1496 -0.1305 -0.1219
  351MOL0     C46202   9.278  11.067   7.084  0.7283  0.3140 -1.4957
  351MOL0     O46203   9.159  11.130   7.086 -0.2441 -0.1176  0.6572
  351MOL0     C46204   9.044  11.091   7.023 -0.4623  0.6928 -0.1730
  351MOL0     C46205   8.948  11.186   6.969  0.1495  0.2541  0.7485
  351MOL0     C46206   8.827  11.139   6.920 -0.4597  0.4603 -0.3257
  351MOL0     C46207   8.794  11.003   6.911 -0.3499  0.5600  0.7807
  351MOL0     O46208   8.694  10.951   6.840  1.1317  0.0955 -0.6039
  351MOL0     C46209   8.595  10.903   6.928  0.5777  0.0904  0.5229
  351MOL0     C46210   8.456  10.900   6.870  1.1586  0.7395  0.1899
  351MOL0     C46211   8.348  10.848   6.969  0.2951  0.7535  0.8410
  351MOL0     C46212   8.232  10.782   6.894  0.1357  0.7098  0.1381
  351MOL0     C46213   8.142  10.720   7.005 -0.6218  0.7389  0.8477
  351MOL0     C46214   8.021  10.661   6.936 -0.5358 -0.5279 -0.1307
  351MOL0     C46215   7.900  10.626   7.025 -0.0545 -0.3104  0.4773
  351MOL0     C46216   7.803  10.527   6.948 -0.8455  0.6737  0.6990
  351MOL0     N46217   7.686  10.514   7.026 -0.5456  0.4710 -0.0137
  351MOL0     C46218   7.566  10.467   6.981  0.1011 -0.7459 -0.2841
  351MOL0     C46219   7.496  10.418   7.090  0.3757 -0.7986  0.9608
  351MOL0     C46220   7.360  10.384   7.094  0.5628  0.0309 -0.7580
  351MOL0     C46221   7.316  10.250   7.020 -0.7244  0.4551 -0.4096
  351MOL0     C46222   7.352  10.120   7.103  0.1925 -1.2916  0.5277
  351MOL0     C46223   7.498  10.094   7.114 -0.3878  0.2344  0.0808
  351MOL0     O46224   7.568  10.074   6.996  0.6903 -0.3874  0.5184
  351MOL0     C46225   7.701  10.099   6.992  0.9238  0.6280 -0.4835
  351MOL0     C46226   7.778  10.036   6.902  0.2072 -0.3189 -0.1450
  351MOL0     C46227   7.915  10.054   6.893  0.6868  0.3564 -0.3822
  351MOL0     C46228   7.978  10.137   6.983 -0.6477 -0.3176 -0.0678
  351MOL0     C46229   8.121  10.159   6.985 -0.6879 -0.0532  0.1219
  351MOL0     O46230   8.169  10.240   7.084  0.4349  0.5414 -0.0723
  351MOL0     C46231   8.302  10.264   7.098  0.2841 -0.6668  0.5685
  351MOL0     C46232   8.380  10.171   7.176 -0.1079  0.1732  0.7630
  351MOL0     C46233   8.518  10.197   7.188  0.8514  0.1617  0.0532
  351MOL0     C46234   8.573  10.315   7.138  0.7434  0.0568  0.2870
  351MOL0     O46235   8.702  10.344   7.180  0.7018  0.9628 -0.4081
  351MOL0     C46236   8.765  10.441   7.102  0.7600 -0.6914 -0.6486
  351MOL0     C46237   8.915  10.453   7.124 -0.2178 -0.5134 -0.8252
  351MOL0     C46238   9.002  10.547   7.036  0.1999 -0.1121 -0.2464
  351MOL0     C46239   9.142  10.563   7.084 -0.8337 -0.0156  0.1144
  351MOL0     C46240   9.158  10.639   7.218 -0.1819 -0.1826  0.4979
  351MOL0     C46241   9.310  10.684   7.235 -0.4074 -0.2744 -0.5284
  351MOL0     C46242   9.409  10.563   7.261  0.2196  0.0026  0.7803
  351MOL0     C46243   9.559  10.602   7.264 -0.3449 -0.7921 -0.2185
  351MOL0    Cl46244   9.625  10.755   7.337  0.0490  0.1411 -0.2914
  351MOL0     C46245   8.489  10.409   7.067  0.1123  0.0384  0.1500
  351MOL0     C46246   8.356  10.375   7.039 -0.0594 -0.0402  0.3881
  351MOL0     O46247   8.188  10.102   6.899  0.4844 -0.2703 -0.3614
  351MOL0     C46248   7.904  10.185   7.096  1.0433 -0.5306  0.3029
  351MOL0     C46249   7.764  10.167   7.095  0.2739  0.4298 -0.0095
  351MOL0     N46250   7.581  10.433   7.196  0.7381  0.4843  0.1070
  351MOL0     N46251   7.689  10.483   7.156  0.1971 -0.9119 -0.4934
  351MOL0     C46252   8.894  10.915   6.945  0.3360  0.6318 -0.1343
  351MOL0     C46253   9.006  10.955   7.016  0.2964  0.0359 -0.0528
  351MOL0     C46254   9.384  11.112   7.185 -0.1624 -0.3857  0.3055
  351MOL0     C46255   9.366  11.231   7.252 -0.9900 -0.7783  0.6838
  351MOL0     C46256   9.471  11.285   7.336  0.2679 -0.3589  0.4087
  351MOL0     C46257   9.594  11.221   7.348 -0.2834  0.2193  0.1451
  351MOL0     O46258   9.681  11.276   7.432 -0.1940 -0.2881 -0.0113
  351MOL0     C46259   9.815  11.234   7.470 -0.4097  0.2044  0.1864
  351MOL0     C46260   9.907  11.294   7.366  0.2865  1.0150 -0.0612
  351MOL0     C46261  10.058  11.284   7.417  0.0871  0.1202 -0.5043
  351MOL0     C46262  10.166  11.291   7.304 -0.0149 -0.3178 -0.2889
  351MOL0     C46263  10.295  11.269   7.370  1.2398 -0.3916  0.9375
  351MOL0     C46264  10.413  11.246   7.400 -0.1115 -0.5484 -0.6585
  351MOL0     C46265   9.605  11.102   7.277  0.8563  0.9942  0.3040
  351MOL0     C46266   9.503  11.041   7.201 -0.6443  0.5072  0.8833
  351MOL0     H46267   8.968  11.292   6.975  0.9853  0.3011 -1.7270
  351MOL0     H46268   8.756  11.205   6.871 -0.1003  1.2660  0.2274
  351MOL0     H46269   8.578  10.968   7.015  1.8785  2.2303 -0.7549
  351MOL0     H46270   8.620  10.801   6.959 -0.9132  0.1721  2.2104
  351MOL0     H46271   8.470  10.847   6.775 -0.0364  1.8481 -0.6332
  351MOL0     H46272   8.422  11.003   6.855  0.0533  0.6629  1.9873
  351MOL0     H46273   8.310  10.935   7.025 -1.9213  1.2616 -1.2807
  351MOL0     H46274   8.388  10.781   7.046  3.2640  2.0976  0.5808
  351MOL0     H46275   8.179  10.867   6.849 -1.1033  0.7860  1.6739
  351MOL0     H46276   8.272  10.719   6.814  0.7055  1.5006 -0.2146
  351MOL0     H46277   8.106  10.798   7.073 -0.2722  0.2762  1.5755
  351MOL0     H46278   8.195  10.641   7.057 -2.0981 -1.0193 -0.1997
  351MOL0     H46279   8.051  10.565   6.893 -2.2515 -0.0200 -2.6876
  351MOL0     H46280   7.984  10.724   6.855  0.6465 -0.9350 -1.0279
  351MOL0     H46281   7.934  10.588   7.121 -0.0048  1.3926  1.1654
  351MOL0     H46282   7.845  10.718   7.045  2.8423  1.3513  1.3881
  351MOL0     H46283   7.851  10.429   6.936 -0.6606  0.9878 -1.5489
  351MOL0     H46284   7.774  10.563   6.849 -0.1183 -2.6471 -0.8933
  351MOL0     H46285   7.521  10.474   6.883  0.9024 -4.8338 -1.1549
  351MOL0     H46286   7.294  10.461   7.051 -1.0618 -1.2394 -0.6377
  351MOL0     H46287   7.333  10.366   7.199 -0.0847  0.4084 -0.8518
  351MOL0     H46288   7.362  10.250   6.921  0.5707  0.1635  0.1763
  351MOL0     H46289   7.209  10.242   6.995 -0.4929 -1.8445 -0.8888
  351MOL0     H46290   7.308  10.128   7.203  2.0740 -1.0165  1.3931
  351MOL0     H46291   7.310  10.034   7.051 -0.6282 -0.7142  0.2129
  351MOL0     H46292   7.518   9.998   7.161  3.4789 -1.3493 -4.0478
  351MOL0     H46293   7.540  10.167   7.184  1.7567  0.0568 -0.9354
  351MOL0     H46294   7.730   9.968   6.832  0.2405 -1.2326  0.6976
  351MOL0     H46295   7.970  10.005   6.813 -0.6393  0.1265 -1.1802
  351MOL0     H46296   8.344  10.082   7.227  2.4481 -1.8971 -0.7835
  351MOL0     H46297   8.592  10.126   7.225  0.4404 -0.8286 -0.9746
  351MOL0     H46298   8.719  10.537   7.129 -0.1373 -0.9606 -1.1611
  351MOL0     H46299   8.749  10.422   6.995 -2.8403  2.5236 -0.9205
  351MOL0     H46300   8.955  10.355   7.096  0.9931 -0.5155  0.7960
  351MOL0     H46301   8.929  10.485   7.227 -2.5866  2.1340 -1.2106
  351MOL0     H46302   8.961  10.648   7.031  0.9275  0.2631  0.9299
  351MOL0     H46303   9.011  10.511   6.933 -0.1642  2.8745 -1.4244
  351MOL0     H46304   9.188  10.464   7.086 -0.9069 -0.0498  0.1202
  351MOL0     H46305   9.206  10.614   7.010  3.3921 -2.0258  2.0606
  351MOL0     H46306   9.123  10.583   7.305  1.3162 -1.4342  0.3408
  351MOL0     H46307   9.097  10.730   7.216  0.8147  0.4793 -0.2887
  351MOL0     H46308   9.305  10.749   7.323 -1.4656 -0.8883 -0.1099
  351MOL0     H46309   9.346  10.746   7.153 -2.2420  0.7867 -0.5867
  351MOL0     H46310   9.369  10.511   7.349 -1.9150 -0.2154 -0.2577
  351MOL0     H46311   9.400  10.499   7.173 -0.3541 -0.3356  1.0738
  351MOL0     H46312   9.596  10.594   7.161 -0.6256 -0.6306 -0.3346
  351MOL0     H46313   9.605  10.523   7.323  1.7629 -0.3868 -1.2073
  351MOL0     H46314   8.536  10.494   7.019  0.0327 -1.2962 -2.4237
  351MOL0     H46315   8.297  10.441   6.976 -2.9877 -0.7900  2.1800
  351MOL0     H46316   7.957  10.238   7.174  2.1620 -0.7777 -0.2567
  351MOL0     H46317   7.723  10.232   7.172  0.3671  1.6174 -0.9435
  351MOL0     H46318   8.881  10.808   6.934  0.7894  0.6651 -1.1290
  351MOL0     H46319   9.075  10.880   7.054  0.8630 -0.4141 -1.8860
  351MOL0     H46320   9.273  11.287   7.242 -0.3668  0.1354 -0.3556
  351MOL0     H46321   9.461  11.381   7.385 -1.2652  1.7120 -3.5641
  351MOL0     H46322   9.824  11.125   7.473 -0.4589  0.2095  0.5368
  351MOL0     H46323   9.838  11.273   7.569  1.0382 -0.4735  0.1337
  351MOL0     H46324   9.886  11.242   7.272  2.2757 -1.1174  0.5829
  351MOL0     H46325   9.887  11.400   7.348 -1.9774  0.3272 -1.9982
  351MOL0     H46326  10.078  11.192   7.473  0.1625  0.4490  0.0159
  351MOL0     H46327  10.071  11.365   7.489 -1.7298 -1.2706  1.5314
  351MOL0     H46328  10.145  11.209   7.234 -1.1492  0.2907 -0.6929
  351MOL0     H46329  10.174  11.382   7.244 -2.5231  0.7416  0.8522
  351MOL0     H46330  10.516  11.221   7.416 -0.2168 -0.4501  0.2670
  351MOL0     H46331   9.692  11.038   7.278  2.3122  2.6288 -3.4696
  351MOL0     H46332   9.511  10.946   7.151 -0.4804  0.6375  0.6571
  352MOL0     O46333   1.965   8.264   3.244  0.1022 -0.5245  0.9701
  352MOL0     C46334   1.980   8.147   3.254 -0.0599  0.6663  0.3562
  352MOL0     O46335   1.881   8.046   3.265  0.0896 -0.9299 -0.2773
  352MOL0     C46336   1.744   8.075   3.247 -0.6401 -0.5417  0.0660
  352MOL0     C46337   1.648   8.007   3.328 -0.1576 -0.2727  0.2830
  352MOL0     C46338   1.525   7.987   3.280  0.5901  1.0879 -0.3781
  352MOL0     C46339   1.469   8.054   3.170 -0.4188 -0.3941  0.3761
  352MOL0     O46340   1.344   8.033   3.139  0.4864 -0.0928  0.2860
  352MOL0     C46341   1.279   8.126   3.055  0.1980 -0.4888 -0.1461
  352MOL0     C46342   1.133   8.094   3.045  0.2783 -0.1248  0.0639
  352MOL0     C46343   1.063   8.093   3.184 -0.3312  0.7730 -0.3424
  352MOL0     C46344   0.919   8.097   3.155 -0.0497  0.2180  0.0070
  352MOL0     C46345   0.846   8.090   3.293 -0.5531  0.3885 -0.0667
  352MOL0     C46346   0.848   7.948   3.352 -0.5918 -0.0657 -0.3094
  352MOL0     C46347   0.755   7.942   3.476 -0.2320 -0.6380  0.4112
  352MOL0     C46348   0.614   7.968   3.438  0.3859  0.1993  0.6401
  352MOL0     N46349   0.536   7.924   3.551  0.0953 -0.1599 -0.5123
  352MOL0     C46350   0.462   7.809   3.567 -0.3623  0.2785  0.0933
  352MOL0     C46351   0.394   7.827   3.681  0.1681  0.8782 -0.2552
  352MOL0     C46352   0.290   7.733   3.746 -0.0964 -0.7674 -0.6167
  352MOL0     C46353   0.355   7.635   3.846  0.1029 -1.0721  0.6666
  352MOL0     C46354   0.269   7.519   3.895  0.7374  0.4419 -0.1625
  352MOL0     C46355   0.126   7.545   3.936 -0.7487 -0.2980  0.7590
  352MOL0     O46356   0.051   7.423   3.947 -0.0310 -0.2583 -0.5147
  352MOL0     C46357  -0.083   7.423   3.966 -0.8776  0.1398 -0.3918
  352MOL0     C46358  -0.160   7.536   3.990 -0.1136  0.0446  0.6879
  352MOL0     C46359  -0.293   7.530   4.018 -0.5385  0.8910  0.1685
  352MOL0     C46360  -0.355   7.408   4.037  0.1655  0.2614 -0.2249
  352MOL0     C46361  -0.501   7.402   4.061  0.1924  0.7274 -0.5638
  352MOL0     O46362  -0.561   7.283   4.101  0.2538  0.1991  0.3114
  352MOL0     C46363  -0.704   7.286   4.099 -0.1287 -0.1012 -1.0635
  352MOL0     C46364  -0.775   7.306   4.225  0.5178  0.0626 -0.3948
  352MOL0     C46365  -0.918   7.331   4.225 -0.1514 -0.0470 -0.0682
  352MOL0     C46366  -0.990   7.332   4.111 -0.7670 -0.5681  0.3044
  352MOL0     O46367  -1.127   7.348   4.127  0.2881 -0.6717  0.5097
  352MOL0     C46368  -1.194   7.219   4.136  0.0019  0.3978  0.2620
  352MOL0     C46369  -1.281   7.208   4.258 -0.4821 -0.0806 -0.6418
  352MOL0     C46370  -1.226   7.106   4.357  0.8408 -0.4167  0.8107
  352MOL0     C46371  -1.324   7.077   4.471  0.2299  0.0323 -0.0272
  352MOL0     C46372  -1.265   6.969   4.568  0.0767 -0.0968  0.1106
  352MOL0     C46373  -1.303   6.826   4.538 -0.8692 -0.9480  0.3472
  352MOL0     C46374  -1.246   6.724   4.628  0.1672  0.4984 -0.0198
  352MOL0     C46375  -1.259   6.578   4.589  0.4714  0.9422  0.3914
  352MOL0    Cl46376  -1.234   6.540   4.412  0.7438 -0.2518 -0.0036
  352MOL0     C46377  -0.919   7.325   3.987  0.1100 -0.2149  0.3412
  352MOL0     C46378  -0.780   7.298   3.982  0.9304  0.6789 -0.2645
  352MOL0     O46379  -0.562   7.506   4.041 -0.0216  0.0451 -0.1456
  352MOL0     C46380  -0.279   7.290   4.026  0.4807  0.4025 -0.1512
  352MOL0     C46381  -0.143   7.299   3.994  0.1505  0.2448  0.6382
  352MOL0     N46382   0.417   7.952   3.732 -0.4143 -0.1743  0.7504
  352MOL0     N46383   0.500   8.012   3.651 -0.0219  0.1455 -0.4219
  352MOL0     C46384   1.552   8.143   3.105 -0.4541 -0.5933 -0.5880
  352MOL0     C46385   1.695   8.147   3.132 -0.7107  0.0843 -0.1916
  352MOL0     C46386   2.117   8.089   3.260  1.2744 -0.1538  0.3058
  352MOL0     C46387   2.133   7.980   3.349 -0.2113 -0.4403  0.3733
  352MOL0     C46388   2.259   7.927   3.355  0.4474  0.4753 -0.4017
  352MOL0     C46389   2.375   7.990   3.302  0.3974  0.6176 -0.0139
  352MOL0     O46390   2.490   7.927   3.332  0.0984 -0.1455  0.1530
  352MOL0     C46391   2.574   7.874   3.223  0.3835 -0.1022  0.7001
  352MOL0     C46392   2.722   7.896   3.266 -0.6068 -0.3019 -0.3605
  352MOL0     C46393   2.761   8.037   3.231  0.1063 -0.8335  0.8482
  352MOL0     C46394   2.911   8.070   3.264 -0.4282 -0.0064 -0.2854
  352MOL0     C46395   3.001   8.013   3.170  0.1180  0.4732  0.2526
  352MOL0     C46396   3.087   7.946   3.107  0.4358  0.4315 -0.1973
  352MOL0     C46397   2.356   8.104   3.232  0.1145  0.5142  0.7673
  352MOL0     C46398   2.228   8.156   3.211 -0.0659 -0.1851  0.2734
  352MOL0     H46399   1.695   7.946   3.404  1.4998 -1.6079 -1.7093
  352MOL0     H46400   1.459   7.920   3.334 -2.7714  0.9152 -4.2298
  352MOL0     H46401   1.317   8.110   2.954 -2.6733 -1.2635 -1.1908
  352MOL0     H46402   1.290   8.230   3.087  0.9593 -0.1340 -1.4768
  352MOL0     H46403   1.122   7.993   3.007 -0.6551 -0.7847  1.9286
  352MOL0     H46404   1.091   8.169   2.977  4.0906 -0.5435 -3.1034
  352MOL0     H46405   1.083   8.193   3.224 -0.1324  0.3991  0.4879
  352MOL0     H46406   1.090   8.015   3.254  0.7946  0.1857 -1.3994
  352MOL0     H46407   0.900   8.194   3.109 -0.0451  0.2592  0.0920
  352MOL0     H46408   0.899   8.019   3.080  1.2387  0.6389 -0.8053
  352MOL0     H46409   0.747   8.130   3.274 -1.2151 -0.6091  1.0862
  352MOL0     H46410   0.899   8.160   3.359  0.2124  0.7755 -1.0758
  352MOL0     H46411   0.948   7.918   3.386 -1.3518 -0.8619  1.2879
  352MOL0     H46412   0.821   7.876   3.275 -1.3835 -1.1093  0.9153
  352MOL0     H46413   0.768   7.842   3.518  1.8631 -0.3960  0.4342
  352MOL0     H46414   0.781   8.019   3.549 -0.6975  0.6252 -0.7100
  352MOL0     H46415   0.585   7.905   3.353 -2.8295  1.3738  0.7385
  352MOL0     H46416   0.597   8.073   3.413  0.1267 -0.0835 -0.4461
  352MOL0     H46417   0.461   7.727   3.496 -0.7425  2.2528 -2.3617
  352MOL0     H46418   0.233   7.677   3.671  1.3489 -2.0436 -0.8200
  352MOL0     H46419   0.224   7.792   3.810  1.7209  0.1494  0.4875
  352MOL0     H46420   0.398   7.690   3.930 -1.2201  1.5282 -0.2370
  352MOL0     H46421   0.442   7.583   3.806  2.0462  2.2027  0.2992
  352MOL0     H46422   0.255   7.443   3.818 -0.8408  1.9524 -1.4717
  352MOL0     H46423   0.321   7.475   3.981 -0.7998 -3.5510 -1.0494
  352MOL0     H46424   0.080   7.610   3.861 -1.1968 -1.1740  0.2593
  352MOL0     H46425   0.131   7.604   4.029 -0.1370 -2.4124  2.1277
  352MOL0     H46426  -0.112   7.633   4.000  0.3365  0.4990 -3.7156
  352MOL0     H46427  -0.357   7.617   4.010 -0.4756  0.8183 -1.3701
  352MOL0     H46428  -0.734   7.293   4.325  1.5096 -0.6173 -0.8768
  352MOL0     H46429  -0.980   7.355   4.310 -1.3739  0.6087 -1.1193
  352MOL0     H46430  -1.119   7.140   4.143 -0.9023 -0.5709 -0.6864
  352MOL0     H46431  -1.250   7.204   4.044 -0.8328  1.1203  0.6319
  352MOL0     H46432  -1.385   7.185   4.230 -0.7214 -0.5090  0.5353
  352MOL0     H46433  -1.276   7.304   4.310 -3.7787 -0.5899  0.8790
  352MOL0     H46434  -1.126   7.134   4.392  1.8673 -2.0447 -0.6584
  352MOL0     H46435  -1.197   7.011   4.310  0.5869  0.2811 -0.8340
  352MOL0     H46436  -1.343   7.168   4.528 -1.2806  0.6877 -1.4764
  352MOL0     H46437  -1.418   7.041   4.426  0.0707  0.1509  0.2102
  352MOL0     H46438  -1.297   6.986   4.671 -3.3909 -0.1072 -0.8299
  352MOL0     H46439  -1.156   6.976   4.570  0.3467 -0.9729 -3.4524
  352MOL0     H46440  -1.281   6.815   4.432  1.5582  0.4909  0.6243
  352MOL0     H46441  -1.412   6.821   4.550 -1.0043  0.2394 -0.1918
  352MOL0     H46442  -1.141   6.754   4.632 -0.4983  2.9228  0.9395
  352MOL0     H46443  -1.271   6.741   4.733  1.6130  2.2180  0.0957
  352MOL0     H46444  -1.358   6.542   4.617  1.7982 -2.0648  1.6638
  352MOL0     H46445  -1.178   6.528   4.643  1.3234  2.0408  0.1664
  352MOL0     H46446  -0.971   7.339   3.893  1.1747 -2.0855 -0.5809
  352MOL0     H46447  -0.731   7.287   3.886  1.9096 -1.7705  0.4385
  352MOL0     H46448  -0.327   7.196   4.050  1.4654  0.4700  2.3990
  352MOL0     H46449  -0.094   7.203   3.987 -1.6786 -0.6936  0.0514
  352MOL0     H46450   1.518   8.183   3.010  1.7446 -0.5024 -1.3747
  352MOL0     H46451   1.769   8.194   3.067 -0.2815 -0.2303  0.0587
  352MOL0     H46452   2.055   7.929   3.405 -1.7720  1.7612  0.3255
  352MOL0     H46453   2.280   7.841   3.417  0.4141 -0.3047 -1.4357
  352MOL0     H46454   2.558   7.932   3.132 -1.9391 -1.1737  0.3590
  352MOL0     H46455   2.538   7.773   3.202 -2.1923  0.7338  0.7561
  352MOL0     H46456   2.741   7.869   3.370  0.9264  0.4598 -0.4126
  352MOL0     H46457   2.792   7.831   3.212  1.7779  1.6903  0.1090
  352MOL0     H46458   2.686   8.102   3.278 -0.0142  1.4461 -2.2292
  352MOL0     H46459   2.747   8.042   3.123  0.6725 -2.6395  0.6593
  352MOL0     H46460   2.917   8.179   3.259  0.1845 -0.0775 -1.4404
  352MOL0     H46461   2.938   8.047   3.367 -0.5082  1.1136  0.0038
  352MOL0     H46462   3.158   7.884   3.057  0.7365  0.2130  0.4859
  352MOL0     H46463   2.441   8.162   3.198  0.9100 -2.1016 -2.0653
  352MOL0     H46464   2.202   8.245   3.155 -0.3714 -0.2786  0.2677
  353MOL0     O46465   9.136   6.850   8.258 -0.2465  0.1815  0.1161
  353MOL0     C46466   9.131   6.948   8.189  0.3238  0.6649  0.3657
  353MOL0     O46467   9.021   7.024   8.159  0.1399 -0.5491  0.2323
  353MOL0     C46468   8.901   7.008   8.234 -0.4327  0.4078 -0.4489
  353MOL0     C46469   8.895   7.019   8.374  0.1583 -1.1937  0.8520
  353MOL0     C46470   8.777   7.011   8.440  0.4641 -0.3958 -0.6050
  353MOL0     C46471   8.658   7.013   8.367  0.7641 -0.3993 -0.3272
  353MOL0     O46472   8.549   7.014   8.451  0.5638  0.0018  0.2430
  353MOL0     C46473   8.422   7.064   8.387 -0.2858  0.6732 -0.4592
  353MOL0     C46474   8.319   7.042   8.503 -0.5028  0.1806 -0.2736
  353MOL0     C46475   8.176   7.071   8.438  0.5883 -0.2956 -0.6724
  353MOL0     C46476   8.066   7.059   8.549 -0.9709  0.2167  0.1205
  353MOL0     C46477   7.928   7.091   8.497  0.6434  0.7926 -0.1713
  353MOL0     C46478   7.854   7.167   8.604 -0.3429  0.9001 -0.4081
  353MOL0     C46479   7.715   7.200   8.546  0.1389 -0.1490 -0.8932
  353MOL0     C46480   7.620   7.259   8.662 -0.5798 -0.3026 -0.0692
  353MOL0     N46481   7.488   7.286   8.609  1.1783  0.3334 -0.8919
  353MOL0     C46482   7.471   7.337   8.484  0.4163  0.5915  0.0099
  353MOL0     C46483   7.334   7.354   8.474  0.2996 -0.0214  0.3203
  353MOL0     C46484   7.258   7.420   8.358  0.7209  0.3068 -1.0756
  353MOL0     C46485   7.279   7.569   8.360  0.0981 -0.1141  0.4686
  353MOL0     C46486   7.235   7.629   8.493  0.1470  0.6412  0.5242
  353MOL0     C46487   7.083   7.626   8.518 -0.4279  0.4266 -0.0520
  353MOL0     O46488   7.001   7.711   8.437 -0.1517  0.3341 -0.3857
  353MOL0     C46489   6.861   7.702   8.452 -0.8566 -0.1869 -0.4396
  353MOL0     C46490   6.785   7.769   8.365  0.9274 -0.0834  0.4496
  353MOL0     C46491   6.641   7.767   8.373  0.5046 -0.5932  1.2169
  353MOL0     C46492   6.576   7.691   8.462 -0.4897  0.8273  0.1211
  353MOL0     C46493   6.433   7.663   8.459  0.5261 -0.8072 -0.1510
  353MOL0     O46494   6.354   7.628   8.564 -0.3295 -0.2645  0.0617
  353MOL0     C46495   6.223   7.666   8.553 -0.0120 -0.2507 -0.8737
  353MOL0     C46496   6.189   7.791   8.492  0.2296 -0.3310 -0.5010
  353MOL0     C46497   6.056   7.837   8.489  0.4303 -0.1660 -0.7461
  353MOL0     C46498   5.956   7.766   8.550  0.5557  0.4441 -0.3075
  353MOL0     O46499   5.828   7.826   8.555  0.6305 -0.0768 -0.1437
  353MOL0     C46500   5.712   7.748   8.581 -0.0995 -0.2245 -0.3591
  353MOL0     C46501   5.592   7.840   8.564  0.1945 -0.4462 -0.8667
  353MOL0     C46502   5.559   7.926   8.692 -0.0383  0.2775  0.0249
  353MOL0     C46503   5.448   8.015   8.654 -0.4780 -0.1711  0.1223
  353MOL0     C46504   5.389   8.076   8.785 -0.1511  0.1335 -0.2583
  353MOL0     C46505   5.275   8.165   8.751  0.5575 -0.3507 -0.0557
  353MOL0     C46506   5.219   8.227   8.877 -0.3166  0.6615 -1.1034
  353MOL0     C46507   5.079   8.290   8.843  0.8443  0.6044  0.5251
  353MOL0    Cl46508   5.103   8.417   8.720  0.8180 -0.0582  0.0574
  353MOL0     C46509   5.984   7.636   8.615 -0.0918 -0.7828  0.1390
  353MOL0     C46510   6.117   7.594   8.618 -0.2360 -0.3253 -0.4130
  353MOL0     O46511   6.387   7.674   8.341 -0.7244 -0.3181 -0.2661
  353MOL0     C46512   6.653   7.612   8.552  0.0000  0.8536  0.4446
  353MOL0     C46513   6.797   7.621   8.539 -0.0454  0.1814 -0.1331
  353MOL0     N46514   7.281   7.337   8.601 -0.7562 -0.2396  0.5753
  353MOL0     N46515   7.369   7.283   8.682 -0.0533 -0.4099  0.1897
  353MOL0     C46516   8.655   6.998   8.229 -0.4990 -0.2281 -0.8353
  353MOL0     C46517   8.777   6.996   8.161 -0.4815 -0.2415  1.0473
  353MOL0     C46518   9.233   6.956   8.094  0.1068  0.0890  0.7904
  353MOL0     C46519   9.204   6.985   7.959 -0.9120  0.3253  0.6231
  353MOL0     C46520   9.300   6.974   7.852 -0.9864  0.2697  0.3243
  353MOL0     C46521   9.437   6.951   7.891 -0.7904 -1.1731 -0.2026
  353MOL0     O46522   9.540   6.960   7.796 -0.5040 -0.4261 -0.1700
  353MOL0     C46523   9.673   6.986   7.854 -0.2718 -0.0046 -0.2594
  353MOL0     C46524   9.771   6.997   7.742  0.6224 -0.7183 -0.3982
  353MOL0     C46525   9.901   7.054   7.788 -0.1702 -1.0409 -0.0838
  353MOL0     C46526   9.993   7.093   7.668 -0.1612  0.3705 -0.6868
  353MOL0     C46527  10.057   7.228   7.690 -0.1568 -0.2613  0.3502
  353MOL0     C46528  10.117   7.335   7.684 -0.5882 -0.1231 -0.1456
  353MOL0     C46529   9.471   6.929   8.029  0.7335 -0.5754  0.0315
  353MOL0     C46530   9.370   6.922   8.129  0.4515 -0.3588 -0.6096
  353MOL0     H46531   8.982   7.027   8.438 -0.2874  0.4856  1.2959
  353MOL0     H46532   8.773   6.992   8.547 -3.0954 -1.4708 -0.8106
  353MOL0     H46533   8.395   7.007   8.298  1.4512 -0.1875 -0.4825
  353MOL0     H46534   8.433   7.168   8.355  1.5799  0.6298 -0.0773
  353MOL0     H46535   8.340   7.115   8.582 -2.3644 -0.2491  0.6822
  353MOL0     H46536   8.328   6.939   8.537  2.1657  0.2544 -0.5741
  353MOL0     H46537   8.161   7.000   8.356  0.2833 -1.8989  0.7163
  353MOL0     H46538   8.179   7.172   8.395  3.7662  0.8070  1.7106
  353MOL0     H46539   8.074   6.961   8.598 -0.2382  0.7336  1.0681
  353MOL0     H46540   8.091   7.128   8.630  1.4377 -1.9857  1.3974
  353MOL0     H46541   7.883   6.996   8.466  3.5238 -0.2234 -1.5915
  353MOL0     H46542   7.916   7.137   8.399 -0.0065  1.3268  0.1488
  353MOL0     H46543   7.912   7.258   8.624 -0.8300  0.4711  3.6119
  353MOL0     H46544   7.846   7.113   8.698  0.2202  2.6707  0.7214
  353MOL0     H46545   7.724   7.283   8.476  1.4604 -0.8272 -1.5505
  353MOL0     H46546   7.673   7.113   8.495  2.4430 -2.5829  1.0921
  353MOL0     H46547   7.663   7.345   8.713 -0.0408  0.8599 -2.3854
  353MOL0     H46548   7.604   7.193   8.749 -0.9919  3.8027  3.3015
  353MOL0     H46549   7.545   7.359   8.408  1.0632 -0.4218  0.3341
  353MOL0     H46550   7.151   7.402   8.370  0.8898 -0.0594  0.0226
  353MOL0     H46551   7.297   7.388   8.261  0.2902  1.9311 -1.8158
  353MOL0     H46552   7.230   7.618   8.276  0.2125  2.7023  1.9405
  353MOL0     H46553   7.385   7.593   8.346 -0.2619  1.4774  0.3869
  353MOL0     H46554   7.292   7.590   8.578 -0.3602  0.5040  0.8023
  353MOL0     H46555   7.259   7.736   8.489  2.2152  0.2309  0.7229
  353MOL0     H46556   7.055   7.639   8.623 -3.1359 -3.4207 -0.0698
  353MOL0     H46557   7.051   7.523   8.499  0.5402 -0.0423  0.7322
  353MOL0     H46558   6.845   7.820   8.290  0.4729 -0.4081 -0.1401
  353MOL0     H46559   6.583   7.830   8.307  0.3861 -3.0595 -1.2195
  353MOL0     H46560   6.277   7.847   8.460  2.7841 -3.3232  0.7439
  353MOL0     H46561   6.038   7.940   8.457 -0.9797 -0.8086 -2.1724
  353MOL0     H46562   5.716   7.706   8.682  1.0997 -2.2983 -1.2025
  353MOL0     H46563   5.699   7.667   8.509  1.5346 -0.3072 -0.6172
  353MOL0     H46564   5.502   7.784   8.537  0.1631 -0.4245 -0.8079
  353MOL0     H46565   5.614   7.917   8.490  2.2909  0.4648  0.6252
  353MOL0     H46566   5.645   7.974   8.739  0.0837 -1.9217  2.2916
  353MOL0     H46567   5.524   7.862   8.774 -0.1286 -0.3311 -0.4824
  353MOL0     H46568   5.485   8.096   8.591  2.5701 -0.7859  0.9894
  353MOL0     H46569   5.365   7.971   8.598  0.1979  0.6343 -1.5912
  353MOL0     H46570   5.465   8.142   8.828 -1.9434  2.1659  0.0095
  353MOL0     H46571   5.357   7.998   8.855 -2.8368 -2.3744 -3.8660
  353MOL0     H46572   5.190   8.110   8.709 -0.9663  0.1005  2.1939
  353MOL0     H46573   5.290   8.237   8.670  0.9705 -1.8108 -1.3018
  353MOL0     H46574   5.206   8.141   8.944  0.0207  0.1875 -1.6344
  353MOL0     H46575   5.292   8.290   8.929 -0.7291  1.0651 -1.0111
  353MOL0     H46576   5.040   8.341   8.932 -1.5532  0.0106 -0.1119
  353MOL0     H46577   5.009   8.212   8.810  1.8017  0.1459 -0.4547
  353MOL0     H46578   5.913   7.564   8.653  0.6781 -2.5444 -1.5888
  353MOL0     H46579   6.146   7.503   8.669 -1.5790  0.1371  1.2890
  353MOL0     H46580   6.607   7.549   8.627 -1.9869  0.1677 -1.2389
  353MOL0     H46581   6.850   7.561   8.613 -1.5107 -0.1221  0.7327
  353MOL0     H46582   8.564   7.009   8.171 -0.9996 -1.0045 -0.2246
  353MOL0     H46583   8.762   7.002   8.053  0.6424 -2.0786  0.7555
  353MOL0     H46584   9.103   6.997   7.922 -0.8716 -0.2967  0.2932
  353MOL0     H46585   9.265   6.987   7.750  2.9451  0.0430 -1.2116
  353MOL0     H46586   9.702   6.889   7.897 -2.6725 -0.6742 -0.0009
  353MOL0     H46587   9.663   7.069   7.924 -2.0441  0.2299 -0.7264
  353MOL0     H46588   9.777   6.905   7.684 -0.9573  0.2697 -2.2495
  353MOL0     H46589   9.716   7.070   7.682 -2.1015 -2.5659 -0.3212
  353MOL0     H46590   9.952   6.987   7.858  1.9721  0.9359  0.3572
  353MOL0     H46591   9.867   7.144   7.841 -1.7292 -2.0527  0.7210
  353MOL0     H46592  10.065   7.011   7.657 -1.8752 -1.1757 -0.8883
  353MOL0     H46593   9.935   7.090   7.575  2.1084  1.6841 -2.2425
  353MOL0     H46594  10.157   7.435   7.679  1.9848 -0.9774  1.4131
  353MOL0     H46595   9.573   6.931   8.066  0.7400  3.8560  0.2431
  353MOL0     H46596   9.392   6.910   8.235  1.4973  2.4111 -0.4426
  354MOL0     O46597   2.213   9.422   5.580 -0.4129  0.5643 -0.7980
  354MOL0     C46598   2.302   9.340   5.606 -0.0705  0.0399 -0.1455
  354MOL0     O46599   2.275   9.216   5.656  0.8346  0.1742  0.8151
  354MOL0     C46600   2.145   9.171   5.667  0.2988 -1.1120  0.6811
  354MOL0     C46601   2.083   9.185   5.790 -0.5008 -0.3805  0.4051
  354MOL0     C46602   1.956   9.126   5.816  0.1422 -0.1909 -0.5859
  354MOL0     C46603   1.886   9.066   5.711 -0.5676 -0.3125  0.2844
  354MOL0     O46604   1.767   9.016   5.756 -0.9816 -0.6441 -0.5834
  354MOL0     C46605   1.676   8.967   5.662  0.2697  0.9734  0.1212
  354MOL0     C46606   1.545   8.943   5.735  0.7026  0.3243  0.2237
  354MOL0     C46607   1.432   8.911   5.633  0.8904 -0.3256 -0.1371
  354MOL0     C46608   1.336   8.823   5.715 -0.3141 -0.4623  0.0270
  354MOL0     C46609   1.205   8.786   5.649 -1.1735  0.1482 -0.1359
  354MOL0     C46610   1.096   8.756   5.757 -0.2198  0.2319  0.7537
  354MOL0     C46611   0.947   8.737   5.706 -0.3176  0.2558  0.7326
  354MOL0     C46612   0.863   8.672   5.818  0.3140  0.5680 -0.9046
  354MOL0     N46613   0.725   8.681   5.787  0.3875  0.0751  0.3802
  354MOL0     C46614   0.640   8.780   5.820 -0.8946 -0.1991  0.8093
  354MOL0     C46615   0.527   8.751   5.757  0.2089  0.3078 -0.0145
  354MOL0     C46616   0.394   8.826   5.760  0.7778 -0.3088  0.3858
  354MOL0     C46617   0.291   8.752   5.847  0.7014 -0.4198  0.0384
  354MOL0     C46618   0.137   8.784   5.827 -0.7701 -0.7089  0.1723
  354MOL0     C46619   0.053   8.692   5.913 -0.0752 -0.0094  0.4510
  354MOL0     O46620   0.041   8.556   5.854 -0.4741 -0.0794  0.3039
  354MOL0     C46621  -0.054   8.475   5.899  0.1764  0.8129 -0.5699
  354MOL0     C46622  -0.085   8.362   5.820  0.7261 -1.1832 -0.0106
  354MOL0     C46623  -0.197   8.277   5.844 -0.1359 -0.5125 -0.5632
  354MOL0     C46624  -0.270   8.290   5.964  0.6138  0.0378 -0.7237
  354MOL0     C46625  -0.371   8.190   5.994  0.1398  0.1989  0.8974
  354MOL0     O46626  -0.461   8.239   6.089 -0.1898 -0.9393 -0.3828
  354MOL0     C46627  -0.559   8.161   6.154  0.3129  0.5285 -0.3506
  354MOL0     C46628  -0.587   8.027   6.122  0.1079 -0.5842 -0.0930
  354MOL0     C46629  -0.695   7.959   6.175 -0.1292 -0.2471 -0.0733
  354MOL0     C46630  -0.770   8.012   6.284  0.8723 -0.7768  0.0576
  354MOL0     O46631  -0.876   7.945   6.346  0.6399 -0.0651 -0.7155
  354MOL0     C46632  -0.861   7.807   6.332  0.4506  0.2280  0.7296
  354MOL0     C46633  -0.967   7.742   6.417 -0.5308  0.5315 -0.1619
  354MOL0     C46634  -1.106   7.786   6.395  0.2358 -0.6284  0.0955
  354MOL0     C46635  -1.205   7.678   6.446  0.0259  0.4861  0.8104
  354MOL0     C46636  -1.348   7.734   6.453  0.6473 -0.0708  0.6861
  354MOL0     C46637  -1.458   7.630   6.486  0.7494 -0.6650  0.0187
  354MOL0     C46638  -1.585   7.703   6.541  0.8348 -0.3264 -0.5556
  354MOL0     C46639  -1.658   7.797   6.449  0.5261  1.3885 -0.7304
  354MOL0    Cl46640  -1.684   7.720   6.287 -0.2785  0.8820 -0.0368
  354MOL0     C46641  -0.748   8.154   6.305  0.7464 -0.3815  0.4227
  354MOL0     C46642  -0.645   8.224   6.239 -0.0621  0.1330  0.0322
  354MOL0     O46643  -0.384   8.099   5.915 -0.1099 -0.4261 -0.3562
  354MOL0     C46644  -0.234   8.401   6.048  0.7545  0.1361  0.2133
  354MOL0     C46645  -0.132   8.497   6.018 -0.8065  0.3142 -1.2204
  354MOL0     N46646   0.549   8.631   5.692  0.5057  0.5314 -0.1991
  354MOL0     N46647   0.670   8.595   5.710 -0.4749  0.6225  0.2966
  354MOL0     C46648   1.949   9.055   5.583 -0.5863 -0.1050  0.3258
  354MOL0     C46649   2.080   9.106   5.561 -0.7911 -0.2200 -0.5017
  354MOL0     C46650   2.443   9.380   5.594  0.1244  0.0495 -0.5074
  354MOL0     C46651   2.484   9.506   5.570 -0.3797 -0.5321 -0.3041
  354MOL0     C46652   2.623   9.538   5.557 -0.9188 -0.0227  0.1522
  354MOL0     C46653   2.729   9.449   5.582  0.7750 -0.1267  0.4405
  354MOL0     O46654   2.863   9.483   5.597  0.2523 -0.4670  0.3466
  354MOL0     C46655   2.944   9.398   5.681  0.9769  0.6823  0.0777
  354MOL0     C46656   2.902   9.386   5.830  0.8480  0.5783 -0.6369
  354MOL0     C46657   2.874   9.521   5.897  0.2527 -0.8769 -0.2589
  354MOL0     C46658   2.819   9.501   6.043 -0.3825  0.6849  0.0558
  354MOL0     C46659   2.818   9.616   6.125  0.4010 -0.6048  0.6162
  354MOL0     C46660   2.834   9.714   6.189  0.1961  0.4482 -0.0042
  354MOL0     C46661   2.689   9.317   5.599 -0.4744  0.5787  0.6728
  354MOL0     C46662   2.551   9.289   5.614  0.1880  0.7940 -0.6427
  354MOL0     H46663   2.130   9.234   5.875 -1.4024  0.7505  0.2675
  354MOL0     H46664   1.910   9.121   5.914 -0.3055  0.8519 -0.7327
  354MOL0     H46665   1.717   8.872   5.626 -1.4114  0.9471 -1.8901
  354MOL0     H46666   1.663   9.034   5.577  1.7096 -0.0524 -0.9644
  354MOL0     H46667   1.512   9.030   5.793 -1.9051 -1.6771  1.9686
  354MOL0     H46668   1.552   8.858   5.804 -2.2702 -0.1356  0.0713
  354MOL0     H46669   1.454   8.866   5.535  0.9539  1.7181 -1.1287
  354MOL0     H46670   1.387   9.005   5.599  2.4375 -0.2315 -2.1685
  354MOL0     H46671   1.392   8.733   5.741  0.6552 -0.6464 -2.4684
  354MOL0     H46672   1.315   8.860   5.816  3.1041  0.8548  0.3809
  354MOL0     H46673   1.216   8.693   5.593 -3.4863  0.2039 -0.8024
  354MOL0     H46674   1.180   8.866   5.580 -0.3505  2.7250  2.3754
  354MOL0     H46675   1.105   8.826   5.840  4.1788 -1.1218  1.7204
  354MOL0     H46676   1.123   8.654   5.786 -2.2540  0.4565  3.8348
  354MOL0     H46677   0.911   8.834   5.672 -0.6668 -0.3733 -0.8046
  354MOL0     H46678   0.932   8.670   5.620 -1.6892 -1.1322  2.0134
  354MOL0     H46679   0.881   8.722   5.913 -2.7807  0.3815 -0.1183
  354MOL0     H46680   0.886   8.565   5.828 -0.5408  0.4767  0.3220
  354MOL0     H46681   0.664   8.873   5.871  3.6707 -0.5109 -0.3441
  354MOL0     H46682   0.351   8.836   5.660 -2.1007 -3.2850  1.1098
  354MOL0     H46683   0.408   8.925   5.805  4.1022 -1.1058  1.3956
  354MOL0     H46684   0.317   8.764   5.953 -1.1371  2.5882  0.2712
  354MOL0     H46685   0.301   8.647   5.820  2.3905  0.2960 -2.5151
  354MOL0     H46686   0.121   8.886   5.865  1.4925  0.0028 -0.5721
  354MOL0     H46687   0.099   8.774   5.726  1.2430 -0.8807 -0.6231
  354MOL0     H46688  -0.042   8.745   5.919  0.0747  0.2060  0.9114
  354MOL0     H46689   0.091   8.684   6.015  2.2928 -0.4660 -0.3985
  354MOL0     H46690  -0.038   8.357   5.722 -0.4789  1.7020 -0.8310
  354MOL0     H46691  -0.218   8.193   5.778  1.4293 -1.1101 -0.3413
  354MOL0     H46692  -0.532   7.976   6.043  2.4783 -0.5436  1.4388
  354MOL0     H46693  -0.702   7.860   6.130  0.6210 -0.8483  1.0880
  354MOL0     H46694  -0.762   7.778   6.366  1.1069 -0.3588 -1.4891
  354MOL0     H46695  -0.869   7.765   6.231 -0.6159 -3.2801  2.0878
  354MOL0     H46696  -0.940   7.756   6.522  0.8214  1.6105 -0.6291
  354MOL0     H46697  -0.963   7.639   6.380 -1.7962 -0.0957  1.3219
  354MOL0     H46698  -1.125   7.810   6.290 -0.0604  1.4933  0.5982
  354MOL0     H46699  -1.122   7.878   6.451  0.2016 -2.5491  3.5211
  354MOL0     H46700  -1.193   7.587   6.386 -0.2387  0.3966  0.8906
  354MOL0     H46701  -1.174   7.639   6.543 -1.0109  0.0378  0.9743
  354MOL0     H46702  -1.370   7.775   6.354 -0.2722 -2.5337 -0.2008
  354MOL0     H46703  -1.354   7.810   6.531 -0.9357 -0.6153  1.1320
  354MOL0     H46704  -1.431   7.558   6.564 -2.3641 -1.1305  0.8123
  354MOL0     H46705  -1.486   7.570   6.399 -0.2224 -0.8704  0.4558
  354MOL0     H46706  -1.655   7.621   6.560  0.9960 -0.7349 -1.6168
  354MOL0     H46707  -1.562   7.768   6.626 -2.0557  0.8637 -0.5836
  354MOL0     H46708  -1.593   7.883   6.429  1.3929  0.2496 -3.2400
  354MOL0     H46709  -1.751   7.827   6.499  0.7910 -0.6708  1.1390
  354MOL0     H46710  -0.811   8.206   6.376  0.0239 -0.5188 -0.1053
  354MOL0     H46711  -0.636   8.327   6.271 -0.1193  0.6104 -1.3947
  354MOL0     H46712  -0.297   8.411   6.136 -0.4400  0.3880 -0.6490
  354MOL0     H46713  -0.122   8.587   6.077 -1.7759 -1.3708  1.7350
  354MOL0     H46714   1.898   9.001   5.504 -1.6630 -0.5307  1.2844
  354MOL0     H46715   2.127   9.100   5.464  0.1272 -0.2760 -0.0662
  354MOL0     H46716   2.409   9.582   5.553 -0.1655  0.1395  1.4692
  354MOL0     H46717   2.644   9.643   5.540 -2.6611  0.2516 -0.5160
  354MOL0     H46718   3.047   9.435   5.683  1.1264  0.2269  1.1724
  354MOL0     H46719   2.937   9.300   5.634 -1.7965  1.1141 -0.5828
  354MOL0     H46720   2.816   9.319   5.839  0.4272  1.4324  3.5618
  354MOL0     H46721   2.994   9.354   5.879  1.7637  0.5903 -2.2694
  354MOL0     H46722   2.801   9.578   5.839 -0.9218 -0.5149  1.4865
  354MOL0     H46723   2.965   9.581   5.900 -0.8847  0.8671  1.5101
  354MOL0     H46724   2.713   9.475   6.037 -0.8826  2.3967  0.8750
  354MOL0     H46725   2.865   9.413   6.090 -1.5659  0.3568  0.6490
  354MOL0     H46726   2.844   9.808   6.239 -2.9191  0.7995  0.1595
  354MOL0     H46727   2.752   9.231   5.618  0.8345  1.1843 -0.6776
  354MOL0     H46728   2.532   9.183   5.629 -0.5626  1.2560  2.3408
  355MOL0     O46729   2.686   5.781  10.673  0.6664 -0.3966 -0.0533
  355MOL0     C46730   2.772   5.862  10.707  0.2770  0.4177  0.3326
  355MOL0     O46731   2.771   5.940  10.825  0.3762 -0.4533  0.2111
  355MOL0     C46732   2.680   5.916  10.923 -0.4530  0.0148 -0.2906
  355MOL0     C46733   2.697   5.799  10.992  0.7079 -0.1976 -0.0171
  355MOL0     C46734   2.617   5.776  11.105  0.7805  0.1305  0.4572
  355MOL0     C46735   2.527   5.876  11.145  0.4826  0.4246  0.6601
  355MOL0     O46736   2.444   5.860  11.245 -0.2967 -0.0790 -0.0548
  355MOL0     C46737   2.455   5.750  11.337  1.1144  0.3461  0.1811
  355MOL0     C46738   2.346   5.760  11.440 -0.0486  0.0129  0.6549
  355MOL0     C46739   2.319   5.628  11.512  0.1502  0.0473  0.2828
  355MOL0     C46740   2.213   5.663  11.619  0.4801  0.4935  0.1537
  355MOL0     C46741   2.163   5.543  11.704 -0.0318 -0.7281  0.0210
  355MOL0     C46742   2.081   5.586  11.824 -0.1355 -0.0814 -0.4245
  355MOL0     C46743   2.081   5.469  11.924 -0.1827 -0.4040  0.4586
  355MOL0     C46744   1.950   5.480  12.005  0.4407  0.6067  0.0441
  355MOL0     N46745   1.939   5.384  12.122  0.3363 -0.2110 -1.0300
  355MOL0     C46746   1.839   5.386  12.214  0.8807 -0.4922 -1.0942
  355MOL0     C46747   1.831   5.264  12.268  1.1149 -0.2007 -0.0593
  355MOL0     C46748   1.739   5.221  12.382 -0.0381  0.1967  0.3071
  355MOL0     C46749   1.586   5.227  12.354 -0.0062 -0.3251  0.8420
  355MOL0     C46750   1.522   5.164  12.481  0.1212  0.1196 -0.3220
  355MOL0     C46751   1.370   5.130  12.485 -0.7768  0.7044  0.2760
  355MOL0     O46752   1.295   5.253  12.480 -0.1695  0.2247 -0.1507
  355MOL0     C46753   1.171   5.231  12.434  0.4259  0.4255 -0.0382
  355MOL0     C46754   1.095   5.111  12.457 -0.4565 -0.4263  0.2663
  355MOL0     C46755   0.957   5.101  12.424 -0.1269 -1.2873  0.5222
  355MOL0     C46756   0.896   5.220  12.384 -0.4255  0.5163  1.0703
  355MOL0     C46757   0.753   5.216  12.352  0.8884 -0.1818  0.3509
  355MOL0     O46758   0.680   5.125  12.416 -0.0624 -0.6144  0.6299
  355MOL0     C46759   0.542   5.125  12.423 -0.3446 -0.3729 -0.0372
  355MOL0     C46760   0.473   4.995  12.456  0.5693  0.1060  0.1277
  355MOL0     C46761   0.334   4.984  12.478  0.2864  0.0434 -0.2497
  355MOL0     C46762   0.256   5.102  12.471  0.2779 -0.2051  0.1318
  355MOL0     O46763   0.119   5.113  12.502 -1.0765  0.1327 -0.0606
  355MOL0     C46764   0.035   4.996  12.515  0.3766  0.6138  0.1204
  355MOL0     C46765  -0.096   5.043  12.567  0.6106  0.8423  0.0515
  355MOL0     C46766  -0.203   4.936  12.533 -0.0890  0.2275 -0.3368
  355MOL0     C46767  -0.351   4.970  12.562  0.5274  0.2736  0.3676
  355MOL0     C46768  -0.430   4.840  12.573 -0.2802 -0.1443  0.1794
  355MOL0     C46769  -0.583   4.865  12.597 -0.3258 -0.0562  0.3399
  355MOL0     C46770  -0.655   4.732  12.584 -0.3506  0.3268  0.2181
  355MOL0     C46771  -0.807   4.771  12.567  0.9374 -0.1856  0.6790
  355MOL0    Cl46772  -0.912   4.631  12.531  0.1629 -0.1861  0.1613
  355MOL0     C46773   0.326   5.228  12.442  0.3127  0.2759 -0.5393
  355MOL0     C46774   0.460   5.233  12.423 -0.4200 -1.0069 -0.9139
  355MOL0     O46775   0.704   5.307  12.275  0.2034 -0.0979 -0.1314
  355MOL0     C46776   0.973   5.339  12.359  0.4212 -0.3717 -0.2789
  355MOL0     C46777   1.106   5.348  12.391  0.4372 -0.7443  0.4298
  355MOL0     N46778   1.921   5.184  12.212  0.5787 -0.3722 -0.7584
  355MOL0     N46779   1.978   5.253  12.116  0.6238 -0.0095 -0.4114
  355MOL0     C46780   2.513   6.000  11.074 -0.1185  0.9921  0.1896
  355MOL0     C46781   2.603   6.016  10.969  0.3921  0.2221 -0.1740
  355MOL0     C46782   2.897   5.869  10.622 -0.2526 -0.3604 -0.3991
  355MOL0     C46783   3.006   5.960  10.648  0.6638 -0.4805  0.6357
  355MOL0     C46784   3.121   5.960  10.569 -0.0286  0.4956  0.7965
  355MOL0     C46785   3.138   5.878  10.461  0.2602  1.2767  0.5716
  355MOL0     O46786   3.261   5.887  10.393  0.0749  0.1967  0.0532
  355MOL0     C46787   3.286   5.776  10.301 -0.5984  0.8076  0.8387
  355MOL0     C46788   3.412   5.805  10.217 -0.4168  0.9411 -1.1926
  355MOL0     C46789   3.543   5.799  10.301  0.0193 -0.5987 -0.2687
  355MOL0     C46790   3.678   5.779  10.232 -0.2294  0.0419  0.5001
  355MOL0     C46791   3.688   5.640  10.185 -0.7918 -0.6614 -0.2054
  355MOL0     C46792   3.691   5.531  10.130  0.0127 -0.3065 -0.1850
  355MOL0     C46793   3.035   5.782  10.437 -0.7045  0.2801  0.2868
  355MOL0     C46794   2.919   5.777  10.515  0.0941  0.2224  0.1079
  355MOL0     H46795   2.768   5.726  10.954  0.1005 -1.2210  0.7421
  355MOL0     H46796   2.627   5.676  11.146  0.2584  0.5247  1.5819
  355MOL0     H46797   2.557   5.725  11.365  1.9052 -2.5405 -4.2652
  355MOL0     H46798   2.423   5.662  11.280 -2.2463 -0.0970  2.4248
  355MOL0     H46799   2.259   5.798  11.385 -0.2650 -1.3271  0.0361
  355MOL0     H46800   2.375   5.835  11.515  4.5538  0.2671 -1.0477
  355MOL0     H46801   2.409   5.586  11.557  0.8500  0.4608 -0.6960
  355MOL0     H46802   2.281   5.558  11.438  1.5713 -0.0827 -0.3473
  355MOL0     H46803   2.262   5.736  11.684  0.1669 -1.4370  2.7258
  355MOL0     H46804   2.119   5.703  11.580 -1.2150 -0.7797  2.6654
  355MOL0     H46805   2.252   5.497  11.746  1.0831  2.4399  1.4038
  355MOL0     H46806   2.102   5.478  11.641 -1.3940  1.1969 -0.7451
  355MOL0     H46807   1.979   5.610  11.792 -0.3589 -1.3966 -0.7366
  355MOL0     H46808   2.134   5.671  11.868  3.0160 -1.3756 -1.4817
  355MOL0     H46809   2.094   5.376  11.867  0.0018 -0.5837  0.7915
  355MOL0     H46810   2.166   5.472  11.993 -1.6570  1.2924  2.2800
  355MOL0     H46811   1.870   5.460  11.934 -0.4448  1.3959  0.7911
  355MOL0     H46812   1.928   5.580  12.043 -0.8327  0.2105  0.3766
  355MOL0     H46813   1.779   5.470  12.246  1.5146 -0.8440  1.1878
  355MOL0     H46814   1.765   5.283  12.468  2.4090  0.3884 -0.4979
  355MOL0     H46815   1.765   5.116  12.400 -2.4673 -0.3053  1.2688
  355MOL0     H46816   1.561   5.172  12.264  4.2281 -0.0389 -0.7026
  355MOL0     H46817   1.550   5.328  12.331  0.1293  0.1795  2.6684
  355MOL0     H46818   1.568   5.065  12.492 -2.0394 -0.8566  0.6293
  355MOL0     H46819   1.535   5.217  12.576  0.2779 -1.6232  0.6823
  355MOL0     H46820   1.351   5.071  12.574  0.5329  1.0833  0.8377
  355MOL0     H46821   1.341   5.081  12.392 -0.6479  0.0981  0.5524
  355MOL0     H46822   1.139   5.022  12.501  2.1089  0.6863  0.1618
  355MOL0     H46823   0.895   5.014  12.447 -3.1339  0.1089 -1.5909
  355MOL0     H46824   0.532   4.905  12.467 -1.9510 -1.8467 -1.4067
  355MOL0     H46825   0.290   4.885  12.486 -0.2348  0.1568 -1.4881
  355MOL0     H46826   0.072   4.929  12.593  1.3423  2.3559  1.2105
  355MOL0     H46827   0.023   4.937  12.423  0.4987 -0.6877  0.9164
  355MOL0     H46828  -0.126   5.135  12.515 -2.6897  1.3813  2.5259
  355MOL0     H46829  -0.093   5.062  12.675 -1.0912  2.1358 -0.0875
  355MOL0     H46830  -0.169   4.845  12.585  2.7951 -0.6314 -3.3637
  355MOL0     H46831  -0.200   4.919  12.425 -1.2139 -2.3117 -0.0612
  355MOL0     H46832  -0.361   5.022  12.658  1.0200  2.0584 -0.4871
  355MOL0     H46833  -0.396   5.027  12.481  0.6283 -0.2367 -0.0491
  355MOL0     H46834  -0.389   4.787  12.660  3.0454  1.7603 -0.0314
  355MOL0     H46835  -0.418   4.781  12.482 -1.2611 -1.7611  1.0437
  355MOL0     H46836  -0.619   4.933  12.519  3.4271  2.1607  0.2932
  355MOL0     H46837  -0.587   4.913  12.696  3.2063 -0.6777  0.9266
  355MOL0     H46838  -0.626   4.683  12.491 -0.6785  0.5442 -0.0007
  355MOL0     H46839  -0.640   4.670  12.673 -1.4543  0.1709  0.3152
  355MOL0     H46840  -0.824   4.848  12.490  1.1760  1.2334  2.0012
  355MOL0     H46841  -0.837   4.818  12.660 -2.6126 -0.7371 -0.0659
  355MOL0     H46842   0.273   5.323  12.443 -1.1359 -0.5016 -0.1051
  355MOL0     H46843   0.507   5.329  12.403 -1.7560 -0.0818  0.1905
  355MOL0     H46844   0.926   5.427  12.315 -0.1807 -1.9333 -2.9792
  355MOL0     H46845   1.163   5.439  12.377 -0.1778 -0.0892  1.9274
  355MOL0     H46846   2.441   6.073  11.110 -0.3144  1.1854 -0.5867
  355MOL0     H46847   2.581   6.096  10.900 -1.5329 -1.1578 -1.2587
  355MOL0     H46848   2.997   6.037  10.725 -1.6082 -0.1045  0.0709
  355MOL0     H46849   3.193   6.037  10.596  0.2202  0.4094  0.3799
  355MOL0     H46850   3.203   5.759  10.232  0.4541  0.0194 -0.2789
  355MOL0     H46851   3.309   5.687  10.361  0.2252  0.5985  0.2279
  355MOL0     H46852   3.415   5.721  10.148  0.5092  0.8449 -1.0511
  355MOL0     H46853   3.415   5.899  10.162 -0.7234  1.1114 -0.9233
  355MOL0     H46854   3.516   5.730  10.382  0.6609  0.9083  1.2873
  355MOL0     H46855   3.538   5.900  10.342  0.1013  0.7233 -3.2227
  355MOL0     H46856   3.694   5.852  10.152 -0.2872  0.3640  0.7777
  355MOL0     H46857   3.757   5.799  10.305  0.2754 -1.6592  0.4531
  355MOL0     H46858   3.698   5.444  10.069  0.8738 -0.9542  0.7912
  355MOL0     H46859   3.038   5.709  10.357  3.6132 -0.0113  0.4787
  355MOL0     H46860   2.845   5.701  10.489  1.0732 -0.6103 -0.3264
  356MOL0     O46861   8.813   8.157  10.773  0.1844  0.4160 -0.1680
  356MOL0     C46862   8.917   8.103  10.731  0.6530 -0.3410  0.3353
  356MOL0     O46863   8.924   7.978  10.684 -0.0979  0.5877 -0.4035
  356MOL0     C46864   8.812   7.897  10.688 -0.8618 -0.0723 -0.6850
  356MOL0     C46865   8.828   7.766  10.747 -0.2399 -0.3574  0.9051
  356MOL0     C46866   8.710   7.695  10.770 -0.8455  0.4755  0.4581
  356MOL0     C46867   8.584   7.724  10.724  0.1949 -0.1289 -0.0738
  356MOL0     O46868   8.472   7.639  10.740  0.3813 -0.4412 -0.0650
  356MOL0     C46869   8.343   7.700  10.725  0.3772  0.1057  0.8744
  356MOL0     C46870   8.235   7.605  10.775  0.0414 -0.1161 -0.1264
  356MOL0     C46871   8.099   7.654  10.756  0.6674  0.1326 -0.1335
  356MOL0     C46872   7.992   7.545  10.794  0.2095  0.3200 -0.6125
  356MOL0     C46873   7.858   7.601  10.838  0.0333 -0.5328 -0.2461
  356MOL0     C46874   7.749   7.490  10.853  0.5708 -0.0355  0.8341
  356MOL0     C46875   7.611   7.525  10.851  0.8176 -0.7152  0.2581
  356MOL0     C46876   7.564   7.600  10.979 -0.1739  0.4812 -0.3982
  356MOL0     N46877   7.437   7.667  10.966  0.3608 -0.2189 -0.1291
  356MOL0     C46878   7.345   7.654  10.865 -0.4237  0.3241  0.4394
  356MOL0     C46879   7.262   7.761  10.880  0.6395  0.3797  0.0335
  356MOL0     C46880   7.132   7.790  10.802  0.1113 -0.3012 -0.9264
  356MOL0     C46881   7.026   7.698  10.850  0.5048 -0.6500  0.1187
  356MOL0     C46882   6.890   7.732  10.777 -0.0745 -0.3250 -0.6528
  356MOL0     C46883   6.763   7.669  10.839 -0.2779 -0.6139 -0.0840
  356MOL0     O46884   6.657   7.729  10.766  0.0835  0.0077  0.5171
  356MOL0     C46885   6.527   7.689  10.783 -0.3191 -0.2281  0.0956
  356MOL0     C46886   6.477   7.578  10.852 -0.7570  0.1176  0.0323
  356MOL0     C46887   6.342   7.549  10.876 -0.4556 -0.2056 -1.2944
  356MOL0     C46888   6.248   7.635  10.814  0.5182 -0.6237 -0.5850
  356MOL0     C46889   6.101   7.603  10.829  0.2498 -0.1136  0.6514
  356MOL0     O46890   6.062   7.538  10.936  0.3600 -0.0287  0.1060
  356MOL0     C46891   5.934   7.522  10.963 -0.8425  0.4356 -0.0434
  356MOL0     C46892   5.893   7.549  11.092  0.1348 -0.6635 -0.4186
  356MOL0     C46893   5.761   7.534  11.125 -0.5321  0.5498 -0.8938
  356MOL0     C46894   5.661   7.488  11.043  0.4424  0.3446  0.1181
  356MOL0     O46895   5.538   7.481  11.088  0.6259 -0.2420 -0.0927
  356MOL0     C46896   5.440   7.424  10.999  0.0867  0.7990  0.5415
  356MOL0     C46897   5.381   7.518  10.885 -1.1394  0.1812 -0.0786
  356MOL0     C46898   5.249   7.465  10.835  0.1534 -0.0692 -0.3048
  356MOL0     C46899   5.133   7.519  10.918 -0.5438 -0.5079 -0.1200
  356MOL0     C46900   5.005   7.540  10.835  1.5336 -0.5035  1.0070
  356MOL0     C46901   4.900   7.615  10.927 -0.1674 -0.1761 -0.3707
  356MOL0     C46902   4.774   7.658  10.847  0.1232 -0.3766  0.4701
  356MOL0     C46903   4.671   7.709  10.948 -0.2290 -0.1027  0.5708
  356MOL0    Cl46904   4.513   7.734  10.866  0.3193  0.1156  0.1064
  356MOL0     C46905   5.711   7.448  10.908 -0.0404 -0.2778 -0.3079
  356MOL0     C46906   5.849   7.462  10.872  0.1360 -0.0415  0.3659
  356MOL0     O46907   6.029   7.648  10.745 -0.3067 -0.4989  0.0952
  356MOL0     C46908   6.295   7.742  10.732  0.0011  0.1317  0.1717
  356MOL0     C46909   6.431   7.758  10.719  0.5242 -0.3936  0.6003
  356MOL0     N46910   7.297   7.836  10.983 -0.4809  0.2858  0.3681
  356MOL0     N46911   7.403   7.781  11.036  0.1394 -0.5852 -0.1143
  356MOL0     C46912   8.574   7.845  10.644  0.6746  0.7430 -0.8822
  356MOL0     C46913   8.687   7.930  10.630  0.2338 -0.0370 -0.0274
  356MOL0     C46914   9.036   8.187  10.746  0.4641  0.4479  0.7790
  356MOL0     C46915   9.038   8.328  10.760 -0.4004 -0.5198 -0.6283
  356MOL0     C46916   9.165   8.394  10.774 -1.1023 -0.1836 -0.2072
  356MOL0     C46917   9.286   8.315  10.777  0.8292 -0.2679 -0.5634
  356MOL0     O46918   9.392   8.403  10.777  0.1165  0.2312  0.3804
  356MOL0     C46919   9.526   8.351  10.779  0.2803  0.0559 -0.1366
  356MOL0     C46920   9.565   8.332  10.632 -0.2967  0.4163  0.2628
  356MOL0     C46921   9.721   8.330  10.633  0.5072  0.6062  1.3140
  356MOL0     C46922   9.770   8.263  10.501  0.3210  0.0810 -0.1664
  356MOL0     C46923   9.913   8.284  10.480  0.1743  0.1308  0.6252
  356MOL0     C46924  10.031   8.288  10.453 -0.0421  0.1567  1.1355
  356MOL0     C46925   9.284   8.176  10.768 -0.5400  0.1246  0.0875
  356MOL0     C46926   9.160   8.114  10.751  0.2050 -0.6346 -0.5939
  356MOL0     H46927   8.917   7.723  10.792 -0.0992 -0.3552  0.6310
  356MOL0     H46928   8.735   7.598  10.812  0.1374  0.7372  0.5045
  356MOL0     H46929   8.321   7.720  10.620 -0.1538 -0.8879  0.7918
  356MOL0     H46930   8.342   7.802  10.767  1.6440  0.7109 -0.5046
  356MOL0     H46931   8.248   7.603  10.884  1.6506 -2.6046 -0.2933
  356MOL0     H46932   8.250   7.503  10.739  1.3894  0.4898 -1.3630
  356MOL0     H46933   8.077   7.679  10.652  1.0000  1.5135  0.1044
  356MOL0     H46934   8.080   7.746  10.813 -2.1029  0.7135 -1.7834
  356MOL0     H46935   7.976   7.477  10.709 -3.2312 -3.5912  2.6648
  356MOL0     H46936   8.016   7.480  10.879  3.0408 -1.3796 -2.5457
  356MOL0     H46937   7.829   7.666  10.755 -1.5590 -1.2213 -0.2727
  356MOL0     H46938   7.883   7.651  10.932  1.2436 -1.1971 -0.1983
  356MOL0     H46939   7.768   7.446  10.952 -0.2820 -1.5037  0.3776
  356MOL0     H46940   7.769   7.424  10.769 -2.6081  0.7859 -0.7125
  356MOL0     H46941   7.587   7.577  10.758 -0.4351  0.4251  1.1768
  356MOL0     H46942   7.548   7.436  10.846 -0.1844  0.0498 -2.0138
  356MOL0     H46943   7.636   7.681  10.997  0.2612 -0.1438  0.7810
  356MOL0     H46944   7.566   7.540  11.071 -0.8044  0.8057 -0.1705
  356MOL0     H46945   7.337   7.584  10.782  1.0262  0.2631  0.3193
  356MOL0     H46946   7.147   7.774  10.695  0.0125  0.2539 -1.0252
  356MOL0     H46947   7.092   7.892  10.810  2.6660  0.6521  1.5509
  356MOL0     H46948   7.022   7.713  10.958  0.2620  0.8166 -0.0766
  356MOL0     H46949   7.048   7.591  10.840  0.6243 -0.8816  2.3729
  356MOL0     H46950   6.876   7.841  10.785 -2.3044 -0.6589  1.0084
  356MOL0     H46951   6.901   7.705  10.672 -2.3153  0.4783 -1.1537
  356MOL0     H46952   6.753   7.686  10.947  2.3382  0.9780 -0.0126
  356MOL0     H46953   6.772   7.561  10.828 -0.1304 -0.7451  1.1557
  356MOL0     H46954   6.549   7.514  10.903 -0.1290  2.0246  1.6877
  356MOL0     H46955   6.302   7.462  10.928 -0.9350  0.9514  0.3520
  356MOL0     H46956   5.964   7.578  11.170  1.0992 -2.9404 -0.3537
  356MOL0     H46957   5.740   7.547  11.230  0.6787 -1.3047 -0.3744
  356MOL0     H46958   5.354   7.394  11.059 -2.8712  1.2973 -3.0417
  356MOL0     H46959   5.492   7.333  10.966  0.1147 -0.6391  4.0859
  356MOL0     H46960   5.451   7.524  10.801  1.7353 -1.5172  2.0300
  356MOL0     H46961   5.382   7.618  10.930 -0.7501  0.2378 -0.2049
  356MOL0     H46962   5.248   7.356  10.841  0.1172 -0.3676 -3.8021
  356MOL0     H46963   5.238   7.489  10.729 -1.7170  2.5933  0.3971
  356MOL0     H46964   5.104   7.462  11.007  0.4670  2.4460  2.2638
  356MOL0     H46965   5.170   7.616  10.950 -3.1308  0.4763  0.0940
  356MOL0     H46966   4.961   7.446  10.802 -0.1660  0.4846  0.3376
  356MOL0     H46967   5.030   7.590  10.741 -0.6640 -1.7207 -0.2915
  356MOL0     H46968   4.943   7.709  10.961  1.6902  1.3161 -5.7456
  356MOL0     H46969   4.866   7.556  11.013  0.3078 -1.0279 -0.7447
  356MOL0     H46970   4.793   7.739  10.777 -0.2044 -0.7472 -0.0546
  356MOL0     H46971   4.732   7.574  10.790 -2.6072 -1.1073  3.2637
  356MOL0     H46972   4.711   7.799  10.996 -0.4043 -0.3247  1.1404
  356MOL0     H46973   4.649   7.635  11.025 -3.0322  0.9926  0.9486
  356MOL0     H46974   5.647   7.405  10.832 -1.1055  0.8650 -0.0823
  356MOL0     H46975   5.890   7.419  10.781 -1.3532 -0.3324 -0.1967
  356MOL0     H46976   6.224   7.810  10.686  1.5244  1.8505  0.2660
  356MOL0     H46977   6.465   7.839  10.656 -3.9239 -0.6014 -2.5636
  356MOL0     H46978   8.480   7.878  10.602 -1.1095 -0.4052  1.9347
  356MOL0     H46979   8.675   8.012  10.560  2.6114 -0.8320 -1.5022
  356MOL0     H46980   8.947   8.387  10.745  0.7916  1.1119 -1.7553
  356MOL0     H46981   9.165   8.502  10.769 -2.2974 -0.1423  0.3417
  356MOL0     H46982   9.529   8.258  10.836 -2.3635  0.3545  0.5940
  356MOL0     H46983   9.589   8.424  10.830 -0.3590  1.4670 -1.2896
  356MOL0     H46984   9.522   8.234  10.609 -2.2904  0.8120  1.9401
  356MOL0     H46985   9.533   8.407  10.560  1.6208  1.3715  0.3561
  356MOL0     H46986   9.757   8.279  10.723  1.3719  0.2319  0.7680
  356MOL0     H46987   9.760   8.432  10.619  2.4326 -0.3916 -1.4362
  356MOL0     H46988   9.756   8.155  10.511 -1.7518  0.3708  0.4643
  356MOL0     H46989   9.700   8.291  10.422  1.5022 -0.4916 -1.4604
  356MOL0     H46990  10.133   8.287  10.424 -0.4572 -2.2995 -0.6028
  356MOL0     H46991   9.378   8.121  10.781  1.5379  2.9030 -1.9864
  356MOL0     H46992   9.168   8.006  10.755  2.4801 -0.5148 -0.7207
  357MOL0     O46993   5.602   5.353  10.977 -0.1136  0.0391 -0.6621
  357MOL0     C46994   5.685   5.322  10.890  0.5011 -0.1755 -1.2352
  357MOL0     O46995   5.681   5.353  10.758 -0.4078  0.4409 -0.0797
  357MOL0     C46996   5.568   5.395  10.699 -0.0148 -0.4498  1.0884
  357MOL0     C46997   5.492   5.504  10.741 -0.9071  0.5569  0.3822
  357MOL0     C46998   5.392   5.553  10.660  1.2011 -0.0443  0.2536
  357MOL0     C46999   5.355   5.485  10.542 -0.1572 -0.6119 -0.7662
  357MOL0     O47000   5.248   5.528  10.475  0.4239 -0.1427 -0.1965
  357MOL0     C47001   5.168   5.434  10.401  0.3097 -0.5087 -0.4415
  357MOL0     C47002   5.033   5.508  10.388 -0.6342  0.4409 -0.3867
  357MOL0     C47003   4.918   5.430  10.318 -1.4650 -0.5830 -0.0803
  357MOL0     C47004   4.786   5.506  10.326 -0.0350 -0.4625 -0.1840
  357MOL0     C47005   4.664   5.442  10.261 -0.1650  0.1854  0.5952
  357MOL0     C47006   4.678   5.406  10.118  0.0965  0.9272  0.1135
  357MOL0     C47007   4.553   5.329  10.075  0.1843 -0.6743 -0.7643
  357MOL0     C47008   4.547   5.332   9.921 -0.0011  0.1942 -0.1526
  357MOL0     N47009   4.462   5.231   9.867  0.1909 -0.8650  0.6025
  357MOL0     C47010   4.339   5.190   9.917  0.1014 -0.3105 -0.1432
  357MOL0     C47011   4.322   5.061   9.875  1.1409 -0.1778  0.5220
  357MOL0     C47012   4.209   4.967   9.911  0.4674 -0.4065 -0.5112
  357MOL0     C47013   4.157   5.000  10.058  0.3153  0.6496 -0.3809
  357MOL0     C47014   4.059   4.891  10.103  0.9017 -0.3122  0.2276
  357MOL0     C47015   4.042   4.908  10.250  0.5114  0.4134 -0.1029
  357MOL0     O47016   3.975   5.027  10.285 -0.2985 -0.5047 -0.3401
  357MOL0     C47017   3.918   5.010  10.410  0.0196 -0.6905  0.0216
  357MOL0     C47018   3.977   4.938  10.528 -0.6031  0.1284  0.4793
  357MOL0     C47019   3.900   4.905  10.642 -0.3579  0.3968 -0.3693
  357MOL0     C47020   3.773   4.957  10.655  0.6353 -0.7529  0.0190
  357MOL0     C47021   3.701   4.957  10.787 -0.1432  0.4828 -0.2125
  357MOL0     O47022   3.571   4.991  10.782 -0.2015 -0.3451 -0.1879
  357MOL0     C47023   3.481   4.993  10.894  0.0343 -0.6762  0.1566
  357MOL0     C47024   3.343   4.982  10.888 -0.0689  0.6097 -0.1299
  357MOL0     C47025   3.251   5.003  10.996  0.2608 -0.0523 -0.3799
  357MOL0     C47026   3.306   5.025  11.116  0.0773 -0.6879  0.2995
  357MOL0     O47027   3.225   5.034  11.231 -0.4287  0.0845  0.4347
  357MOL0     C47028   3.103   4.956  11.242 -0.2068  0.2980  0.0991
  357MOL0     C47029   2.995   5.056  11.224 -0.2805  0.4842  0.3764
  357MOL0     C47030   2.857   5.006  11.238  0.0840  0.7149 -0.1447
  357MOL0     C47031   2.815   4.978  11.380  0.1739 -0.1117 -0.2311
  357MOL0     C47032   2.679   4.909  11.392 -0.0990 -0.9799  0.4335
  357MOL0     C47033   2.621   4.917  11.538  0.0755  0.3911  0.2380
  357MOL0     C47034   2.594   5.061  11.586 -0.2492  0.3511 -0.1838
  357MOL0     C47035   2.479   5.055  11.685  0.5469  0.3532  0.0181
  357MOL0    Cl47036   2.406   5.206  11.714 -0.2531  0.0103 -0.0382
  357MOL0     C47037   3.438   5.053  11.124  0.9935 -0.3038  0.5978
  357MOL0     C47038   3.528   5.036  11.019 -0.2308  0.2838  0.5991
  357MOL0     O47039   3.752   4.888  10.882  0.2252  0.2439  0.3818
  357MOL0     C47040   3.719   5.030  10.550  0.1302  0.0582  0.9218
  357MOL0     C47041   3.789   5.063  10.432 -0.4783  0.0593  0.3901
  357MOL0     N47042   4.419   5.027   9.792  1.7119 -0.5122  1.1417
  357MOL0     N47043   4.502   5.132   9.790 -0.0909 -0.2346  0.0389
  357MOL0     C47044   5.419   5.372  10.516 -0.1342  0.9272 -0.3448
  357MOL0     C47045   5.529   5.324  10.588  0.0415 -0.0601  0.3405
  357MOL0     C47046   5.807   5.242  10.931 -0.3547  0.1224  0.2771
  357MOL0     C47047   5.857   5.253  11.056 -0.6675  0.2559  0.2050
  357MOL0     C47048   5.971   5.176  11.105  0.1737  0.2440  0.1842
  357MOL0     C47049   6.041   5.100  11.008 -0.0285 -0.5560  0.3107
  357MOL0     O47050   6.167   5.037  11.036  0.4493 -0.1073 -0.7786
  357MOL0     C47051   6.203   5.032  11.174  0.4202  0.2375 -0.0974
  357MOL0     C47052   6.320   4.935  11.198 -0.0136 -0.9194 -0.3518
  357MOL0     C47053   6.431   4.955  11.093  0.1186  0.0408  0.3178
  357MOL0     C47054   6.530   5.068  11.123 -0.2145  0.7570 -0.8143
  357MOL0     C47055   6.636   5.043  11.226 -1.6498  0.4980 -0.3702
  357MOL0     C47056   6.726   5.020  11.306  0.0866 -0.0984  0.4931
  357MOL0     C47057   5.988   5.099  10.882 -0.0421  0.7794  0.1989
  357MOL0     C47058   5.876   5.162  10.839 -0.1778  0.4048 -0.1125
  357MOL0     H47059   5.513   5.558  10.833  1.6895  0.4277 -0.0568
  357MOL0     H47060   5.340   5.643  10.691  2.7570  1.0195 -0.1026
  357MOL0     H47061   5.155   5.341  10.457  2.1892 -0.3402  0.3816
  357MOL0     H47062   5.223   5.424  10.307  1.9453  0.3568  0.3682
  357MOL0     H47063   5.045   5.601  10.332 -0.1440  0.5836 -0.0518
  357MOL0     H47064   5.018   5.528  10.494  2.8470  0.9704  0.1173
  357MOL0     H47065   4.905   5.339  10.377 -0.0749 -1.6050 -1.2987
  357MOL0     H47066   4.949   5.413  10.215 -2.6949 -2.1062 -0.2359
  357MOL0     H47067   4.754   5.514  10.430  0.8579 -0.8221  0.1207
  357MOL0     H47068   4.802   5.609  10.292 -1.4306 -0.9752 -2.6304
  357MOL0     H47069   4.587   5.520  10.267 -1.8237 -1.3591  0.2006
  357MOL0     H47070   4.645   5.362  10.333  3.6065  1.0281  2.7890
  357MOL0     H47071   4.758   5.332  10.104 -1.2291 -0.8421  1.3566
  357MOL0     H47072   4.692   5.503  10.070  0.4766 -0.1606 -2.1138
  357MOL0     H47073   4.568   5.226  10.111 -2.5461 -1.7601 -2.4181
  357MOL0     H47074   4.456   5.361  10.113 -1.1242 -3.8735 -1.1161
  357MOL0     H47075   4.645   5.315   9.875 -0.0735  2.8306 -1.4602
  357MOL0     H47076   4.507   5.432   9.904 -1.6684  0.2525  3.3002
  357MOL0     H47077   4.270   5.239   9.985 -0.6126 -2.9328  1.1609
  357MOL0     H47078   4.252   4.866   9.908 -0.5715 -0.9297  0.7832
  357MOL0     H47079   4.124   4.977   9.843  0.2427  1.9487  0.0470
  357MOL0     H47080   4.132   5.106  10.058  0.1008  0.6008 -0.0192
  357MOL0     H47081   4.247   4.997  10.121 -1.5406  0.4337  2.4256
  357MOL0     H47082   3.969   4.908  10.043  1.8732  1.2087 -0.8926
  357MOL0     H47083   4.095   4.793  10.069  0.3782 -0.6418  0.6223
  357MOL0     H47084   4.139   4.902  10.301  0.5832  0.0929 -0.2759
  357MOL0     H47085   3.983   4.822  10.280 -3.2609  3.1342  1.0957
  357MOL0     H47086   4.073   4.889  10.513 -0.0427  1.2458  0.2847
  357MOL0     H47087   3.942   4.845  10.721  0.9660 -0.8378 -1.9434
  357MOL0     H47088   3.319   4.972  10.783 -2.6910  0.8278  0.3642
  357MOL0     H47089   3.143   4.992  10.984  0.0646  0.2804  0.8940
  357MOL0     H47090   3.110   4.907  11.340  2.7564 -0.5414 -0.4322
  357MOL0     H47091   3.101   4.874  11.170 -0.6352 -1.4510  2.0240
  357MOL0     H47092   3.004   5.097  11.123 -0.5868 -2.0074 -0.7276
  357MOL0     H47093   3.012   5.135  11.297  0.5751  0.5415  0.1314
  357MOL0     H47094   2.837   4.914  11.182  1.1258  0.4164 -0.0424
  357MOL0     H47095   2.782   5.076  11.199 -0.3287  0.5413  0.3299
  357MOL0     H47096   2.884   4.912  11.434  1.5581  1.1001 -0.4432
  357MOL0     H47097   2.817   5.073  11.433  2.1280  0.4753 -1.2381
  357MOL0     H47098   2.701   4.807  11.361  2.5433 -0.0952 -0.9277
  357MOL0     H47099   2.613   4.953  11.316  1.6792 -1.6579 -1.6072
  357MOL0     H47100   2.696   4.875  11.607 -0.8949 -2.7261 -0.4305
  357MOL0     H47101   2.530   4.859  11.555  0.4822 -0.1750  0.5289
  357MOL0     H47102   2.679   5.097  11.646 -1.0554 -0.3342  1.4285
  357MOL0     H47103   2.562   5.125  11.503  0.3312  0.4965 -0.3063
  357MOL0     H47104   2.522   5.008  11.775  1.4729 -0.0361 -0.6129
  357MOL0     H47105   2.400   4.991  11.646 -0.6438  1.1924  0.9502
  357MOL0     H47106   3.467   5.083  11.224 -0.3723  1.1185  0.5991
  357MOL0     H47107   3.634   5.055  11.024 -0.3170  0.4657  2.4665
  357MOL0     H47108   3.617   5.063  10.564 -0.0612 -0.9319  2.0009
  357MOL0     H47109   3.756   5.126  10.349  2.3234 -0.9911 -1.6939
  357MOL0     H47110   5.378   5.313  10.435  0.6500 -0.5491  0.2911
  357MOL0     H47111   5.565   5.232  10.543  0.5663  0.7791 -1.0198
  357MOL0     H47112   5.803   5.316  11.126 -0.2586  0.7826  0.0507
  357MOL0     H47113   6.001   5.200  11.207 -0.6496  2.6895 -0.0820
  357MOL0     H47114   6.121   4.996  11.237  0.9446 -1.2756 -0.2473
  357MOL0     H47115   6.229   5.133  11.207  0.3586  0.7121 -1.4265
  357MOL0     H47116   6.360   4.952  11.298  2.6638 -2.0554 -1.1325
  357MOL0     H47117   6.282   4.833  11.187  4.1269 -2.6897 -0.1725
  357MOL0     H47118   6.385   4.978  10.996 -3.2857 -0.3568  1.6827
  357MOL0     H47119   6.489   4.864  11.079 -2.0610 -1.1073 -2.0754
  357MOL0     H47120   6.580   5.088  11.028  0.7897 -2.4609 -1.0710
  357MOL0     H47121   6.470   5.152  11.159 -0.4266 -0.2224  1.2468
  357MOL0     H47122   6.798   5.026  11.385  0.8831  3.1150 -0.3585
  357MOL0     H47123   6.042   5.053  10.800 -0.9078  2.6047 -1.4719
  357MOL0     H47124   5.848   5.154  10.734 -0.5296  1.2767 -0.0990
  358MOL0     O47125   9.366   3.423   3.262  0.1818 -0.1867 -0.1424
  358MOL0     C47126   9.324   3.338   3.337  0.0493 -0.0942  0.6168
  358MOL0     O47127   9.201   3.275   3.325 -0.2522  0.0322  0.2410
  358MOL0     C47128   9.111   3.312   3.230  0.8471  0.3189 -0.5479
  358MOL0     C47129   9.131   3.351   3.098  0.5427 -0.3661  0.3616
  358MOL0     C47130   9.025   3.380   3.011 -0.1848  0.0259  0.8415
  358MOL0     C47131   8.897   3.369   3.047  0.1980  0.5844  0.3072
  358MOL0     O47132   8.799   3.393   2.959  0.3842 -1.1873  0.2733
  358MOL0     C47133   8.656   3.397   3.005 -0.0287 -0.3667  0.1561
  358MOL0     C47134   8.578   3.433   2.883 -0.0774  0.0588  0.4013
  358MOL0     C47135   8.435   3.463   2.907 -0.5505  0.5227  0.5922
  358MOL0     C47136   8.353   3.452   2.775  0.1847  0.3810 -0.1459
  358MOL0     C47137   8.205   3.463   2.821 -0.0832  0.2656  0.1975
  358MOL0     C47138   8.111   3.523   2.708 -1.2724  0.0285  0.1928
  358MOL0     C47139   7.965   3.544   2.748  0.3789  0.3803 -0.0601
  358MOL0     C47140   7.887   3.635   2.655  0.2857 -0.5387  0.5255
  358MOL0     N47141   7.749   3.643   2.700  0.6358  0.2275 -0.7035
  358MOL0     C47142   7.649   3.555   2.685 -0.0335  0.2320 -0.0325
  358MOL0     C47143   7.537   3.617   2.720 -0.2913  0.1631 -0.6157
  358MOL0     C47144   7.409   3.547   2.726  0.2102 -1.1209 -1.0390
  358MOL0     C47145   7.288   3.641   2.710  0.5541 -0.6244  0.0522
  358MOL0     C47146   7.162   3.566   2.705 -0.2522  0.3191 -0.0456
  358MOL0     C47147   7.042   3.645   2.678  0.5280 -0.6234 -0.0231
  358MOL0     O47148   6.942   3.556   2.637 -0.4927  0.8278  0.1663
  358MOL0     C47149   6.814   3.603   2.624  0.0196 -0.5994 -0.2178
  358MOL0     C47150   6.715   3.518   2.575 -0.0989 -0.5926  0.3059
  358MOL0     C47151   6.585   3.567   2.568 -0.1572  0.3567  1.6280
  358MOL0     C47152   6.544   3.701   2.583 -0.2589 -0.6499  0.5737
  358MOL0     C47153   6.405   3.748   2.573  0.3254 -0.3390  0.0851
  358MOL0     O47154   6.381   3.884   2.591  0.6410 -0.1871  0.1268
  358MOL0     C47155   6.248   3.916   2.590  0.2356  0.3473  0.1741
  358MOL0     C47156   6.160   3.887   2.479 -0.2157 -0.4821 -0.3998
  358MOL0     C47157   6.026   3.914   2.476  0.4450  0.4334  0.4929
  358MOL0     C47158   5.962   3.981   2.583 -0.7270 -0.1501 -0.3291
  358MOL0     O47159   5.824   4.001   2.600  0.0200  0.7950  1.4289
  358MOL0     C47160   5.737   4.019   2.482 -0.1446 -0.0807 -0.3631
  358MOL0     C47161   5.633   4.129   2.502  0.1930 -0.5822  1.0397
  358MOL0     C47162   5.537   4.147   2.376  1.0100 -0.1725  0.2198
  358MOL0     C47163   5.585   4.212   2.249 -0.4841 -0.7228  0.3986
  358MOL0     C47164   5.478   4.218   2.142 -0.8665  0.4748  0.0986
  358MOL0     C47165   5.369   4.333   2.160 -0.2939  0.1230  0.3524
  358MOL0     C47166   5.321   4.372   2.017  0.3659  0.0587  0.2006
  358MOL0     C47167   5.218   4.489   2.043 -0.2698  0.0905 -0.1845
  358MOL0    Cl47168   5.077   4.421   2.129 -0.3718  0.1471  0.0901
  358MOL0     C47169   6.047   4.026   2.688 -0.5091 -0.4765  0.0523
  358MOL0     C47170   6.182   3.988   2.694 -0.4389 -0.0757  0.9035
  358MOL0     O47171   6.321   3.659   2.565  0.9795  0.1732 -0.5439
  358MOL0     C47172   6.645   3.782   2.637 -0.4710 -0.4415 -0.1592
  358MOL0     C47173   6.777   3.739   2.650 -0.7288  0.3815  0.2149
  358MOL0     N47174   7.570   3.743   2.774 -0.0564  0.1129 -0.1503
  358MOL0     N47175   7.696   3.754   2.756  0.2076 -0.2367  0.0481
  358MOL0     C47176   8.869   3.312   3.175 -0.4498 -0.4846 -0.4763
  358MOL0     C47177   8.971   3.284   3.268  0.2705  0.0972  0.0463
  358MOL0     C47178   9.418   3.280   3.439  0.6105 -1.2233  0.2406
  358MOL0     C47179   9.537   3.351   3.466 -0.2826 -0.9844 -0.8740
  358MOL0     C47180   9.628   3.297   3.556  0.3392 -0.5885 -0.1367
  358MOL0     C47181   9.609   3.180   3.628  0.4873  1.1140  0.5063
  358MOL0     O47182   9.707   3.124   3.715  0.3819  0.3326  0.5096
  358MOL0     C47183   9.843   3.143   3.678 -0.1358  0.1706 -0.0485
  358MOL0     C47184   9.927   3.034   3.749 -0.3117 -0.4170  0.5835
  358MOL0     C47185  10.075   3.041   3.718  0.6148  0.2271 -0.2355
  358MOL0     C47186  10.159   3.130   3.808 -0.6378 -0.0425  0.1961
  358MOL0     C47187  10.302   3.086   3.799  0.2684  0.6290 -0.1736
  358MOL0     C47188  10.424   3.072   3.807  0.5572 -0.2369  0.5274
  358MOL0     C47189   9.483   3.112   3.602 -0.8670  0.6764 -0.1995
  358MOL0     C47190   9.389   3.171   3.521  0.3991 -0.5473 -0.0924
  358MOL0     H47191   9.232   3.380   3.071  0.4811  1.1113  1.5769
  358MOL0     H47192   9.050   3.423   2.915 -0.2302  0.0193  0.8270
  358MOL0     H47193   8.640   3.472   3.083  3.0737  1.8175 -1.0916
  358MOL0     H47194   8.614   3.301   3.036 -1.4984 -0.2239 -1.2323
  358MOL0     H47195   8.594   3.362   2.801 -0.0527  0.6313 -0.1048
  358MOL0     H47196   8.620   3.528   2.847 -0.8848  0.0136 -0.7191
  358MOL0     H47197   8.411   3.561   2.948 -0.8816  0.5952  0.2367
  358MOL0     H47198   8.389   3.392   2.977 -0.4804 -1.7994 -1.5504
  358MOL0     H47199   8.387   3.528   2.705  2.2480  0.1876  0.5706
  358MOL0     H47200   8.371   3.354   2.729 -2.0224 -0.2934  0.2992
  358MOL0     H47201   8.192   3.531   2.905 -0.9658  1.1172 -0.5999
  358MOL0     H47202   8.178   3.364   2.859  0.1260  0.5015  0.9668
  358MOL0     H47203   8.128   3.451   2.628  3.0836  1.3143 -0.3207
  358MOL0     H47204   8.143   3.622   2.675 -0.2087  0.2610  1.7908
  358MOL0     H47205   7.909   3.450   2.747  0.0443  0.5371  1.4259
  358MOL0     H47206   7.977   3.587   2.848 -1.7489  1.8343 -0.3613
  358MOL0     H47207   7.878   3.588   2.557  2.4544 -3.9430  1.7680
  358MOL0     H47208   7.927   3.737   2.652  0.1965 -0.4532  1.7475
  358MOL0     H47209   7.666   3.454   2.650 -0.3034  0.2663 -0.2608
  358MOL0     H47210   7.384   3.498   2.821 -1.2681  2.1921  0.4794
  358MOL0     H47211   7.409   3.458   2.663 -3.8298 -2.1249  0.0776
  358MOL0     H47212   7.302   3.703   2.621 -0.3015  1.3866  1.2649
  358MOL0     H47213   7.287   3.703   2.800  1.2115 -2.4674  1.4150
  358MOL0     H47214   7.179   3.498   2.621  1.3363  0.7300 -0.0985
  358MOL0     H47215   7.144   3.507   2.795 -0.2966  2.0013  1.1025
  358MOL0     H47216   7.059   3.714   2.595  0.7953 -2.5823 -1.6717
  358MOL0     H47217   7.021   3.695   2.773 -2.3873 -3.1844  0.8565
  358MOL0     H47218   6.750   3.419   2.549  1.6889  0.6819 -2.7316
  358MOL0     H47219   6.512   3.492   2.540 -1.6777  2.4745 -0.4032
  358MOL0     H47220   6.195   3.828   2.396 -0.0621 -1.8917  0.6163
  358MOL0     H47221   5.973   3.879   2.388  1.6905  0.9532 -0.4908
  358MOL0     H47222   5.672   3.932   2.470 -1.5537  1.0523 -1.1844
  358MOL0     H47223   5.787   4.023   2.385 -1.4829 -1.7540 -1.1741
  358MOL0     H47224   5.678   4.227   2.518 -0.0346 -0.4760  1.0435
  358MOL0     H47225   5.570   4.112   2.589  0.4900  2.2396  1.9183
  358MOL0     H47226   5.449   4.205   2.406  0.6028 -1.5154  1.8012
  358MOL0     H47227   5.502   4.047   2.349  1.8198 -0.0637 -1.3050
  358MOL0     H47228   5.628   4.310   2.272  3.2724 -1.3278 -2.9147
  358MOL0     H47229   5.673   4.160   2.210 -0.6178 -2.1093  1.8247
  358MOL0     H47230   5.422   4.124   2.145  0.1440 -0.3752 -3.0676
  358MOL0     H47231   5.526   4.224   2.043 -0.2567  0.7416  0.4003
  358MOL0     H47232   5.410   4.423   2.207  0.8246 -0.5008  0.6243
  358MOL0     H47233   5.296   4.297   2.233 -0.6301  2.8293  1.4740
  358MOL0     H47234   5.405   4.416   1.963  1.1238 -0.5363  0.8543
  358MOL0     H47235   5.278   4.281   1.973  0.0403  0.4045 -0.2021
  358MOL0     H47236   5.188   4.541   1.951 -2.1795 -0.6687 -0.0427
  358MOL0     H47237   5.271   4.563   2.102 -0.3055 -0.2410  0.2680
  358MOL0     H47238   5.999   4.081   2.768 -3.1908 -1.4004 -0.8238
  358MOL0     H47239   6.228   4.018   2.787 -1.6130  0.7051  1.2495
  358MOL0     H47240   6.629   3.889   2.640 -2.2091 -0.6870  1.3896
  358MOL0     H47241   6.858   3.808   2.673  0.8747 -1.8809  1.7033
  358MOL0     H47242   8.770   3.281   3.204  0.0929  0.0729  2.2785
  358MOL0     H47243   8.945   3.239   3.363 -2.0853  1.4111  0.0987
  358MOL0     H47244   9.558   3.446   3.419 -2.5693  0.0567  0.0287
  358MOL0     H47245   9.717   3.356   3.571 -0.1765 -0.1300  1.3130
  358MOL0     H47246   9.881   3.243   3.704  0.1918 -0.3737  1.7000
  358MOL0     H47247   9.868   3.141   3.572 -0.4621  1.2424 -0.1592
  358MOL0     H47248   9.903   3.052   3.854 -2.3569 -0.2470  0.1252
  358MOL0     H47249   9.899   2.932   3.721 -0.3405  0.4940 -3.2821
  358MOL0     H47250  10.092   3.073   3.615  1.1291 -1.6768 -0.7705
  358MOL0     H47251  10.111   2.940   3.741 -1.9501 -0.0484  3.3945
  358MOL0     H47252  10.149   3.234   3.776 -1.4229 -0.1181  0.1661
  358MOL0     H47253  10.134   3.121   3.914  1.6331 -2.1470  0.6363
  358MOL0     H47254  10.527   3.044   3.804  0.5491 -0.2268 -0.3827
  358MOL0     H47255   9.468   3.021   3.660  1.0164  0.5287  0.1165
  358MOL0     H47256   9.290   3.127   3.516 -0.8768  2.0104  1.3024
  359MOL0     O47257   2.837   5.880   6.540  0.1690  0.1660  0.7501
  359MOL0     C47258   2.934   5.950   6.535  0.0265 -0.8807 -0.4178
  359MOL0     O47259   2.936   6.084   6.510  0.0544 -0.2675 -0.5595
  359MOL0     C47260   2.811   6.148   6.506 -0.9729 -0.6171  0.3838
  359MOL0     C47261   2.782   6.223   6.393  0.3350  0.3767 -0.0025
  359MOL0     C47262   2.655   6.287   6.386  0.4868 -0.6488  0.0537
  359MOL0     C47263   2.555   6.275   6.486  1.0404 -0.0180 -0.1120
  359MOL0     O47264   2.421   6.306   6.477 -0.8180 -0.4814 -0.7605
  359MOL0     C47265   2.336   6.266   6.364 -0.3426 -1.2615  0.4695
  359MOL0     C47266   2.321   6.111   6.349  0.0881 -0.1512 -0.0432
  359MOL0     C47267   2.226   6.076   6.228 -0.7930 -0.1064 -0.1555
  359MOL0     C47268   2.086   6.116   6.260  0.8547  0.2741 -0.3828
  359MOL0     C47269   2.007   6.104   6.128 -0.9700  0.2346  0.4479
  359MOL0     C47270   1.862   6.125   6.153  0.5853  0.1369 -0.6950
  359MOL0     C47271   1.779   6.109   6.035  0.6361  0.4518  0.3767
  359MOL0     C47272   1.637   6.176   6.044  0.0751 -0.1787 -0.6348
  359MOL0     N47273   1.556   6.122   6.157 -1.3167 -0.1853  0.6542
  359MOL0     C47274   1.490   6.001   6.162 -0.5635  0.5461  0.4836
  359MOL0     C47275   1.459   5.989   6.292 -0.5010 -0.1689  1.0001
  359MOL0     C47276   1.369   5.880   6.346 -0.2887 -0.3038 -0.1784
  359MOL0     C47277   1.257   5.937   6.433  0.1729 -0.3737 -0.5243
  359MOL0     C47278   1.171   6.044   6.362 -0.3815 -0.5694 -0.1573
  359MOL0     C47279   1.106   5.999   6.237 -0.1321  0.2993  0.6720
  359MOL0     O47280   1.051   5.871   6.237  0.1721  0.6212 -0.2829
  359MOL0     C47281   0.927   5.849   6.292  0.0105 -0.7999  0.0318
  359MOL0     C47282   0.851   5.946   6.354 -0.7216  0.6046 -0.2034
  359MOL0     C47283   0.732   5.909   6.405  0.0114  0.0007 -0.0857
  359MOL0     C47284   0.683   5.775   6.386  0.4846  0.1389  0.2947
  359MOL0     C47285   0.547   5.739   6.437  0.5006  0.7055  0.0867
  359MOL0     O47286   0.458   5.839   6.456  0.2844 -0.1265 -0.6629
  359MOL0     C47287   0.330   5.821   6.505  0.2769 -0.0892 -0.5221
  359MOL0     C47288   0.254   5.697   6.507  0.3793 -0.3227  0.5083
  359MOL0     C47289   0.124   5.690   6.564 -1.2265  0.3610  0.5183
  359MOL0     C47290   0.067   5.800   6.619 -0.5041  0.7176  1.3360
  359MOL0     O47291  -0.057   5.798   6.678 -0.3840 -0.3376 -0.2869
  359MOL0     C47292  -0.169   5.763   6.588 -0.1718 -0.3347 -0.0243
  359MOL0     C47293  -0.298   5.804   6.663  0.0510  0.2929  0.4542
  359MOL0     C47294  -0.428   5.754   6.588 -0.0744  0.4357  0.1532
  359MOL0     C47295  -0.551   5.752   6.680 -0.6599 -0.2292 -0.9159
  359MOL0     C47296  -0.680   5.768   6.603 -0.7720 -0.1760  0.9015
  359MOL0     C47297  -0.801   5.749   6.687 -1.3993 -0.3045  0.3216
  359MOL0     C47298  -0.935   5.786   6.617  0.2651  0.3140 -0.3617
  359MOL0     C47299  -1.064   5.772   6.700 -0.4156  0.0385  0.9758
  359MOL0    Cl47300  -1.085   5.609   6.779  0.2968  0.3742  0.0492
  359MOL0     C47301   0.134   5.921   6.615 -0.2728 -1.1884  0.3201
  359MOL0     C47302   0.264   5.923   6.575  0.8189 -0.3265 -0.2607
  359MOL0     O47303   0.528   5.624   6.463  0.7234  0.0622 -0.6805
  359MOL0     C47304   0.760   5.684   6.312  0.2032  0.5656  0.0568
  359MOL0     C47305   0.889   5.718   6.277  0.1567 -0.0632  0.5965
  359MOL0     N47306   1.514   6.097   6.365 -0.0539 -0.5753 -0.3848
  359MOL0     N47307   1.564   6.175   6.282 -0.1671 -0.1424  0.0904
  359MOL0     C47308   2.588   6.196   6.597 -0.2419 -0.1154 -0.6720
  359MOL0     C47309   2.708   6.135   6.615  0.4681  0.5405  0.4790
  359MOL0     C47310   3.067   5.890   6.560 -1.1423 -0.8463  0.0499
  359MOL0     C47311   3.081   5.753   6.577  0.3738 -0.3660  1.0585
  359MOL0     C47312   3.199   5.697   6.615  0.3102  0.2071 -0.1006
  359MOL0     C47313   3.310   5.774   6.651  0.5603 -0.0683  0.4553
  359MOL0     O47314   3.416   5.700   6.692  0.3826  0.4168  0.0701
  359MOL0     C47315   3.499   5.755   6.795  0.3169  0.0609  0.9286
  359MOL0     C47316   3.588   5.635   6.828  0.6666  0.4831 -0.0775
  359MOL0     C47317   3.700   5.678   6.930  0.0155  0.6261  0.4253
  359MOL0     C47318   3.651   5.705   7.070 -0.0729  0.2560 -0.5090
  359MOL0     C47319   3.611   5.838   7.102 -0.5093 -0.2631  0.3830
  359MOL0     C47320   3.573   5.946   7.150  0.5091  0.4574 -0.9966
  359MOL0     C47321   3.307   5.915   6.628 -0.0921 -0.1353 -0.1437
  359MOL0     C47322   3.186   5.970   6.581 -0.4223 -0.0419  0.6326
  359MOL0     H47323   2.860   6.231   6.317 -0.3665  2.6117 -0.5766
  359MOL0     H47324   2.620   6.359   6.313 -2.9477 -1.2187  0.9631
  359MOL0     H47325   2.382   6.311   6.275 -0.4319  0.4825  1.2678
  359MOL0     H47326   2.241   6.318   6.382  0.3563  0.6182 -0.9487
  359MOL0     H47327   2.282   6.070   6.443  1.8659  0.2947  0.9426
  359MOL0     H47328   2.423   6.075   6.330 -0.1176 -0.3666 -0.7957
  359MOL0     H47329   2.226   5.967   6.221 -0.7833 -0.0795 -0.5747
  359MOL0     H47330   2.257   6.129   6.138 -0.3830 -0.4324 -0.2085
  359MOL0     H47331   2.042   6.051   6.336 -1.5198  1.5996 -0.5322
  359MOL0     H47332   2.073   6.217   6.302 -0.5596 -1.4054  3.7685
  359MOL0     H47333   2.012   6.004   6.083 -2.9725 -0.8792  2.5094
  359MOL0     H47334   2.052   6.176   6.058  0.2169 -1.5149 -0.6986
  359MOL0     H47335   1.847   6.220   6.205  1.8456 -2.3339  4.8981
  359MOL0     H47336   1.833   6.061   6.236  2.7242  1.2400  1.0227
  359MOL0     H47337   1.831   6.147   5.947  0.7815  0.2105  0.3585
  359MOL0     H47338   1.773   6.002   6.015  1.0248  0.5125 -0.0509
  359MOL0     H47339   1.581   6.171   5.951  1.1772 -3.4735 -1.2614
  359MOL0     H47340   1.657   6.282   6.062  2.8411 -0.7404  0.1923
  359MOL0     H47341   1.446   5.953   6.075 -0.3680  2.7152 -0.8765
  359MOL0     H47342   1.423   5.820   6.420 -3.1023 -1.1020  1.3787
  359MOL0     H47343   1.332   5.814   6.268  1.2577 -0.5054 -0.7882
  359MOL0     H47344   1.297   5.982   6.524 -4.2736 -0.6672  1.8402
  359MOL0     H47345   1.189   5.854   6.458  1.6416 -0.9242  1.9951
  359MOL0     H47346   1.095   6.078   6.432 -0.7550  0.9948 -1.2867
  359MOL0     H47347   1.234   6.129   6.335  1.1972 -0.6091  2.9365
  359MOL0     H47348   1.183   5.994   6.159 -3.1328 -0.9110 -2.4716
  359MOL0     H47349   1.033   6.073   6.201 -1.3340  0.2539  2.8970
  359MOL0     H47350   0.889   6.047   6.367 -0.6775  0.7529 -1.3641
  359MOL0     H47351   0.680   5.987   6.459  0.3670  0.3884 -0.2955
  359MOL0     H47352   0.307   5.609   6.471  2.1681  0.7377  0.4525
  359MOL0     H47353   0.078   5.591   6.560 -1.6228  0.5990 -1.6590
  359MOL0     H47354  -0.182   5.656   6.567 -3.2223  0.2830 -1.7938
  359MOL0     H47355  -0.162   5.812   6.491  0.8076  0.5750  0.4926
  359MOL0     H47356  -0.289   5.913   6.658 -0.1712  0.2834 -0.1820
  359MOL0     H47357  -0.294   5.756   6.762  2.0391 -3.1978 -1.1295
  359MOL0     H47358  -0.409   5.657   6.544  0.4272  0.7360 -0.2967
  359MOL0     H47359  -0.438   5.813   6.496 -3.0759 -1.7425 -1.0655
  359MOL0     H47360  -0.559   5.661   6.741 -1.9197  1.3125  1.3469
  359MOL0     H47361  -0.540   5.838   6.746  1.8576 -0.1932 -1.3116
  359MOL0     H47362  -0.675   5.705   6.514  2.5360  2.9858 -1.4969
  359MOL0     H47363  -0.681   5.868   6.557  4.4034 -1.8180 -3.9451
  359MOL0     H47364  -0.797   5.804   6.781 -1.2006  1.1769 -0.5317
  359MOL0     H47365  -0.808   5.644   6.719 -1.1541 -0.6149 -0.6114
  359MOL0     H47366  -0.924   5.886   6.573  0.3595 -0.1221 -1.3697
  359MOL0     H47367  -0.950   5.718   6.533 -1.3996 -2.1120  1.7519
  359MOL0     H47368  -1.151   5.797   6.639 -0.1877  0.4436  0.8146
  359MOL0     H47369  -1.055   5.846   6.780  2.0961  1.1163 -0.1761
  359MOL0     H47370   0.088   6.010   6.655  0.0930 -0.8618  0.0110
  359MOL0     H47371   0.319   6.015   6.586  1.9866 -1.2677  2.6715
  359MOL0     H47372   0.720   5.587   6.287 -0.9976  1.4911 -1.7686
  359MOL0     H47373   0.949   5.650   6.217  1.4653  1.4446  0.1295
  359MOL0     H47374   2.503   6.181   6.663 -0.6193  1.8017 -0.6615
  359MOL0     H47375   2.715   6.055   6.687  2.2426 -0.3982 -0.6584
  359MOL0     H47376   2.997   5.686   6.560  1.2580 -1.1108 -0.6861
  359MOL0     H47377   3.208   5.590   6.631  0.8494  0.5025  1.6883
  359MOL0     H47378   3.447   5.798   6.881  0.1143  1.8316 -0.0091
  359MOL0     H47379   3.564   5.835   6.756 -2.1578  0.9673 -1.7730
  359MOL0     H47380   3.536   5.544   6.859  2.4164 -2.1856 -4.0795
  359MOL0     H47381   3.636   5.597   6.737 -1.1515 -1.6406 -0.2255
  359MOL0     H47382   3.769   5.754   6.893 -0.8937  0.2428 -2.2788
  359MOL0     H47383   3.766   5.591   6.925 -1.4034 -0.4267 -2.5016
  359MOL0     H47384   3.564   5.644   7.095 -0.1005 -0.4839 -2.2983
  359MOL0     H47385   3.723   5.687   7.150 -0.4088  3.2843  0.6115
  359MOL0     H47386   3.527   6.028   7.200 -0.2443 -0.3418 -0.3391
  359MOL0     H47387   3.393   5.973   6.659  1.0311 -0.0707 -3.0953
  359MOL0     H47388   3.177   6.078   6.571  2.9616  0.1414 -2.6935
  360MOL0     O47389   8.389   4.803   3.561  0.8954  0.4829 -0.7895
  360MOL0     C47390   8.465   4.902   3.557 -0.4606 -1.1159  0.0820
  360MOL0     O47391   8.427   5.033   3.558  0.7549 -0.4878  0.4998
  360MOL0     C47392   8.297   5.064   3.591 -0.3574  0.0559 -0.7301
  360MOL0     C47393   8.217   5.152   3.519  0.3025 -0.5013 -0.8595
  360MOL0     C47394   8.080   5.171   3.554  0.7736 -0.1170  0.8253
  360MOL0     C47395   8.015   5.105   3.656 -0.4932 -1.1627 -0.8016
  360MOL0     O47396   7.881   5.125   3.692 -0.5254  0.6564  0.4988
  360MOL0     C47397   7.791   5.149   3.584 -0.1651 -0.2671 -0.9490
  360MOL0     C47398   7.645   5.119   3.621 -1.0963 -0.0620  0.7592
  360MOL0     C47399   7.582   5.232   3.706  0.6735 -0.2629 -0.3564
  360MOL0     C47400   7.422   5.224   3.715 -0.3328  0.0697  0.2745
  360MOL0     C47401   7.367   5.369   3.739 -0.1461  0.2734 -0.5512
  360MOL0     C47402   7.407   5.464   3.635  0.0269 -0.4016  1.2311
  360MOL0     C47403   7.310   5.588   3.614 -0.0987 -0.1397  0.2965
  360MOL0     C47404   7.189   5.553   3.524  0.0299 -0.3415 -0.3766
  360MOL0     N47405   7.103   5.667   3.482  0.0856 -0.0145 -0.7150
  360MOL0     C47406   6.976   5.695   3.527  0.7809 -0.2504  0.1613
  360MOL0     C47407   6.949   5.824   3.488 -0.6043 -0.1909  0.9138
  360MOL0     C47408   6.826   5.904   3.492  0.4571  0.0882  0.6783
  360MOL0     C47409   6.715   5.842   3.580 -0.7032  0.0373  0.1702
  360MOL0     C47410   6.605   5.949   3.612  0.0646 -0.4395  0.4942
  360MOL0     C47411   6.502   5.872   3.691 -0.2103 -0.1615 -0.2169
  360MOL0     O47412   6.409   5.813   3.604 -0.0914 -0.6168  0.2468
  360MOL0     C47413   6.297   5.876   3.561  0.6706 -0.6497  0.3310
  360MOL0     C47414   6.240   6.002   3.600 -1.0829 -0.4480 -0.7153
  360MOL0     C47415   6.118   6.051   3.562 -0.4341  1.0603 -0.3944
  360MOL0     C47416   6.039   5.975   3.480 -0.4132  0.8895  0.2532
  360MOL0     C47417   5.903   6.026   3.445 -0.3028  0.5334  0.5788
  360MOL0     O47418   5.856   6.132   3.513 -0.1255 -0.8598 -0.1287
  360MOL0     C47419   5.740   6.189   3.475  0.9505 -0.7108 -0.5975
  360MOL0     C47420   5.744   6.324   3.448 -0.0433 -0.5229 -0.6796
  360MOL0     C47421   5.626   6.391   3.404  0.5067 -0.2499  0.8166
  360MOL0     C47422   5.501   6.332   3.382 -0.5245 -0.3612 -0.2592
  360MOL0     O47423   5.389   6.404   3.344 -0.1427  0.0421  0.4826
  360MOL0     C47424   5.417   6.505   3.241  0.5223  0.3148 -0.0118
  360MOL0     C47425   5.316   6.613   3.264  0.6297  1.0464  0.2993
  360MOL0     C47426   5.347   6.744   3.171  0.3296  0.2060 -0.0624
  360MOL0     C47427   5.349   6.703   3.017  0.1262  0.4617 -0.3578
  360MOL0     C47428   5.358   6.822   2.932  0.5858 -0.4987 -0.1937
  360MOL0     C47429   5.316   6.790   2.791 -0.0855 -0.3263  0.0794
  360MOL0     C47430   5.320   6.922   2.708 -0.4157  0.7219 -0.3904
  360MOL0     C47431   5.257   6.903   2.569 -0.9230  0.3444  0.3697
  360MOL0    Cl47432   5.079   6.915   2.576 -0.1836 -0.0862  0.0508
  360MOL0     C47433   5.500   6.195   3.413 -0.3198  0.8942  0.3376
  360MOL0     C47434   5.617   6.121   3.444  0.1842 -0.1374 -0.0711
  360MOL0     O47435   5.854   5.970   3.346  0.0987  0.3458 -0.7198
  360MOL0     C47436   6.094   5.860   3.421  0.4283  0.0285 -0.7140
  360MOL0     C47437   6.218   5.808   3.463  0.5900 -0.2080 -0.8534
  360MOL0     N47438   7.056   5.861   3.415 -0.0231  0.3683 -0.7780
  360MOL0     N47439   7.152   5.774   3.413 -0.1692  0.3289 -0.3030
  360MOL0     C47440   8.101   5.024   3.737  0.2807  0.2303  0.5045
  360MOL0     C47441   8.234   4.996   3.698  0.2336  0.2388 -1.3127
  360MOL0     C47442   8.615   4.897   3.552  1.0725  0.0188  0.4861
  360MOL0     C47443   8.689   4.998   3.617 -0.1506 -0.2174 -0.7706
  360MOL0     C47444   8.829   4.987   3.602  0.4561  0.5094 -0.6504
  360MOL0     C47445   8.884   4.880   3.528  0.1629  0.4050 -0.1833
  360MOL0     O47446   9.017   4.856   3.508 -0.3430 -0.1148 -0.3082
  360MOL0     C47447   9.101   4.974   3.499 -0.3274  0.3046  0.4326
  360MOL0     C47448   9.238   4.927   3.448  0.3528  1.3822 -0.0975
  360MOL0     C47449   9.349   5.016   3.476 -0.2380  0.8208 -0.3887
  360MOL0     C47450   9.440   5.031   3.362 -0.2428 -0.2096  0.6313
  360MOL0     C47451   9.561   5.117   3.396  0.1035 -0.2733  0.1004
  360MOL0     C47452   9.661   5.188   3.421  0.2687  0.3707 -0.5120
  360MOL0     C47453   8.811   4.778   3.481 -0.1024  0.4951 -0.4714
  360MOL0     C47454   8.676   4.782   3.497  0.8355  0.3178 -0.3589
  360MOL0     H47455   8.262   5.210   3.440  2.4720  0.4197  0.9402
  360MOL0     H47456   8.021   5.229   3.484  0.7870 -0.0864  0.8389
  360MOL0     H47457   7.827   5.092   3.498 -0.6185 -1.0027 -0.6629
  360MOL0     H47458   7.798   5.257   3.570  1.4248  0.6923  4.6763
  360MOL0     H47459   7.637   5.027   3.679 -0.1026 -0.7653 -0.1741
  360MOL0     H47460   7.590   5.108   3.527  1.1755  0.8724 -0.7785
  360MOL0     H47461   7.606   5.329   3.662 -0.8736  0.5977  0.6373
  360MOL0     H47462   7.613   5.222   3.811  0.7798 -2.5418 -0.5539
  360MOL0     H47463   7.382   5.185   3.621 -0.1248 -1.7992  0.9199
  360MOL0     H47464   7.387   5.168   3.802 -2.2699  3.2038  1.7091
  360MOL0     H47465   7.393   5.417   3.834  0.0369  3.4460 -2.0632
  360MOL0     H47466   7.258   5.355   3.739  0.2002 -3.4002 -0.5515
  360MOL0     H47467   7.403   5.419   3.536 -4.9107  0.8928  0.5750
  360MOL0     H47468   7.510   5.490   3.658  0.4213 -0.0914 -0.7076
  360MOL0     H47469   7.278   5.619   3.713 -2.5762 -0.2883 -0.3908
  360MOL0     H47470   7.368   5.667   3.564 -0.4736 -0.5135 -0.7692
  360MOL0     H47471   7.128   5.467   3.554  1.1294 -0.8548  0.4230
  360MOL0     H47472   7.236   5.520   3.431  1.3329 -0.3400  0.2740
  360MOL0     H47473   6.911   5.632   3.586  0.0106 -0.0557 -0.4697
  360MOL0     H47474   6.778   5.920   3.395  3.3631  0.7667 -0.7828
  360MOL0     H47475   6.856   6.001   3.532 -0.1361  0.0605  1.1966
  360MOL0     H47476   6.758   5.820   3.678  2.7554 -0.5910 -1.3405
  360MOL0     H47477   6.675   5.756   3.525 -0.7912  2.2687 -3.6116
  360MOL0     H47478   6.649   6.029   3.671  1.3691 -0.4150 -0.4558
  360MOL0     H47479   6.561   5.988   3.520  0.0400  0.0534  0.7150
  360MOL0     H47480   6.459   5.954   3.749  0.8807  0.6756 -0.5776
  360MOL0     H47481   6.547   5.795   3.755 -0.9774 -0.0971  0.4252
  360MOL0     H47482   6.298   6.072   3.660 -0.2616 -0.1177 -1.8680
  360MOL0     H47483   6.086   6.142   3.611 -3.7068 -1.3823  2.5751
  360MOL0     H47484   5.839   6.376   3.459  0.1429 -1.1190  0.8280
  360MOL0     H47485   5.633   6.498   3.385  1.8149 -0.5176 -0.3513
  360MOL0     H47486   5.398   6.465   3.141  2.2491 -0.5389 -0.0478
  360MOL0     H47487   5.518   6.547   3.248  0.8183 -0.6051  2.2819
  360MOL0     H47488   5.317   6.638   3.370  0.7816 -2.1178  1.1540
  360MOL0     H47489   5.220   6.566   3.241  0.7372  1.0028 -0.0678
  360MOL0     H47490   5.443   6.791   3.196  0.7057 -2.1176  3.6229
  360MOL0     H47491   5.266   6.812   3.200 -1.4403 -1.8606  0.1405
  360MOL0     H47492   5.441   6.647   2.997  0.8941  1.9150 -1.0595
  360MOL0     H47493   5.254   6.651   3.004 -0.0335  0.9628 -1.2113
  360MOL0     H47494   5.462   6.857   2.935  0.0083  1.5069 -1.6322
  360MOL0     H47495   5.293   6.901   2.970 -1.7283 -1.7288 -1.3325
  360MOL0     H47496   5.213   6.755   2.800 -0.6249  0.8327 -1.1755
  360MOL0     H47497   5.379   6.713   2.746  0.0095 -1.0089  1.3556
  360MOL0     H47498   5.260   6.987   2.773 -1.5879 -3.3384  2.9606
  360MOL0     H47499   5.420   6.966   2.700 -1.3450  2.7243 -2.3105
  360MOL0     H47500   5.289   6.807   2.527  0.4251  2.2660 -3.4477
  360MOL0     H47501   5.299   6.979   2.502  2.1215 -1.7026 -0.2591
  360MOL0     H47502   5.410   6.135   3.409  0.1638 -0.0331  2.1174
  360MOL0     H47503   5.619   6.013   3.447  2.7430 -0.3019 -2.5619
  360MOL0     H47504   6.031   5.802   3.355 -1.6775  1.6898 -0.2931
  360MOL0     H47505   6.257   5.714   3.425 -0.0753 -1.4815  1.4449
  360MOL0     H47506   8.062   4.975   3.825 -0.0354 -0.2168  0.1204
  360MOL0     H47507   8.287   4.928   3.764  0.2252 -0.4578 -2.0062
  360MOL0     H47508   8.643   5.087   3.659  0.1035  0.4020 -1.7877
  360MOL0     H47509   8.893   5.057   3.655  0.5463 -0.1454  0.1263
  360MOL0     H47510   9.108   5.016   3.600 -2.4306 -2.8231  2.0626
  360MOL0     H47511   9.057   5.057   3.444 -3.0872  1.4973  4.0773
  360MOL0     H47512   9.269   4.828   3.482  2.4273  1.0997 -2.5181
  360MOL0     H47513   9.228   4.912   3.340  2.6559  0.7777 -0.2774
  360MOL0     H47514   9.408   4.984   3.563 -2.0423 -0.9604  0.2679
  360MOL0     H47515   9.301   5.109   3.508 -1.4819  0.1373 -0.1722
  360MOL0     H47516   9.479   4.936   3.324  0.7992  0.9628 -1.4083
  360MOL0     H47517   9.391   5.077   3.275 -1.0616 -0.8143  0.7541
  360MOL0     H47518   9.752   5.233   3.456  0.7996 -1.6567  0.9012
  360MOL0     H47519   8.853   4.695   3.426  1.0707 -0.7842  2.1860
  360MOL0     H47520   8.608   4.704   3.462  1.2937 -0.2038 -0.0982
  361MOL0     O47521   5.905   8.213   2.329 -0.2754 -0.2071 -0.2265
  361MOL0     C47522   5.998   8.238   2.257 -1.0044 -0.3934  0.0368
  361MOL0     O47523   5.989   8.313   2.142 -0.4508 -0.2534 -0.0689
  361MOL0     C47524   5.877   8.379   2.106  0.0581  0.4521 -0.1949
  361MOL0     C47525   5.745   8.314   2.084 -0.4707 -0.0224 -0.3397
  361MOL0     C47526   5.634   8.388   2.034  0.6745  0.2300 -0.4639
  361MOL0     C47527   5.645   8.528   2.015 -0.2343  0.2667 -0.0748
  361MOL0     O47528   5.536   8.593   1.964  0.3189  0.3124 -0.3033
  361MOL0     C47529   5.558   8.705   1.885 -0.3162  0.2676  0.2963
  361MOL0     C47530   5.410   8.723   1.832 -0.4765  0.4249  0.2490
  361MOL0     C47531   5.303   8.747   1.941  0.7408 -0.5763  0.2915
  361MOL0     C47532   5.163   8.773   1.874  0.3079  0.2389 -0.6560
  361MOL0     C47533   5.049   8.734   1.972  0.1106 -0.1590 -0.3568
  361MOL0     C47534   5.025   8.822   2.097  0.2986  0.0758  0.5597
  361MOL0     C47535   4.882   8.831   2.155 -0.0849 -0.3102  0.0654
  361MOL0     C47536   4.853   8.701   2.215 -0.0397  0.4758 -0.0869
  361MOL0     N47537   4.734   8.713   2.290  0.2968 -0.1577 -0.4142
  361MOL0     C47538   4.657   8.831   2.314 -0.4986 -0.7513  0.0690
  361MOL0     C47539   4.548   8.793   2.388 -1.0779 -0.2384 -0.4225
  361MOL0     C47540   4.433   8.872   2.442  0.3626  0.1448 -0.4414
  361MOL0     C47541   4.315   8.890   2.346 -0.3730  0.1692  0.5914
  361MOL0     C47542   4.269   8.759   2.260 -0.2146  0.2390  0.8200
  361MOL0     C47543   4.141   8.779   2.174 -0.9382  0.6191 -0.6484
  361MOL0     O47544   4.034   8.812   2.268 -0.4169  0.2688 -0.7202
  361MOL0     C47545   3.917   8.864   2.225  0.9618 -0.5080 -0.1925
  361MOL0     C47546   3.827   8.896   2.323 -0.0184 -0.7579  0.0584
  361MOL0     C47547   3.699   8.947   2.289 -0.1702 -0.4492 -0.6445
  361MOL0     C47548   3.656   8.968   2.162  0.4429  0.5303 -0.4313
  361MOL0     C47549   3.522   9.030   2.129 -0.2013 -0.3297  0.7355
  361MOL0     O47550   3.451   9.079   2.230 -0.0717  0.1517 -0.3817
  361MOL0     C47551   3.329   9.138   2.204  0.1061 -0.4219  0.1464
  361MOL0     C47552   3.213   9.106   2.276 -0.1115 -0.5756 -0.1980
  361MOL0     C47553   3.088   9.177   2.267 -0.5019  0.4634 -0.6013
  361MOL0     C47554   3.076   9.275   2.173  0.3345  0.9747 -0.6099
  361MOL0     O47555   2.954   9.338   2.152  0.0189  0.6995  0.1616
  361MOL0     C47556   2.833   9.267   2.187 -1.1319 -1.2118 -1.0425
  361MOL0     C47557   2.714   9.344   2.133  0.1847 -0.2837 -0.5329
  361MOL0     C47558   2.686   9.318   1.984 -0.5681  0.2440  0.0648
  361MOL0     C47559   2.560   9.387   1.937  0.4340 -0.2454 -0.4533
  361MOL0     C47560   2.537   9.376   1.786  0.2116 -0.0220 -0.0201
  361MOL0     C47561   2.468   9.244   1.746 -0.1893  0.1607  0.7236
  361MOL0     C47562   2.456   9.249   1.596  1.1235  0.8794  0.6149
  361MOL0     C47563   2.414   9.127   1.507 -0.0515  0.3505  0.4995
  361MOL0    Cl47564   2.242   9.085   1.528 -0.1197  0.1087  0.2987
  361MOL0     C47565   3.193   9.309   2.092 -0.5120 -0.1835 -0.4244
  361MOL0     C47566   3.314   9.247   2.115  1.0210 -0.2775 -0.0250
  361MOL0     O47567   3.494   9.025   2.011 -0.2684 -0.5199  0.0387
  361MOL0     C47568   3.748   8.944   2.061 -0.4809 -0.3382 -0.6119
  361MOL0     C47569   3.873   8.886   2.094  0.1155  0.8571  0.2388
  361MOL0     N47570   4.555   8.656   2.391 -0.5121 -0.1903  0.1626
  361MOL0     N47571   4.663   8.612   2.348 -0.8653  0.4030  0.4348
  361MOL0     C47572   5.776   8.583   2.042  0.1976 -0.1704  0.0720
  361MOL0     C47573   5.888   8.512   2.080 -0.0332  0.1554  0.3297
  361MOL0     C47574   6.132   8.183   2.292 -0.8537 -0.4842 -0.3006
  361MOL0     C47575   6.143   8.073   2.377  0.2165 -0.5930 -0.1233
  361MOL0     C47576   6.266   8.036   2.424  0.1310 -1.1309 -0.0935
  361MOL0     C47577   6.389   8.096   2.370 -0.9678 -0.6299 -0.4520
  361MOL0     O47578   6.514   8.048   2.397 -0.2619 -0.1749  0.0984
  361MOL0     C47579   6.533   7.984   2.526 -0.3378  0.4704  0.2422
  361MOL0     C47580   6.689   7.943   2.534  0.3115  0.0627  0.5614
  361MOL0     C47581   6.781   8.065   2.546 -0.1579  0.4445 -0.4851
  361MOL0     C47582   6.925   8.047   2.607 -1.2715 -0.2705  0.2532
  361MOL0     C47583   6.985   7.962   2.509 -0.7615  1.6557  0.1675
  361MOL0     C47584   7.010   7.885   2.421 -0.3389 -0.0982 -0.3341
  361MOL0     C47585   6.376   8.200   2.282 -0.0515  0.0723  1.6271
  361MOL0     C47586   6.249   8.244   2.241  0.8536 -0.5654 -0.8802
  361MOL0     H47587   5.737   8.208   2.104  2.2788  0.1411  2.4246
  361MOL0     H47588   5.536   8.340   2.028  0.9241 -0.4349  0.6255
  361MOL0     H47589   5.630   8.684   1.805 -0.5576 -0.0145  0.1490
  361MOL0     H47590   5.584   8.787   1.952 -2.4348  1.2049  0.0326
  361MOL0     H47591   5.374   8.626   1.796 -4.1713  2.0465 -0.8387
  361MOL0     H47592   5.400   8.794   1.750 -2.4210  0.8841  0.8476
  361MOL0     H47593   5.335   8.827   2.008  1.1476 -1.2062  0.8754
  361MOL0     H47594   5.298   8.664   2.012  3.7881  1.0125  2.6344
  361MOL0     H47595   5.145   8.876   1.839  1.3800 -0.3329 -3.0631
  361MOL0     H47596   5.149   8.711   1.786 -2.1558  0.3632 -0.4239
  361MOL0     H47597   5.065   8.631   2.005  2.5576  0.1095 -0.5188
  361MOL0     H47598   4.954   8.728   1.918 -0.5400  2.5369  0.3361
  361MOL0     H47599   5.061   8.923   2.074 -0.1153  0.6846  2.3514
  361MOL0     H47600   5.089   8.793   2.181 -3.2029  0.9425  3.8352
  361MOL0     H47601   4.882   8.913   2.226  2.2658  0.4509 -0.7352
  361MOL0     H47602   4.822   8.861   2.068  0.7506  1.0988 -0.0441
  361MOL0     H47603   4.927   8.684   2.294 -0.4031  3.3927  0.9998
  361MOL0     H47604   4.842   8.618   2.146 -1.6323 -0.9595  1.7793
  361MOL0     H47605   4.684   8.929   2.276 -1.3858 -0.3966  0.3311
  361MOL0     H47606   4.475   8.965   2.479  0.3024 -1.0192  2.9309
  361MOL0     H47607   4.401   8.820   2.533  0.5613  0.5994 -0.1080
  361MOL0     H47608   4.329   8.971   2.274 -0.6780 -1.6333 -1.6001
  361MOL0     H47609   4.233   8.909   2.417 -1.0398  2.4774 -0.6816
  361MOL0     H47610   4.344   8.722   2.188 -1.2247  0.8270 -0.5859
  361MOL0     H47611   4.255   8.675   2.329 -0.9370 -1.0774 -0.8348
  361MOL0     H47612   4.134   8.684   2.120 -0.6183  0.5467 -0.5625
  361MOL0     H47613   4.162   8.856   2.100  0.6709 -0.6417 -1.5674
  361MOL0     H47614   3.853   8.867   2.425  0.5250 -1.5627 -0.3017
  361MOL0     H47615   3.633   8.953   2.375 -0.2393 -1.5832 -0.6048
  361MOL0     H47616   3.213   9.026   2.350 -2.4322  0.1070  0.6249
  361MOL0     H47617   3.010   9.146   2.335  0.9451  0.3099  1.0464
  361MOL0     H47618   2.822   9.274   2.296  0.6526 -3.0385 -0.6752
  361MOL0     H47619   2.826   9.165   2.147 -2.1256 -1.0536 -1.2952
  361MOL0     H47620   2.734   9.448   2.161  0.2355 -0.5614  0.5110
  361MOL0     H47621   2.630   9.303   2.189  0.0585  2.0390  1.1475
  361MOL0     H47622   2.667   9.211   1.971 -1.3622  0.0169  2.5347
  361MOL0     H47623   2.768   9.358   1.923  1.1908 -0.5235  1.8123
  361MOL0     H47624   2.481   9.337   1.993  1.0542  0.7224  1.4016
  361MOL0     H47625   2.567   9.493   1.966 -1.4925 -0.2577  0.2388
  361MOL0     H47626   2.634   9.374   1.737  1.1659  0.1773  1.7739
  361MOL0     H47627   2.475   9.457   1.746  1.2725  1.1055  0.5701
  361MOL0     H47628   2.365   9.237   1.781 -0.6752 -0.5082 -0.7523
  361MOL0     H47629   2.528   9.159   1.782  2.4637  1.7054  0.2535
  361MOL0     H47630   2.370   9.312   1.573 -1.7400 -2.3179  1.7763
  361MOL0     H47631   2.544   9.292   1.546 -1.5920  0.1671 -5.8398
  361MOL0     H47632   2.468   9.036   1.535 -0.4958 -0.8530 -2.3151
  361MOL0     H47633   2.432   9.149   1.402 -0.4858  1.2925  0.6045
  361MOL0     H47634   3.202   9.394   2.025  0.1275  1.1746  1.3056
  361MOL0     H47635   3.397   9.288   2.058  0.8182  0.8820  0.4893
  361MOL0     H47636   3.727   8.961   1.956  0.6936  0.9274 -0.6727
  361MOL0     H47637   3.936   8.854   2.011 -0.2220 -0.6152  0.5196
  361MOL0     H47638   5.775   8.691   2.044 -2.6959 -0.1101  2.5752
  361MOL0     H47639   5.978   8.569   2.100  0.4422 -0.2937 -0.4769
  361MOL0     H47640   6.057   8.025   2.422 -0.1462 -1.3733 -1.5909
  361MOL0     H47641   6.263   7.957   2.499  0.3477  0.7089  1.9375
  361MOL0     H47642   6.474   7.892   2.526  0.1891  0.1224 -0.0381
  361MOL0     H47643   6.502   8.050   2.608  0.2791  2.4587 -1.0477
  361MOL0     H47644   6.700   7.886   2.627  1.4179 -3.2523 -1.4010
  361MOL0     H47645   6.715   7.882   2.447 -0.6912 -2.0652  1.6576
  361MOL0     H47646   6.720   8.128   2.611 -1.6825 -1.4332  0.0144
  361MOL0     H47647   6.783   8.115   2.449 -0.6996 -2.5129 -2.1545
  361MOL0     H47648   6.971   8.144   2.622  1.6582 -1.6869  1.0810
  361MOL0     H47649   6.923   7.993   2.702  0.3489  0.6501  0.8376
  361MOL0     H47650   7.045   7.819   2.345 -0.2672 -0.2491 -0.1699
  361MOL0     H47651   6.470   8.245   2.251 -0.7712  2.0626  2.1676
  361MOL0     H47652   6.248   8.332   2.178  0.3427 -0.5685 -0.8836
  362MOL0     O47653   6.458   3.517   5.623  0.0008 -0.6887  0.8198
  362MOL0     C47654   6.517   3.553   5.732 -0.5175  0.2334  0.8216
  362MOL0     O47655   6.456   3.552   5.854  0.2894 -0.0213  0.1649
  362MOL0     C47656   6.334   3.499   5.846 -0.0668  0.0134 -0.3690
  362MOL0     C47657   6.220   3.573   5.818  0.2300 -0.5919 -0.3418
  362MOL0     C47658   6.095   3.509   5.802 -0.3263 -0.1885  0.2156
  362MOL0     C47659   6.081   3.372   5.822 -0.4690 -0.3952 -0.1117
  362MOL0     O47660   5.963   3.305   5.811 -0.6087  0.5276 -0.4965
  362MOL0     C47661   5.834   3.366   5.812  0.2926  0.5628 -0.3045
  362MOL0     C47662   5.807   3.444   5.941  0.5013  0.1365  0.1004
  362MOL0     C47663   5.669   3.519   5.933  0.2926  0.2953 -0.1941
  362MOL0     C47664   5.561   3.426   5.974 -0.0099 -0.0019  0.2293
  362MOL0     C47665   5.422   3.490   5.986  0.2219 -0.4978 -0.0501
  362MOL0     C47666   5.321   3.401   6.056 -0.9292  0.4016  0.1859
  362MOL0     C47667   5.174   3.450   6.063 -0.4190  0.1832 -0.3324
  362MOL0     C47668   5.111   3.483   5.927 -0.7033 -0.1943  0.2936
  362MOL0     N47669   4.973   3.523   5.957 -0.0709 -0.2234  0.1793
  362MOL0     C47670   4.936   3.620   6.044 -0.4627  0.6231  0.0011
  362MOL0     C47671   4.808   3.598   6.067  0.0095  0.0340 -0.6638
  362MOL0     C47672   4.728   3.689   6.158  0.0784  0.5610 -0.5202
  362MOL0     C47673   4.635   3.779   6.075  0.8928 -0.5826  0.9499
  362MOL0     C47674   4.558   3.864   6.171  0.3705  0.4861 -0.2143
  362MOL0     C47675   4.430   3.921   6.120 -0.3282  0.0425  0.6483
  362MOL0     O47676   4.345   3.819   6.061  0.2218  0.1952 -0.3650
  362MOL0     C47677   4.215   3.845   6.013  0.0948  0.4966 -1.1478
  362MOL0     C47678   4.150   3.733   5.948 -0.4496 -0.4877  0.7982
  362MOL0     C47679   4.017   3.741   5.906 -0.7231  0.3458 -0.4719
  362MOL0     C47680   3.943   3.862   5.915 -0.9825  0.3376 -0.2097
  362MOL0     C47681   3.808   3.867   5.876  0.4057  0.3965 -0.0410
  362MOL0     O47682   3.745   3.995   5.854 -0.4041  0.4221  0.2962
  362MOL0     C47683   3.629   4.017   5.797 -0.0890  1.6274  0.2677
  362MOL0     C47684   3.587   4.149   5.778  0.6082 -0.2159 -0.3611
  362MOL0     C47685   3.471   4.188   5.707  0.7076  0.3427 -0.0286
  362MOL0     C47686   3.391   4.086   5.642  0.6930  0.0052  0.4299
  362MOL0     O47687   3.280   4.110   5.566  0.5346 -0.4300 -0.7265
  362MOL0     C47688   3.156   4.112   5.649  0.1352  0.2496 -0.4141
  362MOL0     C47689   3.025   4.107   5.566  0.2511  0.1174 -0.3721
  362MOL0     C47690   2.898   4.147   5.651 -0.7713 -0.1394  0.6939
  362MOL0     C47691   2.764   4.083   5.609 -0.6883  0.0400 -0.2085
  362MOL0     C47692   2.655   4.117   5.714  0.0569 -1.0697 -0.4225
  362MOL0     C47693   2.512   4.085   5.668 -0.5308 -0.3161 -0.4418
  362MOL0     C47694   2.403   4.096   5.780  0.0766  0.4030 -0.4182
  362MOL0     C47695   2.258   4.074   5.715 -0.2549  0.7507 -0.5173
  362MOL0    Cl47696   2.237   4.222   5.623 -0.2911 -0.3261 -0.1992
  362MOL0     C47697   3.427   3.955   5.667  0.1885 -0.6833  0.3177
  362MOL0     C47698   3.552   3.922   5.724 -0.4200  1.0570  1.3432
  362MOL0     O47699   3.749   3.760   5.863 -0.5612 -1.2892  0.1977
  362MOL0     C47700   4.026   3.977   5.956  0.3275  0.3064  0.1986
  362MOL0     C47701   4.152   3.971   6.018 -0.4451  0.1058  0.3533
  362MOL0     N47702   4.761   3.493   5.983 -0.5568 -0.4688  0.4667
  362MOL0     N47703   4.862   3.454   5.913 -0.2728 -0.4624 -1.0104
  362MOL0     C47704   6.202   3.300   5.847 -0.4303 -0.1093  0.2592
  362MOL0     C47705   6.329   3.360   5.854  0.3173 -0.6031 -0.4495
  362MOL0     C47706   6.657   3.596   5.726 -0.9186 -0.6062  0.0512
  362MOL0     C47707   6.728   3.594   5.605  0.9958  0.7020 -0.3389
  362MOL0     C47708   6.861   3.636   5.596 -0.7113  0.1394  0.2113
  362MOL0     C47709   6.930   3.686   5.707  0.7791  0.9378 -0.6163
  362MOL0     O47710   7.060   3.735   5.704  0.1084 -0.3524  0.7904
  362MOL0     C47711   7.139   3.736   5.589 -0.1063  0.2707  0.2903
  362MOL0     C47712   7.103   3.874   5.516 -0.1653 -0.3872  0.1339
  362MOL0     C47713   7.197   3.909   5.394 -0.4203  0.1931 -0.0881
  362MOL0     C47714   7.163   3.824   5.270 -0.7037 -0.0514  0.1926
  362MOL0     C47715   7.255   3.878   5.166  0.4614 -0.3534 -0.6559
  362MOL0     C47716   7.323   3.920   5.081 -0.4963 -0.3975  0.0312
  362MOL0     C47717   6.864   3.678   5.836 -0.7533  0.0529 -0.3992
  362MOL0     C47718   6.728   3.636   5.842 -0.8124  0.0904 -0.3937
  362MOL0     H47719   6.233   3.680   5.802 -1.0770 -0.4192 -0.3521
  362MOL0     H47720   6.005   3.562   5.773 -0.2564 -0.4729 -0.5465
  362MOL0     H47721   5.759   3.287   5.802 -1.8772  1.9577  2.9539
  362MOL0     H47722   5.831   3.424   5.720  1.5572  0.9542 -0.1135
  362MOL0     H47723   5.885   3.519   5.956  0.1642  0.5079  0.0064
  362MOL0     H47724   5.805   3.375   6.026  0.2888 -1.3075 -1.0196
  362MOL0     H47725   5.639   3.540   5.829  0.1363  0.1265 -0.1837
  362MOL0     H47726   5.669   3.604   6.002 -1.8497 -2.3867  3.4680
  362MOL0     H47727   5.557   3.336   5.912 -1.3668  0.8237 -0.9372
  362MOL0     H47728   5.591   3.380   6.069 -0.3773 -3.3974 -1.1667
  362MOL0     H47729   5.375   3.509   5.889 -0.8615 -5.0891 -0.6732
  362MOL0     H47730   5.439   3.584   6.038  1.4046 -1.4919  1.4377
  362MOL0     H47731   5.345   3.383   6.162 -2.3569 -1.0845  0.2942
  362MOL0     H47732   5.313   3.307   6.001  0.7604 -0.2454  0.9494
  362MOL0     H47733   5.119   3.372   6.116 -1.3602  1.4115  0.5790
  362MOL0     H47734   5.158   3.531   6.136 -1.6561 -0.3371 -0.0027
  362MOL0     H47735   5.113   3.391   5.867 -0.9890 -0.2414  0.3514
  362MOL0     H47736   5.164   3.561   5.873 -0.2862  0.5579  1.7420
  362MOL0     H47737   4.996   3.700   6.087 -0.7114  2.6386 -3.1236
  362MOL0     H47738   4.796   3.750   6.218 -1.0377  1.0823  0.2463
  362MOL0     H47739   4.673   3.632   6.233  0.9114 -0.7296 -0.8552
  362MOL0     H47740   4.576   3.715   6.008  0.3220  2.3969 -1.6351
  362MOL0     H47741   4.700   3.845   6.017  0.5705 -0.9249  0.1803
  362MOL0     H47742   4.524   3.799   6.252 -1.1707  0.3739 -0.9110
  362MOL0     H47743   4.624   3.940   6.213  3.1094 -2.8092  2.0426
  362MOL0     H47744   4.464   3.983   6.037  0.3985 -3.7651 -2.1655
  362MOL0     H47745   4.376   3.981   6.194 -1.6199  2.0918 -1.8362
  362MOL0     H47746   4.199   3.637   5.936  2.0636  0.7773  0.1656
  362MOL0     H47747   3.978   3.655   5.852  1.6230 -1.6868  0.8781
  362MOL0     H47748   3.653   4.224   5.820 -2.3360  1.7509  1.0706
  362MOL0     H47749   3.445   4.292   5.689  0.1958  0.2178 -0.0080
  362MOL0     H47750   3.162   4.203   5.709  2.8367  0.4542 -0.8460
  362MOL0     H47751   3.161   4.023   5.712 -1.2218 -0.6235 -1.4851
  362MOL0     H47752   3.024   4.008   5.519  0.5827  0.1796 -0.5162
  362MOL0     H47753   3.032   4.183   5.488 -0.6865  1.1983  0.5621
  362MOL0     H47754   2.895   4.256   5.640  2.5810 -0.0012  0.1738
  362MOL0     H47755   2.925   4.119   5.754  1.7798  0.6817  0.3147
  362MOL0     H47756   2.747   4.122   5.508 -0.3427 -2.9819 -1.5317
  362MOL0     H47757   2.778   3.976   5.596 -1.0772  0.1512 -1.6795
  362MOL0     H47758   2.665   4.225   5.730  1.9061 -0.9897 -1.7565
  362MOL0     H47759   2.681   4.062   5.805  2.2589 -4.8450 -3.0511
  362MOL0     H47760   2.504   3.985   5.625 -2.3876 -1.0635  1.4395
  362MOL0     H47761   2.493   4.159   5.590 -0.1682 -2.5202 -2.7426
  362MOL0     H47762   2.433   4.019   5.852  1.2318 -0.5140 -1.8145
  362MOL0     H47763   2.392   4.188   5.838 -0.6419  1.4522 -2.1199
  362MOL0     H47764   2.178   4.053   5.787  1.5130 -0.0559  1.2995
  362MOL0     H47765   2.267   3.984   5.654  0.2399  0.6928 -0.3665
  362MOL0     H47766   3.368   3.877   5.620 -0.9530  1.7670 -2.6410
  362MOL0     H47767   3.576   3.816   5.724 -1.9836  0.5724 -1.9330
  362MOL0     H47768   3.981   4.076   5.953 -0.6592 -0.0146  2.6707
  362MOL0     H47769   4.205   4.058   6.055  1.0932 -0.9057  0.6335
  362MOL0     H47770   6.191   3.193   5.855 -0.6409 -0.0688  0.5231
  362MOL0     H47771   6.410   3.296   5.887  0.3853  0.3296  1.3748
  362MOL0     H47772   6.680   3.562   5.513 -1.5143  0.0476  1.1346
  362MOL0     H47773   6.916   3.625   5.503 -0.2756 -1.0173  0.5918
  362MOL0     H47774   7.128   3.647   5.527  0.3638 -0.7300  1.6168
  362MOL0     H47775   7.247   3.726   5.599  0.3796  1.4309 -2.7218
  362MOL0     H47776   6.996   3.873   5.492  0.1281  1.7079 -1.5095
  362MOL0     H47777   7.111   3.952   5.592  0.4924 -1.8811  1.6776
  362MOL0     H47778   7.304   3.902   5.416 -0.4730  0.3188  0.2090
  362MOL0     H47779   7.186   4.016   5.371  0.5022 -0.2228 -2.8958
  362MOL0     H47780   7.182   3.722   5.303  0.3267  0.1759  0.3467
  362MOL0     H47781   7.061   3.827   5.232 -1.1625 -4.2615  0.7126
  362MOL0     H47782   7.389   3.954   5.003 -0.6689 -2.7693 -1.2163
  362MOL0     H47783   6.923   3.711   5.921 -1.0038  0.0986 -0.2420
  362MOL0     H47784   6.683   3.626   5.940 -0.8953  1.5336 -0.2666
  363MOL0     O47785   5.317   7.751   3.287 -0.5299  0.0087 -0.3333
  363MOL0     C47786   5.335   7.818   3.388  0.4080 -0.9557  0.4118
  363MOL0     O47787   5.247   7.914   3.432 -0.2528  0.5255  0.2417
  363MOL0     C47788   5.130   7.923   3.363  0.1143 -0.6892 -0.5070
  363MOL0     C47789   5.099   8.045   3.314 -0.3970 -0.5146 -0.3039
  363MOL0     C47790   4.983   8.062   3.236 -0.0383 -0.9384 -0.0587
  363MOL0     C47791   4.884   7.955   3.235 -1.6172 -0.2695  0.7739
  363MOL0     O47792   4.766   7.958   3.172  0.8577  0.7790 -0.0961
  363MOL0     C47793   4.720   8.071   3.096  0.3705 -0.0229  0.1616
  363MOL0     C47794   4.604   8.028   3.018 -0.3113  0.0241  0.1985
  363MOL0     C47795   4.557   8.115   2.904  0.7568  0.1802 -0.1211
  363MOL0     C47796   4.664   8.142   2.800  0.7785 -0.6316  0.7608
  363MOL0     C47797   4.620   8.236   2.681  0.5328  0.9499 -0.5110
  363MOL0     C47798   4.491   8.191   2.611 -0.3258 -0.0596  0.0009
  363MOL0     C47799   4.445   8.290   2.497  0.3096  0.5125 -0.2951
  363MOL0     C47800   4.529   8.293   2.370 -0.5642  1.4070 -0.3334
  363MOL0     N47801   4.513   8.167   2.305  0.8616  0.8366  0.8964
  363MOL0     C47802   4.473   8.141   2.177 -0.4156  0.2929 -0.2808
  363MOL0     C47803   4.479   8.007   2.161  0.3973  0.6463  0.5875
  363MOL0     C47804   4.444   7.950   2.028 -0.3267  0.3908  0.9213
  363MOL0     C47805   4.290   7.933   2.025 -0.1610  0.2568  0.8382
  363MOL0     C47806   4.247   7.846   1.897 -0.3929 -0.2388 -0.1420
  363MOL0     C47807   4.107   7.802   1.882  0.2235 -0.5268  0.0113
  363MOL0     O47808   4.029   7.915   1.825  0.1382 -0.1807 -0.1907
  363MOL0     C47809   3.895   7.895   1.799 -0.2795 -0.3459  0.4379
  363MOL0     C47810   3.824   7.997   1.742  0.0333 -0.0762 -0.2629
  363MOL0     C47811   3.694   7.990   1.720 -0.1302 -0.0350  0.3460
  363MOL0     C47812   3.624   7.869   1.740 -0.4615 -0.1028 -0.1822
  363MOL0     C47813   3.482   7.861   1.707  0.3008  1.0971  0.2443
  363MOL0     O47814   3.422   7.756   1.763 -0.7546 -0.1691 -0.1842
  363MOL0     C47815   3.289   7.738   1.742 -0.4238  0.4307  1.2815
  363MOL0     C47816   3.236   7.713   1.616  1.1367  0.3751 -0.7484
  363MOL0     C47817   3.098   7.732   1.598  0.7481  0.3618  0.3266
  363MOL0     C47818   3.009   7.747   1.703 -0.7291 -0.8023  0.4810
  363MOL0     O47819   2.876   7.734   1.692 -0.4612  0.1225  0.3156
  363MOL0     C47820   2.806   7.759   1.568 -0.9820  0.3952 -1.5349
  363MOL0     C47821   2.791   7.619   1.494  0.3042  0.5309  0.0392
  363MOL0     C47822   2.752   7.649   1.347 -0.1475  0.4080  0.5107
  363MOL0     C47823   2.687   7.528   1.268  0.3141  0.2302  0.0381
  363MOL0     C47824   2.688   7.542   1.118  0.0130  0.0148  0.0837
  363MOL0     C47825   2.609   7.426   1.056  0.1026  0.3184  0.2318
  363MOL0     C47826   2.580   7.422   0.904 -1.0841 -0.2195  0.9768
  363MOL0     C47827   2.535   7.562   0.851 -0.4641  0.0631  0.2460
  363MOL0    Cl47828   2.452   7.535   0.683 -0.0752  0.5322  0.1160
  363MOL0     C47829   3.062   7.764   1.832 -0.2827  0.5291 -0.4308
  363MOL0     C47830   3.207   7.764   1.840  0.3763  0.6095 -0.3108
  363MOL0     O47831   3.430   7.938   1.629 -0.3798  0.1790  0.3253
  363MOL0     C47832   3.696   7.757   1.792  0.0576 -0.7557 -0.7890
  363MOL0     C47833   3.833   7.774   1.819 -0.1219 -1.0111 -0.7056
  363MOL0     N47834   4.516   7.944   2.280  0.1871 -0.0536 -0.4001
  363MOL0     N47835   4.549   8.042   2.356  0.0058 -0.5803 -0.1679
  363MOL0     C47836   4.916   7.832   3.296 -1.3001 -0.1149  0.3187
  363MOL0     C47837   5.042   7.823   3.362  0.4920 -0.2590 -0.3487
  363MOL0     C47838   5.461   7.784   3.457 -0.3626 -0.3628 -0.5104
  363MOL0     C47839   5.481   7.825   3.595  0.3209  0.3853 -0.9415
  363MOL0     C47840   5.592   7.775   3.670 -0.3755  0.0440 -0.1873
  363MOL0     C47841   5.687   7.686   3.612  0.1058 -0.6519 -0.8467
  363MOL0     O47842   5.788   7.642   3.692 -0.0484 -1.1103 -1.0092
  363MOL0     C47843   5.912   7.625   3.631  0.1866 -0.4571  0.2172
  363MOL0     C47844   6.019   7.632   3.740 -0.5434 -0.2460  0.2742
  363MOL0     C47845   6.161   7.601   3.685  1.2334 -0.2791  0.1083
  363MOL0     C47846   6.273   7.699   3.710 -0.8554 -0.9273  0.4275
  363MOL0     C47847   6.395   7.650   3.638 -0.3182 -0.0788 -0.0879
  363MOL0     C47848   6.478   7.580   3.583  0.4731 -0.2745 -0.3063
  363MOL0     C47849   5.677   7.657   3.473  0.1863 -0.0175 -0.6624
  363MOL0     C47850   5.565   7.706   3.405  0.1150  0.5178 -0.2426
  363MOL0     H47851   5.168   8.129   3.320  0.4848 -1.2925  1.1798
  363MOL0     H47852   4.964   8.159   3.190  5.1273 -0.3165 -1.4479
  363MOL0     H47853   4.803   8.100   3.032 -1.4681  4.3332 -0.5727
  363MOL0     H47854   4.686   8.157   3.155 -0.9359 -1.4701  1.6329
  363MOL0     H47855   4.516   8.006   3.079 -0.0075 -2.6910 -0.2241
  363MOL0     H47856   4.633   7.934   2.971 -2.1955  0.7515 -2.7211
  363MOL0     H47857   4.512   8.200   2.957 -3.7862 -1.7950 -0.4111
  363MOL0     H47858   4.474   8.068   2.851  1.4583  0.4192 -1.4645
  363MOL0     H47859   4.751   8.191   2.846  0.4233  0.1200  0.6495
  363MOL0     H47860   4.698   8.051   2.750  0.7322 -0.6003  0.6728
  363MOL0     H47861   4.706   8.227   2.614 -0.7012 -0.4315 -1.9870
  363MOL0     H47862   4.606   8.339   2.716 -1.2487  0.4007  0.5058
  363MOL0     H47863   4.408   8.194   2.682  0.4861  0.0449  0.9722
  363MOL0     H47864   4.504   8.088   2.576  1.8863 -0.5592  1.9962
  363MOL0     H47865   4.338   8.276   2.479  0.0048  1.0388  0.9949
  363MOL0     H47866   4.448   8.386   2.548 -0.8305  0.3629  0.1002
  363MOL0     H47867   4.636   8.314   2.377 -0.0009 -1.5399  1.4120
  363MOL0     H47868   4.476   8.354   2.296  1.3385  0.8747 -2.2589
  363MOL0     H47869   4.437   8.218   2.110 -0.5814  1.1432  0.7708
  363MOL0     H47870   4.498   7.856   2.014 -1.2839 -0.3167  1.8465
  363MOL0     H47871   4.473   8.009   1.940  0.5659 -4.3244 -2.3705
  363MOL0     H47872   4.240   8.030   2.034 -0.4916 -0.0736  3.6974
  363MOL0     H47873   4.244   7.891   2.115  0.5140  2.4325  2.2703
  363MOL0     H47874   4.282   7.890   1.803 -2.1336  0.9607 -0.2731
  363MOL0     H47875   4.299   7.752   1.915 -0.1442 -0.2926 -1.1279
  363MOL0     H47876   4.073   7.764   1.978  0.6479  0.0255  0.3869
  363MOL0     H47877   4.104   7.712   1.820  2.0845 -0.3329 -0.4288
  363MOL0     H47878   3.883   8.086   1.722  0.0630 -0.0085  0.1104
  363MOL0     H47879   3.645   8.079   1.683 -0.9641 -0.8719 -0.6359
  363MOL0     H47880   3.294   7.715   1.524  1.3837  0.4801 -0.5929
  363MOL0     H47881   3.075   7.720   1.492  2.1482 -0.7906  0.1192
  363MOL0     H47882   2.855   7.840   1.513 -1.2934  0.5086 -1.6496
  363MOL0     H47883   2.708   7.797   1.598 -0.6880  0.7276 -0.9819
  363MOL0     H47884   2.731   7.554   1.557  0.8650  2.3973  2.6586
  363MOL0     H47885   2.884   7.561   1.498 -1.2580 -2.2603 -1.4391
  363MOL0     H47886   2.841   7.677   1.290 -1.9446  0.0704 -2.7162
  363MOL0     H47887   2.677   7.728   1.337  0.7181  1.4099  1.7530
  363MOL0     H47888   2.739   7.433   1.284  0.7926  0.4175 -0.3505
  363MOL0     H47889   2.586   7.515   1.307  1.4047 -0.2034  2.9915
  363MOL0     H47890   2.793   7.548   1.086  0.2599 -1.1993  0.5657
  363MOL0     H47891   2.635   7.631   1.085  1.4319  1.0338  0.4261
  363MOL0     H47892   2.509   7.431   1.101  1.2755 -1.1523  3.2732
  363MOL0     H47893   2.663   7.334   1.081  0.0519  0.6033  1.4230
  363MOL0     H47894   2.666   7.388   0.844 -0.3862  0.0863  1.7765
  363MOL0     H47895   2.498   7.351   0.891 -1.6451  0.5752  0.0679
  363MOL0     H47896   2.624   7.626   0.853  0.6757 -1.4809  1.2847
  363MOL0     H47897   2.457   7.599   0.918  1.1345 -0.7362  2.6896
  363MOL0     H47898   2.996   7.788   1.914  0.5269  1.3813 -0.0146
  363MOL0     H47899   3.258   7.776   1.935 -2.5712  1.2058  1.3296
  363MOL0     H47900   3.635   7.674   1.827 -0.3987  0.3508  1.1741
  363MOL0     H47901   3.878   7.699   1.883 -3.3772  0.2113  3.4996
  363MOL0     H47902   4.845   7.750   3.296 -0.5318 -0.8535 -1.5055
  363MOL0     H47903   5.071   7.728   3.406  1.4292 -0.4797 -1.3787
  363MOL0     H47904   5.400   7.872   3.650 -1.7810  0.0036 -3.4751
  363MOL0     H47905   5.609   7.807   3.772  1.2080  1.3930 -0.8348
  363MOL0     H47906   5.931   7.700   3.554  0.8524 -0.7260  0.1114
  363MOL0     H47907   5.918   7.523   3.591  2.4954 -0.6744  0.9552
  363MOL0     H47908   6.021   7.735   3.776  2.9263 -0.1593  0.1469
  363MOL0     H47909   5.995   7.560   3.819 -0.3421  0.3742  0.9049
  363MOL0     H47910   6.148   7.579   3.579 -3.9889 -0.1755  0.4625
  363MOL0     H47911   6.197   7.506   3.725  2.5744  0.2578  0.2346
  363MOL0     H47912   6.245   7.799   3.674  2.6304  0.8529  2.0979
  363MOL0     H47913   6.280   7.712   3.819 -0.3719 -0.5592  0.3605
  363MOL0     H47914   6.565   7.530   3.545  0.9842 -1.1851  1.8979
  363MOL0     H47915   5.753   7.592   3.432  0.8764  0.9176 -0.8962
  363MOL0     H47916   5.557   7.672   3.303 -1.5933 -3.8776  1.1329
  364MOL0     O47917  10.490   1.564   9.986  0.2680  0.5085  0.1981
  364MOL0     C47918  10.510   1.443   9.959  0.1943 -0.5150 -0.9187
  364MOL0     O47919  10.642   1.392   9.933  0.4214 -0.0860  0.2663
  364MOL0     C47920  10.745   1.476   9.929  0.7086  0.5555  0.8631
  364MOL0     C47921  10.839   1.464  10.026 -0.4103  0.0112 -0.3276
  364MOL0     C47922  10.941   1.552  10.029 -0.4555  0.4475 -0.0217
  364MOL0     C47923  10.963   1.655   9.938  0.8576  0.1924 -0.0219
  364MOL0     O47924  11.087   1.718   9.938  0.6802  0.2933  0.5264
  364MOL0     C47925  11.106   1.841   9.853  0.0421  0.1284  0.0406
  364MOL0     C47926  11.244   1.910   9.850  0.2194  0.3334  0.5742
  364MOL0     C47927  11.305   1.916   9.996 -0.0989  0.4642 -0.6794
  364MOL0     C47928  11.454   1.963   9.979  0.3859  0.5640  0.4051
  364MOL0     C47929  11.543   1.961  10.109  0.3923  0.9583  0.3575
  364MOL0     C47930  11.536   1.834  10.198  0.5642  0.5373  0.2341
  364MOL0     C47931  11.441   1.842  10.311 -0.8932  0.4083 -0.7914
  364MOL0     C47932  11.436   1.711  10.398  0.7979 -0.3899 -0.0172
  364MOL0     N47933  11.332   1.616  10.348 -0.4435 -0.1229 -0.9026
  364MOL0     C47934  11.333   1.525  10.246  0.8787 -0.4094  0.1664
  364MOL0     C47935  11.237   1.436  10.285 -0.4357 -0.1605  0.4004
  364MOL0     C47936  11.211   1.317  10.200  0.0254 -0.1521 -0.1233
  364MOL0     C47937  11.084   1.243  10.244  0.5598 -0.0005 -0.1442
  364MOL0     C47938  11.042   1.132  10.154 -1.7568 -0.1975 -0.1237
  364MOL0     C47939  10.920   1.058  10.194 -0.1814  0.7776  0.8257
  364MOL0     O47940  10.813   1.150  10.211 -0.1684 -0.1654  0.0347
  364MOL0     C47941  10.691   1.096  10.239 -0.3777  0.6313  0.6829
  364MOL0     C47942  10.677   0.971  10.302 -0.3105  0.1413 -0.4459
  364MOL0     C47943  10.547   0.917  10.319 -0.6793  0.4804 -0.1089
  364MOL0     C47944  10.434   0.998  10.280  0.4499 -0.7153 -0.4556
  364MOL0     C47945  10.296   0.947  10.283  0.3714 -0.7133 -0.1419
  364MOL0     O47946  10.204   1.042  10.269  0.2306  0.8996 -0.3203
  364MOL0     C47947  10.071   0.995  10.267  0.4616 -1.2240 -0.6956
  364MOL0     C47948   9.970   1.054  10.346 -0.1479  0.5088  0.4116
  364MOL0     C47949   9.837   1.000  10.321  0.5609 -0.2963 -0.7915
  364MOL0     C47950   9.809   0.884  10.243 -0.2213 -0.8453  0.8696
  364MOL0     O47951   9.695   0.817  10.221 -0.3144  0.8738 -0.5827
  364MOL0     C47952   9.626   0.867  10.106  0.6648 -0.5268 -0.1853
  364MOL0     C47953   9.478   0.835  10.140  0.5596 -0.1278 -0.2539
  364MOL0     C47954   9.379   0.845  10.020 -0.0224 -0.1569  0.0349
  364MOL0     C47955   9.233   0.828  10.065 -0.6051 -0.2200  0.7843
  364MOL0     C47956   9.138   0.871   9.955 -0.4608  0.2142  0.4922
  364MOL0     C47957   8.993   0.864  10.011 -0.6702 -0.2005 -0.1692
  364MOL0     C47958   8.890   0.939   9.924  0.4648  0.5653  0.1096
  364MOL0     C47959   8.804   0.831   9.860 -0.7381 -0.0151  0.2678
  364MOL0    Cl47960   8.666   0.898   9.769 -0.2630 -0.0573 -0.3711
  364MOL0     C47961   9.914   0.832  10.173  0.6738 -0.6045  0.3577
  364MOL0     C47962  10.035   0.889  10.186 -0.1755  0.8814 -0.6766
  364MOL0     O47963  10.278   0.824  10.299 -0.1408 -0.1759 -0.3049
  364MOL0     C47964  10.453   1.131  10.231 -0.0290  0.3566  0.4611
  364MOL0     C47965  10.582   1.175  10.212  0.0758 -0.3167 -0.4414
  364MOL0     N47966  11.166   1.473  10.397  0.0106 -0.2096 -0.5487
  364MOL0     N47967  11.225   1.580  10.435 -0.1510 -0.2647 -0.0556
  364MOL0     C47968  10.867   1.670   9.836  1.2772  0.3046 -0.3628
  364MOL0     C47969  10.754   1.576   9.827 -0.3007 -0.6119  0.1481
  364MOL0     C47970  10.397   1.353   9.934  0.3037  0.1264  0.4870
  364MOL0     C47971  10.415   1.222   9.884 -0.3637  0.3733  0.4549
  364MOL0     C47972  10.303   1.142   9.859  0.0795 -0.1932  0.7016
  364MOL0     C47973  10.173   1.183   9.878 -0.5696 -0.4745  0.1868
  364MOL0     O47974  10.080   1.093   9.848  0.0152  0.5020 -0.0601
  364MOL0     C47975   9.940   1.135   9.843  0.2759 -0.6837  0.7173
  364MOL0     C47976   9.862   1.013   9.790  0.4083  0.3741 -1.2235
  364MOL0     C47977   9.709   1.044   9.792 -0.5212 -0.0493  0.0696
  364MOL0     C47978   9.629   0.922   9.728 -0.5953  0.1889 -0.6459
  364MOL0     C47979   9.640   0.919   9.589  0.6076  0.6763  0.2836
  364MOL0     C47980   9.643   0.903   9.468  0.8157 -0.8134  0.1269
  364MOL0     C47981  10.155   1.310   9.937 -0.2778 -0.6400  0.7488
  364MOL0     C47982  10.268   1.393   9.965  0.5732  1.8449  0.0480
  364MOL0     H47983  10.827   1.383  10.098  0.6292  1.2753  1.3623
  364MOL0     H47984  11.019   1.547  10.105 -1.9976  2.8943  1.8664
  364MOL0     H47985  11.036   1.915   9.891  0.5306  0.0520  1.1118
  364MOL0     H47986  11.079   1.822   9.748  3.4557 -0.9443 -0.7843
  364MOL0     H47987  11.238   2.012   9.813 -1.2514 -0.9693 -3.3091
  364MOL0     H47988  11.298   1.845   9.781 -1.0662 -0.9129  0.6707
  364MOL0     H47989  11.303   1.815  10.037 -1.6494 -0.1023 -2.0327
  364MOL0     H47990  11.249   1.983  10.062 -1.2420  1.5207 -2.6218
  364MOL0     H47991  11.506   1.898   9.909  1.0794  3.4374 -1.9190
  364MOL0     H47992  11.459   2.061   9.931  1.2675 -0.2864 -1.3193
  364MOL0     H47993  11.504   2.048  10.162 -0.0752  1.8570 -1.3785
  364MOL0     H47994  11.647   1.987  10.086 -0.2936  3.8146  0.1130
  364MOL0     H47995  11.640   1.815  10.224  0.4559 -0.4736 -0.0244
  364MOL0     H47996  11.512   1.744  10.140 -0.0319  0.5908  0.3900
  364MOL0     H47997  11.464   1.926  10.378 -2.4072  0.7866 -0.7204
  364MOL0     H47998  11.340   1.860  10.274 -1.4319 -1.0463 -0.0956
  364MOL0     H47999  11.404   1.730  10.500 -0.9795 -1.4582 -0.3291
  364MOL0     H48000  11.537   1.672  10.411  0.0707 -2.7608 -0.9033
  364MOL0     H48001  11.400   1.520  10.161  0.6645  2.4269 -0.2761
  364MOL0     H48002  11.298   1.252  10.194  0.9556  0.7233  2.5029
  364MOL0     H48003  11.183   1.354  10.101  0.3910 -0.0822 -0.2021
  364MOL0     H48004  11.007   1.320  10.251  0.6976  0.0957  0.3299
  364MOL0     H48005  11.100   1.206  10.345  0.6275  1.7124  0.5092
  364MOL0     H48006  11.027   1.159  10.049 -2.0854 -2.4017 -0.6925
  364MOL0     H48007  11.121   1.057  10.155 -1.6226 -0.0688 -0.6451
  364MOL0     H48008  10.922   1.015  10.294 -1.0533 -0.3197  0.3895
  364MOL0     H48009  10.895   0.984  10.118  0.8011  0.2793  0.9663
  364MOL0     H48010  10.756   0.909  10.343 -0.4380 -1.1453 -2.0224
  364MOL0     H48011  10.532   0.822  10.368  1.3350  0.2734  0.2034
  364MOL0     H48012  10.000   1.142  10.401  2.6206 -1.0034  1.5272
  364MOL0     H48013   9.760   1.047  10.381  2.5292 -0.2349  1.8180
  364MOL0     H48014   9.654   0.814  10.015 -1.2945 -0.7451 -0.7168
  364MOL0     H48015   9.641   0.975  10.099  1.6554 -0.6821 -0.6834
  364MOL0     H48016   9.443   0.905  10.216  1.1467 -2.0114  1.8806
  364MOL0     H48017   9.461   0.736  10.185 -0.0122  0.2108  0.3020
  364MOL0     H48018   9.398   0.767   9.945 -4.1664 -2.6953  1.2423
  364MOL0     H48019   9.374   0.946   9.977 -2.0785 -0.7162 -1.2225
  364MOL0     H48020   9.210   0.728  10.103 -0.8268 -1.1118 -1.5129
  364MOL0     H48021   9.216   0.893  10.151 -0.7429 -0.2978  0.8168
  364MOL0     H48022   9.149   0.813   9.863 -0.4366  1.8469 -0.5891
  364MOL0     H48023   9.166   0.976   9.938  2.2830 -0.1988  1.8188
  364MOL0     H48024   8.997   0.910  10.110 -1.8855 -0.3871 -0.0275
  364MOL0     H48025   8.968   0.758  10.018  1.4428 -0.7448 -0.1125
  364MOL0     H48026   8.812   0.989   9.981 -0.4867  0.5231 -1.1325
  364MOL0     H48027   8.939   1.000   9.848  3.2298 -2.8262 -1.1263
  364MOL0     H48028   8.759   0.761   9.930 -1.6894  0.5482  0.2291
  364MOL0     H48029   8.864   0.769   9.793  2.3196  0.4032  2.4032
  364MOL0     H48030   9.910   0.743  10.112 -1.4339 -1.2367  1.3576
  364MOL0     H48031  10.108   0.838  10.124  0.2122  1.1852 -0.4691
  364MOL0     H48032  10.380   1.208  10.211  2.4905  2.8146  0.0359
  364MOL0     H48033  10.603   1.279  10.189  0.0959 -0.4109 -0.8683
  364MOL0     H48034  10.885   1.744   9.759  1.4741  1.5102  0.8266
  364MOL0     H48035  10.680   1.582   9.748 -0.7155 -0.7107  0.5266
  364MOL0     H48036  10.512   1.188   9.849 -0.7398 -0.0888 -0.1784
  364MOL0     H48037  10.327   1.049   9.809  2.5262  0.9564 -0.3847
  364MOL0     H48038   9.920   1.219   9.775  2.0679 -0.7151  0.0890
  364MOL0     H48039   9.898   1.167   9.939 -3.5721  2.6956 -1.7166
  364MOL0     H48040   9.888   1.002   9.684 -0.0591  0.7418 -1.3809
  364MOL0     H48041   9.884   0.926   9.853 -1.0032  1.9812  1.6923
  364MOL0     H48042   9.679   1.133   9.736 -2.0534  1.0357  2.4697
  364MOL0     H48043   9.679   1.056   9.896  0.8508  0.4303  0.4351
  364MOL0     H48044   9.648   0.820   9.762 -2.3246  0.7023  2.1795
  364MOL0     H48045   9.525   0.946   9.756  0.2515  3.0985  0.4013
  364MOL0     H48046   9.651   0.896   9.361 -1.3589 -2.8870  0.0017
  364MOL0     H48047  10.059   1.356   9.954  0.1733  0.7244 -0.2040
  364MOL0     H48048  10.242   1.492  10.002 -2.1472  0.7667  1.2788
  365MOL0     O48049   3.635   6.636   7.729  0.1400  0.7745 -0.3745
  365MOL0     C48050   3.735   6.626   7.660 -0.1925  0.4235 -0.3451
  365MOL0     O48051   3.869   6.625   7.694 -0.1035  0.4086 -0.1376
  365MOL0     C48052   3.900   6.684   7.818  0.1437  0.7389  0.7889
  365MOL0     C48053   3.837   6.796   7.870  0.3155  0.3439 -0.0219
  365MOL0     C48054   3.867   6.867   7.983 -0.4343  0.1965 -0.7402
  365MOL0     C48055   3.969   6.812   8.063  0.3221  0.5363 -0.3032
  365MOL0     O48056   3.996   6.878   8.179  0.6533  0.7836  0.3004
  365MOL0     C48057   4.072   6.819   8.282  0.7983  0.4584 -0.2643
  365MOL0     C48058   4.030   6.876   8.424  0.2610 -0.2723  0.2048
  365MOL0     C48059   3.892   6.815   8.446  0.2168 -0.0193  0.4144
  365MOL0     C48060   3.885   6.663   8.464  0.3846  0.9474  0.2535
  365MOL0     C48061   3.754   6.608   8.521 -0.7280 -0.5372 -0.6168
  365MOL0     C48062   3.743   6.455   8.526 -0.4608  0.5772  0.6869
  365MOL0     C48063   3.596   6.412   8.560 -0.2973  0.9196 -0.2768
  365MOL0     C48064   3.582   6.369   8.712  0.1019 -0.4683 -0.0466
  365MOL0     N48065   3.447   6.308   8.737 -0.1467 -0.2651 -0.8089
  365MOL0     C48066   3.340   6.366   8.808 -0.3898 -0.4557  0.0959
  365MOL0     C48067   3.228   6.291   8.789 -0.1140 -0.0647 -0.2181
  365MOL0     C48068   3.085   6.291   8.839  0.5465 -1.1398 -0.2920
  365MOL0     C48069   3.036   6.152   8.882 -0.6469 -0.0262  0.4676
  365MOL0     C48070   2.959   6.086   8.772 -0.3141 -0.2739 -0.1665
  365MOL0     C48071   2.935   5.939   8.807  0.6795  0.5961 -0.6309
  365MOL0     O48072   2.807   5.927   8.874  0.8315 -0.1179 -0.8234
  365MOL0     C48073   2.765   5.800   8.908  0.0559 -0.2346  0.0934
  365MOL0     C48074   2.631   5.806   8.955  0.0328 -0.4568 -0.6303
  365MOL0     C48075   2.571   5.695   9.017 -0.0427 -0.1701  0.2361
  365MOL0     C48076   2.645   5.572   9.016  0.1660  0.3535  0.3214
  365MOL0     C48077   2.582   5.450   9.080  0.8793 -0.1272  0.5802
  365MOL0     O48078   2.463   5.454   9.132  0.1984 -0.1466  0.3839
  365MOL0     C48079   2.414   5.337   9.181  0.7422 -0.6352 -0.2818
  365MOL0     C48080   2.292   5.288   9.121 -0.0810  0.8179  0.0539
  365MOL0     C48081   2.246   5.164   9.167  0.1334  0.1934  0.4503
  365MOL0     C48082   2.315   5.083   9.265  0.5310  0.0948 -0.3438
  365MOL0     O48083   2.275   4.962   9.315 -0.2222  0.2380 -0.1674
  365MOL0     C48084   2.150   4.910   9.275  0.0537  0.2202 -0.0772
  365MOL0     C48085   2.116   4.793   9.363  0.8947  0.7439 -0.1200
  365MOL0     C48086   2.014   4.700   9.286  0.7297 -0.2776  0.6699
  365MOL0     C48087   1.957   4.566   9.354  0.1721 -0.7814  0.7071
  365MOL0     C48088   1.866   4.493   9.249 -0.1872 -0.4815  0.1626
  365MOL0     C48089   1.785   4.383   9.308 -0.1098  0.7431 -0.7188
  365MOL0     C48090   1.721   4.288   9.206  0.0659  0.4679 -0.1518
  365MOL0     C48091   1.629   4.179   9.272 -0.6913 -0.5134 -0.8227
  365MOL0    Cl48092   1.520   4.120   9.152  0.1559  0.4472 -0.4712
  365MOL0     C48093   2.442   5.126   9.307 -0.7561  0.1475 -0.0681
  365MOL0     C48094   2.488   5.253   9.263  0.6234  1.0485 -1.0683
  365MOL0     O48095   2.645   5.347   9.056 -0.8947 -0.4084  0.6873
  365MOL0     C48096   2.776   5.571   8.955 -0.5169  0.2219  0.6912
  365MOL0     C48097   2.841   5.684   8.914  1.3647  0.5657  0.9992
  365MOL0     N48098   3.264   6.197   8.689 -0.0430 -0.1569 -0.2078
  365MOL0     N48099   3.390   6.215   8.663 -0.7698 -0.2322  0.6596
  365MOL0     C48100   4.040   6.696   8.014  1.1617  0.7213  0.2344
  365MOL0     C48101   4.009   6.631   7.894  0.2455 -0.7090  0.3680
  365MOL0     C48102   3.710   6.613   7.512  0.5192 -0.0682 -0.1244
  365MOL0     C48103   3.809   6.586   7.420 -0.7980 -0.3272  0.6159
  365MOL0     C48104   3.773   6.556   7.289 -0.0528  0.3842 -0.0954
  365MOL0     C48105   3.645   6.555   7.239  0.6290  0.4492  1.1752
  365MOL0     O48106   3.618   6.518   7.103 -0.7997  0.1903 -0.3278
  365MOL0     C48107   3.715   6.508   6.997  0.9201 -0.2871  0.3953
  365MOL0     C48108   3.740   6.649   6.929 -0.3345  0.6823  0.0920
  365MOL0     C48109   3.616   6.705   6.860  0.2326 -0.0977 -1.3371
  365MOL0     C48110   3.587   6.661   6.718 -0.4850 -0.4817 -0.6687
  365MOL0     C48111   3.449   6.697   6.688  0.0894 -0.6125 -0.5319
  365MOL0     C48112   3.332   6.712   6.653 -0.3107  0.0201 -0.5135
  365MOL0     C48113   3.542   6.581   7.329  0.2604  0.4720  0.3425
  365MOL0     C48114   3.573   6.610   7.464  0.1803 -0.0840  0.4963
  365MOL0     H48115   3.770   6.847   7.801  0.8299 -2.3510 -2.7061
  365MOL0     H48116   3.804   6.949   8.016  1.2883  2.0543 -1.8087
  365MOL0     H48117   4.181   6.825   8.273  0.7280 -0.0990 -1.7616
  365MOL0     H48118   4.041   6.714   8.281  1.9991 -0.0307  2.8026
  365MOL0     H48119   4.010   6.983   8.420 -0.6647 -0.4766 -1.1977
  365MOL0     H48120   4.102   6.850   8.503  0.9193 -0.7972 -0.5491
  365MOL0     H48121   3.833   6.842   8.358 -1.8341 -0.5773  1.5423
  365MOL0     H48122   3.851   6.864   8.535 -1.5882  0.2327 -0.5039
  365MOL0     H48123   3.905   6.608   8.371  1.6864 -0.3531  1.2521
  365MOL0     H48124   3.969   6.636   8.528 -0.0498 -0.0037  0.4377
  365MOL0     H48125   3.676   6.648   8.456 -0.5161  1.3432  0.2332
  365MOL0     H48126   3.745   6.644   8.624 -0.3038 -0.6862 -0.5249
  365MOL0     H48127   3.815   6.406   8.591  0.6478 -0.8325 -1.4938
  365MOL0     H48128   3.767   6.416   8.427 -3.1558  1.3999 -0.3874
  365MOL0     H48129   3.517   6.484   8.538  0.4692  2.6797  2.3096
  365MOL0     H48130   3.562   6.328   8.499  1.1283 -0.4477  0.7482
  365MOL0     H48131   3.598   6.456   8.777  0.1966  1.2749 -2.2536
  365MOL0     H48132   3.661   6.300   8.740  1.6819  1.6417  0.9454
  365MOL0     H48133   3.350   6.452   8.872 -0.8406 -2.0831  2.4642
  365MOL0     H48134   3.025   6.335   8.760 -0.4146 -1.6663  0.1159
  365MOL0     H48135   3.077   6.351   8.930 -3.7561 -1.0786 -0.5261
  365MOL0     H48136   2.965   6.154   8.965  1.3353  1.3750  2.2449
  365MOL0     H48137   3.124   6.100   8.919 -2.0882 -4.3926 -1.6009
  365MOL0     H48138   2.861   6.136   8.764 -1.4939 -2.5660 -0.8933
  365MOL0     H48139   3.007   6.092   8.674 -1.2474 -1.1921 -0.7035
  365MOL0     H48140   3.007   5.905   8.883 -0.8775 -1.9497 -0.1950
  365MOL0     H48141   2.933   5.875   8.718  1.9726 -1.2854  0.6074
  365MOL0     H48142   2.578   5.896   8.925 -0.7425 -0.6055  0.2450
  365MOL0     H48143   2.471   5.699   9.058  0.7821  1.2809  2.2810
  365MOL0     H48144   2.242   5.360   9.057 -4.3142  0.1237  2.1769
  365MOL0     H48145   2.161   5.133   9.107  0.3966 -0.0293  0.1841
  365MOL0     H48146   2.151   4.869   9.174 -2.8778  0.9072 -0.4904
  365MOL0     H48147   2.078   4.993   9.277  0.8420  0.8960  1.3549
  365MOL0     H48148   2.087   4.824   9.464  0.3895 -0.7225  0.2166
  365MOL0     H48149   2.200   4.726   9.381  0.6328  0.2320 -0.7293
  365MOL0     H48150   2.063   4.667   9.194  0.0687 -0.7681  0.4868
  365MOL0     H48151   1.929   4.758   9.248  2.0874  0.5242 -1.3210
  365MOL0     H48152   2.033   4.495   9.388  2.5386  0.1421 -2.2510
  365MOL0     H48153   1.901   4.599   9.442 -0.4305 -1.1314  0.4648
  365MOL0     H48154   1.942   4.454   9.181  1.9118 -1.3414  2.8269
  365MOL0     H48155   1.793   4.566   9.214 -1.2985 -1.7708 -0.2984
  365MOL0     H48156   1.712   4.415   9.383  0.0534 -0.3188 -0.0755
  365MOL0     H48157   1.853   4.318   9.364  1.2446  0.4339 -2.6666
  365MOL0     H48158   1.671   4.342   9.125  2.9220 -0.4434 -2.7362
  365MOL0     H48159   1.798   4.242   9.143 -0.7459 -1.3853  0.1467
  365MOL0     H48160   1.576   4.225   9.356 -0.7201 -1.5353 -0.2646
  365MOL0     H48161   1.691   4.093   9.301 -0.8464 -0.1682  0.6110
  365MOL0     H48162   2.502   5.080   9.384 -0.2666  0.4858 -0.2414
  365MOL0     H48163   2.578   5.295   9.308  0.8134  0.7743 -1.1883
  365MOL0     H48164   2.828   5.476   8.948 -0.0181  0.6007 -3.2512
  365MOL0     H48165   2.946   5.685   8.885  2.1871 -0.2621  3.6647
  365MOL0     H48166   4.119   6.650   8.072  0.6056  0.6139  0.9178
  365MOL0     H48167   4.058   6.538   7.870 -1.3509 -1.6346  0.5636
  365MOL0     H48168   3.914   6.594   7.446 -1.4429 -0.4811  3.6533
  365MOL0     H48169   3.859   6.539   7.224 -0.3579  1.3496 -0.7648
  365MOL0     H48170   3.691   6.437   6.918 -1.6651  0.5403  0.3577
  365MOL0     H48171   3.811   6.474   7.038  0.4394 -1.8688  0.2652
  365MOL0     H48172   3.759   6.706   7.020 -0.5050 -1.6124  1.6538
  365MOL0     H48173   3.823   6.638   6.859 -0.2081  0.1265  0.3232
  365MOL0     H48174   3.625   6.813   6.870 -0.5034  0.2050 -3.5103
  365MOL0     H48175   3.525   6.679   6.917 -0.3850 -1.8350 -3.0083
  365MOL0     H48176   3.664   6.711   6.658  2.1483 -1.2853  1.7908
  365MOL0     H48177   3.595   6.552   6.708  0.1971 -0.5962  0.9306
  365MOL0     H48178   3.227   6.727   6.634 -0.9580 -2.2037  0.9352
  365MOL0     H48179   3.438   6.579   7.297  0.6440 -2.6939 -1.1196
  365MOL0     H48180   3.507   6.649   7.541  1.8065  3.2639  0.3913
  366MOL0     O48181   7.086   6.223   5.526 -0.4713  0.2841  0.1458
  366MOL0     C48182   7.061   6.306   5.440  0.6250  0.2501  0.4595
  366MOL0     O48183   7.142   6.405   5.389  0.6150  0.0731 -0.6276
  366MOL0     C48184   7.271   6.423   5.438 -0.2130 -0.6021 -0.2176
  366MOL0     C48185   7.325   6.396   5.565 -0.2856 -0.3943  0.0049
  366MOL0     C48186   7.450   6.446   5.594  0.3834 -0.1288 -0.6590
  366MOL0     C48187   7.530   6.500   5.493 -0.5662  0.7838 -0.4071
  366MOL0     O48188   7.658   6.548   5.507 -0.4189 -0.5119 -0.6356
  366MOL0     C48189   7.705   6.572   5.641 -0.9991  0.1321  0.8726
  366MOL0     C48190   7.816   6.674   5.658 -0.5016 -0.1520  0.8423
  366MOL0     C48191   7.954   6.609   5.644 -0.4858  0.4574  0.4928
  366MOL0     C48192   8.063   6.717   5.610  0.0480 -0.5076 -0.3412
  366MOL0     C48193   8.216   6.673   5.605 -0.1184 -0.5190 -0.7652
  366MOL0     C48194   8.294   6.783   5.540 -0.5113  0.5866  0.0130
  366MOL0     C48195   8.450   6.761   5.540 -0.9800 -0.0931 -0.0606
  366MOL0     C48196   8.523   6.866   5.458  0.1452  0.4085  0.1106
  366MOL0     N48197   8.666   6.859   5.475 -0.0233  0.0505  0.0966
  366MOL0     C48198   8.745   6.814   5.575 -0.0815 -0.3489 -0.9630
  366MOL0     C48199   8.874   6.822   5.526  0.3886  0.9975  0.3742
  366MOL0     C48200   8.986   6.756   5.607  0.9121  0.0592 -0.1054
  366MOL0     C48201   9.031   6.632   5.537 -0.4708  0.1652 -0.5252
  366MOL0     C48202   8.918   6.533   5.494  0.2256 -0.3830 -0.7967
  366MOL0     C48203   8.851   6.465   5.614 -1.0450 -0.1736 -1.3171
  366MOL0     O48204   8.724   6.414   5.570 -0.6774  0.9087 -0.2583
  366MOL0     C48205   8.638   6.369   5.670  1.2441  0.3380  0.1252
  366MOL0     C48206   8.665   6.337   5.800 -0.3936 -0.4437  0.5726
  366MOL0     C48207   8.569   6.302   5.901  0.1098  0.6057  0.4623
  366MOL0     C48208   8.433   6.295   5.867 -0.2525 -0.6179  0.5003
  366MOL0     C48209   8.328   6.260   5.964  0.4557 -0.6510  0.5249
  366MOL0     O48210   8.203   6.276   5.922  0.3630  0.4379 -0.1763
  366MOL0     C48211   8.112   6.261   6.027 -0.6304  0.1100  0.5069
  366MOL0     C48212   8.074   6.135   6.070  0.0639  0.8702 -0.1192
  366MOL0     C48213   7.982   6.106   6.168  0.8708 -0.2517 -0.2419
  366MOL0     C48214   7.927   6.212   6.239 -0.4780 -0.4936  0.5164
  366MOL0     O48215   7.846   6.172   6.344  0.4225 -0.4575 -1.1907
  366MOL0     C48216   7.745   6.265   6.365  0.2379  0.2215  0.4170
  366MOL0     C48217   7.646   6.206   6.462 -0.2787 -0.0261  0.2511
  366MOL0     C48218   7.524   6.292   6.490  0.0684 -0.5250 -0.0017
  366MOL0     C48219   7.438   6.306   6.367  0.4247  0.4971  0.0664
  366MOL0     C48220   7.457   6.424   6.284  0.3115  0.2964 -0.7331
  366MOL0     C48221   7.436   6.552   6.359  0.5623  0.2158 -0.0315
  366MOL0     C48222   7.313   6.542   6.459  0.4999  0.2889 -0.4016
  366MOL0     C48223   7.272   6.687   6.513  0.4024 -0.2888 -0.2290
  366MOL0    Cl48224   7.132   6.692   6.619  0.1259 -0.0518 -0.0587
  366MOL0     C48225   7.974   6.345   6.200 -0.6067  0.2522 -0.4485
  366MOL0     C48226   8.078   6.367   6.105  0.2434 -0.4975 -0.3913
  366MOL0     O48227   8.364   6.231   6.077 -1.2204  0.5560  0.3611
  366MOL0     C48228   8.401   6.332   5.735  0.7477 -1.0533 -0.1520
  366MOL0     C48229   8.497   6.373   5.641  0.4305 -0.5873  0.6535
  366MOL0     N48230   8.875   6.893   5.407  0.4037  1.0326 -0.4532
  366MOL0     N48231   8.747   6.915   5.379 -0.0454 -0.6403  0.2772
  366MOL0     C48232   7.483   6.519   5.365 -0.0979 -0.1152  0.2538
  366MOL0     C48233   7.356   6.485   5.342 -0.4613 -0.3062 -0.2845
  366MOL0     C48234   6.936   6.290   5.370 -0.3913  0.3868  0.2901
  366MOL0     C48235   6.910   6.346   5.242 -0.4649  0.6462  0.7881
  366MOL0     C48236   6.792   6.329   5.174  0.1450  0.7998 -0.4641
  366MOL0     C48237   6.695   6.243   5.219  0.3841 -0.5463  0.4101
  366MOL0     O48238   6.581   6.242   5.142  0.1825  0.2401 -0.4420
  366MOL0     C48239   6.494   6.131   5.179  0.0703  0.0112 -0.3091
  366MOL0     C48240   6.452   6.066   5.046  0.7437  0.3763 -0.5390
  366MOL0     C48241   6.346   5.952   5.058 -0.2814 -0.3153  0.4809
  366MOL0     C48242   6.285   5.914   4.917 -0.6217 -0.4053 -0.3814
  366MOL0     C48243   6.175   5.821   4.951 -0.7806  0.9844  0.5237
  366MOL0     C48244   6.082   5.743   4.964  0.3740  0.8572 -0.5147
  366MOL0     C48245   6.713   6.185   5.349  1.2431  0.3156 -0.4020
  366MOL0     C48246   6.834   6.210   5.422 -0.1996 -0.5789  0.4778
  366MOL0     H48247   7.263   6.362   5.647 -0.5186 -0.4343 -0.1847
  366MOL0     H48248   7.488   6.436   5.695 -0.7432  0.3173 -0.1835
  366MOL0     H48249   7.739   6.477   5.684 -0.7351  0.7607  2.1068
  366MOL0     H48250   7.619   6.611   5.695 -1.4025 -0.3200  0.5621
  366MOL0     H48251   7.809   6.727   5.754 -0.6481  0.4946  0.4815
  366MOL0     H48252   7.793   6.749   5.582 -1.4798 -1.2147  0.0533
  366MOL0     H48253   7.947   6.549   5.553  3.2004  1.9350 -0.9637
  366MOL0     H48254   7.984   6.557   5.735 -1.2492  0.1761  0.5892
  366MOL0     H48255   8.025   6.763   5.518 -1.6784  0.9413  1.0222
  366MOL0     H48256   8.049   6.786   5.694 -2.1694 -0.6612 -0.5393
  366MOL0     H48257   8.239   6.583   5.548 -0.1736 -1.3661  0.5126
  366MOL0     H48258   8.255   6.645   5.704 -2.1404  1.7193  0.7712
  366MOL0     H48259   8.281   6.876   5.596  3.1445  0.1596  1.9143
  366MOL0     H48260   8.252   6.775   5.439  1.1885  1.7569 -0.8469
  366MOL0     H48261   8.469   6.780   5.646  2.4321  3.1442 -1.0393
  366MOL0     H48262   8.481   6.659   5.515  0.8063  0.1306  1.0558
  366MOL0     H48263   8.475   6.964   5.467 -0.8625  0.1384 -1.8309
  366MOL0     H48264   8.508   6.831   5.356 -0.4058 -0.7446  0.5689
  366MOL0     H48265   8.712   6.771   5.669  2.1551 -1.0591 -0.4507
  366MOL0     H48266   8.956   6.744   5.711  0.7374  2.3351  0.1542
  366MOL0     H48267   9.068   6.829   5.610  2.7877 -1.9517  1.3954
  366MOL0     H48268   9.101   6.575   5.598  1.0080 -0.3027 -2.5459
  366MOL0     H48269   9.078   6.673   5.447 -0.8926  2.4046  0.2155
  366MOL0     H48270   8.835   6.586   5.446 -1.2058 -0.0932  1.8310
  366MOL0     H48271   8.963   6.462   5.423  1.2472  0.2360 -0.7890
  366MOL0     H48272   8.843   6.534   5.699  4.1203 -0.2167 -0.4457
  366MOL0     H48273   8.915   6.381   5.646 -1.6846 -0.7429 -1.5077
  366MOL0     H48274   8.763   6.322   5.844 -1.1156 -0.1315  2.3724
  366MOL0     H48275   8.595   6.268   6.001 -1.4395 -5.6821 -0.8450
  366MOL0     H48276   8.124   6.055   6.016  1.7985  1.2900  0.7931
  366MOL0     H48277   7.936   6.011   6.190  0.1798 -0.0408 -0.7411
  366MOL0     H48278   7.706   6.281   6.264  0.5016  0.6762  0.3835
  366MOL0     H48279   7.780   6.365   6.393 -1.1242  0.9591 -0.3976
  366MOL0     H48280   7.699   6.189   6.557  0.2319  0.7938  0.1266
  366MOL0     H48281   7.618   6.108   6.421  0.5074 -0.4049  0.5941
  366MOL0     H48282   7.557   6.392   6.522 -2.8976  0.5186  0.1176
  366MOL0     H48283   7.467   6.246   6.572 -0.0369  1.5729  1.1909
  366MOL0     H48284   7.463   6.218   6.306  1.6519 -1.3937  3.0691
  366MOL0     H48285   7.336   6.285   6.398  0.6942  0.4186  0.9156
  366MOL0     H48286   7.378   6.420   6.209 -0.5912 -2.3532  0.2183
  366MOL0     H48287   7.555   6.428   6.237 -0.3231  1.6765 -2.0060
  366MOL0     H48288   7.422   6.626   6.279  2.1095 -0.8714 -1.3630
  366MOL0     H48289   7.527   6.581   6.412 -0.5906  2.1518  1.0238
  366MOL0     H48290   7.229   6.503   6.403 -0.0667  0.1091  0.5533
  366MOL0     H48291   7.337   6.482   6.547 -2.7165 -3.3370 -1.7155
  366MOL0     H48292   7.276   6.760   6.432  0.8113  0.8737  0.8218
  366MOL0     H48293   7.356   6.717   6.577  0.0684 -1.2237  0.6681
  366MOL0     H48294   7.940   6.420   6.271  1.0538  0.6392 -0.0181
  366MOL0     H48295   8.117   6.467   6.092 -0.3289 -0.2235 -0.0466
  366MOL0     H48296   8.297   6.338   5.707  1.1416  1.8767 -1.4419
  366MOL0     H48297   8.466   6.416   5.547  0.9026  0.2446  0.8729
  366MOL0     H48298   7.549   6.542   5.282  0.8414 -1.8271  0.4800
  366MOL0     H48299   7.315   6.498   5.242  1.9012  1.3045 -1.1224
  366MOL0     H48300   6.982   6.413   5.196  1.2742  0.0334  2.4825
  366MOL0     H48301   6.766   6.386   5.086 -1.3774 -0.5050 -0.9004
  366MOL0     H48302   6.413   6.161   5.246  1.7610  1.6927  1.0784
  366MOL0     H48303   6.549   6.054   5.235  0.8127  0.5755 -0.2426
  366MOL0     H48304   6.405   6.149   4.992 -1.7789 -0.7683 -0.2717
  366MOL0     H48305   6.538   6.031   4.989 -0.6528 -1.2269 -1.7783
  366MOL0     H48306   6.267   5.993   5.122  2.0952  0.2056  3.3005
  366MOL0     H48307   6.396   5.868   5.107 -0.4982 -0.7677 -0.0558
  366MOL0     H48308   6.253   6.009   4.873 -1.4968 -0.6256 -0.2377
  366MOL0     H48309   6.359   5.865   4.854 -2.7916  0.5646 -4.0061
  366MOL0     H48310   6.010   5.664   4.961  0.7356  0.4760  0.5787
  366MOL0     H48311   6.643   6.114   5.392  0.7024  0.9770 -0.1648
  366MOL0     H48312   6.836   6.150   5.512 -1.7421  0.2599  1.0991
  367MOL0     O48313   5.628   3.434   3.297 -0.2741  0.0125  0.0931
  367MOL0     C48314   5.621   3.494   3.189 -0.0114 -0.0334 -0.3539
  367MOL0     O48315   5.733   3.520   3.115 -0.3391 -0.3704 -0.4992
  367MOL0     C48316   5.858   3.482   3.164 -0.2367 -0.5193  0.0656
  367MOL0     C48317   5.911   3.560   3.272  0.0903  0.2952 -0.1791
  367MOL0     C48318   6.045   3.531   3.313 -0.1830 -0.3088 -0.5344
  367MOL0     C48319   6.125   3.421   3.261  0.0376 -0.7526  1.0537
  367MOL0     O48320   6.258   3.389   3.294 -0.1520 -0.8594  0.1291
  367MOL0     C48321   6.324   3.457   3.399  0.4064 -0.1582 -1.0730
  367MOL0     C48322   6.473   3.451   3.371 -0.3970  0.6394 -0.7695
  367MOL0     C48323   6.529   3.530   3.248 -0.0166 -0.5115 -0.0886
  367MOL0     C48324   6.691   3.535   3.259 -0.1423  0.5238 -0.4349
  367MOL0     C48325   6.744   3.627   3.141  1.2360  0.6023 -0.3550
  367MOL0     C48326   6.896   3.644   3.165 -0.4311 -0.6088 -0.3784
  367MOL0     C48327   6.961   3.738   3.060 -0.2555  0.7537  1.0074
  367MOL0     C48328   6.942   3.898   3.085  0.0144 -0.2926  0.1220
  367MOL0     N48329   6.803   3.940   3.065 -0.3684 -0.1569 -0.5679
  367MOL0     C48330   6.715   3.902   2.964  0.3230  0.0053  0.3464
  367MOL0     C48331   6.602   3.978   2.984 -0.2855  0.7576 -0.4308
  367MOL0     C48332   6.469   3.967   2.909  0.8285  0.9324  0.4099
  367MOL0     C48333   6.391   3.832   2.929  0.2703 -0.0721  0.3378
  367MOL0     C48334   6.324   3.835   3.064  0.9962 -0.7951 -0.2988
  367MOL0     C48335   6.255   3.709   3.093  0.7089  0.7124  0.4599
  367MOL0     O48336   6.170   3.661   2.986 -0.0098 -0.2489 -0.8352
  367MOL0     C48337   6.047   3.709   2.954  0.6148  0.1727 -0.3514
  367MOL0     C48338   5.995   3.657   2.839 -0.3072  0.3814  0.2941
  367MOL0     C48339   5.870   3.689   2.792  0.8325  0.4292  0.5573
  367MOL0     C48340   5.786   3.789   2.858  0.4892  0.4918  0.0561
  367MOL0     C48341   5.648   3.826   2.815 -0.7336 -0.4639 -1.0031
  367MOL0     O48342   5.615   3.773   2.689  0.3167  0.4049 -0.2215
  367MOL0     C48343   5.481   3.784   2.642 -1.0041  0.9171  0.8741
  367MOL0     C48344   5.440   3.675   2.572 -0.4259  0.0127 -0.4392
  367MOL0     C48345   5.307   3.672   2.514  0.4926 -0.2687  0.4810
  367MOL0     C48346   5.221   3.786   2.536 -0.2298  0.6055  0.0515
  367MOL0     O48347   5.085   3.779   2.499 -0.2738  1.3496  0.1768
  367MOL0     C48348   5.028   3.894   2.440 -0.1044  0.3614 -0.5271
  367MOL0     C48349   4.888   3.866   2.388  0.6949  0.2967  0.3176
  367MOL0     C48350   4.872   3.736   2.312 -0.4003  0.2856 -0.5264
  367MOL0     C48351   4.738   3.741   2.236  0.0020 -0.1335 -0.3939
  367MOL0     C48352   4.699   3.598   2.191 -0.2533  0.1500  0.2244
  367MOL0     C48353   4.573   3.608   2.105 -0.4662  0.2146  0.5623
  367MOL0     C48354   4.432   3.625   2.164  0.0772 -0.9528 -0.6127
  367MOL0     C48355   4.327   3.631   2.059 -0.0246 -0.2116 -0.2817
  367MOL0    Cl48356   4.179   3.676   2.140 -0.2807 -0.0718 -0.1078
  367MOL0     C48357   5.267   3.892   2.599  0.0657  0.6660 -0.3007
  367MOL0     C48358   5.401   3.891   2.652 -0.5811  0.1043  0.5790
  367MOL0     O48359   5.573   3.894   2.884  0.3127  0.3204  0.0702
  367MOL0     C48360   5.847   3.846   2.976  0.1290 -0.7785  0.4407
  367MOL0     C48361   5.977   3.799   3.023  0.2978 -0.1127  0.3315
  367MOL0     N48362   6.633   4.069   3.087  0.3272  0.1665  0.8915
  367MOL0     N48363   6.747   4.043   3.139  1.1525 -0.1684  1.1175
  367MOL0     C48364   6.063   3.342   3.157 -0.5879 -1.2027  0.5082
  367MOL0     C48365   5.930   3.371   3.119 -0.6036  0.5870 -0.1790
  367MOL0     C48366   5.495   3.552   3.139  0.1517  0.4604  0.4544
  367MOL0     C48367   5.374   3.538   3.212 -0.5056 -0.1978 -0.2944
  367MOL0     C48368   5.251   3.577   3.171 -0.7049 -0.6111  0.9068
  367MOL0     C48369   5.241   3.644   3.047  0.1219  0.1874 -0.0784
  367MOL0     O48370   5.109   3.662   3.008  0.1564  0.7171 -0.4285
  367MOL0     C48371   5.080   3.676   2.874  0.4741 -0.1135  0.0556
  367MOL0     C48372   4.936   3.658   2.838  0.0009  0.0783 -0.8737
  367MOL0     C48373   4.833   3.736   2.916 -0.2233 -0.4987 -0.9603
  367MOL0     C48374   4.840   3.887   2.881  0.5227 -0.3812  0.4042
  367MOL0     C48375   4.785   3.974   2.988  0.2245  1.0165 -0.3729
  367MOL0     C48376   4.735   4.037   3.081 -0.1188  0.5170 -0.2960
  367MOL0     C48377   5.359   3.654   2.966 -0.9028 -0.1378 -0.6154
  367MOL0     C48378   5.483   3.602   3.006  0.2802 -0.8864 -0.1341
  367MOL0     H48379   5.857   3.647   3.307 -0.5865  1.0529 -2.8946
  367MOL0     H48380   6.083   3.595   3.392 -0.2109  2.1543 -2.4019
  367MOL0     H48381   6.299   3.417   3.497  1.9844  1.0759 -0.1126
  367MOL0     H48382   6.299   3.564   3.394  5.4728  1.3379  0.2915
  367MOL0     H48383   6.491   3.344   3.358 -3.5169 -0.0352 -0.5016
  367MOL0     H48384   6.516   3.485   3.466 -0.8916 -3.0113  0.9409
  367MOL0     H48385   6.489   3.630   3.266  0.7899  0.0241 -1.1651
  367MOL0     H48386   6.483   3.500   3.154 -1.2104  3.3971 -0.9107
  367MOL0     H48387   6.707   3.584   3.355 -0.5984 -1.6072  0.8002
  367MOL0     H48388   6.736   3.435   3.258 -1.3232 -0.0493 -1.8779
  367MOL0     H48389   6.692   3.722   3.149 -0.5787  0.1813 -4.5189
  367MOL0     H48390   6.722   3.584   3.043 -0.1819 -3.5947  1.5822
  367MOL0     H48391   6.950   3.549   3.177 -0.3883 -0.4871  0.4720
  367MOL0     H48392   6.903   3.697   3.261  0.2307 -1.5372  0.1048
  367MOL0     H48393   7.068   3.720   3.067 -0.4194 -0.5143  0.4883
  367MOL0     H48394   6.927   3.712   2.959  1.7846  1.3977  0.1078
  367MOL0     H48395   7.006   3.946   3.009 -2.0389 -1.2419 -2.3395
  367MOL0     H48396   6.977   3.922   3.185  3.7481  0.8886 -1.2745
  367MOL0     H48397   6.729   3.821   2.893 -0.5196 -2.5459  2.9282
  367MOL0     H48398   6.478   3.980   2.801  0.8243  0.5659  0.3639
  367MOL0     H48399   6.410   4.053   2.944  1.9830  1.3718  1.3633
  367MOL0     H48400   6.449   3.740   2.928 -0.6544 -0.6756 -0.3076
  367MOL0     H48401   6.306   3.841   2.859  1.5105  2.7303 -0.9690
  367MOL0     H48402   6.383   3.849   3.155  0.1868  1.2718 -0.0410
  367MOL0     H48403   6.242   3.907   3.057 -1.8167 -3.6674  0.4763
  367MOL0     H48404   6.200   3.723   3.186  0.1367  0.2194  0.2044
  367MOL0     H48405   6.329   3.628   3.098 -0.6982 -0.8810 -2.3164
  367MOL0     H48406   6.058   3.582   2.793  2.8294  1.6902  2.1274
  367MOL0     H48407   5.835   3.650   2.696 -1.1099 -0.0657  1.4240
  367MOL0     H48408   5.502   3.588   2.557 -0.7547  0.2330 -3.8434
  367MOL0     H48409   5.278   3.583   2.459 -0.0743  1.0119 -1.4000
  367MOL0     H48410   5.094   3.919   2.357 -2.1830 -0.5301 -2.5468
  367MOL0     H48411   5.016   3.969   2.519 -0.8826  1.0737 -1.3051
  367MOL0     H48412   4.874   3.951   2.321 -1.7013 -1.5002 -1.7026
  367MOL0     H48413   4.817   3.871   2.471  0.5862  2.5711  0.1288
  367MOL0     H48414   4.870   3.662   2.393  0.1051  1.1489  0.2928
  367MOL0     H48415   4.962   3.712   2.255  0.8749 -0.9847  1.9001
  367MOL0     H48416   4.659   3.769   2.308  0.9318 -2.8576  1.8658
  367MOL0     H48417   4.745   3.821   2.162 -1.9859 -0.8212 -1.3836
  367MOL0     H48418   4.683   3.528   2.274 -0.4622 -1.5657 -1.2199
  367MOL0     H48419   4.780   3.558   2.129 -0.5912  0.8112 -0.6642
  367MOL0     H48420   4.570   3.516   2.046  0.3547  0.9715 -0.7267
  367MOL0     H48421   4.592   3.688   2.032 -0.5674 -1.3252 -1.2138
  367MOL0     H48422   4.421   3.541   2.233  0.9154  0.0158  0.7495
  367MOL0     H48423   4.440   3.722   2.214  1.8000 -0.5859 -1.5206
  367MOL0     H48424   4.322   3.527   2.027  0.0631 -0.3197  0.0496
  367MOL0     H48425   4.352   3.687   1.968  0.4748  0.6577  0.3650
  367MOL0     H48426   5.200   3.974   2.623 -0.4302 -0.1599  1.2963
  367MOL0     H48427   5.437   3.979   2.705 -0.6007 -0.5127  1.6392
  367MOL0     H48428   5.812   3.936   3.026  0.0894 -0.4413 -0.1879
  367MOL0     H48429   6.016   3.851   3.110  0.8918 -0.6283  0.3775
  367MOL0     H48430   6.120   3.268   3.102 -0.3450  0.2020 -1.2161
  367MOL0     H48431   5.880   3.318   3.038 -0.5148  1.5286 -0.8539
  367MOL0     H48432   5.386   3.490   3.309  2.6439  1.0493  0.0352
  367MOL0     H48433   5.164   3.561   3.234 -0.5043  1.8949  1.9191
  367MOL0     H48434   5.145   3.607   2.820  2.0968  1.0738  0.4151
  367MOL0     H48435   5.116   3.778   2.860  0.8569  0.2687  3.0850
  367MOL0     H48436   4.923   3.685   2.732  3.2111  0.6883 -1.2025
  367MOL0     H48437   4.912   3.552   2.851 -0.9791  0.6062  2.4587
  367MOL0     H48438   4.840   3.736   3.025 -2.5210 -0.5075 -0.7630
  367MOL0     H48439   4.737   3.694   2.886 -1.7928  0.1812  2.6117
  367MOL0     H48440   4.942   3.925   2.868 -0.8555  3.3610 -0.6483
  367MOL0     H48441   4.776   3.906   2.795  0.1678 -2.0449  0.2694
  367MOL0     H48442   4.696   4.093   3.164 -0.4239 -0.0646 -0.0356
  367MOL0     H48443   5.359   3.682   2.861 -0.4002  2.1622 -0.0553
  367MOL0     H48444   5.563   3.601   2.934 -1.8059  0.5164 -2.6406
  368MOL0     O48445   0.397   8.947   9.078  0.8987  0.0585 -0.0932
  368MOL0     C48446   0.329   8.865   9.145  0.1058 -0.1501 -0.2742
  368MOL0     O48447   0.378   8.751   9.215  0.5994  0.2952  0.2539
  368MOL0     C48448   0.510   8.738   9.199 -0.1398  0.0234 -0.6921
  368MOL0     C48449   0.598   8.812   9.287  0.3618  0.3787 -0.3151
  368MOL0     C48450   0.738   8.799   9.267  0.6620  0.0834  0.0526
  368MOL0     C48451   0.789   8.719   9.155 -0.0748  0.1526  0.3394
  368MOL0     O48452   0.916   8.697   9.123  0.2745 -0.4778 -0.4901
  368MOL0     C48453   1.002   8.800   9.165 -0.2897  0.0736 -0.1037
  368MOL0     C48454   1.052   8.781   9.310  0.0569 -0.7649 -0.4129
  368MOL0     C48455   1.181   8.702   9.315  0.2040 -0.2415 -0.1447
  368MOL0     C48456   1.239   8.717   9.458  0.0290  0.1766 -0.3343
  368MOL0     C48457   1.378   8.637   9.458 -0.6067 -0.6524 -0.0862
  368MOL0     C48458   1.452   8.677   9.585  0.3246  0.2141 -0.0108
  368MOL0     C48459   1.396   8.608   9.716 -0.5593 -0.7085 -0.3719
  368MOL0     C48460   1.358   8.464   9.697 -0.2954  0.5044  0.7152
  368MOL0     N48461   1.346   8.394   9.826 -0.2565 -0.6715  0.5694
  368MOL0     C48462   1.226   8.360   9.884  0.6008 -0.6006  0.5656
  368MOL0     C48463   1.247   8.263   9.972  0.5948 -1.5679 -1.4668
  368MOL0     C48464   1.154   8.222  10.077 -1.1762  0.2138  0.2002
  368MOL0     C48465   1.067   8.106  10.029 -0.6264 -0.8493 -0.4409
  368MOL0     C48466   1.007   8.030  10.150 -0.3411 -0.1655  0.3820
  368MOL0     C48467   0.919   7.918  10.101 -0.0186 -0.0269 -0.6413
  368MOL0     O48468   0.863   7.833  10.207  0.0513 -0.4451 -0.5563
  368MOL0     C48469   0.762   7.745  10.176  0.4385  0.6222 -0.1855
  368MOL0     C48470   0.745   7.680  10.055 -0.2340 -0.0980 -0.7363
  368MOL0     C48471   0.625   7.605  10.029 -1.0621  0.2888  0.3448
  368MOL0     C48472   0.524   7.589  10.133 -0.7127  0.0822  0.5044
  368MOL0     C48473   0.409   7.495  10.112 -0.0855 -1.0531 -0.0564
  368MOL0     O48474   0.330   7.470  10.217  0.5101 -0.7367 -0.0963
  368MOL0     C48475   0.207   7.410  10.219 -0.8273  0.3480  1.0550
  368MOL0     C48476   0.113   7.471  10.308 -0.1851  0.6455  0.8801
  368MOL0     C48477  -0.018   7.428  10.312  0.0908 -0.0350  1.0502
  368MOL0     C48478  -0.057   7.319  10.246 -0.2895 -0.2852 -0.5034
  368MOL0     O48479  -0.179   7.264  10.254 -0.0742 -0.2692 -0.5086
  368MOL0     C48480  -0.296   7.348  10.277 -0.2612  0.0362 -0.1637
  368MOL0     C48481  -0.410   7.248  10.291 -0.0610 -0.0188 -0.5125
  368MOL0     C48482  -0.530   7.329  10.327  0.3975 -0.6242  0.3189
  368MOL0     C48483  -0.642   7.318  10.219  0.4145 -0.1908  0.8806
  368MOL0     C48484  -0.775   7.380  10.260  0.1408  0.4535 -0.7106
  368MOL0     C48485  -0.781   7.527  10.239  0.1943 -0.1693 -0.1647
  368MOL0     C48486  -0.929   7.573  10.236  0.0296 -0.1251 -1.1476
  368MOL0     C48487  -0.989   7.578  10.381  0.9014  0.1382 -0.3241
  368MOL0    Cl48488  -1.056   7.413  10.409 -0.0509 -0.3021  0.2623
  368MOL0     C48489   0.034   7.248  10.173  0.0307  0.2045 -0.5433
  368MOL0     C48490   0.168   7.294  10.155  0.7487  0.7949 -0.3609
  368MOL0     O48491   0.390   7.445   9.997 -0.2338  0.1823  0.4408
  368MOL0     C48492   0.556   7.647  10.259  0.0713 -0.4457 -0.2639
  368MOL0     C48493   0.670   7.717  10.272 -1.2965  0.0601 -0.7045
  368MOL0     N48494   1.380   8.241   9.967  0.0471 -0.6066 -0.2442
  368MOL0     N48495   1.439   8.315   9.878 -0.6223 -0.6905  0.1030
  368MOL0     C48496   0.701   8.659   9.068  0.9182 -0.1607  0.2424
  368MOL0     C48497   0.557   8.664   9.089 -0.5623 -0.7402 -0.2521
  368MOL0     C48498   0.191   8.889   9.147 -0.3860  0.3919  0.2958
  368MOL0     C48499   0.139   9.014   9.175  0.2936 -0.4125 -0.0905
  368MOL0     C48500  -0.008   9.030   9.183  0.5480  0.4577 -0.1399
  368MOL0     C48501  -0.092   8.914   9.157 -0.1058 -0.3254 -0.2419
  368MOL0     O48502  -0.233   8.942   9.168 -0.4499 -0.3911 -0.0815
  368MOL0     C48503  -0.335   8.842   9.167 -0.0238  0.6057 -0.5656
  368MOL0     C48504  -0.465   8.895   9.214 -0.2936  0.3445  0.9695
  368MOL0     C48505  -0.456   8.980   9.346 -0.1689  0.4927 -0.2444
  368MOL0     C48506  -0.589   9.044   9.383  0.2912  0.0389 -0.2730
  368MOL0     C48507  -0.573   9.111   9.514  0.0079 -0.0270  0.9319
  368MOL0     C48508  -0.541   9.153   9.623 -0.0479  0.1383 -0.1049
  368MOL0     C48509  -0.041   8.794   9.123  0.4177  0.1467  0.2369
  368MOL0     C48510   0.097   8.779   9.133  1.0452  0.4980 -0.0430
  368MOL0     H48511   0.565   8.872   9.370  1.3012  2.2220 -1.2152
  368MOL0     H48512   0.788   8.863   9.339 -0.2761  2.1130 -1.0142
  368MOL0     H48513   0.959   8.900   9.155 -0.1639  0.1093 -0.3007
  368MOL0     H48514   1.084   8.806   9.093 -1.1262 -1.0949 -1.2043
  368MOL0     H48515   0.973   8.739   9.373 -1.2137  2.6221  0.4630
  368MOL0     H48516   1.074   8.881   9.350 -2.2704  0.4886 -2.0030
  368MOL0     H48517   1.254   8.745   9.246  1.5613 -0.4322  1.1204
  368MOL0     H48518   1.177   8.595   9.295 -0.0954  0.2752 -3.4837
  368MOL0     H48519   1.259   8.821   9.488  0.8131 -1.5547  6.8574
  368MOL0     H48520   1.172   8.677   9.534 -0.4760 -0.3679 -1.0456
  368MOL0     H48521   1.435   8.688   9.380 -1.4115 -2.8773 -2.2318
  368MOL0     H48522   1.373   8.534   9.423 -2.2102 -1.8767  3.2816
  368MOL0     H48523   1.451   8.786   9.599  0.5120  0.0691  1.2558
  368MOL0     H48524   1.557   8.647   9.580  0.1960 -0.9164  2.5031
  368MOL0     H48525   1.463   8.617   9.802 -1.8721 -2.5926  0.9092
  368MOL0     H48526   1.309   8.665   9.749  0.3573 -0.7130  2.3181
  368MOL0     H48527   1.427   8.409   9.632 -2.1149 -0.3840 -0.5558
  368MOL0     H48528   1.263   8.465   9.644  0.2785 -2.7021 -0.6560
  368MOL0     H48529   1.127   8.399   9.863  0.4640 -1.0405  0.3660
  368MOL0     H48530   1.089   8.307  10.097 -2.7146 -0.2233 -2.4205
  368MOL0     H48531   1.206   8.192  10.168  0.1565  1.1797 -0.2181
  368MOL0     H48532   1.136   8.049   9.968  2.0859  1.2796  0.4305
  368MOL0     H48533   0.987   8.145   9.965 -1.4286  0.5082  1.2906
  368MOL0     H48534   1.089   7.988  10.208  1.0839  0.2556 -1.2297
  368MOL0     H48535   0.943   8.101  10.202 -2.0112 -0.4055 -1.2366
  368MOL0     H48536   0.971   7.848  10.036 -1.1126 -1.4467 -0.0395
  368MOL0     H48537   0.827   7.948  10.051 -0.1872  1.2532  0.3717
  368MOL0     H48538   0.824   7.703   9.985  1.7812  0.3237  1.5705
  368MOL0     H48539   0.613   7.545   9.939 -1.5986 -0.1865  0.7291
  368MOL0     H48540   0.150   7.546  10.377  1.5356  1.0356 -0.4006
  368MOL0     H48541  -0.083   7.477  10.384  1.2079 -0.1058  2.1520
  368MOL0     H48542  -0.330   7.409  10.193 -0.7434 -0.4894 -0.3577
  368MOL0     H48543  -0.282   7.402  10.371  2.0911 -2.9752  1.4103
  368MOL0     H48544  -0.373   7.184  10.371  0.1450 -0.5879 -1.0588
  368MOL0     H48545  -0.413   7.186  10.202 -0.1390 -2.1396  0.8967
  368MOL0     H48546  -0.508   7.429  10.363  1.3093 -0.8131  0.3091
  368MOL0     H48547  -0.581   7.283  10.413  0.0837  1.6420  1.4232
  368MOL0     H48548  -0.611   7.359  10.122 -3.3827  0.2695 -0.2901
  368MOL0     H48549  -0.664   7.211  10.211 -1.7515  0.2735  0.0541
  368MOL0     H48550  -0.802   7.367  10.365 -0.2991 -0.4030 -0.9253
  368MOL0     H48551  -0.856   7.343  10.197  0.2144  2.3796 -2.0431
  368MOL0     H48552  -0.730   7.554  10.146  0.3599  2.1220  0.5216
  368MOL0     H48553  -0.720   7.569  10.320 -0.2470 -3.1421  1.9063
  368MOL0     H48554  -0.942   7.671  10.188 -1.6634  0.8640  1.1584
  368MOL0     H48555  -0.982   7.505  10.168  0.1600 -0.2877 -1.0854
  368MOL0     H48556  -1.061   7.660  10.384  2.5131  1.5829  0.6303
  368MOL0     H48557  -0.908   7.599  10.451  0.7631 -1.3041  0.2855
  368MOL0     H48558   0.013   7.154  10.123  3.2034 -0.9894  0.1165
  368MOL0     H48559   0.237   7.233  10.098 -0.9749 -2.1283  0.4971
  368MOL0     H48560   0.504   7.615  10.350  0.3379  2.5968  1.0691
  368MOL0     H48561   0.711   7.747  10.367  3.7437  0.6484 -2.7664
  368MOL0     H48562   0.747   8.605   8.986  2.9669  0.6298  0.8299
  368MOL0     H48563   0.491   8.614   9.019 -0.6405  0.3974 -0.9991
  368MOL0     H48564   0.204   9.100   9.190  1.3530 -1.2920  0.4766
  368MOL0     H48565  -0.047   9.128   9.209 -0.1073  0.3083 -0.5304
  368MOL0     H48566  -0.311   8.760   9.235 -0.2222 -0.1371 -1.3658
  368MOL0     H48567  -0.356   8.790   9.073 -3.0756  0.2627  0.1936
  368MOL0     H48568  -0.511   8.952   9.132 -1.8887 -2.1770 -0.0262
  368MOL0     H48569  -0.523   8.803   9.225  0.9062 -0.3962  1.2607
  368MOL0     H48570  -0.374   9.050   9.327  0.5050 -0.1227  0.3235
  368MOL0     H48571  -0.417   8.916   9.426 -1.0321 -0.3779 -0.4931
  368MOL0     H48572  -0.604   9.116   9.302  1.9659 -0.1137 -0.7510
  368MOL0     H48573  -0.670   8.971   9.396  1.8526 -1.5042  1.3016
  368MOL0     H48574  -0.515   9.170   9.726  0.3501  0.7879 -0.3161
  368MOL0     H48575  -0.107   8.708   9.117 -0.6793  0.8803  1.3084
  368MOL0     H48576   0.130   8.676   9.125  0.5566  0.1358  2.0153
  369MOL0     O48577   9.356   6.177   4.417  0.0765 -0.2689  0.2096
  369MOL0     C48578   9.448   6.241   4.477 -0.0718 -0.1105  0.4184
  369MOL0     O48579   9.449   6.376   4.507 -0.5757 -1.0595 -0.3548
  369MOL0     C48580   9.335   6.452   4.496  0.0646  0.2170 -0.1531
  369MOL0     C48581   9.211   6.411   4.541 -0.4004  0.3585  0.9375
  369MOL0     C48582   9.093   6.494   4.528 -0.8721  0.2149 -0.9035
  369MOL0     C48583   9.103   6.627   4.480  0.2643 -0.2560  0.4932
  369MOL0     O48584   8.991   6.710   4.466 -0.1243  0.9325 -0.1074
  369MOL0     C48585   8.974   6.819   4.562 -0.2956 -1.1354  0.3413
  369MOL0     C48586   8.885   6.770   4.673 -0.2205  0.0105 -0.4709
  369MOL0     C48587   8.911   6.844   4.804 -0.9297  0.5149  0.8394
  369MOL0     C48588   8.882   6.987   4.793  0.1930  0.3900  0.0829
  369MOL0     C48589   8.877   7.064   4.929  0.1307 -0.4218  0.3582
  369MOL0     C48590   9.000   7.029   5.024  0.2804 -0.3174  1.1558
  369MOL0     C48591   9.022   7.123   5.143  0.7162  0.3908 -0.8251
  369MOL0     C48592   9.153   7.101   5.212 -0.2825  0.3179 -0.0727
  369MOL0     N48593   9.253   7.203   5.170 -0.3748  0.0275 -0.3747
  369MOL0     C48594   9.248   7.342   5.187 -0.6366  0.6777  0.5576
  369MOL0     C48595   9.330   7.390   5.088  0.7560  0.6467  0.3988
  369MOL0     C48596   9.360   7.530   5.066 -0.0788  0.7059 -0.4579
  369MOL0     C48597   9.499   7.568   5.121  0.1351  0.5639 -0.2148
  369MOL0     C48598   9.496   7.565   5.276  0.2156 -0.2637 -0.4041
  369MOL0     C48599   9.576   7.686   5.329 -0.7358 -0.0971 -0.2497
  369MOL0     O48600   9.712   7.679   5.276 -0.2173 -0.6719  1.2416
  369MOL0     C48601   9.820   7.690   5.361 -0.1780 -0.2569  0.8496
  369MOL0     C48602   9.817   7.710   5.508  0.8857 -0.0429  0.4715
  369MOL0     C48603   9.931   7.731   5.573 -0.2596  0.3516 -0.2678
  369MOL0     C48604  10.056   7.719   5.516  0.1457 -0.0348  0.0983
  369MOL0     C48605  10.181   7.772   5.583 -0.1800 -0.3191 -0.5307
  369MOL0     O48606  10.297   7.757   5.516 -0.0761 -0.0887 -0.1305
  369MOL0     C48607  10.410   7.740   5.584  0.8021 -0.0647 -0.6063
  369MOL0     C48608  10.478   7.848   5.641 -0.4750  0.2685 -0.3811
  369MOL0     C48609  10.594   7.826   5.721  0.1317  0.1752 -0.2778
  369MOL0     C48610  10.644   7.699   5.715 -1.2076 -0.0465 -0.3882
  369MOL0     O48611  10.761   7.655   5.773 -0.0380 -0.1949  0.1309
  369MOL0     C48612  10.851   7.759   5.808 -0.5406 -0.0170  0.6904
  369MOL0     C48613  10.961   7.688   5.878 -0.1084 -0.1105 -0.2311
  369MOL0     C48614  11.050   7.789   5.953  0.3544 -0.0317  0.1619
  369MOL0     C48615  11.165   7.718   6.014 -0.0719 -0.0894  0.2481
  369MOL0     C48616  11.257   7.812   6.099  0.1601  0.9414 -0.3876
  369MOL0     C48617  11.399   7.750   6.126  0.5830  0.3278 -0.3239
  369MOL0     C48618  11.483   7.837   6.221  0.1342 -0.4946 -0.2492
  369MOL0     C48619  11.634   7.830   6.189 -0.4118  0.5102  0.4677
  369MOL0    Cl48620  11.679   7.895   6.020 -0.1080 -0.0669 -0.4451
  369MOL0     C48621  10.578   7.591   5.659 -0.6926 -0.6116  0.1101
  369MOL0     C48622  10.458   7.614   5.589 -0.3701 -0.3305  0.7101
  369MOL0     O48623  10.175   7.800   5.706  0.2022 -0.0802 -0.1990
  369MOL0     C48624  10.067   7.671   5.385  0.3743 -0.0453 -0.1765
  369MOL0     C48625   9.951   7.676   5.310 -0.1470  0.1204  0.5297
  369MOL0     N48626   9.382   7.279   5.017 -0.4135  0.6215  0.1377
  369MOL0     N48627   9.326   7.172   5.063 -0.4434  0.3793 -0.3944
  369MOL0     C48628   9.230   6.674   4.441 -0.7595 -0.1171 -0.1303
  369MOL0     C48629   9.349   6.594   4.454  0.0992  0.6256  1.2226
  369MOL0     C48630   9.572   6.170   4.507 -0.1963  0.2965  0.4332
  369MOL0     C48631   9.693   6.226   4.478  0.0876  0.0002  0.8465
  369MOL0     C48632   9.815   6.160   4.512  1.2675 -0.3525 -0.7176
  369MOL0     C48633   9.816   6.036   4.571 -0.3996 -0.2858  0.5334
  369MOL0     O48634   9.939   5.986   4.591  0.0035 -0.5889  0.1355
  369MOL0     C48635   9.955   5.846   4.610  0.1827  0.0642  0.1942
  369MOL0     C48636  10.107   5.818   4.624 -1.2941 -0.0971  0.9109
  369MOL0     C48637  10.191   5.878   4.516  0.2067 -0.3214  0.0410
  369MOL0     C48638  10.329   5.808   4.506  0.4518 -1.1733  0.2560
  369MOL0     C48639  10.391   5.816   4.636  0.1105  0.6375  0.4295
  369MOL0     C48640  10.457   5.812   4.735 -0.0359  0.4366  0.4173
  369MOL0     C48641   9.685   5.971   4.586 -0.4483  0.0839 -1.1787
  369MOL0     C48642   9.567   6.036   4.559  0.5393 -0.5417 -0.1931
  369MOL0     H48643   9.209   6.310   4.582 -0.4908 -0.6311 -1.3642
  369MOL0     H48644   8.990   6.463   4.538 -1.4104  1.4983 -2.1191
  369MOL0     H48645   8.918   6.886   4.497 -0.4825  0.1674  1.8031
  369MOL0     H48646   9.073   6.853   4.595 -0.8547 -1.3013  2.3167
  369MOL0     H48647   8.910   6.665   4.693 -1.4625 -0.4284 -1.1383
  369MOL0     H48648   8.779   6.774   4.647 -0.1602  2.2358 -0.6014
  369MOL0     H48649   9.019   6.833   4.823 -0.1520  2.2080 -1.9488
  369MOL0     H48650   8.863   6.791   4.886  1.3685 -0.4152  1.6772
  369MOL0     H48651   8.960   7.029   4.729 -1.5873  0.0421 -2.4802
  369MOL0     H48652   8.783   6.992   4.746  0.6558 -3.5279 -1.6399
  369MOL0     H48653   8.783   7.044   4.980  0.2319  1.2633  1.2758
  369MOL0     H48654   8.868   7.171   4.912 -0.8580 -0.5681 -0.0859
  369MOL0     H48655   9.083   7.035   4.952  0.3336 -0.5330  1.1981
  369MOL0     H48656   8.998   6.926   5.063  5.5734 -1.1506  0.0321
  369MOL0     H48657   9.029   7.225   5.105  1.4931  0.5904 -0.1609
  369MOL0     H48658   8.943   7.122   5.218  0.8646 -0.5247 -0.6677
  369MOL0     H48659   9.194   7.005   5.180 -0.6645 -0.7664  2.4310
  369MOL0     H48660   9.140   7.101   5.321 -2.2642 -0.1844 -0.2743
  369MOL0     H48661   9.187   7.395   5.259 -0.2030 -0.0872  1.5145
  369MOL0     H48662   9.279   7.590   5.110  0.0988  0.1021  0.7399
  369MOL0     H48663   9.361   7.558   4.960  1.4915 -0.4953 -0.7902
  369MOL0     H48664   9.529   7.667   5.084 -2.0800  0.9643 -1.0760
  369MOL0     H48665   9.577   7.498   5.089 -1.3057 -1.4932  0.6004
  369MOL0     H48666   9.401   7.578   5.330  0.1616  1.4533 -0.8481
  369MOL0     H48667   9.525   7.465   5.309 -1.5540 -0.5468  0.4436
  369MOL0     H48668   9.563   7.669   5.437 -0.2572 -2.1497 -0.4610
  369MOL0     H48669   9.540   7.782   5.294  1.1232 -0.1700 -2.5759
  369MOL0     H48670   9.727   7.733   5.565 -0.1301 -2.0862 -0.2066
  369MOL0     H48671   9.933   7.776   5.672  1.4302 -1.6146  0.6625
  369MOL0     H48672  10.434   7.947   5.633 -0.7434  0.4436  2.1479
  369MOL0     H48673  10.632   7.910   5.779 -0.8293 -0.8724  2.0096
  369MOL0     H48674  10.806   7.834   5.874 -0.5625 -0.5180  1.2575
  369MOL0     H48675  10.895   7.805   5.719 -1.6075  0.2310  0.2680
  369MOL0     H48676  11.030   7.633   5.814  0.5878  0.3076  0.1383
  369MOL0     H48677  10.919   7.612   5.945  0.8194 -0.6394 -0.2315
  369MOL0     H48678  10.990   7.852   6.019  0.6156 -1.2886  1.6667
  369MOL0     H48679  11.096   7.860   5.885  2.0075  0.9285  2.1546
  369MOL0     H48680  11.124   7.648   6.087  0.0492  1.2947  1.7171
  369MOL0     H48681  11.228   7.670   5.938 -2.4056 -2.0175 -0.5693
  369MOL0     H48682  11.213   7.843   6.194  0.4616 -2.3040  0.9631
  369MOL0     H48683  11.266   7.903   6.040 -1.0296  1.3588  0.0413
  369MOL0     H48684  11.452   7.726   6.033  1.5896 -2.1979  0.8144
  369MOL0     H48685  11.391   7.657   6.183  2.6613  0.8401  0.9320
  369MOL0     H48686  11.466   7.944   6.206 -0.7247 -0.1690  2.5621
  369MOL0     H48687  11.465   7.817   6.327 -1.0203 -2.3956 -0.7457
  369MOL0     H48688  11.660   7.724   6.194  0.5356  0.6262 -1.2171
  369MOL0     H48689  11.686   7.887   6.267 -0.6711  0.7832  0.4414
  369MOL0     H48690  10.634   7.499   5.670  2.7354  1.5050  2.2870
  369MOL0     H48691  10.410   7.531   5.538  1.1716  0.8003 -2.9624
  369MOL0     H48692  10.164   7.635   5.355 -0.3112 -4.4194  2.1334
  369MOL0     H48693   9.959   7.670   5.202 -1.0055 -1.4598  0.5334
  369MOL0     H48694   9.244   6.766   4.385  0.8570 -0.6730 -0.6970
  369MOL0     H48695   9.451   6.622   4.430 -0.4582  1.2282 -0.5602
  369MOL0     H48696   9.708   6.313   4.414  0.2616 -1.0559 -0.5989
  369MOL0     H48697   9.902   6.197   4.458  2.2114 -1.9417 -0.3367
  369MOL0     H48698   9.911   5.796   4.523 -1.3969  3.7343 -1.3455
  369MOL0     H48699   9.900   5.816   4.700  0.0482  2.3760  0.9522
  369MOL0     H48700  10.140   5.858   4.720 -2.1306 -2.5053  2.2766
  369MOL0     H48701  10.123   5.710   4.622 -3.9865 -0.5706  0.8180
  369MOL0     H48702  10.209   5.982   4.546  0.9950  0.3148 -2.4237
  369MOL0     H48703  10.144   5.866   4.418  1.1741 -4.1262 -0.0975
  369MOL0     H48704  10.324   5.704   4.474  1.4815 -1.2329  0.2429
  369MOL0     H48705  10.387   5.868   4.435 -4.1324  2.8160 -0.6627
  369MOL0     H48706  10.522   5.821   4.819  0.5991  0.4124 -0.0626
  369MOL0     H48707   9.690   5.873   4.633 -0.3245 -0.0219 -1.4121
  369MOL0     H48708   9.469   5.995   4.579  0.1579  0.7109  0.5841
  370MOL0     O48709   1.962   3.614   3.172 -0.2646  0.2114 -0.2533
  370MOL0     C48710   1.968   3.690   3.080  0.9470  0.0864  0.4331
  370MOL0     O48711   1.868   3.722   2.987 -0.6632  0.8973  0.0404
  370MOL0     C48712   1.735   3.681   3.008  0.6503 -0.2888 -0.1429
  370MOL0     C48713   1.712   3.544   3.018  0.9442  0.8996  0.3712
  370MOL0     C48714   1.579   3.497   3.036  0.3717  0.4549  0.0279
  370MOL0     C48715   1.475   3.589   3.043 -0.0047  0.5343 -1.0071
  370MOL0     O48716   1.347   3.534   3.037 -0.0396  0.1419 -0.1869
  370MOL0     C48717   1.240   3.615   2.970  0.1797  0.1426 -0.8364
  370MOL0     C48718   1.132   3.509   2.927  0.0627 -0.0564 -0.8871
  370MOL0     C48719   1.067   3.444   3.051  1.0538  0.6124  1.0974
  370MOL0     C48720   0.988   3.325   2.998 -0.0164 -0.9711 -0.2914
  370MOL0     C48721   0.862   3.292   3.086 -0.2764 -1.0495 -0.1892
  370MOL0     C48722   0.765   3.190   3.026 -0.6317  0.3868  0.5918
  370MOL0     C48723   0.649   3.143   3.117 -0.5983 -0.8331  0.2424
  370MOL0     C48724   0.525   3.240   3.119 -0.6922  1.1467 -0.2550
  370MOL0     N48725   0.402   3.156   3.136  0.0277  0.7011  0.1561
  370MOL0     C48726   0.350   3.073   3.048  0.1126 -0.3789  0.2329
  370MOL0     C48727   0.245   3.021   3.106  0.2126  0.0637 -0.0251
  370MOL0     C48728   0.161   2.913   3.033  0.5099 -0.2374 -0.3309
  370MOL0     C48729   0.015   2.925   3.055  0.3769 -0.0877  0.0260
  370MOL0     C48730  -0.048   3.058   3.010 -0.6256 -0.8812 -0.3225
  370MOL0     C48731  -0.199   3.054   2.987 -0.0769  0.2128  0.5299
  370MOL0     O48732  -0.224   3.181   2.926 -0.5336  0.4352  0.1875
  370MOL0     C48733  -0.349   3.207   2.868  0.5247  0.5408 -0.1486
  370MOL0     C48734  -0.463   3.120   2.870  0.0550 -0.1088 -1.1614
  370MOL0     C48735  -0.589   3.161   2.831 -0.6640 -0.2429 -0.7024
  370MOL0     C48736  -0.602   3.287   2.764 -0.0796  0.7363  0.2941
  370MOL0     C48737  -0.727   3.341   2.719 -0.2631 -0.2376  0.4334
  370MOL0     O48738  -0.728   3.447   2.633 -0.3140 -0.0053 -0.6973
  370MOL0     C48739  -0.823   3.458   2.536  0.0152 -0.4639 -0.2425
  370MOL0     C48740  -0.830   3.349   2.444 -0.3186 -0.3564  0.1986
  370MOL0     C48741  -0.908   3.357   2.326 -0.5346 -0.5898  0.4671
  370MOL0     C48742  -0.987   3.472   2.304  0.1984  0.3350  0.4934
  370MOL0     O48743  -1.085   3.491   2.206 -0.1859  0.2362 -0.2851
  370MOL0     C48744  -1.103   3.394   2.101  0.2849 -0.6925  0.2046
  370MOL0     C48745  -1.212   3.428   2.002 -0.1971 -0.0160  0.2237
  370MOL0     C48746  -1.347   3.480   2.074  0.7784  0.2454  0.2276
  370MOL0     C48747  -1.447   3.501   1.961  0.5519 -0.2736 -0.0474
  370MOL0     C48748  -1.600   3.509   2.013 -0.2982 -0.3200  0.3182
  370MOL0     C48749  -1.708   3.510   1.903  0.5290 -0.3648  1.2022
  370MOL0     C48750  -1.853   3.539   1.950 -0.7338 -0.3030  0.0095
  370MOL0     C48751  -1.881   3.692   1.940  0.8842  1.0482  0.2798
  370MOL0    Cl48752  -1.941   3.747   1.766 -0.3401  0.0009  0.1567
  370MOL0     C48753  -0.973   3.580   2.391  0.0279 -0.5857 -0.1212
  370MOL0     C48754  -0.885   3.580   2.499 -0.5576 -0.2974 -0.1820
  370MOL0     O48755  -0.820   3.276   2.755 -0.7015 -0.2134 -0.1667
  370MOL0     C48756  -0.490   3.367   2.748 -0.1310  0.5140 -0.8149
  370MOL0     C48757  -0.366   3.326   2.800  0.3127  0.8950  0.2091
  370MOL0     N48758   0.234   3.059   3.234  0.2808 -0.9447  0.0407
  370MOL0     N48759   0.336   3.145   3.252 -0.1715  0.4103 -0.9310
  370MOL0     C48760   1.500   3.719   3.037  0.1635 -0.0313  0.0858
  370MOL0     C48761   1.624   3.774   3.018 -1.4136 -0.1502  0.1649
  370MOL0     C48762   2.082   3.778   3.071  0.6045  0.0589  0.1395
  370MOL0     C48763   2.119   3.840   2.952  0.3429 -0.9380  0.2631
  370MOL0     C48764   2.222   3.942   2.947  0.3801 -0.3489 -0.0935
  370MOL0     C48765   2.306   3.958   3.055 -0.4545 -0.2995 -1.2897
  370MOL0     O48766   2.423   4.036   3.029 -0.1417 -0.0670 -0.9111
  370MOL0     C48767   2.536   3.972   3.091  0.3683 -0.7259 -0.0613
  370MOL0     C48768   2.658   4.034   3.020  0.0954 -0.0585  0.4631
  370MOL0     C48769   2.785   3.978   3.078 -0.2205  0.0561  0.3983
  370MOL0     C48770   2.906   4.053   3.024 -0.1757 -0.6457 -0.5717
  370MOL0     C48771   3.027   4.004   3.087 -0.2133  0.7377 -0.1636
  370MOL0     C48772   3.133   3.964   3.139 -0.2242  0.1801  0.0089
  370MOL0     C48773   2.280   3.871   3.165 -0.7333  0.1947 -0.0232
  370MOL0     C48774   2.170   3.785   3.174 -0.8608 -0.7412 -0.6961
  370MOL0     H48775   1.786   3.465   3.020 -1.2739 -1.3276  0.4720
  370MOL0     H48776   1.556   3.391   3.033  0.1885  0.4995 -0.2383
  370MOL0     H48777   1.270   3.670   2.881  0.6056  0.0930 -0.7219
  370MOL0     H48778   1.185   3.683   3.037 -0.5137 -0.2182 -1.0247
  370MOL0     H48779   1.195   3.438   2.873  0.4837 -1.0918  0.8738
  370MOL0     H48780   1.056   3.555   2.863  2.2029 -0.6744 -4.1301
  370MOL0     H48781   0.996   3.519   3.088  2.4934  1.9715  1.2369
  370MOL0     H48782   1.141   3.422   3.129  0.7614 -1.5309  0.8091
  370MOL0     H48783   0.945   3.349   2.900  1.2417  0.2644 -0.5784
  370MOL0     H48784   1.059   3.242   2.982  0.1857 -1.1133  1.2170
  370MOL0     H48785   0.805   3.383   3.108  2.0403  1.1538 -2.5289
  370MOL0     H48786   0.895   3.249   3.180 -1.7348  1.4454  1.5966
  370MOL0     H48787   0.827   3.103   3.002 -1.4013 -0.2067  0.6758
  370MOL0     H48788   0.721   3.232   2.935 -2.0214  0.7300  1.3853
  370MOL0     H48789   0.620   3.040   3.096 -0.3107 -0.6710 -1.0387
  370MOL0     H48790   0.692   3.135   3.217  1.5940  1.6416 -0.3799
  370MOL0     H48791   0.519   3.292   3.023  1.2652 -0.1670 -1.1727
  370MOL0     H48792   0.531   3.311   3.202  1.3174  2.1480 -1.1851
  370MOL0     H48793   0.388   3.065   2.947  1.3964 -0.1051  0.6844
  370MOL0     H48794   0.186   2.815   3.075  0.0654 -0.4296 -0.5129
  370MOL0     H48795   0.182   2.910   2.926  2.0137  3.1321 -0.2672
  370MOL0     H48796  -0.010   2.908   3.160  0.4044  0.0080  0.0488
  370MOL0     H48797  -0.032   2.849   2.992  0.9553  0.3735 -0.9951
  370MOL0     H48798  -0.021   3.139   3.078  2.3011 -0.6418 -1.6401
  370MOL0     H48799  -0.007   3.076   2.910 -0.5726 -2.8287 -0.6917
  370MOL0     H48800  -0.247   3.049   3.086  1.0936 -1.9964  1.0529
  370MOL0     H48801  -0.224   2.969   2.922  1.3614  1.1042 -1.2755
  370MOL0     H48802  -0.447   3.023   2.917 -0.1040  0.4327  0.0387
  370MOL0     H48803  -0.667   3.087   2.846  0.0216 -1.1423 -1.5061
  370MOL0     H48804  -0.776   3.258   2.465 -3.4634 -2.7117 -1.0964
  370MOL0     H48805  -0.912   3.268   2.264 -0.6072  0.7090 -1.4450
  370MOL0     H48806  -1.106   3.290   2.136  0.2451 -1.1602 -1.1219
  370MOL0     H48807  -1.012   3.394   2.040 -0.3218 -0.3908 -0.7125
  370MOL0     H48808  -1.216   3.343   1.934  0.4357  0.1170  0.0136
  370MOL0     H48809  -1.173   3.512   1.944  1.6691 -0.2537  1.0331
  370MOL0     H48810  -1.325   3.577   2.120  0.2240  0.2375  0.5135
  370MOL0     H48811  -1.397   3.411   2.142 -0.9034 -1.4350 -2.5412
  370MOL0     H48812  -1.423   3.600   1.921  0.6472 -0.2064  0.1742
  370MOL0     H48813  -1.446   3.432   1.876  0.3013  1.0961 -1.1886
  370MOL0     H48814  -1.613   3.593   2.081 -0.9529 -0.9403  0.9762
  370MOL0     H48815  -1.619   3.420   2.074 -0.4884 -1.2509 -1.0447
  370MOL0     H48816  -1.700   3.411   1.858  1.8991  0.6314 -0.8984
  370MOL0     H48817  -1.675   3.577   1.823 -0.6520  0.2692  1.2286
  370MOL0     H48818  -1.918   3.477   1.888  1.9661 -4.1116  0.6334
  370MOL0     H48819  -1.865   3.509   2.054 -0.6436 -2.2655 -0.5136
  370MOL0     H48820  -1.795   3.753   1.969 -0.6522  1.5271  4.6565
  370MOL0     H48821  -1.957   3.716   2.015 -0.4402 -2.4548  0.2456
  370MOL0     H48822  -1.022   3.675   2.372 -1.1345 -1.5183 -1.9886
  370MOL0     H48823  -0.875   3.667   2.563  0.6666  0.2396 -1.0699
  370MOL0     H48824  -0.498   3.466   2.703 -0.8015  1.5365  1.4353
  370MOL0     H48825  -0.279   3.390   2.802  0.2789  0.9336  0.5356
  370MOL0     H48826   1.420   3.792   3.038 -1.8934 -2.1006 -1.5086
  370MOL0     H48827   1.650   3.877   2.998 -0.7951 -0.5631 -1.2927
  370MOL0     H48828   2.052   3.831   2.867  0.8481 -3.1458  0.0549
  370MOL0     H48829   2.242   3.995   2.854 -0.2362  1.3294  0.6962
  370MOL0     H48830   2.523   3.864   3.073 -0.9647 -0.4155 -1.1636
  370MOL0     H48831   2.544   4.001   3.196  0.9520  1.4924 -0.6690
  370MOL0     H48832   2.654   4.020   2.912  0.6776 -0.9997  0.5505
  370MOL0     H48833   2.651   4.142   3.037 -1.2099 -0.2963  1.6387
  370MOL0     H48834   2.798   3.874   3.050 -0.8415 -0.0761  0.5792
  370MOL0     H48835   2.787   3.997   3.186  1.0799 -1.1651  0.6131
  370MOL0     H48836   2.903   4.038   2.916  0.2801  2.8864 -1.2012
  370MOL0     H48837   2.890   4.160   3.041 -3.6798 -1.0027 -1.0112
  370MOL0     H48838   3.231   3.944   3.178 -1.1625 -4.0616  0.6852
  370MOL0     H48839   2.338   3.876   3.257 -0.8827  3.7827  0.0015
  370MOL0     H48840   2.159   3.736   3.271  2.0041 -0.0189  0.0983
  371MOL0     O48841   6.677   9.321  10.550  0.1111  0.0840 -0.2870
  371MOL0     C48842   6.668   9.225  10.472  0.0363 -0.1520 -0.9614
  371MOL0     O48843   6.557   9.141  10.462  0.2886 -0.2777 -0.7829
  371MOL0     C48844   6.447   9.157  10.536  1.1300  0.2992  0.9145
  371MOL0     C48845   6.378   9.283  10.556 -0.1029  0.4327  0.6486
  371MOL0     C48846   6.249   9.283  10.611  0.4152 -0.4979 -0.1058
  371MOL0     C48847   6.179   9.169  10.637  0.2309  0.4730 -0.8655
  371MOL0     O48848   6.051   9.172  10.688 -0.2107  0.3674  0.3122
  371MOL0     C48849   6.038   9.267  10.799  0.6856 -1.0277 -0.0141
  371MOL0     C48850   5.904   9.241  10.874 -0.1658 -0.5689 -0.1500
  371MOL0     C48851   5.942   9.163  11.004  0.4094  0.3069 -0.1979
  371MOL0     C48852   5.966   9.012  10.970 -0.1772  0.3277  0.8057
  371MOL0     C48853   5.857   8.920  10.913  0.5469  0.1355 -0.2916
  371MOL0     C48854   5.749   8.895  11.018 -0.4865  0.5424 -0.3325
  371MOL0     C48855   5.637   8.799  10.972 -0.2133 -0.4859  0.9564
  371MOL0     C48856   5.530   8.757  11.075 -0.4362  0.9670  0.7619
  371MOL0     N48857   5.427   8.852  11.103 -0.2366  0.1785 -0.2719
  371MOL0     C48858   5.430   8.959  11.194  0.1230 -0.2720 -0.8758
  371MOL0     C48859   5.316   9.029  11.178 -0.6240 -0.3471 -0.9065
  371MOL0     C48860   5.268   9.150  11.250  0.8594 -0.1993  0.4246
  371MOL0     C48861   5.324   9.273  11.167  0.1904 -0.0395  0.8688
  371MOL0     C48862   5.457   9.319  11.229 -0.8434  0.2931 -0.0263
  371MOL0     C48863   5.530   9.419  11.138 -0.6694  0.1683 -0.4462
  371MOL0     O48864   5.657   9.460  11.191  0.2583 -0.2444 -0.3281
  371MOL0     C48865   5.740   9.519  11.110 -0.3298 -0.1412 -0.1099
  371MOL0     C48866   5.724   9.570  10.982 -0.5452  0.4966  0.1195
  371MOL0     C48867   5.836   9.615  10.900 -0.2829  1.1921 -0.7125
  371MOL0     C48868   5.963   9.624  10.966 -0.2533  0.5793 -0.9909
  371MOL0     C48869   6.088   9.655  10.892  0.1886 -0.8022  0.5940
  371MOL0     O48870   6.085   9.641  10.760  0.5751 -0.2120 -0.2521
  371MOL0     C48871   6.179   9.650  10.667 -0.1811 -1.1999 -0.3891
  371MOL0     C48872   6.315   9.631  10.680 -0.1015  0.7016 -0.0969
  371MOL0     C48873   6.405   9.631  10.574 -0.1451 -0.3257 -0.3096
  371MOL0     C48874   6.360   9.669  10.445  0.4118  0.7435  0.2924
  371MOL0     O48875   6.432   9.666  10.331 -0.2558  0.6702  0.6576
  371MOL0     C48876   6.573   9.692  10.338 -0.0237 -0.5998  0.5184
  371MOL0     C48877   6.628   9.645  10.202  0.9130  0.0162  0.3998
  371MOL0     C48878   6.780   9.644  10.197 -0.8827  0.2587 -0.1941
  371MOL0     C48879   6.854   9.560  10.097 -0.2693  0.3783  0.9418
  371MOL0     C48880   7.010   9.578  10.107  0.6519  0.5552  0.4086
  371MOL0     C48881   7.079   9.494   9.994  0.5935  0.0205 -0.1373
  371MOL0     C48882   7.235   9.518   9.988  0.2361 -0.2118 -0.5752
  371MOL0     C48883   7.284   9.655   9.985 -0.3628 -0.6471 -0.0621
  371MOL0    Cl48884   7.218   9.754   9.851 -0.2086  0.5955  0.3196
  371MOL0     C48885   6.220   9.672  10.425  0.1451  0.0816 -0.4324
  371MOL0     C48886   6.130   9.662  10.532  0.3210 -0.3124  0.1543
  371MOL0     O48887   6.178   9.702  10.951  0.8514  0.0690 -0.5430
  371MOL0     C48888   5.975   9.593  11.103 -0.1794  0.4417 -0.6462
  371MOL0     C48889   5.864   9.533  11.172 -0.9611 -0.0314  0.4328
  371MOL0     N48890   5.246   8.970  11.076 -0.1201 -0.3431 -0.0615
  371MOL0     N48891   5.303   8.861  11.045 -0.4603  0.1273 -0.3959
  371MOL0     C48892   6.246   9.043  10.623 -0.2990  0.0843  0.0282
  371MOL0     C48893   6.370   9.041  10.559 -0.4823 -0.5253 -0.2123
  371MOL0     C48894   6.772   9.203  10.375 -0.4029  0.3402 -0.2508
  371MOL0     C48895   6.882   9.280  10.374 -0.1763 -0.1165 -0.0418
  371MOL0     C48896   6.987   9.266  10.286  0.9563  0.3865  0.4468
  371MOL0     C48897   6.977   9.165  10.192 -0.4051  0.1388 -0.8391
  371MOL0     O48898   7.082   9.115  10.110 -0.8239 -0.6399  0.0636
  371MOL0     C48899   7.220   9.160  10.128 -0.3587 -0.4059 -0.5744
  371MOL0     C48900   7.308   9.036  10.108  0.1626 -0.8394 -0.3526
  371MOL0     C48901   7.458   9.057  10.068  0.5938  0.4613  1.7358
  371MOL0     C48902   7.543   9.118  10.174  0.2205  0.2914  0.1493
  371MOL0     C48903   7.669   9.133  10.115 -0.0318 -0.0182 -0.2012
  371MOL0     C48904   7.783   9.139  10.080 -0.0080  0.2110  0.2362
  371MOL0     C48905   6.859   9.087  10.182  0.6740 -0.9476  0.2824
  371MOL0     C48906   6.764   9.101  10.277  0.6257  0.2475 -0.7705
  371MOL0     H48907   6.428   9.367  10.510  2.0103 -1.9293 -1.7179
  371MOL0     H48908   6.208   9.382  10.625 -2.4101 -1.5040 -0.6207
  371MOL0     H48909   6.038   9.368  10.755 -0.0789 -2.7559 -4.4770
  371MOL0     H48910   6.125   9.263  10.864  2.6097  2.4514 -2.0358
  371MOL0     H48911   5.849   9.169  10.813 -4.1825  0.7301  1.5978
  371MOL0     H48912   5.855   9.334  10.904  1.6463  0.1101  0.8860
  371MOL0     H48913   5.858   9.168  11.074 -0.8480 -1.3344 -1.4975
  371MOL0     H48914   6.024   9.208  11.060 -0.7193  0.4488  1.4111
  371MOL0     H48915   6.042   8.996  10.892 -4.2513 -0.0183 -3.5351
  371MOL0     H48916   6.001   8.958  11.059 -0.9303 -0.4036  0.6706
  371MOL0     H48917   5.912   8.829  10.889 -1.3463 -1.0391 -0.4609
  371MOL0     H48918   5.810   8.957  10.821  1.2844 -1.9007 -1.5544
  371MOL0     H48919   5.703   8.987  11.056 -1.4226  0.1278 -0.4462
  371MOL0     H48920   5.795   8.856  11.109  0.5570  2.8256  0.1920
  371MOL0     H48921   5.577   8.843  10.892 -0.8054 -1.4629  0.8501
  371MOL0     H48922   5.679   8.713  10.920 -2.2440  0.1675 -2.0022
  371MOL0     H48923   5.586   8.732  11.166  0.3497  0.6428  0.2012
  371MOL0     H48924   5.488   8.665  11.035 -0.5243  1.6504 -0.7609
  371MOL0     H48925   5.517   8.986  11.253  0.3760 -0.9401 -0.9355
  371MOL0     H48926   5.308   9.150  11.352  1.7807 -1.4247  0.0866
  371MOL0     H48927   5.159   9.144  11.244  0.9833 -1.4526 -1.0038
  371MOL0     H48928   5.248   9.351  11.157 -0.0650 -0.2721  0.9737
  371MOL0     H48929   5.339   9.236  11.065 -1.6590 -1.9157  1.2173
  371MOL0     H48930   5.435   9.352  11.331 -0.2140  0.2872  0.1189
  371MOL0     H48931   5.528   9.242  11.261  0.2685  1.2786 -0.0714
  371MOL0     H48932   5.468   9.510  11.136  1.5775  1.9483  2.6491
  371MOL0     H48933   5.533   9.383  11.035 -1.5291 -1.7358  0.1401
  371MOL0     H48934   5.624   9.564  10.941 -2.6355 -0.3957  4.8015
  371MOL0     H48935   5.834   9.631  10.793  2.0158 -0.7354 -1.1176
  371MOL0     H48936   6.340   9.611  10.784 -1.1295 -1.2610 -0.1780
  371MOL0     H48937   6.504   9.601  10.606  0.8333  2.3529 -0.5062
  371MOL0     H48938   6.614   9.635  10.422 -1.4753  0.2216  1.8617
  371MOL0     H48939   6.590   9.798  10.357  0.1335 -0.0874 -2.1437
  371MOL0     H48940   6.592   9.711  10.122 -0.0203 -0.6962  0.2139
  371MOL0     H48941   6.596   9.543  10.178 -0.0082  0.6649 -1.3528
  371MOL0     H48942   6.815   9.615  10.297  1.5059 -1.7691 -1.4830
  371MOL0     H48943   6.811   9.749  10.193 -0.6052  0.1351 -1.6560
  371MOL0     H48944   6.837   9.456  10.125  0.6638  0.7832  3.1968
  371MOL0     H48945   6.816   9.576   9.996 -0.4067  0.8597  1.0693
  371MOL0     H48946   7.047   9.547  10.205 -1.5242 -2.5207  0.4105
  371MOL0     H48947   7.038   9.682  10.087  2.0287  0.2616  0.6956
  371MOL0     H48948   7.046   9.507   9.891  3.6065  1.4119 -1.0509
  371MOL0     H48949   7.059   9.388  10.013  0.9997 -0.2601 -1.1712
  371MOL0     H48950   7.284   9.467  10.072  0.3862  0.0248 -0.5182
  371MOL0     H48951   7.275   9.476   9.896  2.2258  2.3042 -0.9980
  371MOL0     H48952   7.393   9.652   9.983 -0.3367 -0.0532 -3.1773
  371MOL0     H48953   7.253   9.710  10.075 -1.9862  1.6970 -1.9330
  371MOL0     H48954   6.174   9.679  10.326 -2.1131  2.0700  0.6497
  371MOL0     H48955   6.022   9.667  10.524  0.3914  0.1508 -0.6687
  371MOL0     H48956   6.071   9.580  11.152  0.1369 -0.0402 -1.3800
  371MOL0     H48957   5.883   9.488  11.268 -0.3842 -2.5117 -0.7718
  371MOL0     H48958   6.202   8.947  10.650  3.0534 -1.7776 -0.4531
  371MOL0     H48959   6.409   8.942  10.535  1.6126  0.3352 -0.5447
  371MOL0     H48960   6.891   9.368  10.435  3.1064  0.1015 -0.6722
  371MOL0     H48961   7.070   9.334  10.299  1.8436 -0.9478  2.1735
  371MOL0     H48962   7.237   9.194  10.231  0.3864  0.5196 -0.9889
  371MOL0     H48963   7.244   9.238  10.055  1.5160  0.9006  1.3073
  371MOL0     H48964   7.313   8.974  10.198 -0.6092 -0.1458  0.1809
  371MOL0     H48965   7.258   8.980  10.028  2.6602 -1.4785 -1.5993
  371MOL0     H48966   7.452   9.127   9.984  1.1536 -0.4293  0.9449
  371MOL0     H48967   7.498   8.966  10.024  5.1729  2.9231  0.0719
  371MOL0     H48968   7.510   9.218  10.204 -0.3856  0.5865 -1.4486
  371MOL0     H48969   7.554   9.054  10.263  0.7945  0.5698  0.2849
  371MOL0     H48970   7.880   9.142  10.034 -0.1910 -1.5682 -0.3214
  371MOL0     H48971   6.851   9.020  10.097 -3.1584 -1.6287  0.9898
  371MOL0     H48972   6.677   9.040  10.254 -1.5468  1.8767  2.3587
  372MOL0     O48973   1.810   7.700   9.258  0.3894  0.2905 -0.3746
  372MOL0     C48974   1.875   7.725   9.157  0.2255  0.0536  0.0314
  372MOL0     O48975   1.899   7.846   9.118 -0.6071  0.1591 -0.8334
  372MOL0     C48976   1.822   7.948   9.177  0.3027 -0.3798 -0.6153
  372MOL0     C48977   1.860   8.013   9.298  0.1343  0.8311  1.0051
  372MOL0     C48978   1.781   8.112   9.347  0.2227  0.6889  0.5216
  372MOL0     C48979   1.671   8.167   9.271  0.1178  0.3558 -0.2391
  372MOL0     O48980   1.585   8.259   9.321  0.3298 -0.1324 -0.7306
  372MOL0     C48981   1.627   8.357   9.420  0.4979  0.1732  0.4061
  372MOL0     C48982   1.746   8.446   9.366  0.1203 -0.4343 -0.4519
  372MOL0     C48983   1.702   8.533   9.251  0.0106  0.9310  0.0092
  372MOL0     C48984   1.810   8.624   9.205 -0.3698 -0.8382  0.1939
  372MOL0     C48985   1.782   8.698   9.077 -0.0039 -0.6208  0.0758
  372MOL0     C48986   1.874   8.812   9.045 -0.0989 -0.4965 -0.0238
  372MOL0     C48987   2.018   8.773   9.000 -0.0592 -0.0619 -0.8256
  372MOL0     C48988   2.108   8.832   9.110 -0.2156 -0.1391 -0.0386
  372MOL0     N48989   2.247   8.772   9.090 -0.2164 -0.2965 -0.1042
  372MOL0     C48990   2.310   8.687   9.181  0.4531 -0.3802 -0.0764
  372MOL0     C48991   2.431   8.673   9.129 -0.6259  0.1643 -0.6980
  372MOL0     C48992   2.544   8.595   9.204  0.7898 -0.6862 -0.6576
  372MOL0     C48993   2.675   8.657   9.170 -0.9111  0.3505 -0.6561
  372MOL0     C48994   2.791   8.578   9.220 -0.8021  0.3307 -0.8572
  372MOL0     C48995   2.889   8.646   9.304 -0.3405 -0.4856 -0.2703
  372MOL0     O48996   2.824   8.697   9.413  0.2254  0.4294  0.2007
  372MOL0     C48997   2.884   8.789   9.498 -0.2821  0.4621  0.3828
  372MOL0     C48998   3.017   8.840   9.477 -0.3816  0.9215  0.2397
  372MOL0     C48999   3.080   8.915   9.580  0.1866  0.1912 -0.9096
  372MOL0     C49000   3.015   8.941   9.700 -0.8254 -0.6641 -0.1875
  372MOL0     C49001   3.086   9.004   9.814 -0.4741 -0.3761 -0.3299
  372MOL0     O49002   3.006   9.025   9.924 -0.6156 -0.7663 -0.8189
  372MOL0     C49003   3.080   9.028  10.039 -0.3632 -0.6617  0.1097
  372MOL0     C49004   3.099   9.148  10.105 -0.0835  0.0347  0.0227
  372MOL0     C49005   3.170   9.148  10.228  0.1534 -0.2537  0.3322
  372MOL0     C49006   3.249   9.039  10.265 -0.7556  0.3943 -0.3456
  372MOL0     O49007   3.349   9.046  10.363  0.1951  0.2894 -0.6734
  372MOL0     C49008   3.362   9.167  10.436  0.4990 -0.0439  0.0649
  372MOL0     C49009   3.489   9.147  10.516 -0.8772  0.7617  0.5438
  372MOL0     C49010   3.551   9.010  10.536 -1.1627  0.0053 -0.6576
  372MOL0     C49011   3.683   9.014  10.615  0.7756  1.0877  0.1286
  372MOL0     C49012   3.802   9.072  10.538 -0.4895  0.1273 -0.6886
  372MOL0     C49013   3.941   9.068  10.618 -0.0933 -0.0893  0.3594
  372MOL0     C49014   4.052   9.129  10.536  0.9487  0.1368  0.4793
  372MOL0     C49015   4.182   9.149  10.608 -0.6224  0.4549 -0.4635
  372MOL0    Cl49016   4.249   8.983  10.654 -0.1455  0.1673  0.1148
  372MOL0     C49017   3.233   8.924  10.199 -0.1860 -0.2496 -0.3284
  372MOL0     C49018   3.146   8.915  10.094 -0.4130  0.5024  1.2414
  372MOL0     O49019   3.208   9.023   9.812 -0.4316  0.3889 -0.6081
  372MOL0     C49020   2.886   8.895   9.713  0.3932 -0.6573 -0.4328
  372MOL0     C49021   2.816   8.818   9.621  0.3796 -0.4289  0.6936
  372MOL0     N49022   2.444   8.754   9.014 -0.3449 -0.6443  0.5964
  372MOL0     N49023   2.337   8.821   9.003 -0.5331 -0.5287  0.3271
  372MOL0     C49024   1.644   8.107   9.147  0.2431 -0.1350  0.3228
  372MOL0     C49025   1.719   7.999   9.106  0.1693  0.1735  0.2923
  372MOL0     C49026   1.918   7.614   9.076 -0.5950 -0.2980 -0.9425
  372MOL0     C49027   1.925   7.481   9.127 -0.2930  0.3183 -0.0387
  372MOL0     C49028   1.973   7.372   9.046  0.1738  0.5266 -0.2575
  372MOL0     C49029   1.988   7.390   8.908  0.3802  0.3799 -0.6378
  372MOL0     O49030   1.999   7.283   8.828 -0.5365  0.1755 -0.4511
  372MOL0     C49031   1.880   7.246   8.753 -0.0325 -0.0708 -0.0867
  372MOL0     C49032   1.793   7.151   8.838 -0.1083  0.4046 -0.2581
  372MOL0     C49033   1.847   7.008   8.835  1.1618 -0.3165  1.0002
  372MOL0     C49034   1.950   6.982   8.947 -0.2186 -0.5152  0.1794
  372MOL0     C49035   2.034   6.861   8.920  0.8084  0.2729  0.3783
  372MOL0     C49036   2.098   6.758   8.890  0.0961 -0.8754  0.0949
  372MOL0     C49037   1.987   7.525   8.857  0.4578 -0.1312  0.5086
  372MOL0     C49038   1.957   7.630   8.942  1.3952  0.1446 -0.0450
  372MOL0     H49039   1.947   7.977   9.351  1.0792 -0.8034 -1.4685
  372MOL0     H49040   1.808   8.162   9.440  0.5705  1.5735 -0.0422
  372MOL0     H49041   1.666   8.316   9.513 -1.5477  1.4005  1.8810
  372MOL0     H49042   1.542   8.422   9.440 -0.6370 -0.9005 -0.7961
  372MOL0     H49043   1.826   8.379   9.332 -1.0942 -1.9522 -0.4044
  372MOL0     H49044   1.791   8.506   9.445 -0.5861  0.1282 -0.4715
  372MOL0     H49045   1.615   8.592   9.281 -2.1229 -0.7928 -2.3270
  372MOL0     H49046   1.668   8.461   9.176 -0.6728 -1.5198  2.5108
  372MOL0     H49047   1.842   8.697   9.280  0.4664 -0.6174 -0.3667
  372MOL0     H49048   1.900   8.563   9.195  1.4784  1.9026 -1.2450
  372MOL0     H49049   1.681   8.739   9.076  0.8977  1.9061 -3.1109
  372MOL0     H49050   1.782   8.629   8.992  0.0278  2.5999 -2.7137
  372MOL0     H49051   1.878   8.888   9.124 -2.3335  0.1598 -0.4568
  372MOL0     H49052   1.831   8.866   8.960  1.3413  1.2190  0.2761
  372MOL0     H49053   2.033   8.665   8.995  0.4804  0.0080 -0.7776
  372MOL0     H49054   2.038   8.821   8.904 -0.3575  2.8102  0.4529
  372MOL0     H49055   2.071   8.806   9.209 -2.6683  1.4396 -0.4654
  372MOL0     H49056   2.114   8.940   9.094  0.0760 -0.0329  0.7295
  372MOL0     H49057   2.263   8.635   9.265  0.1515  0.6807  0.4357
  372MOL0     H49058   2.528   8.492   9.171 -4.6597 -0.5068  0.5162
  372MOL0     H49059   2.523   8.594   9.312 -1.1241  0.8572 -0.9711
  372MOL0     H49060   2.678   8.759   9.208  4.4226 -0.2601  1.3852
  372MOL0     H49061   2.688   8.664   9.062 -1.5377  0.1594 -0.7509
  372MOL0     H49062   2.759   8.487   9.272 -1.3414  1.5398  1.0302
  372MOL0     H49063   2.842   8.537   9.132 -0.4086 -0.7686 -0.1419
  372MOL0     H49064   2.936   8.725   9.244  2.1979 -1.3874  0.4043
  372MOL0     H49065   2.956   8.572   9.347 -2.6527 -2.2011  0.6040
  372MOL0     H49066   3.072   8.807   9.388  0.9671 -0.3682  1.4808
  372MOL0     H49067   3.179   8.949   9.550  1.4834 -2.5331 -0.0322
  372MOL0     H49068   3.051   9.237  10.064 -0.5830 -0.6616 -0.9446
  372MOL0     H49069   3.182   9.240  10.284 -1.8439  1.2489 -1.5173
  372MOL0     H49070   3.279   9.182  10.505  0.8872  0.5888  0.4044
  372MOL0     H49071   3.373   9.245  10.361  0.0925 -0.3105 -0.2700
  372MOL0     H49072   3.477   9.189  10.616  1.1938 -1.1354  1.6952
  372MOL0     H49073   3.566   9.213  10.473  0.4908  0.4393  2.4011
  372MOL0     H49074   3.580   8.979  10.435  3.3722  0.8244  0.1621
  372MOL0     H49075   3.484   8.935  10.580 -0.4917 -1.2205 -1.6804
  372MOL0     H49076   3.664   9.075  10.704 -0.0385 -0.3678  0.9932
  372MOL0     H49077   3.712   8.917  10.656  3.2989  1.0520 -1.5111
  372MOL0     H49078   3.777   9.175  10.513 -0.4568 -0.1787 -2.0296
  372MOL0     H49079   3.822   9.012  10.449 -0.5879  2.0470 -2.0477
  372MOL0     H49080   3.973   8.967  10.644  0.5898  0.6106  2.4322
  372MOL0     H49081   3.930   9.130  10.708 -4.3857 -0.8517  0.5683
  372MOL0     H49082   4.061   9.076  10.441  0.8831  1.7025 -0.4351
  372MOL0     H49083   4.017   9.226  10.499 -2.2243 -1.2374 -0.3475
  372MOL0     H49084   4.173   9.207  10.700  3.1504  1.1743 -0.4137
  372MOL0     H49085   4.253   9.202  10.544  0.7084  0.4208  0.9262
  372MOL0     H49086   3.307   8.851  10.231  1.1290  0.5818 -1.3667
  372MOL0     H49087   3.142   8.819  10.043 -0.9272  1.7192 -1.1278
  372MOL0     H49088   2.825   8.917   9.801  0.1358 -2.6213 -0.0565
  372MOL0     H49089   2.712   8.788   9.629 -0.8059  2.3956 -1.9452
  372MOL0     H49090   1.558   8.142   9.092  1.4391  4.8851  1.1468
  372MOL0     H49091   1.701   7.941   9.016 -0.9462 -0.0977  0.6754
  372MOL0     H49092   1.907   7.455   9.231 -1.8073 -1.0422 -0.5922
  372MOL0     H49093   1.969   7.271   9.085  2.0732  1.5224  2.9290
  372MOL0     H49094   1.914   7.198   8.661 -2.4796 -2.1290 -0.0086
  372MOL0     H49095   1.818   7.334   8.733  0.7516  0.4873 -0.1299
  372MOL0     H49096   1.778   7.199   8.935 -2.8438  0.1561 -0.4715
  372MOL0     H49097   1.691   7.153   8.799 -0.4658 -0.3423  0.5917
  372MOL0     H49098   1.893   6.995   8.736 -2.7389 -3.2222 -0.6877
  372MOL0     H49099   1.759   6.945   8.846 -0.5820  2.2008  2.3583
  372MOL0     H49100   2.019   7.067   8.949  1.2208 -1.6180 -0.6451
  372MOL0     H49101   1.907   6.972   9.047  1.0596 -2.3901  0.6026
  372MOL0     H49102   2.146   6.668   8.856 -0.0864 -0.8586 -0.2134
  372MOL0     H49103   1.995   7.541   8.750 -2.7358 -3.2370 -0.3807
  372MOL0     H49104   1.932   7.725   8.897 -0.7017 -1.3015 -2.1936
  373MOL0     O49105   7.053   6.947   0.047 -0.7358 -0.6998  0.1076
  373MOL0     C49106   7.114   6.886  -0.040  0.5453  0.6198  0.5431
  373MOL0     O49107   7.141   6.929  -0.173 -0.8252  0.2643  0.1275
  373MOL0     C49108   7.067   7.025  -0.234 -0.5496  0.7948 -0.8687
  373MOL0     C49109   6.925   7.004  -0.252 -0.3615 -1.4477 -0.0682
  373MOL0     C49110   6.848   7.095  -0.326  0.0663 -0.5626 -0.1012
  373MOL0     C49111   6.909   7.218  -0.376  0.4509  1.2567 -0.1655
  373MOL0     O49112   6.835   7.308  -0.438  0.3817 -0.4106 -0.4484
  373MOL0     C49113   6.728   7.271  -0.523 -0.0845  0.0703  0.6632
  373MOL0     C49114   6.744   7.347  -0.655  0.8253  0.1548 -0.3423
  373MOL0     C49115   6.885   7.332  -0.727 -0.6855 -0.9527 -0.3503
  373MOL0     C49116   6.942   7.199  -0.757  0.5958  0.3203 -0.2255
  373MOL0     C49117   7.041   7.212  -0.868 -0.0237  0.1936 -0.4298
  373MOL0     C49118   7.173   7.286  -0.833  0.8838 -1.4626  0.5889
  373MOL0     C49119   7.242   7.226  -0.720 -0.1627 -0.5541 -0.4861
  373MOL0     C49120   7.393   7.237  -0.738 -0.0014 -0.0475 -0.2774
  373MOL0     N49121   7.435   7.380  -0.744 -0.0853 -0.5814 -0.6251
  373MOL0     C49122   7.496   7.446  -0.848 -0.7808 -0.5396 -0.4288
  373MOL0     C49123   7.496   7.573  -0.813  0.6120 -0.3309  0.6980
  373MOL0     C49124   7.547   7.682  -0.898  0.1747 -0.0677  0.6881
  373MOL0     C49125   7.703   7.702  -0.896 -0.0654  1.0286  0.3547
  373MOL0     C49126   7.753   7.735  -0.748 -0.1371  0.6977 -0.8162
  373MOL0     C49127   7.874   7.821  -0.766 -0.6956  1.1347 -0.1191
  373MOL0     O49128   7.971   7.740  -0.835  1.1181  0.5489  0.0197
  373MOL0     C49129   8.101   7.784  -0.863  0.9345  0.2855  0.0043
  373MOL0     C49130   8.156   7.909  -0.830  0.2235 -0.6059  0.1255
  373MOL0     C49131   8.291   7.934  -0.866  0.6783 -0.4408  0.1904
  373MOL0     C49132   8.371   7.826  -0.903  0.1042  0.7889  0.7709
  373MOL0     C49133   8.510   7.859  -0.942  0.3694 -0.0004 -0.0851
  373MOL0     O49134   8.589   7.746  -0.926  0.4491 -1.2467 -0.0254
  373MOL0     C49135   8.718   7.754  -0.961 -0.4904 -0.5995  0.2333
  373MOL0     C49136   8.762   7.801  -1.092  0.3233  0.4757 -0.2869
  373MOL0     C49137   8.898   7.795  -1.122 -0.0612  0.0108 -0.3446
  373MOL0     C49138   8.997   7.752  -1.030  0.0941 -0.4819  0.0507
  373MOL0     O49139   9.120   7.759  -1.074 -0.2133  0.3188  0.5123
  373MOL0     C49140   9.230   7.740  -0.988 -0.0413  0.5518 -0.1203
  373MOL0     C49141   9.356   7.754  -1.086 -0.2389 -0.3672 -0.0791
  373MOL0     C49142   9.361   7.639  -1.175  0.3434  0.3904  0.5680
  373MOL0     C49143   9.467   7.636  -1.274  0.0478 -1.2955  0.1279
  373MOL0     C49144   9.610   7.631  -1.228  0.3671 -0.8325  0.7678
  373MOL0     C49145   9.624   7.513  -1.140 -0.1413  0.0874 -1.0604
  373MOL0     C49146   9.767   7.460  -1.135 -0.3907  0.2225  0.3250
  373MOL0     C49147   9.859   7.524  -1.039  0.6313 -0.5018 -0.4101
  373MOL0    Cl49148   9.929   7.676  -1.106  0.1733 -0.0967  0.0325
  373MOL0     C49149   8.956   7.722  -0.906 -0.7056 -0.3041 -0.0952
  373MOL0     C49150   8.823   7.727  -0.874 -0.2252  1.0082  0.2422
  373MOL0     O49151   8.550   7.973  -0.958 -0.3210  0.7056 -0.2554
  373MOL0     C49152   8.312   7.696  -0.929  0.3816 -0.2470 -0.3189
  373MOL0     C49153   8.178   7.680  -0.911  0.0258  0.0248  0.0193
  373MOL0     N49154   7.435   7.580  -0.684 -0.1210  0.1019  0.5013
  373MOL0     N49155   7.396   7.465  -0.644 -0.0097  0.1864  0.4403
  373MOL0     C49156   7.047   7.222  -0.376 -0.1099  0.8645  0.2500
  373MOL0     C49157   7.126   7.124  -0.311 -0.2117  0.8307  0.5137
  373MOL0     C49158   7.178   6.758   0.000  0.2997  0.0421 -0.1398
  373MOL0     C49159   7.227   6.667  -0.097 -0.1368 -0.0318 -0.0406
  373MOL0     C49160   7.300   6.557  -0.064  0.0988  0.1955  0.7921
  373MOL0     C49161   7.339   6.544   0.073  0.1258 -0.5844  0.4457
  373MOL0     O49162   7.441   6.452   0.093 -0.7057 -0.0826  0.1421
  373MOL0     C49163   7.487   6.410   0.219 -0.1528 -0.3649 -0.2149
  373MOL0     C49164   7.618   6.331   0.203  0.1991  0.7523  0.1633
  373MOL0     C49165   7.608   6.199   0.115  0.5806  0.7250 -0.2332
  373MOL0     C49166   7.728   6.109   0.119 -0.2555 -0.2487 -0.0518
  373MOL0     C49167   7.703   5.994   0.038 -0.3814  0.1001 -0.0165
  373MOL0     C49168   7.695   5.890  -0.029 -0.4627  0.1866 -0.7211
  373MOL0     C49169   7.283   6.627   0.170  0.2929  0.3189  0.9465
  373MOL0     C49170   7.205   6.730   0.135 -0.0635 -0.8967  0.3730
  373MOL0     H49171   6.876   6.913  -0.217 -1.8788 -1.0032 -0.9381
  373MOL0     H49172   6.743   7.071  -0.336  0.0048 -0.7094  0.8356
  373MOL0     H49173   6.641   7.312  -0.471  1.8668  1.9893  2.6232
  373MOL0     H49174   6.707   7.165  -0.538 -0.6260  0.1091  1.0945
  373MOL0     H49175   6.745   7.453  -0.628  3.6484  0.1157 -0.0008
  373MOL0     H49176   6.663   7.331  -0.727 -0.8565  2.4600  0.9028
  373MOL0     H49177   6.957   7.388  -0.667 -2.0309  0.1314  0.3228
  373MOL0     H49178   6.871   7.391  -0.818 -0.9335  0.4202  0.5384
  373MOL0     H49179   6.971   7.150  -0.664  0.2022 -0.5028 -0.5166
  373MOL0     H49180   6.868   7.127  -0.795 -0.3331  1.0306  0.1911
  373MOL0     H49181   6.998   7.268  -0.951  1.0567 -1.4630 -2.1990
  373MOL0     H49182   7.063   7.114  -0.912 -5.4368  0.3957 -4.8071
  373MOL0     H49183   7.146   7.387  -0.803 -2.8202 -2.4746  1.2169
  373MOL0     H49184   7.228   7.280  -0.927 -2.3598 -2.7954 -1.3925
  373MOL0     H49185   7.213   7.278  -0.628  1.6603  1.5110 -0.9914
  373MOL0     H49186   7.216   7.120  -0.713  0.9796 -0.7793  0.7530
  373MOL0     H49187   7.438   7.181  -0.820  1.3245 -0.4728  0.6981
  373MOL0     H49188   7.435   7.195  -0.645 -2.3784 -0.9009  0.4810
  373MOL0     H49189   7.531   7.405  -0.942  2.6078 -0.2692  0.5456
  373MOL0     H49190   7.505   7.779  -0.870 -0.1970 -0.1624  0.4580
  373MOL0     H49191   7.514   7.660  -1.000  0.5307 -0.8206  0.7286
  373MOL0     H49192   7.743   7.774  -0.968 -1.8221  1.0960 -0.6014
  373MOL0     H49193   7.748   7.604  -0.916 -2.0067 -0.3520  2.2312
  373MOL0     H49194   7.678   7.789  -0.691  0.8551  1.9317 -0.6383
  373MOL0     H49195   7.776   7.645  -0.690 -3.0216  0.1488 -0.4047
  373MOL0     H49196   7.927   7.856  -0.677 -0.2889  4.0591 -1.3835
  373MOL0     H49197   7.855   7.914  -0.821  1.1211  1.3819 -0.3866
  373MOL0     H49198   8.082   7.975  -0.788  0.7151 -0.6907  1.1529
  373MOL0     H49199   8.317   8.037  -0.847 -0.1473  0.1182 -1.4939
  373MOL0     H49200   8.688   7.841  -1.161  0.0730  3.3056  1.4457
  373MOL0     H49201   8.946   7.818  -1.217  1.8225 -0.5512  0.4280
  373MOL0     H49202   9.232   7.638  -0.948 -0.9851  0.1218 -1.1020
  373MOL0     H49203   9.234   7.810  -0.905  0.5322  0.0559  0.2777
  373MOL0     H49204   9.452   7.764  -1.034 -0.2749 -1.9970  0.3484
  373MOL0     H49205   9.341   7.844  -1.146 -4.3921  0.0372  1.2230
  373MOL0     H49206   9.267   7.656  -1.227 -0.3921  0.0178  1.7387
  373MOL0     H49207   9.357   7.541  -1.127 -2.0469  0.1887  0.0488
  373MOL0     H49208   9.449   7.542  -1.327  0.9067 -1.1501 -0.4316
  373MOL0     H49209   9.459   7.712  -1.353 -3.0993 -0.5960  0.9630
  373MOL0     H49210   9.649   7.727  -1.192 -1.8282  0.4982 -0.1811
  373MOL0     H49211   9.656   7.616  -1.326 -3.6308 -1.0426 -1.2802
  373MOL0     H49212   9.561   7.432  -1.178 -1.1099  0.5560 -0.4790
  373MOL0     H49213   9.599   7.528  -1.035  0.8684  0.4490 -0.8613
  373MOL0     H49214   9.772   7.352  -1.118 -0.1205  0.2856  0.6564
  373MOL0     H49215   9.811   7.485  -1.232  0.4966 -1.0664  0.3664
  373MOL0     H49216   9.936   7.447  -1.026  0.4137 -0.7335 -0.4751
  373MOL0     H49217   9.813   7.555  -0.945 -1.0338 -0.5009 -1.1813
  373MOL0     H49218   9.027   7.688  -0.831  0.2230 -0.1702 -0.8895
  373MOL0     H49219   8.806   7.699  -0.770  3.0148  1.3105  0.9591
  373MOL0     H49220   8.364   7.605  -0.960  1.8323  0.1189  0.8829
  373MOL0     H49221   8.143   7.578  -0.926  2.9114 -0.8943 -1.1300
  373MOL0     H49222   7.096   7.311  -0.415  1.0045 -0.5624 -1.8198
  373MOL0     H49223   7.234   7.137  -0.305  0.0266 -0.4569 -0.5511
  373MOL0     H49224   7.221   6.684  -0.204  1.6563 -1.1445 -0.3587
  373MOL0     H49225   7.324   6.492  -0.147 -0.0132  0.4122  0.5931
  373MOL0     H49226   7.400   6.362   0.264 -1.0735  2.3408  1.1787
  373MOL0     H49227   7.507   6.490   0.292  0.2510 -1.2896  0.7143
  373MOL0     H49228   7.685   6.404   0.156 -1.7834  2.9575  0.5564
  373MOL0     H49229   7.651   6.300   0.302  1.7906 -0.0425 -0.5811
  373MOL0     H49230   7.605   6.232   0.011 -0.0488 -4.8194 -2.3359
  373MOL0     H49231   7.509   6.156   0.133  1.2433 -0.9230 -0.2939
  373MOL0     H49232   7.816   6.154   0.072 -0.7959 -1.0603 -1.9050
  373MOL0     H49233   7.756   6.078   0.220  0.0297  1.0245  0.2746
  373MOL0     H49234   7.683   5.801  -0.087 -2.9593 -1.7530  2.4470
  373MOL0     H49235   7.302   6.606   0.275 -0.7861 -2.5807  0.6388
  373MOL0     H49236   7.171   6.804   0.207 -2.0987 -0.7536 -0.6627
  374MOL0     O49237   5.951   3.933   5.043 -0.1993 -0.8855  0.2278
  374MOL0     C49238   6.013   4.041   5.013  0.9080 -0.2621 -0.9665
  374MOL0     O49239   5.953   4.161   4.987 -0.3248  0.0207  0.3423
  374MOL0     C49240   5.820   4.190   5.015  0.8149  0.7599 -0.4438
  374MOL0     C49241   5.762   4.141   5.136 -0.6307 -0.6814 -0.5391
  374MOL0     C49242   5.638   4.175   5.174  0.1593 -0.1021  0.2315
  374MOL0     C49243   5.571   4.266   5.099  0.4091 -0.5103 -0.5613
  374MOL0     O49244   5.446   4.303   5.147 -0.3218 -0.3700  0.9523
  374MOL0     C49245   5.358   4.367   5.058  0.2845 -0.6756 -0.4482
  374MOL0     C49246   5.221   4.367   5.118 -1.9595 -0.0747 -0.6875
  374MOL0     C49247   5.109   4.416   5.038  0.4115  0.1355  0.0823
  374MOL0     C49248   4.968   4.425   5.103  0.6916 -0.1355 -0.4740
  374MOL0     C49249   4.863   4.484   5.000 -0.8965  0.4541 -0.0278
  374MOL0     C49250   4.720   4.465   5.058 -1.1658  0.1858 -0.3280
  374MOL0     C49251   4.619   4.532   4.957  0.2715 -0.2595 -0.5687
  374MOL0     C49252   4.480   4.556   5.024 -0.8169 -0.3394 -0.1309
  374MOL0     N49253   4.379   4.609   4.929 -0.3153  0.3153  0.7217
  374MOL0     C49254   4.290   4.529   4.871  0.3447  1.0052  0.1636
  374MOL0     C49255   4.208   4.608   4.796  0.0572 -0.1054  0.2754
  374MOL0     C49256   4.102   4.556   4.712 -0.2348  0.5578 -0.6029
  374MOL0     C49257   4.166   4.524   4.580 -0.0851  0.1915 -0.9494
  374MOL0     C49258   4.104   4.396   4.514 -0.3217 -0.7288 -0.6627
  374MOL0     C49259   3.946   4.401   4.503 -0.1883 -0.2546  0.7332
  374MOL0     O49260   3.915   4.273   4.444 -0.1778 -0.1363  0.4782
  374MOL0     C49261   3.777   4.257   4.443  0.5469  1.0782 -0.1238
  374MOL0     C49262   3.724   4.134   4.482 -0.6066 -1.3304 -0.6261
  374MOL0     C49263   3.586   4.113   4.480  0.0272 -0.1060  0.0575
  374MOL0     C49264   3.495   4.208   4.424  0.0154 -0.1054  0.0167
  374MOL0     C49265   3.353   4.173   4.427 -0.4072  0.1146 -0.8200
  374MOL0     O49266   3.259   4.270   4.400 -0.1279 -0.5453 -0.2708
  374MOL0     C49267   3.120   4.260   4.417  0.7238 -0.1602 -0.2888
  374MOL0     C49268   3.048   4.372   4.469 -0.9743  0.1750  0.3012
  374MOL0     C49269   2.908   4.352   4.494  0.1447 -0.4757  0.1157
  374MOL0     C49270   2.841   4.235   4.472  0.6091 -0.0136  0.3711
  374MOL0     O49271   2.715   4.212   4.525 -0.2397  0.4601 -0.4141
  374MOL0     C49272   2.631   4.107   4.473  0.0560 -0.1520  0.3938
  374MOL0     C49273   2.500   4.104   4.534 -0.1009 -0.2601 -0.2540
  374MOL0     C49274   2.424   4.234   4.513  0.4725  0.0194 -0.1156
  374MOL0     C49275   2.271   4.211   4.561  0.0407  0.4937 -0.2476
  374MOL0     C49276   2.194   4.340   4.549  0.1453  0.1700 -0.1987
  374MOL0     C49277   2.050   4.322   4.595 -0.1669 -0.4297  0.3198
  374MOL0     C49278   1.972   4.444   4.566  0.1143 -0.8534  0.3716
  374MOL0     C49279   1.816   4.430   4.598  0.3888  0.4096 -0.1970
  374MOL0    Cl49280   1.753   4.311   4.480  0.4576  0.0230  0.2730
  374MOL0     C49281   2.919   4.135   4.412  0.5677  0.9219 -0.8014
  374MOL0     C49282   3.050   4.140   4.390  0.2884 -0.3900 -0.4162
  374MOL0     O49283   3.325   4.048   4.443  0.3837 -0.4899 -0.2553
  374MOL0     C49284   3.552   4.331   4.384  0.2432  1.0443 -0.1486
  374MOL0     C49285   3.693   4.350   4.391  0.8075 -0.6325  0.2443
  374MOL0     N49286   4.252   4.734   4.811  0.1499  0.3039 -0.2333
  374MOL0     N49287   4.358   4.734   4.886  0.1082  0.0458  0.6530
  374MOL0     C49288   5.617   4.315   4.971  0.1853  0.9994 -0.3896
  374MOL0     C49289   5.747   4.277   4.936  0.2044 -0.2547 -0.1463
  374MOL0     C49290   6.162   4.050   5.015  1.2872  0.6751 -0.0911
  374MOL0     C49291   6.231   4.139   4.940 -0.4956  0.3731 -0.4818
  374MOL0     C49292   6.373   4.124   4.944  0.0741 -0.1755 -1.0335
  374MOL0     C49293   6.444   4.044   5.027 -0.4512 -0.5087 -0.8057
  374MOL0     O49294   6.581   4.061   5.029 -0.1811 -0.0158  0.8163
  374MOL0     C49295   6.666   3.982   5.109 -0.5111  0.2630  0.5557
  374MOL0     C49296   6.814   4.017   5.089 -0.3507 -0.8371 -0.4383
  374MOL0     C49297   6.852   3.976   4.936  0.2274 -0.5254  0.4131
  374MOL0     C49298   7.001   3.985   4.901 -0.0642 -0.0840 -0.0289
  374MOL0     C49299   7.029   4.123   4.870  0.1544  0.6488  0.4269
  374MOL0     C49300   7.069   4.238   4.841  0.2555 -0.2589 -0.0635
  374MOL0     C49301   6.377   3.951   5.094  0.5707 -0.0036 -0.3714
  374MOL0     C49302   6.234   3.955   5.094  0.0201  0.3735 -0.2468
  374MOL0     H49303   5.823   4.066   5.186 -2.7922 -0.5726  2.4868
  374MOL0     H49304   5.611   4.140   5.273  0.8781  0.7277  0.7298
  374MOL0     H49305   5.365   4.315   4.962 -1.2287  1.1483 -1.6193
  374MOL0     H49306   5.393   4.466   5.025  0.6846 -0.9895 -0.9965
  374MOL0     H49307   5.242   4.436   5.201  1.6921 -2.0574  0.2517
  374MOL0     H49308   5.203   4.264   5.150  1.0429 -1.2838 -2.5242
  374MOL0     H49309   5.104   4.353   4.949 -0.0765 -0.9647  0.8684
  374MOL0     H49310   5.131   4.520   5.011  2.4296 -0.6379 -1.4221
  374MOL0     H49311   4.940   4.325   5.137  0.1090 -0.4704 -1.8849
  374MOL0     H49312   4.966   4.493   5.190 -0.5113 -0.7434  0.0077
  374MOL0     H49313   4.871   4.423   4.910 -0.9574  1.2417 -0.5809
  374MOL0     H49314   4.880   4.592   4.989 -1.5234  0.7701  1.8345
  374MOL0     H49315   4.706   4.518   5.153 -2.9861  1.1526 -1.0911
  374MOL0     H49316   4.700   4.359   5.077  4.9715 -0.9773  1.9069
  374MOL0     H49317   4.658   4.624   4.912 -0.2345  0.3515  0.2010
  374MOL0     H49318   4.605   4.466   4.871  2.5804 -2.2619  0.4829
  374MOL0     H49319   4.487   4.636   5.098  3.0751  0.4100 -1.0812
  374MOL0     H49320   4.455   4.468   5.085 -1.3469  0.0388  0.2036
  374MOL0     H49321   4.279   4.421   4.880 -4.2025  1.2751  0.3341
  374MOL0     H49322   4.019   4.625   4.699  0.7188  2.5454  2.5523
  374MOL0     H49323   4.077   4.461   4.762  1.4111  0.8298  0.8606
  374MOL0     H49324   4.271   4.501   4.602 -0.4722  1.0429  2.2254
  374MOL0     H49325   4.167   4.602   4.504 -1.7652  1.0038 -0.1744
  374MOL0     H49326   4.157   4.388   4.419  1.8344 -0.3380  0.4444
  374MOL0     H49327   4.126   4.305   4.572 -0.0697  0.3224  0.9573
  374MOL0     H49328   3.906   4.482   4.441 -0.6047 -0.2162  1.0450
  374MOL0     H49329   3.897   4.403   4.601 -1.6819  0.3610  0.0215
  374MOL0     H49330   3.791   4.058   4.521  0.2336  0.0439  0.7564
  374MOL0     H49331   3.551   4.021   4.526 -0.1893 -0.1826 -0.2577
  374MOL0     H49332   3.095   4.467   4.495  0.3196 -0.2800 -0.3089
  374MOL0     H49333   2.864   4.442   4.536  0.3145 -0.5995  0.5575
  374MOL0     H49334   2.679   4.010   4.489 -0.1417 -0.0837  1.4635
  374MOL0     H49335   2.620   4.114   4.364 -1.5903 -1.1061  0.4723
  374MOL0     H49336   2.515   4.091   4.641 -2.5345 -0.2917  0.1518
  374MOL0     H49337   2.444   4.020   4.492 -0.8305  0.4432 -0.7411
  374MOL0     H49338   2.432   4.262   4.408 -0.6565 -0.0867 -0.2445
  374MOL0     H49339   2.464   4.319   4.569 -0.4692  0.5010 -0.1463
  374MOL0     H49340   2.222   4.138   4.496  0.2977  0.8339 -0.8284
  374MOL0     H49341   2.259   4.172   4.663 -3.0496 -0.6846 -0.9365
  374MOL0     H49342   2.182   4.356   4.442 -2.9231  0.2374  0.0703
  374MOL0     H49343   2.232   4.429   4.602  1.3811  0.9841 -2.3457
  374MOL0     H49344   2.038   4.298   4.701 -3.2191 -0.2842  0.0856
  374MOL0     H49345   2.009   4.240   4.536  1.3346  1.5789 -3.9486
  374MOL0     H49346   2.004   4.526   4.631 -2.6638  0.4672  0.2112
  374MOL0     H49347   1.988   4.479   4.464 -2.3321 -0.3563  0.0991
  374MOL0     H49348   1.770   4.529   4.594  0.2942  0.3541 -0.5201
  374MOL0     H49349   1.797   4.395   4.700 -0.1478  1.0279 -0.0784
  374MOL0     H49350   2.876   4.041   4.379  2.4300 -0.6913  1.1219
  374MOL0     H49351   3.106   4.054   4.356  2.1570  0.3303  0.6386
  374MOL0     H49352   3.481   4.398   4.336 -1.1956  1.8490  2.8767
  374MOL0     H49353   3.733   4.443   4.353  0.0224  0.0799  1.1190
  374MOL0     H49354   5.570   4.383   4.901 -0.2829 -0.2225 -1.2982
  374MOL0     H49355   5.781   4.295   4.834 -3.2236 -0.8424 -1.5203
  374MOL0     H49356   6.189   4.216   4.875 -0.8624 -0.0224 -0.7181
  374MOL0     H49357   6.426   4.197   4.883  1.7651  0.9223  1.5840
  374MOL0     H49358   6.655   3.877   5.082 -1.7940  0.2764  0.9628
  374MOL0     H49359   6.638   3.990   5.215 -0.4081  0.6757  0.5534
  374MOL0     H49360   6.825   4.125   5.102  0.5322 -0.7511 -1.7212
  374MOL0     H49361   6.886   3.966   5.153  1.2514  1.2289 -0.4929
  374MOL0     H49362   6.797   4.039   4.866  0.9333 -1.7922 -1.3663
  374MOL0     H49363   6.827   3.870   4.931  0.7222 -0.5846 -1.7049
  374MOL0     H49364   7.056   3.961   4.992 -0.1629 -0.3316 -0.0323
  374MOL0     H49365   7.030   3.920   4.818  4.2608 -0.2563  1.3712
  374MOL0     H49366   7.126   4.327   4.833  2.7050 -1.8799 -1.9827
  374MOL0     H49367   6.422   3.875   5.157  0.6737  2.3645  2.6025
  374MOL0     H49368   6.184   3.898   5.172 -1.3497  2.4415  0.4764
  375MOL0     O49369   1.649   5.414   0.357  0.7991  0.5764 -0.0683
  375MOL0     C49370   1.633   5.490   0.266 -0.7059 -0.5839 -0.0709
  375MOL0     O49371   1.523   5.559   0.231  0.2633  0.7567  0.0226
  375MOL0     C49372   1.414   5.557   0.308  0.5889 -0.3611  0.9212
  375MOL0     C49373   1.408   5.608   0.439 -0.0087  0.9089  0.2619
  375MOL0     C49374   1.290   5.600   0.507  0.0348 -0.1671 -0.4263
  375MOL0     C49375   1.175   5.551   0.455  0.3067  0.2390  0.8018
  375MOL0     O49376   1.064   5.537   0.540  0.0463 -0.3142 -0.2988
  375MOL0     C49377   0.966   5.434   0.512 -0.5169 -1.1630 -0.0892
  375MOL0     C49378   0.846   5.465   0.598  0.2777  0.6010 -1.1060
  375MOL0     C49379   0.734   5.355   0.568 -0.0409  0.1181  0.0987
  375MOL0     C49380   0.598   5.392   0.642 -0.4562  1.0452  0.3344
  375MOL0     C49381   0.491   5.285   0.645  0.6225  0.7019 -0.2550
  375MOL0     C49382   0.387   5.325   0.747  0.8047 -0.5074  0.1497
  375MOL0     C49383   0.244   5.271   0.730  0.3823 -0.8631  0.2794
  375MOL0     C49384   0.173   5.300   0.594  0.0379  0.1956 -0.1019
  375MOL0     N49385   0.116   5.438   0.588  0.2999 -0.0081  0.5296
  375MOL0     C49386   0.200   5.540   0.552 -0.8019 -0.4710 -0.0808
  375MOL0     C49387   0.129   5.648   0.595  0.1628 -0.4101  1.0445
  375MOL0     C49388   0.172   5.801   0.572 -0.4880  0.6427 -0.9538
  375MOL0     C49389   0.323   5.821   0.603 -0.6104 -0.1714 -0.6408
  375MOL0     C49390   0.368   5.783   0.746 -0.6303 -0.1497  1.0307
  375MOL0     C49391   0.520   5.798   0.765 -0.9631 -0.6679 -0.1042
  375MOL0     O49392   0.555   5.933   0.729 -0.1772 -0.4576  0.7519
  375MOL0     C49393   0.684   5.976   0.718 -0.2526 -0.2320  0.2579
  375MOL0     C49394   0.796   5.900   0.741 -0.9879  0.0210  0.3646
  375MOL0     C49395   0.930   5.950   0.743  1.0254 -1.1830  0.0017
  375MOL0     C49396   0.950   6.090   0.720 -0.2285 -0.1318  0.0256
  375MOL0     C49397   1.092   6.145   0.726 -0.0695 -0.4030  0.5384
  375MOL0     O49398   1.189   6.052   0.755 -0.6049 -0.9638  0.3544
  375MOL0     C49399   1.319   6.081   0.785  0.4918  0.0434 -0.0940
  375MOL0     C49400   1.418   6.003   0.731 -0.2533 -0.2603 -0.1289
  375MOL0     C49401   1.557   6.035   0.757  0.4003  1.0268 -0.2558
  375MOL0     C49402   1.590   6.146   0.835 -0.2488  0.3724 -0.0514
  375MOL0     O49403   1.718   6.201   0.856 -0.3019 -0.2975  0.3252
  375MOL0     C49404   1.826   6.163   0.769  0.1697  0.9185  0.1123
  375MOL0     C49405   1.955   6.226   0.828  0.8787 -0.1005 -0.4812
  375MOL0     C49406   2.071   6.161   0.748  1.5664 -0.2010 -0.5795
  375MOL0     C49407   2.205   6.206   0.809  1.0897 -0.2231  0.1482
  375MOL0     C49408   2.323   6.119   0.754  0.3139 -0.6236 -0.5439
  375MOL0     C49409   2.458   6.181   0.816  0.1853  0.3302 -0.2696
  375MOL0     C49410   2.576   6.093   0.776 -0.0122  0.0524 -0.0187
  375MOL0     C49411   2.611   6.117   0.630 -0.0499 -0.5529 -0.1926
  375MOL0    Cl49412   2.783   6.075   0.617 -0.2994 -0.1654 -0.1738
  375MOL0     C49413   1.489   6.230   0.883 -0.3021  1.6068 -0.1392
  375MOL0     C49414   1.354   6.196   0.854 -0.1701  0.0563  0.3783
  375MOL0     O49415   1.103   6.263   0.727 -0.8375 -0.5419 -0.2956
  375MOL0     C49416   0.842   6.170   0.690  1.0323  0.2288  0.3284
  375MOL0     C49417   0.711   6.112   0.689  0.7240  0.2739  0.2571
  375MOL0     N49418   0.004   5.613   0.633 -0.0154 -0.1215  0.3259
  375MOL0     N49419  -0.004   5.486   0.628 -0.2800 -0.7441 -0.8118
  375MOL0     C49420   1.174   5.509   0.322  0.1621 -0.0623  0.5699
  375MOL0     C49421   1.299   5.505   0.249  0.0729  0.2581 -0.4988
  375MOL0     C49422   1.739   5.505   0.165 -0.0275 -0.1404  0.1631
  375MOL0     C49423   1.871   5.496   0.200 -0.1947  0.1038 -0.6858
  375MOL0     C49424   1.974   5.527   0.118  0.0151 -0.2634  0.1586
  375MOL0     C49425   1.949   5.575  -0.007 -0.4128 -0.4044  1.3619
  375MOL0     O49426   2.069   5.608  -0.076 -0.5990  0.3215  0.0716
  375MOL0     C49427   2.055   5.623  -0.218 -0.2900  0.0500 -0.3981
  375MOL0     C49428   2.186   5.613  -0.299 -0.2172 -0.4170  0.2512
  375MOL0     C49429   2.145   5.611  -0.448 -0.0798 -1.3577 -0.7980
  375MOL0     C49430   2.261   5.594  -0.539 -0.0089 -0.3233  0.0448
  375MOL0     C49431   2.199   5.541  -0.664 -0.8654  0.1325  0.1786
  375MOL0     C49432   2.148   5.490  -0.758 -0.0317 -0.3708 -0.3003
  375MOL0     C49433   1.814   5.576  -0.052  0.4263 -0.4868 -0.6941
  375MOL0     C49434   1.712   5.546   0.039  0.2067  0.0388  0.5023
  375MOL0     H49435   1.504   5.641   0.478 -0.8311  2.6867  0.8902
  375MOL0     H49436   1.272   5.635   0.608 -0.3005 -1.3761 -0.0386
  375MOL0     H49437   1.017   5.345   0.551  0.5580 -0.1836  0.8299
  375MOL0     H49438   0.942   5.420   0.406 -0.3378 -1.8439 -0.0458
  375MOL0     H49439   0.812   5.566   0.575 -2.9681 -0.4029 -1.1566
  375MOL0     H49440   0.871   5.454   0.704  1.0887  0.2517 -1.3240
  375MOL0     H49441   0.770   5.254   0.589 -0.7716 -0.8781 -2.8772
  375MOL0     H49442   0.709   5.357   0.461  1.3114  3.6092 -0.2703
  375MOL0     H49443   0.619   5.427   0.744  0.1933 -2.3779  1.5025
  375MOL0     H49444   0.549   5.476   0.592  2.3901  1.5980 -1.7773
  375MOL0     H49445   0.532   5.188   0.671 -1.5053 -0.4221 -0.8454
  375MOL0     H49446   0.459   5.272   0.541 -1.1863 -2.7601  0.5879
  375MOL0     H49447   0.382   5.434   0.745  1.1203 -0.4967 -0.1678
  375MOL0     H49448   0.420   5.296   0.847  1.0777 -1.3831 -0.1820
  375MOL0     H49449   0.241   5.162   0.742  0.1876 -0.8530  0.3165
  375MOL0     H49450   0.184   5.313   0.811 -1.1020 -2.6454  0.1657
  375MOL0     H49451   0.082   5.240   0.584 -1.5520  2.5350 -0.5001
  375MOL0     H49452   0.239   5.271   0.511 -0.8163 -2.5464  0.0797
  375MOL0     H49453   0.301   5.540   0.511 -0.1672 -1.0339  1.3866
  375MOL0     H49454   0.117   5.859   0.647  1.1048  0.2019  0.6437
  375MOL0     H49455   0.152   5.822   0.467  2.0548 -1.0197 -1.8378
  375MOL0     H49456   0.346   5.928   0.603 -0.2382 -0.2384  0.5756
  375MOL0     H49457   0.370   5.782   0.513  2.1538  2.3830 -0.4500
  375MOL0     H49458   0.317   5.856   0.809 -0.8796 -0.5791  1.3256
  375MOL0     H49459   0.334   5.684   0.776  2.4920 -2.1953 -1.4441
  375MOL0     H49460   0.572   5.723   0.706 -1.0055 -0.7248 -0.0698
  375MOL0     H49461   0.536   5.804   0.873  0.8012 -2.2826 -0.2328
  375MOL0     H49462   0.784   5.792   0.754  0.6002 -0.3293 -0.8127
  375MOL0     H49463   1.016   5.886   0.762  1.6665 -0.2832  0.1754
  375MOL0     H49464   1.395   5.912   0.677  2.4538  0.1758 -2.2945
  375MOL0     H49465   1.626   5.959   0.722 -1.9899 -0.7304 -1.4268
  375MOL0     H49466   1.812   6.219   0.676  2.9919 -0.5415 -1.3178
  375MOL0     H49467   1.830   6.053   0.766 -0.4449  0.7160  3.5830
  375MOL0     H49468   1.964   6.202   0.934 -1.3084  0.5395 -0.1137
  375MOL0     H49469   1.949   6.335   0.828 -0.3399 -0.0272  3.1245
  375MOL0     H49470   2.067   6.188   0.643  2.1016 -4.2144 -1.8233
  375MOL0     H49471   2.065   6.051   0.745 -1.6570 -0.1242 -1.0889
  375MOL0     H49472   2.220   6.314   0.806 -0.3288  0.0131  0.7069
  375MOL0     H49473   2.199   6.192   0.917 -2.4196 -1.4917 -0.0782
  375MOL0     H49474   2.321   6.118   0.645  0.2412  1.0656 -0.5752
  375MOL0     H49475   2.312   6.015   0.788  0.3490 -0.7061 -0.7863
  375MOL0     H49476   2.447   6.202   0.922 -0.4150 -0.4354 -0.1677
  375MOL0     H49477   2.491   6.279   0.781  0.1620  0.1559 -0.7973
  375MOL0     H49478   2.660   6.120   0.840  1.5310  0.7094 -2.2365
  375MOL0     H49479   2.558   5.988   0.801  1.6372  0.1873  1.9643
  375MOL0     H49480   2.595   6.220   0.597  0.2364 -0.7537 -0.9882
  375MOL0     H49481   2.553   6.050   0.566 -1.3123 -2.5378  2.8137
  375MOL0     H49482   1.514   6.315   0.945  2.7986 -0.4224  1.6473
  375MOL0     H49483   1.274   6.254   0.897  0.0363 -0.7809  1.9784
  375MOL0     H49484   0.845   6.277   0.669 -1.2523  0.0700 -1.0606
  375MOL0     H49485   0.628   6.180   0.671 -0.4168 -1.0997  0.1040
  375MOL0     H49486   1.085   5.471   0.272  0.4690  0.5806 -0.5050
  375MOL0     H49487   1.299   5.471   0.145  2.2107  1.3847 -0.9367
  375MOL0     H49488   1.891   5.463   0.302 -2.5673 -1.8604 -0.7676
  375MOL0     H49489   2.072   5.543   0.163 -0.2857  0.1695  0.6760
  375MOL0     H49490   1.999   5.711  -0.252 -1.3419  0.1510  1.4562
  375MOL0     H49491   1.988   5.541  -0.246 -1.4808  0.1613  1.8886
  375MOL0     H49492   2.256   5.694  -0.277  0.2392 -1.2848  2.2353
  375MOL0     H49493   2.233   5.519  -0.266  1.1170  1.1394  3.1583
  375MOL0     H49494   2.096   5.706  -0.473  3.2526  0.3726 -1.3538
  375MOL0     H49495   2.075   5.528  -0.464 -0.3845 -0.9316 -1.7655
  375MOL0     H49496   2.313   5.689  -0.558  1.1343 -0.8157  0.6239
  375MOL0     H49497   2.330   5.520  -0.499 -1.1248 -1.7793 -0.6318
  375MOL0     H49498   2.099   5.434  -0.836  3.4649 -2.1562 -1.4528
  375MOL0     H49499   1.787   5.611  -0.151 -3.3505 -3.8015 -1.1134
  375MOL0     H49500   1.610   5.556   0.002 -0.2292  0.6179  1.8084
  376MOL0     O49501   7.500   7.206   0.532 -0.4354  0.9084 -0.4129
  376MOL0     C49502   7.486   7.108   0.457 -0.0749 -0.8293  0.2061
  376MOL0     O49503   7.387   7.072   0.373 -0.1361  0.1704  0.1137
  376MOL0     C49504   7.268   7.136   0.385  0.6286  0.2836 -0.4365
  376MOL0     C49505   7.174   7.113   0.282  0.4478 -0.0756 -1.2304
  376MOL0     C49506   7.038   7.144   0.289 -0.5855  0.1303  0.2506
  376MOL0     C49507   6.988   7.209   0.401 -0.3987 -0.9694 -0.6437
  376MOL0     O49508   6.862   7.243   0.409  0.8557 -0.2792 -0.2918
  376MOL0     C49509   6.825   7.363   0.484 -0.1171  0.4120 -0.1697
  376MOL0     C49510   6.870   7.486   0.413 -0.3292  0.5918 -0.0243
  376MOL0     C49511   6.820   7.606   0.495  0.0824  0.5511  0.1380
  376MOL0     C49512   6.676   7.653   0.460  0.4723  0.9814 -0.3049
  376MOL0     C49513   6.618   7.758   0.552  0.1520 -0.4915 -0.3593
  376MOL0     C49514   6.486   7.811   0.506  0.6898  0.6475  0.5467
  376MOL0     C49515   6.452   7.941   0.573  0.3645  0.5895  0.1036
  376MOL0     C49516   6.410   7.912   0.715 -1.0796 -0.3355 -0.1599
  376MOL0     N49517   6.288   7.842   0.744 -0.7336 -0.4351 -1.6346
  376MOL0     C49518   6.164   7.872   0.698  0.9343  0.2551  0.7143
  376MOL0     C49519   6.077   7.770   0.725  0.2411  0.2004 -0.0639
  376MOL0     C49520   5.932   7.765   0.674 -0.4804  1.0550 -0.7601
  376MOL0     C49521   5.833   7.799   0.795  0.3088  0.7459  0.0563
  376MOL0     C49522   5.824   7.681   0.892 -0.1736 -0.9101  0.4212
  376MOL0     C49523   5.693   7.600   0.879 -0.3355  0.0805 -0.3605
  376MOL0     O49524   5.586   7.697   0.906 -0.2227 -0.4913 -0.1173
  376MOL0     C49525   5.458   7.667   0.871  0.4043  0.5583 -0.2766
  376MOL0     C49526   5.372   7.767   0.857  0.3321  0.1004 -0.3984
  376MOL0     C49527   5.233   7.740   0.852  0.2602  0.0388 -0.5016
  376MOL0     C49528   5.178   7.611   0.853 -0.4553 -0.3398  0.1319
  376MOL0     C49529   5.033   7.586   0.834  0.4762 -0.8187 -0.0329
  376MOL0     O49530   4.985   7.491   0.918  0.7022 -0.6651  0.0660
  376MOL0     C49531   4.870   7.422   0.892 -0.3919  0.0578 -1.0409
  376MOL0     C49532   4.755   7.458   0.958  1.1205  0.3398 -0.2545
  376MOL0     C49533   4.641   7.376   0.933 -0.7647  0.1589  0.5284
  376MOL0     C49534   4.637   7.276   0.842  0.5051 -0.7644 -0.3606
  376MOL0     O49535   4.524   7.209   0.829  0.6696 -0.0564  0.9292
  376MOL0     C49536   4.525   7.076   0.760 -0.1232 -0.4695 -0.3067
  376MOL0     C49537   4.382   7.019   0.734 -0.0498 -0.4057  0.1512
  376MOL0     C49538   4.275   7.047   0.828 -0.4544 -1.2875  0.7302
  376MOL0     C49539   4.149   6.965   0.799  0.3258 -0.4866 -0.0260
  376MOL0     C49540   4.064   6.981   0.926  0.3353 -0.4298  0.6108
  376MOL0     C49541   3.925   6.934   0.888 -0.3668  0.2654  0.7024
  376MOL0     C49542   3.906   6.786   0.869 -0.4581 -0.7277  0.1435
  376MOL0     C49543   3.787   6.738   0.794 -0.2566  0.3384  0.3535
  376MOL0    Cl49544   3.789   6.763   0.618 -0.4722  0.2204 -0.1969
  376MOL0     C49545   4.756   7.246   0.776  0.3295  0.2824 -0.1033
  376MOL0     C49546   4.870   7.323   0.797 -0.6995  0.8900 -0.3917
  376MOL0     O49547   4.973   7.635   0.736 -0.4929 -0.4705 -0.6143
  376MOL0     C49548   5.267   7.507   0.859  1.2687 -0.1280  0.8952
  376MOL0     C49549   5.404   7.533   0.862  0.0123 -0.2302  0.4867
  376MOL0     N49550   6.154   7.673   0.792  0.0172  0.0423 -0.5142
  376MOL0     N49551   6.275   7.724   0.808  0.0340 -0.0657  0.2044
  376MOL0     C49552   7.084   7.231   0.504 -0.3640 -0.0247 -0.4760
  376MOL0     C49553   7.222   7.195   0.498 -0.0401 -1.3456  0.1924
  376MOL0     C49554   7.598   7.016   0.462 -0.7562 -0.0759  0.8933
  376MOL0     C49555   7.592   6.876   0.453  0.2154 -0.2750  0.4159
  376MOL0     C49556   7.717   6.806   0.431 -0.7344  0.1127  0.7995
  376MOL0     C49557   7.843   6.879   0.428  0.2505  1.2889 -0.5263
  376MOL0     O49558   7.957   6.800   0.419  0.4121  0.0835  0.5551
  376MOL0     C49559   8.084   6.865   0.403 -0.6286 -0.1496 -0.1890
  376MOL0     C49560   8.198   6.759   0.382  0.3456 -0.3268 -0.0091
  376MOL0     C49561   8.323   6.842   0.342  0.5884 -0.6148 -0.1383
  376MOL0     C49562   8.445   6.745   0.357  0.0542 -0.9296  0.2669
  376MOL0     C49563   8.566   6.821   0.313  0.2221  1.3936  0.1651
  376MOL0     C49564   8.668   6.874   0.276  1.0010 -0.1517 -0.4808
  376MOL0     C49565   7.836   7.014   0.440 -0.3046 -0.5518 -0.8587
  376MOL0     C49566   7.719   7.089   0.457  0.0016  0.2834 -0.1911
  376MOL0     H49567   7.200   7.066   0.188 -0.9789  0.7873 -2.0826
  376MOL0     H49568   6.976   7.106   0.209  0.2258 -1.8182  0.4933
  376MOL0     H49569   6.837   7.357   0.593 -0.6965 -2.7373 -0.1879
  376MOL0     H49570   6.715   7.368   0.482 -0.1263 -0.0176 -1.3493
  376MOL0     H49571   6.825   7.487   0.314  1.0161  1.1269 -0.6462
  376MOL0     H49572   6.979   7.488   0.399 -0.5344  2.2584 -1.8655
  376MOL0     H49573   6.892   7.687   0.481 -1.4650  2.1128  0.7665
  376MOL0     H49574   6.830   7.575   0.599  0.0576  1.1146  0.3128
  376MOL0     H49575   6.679   7.688   0.356 -0.2538  0.1422 -0.6224
  376MOL0     H49576   6.618   7.560   0.467  3.2001 -0.7315  2.0987
  376MOL0     H49577   6.687   7.843   0.548  1.6539 -1.6917 -1.2219
  376MOL0     H49578   6.604   7.728   0.656  1.4425  1.0057  0.3017
  376MOL0     H49579   6.400   7.744   0.519  0.1530  0.3538 -3.2889
  376MOL0     H49580   6.501   7.840   0.401 -0.9588  4.0180  1.1139
  376MOL0     H49581   6.521   8.025   0.556 -1.5908  2.0337 -1.2022
  376MOL0     H49582   6.366   7.985   0.522 -2.8859 -0.7105  4.0081
  376MOL0     H49583   6.406   8.006   0.772 -0.7532  0.9266 -2.1085
  376MOL0     H49584   6.488   7.852   0.762 -0.3118 -0.6246 -1.7385
  376MOL0     H49585   6.138   7.967   0.651  0.5804 -0.1256  0.1268
  376MOL0     H49586   5.909   7.663   0.640 -2.5653  0.1649  2.7328
  376MOL0     H49587   5.917   7.835   0.592 -0.4777  0.3057 -1.4199
  376MOL0     H49588   5.734   7.828   0.760  0.1189 -2.8938 -3.0079
  376MOL0     H49589   5.881   7.884   0.844  0.6221 -0.2780  1.6150
  376MOL0     H49590   5.913   7.624   0.866  1.2562  1.7782 -0.9627
  376MOL0     H49591   5.821   7.724   0.993 -0.6968  1.5462 -0.5732
  376MOL0     H49592   5.685   7.516   0.948  0.2977  1.4273  1.4191
  376MOL0     H49593   5.684   7.557   0.779 -1.5681 -0.2296 -0.1352
  376MOL0     H49594   5.424   7.861   0.847  2.5652 -1.1024 -0.5774
  376MOL0     H49595   5.155   7.813   0.831 -1.5853 -1.1950  1.5229
  376MOL0     H49596   4.753   7.546   1.021 -1.6617 -1.3080  2.2122
  376MOL0     H49597   4.550   7.409   0.983  0.0291 -2.2388  3.8877
  376MOL0     H49598   4.581   7.001   0.817  2.6659 -0.5436 -2.9480
  376MOL0     H49599   4.575   7.081   0.663 -0.2447 -0.2498 -0.3572
  376MOL0     H49600   4.394   6.911   0.717 -1.1002 -0.4182 -0.5905
  376MOL0     H49601   4.347   7.048   0.635 -3.2684  1.0580  1.5607
  376MOL0     H49602   4.252   7.154   0.825  1.5198 -0.8450 -2.5134
  376MOL0     H49603   4.314   7.024   0.928  2.1059 -2.1563 -0.3851
  376MOL0     H49604   4.091   7.001   0.713 -4.4966 -0.7033  2.7318
  376MOL0     H49605   4.186   6.863   0.786 -1.5015 -1.4140  1.5060
  376MOL0     H49606   4.048   7.089   0.934 -2.9192 -0.8844  1.7380
  376MOL0     H49607   4.108   6.935   1.015 -0.2196 -3.0028 -0.3743
  376MOL0     H49608   3.888   6.982   0.797 -0.9930 -0.7833  0.3978
  376MOL0     H49609   3.856   6.978   0.960  0.5801 -0.1187  1.8804
  376MOL0     H49610   3.985   6.735   0.813 -0.3531 -1.3153  0.8036
  376MOL0     H49611   3.915   6.738   0.967  0.5639  1.4193  1.1542
  376MOL0     H49612   3.699   6.785   0.839 -0.8044 -0.2774 -0.0536
  376MOL0     H49613   3.788   6.630   0.810 -1.2729  0.0862 -1.0880
  376MOL0     H49614   4.760   7.169   0.698 -2.1400 -0.1082  0.0790
  376MOL0     H49615   4.964   7.285   0.758 -0.9256 -0.7550  0.5918
  376MOL0     H49616   5.219   7.410   0.849  0.2809  0.5263 -1.2572
  376MOL0     H49617   5.471   7.447   0.862 -0.3248 -0.5072 -0.4306
  376MOL0     H49618   7.053   7.288   0.591  0.4212  3.0850 -2.0873
  376MOL0     H49619   7.277   7.215   0.589  3.0865 -0.4610 -1.7313
  376MOL0     H49620   7.498   6.822   0.457  0.3545 -0.5750 -0.2217
  376MOL0     H49621   7.716   6.698   0.433 -0.0113  0.0743 -0.1470
  376MOL0     H49622   8.099   6.941   0.480  0.9987  1.5269 -2.0417
  376MOL0     H49623   8.080   6.934   0.317  3.5214  0.1225 -0.3572
  376MOL0     H49624   8.208   6.703   0.475 -2.7704 -1.2257 -0.0937
  376MOL0     H49625   8.177   6.695   0.296  4.4424  0.3988 -1.7772
  376MOL0     H49626   8.337   6.929   0.406  2.6291  0.1165 -1.4659
  376MOL0     H49627   8.320   6.878   0.239  1.3064 -1.0005 -0.2993
  376MOL0     H49628   8.445   6.694   0.454 -0.9613 -0.6600  0.4277
  376MOL0     H49629   8.430   6.665   0.285  1.0007  0.9402 -2.1548
  376MOL0     H49630   8.762   6.924   0.262  2.1162 -1.7585  0.8736
  376MOL0     H49631   7.923   7.075   0.466 -0.7597  0.1900 -1.0347
  376MOL0     H49632   7.724   7.197   0.471 -2.8669  0.3305  1.0647
  377MOL0     O49633   2.185   4.616   4.856 -0.0560  0.2964  0.0083
  377MOL0     C49634   2.232   4.713   4.801  0.1533  0.9299 -0.6478
  377MOL0     O49635   2.176   4.834   4.786  0.3709 -0.0340 -0.2434
  377MOL0     C49636   2.040   4.840   4.811 -0.6917 -0.1109 -0.7502
  377MOL0     C49637   1.941   4.806   4.716  0.9058  0.3931  0.3521
  377MOL0     C49638   1.808   4.811   4.748  0.4428 -0.5092 -0.1010
  377MOL0     C49639   1.769   4.857   4.882  0.2254 -0.0664 -0.0576
  377MOL0     O49640   1.643   4.865   4.928  0.1253  0.0312 -0.3460
  377MOL0     C49641   1.539   4.810   4.845  0.7469 -0.4000 -0.2517
  377MOL0     C49642   1.401   4.822   4.910  0.3974 -0.0383 -0.3099
  377MOL0     C49643   1.285   4.758   4.845 -0.9190  0.9953 -0.3244
  377MOL0     C49644   1.196   4.852   4.768  0.1157 -0.4610 -0.9551
  377MOL0     C49645   1.075   4.902   4.851  0.2916  0.4995  0.2076
  377MOL0     C49646   1.029   5.040   4.794 -0.0267  0.6946 -0.5982
  377MOL0     C49647   0.919   5.096   4.868  0.7786  0.3328  0.5421
  377MOL0     C49648   0.789   5.021   4.866  0.5850 -0.1322 -0.4329
  377MOL0     N49649   0.690   5.068   4.971 -0.2741  0.2868  0.2906
  377MOL0     C49650   0.665   5.205   5.000 -0.0693 -0.4012 -0.5585
  377MOL0     C49651   0.581   5.205   5.112 -0.6714 -0.2291  0.1311
  377MOL0     C49652   0.548   5.322   5.197 -0.0493 -0.1505  0.1751
  377MOL0     C49653   0.423   5.398   5.165  0.0811 -0.1392  0.6685
  377MOL0     C49654   0.403   5.515   5.265  0.2754 -0.0867 -0.3243
  377MOL0     C49655   0.261   5.577   5.264  0.7037 -0.0900  0.2261
  377MOL0     O49656   0.273   5.687   5.348  0.4699 -0.0872  0.6284
  377MOL0     C49657   0.167   5.775   5.347  0.1499  0.0768 -0.4940
  377MOL0     C49658   0.177   5.888   5.423  0.4200  0.0566  0.5256
  377MOL0     C49659   0.060   5.977   5.432  0.3265  1.7282  0.5299
  377MOL0     C49660  -0.065   5.942   5.370 -0.5177 -0.4982  0.1735
  377MOL0     C49661  -0.184   6.020   5.404 -0.8116 -1.0043  0.1493
  377MOL0     O49662  -0.180   6.103   5.510 -0.3846  0.0422 -0.8403
  377MOL0     C49663  -0.287   6.179   5.530  0.8745  0.8091 -0.3396
  377MOL0     C49664  -0.419   6.120   5.564  0.6302 -0.1151  0.9690
  377MOL0     C49665  -0.535   6.204   5.562 -0.5751 -0.0390  0.0476
  377MOL0     C49666  -0.519   6.344   5.541 -0.1573  0.5597  0.2757
  377MOL0     O49667  -0.621   6.439   5.528 -0.7427  0.1922 -0.4362
  377MOL0     C49668  -0.740   6.413   5.603  0.1312  0.0533 -0.1579
  377MOL0     C49669  -0.723   6.430   5.755  0.6921  0.4740 -0.8317
  377MOL0     C49670  -0.676   6.565   5.815 -0.2970 -0.6111  0.2576
  377MOL0     C49671  -0.538   6.607   5.768 -0.0411  0.3460 -0.3858
  377MOL0     C49672  -0.490   6.729   5.834  0.2036  0.0779 -1.0208
  377MOL0     C49673  -0.337   6.737   5.840 -0.6521 -0.2884  0.0692
  377MOL0     C49674  -0.272   6.746   5.701  0.2199  0.0293 -0.0760
  377MOL0     C49675  -0.284   6.867   5.617 -0.4370 -0.1177  0.8838
  377MOL0    Cl49676  -0.175   6.823   5.468  0.0437  0.1625  0.1044
  377MOL0     C49677  -0.384   6.396   5.526 -0.4233 -0.4589  0.6980
  377MOL0     C49678  -0.279   6.314   5.515 -1.1032  0.6141 -1.2939
  377MOL0     O49679  -0.280   6.005   5.329  0.1957  0.2519 -0.0304
  377MOL0     C49680  -0.063   5.841   5.272 -0.3282  0.2592 -0.1193
  377MOL0     C49681   0.051   5.760   5.261  0.3509  0.2053 -0.1063
  377MOL0     N49682   0.548   5.075   5.137  0.6778 -0.5898 -0.3964
  377MOL0     N49683   0.607   4.993   5.055 -0.5453 -0.1872 -0.0938
  377MOL0     C49684   1.864   4.898   4.970 -0.5385 -1.3596  0.3221
  377MOL0     C49685   2.003   4.893   4.929 -0.3904  0.6496 -0.6329
  377MOL0     C49686   2.369   4.695   4.750 -0.1275 -0.4751 -0.0743
  377MOL0     C49687   2.450   4.800   4.705  0.2027 -0.5629  1.0534
  377MOL0     C49688   2.585   4.791   4.665  0.9341  0.5712 -0.1566
  377MOL0     C49689   2.643   4.659   4.658  0.6765  0.6583 -0.3032
  377MOL0     O49690   2.775   4.637   4.620  0.0318 -0.6052  0.0608
  377MOL0     C49691   2.859   4.742   4.570  0.0718 -0.3357 -0.2692
  377MOL0     C49692   2.921   4.826   4.688  0.8623  0.4635  0.3691
  377MOL0     C49693   3.028   4.759   4.763  0.3464 -0.6762  0.9415
  377MOL0     C49694   3.061   4.848   4.884 -1.2202  0.0990 -0.5013
  377MOL0     C49695   3.181   4.784   4.949  0.0716 -0.0131  0.0885
  377MOL0     C49696   3.274   4.729   5.008  0.0231  0.5050  0.3355
  377MOL0     C49697   2.563   4.543   4.706  0.2780  0.1432  0.0381
  377MOL0     C49698   2.430   4.566   4.751  0.0162 -0.1677  0.1642
  377MOL0     H49699   1.974   4.765   4.621 -0.1305  0.0181  0.1398
  377MOL0     H49700   1.733   4.791   4.671 -0.4410 -2.2260  1.1427
  377MOL0     H49701   1.554   4.708   4.808 -0.3670 -0.2890 -1.0605
  377MOL0     H49702   1.538   4.879   4.760  0.0718  1.7339  1.4131
  377MOL0     H49703   1.384   4.927   4.937 -0.4900  0.3013 -2.0129
  377MOL0     H49704   1.401   4.752   4.994  0.4572 -0.0759 -0.3420
  377MOL0     H49705   1.218   4.705   4.913 -0.1802  1.6889  0.9862
  377MOL0     H49706   1.316   4.678   4.778 -0.3054  1.2354 -0.3311
  377MOL0     H49707   1.254   4.942   4.745 -4.0441  1.5258 -5.2171
  377MOL0     H49708   1.166   4.814   4.670  1.3274  1.0523 -1.9552
  377MOL0     H49709   1.102   4.916   4.956  2.0284  2.1302 -0.4072
  377MOL0     H49710   0.999   4.823   4.850  0.2459  0.5406  0.3864
  377MOL0     H49711   1.008   5.033   4.686  5.0651 -0.9817 -1.7718
  377MOL0     H49712   1.116   5.107   4.791  0.8420 -0.2778 -4.8281
  377MOL0     H49713   0.950   5.111   4.971  0.4174 -0.2861  0.7472
  377MOL0     H49714   0.898   5.191   4.817 -1.3547 -1.2438 -1.8459
  377MOL0     H49715   0.802   4.914   4.881 -1.6242 -0.0752  3.6725
  377MOL0     H49716   0.738   5.026   4.769  0.3735  0.5294 -0.2963
  377MOL0     H49717   0.698   5.296   4.952 -1.9642  0.2792 -0.6755
  377MOL0     H49718   0.626   5.399   5.199 -1.7956  1.6962  0.4145
  377MOL0     H49719   0.544   5.266   5.291  1.5540 -0.8467 -0.1237
  377MOL0     H49720   0.336   5.332   5.156  0.1148 -0.1058  0.0379
  377MOL0     H49721   0.429   5.447   5.067 -3.4984  1.1795  0.9705
  377MOL0     H49722   0.418   5.475   5.366 -0.6217  1.9226  0.6409
  377MOL0     H49723   0.484   5.587   5.252  2.5770 -2.4754 -0.3032
  377MOL0     H49724   0.177   5.514   5.295  0.6836 -1.0418 -1.6441
  377MOL0     H49725   0.242   5.604   5.160  0.6572  0.1617  0.3002
  377MOL0     H49726   0.268   5.908   5.479 -0.7220  0.1090  2.4875
  377MOL0     H49727   0.080   6.060   5.498  1.9467  1.6228  0.2144
  377MOL0     H49728  -0.439   6.017   5.590  0.4287 -0.1275  0.7736
  377MOL0     H49729  -0.636   6.164   5.572 -1.3209  0.8145 -3.0651
  377MOL0     H49730  -0.773   6.312   5.578  1.7563 -1.1042  2.0704
  377MOL0     H49731  -0.818   6.482   5.571  0.1482  0.2173  0.1516
  377MOL0     H49732  -0.652   6.352   5.786 -1.0165 -1.1387 -0.7400
  377MOL0     H49733  -0.824   6.404   5.790  0.6053  1.8531  0.0103
  377MOL0     H49734  -0.684   6.565   5.924  0.5838 -2.5745  0.3591
  377MOL0     H49735  -0.746   6.638   5.774  0.5456 -0.1781 -0.4645
  377MOL0     H49736  -0.464   6.528   5.780 -0.4777  0.3187  3.1479
  377MOL0     H49737  -0.540   6.630   5.661 -0.7923  0.8788 -0.2650
  377MOL0     H49738  -0.526   6.720   5.936 -0.6117 -1.0983 -1.3958
  377MOL0     H49739  -0.533   6.824   5.801 -2.5726 -0.3543  0.9796
  377MOL0     H49740  -0.295   6.652   5.895  0.5244 -0.6612 -1.3605
  377MOL0     H49741  -0.301   6.823   5.897 -2.4495  1.4826 -1.3144
  377MOL0     H49742  -0.166   6.725   5.719 -0.6659 -2.8645  2.8928
  377MOL0     H49743  -0.306   6.665   5.635  2.3800  1.6057 -3.3808
  377MOL0     H49744  -0.241   6.959   5.658  0.7876  0.3915 -1.3891
  377MOL0     H49745  -0.388   6.881   5.586  0.1197 -1.1837 -1.6984
  377MOL0     H49746  -0.376   6.502   5.506  1.3402 -1.0421 -2.1854
  377MOL0     H49747  -0.179   6.354   5.497 -0.8974 -0.5213 -2.9685
  377MOL0     H49748  -0.153   5.828   5.213  0.1895  1.3472 -1.1868
  377MOL0     H49749   0.036   5.686   5.183 -0.8626  0.5968 -0.2656
  377MOL0     H49750   1.837   4.928   5.070  0.4534  1.9748 -0.2751
  377MOL0     H49751   2.076   4.924   5.003 -1.5395 -1.2917  1.4743
  377MOL0     H49752   2.417   4.903   4.694  2.5099  0.0458 -1.2713
  377MOL0     H49753   2.633   4.884   4.636 -1.0990  1.4961 -0.7229
  377MOL0     H49754   2.796   4.805   4.506 -2.8345 -2.1155  0.6509
  377MOL0     H49755   2.932   4.695   4.503 -0.6117 -1.3513 -0.3246
  377MOL0     H49756   2.955   4.925   4.656  1.2216 -0.4282 -2.2378
  377MOL0     H49757   2.845   4.841   4.765  1.4597  1.1009  0.8540
  377MOL0     H49758   3.112   4.752   4.694 -0.2642 -1.9546  0.2932
  377MOL0     H49759   2.992   4.658   4.786 -1.8059 -0.1537  0.1323
  377MOL0     H49760   3.074   4.954   4.861 -0.0453  0.1055  0.1326
  377MOL0     H49761   2.976   4.837   4.953  0.2065 -3.6050  0.9187
  377MOL0     H49762   3.348   4.675   5.063  0.8378 -0.0805 -1.2476
  377MOL0     H49763   2.611   4.446   4.707  0.7054  0.1965  4.4915
  377MOL0     H49764   2.369   4.481   4.780  1.7353 -1.1510  1.0471
  378MOL0     O49765   4.849   1.928   3.782  0.5575 -0.7269  1.0754
  378MOL0     C49766   4.889   1.855   3.685  0.6494  0.2603  0.7346
  378MOL0     O49767   4.824   1.842   3.563 -0.6672  0.4844 -0.6569
  378MOL0     C49768   4.695   1.886   3.528 -0.4500 -0.7399 -1.0518
  378MOL0     C49769   4.620   1.988   3.587 -0.3293 -0.6601  0.1304
  378MOL0     C49770   4.509   2.042   3.526  0.5365 -0.1579 -0.1843
  378MOL0     C49771   4.460   1.981   3.410  0.2060 -0.5336 -0.1110
  378MOL0     O49772   4.353   2.044   3.348  0.2020 -0.0467 -0.4199
  378MOL0     C49773   4.282   1.984   3.242 -0.2283 -0.0252  0.3975
  378MOL0     C49774   4.161   2.060   3.200  0.5928  0.1081 -0.3603
  378MOL0     C49775   4.052   2.060   3.312  0.0084  0.2338 -0.0660
  378MOL0     C49776   3.940   2.143   3.250  0.5758 -0.0167  0.1614
  378MOL0     C49777   3.816   2.140   3.340  0.4367  0.4903 -0.8240
  378MOL0     C49778   3.733   2.007   3.346 -1.1992 -0.1814  0.0713
  378MOL0     C49779   3.682   1.971   3.208 -0.0334 -0.3031 -0.0595
  378MOL0     C49780   3.588   1.853   3.223 -0.7416 -0.1105 -0.2051
  378MOL0     N49781   3.448   1.892   3.262  0.4875  0.2241 -0.2482
  378MOL0     C49782   3.349   1.924   3.172 -0.0415 -0.3271 -0.1545
  378MOL0     C49783   3.244   1.976   3.246 -0.2490  0.2532  0.3466
  378MOL0     C49784   3.108   2.019   3.214 -0.0782  0.8236 -0.4189
  378MOL0     C49785   2.995   1.929   3.271  0.0241  0.7928  0.5178
  378MOL0     C49786   3.042   1.782   3.258  0.4999  0.2315 -0.3369
  378MOL0     C49787   2.917   1.686   3.258  0.1682  0.0511 -0.3133
  378MOL0     O49788   2.835   1.708   3.143  0.8647  0.3727  0.0226
  378MOL0     C49789   2.720   1.624   3.139  0.1384  0.0646  0.2354
  378MOL0     C49790   2.676   1.560   3.020 -0.1066  0.5549 -0.3170
  378MOL0     C49791   2.563   1.473   3.018  0.1452 -0.3140  0.6232
  378MOL0     C49792   2.478   1.454   3.125  1.0059 -0.5212 -0.3235
  378MOL0     C49793   2.366   1.355   3.125  0.2737  0.5586  0.1539
  378MOL0     O49794   2.266   1.357   3.220  0.5232 -0.0593 -0.1389
  378MOL0     C49795   2.141   1.297   3.204  0.1493  0.3844 -0.1764
  378MOL0     C49796   2.119   1.185   3.280 -0.2182  0.0869 -0.0262
  378MOL0     C49797   1.983   1.133   3.281  0.3711  0.8155  0.6472
  378MOL0     C49798   1.869   1.203   3.222 -0.0260  0.0201 -0.0667
  378MOL0     O49799   1.742   1.150   3.229 -0.8613  0.1180 -0.4575
  378MOL0     C49800   1.631   1.228   3.181 -0.2109  0.6759 -0.0449
  378MOL0     C49801   1.508   1.136   3.168 -0.3644  0.2289  0.6284
  378MOL0     C49802   1.390   1.218   3.133  0.7556 -0.4547  0.3309
  378MOL0     C49803   1.255   1.128   3.111 -0.0545  0.3873 -0.1055
  378MOL0     C49804   1.140   1.212   3.062 -0.2138 -0.2949 -0.1217
  378MOL0     C49805   1.114   1.200   2.910 -0.0758  0.3115 -0.9626
  378MOL0     C49806   1.021   1.313   2.862 -0.6682 -0.0108  0.6366
  378MOL0     C49807   0.994   1.306   2.707 -0.5204  0.0015 -0.5170
  378MOL0    Cl49808   0.840   1.215   2.683 -0.4353  0.1934  0.0254
  378MOL0     C49809   1.908   1.311   3.147  1.5748  0.2198 -0.0579
  378MOL0     C49810   2.041   1.360   3.139 -0.2143  0.6498  0.0094
  378MOL0     O49811   2.357   1.276   3.029 -0.9357 -1.1672  0.0905
  378MOL0     C49812   2.509   1.530   3.241 -0.3196 -0.6165  0.0469
  378MOL0     C49813   2.628   1.610   3.249  0.0637 -0.5103 -0.2463
  378MOL0     N49814   3.269   1.966   3.380 -1.0505  0.2412 -0.1402
  378MOL0     N49815   3.400   1.924   3.385  0.0462  0.0932  0.1174
  378MOL0     C49816   4.532   1.877   3.351  0.4423  0.0725 -0.2809
  378MOL0     C49817   4.649   1.840   3.411 -0.1730 -0.2594  0.3148
  378MOL0     C49818   5.017   1.782   3.703  0.1114 -0.5584 -0.8622
  378MOL0     C49819   5.105   1.756   3.593 -1.0074  0.5440  0.1543
  378MOL0     C49820   5.225   1.679   3.606  0.7573 -0.0008 -0.0370
  378MOL0     C49821   5.272   1.649   3.732  0.7539 -0.4041  0.7015
  378MOL0     O49822   5.390   1.573   3.755  0.0578  0.1742 -0.1415
  378MOL0     C49823   5.435   1.547   3.891  0.1711  0.2570 -0.0848
  378MOL0     C49824   5.560   1.457   3.882 -0.7217 -0.4251  1.1700
  378MOL0     C49825   5.681   1.537   3.835 -0.1317 -0.6509  0.6816
  378MOL0     C49826   5.797   1.440   3.796  0.5209  0.0382  0.4261
  378MOL0     C49827   5.934   1.496   3.801 -0.5316 -0.2555 -0.3057
  378MOL0     C49828   6.040   1.545   3.795 -0.6239 -0.7294  1.5954
  378MOL0     C49829   5.193   1.683   3.842 -0.4545  0.5926  0.4479
  378MOL0     C49830   5.067   1.744   3.827 -0.3223 -0.5824  0.3419
  378MOL0     H49831   4.654   2.035   3.679  0.8374 -2.5589  0.7217
  378MOL0     H49832   4.465   2.130   3.572 -0.9535 -1.2385  0.5150
  378MOL0     H49833   4.253   1.888   3.284  1.6858  0.2519  2.5320
  378MOL0     H49834   4.336   1.972   3.147 -1.8159 -0.4740 -0.4811
  378MOL0     H49835   4.120   2.024   3.105 -2.0215 -1.7608  1.3473
  378MOL0     H49836   4.191   2.165   3.190 -3.8009  1.7284  1.2647
  378MOL0     H49837   4.101   2.110   3.396 -2.6438  1.5210  0.8518
  378MOL0     H49838   4.021   1.962   3.349 -0.9936 -0.1510 -1.7929
  378MOL0     H49839   3.976   2.245   3.236  1.2082 -0.3852 -0.9410
  378MOL0     H49840   3.914   2.104   3.151 -0.8096 -2.2234  1.3226
  378MOL0     H49841   3.753   2.229   3.325  1.6396  2.3524  3.4937
  378MOL0     H49842   3.861   2.155   3.439 -0.1492 -2.3868 -0.0331
  378MOL0     H49843   3.638   2.031   3.395 -1.3380 -0.6163  0.0111
  378MOL0     H49844   3.790   1.926   3.392  0.6199  1.8601  1.6599
  378MOL0     H49845   3.631   2.057   3.163 -1.4351 -0.5540  0.9829
  378MOL0     H49846   3.761   1.938   3.140 -1.1279 -1.5255 -0.7868
  378MOL0     H49847   3.633   1.789   3.300 -0.2125 -1.2258 -1.3968
  378MOL0     H49848   3.572   1.799   3.129 -0.8686 -2.8128  1.2582
  378MOL0     H49849   3.346   1.931   3.063 -2.1213 -1.7764 -0.2694
  378MOL0     H49850   3.098   2.051   3.110  0.0397 -1.7066 -1.2828
  378MOL0     H49851   3.091   2.112   3.268 -0.5973  0.0492  0.7846
  378MOL0     H49852   2.907   1.957   3.214 -0.4608  3.4474  2.3680
  378MOL0     H49853   2.985   1.961   3.376  0.5285 -0.3055  0.9216
  378MOL0     H49854   3.100   1.764   3.168 -0.8912 -0.1533 -1.1923
  378MOL0     H49855   3.110   1.754   3.339  0.4491 -0.5279 -0.5506
  378MOL0     H49856   2.855   1.713   3.344  1.6390  0.7071  0.5913
  378MOL0     H49857   2.949   1.584   3.279 -3.4807 -0.5864  3.1966
  378MOL0     H49858   2.721   1.585   2.925 -0.1734  1.3687 -0.1462
  378MOL0     H49859   2.548   1.429   2.920  2.9384 -1.6806  0.7246
  378MOL0     H49860   2.203   1.131   3.322 -0.7172 -2.1432 -1.7290
  378MOL0     H49861   1.956   1.038   3.326  0.8984  1.1082  1.5981
  378MOL0     H49862   1.639   1.271   3.081  0.7857 -1.9431 -1.1846
  378MOL0     H49863   1.623   1.306   3.257  0.9950  0.8968 -0.1322
  378MOL0     H49864   1.506   1.086   3.265 -0.9240 -2.8447 -0.8510
  378MOL0     H49865   1.517   1.058   3.092 -2.3029 -1.1094  1.6899
  378MOL0     H49866   1.408   1.272   3.040 -0.8009 -1.5537 -0.6510
  378MOL0     H49867   1.378   1.296   3.209  2.3038  2.2597 -1.9906
  378MOL0     H49868   1.273   1.044   3.043 -3.0373  1.2676 -2.2314
  378MOL0     H49869   1.228   1.086   3.208 -2.7938 -0.4281 -1.1107
  378MOL0     H49870   1.153   1.316   3.096 -1.8123 -0.6289  1.7038
  378MOL0     H49871   1.050   1.177   3.114 -0.6913 -0.0423 -0.7661
  378MOL0     H49872   1.061   1.106   2.894  1.1516 -1.5256  3.9199
  378MOL0     H49873   1.204   1.195   2.848 -0.2568 -2.4471 -1.1314
  378MOL0     H49874   0.925   1.306   2.913 -1.1695  0.0952 -0.2640
  378MOL0     H49875   1.065   1.408   2.893 -1.5809  0.8051 -0.4787
  378MOL0     H49876   1.069   1.251   2.650 -1.7810 -1.3421 -0.9489
  378MOL0     H49877   0.984   1.410   2.676 -0.4386  0.5734  1.2593
  378MOL0     H49878   1.831   1.365   3.094  0.5266 -0.7186  0.4683
  378MOL0     H49879   2.065   1.450   3.083 -0.4626  1.1784  0.7381
  378MOL0     H49880   2.441   1.519   3.325  1.0617 -2.0393  1.0405
  378MOL0     H49881   2.660   1.668   3.336  1.0028 -0.7946 -0.3906
  378MOL0     H49882   4.506   1.834   3.255 -2.6384  0.5355  0.2412
  378MOL0     H49883   4.710   1.767   3.360 -2.0583 -0.8412 -1.2066
  378MOL0     H49884   5.081   1.792   3.494 -0.1202 -1.0588 -0.6911
  378MOL0     H49885   5.276   1.648   3.515  1.3755 -0.2350  0.3835
  378MOL0     H49886   5.353   1.494   3.940 -1.4264  0.0444 -2.8093
  378MOL0     H49887   5.450   1.635   3.955 -1.2240  0.7393 -0.3968
  378MOL0     H49888   5.579   1.423   3.984 -0.7250  3.7038  2.7177
  378MOL0     H49889   5.545   1.376   3.810  0.8325 -0.0455  0.3848
  378MOL0     H49890   5.718   1.601   3.916 -0.9550 -0.4200  0.8824
  378MOL0     H49891   5.651   1.599   3.750  4.4801 -1.7344 -2.1197
  378MOL0     H49892   5.794   1.350   3.858 -1.4492  1.5409  2.6864
  378MOL0     H49893   5.779   1.403   3.695 -0.4306  0.6706  0.3526
  378MOL0     H49894   6.138   1.585   3.776 -0.4601 -2.2944 -1.3361
  378MOL0     H49895   5.217   1.671   3.947 -3.5020  1.2719  1.3326
  378MOL0     H49896   5.012   1.768   3.918  2.1432 -1.2335  2.1356
  379MOL0     O49897   3.405   8.211   3.553  0.5287  0.4023  0.5366
  379MOL0     C49898   3.456   8.212   3.440 -0.2257  0.4204  0.7415
  379MOL0     O49899   3.391   8.249   3.325 -0.3016  0.2255  0.4658
  379MOL0     C49900   3.271   8.315   3.324  0.4558  0.9357  0.4573
  379MOL0     C49901   3.230   8.370   3.202  0.4777 -0.0551 -0.6548
  379MOL0     C49902   3.105   8.440   3.182  0.8286 -0.6925  0.5322
  379MOL0     C49903   3.019   8.452   3.290 -0.2398  0.4425 -0.9594
  379MOL0     O49904   2.894   8.512   3.289  0.3644  0.0233  0.3011
  379MOL0     C49905   2.832   8.533   3.153  0.6937  0.8036 -0.6547
  379MOL0     C49906   2.681   8.543   3.161 -0.8981 -0.5864 -0.4826
  379MOL0     C49907   2.618   8.415   3.215 -0.7311 -0.1811  0.8890
  379MOL0     C49908   2.473   8.456   3.274 -0.3766  0.7021  0.4488
  379MOL0     C49909   2.382   8.509   3.167  0.4279 -0.0371 -0.3892
  379MOL0     C49910   2.254   8.544   3.242 -0.1549  0.3901 -0.9400
  379MOL0     C49911   2.145   8.625   3.154 -0.2527  0.1788 -0.4965
  379MOL0     C49912   2.110   8.561   3.014  0.4594  0.6782  0.1015
  379MOL0     N49913   2.000   8.629   2.942  0.4347  0.3252 -0.3716
  379MOL0     C49914   1.880   8.678   2.989  0.3275 -0.0547  0.2078
  379MOL0     C49915   1.809   8.720   2.874 -0.2782 -0.2302 -0.9280
  379MOL0     C49916   1.663   8.774   2.862  0.2049 -0.0826 -1.2145
  379MOL0     C49917   1.573   8.678   2.781 -0.3741  0.7448 -0.0224
  379MOL0     C49918   1.432   8.737   2.785  0.8535 -0.6560  1.0410
  379MOL0     C49919   1.349   8.655   2.691  0.2154  0.6353  0.0405
  379MOL0     O49920   1.246   8.740   2.647  0.1954 -0.2064 -0.2373
  379MOL0     C49921   1.136   8.678   2.595 -0.1697 -0.5384 -0.2372
  379MOL0     C49922   1.022   8.755   2.565 -0.1595  0.6555 -0.0008
  379MOL0     C49923   0.908   8.696   2.524  0.4085 -0.3216 -0.1261
  379MOL0     C49924   0.902   8.569   2.480 -0.3704  0.0494  0.7435
  379MOL0     C49925   0.775   8.508   2.428  0.8962 -0.4737 -0.7891
  379MOL0     O49926   0.671   8.596   2.402 -0.5417  0.4310 -0.1662
  379MOL0     C49927   0.555   8.543   2.363 -0.3181  0.0405 -0.2191
  379MOL0     C49928   0.499   8.598   2.245 -0.1885 -0.5590 -0.4360
  379MOL0     C49929   0.370   8.563   2.200  0.1778  0.4875  0.6421
  379MOL0     C49930   0.297   8.462   2.259  0.7256  0.9698  0.1653
  379MOL0     O49931   0.176   8.417   2.226  0.5739  0.0743  0.5408
  379MOL0     C49932   0.142   8.453   2.098  0.4345 -0.3279 -0.1148
  379MOL0     C49933  -0.002   8.394   2.068 -0.5976  0.5412 -0.0282
  379MOL0     C49934  -0.039   8.266   2.142 -0.1578 -0.5194  0.3458
  379MOL0     C49935  -0.189   8.235   2.110 -0.2595 -0.5991 -0.2265
  379MOL0     C49936  -0.219   8.092   2.156  0.0909 -0.1981  0.3378
  379MOL0     C49937  -0.331   8.035   2.067  0.3199  0.2772 -0.1689
  379MOL0     C49938  -0.392   7.902   2.123  0.5860  0.1587 -0.6133
  379MOL0     C49939  -0.501   7.938   2.228 -0.0603  0.2570 -0.3068
  379MOL0    Cl49940  -0.642   8.013   2.142  0.3034 -0.2681 -0.1813
  379MOL0     C49941   0.359   8.412   2.373  1.0469  0.1596  0.2699
  379MOL0     C49942   0.475   8.443   2.425  0.2975 -0.5734 -1.2134
  379MOL0     O49943   0.767   8.388   2.417 -0.8738  0.0061  0.3900
  379MOL0     C49944   1.018   8.497   2.478  0.0741  0.3557 -0.3817
  379MOL0     C49945   1.136   8.545   2.544  0.9314 -0.2613 -1.1133
  379MOL0     N49946   1.889   8.701   2.765  0.0445  0.1626  0.1076
  379MOL0     N49947   1.996   8.634   2.807  0.2189  0.1850  0.1629
  379MOL0     C49948   3.055   8.398   3.418  0.5791  1.1136  0.4308
  379MOL0     C49949   3.176   8.328   3.430 -0.6165  0.5981 -0.3886
  379MOL0     C49950   3.592   8.158   3.425  0.3454  0.7664  0.2895
  379MOL0     C49951   3.648   8.069   3.513  0.4444 -0.2501  0.0930
  379MOL0     C49952   3.770   8.006   3.495 -0.6223  0.2656 -0.4834
  379MOL0     C49953   3.841   8.025   3.372 -0.2753 -0.3535 -0.1251
  379MOL0     O49954   3.960   7.960   3.348  0.0018  0.5598  0.5409
  379MOL0     C49955   4.036   7.974   3.226  0.0918 -0.1743 -0.4405
  379MOL0     C49956   4.191   7.944   3.256 -0.1753 -0.5774 -0.7445
  379MOL0     C49957   4.247   8.054   3.355  0.1720 -0.1752 -0.3886
  379MOL0     C49958   4.406   8.057   3.354  0.5435  0.1773  0.2357
  379MOL0     C49959   4.455   7.924   3.403  0.1286  0.5071  0.6514
  379MOL0     C49960   4.481   7.810   3.435  0.7432 -0.1689 -0.8532
  379MOL0     C49961   3.787   8.122   3.288 -0.5316 -0.1555  0.7718
  379MOL0     C49962   3.669   8.185   3.314 -0.5751 -0.7796 -0.3645
  379MOL0     H49963   3.307   8.392   3.129  1.3883  0.5054  0.4443
  379MOL0     H49964   3.094   8.487   3.084  0.2448  0.9900  1.3597
  379MOL0     H49965   2.852   8.438   3.102 -1.6176 -1.0193  1.5969
  379MOL0     H49966   2.883   8.613   3.098  0.7802 -0.4166 -2.4294
  379MOL0     H49967   2.652   8.575   3.061  2.2385  1.1805 -0.9328
  379MOL0     H49968   2.649   8.631   3.216  1.3249  2.0309 -3.0675
  379MOL0     H49969   2.688   8.381   3.293  1.5716  1.0270 -0.5509
  379MOL0     H49970   2.607   8.334   3.142 -1.7778  0.7467 -0.0072
  379MOL0     H49971   2.424   8.366   3.313  0.9962  0.4516  1.6559
  379MOL0     H49972   2.483   8.532   3.351 -1.7920  1.0379  0.3363
  379MOL0     H49973   2.369   8.435   3.087 -0.5932 -1.2862  0.8828
  379MOL0     H49974   2.421   8.593   3.109  1.9617 -0.8004 -0.5367
  379MOL0     H49975   2.286   8.606   3.327 -0.9006  0.7370 -0.9068
  379MOL0     H49976   2.208   8.459   3.293 -0.3736  0.9379 -0.2065
  379MOL0     H49977   2.056   8.648   3.214  0.4672  2.4245 -0.1984
  379MOL0     H49978   2.185   8.726   3.147 -1.2368  0.5468 -0.9020
  379MOL0     H49979   2.077   8.458   3.030 -1.4006  0.9523 -1.6175
  379MOL0     H49980   2.198   8.558   2.949 -0.4918 -1.5048 -1.1877
  379MOL0     H49981   1.835   8.670   3.088  0.7615 -2.7414  0.2672
  379MOL0     H49982   1.658   8.870   2.811  4.1070  1.1666  0.3527
  379MOL0     H49983   1.619   8.796   2.960 -0.4735  3.1856 -2.1367
  379MOL0     H49984   1.590   8.583   2.832  1.9774  1.5008  0.7440
  379MOL0     H49985   1.606   8.679   2.676  1.7783 -2.9376  0.4449
  379MOL0     H49986   1.394   8.734   2.887 -1.8252 -0.2664  0.1238
  379MOL0     H49987   1.440   8.842   2.756  0.1529 -1.2061 -1.3023
  379MOL0     H49988   1.309   8.563   2.733 -0.2961  0.6348 -0.4357
  379MOL0     H49989   1.403   8.624   2.601 -0.2452 -1.8260  0.5532
  379MOL0     H49990   1.018   8.857   2.602 -0.9703  1.9055 -3.1899
  379MOL0     H49991   0.819   8.759   2.521  0.1617 -0.6002  0.8236
  379MOL0     H49992   0.566   8.663   2.189  0.2685 -1.1396 -0.5772
  379MOL0     H49993   0.332   8.607   2.108  0.0902  0.1947  0.5375
  379MOL0     H49994   0.219   8.418   2.027  0.7644 -0.6066  0.3759
  379MOL0     H49995   0.134   8.562   2.093  1.0245 -0.1513  1.9268
  379MOL0     H49996  -0.025   8.389   1.961 -2.5751  1.7548  0.2746
  379MOL0     H49997  -0.075   8.460   2.115 -0.6017 -0.7435  1.8651
  379MOL0     H49998  -0.037   8.269   2.252  1.9441 -1.2846  0.3602
  379MOL0     H49999   0.030   8.187   2.114  1.7146  1.2148 -0.1088
  379MOL0     H50000  -0.251   8.316   2.149 -1.6036 -1.5523 -0.3309
  379MOL0     H50001  -0.197   8.236   2.001  1.8143  0.2927 -0.4216
  379MOL0     H50002  -0.244   8.099   2.263  0.1070 -0.9497  0.3946
  379MOL0     H50003  -0.125   8.036   2.150  0.6797  0.7261  0.5825
  379MOL0     H50004  -0.278   8.020   1.973  0.3992  1.6738 -0.3636
  379MOL0     H50005  -0.398   8.118   2.042 -0.3382 -0.5239 -1.1212
  379MOL0     H50006  -0.447   7.854   2.041 -0.0658 -2.2405  1.0955
  379MOL0     H50007  -0.315   7.834   2.160 -1.0099 -1.1730  0.3849
  379MOL0     H50008  -0.452   8.011   2.294 -2.3132  3.3642 -1.8172
  379MOL0     H50009  -0.533   7.851   2.285  0.8114 -0.4089 -0.8088
  379MOL0     H50010   0.309   8.328   2.420 -0.4860  0.5356 -0.6135
  379MOL0     H50011   0.490   8.391   2.519  0.5936 -0.8294 -1.3968
  379MOL0     H50012   1.029   8.391   2.455  0.1371 -0.7234  3.8255
  379MOL0     H50013   1.225   8.483   2.540  0.4015 -1.1023 -0.3823
  379MOL0     H50014   2.991   8.422   3.503  1.2296 -2.9548  2.2979
  379MOL0     H50015   3.193   8.284   3.528  2.5933 -0.1919 -1.1665
  379MOL0     H50016   3.617   8.074   3.617  1.2602  1.8149  0.2926
  379MOL0     H50017   3.809   7.940   3.573 -0.2939  2.1181  0.9796
  379MOL0     H50018   4.034   8.077   3.189  1.5680 -0.5904 -1.8250
  379MOL0     H50019   3.994   7.910   3.147 -0.6652  2.4806 -2.3320
  379MOL0     H50020   4.196   7.840   3.290  1.4354 -0.4884 -0.6293
  379MOL0     H50021   4.250   7.950   3.164  1.5123  2.1723  0.3918
  379MOL0     H50022   4.206   8.041   3.455 -0.1927  1.0764 -0.3570
  379MOL0     H50023   4.211   8.154   3.326  0.1303 -0.3740 -1.0579
  379MOL0     H50024   4.444   8.087   3.256 -2.7622 -1.3976 -1.7219
  379MOL0     H50025   4.446   8.133   3.422 -0.7517 -0.0630  1.3044
  379MOL0     H50026   4.518   7.717   3.473 -1.3911 -0.7538 -0.0479
  379MOL0     H50027   3.829   8.141   3.190  4.0466  1.2023  2.7391
  379MOL0     H50028   3.626   8.248   3.237  0.3625  0.1795 -0.1244
  380MOL0     O50029   5.728   6.369   6.998 -0.3483 -0.0183 -0.0573
  380MOL0     C50030   5.726   6.468   7.067 -0.3547  0.4800 -0.2078
  380MOL0     O50031   5.824   6.560   7.077  0.1977 -0.1242 -0.1908
  380MOL0     C50032   5.954   6.522   7.030  0.0786  0.3628 -0.2551
  380MOL0     C50033   6.045   6.473   7.126  0.2881  0.7433  0.0124
  380MOL0     C50034   6.179   6.441   7.095  0.3017  0.5187  0.3484
  380MOL0     C50035   6.224   6.464   6.962 -0.0567  0.0694  0.1533
  380MOL0     O50036   6.361   6.457   6.941  0.2111 -0.2006  0.2188
  380MOL0     C50037   6.429   6.553   6.855 -0.2242 -0.4944  0.0551
  380MOL0     C50038   6.560   6.607   6.914 -0.3912 -0.2208 -0.4719
  380MOL0     C50039   6.688   6.519   6.891  0.4067 -0.6043 -0.4532
  380MOL0     C50040   6.742   6.525   6.749 -0.5336 -0.3430  0.6044
  380MOL0     C50041   6.860   6.433   6.729 -0.3052 -0.5870 -1.0539
  380MOL0     C50042   6.880   6.389   6.593 -0.0901 -1.2574 -0.4195
  380MOL0     C50043   7.016   6.322   6.561  0.4474 -0.0416 -0.2233
  380MOL0     C50044   7.027   6.193   6.648  0.3988  0.1141  0.6354
  380MOL0     N50045   7.110   6.090   6.575  0.8607 -0.3745 -0.8546
  380MOL0     C50046   7.054   5.992   6.497  0.3625 -0.1946  0.5199
  380MOL0     C50047   7.164   5.926   6.447  0.4797  0.4834 -0.1793
  380MOL0     C50048   7.168   5.812   6.358 -0.7273 -0.2523  0.9882
  380MOL0     C50049   7.040   5.739   6.313  0.1081  0.1650  0.1629
  380MOL0     C50050   6.947   5.846   6.231 -0.1840  0.3160  0.9801
  380MOL0     C50051   6.797   5.819   6.225  0.7970  0.1654  0.1966
  380MOL0     O50052   6.742   5.849   6.353  0.4349  0.0853 -0.1642
  380MOL0     C50053   6.604   5.885   6.354 -0.9448  0.1343  0.4378
  380MOL0     C50054   6.553   5.965   6.453  0.6753 -0.2527 -0.8643
  380MOL0     C50055   6.418   5.985   6.470  0.5263 -0.5629  0.5768
  380MOL0     C50056   6.321   5.934   6.384 -0.7736  0.4593  0.5880
  380MOL0     C50057   6.180   5.962   6.398 -0.6980 -0.2222  0.4004
  380MOL0     O50058   6.092   5.877   6.336  0.7096 -0.5634  0.1697
  380MOL0     C50059   5.951   5.897   6.336  0.4872  0.4324  0.1230
  380MOL0     C50060   5.876   5.786   6.366  0.0614  0.1793 -0.3601
  380MOL0     C50061   5.735   5.796   6.373  0.5903  0.3797  0.3495
  380MOL0     C50062   5.669   5.916   6.344  0.1327  0.3388  0.2340
  380MOL0     O50063   5.533   5.917   6.345  0.2372 -0.4097  0.4598
  380MOL0     C50064   5.468   6.049   6.323 -0.0876  0.1791 -0.4863
  380MOL0     C50065   5.323   6.031   6.291  0.0696  0.1236  0.3558
  380MOL0     C50066   5.245   6.012   6.419 -0.0581  0.3467  0.1715
  380MOL0     C50067   5.101   5.969   6.400  0.7905  0.1113 -0.2909
  380MOL0     C50068   5.022   5.995   6.529 -0.1904 -0.6984 -0.3589
  380MOL0     C50069   4.873   5.970   6.502 -0.3853  0.5105  0.6028
  380MOL0     C50070   4.806   5.956   6.639  0.7347  0.1705  0.4321
  380MOL0     C50071   4.658   5.921   6.620 -0.2957  0.6624 -0.2355
  380MOL0    Cl50072   4.581   6.029   6.734 -0.4053 -0.3070  0.2598
  380MOL0     C50073   5.746   6.032   6.329  0.0227  0.7516  0.2932
  380MOL0     C50074   5.888   6.020   6.332  0.4520 -0.2453  0.5357
  380MOL0     O50075   6.151   6.051   6.470 -0.4599 -0.4963 -0.2304
  380MOL0     C50076   6.372   5.859   6.273  0.2964 -0.3295  0.0532
  380MOL0     C50077   6.509   5.838   6.256 -0.3695 -0.3714 -0.7611
  380MOL0     N50078   7.279   5.978   6.502 -0.4573  0.1868 -0.2232
  380MOL0     N50079   7.245   6.067   6.585  0.2572  0.3353 -0.3616
  380MOL0     C50080   6.140   6.505   6.865 -0.5482 -0.1875  0.0224
  380MOL0     C50081   6.002   6.538   6.898 -0.1059  0.8373 -0.5932
  380MOL0     C50082   5.604   6.489   7.140  0.7406 -0.0622 -0.5610
  380MOL0     C50083   5.607   6.550   7.267 -0.1042  1.0816  0.0685
  380MOL0     C50084   5.489   6.565   7.336  0.0838 -0.2131 -0.7273
  380MOL0     C50085   5.366   6.502   7.295  0.3110 -0.0686 -0.2295
  380MOL0     O50086   5.241   6.504   7.354  0.9059  0.1655  0.5349
  380MOL0     C50087   5.224   6.559   7.481 -0.8278  0.0284 -0.7512
  380MOL0     C50088   5.114   6.482   7.561 -0.0309  0.6146  0.3557
  380MOL0     C50089   5.041   6.574   7.666  0.3450  0.2355  0.2484
  380MOL0     C50090   4.932   6.672   7.601  0.1434 -0.7150  0.1093
  380MOL0     C50091   4.790   6.626   7.625 -0.0980 -0.2236  0.6113
  380MOL0     C50092   4.679   6.578   7.652 -0.1257  0.5683  0.6605
  380MOL0     C50093   5.370   6.455   7.167  0.3575 -0.3126 -0.0429
  380MOL0     C50094   5.484   6.440   7.088  0.1658 -0.6961  0.1754
  380MOL0     H50095   6.004   6.470   7.226 -1.7260 -2.2718 -0.7785
  380MOL0     H50096   6.255   6.420   7.170  1.9300  1.0117 -1.1075
  380MOL0     H50097   6.372   6.646   6.855  1.0179  0.2847  0.5217
  380MOL0     H50098   6.450   6.505   6.759 -0.4868 -0.1209 -0.1903
  380MOL0     H50099   6.547   6.625   7.021  3.1652  0.5233 -0.0291
  380MOL0     H50100   6.576   6.710   6.882  1.7117 -0.5131 -0.5389
  380MOL0     H50101   6.684   6.421   6.939 -0.5240 -0.0370  0.6830
  380MOL0     H50102   6.764   6.570   6.951 -0.5067 -0.8448  0.9510
  380MOL0     H50103   6.656   6.502   6.686  0.3262  1.0848 -1.1981
  380MOL0     H50104   6.780   6.623   6.720  1.6683 -1.5438 -0.9019
  380MOL0     H50105   6.855   6.349   6.798 -0.6955 -0.7038 -1.2192
  380MOL0     H50106   6.943   6.494   6.764 -2.2119  2.4622 -1.4061
  380MOL0     H50107   6.863   6.472   6.523  1.2310 -0.5053  0.1114
  380MOL0     H50108   6.800   6.319   6.568 -5.3628  2.9636  2.4683
  380MOL0     H50109   7.014   6.296   6.455  0.1007  2.7702 -0.9847
  380MOL0     H50110   7.101   6.387   6.584 -0.4281  1.1735 -0.2898
  380MOL0     H50111   6.925   6.157   6.664 -0.7652  3.0074  0.3564
  380MOL0     H50112   7.074   6.226   6.741  2.4506  1.1080 -0.6756
  380MOL0     H50113   6.948   5.977   6.477  0.4433 -0.1593  0.0503
  380MOL0     H50114   7.228   5.738   6.412 -0.3161 -0.8205 -0.1979
  380MOL0     H50115   7.219   5.843   6.266  0.9894  2.2915  2.6785
  380MOL0     H50116   6.985   5.713   6.404  1.6377 -1.8090  0.6131
  380MOL0     H50117   7.065   5.651   6.252  0.1089  0.8159 -0.7940
  380MOL0     H50118   6.970   5.947   6.266 -0.9219  2.3869 -3.7519
  380MOL0     H50119   6.975   5.850   6.125 -2.2081 -1.0038  0.3408
  380MOL0     H50120   6.771   5.718   6.191  0.8954  0.4351 -0.6941
  380MOL0     H50121   6.746   5.884   6.154 -2.4487 -0.8398  1.4278
  380MOL0     H50122   6.626   6.007   6.522 -0.0894  1.7180 -1.1837
  380MOL0     H50123   6.374   6.046   6.548 -3.2441  0.4062 -2.0312
  380MOL0     H50124   5.928   5.694   6.388 -0.6356 -0.1218  0.0539
  380MOL0     H50125   5.673   5.708   6.390 -0.7947  1.2565 -0.0335
  380MOL0     H50126   5.518   6.095   6.237 -1.8219  0.6144 -1.3189
  380MOL0     H50127   5.484   6.118   6.406 -0.1872  1.7536 -1.7312
  380MOL0     H50128   5.315   5.949   6.220  2.2156 -0.1963  0.4069
  380MOL0     H50129   5.286   6.116   6.233  0.3381  0.6910  1.0020
  380MOL0     H50130   5.253   6.106   6.475  1.5431 -1.6415  3.6341
  380MOL0     H50131   5.290   5.938   6.486  1.8987 -0.7473 -2.1817
  380MOL0     H50132   5.060   6.029   6.318  0.7926  3.6247  2.0503
  380MOL0     H50133   5.085   5.864   6.378 -3.0641  0.4314  0.3029
  380MOL0     H50134   5.024   6.102   6.550 -1.3983 -0.7590  0.1310
  380MOL0     H50135   5.058   5.939   6.616 -0.7045  1.3406  1.2312
  380MOL0     H50136   4.858   5.880   6.441 -2.1357  0.4469  1.0843
  380MOL0     H50137   4.834   6.055   6.445 -1.4291 -0.4982 -0.2398
  380MOL0     H50138   4.857   5.870   6.685  2.1888  1.4785  1.3626
  380MOL0     H50139   4.814   6.052   6.690 -0.5556 -0.5636  2.1434
  380MOL0     H50140   4.649   5.813   6.632 -0.3744  0.7630  0.7208
  380MOL0     H50141   4.626   5.940   6.517  1.9933  3.1746 -0.6097
  380MOL0     H50142   5.719   6.137   6.319 -1.6079  0.4556  1.1917
  380MOL0     H50143   5.959   6.101   6.323  0.1437  0.2656  2.2732
  380MOL0     H50144   6.307   5.828   6.192 -2.7913  0.6231  1.9838
  380MOL0     H50145   6.537   5.770   6.176  0.1465  0.6073 -1.4211
  380MOL0     H50146   6.174   6.516   6.762 -1.1213  2.7692  0.0861
  380MOL0     H50147   5.940   6.584   6.822 -0.4109  1.3177 -0.0622
  380MOL0     H50148   5.696   6.583   7.320  0.8771 -3.5062  1.7880
  380MOL0     H50149   5.488   6.618   7.431  3.3450 -2.7404  0.9223
  380MOL0     H50150   5.197   6.664   7.463  0.6619  0.3905 -1.0494
  380MOL0     H50151   5.312   6.552   7.546 -0.3826  1.0358 -1.2072
  380MOL0     H50152   5.045   6.447   7.484  2.2932  2.7940 -3.0050
  380MOL0     H50153   5.166   6.403   7.615  0.7434  0.0840 -1.1058
  380MOL0     H50154   5.121   6.626   7.719  2.0229 -1.2502 -0.7458
  380MOL0     H50155   4.986   6.523   7.746  1.5803  1.3990  1.9196
  380MOL0     H50156   4.958   6.772   7.635 -0.4425 -0.3206 -0.5859
  380MOL0     H50157   4.953   6.669   7.494  1.3380  2.1036  0.2010
  380MOL0     H50158   4.585   6.527   7.661 -0.0333 -0.0920 -1.4995
  380MOL0     H50159   5.278   6.424   7.119 -0.3885  2.6248 -0.7224
  380MOL0     H50160   5.466   6.395   6.991 -2.0795 -0.5934  0.4948
  381MOL0     O50161   1.333  11.078   9.226 -0.4227 -0.4513  0.6996
  381MOL0     C50162   1.326  11.095   9.347 -0.1568 -0.1728 -0.7438
  381MOL0     O50163   1.417  11.165   9.424 -0.3315  0.2263  0.4272
  381MOL0     C50164   1.531  11.214   9.366 -0.7484  0.3017  0.0558
  381MOL0     C50165   1.653  11.176   9.417 -0.0353 -0.1533  0.2227
  381MOL0     C50166   1.764  11.232   9.362 -1.0745 -0.1021 -0.0197
  381MOL0     C50167   1.771  11.322   9.258  1.1897 -0.8579  0.2178
  381MOL0     O50168   1.895  11.352   9.203 -0.5224  0.3538  0.3855
  381MOL0     C50169   1.893  11.467   9.113  0.2048  0.6270  0.0477
  381MOL0     C50170   2.026  11.470   9.045  0.4381 -0.1386  0.6775
  381MOL0     C50171   2.157  11.474   9.131 -0.1378 -0.1244 -0.8637
  381MOL0     C50172   2.128  11.564   9.259  0.2426  0.3173  0.1096
  381MOL0     C50173   2.258  11.618   9.313 -0.0899 -0.2457  0.2663
  381MOL0     C50174   2.367  11.510   9.340 -0.8805  0.7795  0.0867
  381MOL0     C50175   2.507  11.569   9.378  0.1381  0.2808  0.3076
  381MOL0     C50176   2.566  11.496   9.496  0.4226  0.3755  0.1487
  381MOL0     N50177   2.709  11.512   9.530  0.9885 -0.1156 -0.4328
  381MOL0     C50178   2.764  11.626   9.588  0.0677 -0.5495  0.1199
  381MOL0     C50179   2.888  11.594   9.620 -0.3471 -1.1039 -0.5260
  381MOL0     C50180   2.993  11.682   9.696 -0.2922 -0.1925 -0.2203
  381MOL0     C50181   3.118  11.610   9.743  0.5122 -0.3327 -0.1385
  381MOL0     C50182   3.208  11.701   9.821 -0.2085 -0.2232 -0.5297
  381MOL0     C50183   3.323  11.621   9.891  0.3812  0.1628  0.1068
  381MOL0     O50184   3.416  11.711   9.950  0.2325 -0.5437  0.0215
  381MOL0     C50185   3.530  11.658  10.004  0.2243  0.8110 -0.8940
  381MOL0     C50186   3.637  11.741  10.025 -0.1110  0.1603 -0.0466
  381MOL0     C50187   3.746  11.707  10.099 -0.4368  0.5118  0.1033
  381MOL0     C50188   3.762  11.578  10.149  0.6252 -0.7139  0.2083
  381MOL0     C50189   3.871  11.540  10.232 -0.4326 -0.2304 -0.6092
  381MOL0     O50190   3.850  11.410  10.292 -0.2316 -0.0349 -0.4556
  381MOL0     C50191   3.948  11.351  10.366 -0.3522  0.0386 -1.0100
  381MOL0     C50192   3.900  11.282  10.474 -0.3809  0.4917 -0.2349
  381MOL0     C50193   3.991  11.217  10.558  0.3787  0.5063 -0.1238
  381MOL0     C50194   4.132  11.210  10.529  0.2515  0.1118  0.2262
  381MOL0     O50195   4.222  11.158  10.618 -0.1764  0.9847  0.3749
  381MOL0     C50196   4.181  11.064  10.712  1.4110 -1.0131 -0.5142
  381MOL0     C50197   4.294  11.010  10.802  0.2352  0.2426  0.1630
  381MOL0     C50198   4.431  11.031  10.744 -0.6395 -0.5321  0.3419
  381MOL0     C50199   4.544  10.942  10.799  0.7227 -0.3573 -0.3741
  381MOL0     C50200   4.677  10.984  10.744  0.4979 -0.0248 -1.0164
  381MOL0     C50201   4.791  10.897  10.808 -0.2195 -0.4272 -0.9303
  381MOL0     C50202   4.928  10.913  10.733 -0.0645  0.4592 -0.7546
  381MOL0     C50203   5.047  10.815  10.754  0.2581  0.4434 -0.0994
  381MOL0    Cl50204   5.107  10.843  10.914  0.1264 -0.0319 -0.1053
  381MOL0     C50205   4.183  11.278  10.413  0.3470  0.3958 -0.4117
  381MOL0     C50206   4.093  11.356  10.335  0.7414  0.4307  0.4254
  381MOL0     O50207   3.975  11.603  10.230  0.0956 -0.0463 -0.2519
  381MOL0     C50208   3.652  11.485  10.128 -1.2724 -0.3959  0.2717
  381MOL0     C50209   3.543  11.525  10.053 -0.6081  0.6953 -0.7192
  381MOL0     N50210   2.910  11.472   9.566  0.0644  0.7791 -0.0400
  381MOL0     N50211   2.797  11.416   9.520 -0.1975 -0.2864 -0.4884
  381MOL0     C50212   1.642  11.368   9.209 -0.3929 -0.8381 -0.3214
  381MOL0     C50213   1.530  11.311   9.264 -0.1190 -0.2405  0.3549
  381MOL0     C50214   1.203  11.037   9.405  0.6470 -0.1395  0.1254
  381MOL0     C50215   1.198  11.041   9.544  0.5958  0.4009 -0.5040
  381MOL0     C50216   1.097  10.971   9.606  0.6058  0.0300 -0.1983
  381MOL0     C50217   0.990  10.915   9.534 -0.2241 -0.2427 -0.1776
  381MOL0     O50218   0.889  10.840   9.599 -0.3223  0.2868  0.2982
  381MOL0     C50219   0.853  10.850   9.739 -0.2479 -0.2320  0.3265
  381MOL0     C50220   0.754  10.739   9.776  0.3636 -0.9099  0.4658
  381MOL0     C50221   0.615  10.772   9.746  0.5405 -0.3527  0.6367
  381MOL0     C50222   0.519  10.649   9.774 -0.2511 -0.2186  0.0861
  381MOL0     C50223   0.534  10.544   9.676 -0.1398  0.0057 -0.4209
  381MOL0     C50224   0.555  10.472   9.585 -0.8235  0.0764  0.6551
  381MOL0     C50225   0.988  10.931   9.394  0.5286 -0.5016 -0.0713
  381MOL0     C50226   1.095  10.985   9.325 -0.9276  0.0917 -0.1406
  381MOL0     H50227   1.661  11.100   9.495 -1.2088 -0.5534 -0.0173
  381MOL0     H50228   1.861  11.207   9.405 -1.5040  2.6530  2.8862
  381MOL0     H50229   1.879  11.561   9.166 -0.1934  0.8712 -0.4978
  381MOL0     H50230   1.818  11.453   9.036 -0.2740 -3.4125  0.9922
  381MOL0     H50231   2.031  11.563   8.987  1.6533 -0.3331  0.4405
  381MOL0     H50232   2.040  11.384   8.979  1.3569  0.3425  0.2145
  381MOL0     H50233   2.233  11.529   9.075  2.2582 -3.3672 -1.0822
  381MOL0     H50234   2.195  11.378   9.167 -2.5841 -1.1628 -0.8353
  381MOL0     H50235   2.077  11.652   9.219  2.9107  2.2694  0.6667
  381MOL0     H50236   2.079  11.511   9.341 -0.7564  0.8002 -0.1632
  381MOL0     H50237   2.230  11.666   9.407 -0.2046  0.2038  0.0029
  381MOL0     H50238   2.302  11.690   9.244 -1.2093  1.1930  0.9804
  381MOL0     H50239   2.390  11.454   9.249  1.2676 -0.5627  1.3838
  381MOL0     H50240   2.349  11.440   9.421  5.4848 -3.6262 -1.5205
  381MOL0     H50241   2.579  11.553   9.298  0.6216 -2.1157  1.1189
  381MOL0     H50242   2.501  11.673   9.411  0.3071 -0.6048  3.4701
  381MOL0     H50243   2.541  11.390   9.484 -1.8901  0.6808  1.5764
  381MOL0     H50244   2.509  11.519   9.587  0.3118 -0.3929  0.2846
  381MOL0     H50245   2.716  11.724   9.598  1.8486  0.4169 -0.4477
  381MOL0     H50246   2.933  11.738   9.768  0.3983 -2.6772  2.4779
  381MOL0     H50247   3.034  11.752   9.622 -0.7658 -0.4114 -0.6991
  381MOL0     H50248   3.175  11.578   9.656 -1.7390 -3.2598 -0.6993
  381MOL0     H50249   3.091  11.517   9.794 -0.1393 -1.4163 -2.3109
  381MOL0     H50250   3.238  11.766   9.738 -0.4206 -1.4880 -1.6396
  381MOL0     H50251   3.149  11.765   9.887 -2.6371 -2.1580 -0.6740
  381MOL0     H50252   3.374  11.564   9.813 -0.0526 -1.1106  0.7294
  381MOL0     H50253   3.269  11.562   9.966 -0.0989 -3.3479 -2.7353
  381MOL0     H50254   3.625  11.843   9.992 -0.1484  0.3752  0.6121
  381MOL0     H50255   3.825  11.777  10.127 -0.3130 -0.1830  1.6172
  381MOL0     H50256   3.794  11.272  10.495 -0.1900 -1.2964  0.1050
  381MOL0     H50257   3.949  11.161  10.642 -3.9770  0.6046 -1.9752
  381MOL0     H50258   4.135  10.977  10.664  0.5566 -2.4046  2.5699
  381MOL0     H50259   4.103  11.106  10.777  0.5111 -3.2232 -0.0750
  381MOL0     H50260   4.277  10.905  10.827  1.0369  0.1173  0.1988
  381MOL0     H50261   4.292  11.077  10.889  0.9967  0.1820  0.2291
  381MOL0     H50262   4.456  11.138  10.739 -0.9184 -0.4831 -4.3059
  381MOL0     H50263   4.419  11.015  10.636 -1.2831 -0.7876  0.4427
  381MOL0     H50264   4.554  10.959  10.907  1.1507  1.0005 -0.6145
  381MOL0     H50265   4.527  10.836  10.778  1.5571 -0.5074 -0.2935
  381MOL0     H50266   4.694  11.092  10.757 -2.7465  0.4735  0.0964
  381MOL0     H50267   4.686  10.943  10.643  1.2272 -3.4979  0.3107
  381MOL0     H50268   4.767  10.790  10.805  2.4831 -1.0821 -1.9160
  381MOL0     H50269   4.812  10.925  10.911 -0.7693  1.6270 -1.3394
  381MOL0     H50270   4.914  10.907  10.625 -0.0167 -0.9286 -0.6967
  381MOL0     H50271   4.963  11.014  10.755 -1.2085  0.8037 -0.4716
  381MOL0     H50272   5.125  10.848  10.685 -1.6242  1.4887 -1.8300
  381MOL0     H50273   5.030  10.707  10.749  0.5205  0.3814  0.3299
  381MOL0     H50274   4.289  11.265  10.394  0.7997 -2.1409  2.8582
  381MOL0     H50275   4.130  11.421  10.257  0.4261  0.1097  0.0056
  381MOL0     H50276   3.663  11.383  10.164 -0.6236 -0.1456  0.8146
  381MOL0     H50277   3.460  11.454  10.050  0.1563 -0.1900 -1.3795
  381MOL0     H50278   1.623  11.446   9.136  0.5708  1.1297  1.4202
  381MOL0     H50279   1.432  11.355   9.250 -1.2192 -2.0960  1.7345
  381MOL0     H50280   1.288  11.079   9.592 -0.6638  3.2565 -0.1537
  381MOL0     H50281   1.108  10.955   9.713  1.0264  1.3320 -0.0213
  381MOL0     H50282   0.803  10.946   9.752 -0.4354 -0.4528  1.3757
  381MOL0     H50283   0.935  10.845   9.812 -0.9472  2.3474  1.4171
  381MOL0     H50284   0.796  10.653   9.724  0.6055  0.7198 -2.2531
  381MOL0     H50285   0.762  10.722   9.884 -1.2116 -0.3790  0.6801
  381MOL0     H50286   0.625  10.794   9.640  1.6279  0.7266  0.9376
  381MOL0     H50287   0.578  10.860   9.800  3.9632  0.1303  2.5004
  381MOL0     H50288   0.553  10.612   9.871  3.1807  1.2068 -0.4139
  381MOL0     H50289   0.415  10.680   9.786 -0.2353 -1.0667  3.3784
  381MOL0     H50290   0.571  10.414   9.496 -1.7375 -0.7390  1.0004
  381MOL0     H50291   0.909  10.894   9.330  1.0135 -1.9191  0.1022
  381MOL0     H50292   1.095  10.990   9.216 -1.7537  0.5010 -0.1243
  382MOL0     O50293   0.254   8.296  10.129 -0.6306  0.2050  0.1476
  382MOL0     C50294   0.229   8.376  10.216 -1.2087 -0.6772  0.1405
  382MOL0     O50295   0.313   8.473  10.266  0.6905  0.2899 -1.1261
  382MOL0     C50296   0.448   8.480  10.225  0.0720 -0.0429  0.8442
  382MOL0     C50297   0.524   8.378  10.159  0.0082 -0.0579 -0.4774
  382MOL0     C50298   0.658   8.403  10.125 -0.1112  0.4579  0.6490
  382MOL0     C50299   0.724   8.524  10.141  0.2212  0.7121 -0.3414
  382MOL0     O50300   0.846   8.531  10.088  0.2255 -0.4448 -0.1699
  382MOL0     C50301   0.921   8.657  10.102 -0.7416 -0.2143 -0.3726
  382MOL0     C50302   0.886   8.738   9.975 -0.4771 -0.1640 -0.7654
  382MOL0     C50303   0.994   8.843   9.946 -0.1358  0.5275 -0.5618
  382MOL0     C50304   0.991   8.891   9.803 -0.0450 -0.2275 -1.3569
  382MOL0     C50305   0.896   9.010   9.776  0.0402 -0.4100 -0.2813
  382MOL0     C50306   0.755   8.980   9.794 -0.1741  0.0276 -0.2973
  382MOL0     C50307   0.668   9.082   9.736 -0.0710 -0.1830  0.2315
  382MOL0     C50308   0.638   9.059   9.587  0.8649 -0.1872 -0.0856
  382MOL0     N50309   0.509   9.127   9.546 -0.5784 -0.1298  0.3798
  382MOL0     C50310   0.490   9.219   9.445 -0.6389 -0.8034  0.3665
  382MOL0     C50311   0.354   9.223   9.427 -0.0310 -1.2355 -0.3436
  382MOL0     C50312   0.273   9.312   9.338 -1.5618 -0.0987  0.3044
  382MOL0     C50313   0.273   9.463   9.374  0.4561  0.4666  0.0471
  382MOL0     C50314   0.228   9.555   9.253 -0.5926  0.4211  0.2070
  382MOL0     C50315   0.096   9.517   9.198  0.0834 -0.7711  0.5710
  382MOL0     O50316   0.009   9.500   9.298  0.5820  0.1369  0.4612
  382MOL0     C50317  -0.123   9.489   9.264  0.7179 -0.2945  0.2048
  382MOL0     C50318  -0.216   9.460   9.357  0.4663 -0.5201 -0.4100
  382MOL0     C50319  -0.351   9.441   9.325 -0.2029  0.2102 -0.6077
  382MOL0     C50320  -0.402   9.437   9.189 -0.7759 -0.0111  0.0906
  382MOL0     C50321  -0.543   9.411   9.170 -0.8303 -0.4124  0.1854
  382MOL0     O50322  -0.602   9.364   9.278 -0.5790  0.1104  0.1539
  382MOL0     C50323  -0.743   9.360   9.293 -0.8706  0.1755 -0.1636
  382MOL0     C50324  -0.788   9.369   9.422  0.5244  0.0032 -0.7986
  382MOL0     C50325  -0.922   9.349   9.453 -0.0032  0.4461  0.4798
  382MOL0     C50326  -1.004   9.284   9.354  0.0488  0.9134  0.3226
  382MOL0     O50327  -1.136   9.244   9.360 -0.0812 -0.1547  0.0246
  382MOL0     C50328  -1.213   9.305   9.468 -0.0627 -0.0072 -1.1219
  382MOL0     C50329  -1.239   9.450   9.449 -0.1031 -0.9036  0.2554
  382MOL0     C50330  -1.323   9.489   9.324  1.0917  0.1490 -0.6907
  382MOL0     C50331  -1.468   9.440   9.321 -0.2159 -0.8348  0.5089
  382MOL0     C50332  -1.539   9.519   9.207  0.8022  0.5303  0.1534
  382MOL0     C50333  -1.690   9.499   9.195  0.5471 -0.7489  0.3199
  382MOL0     C50334  -1.753   9.582   9.302  0.2757  0.0452 -0.2979
  382MOL0     C50335  -1.898   9.567   9.310  0.3096 -0.0571  0.1986
  382MOL0    Cl50336  -1.940   9.409   9.369  0.0022  0.3892  0.6492
  382MOL0     C50337  -0.958   9.271   9.226  0.3878 -0.2203  0.0287
  382MOL0     C50338  -0.830   9.309   9.196  0.1823 -0.3661 -0.0561
  382MOL0     O50339  -0.606   9.436   9.061 -0.1309 -0.0181  0.0968
  382MOL0     C50340  -0.312   9.466   9.089 -0.9811  0.0693  0.2312
  382MOL0     C50341  -0.175   9.496   9.129 -0.2576  0.0411  0.3823
  382MOL0     N50342   0.293   9.129   9.515  0.6021  0.0603  0.0496
  382MOL0     N50343   0.392   9.070   9.564  0.0080 -0.6149  0.1929
  382MOL0     C50344   0.649   8.625  10.202 -0.8634 -0.1207  0.4733
  382MOL0     C50345   0.517   8.604  10.249  0.3517  0.6294 -0.8203
  382MOL0     C50346   0.086   8.390  10.267 -0.6531  0.2779 -0.7619
  382MOL0     C50347   0.047   8.460  10.386 -0.3286  0.1515 -0.2472
  382MOL0     C50348  -0.083   8.471  10.428  0.6956  0.9509 -0.3538
  382MOL0     C50349  -0.181   8.394  10.370 -0.3490 -0.2233 -0.0998
  382MOL0     O50350  -0.310   8.390  10.416  0.5587 -0.7043  0.3483
  382MOL0     C50351  -0.359   8.482  10.517  0.3357  0.4929  0.3182
  382MOL0     C50352  -0.510   8.469  10.549 -0.1412 -0.0083  0.1420
  382MOL0     C50353  -0.555   8.317  10.559  0.6820 -0.0141 -0.2992
  382MOL0     C50354  -0.705   8.315  10.591 -1.0682 -0.1861 -0.1555
  382MOL0     C50355  -0.786   8.353  10.471 -0.4043  0.2800 -0.2585
  382MOL0     C50356  -0.843   8.373  10.367 -0.2907  0.1134  0.7482
  382MOL0     C50357  -0.142   8.331  10.253  0.2033  0.4162  0.9157
  382MOL0     C50358  -0.009   8.311  10.208 -0.8595  0.7591  0.5951
  382MOL0     H50359   0.484   8.280  10.135  1.1115 -0.2253 -1.7103
  382MOL0     H50360   0.705   8.318  10.076 -2.6796 -0.0945 -1.0454
  382MOL0     H50361   1.027   8.630  10.105 -0.4543  0.8246 -0.7157
  382MOL0     H50362   0.895   8.710  10.194  4.0293  1.9546  0.0343
  382MOL0     H50363   0.786   8.780   9.992 -1.6557 -2.8784 -0.4606
  382MOL0     H50364   0.883   8.668   9.891  2.1475 -1.5006  0.1478
  382MOL0     H50365   1.091   8.794   9.959  0.6574  1.6053 -2.1216
  382MOL0     H50366   0.986   8.921  10.022 -0.5701 -0.0469 -0.0030
  382MOL0     H50367   1.097   8.914   9.788 -0.1231  0.0631 -1.4599
  382MOL0     H50368   0.964   8.818   9.726 -0.6313  0.3156 -1.6776
  382MOL0     H50369   0.915   9.028   9.670  1.9862 -4.0515 -0.7323
  382MOL0     H50370   0.929   9.093   9.839 -0.8176 -2.4287  3.1113
  382MOL0     H50371   0.731   8.976   9.900 -1.3377  3.5036 -0.3065
  382MOL0     H50372   0.738   8.890   9.734 -0.1526  0.5159 -1.0516
  382MOL0     H50373   0.566   9.079   9.777 -0.8188 -0.3947 -1.5380
  382MOL0     H50374   0.706   9.183   9.750 -1.3735  0.3502  0.0690
  382MOL0     H50375   0.637   8.951   9.570  0.9031 -0.4724  1.4955
  382MOL0     H50376   0.717   9.100   9.524  0.7366  1.4829  0.7641
  382MOL0     H50377   0.572   9.274   9.401 -0.3192 -1.7578 -0.2668
  382MOL0     H50378   0.172   9.270   9.334 -0.8269 -1.9145 -0.3125
  382MOL0     H50379   0.309   9.306   9.234 -1.6355  0.1065  0.2651
  382MOL0     H50380   0.377   9.493   9.393  0.7185  0.2185 -0.9489
  382MOL0     H50381   0.203   9.481   9.456  0.2397 -1.2213  0.2551
  382MOL0     H50382   0.217   9.661   9.279 -0.6817  0.5706 -0.4109
  382MOL0     H50383   0.313   9.562   9.184 -0.1193  2.0509  0.8895
  382MOL0     H50384   0.108   9.418   9.153 -0.0913 -0.7023  0.3712
  382MOL0     H50385   0.065   9.587   9.120 -1.1703 -0.1904  1.5595
  382MOL0     H50386  -0.193   9.436   9.460 -0.2707 -3.5271 -0.8368
  382MOL0     H50387  -0.411   9.413   9.412  0.9786 -0.3772  0.0403
  382MOL0     H50388  -0.717   9.401   9.498  0.4312  0.5668 -0.9497
  382MOL0     H50389  -0.961   9.368   9.553  1.7384  0.0539  1.2691
  382MOL0     H50390  -1.173   9.300   9.570 -0.8970  1.0255 -0.7264
  382MOL0     H50391  -1.306   9.247   9.475  1.0155 -1.6539  1.0886
  382MOL0     H50392  -1.149   9.509   9.432 -1.9183  1.4680 -1.7609
  382MOL0     H50393  -1.284   9.490   9.540 -0.6180 -2.0041  0.5031
  382MOL0     H50394  -1.269   9.469   9.231  5.9342  2.5501  1.2271
  382MOL0     H50395  -1.328   9.597   9.336 -0.9498 -0.1633  2.2049
  382MOL0     H50396  -1.475   9.333   9.303 -1.2042 -0.6022 -0.6149
  382MOL0     H50397  -1.526   9.455   9.413 -3.6994  0.7502 -1.7158
  382MOL0     H50398  -1.487   9.508   9.111 -0.5405 -1.6269 -0.4024
  382MOL0     H50399  -1.517   9.623   9.231  2.0373  0.3057  0.0881
  382MOL0     H50400  -1.706   9.392   9.211  1.0152 -0.9522 -0.5417
  382MOL0     H50401  -1.733   9.524   9.098  2.9425  1.0298 -0.3714
  382MOL0     H50402  -1.728   9.564   9.407  1.0284 -0.0020 -0.4803
  382MOL0     H50403  -1.736   9.688   9.285 -3.5416  0.9333  0.4441
  382MOL0     H50404  -1.941   9.582   9.210  2.6741  1.0110 -0.7334
  382MOL0     H50405  -1.940   9.645   9.374 -0.7908  1.5478 -2.3374
  382MOL0     H50406  -1.028   9.222   9.159  1.1392  0.3371 -1.2062
  382MOL0     H50407  -0.782   9.295   9.100 -1.3095  0.6559 -0.9911
  382MOL0     H50408  -0.332   9.477   8.983 -1.5991 -4.0405 -0.2523
  382MOL0     H50409  -0.111   9.513   9.043 -0.3185 -0.7921  0.1687
  382MOL0     H50410   0.697   8.721  10.217 -0.9533 -0.0073  0.0354
  382MOL0     H50411   0.454   8.677  10.300 -1.8051 -2.2444  0.9737
  382MOL0     H50412   0.127   8.518  10.430  0.1876  2.5127 -3.8688
  382MOL0     H50413  -0.097   8.542  10.509 -1.1853  0.2616 -0.0137
  382MOL0     H50414  -0.339   8.580  10.472 -1.3822  0.8467  0.2627
  382MOL0     H50415  -0.291   8.463  10.601 -0.2577  1.5056  1.0413
  382MOL0     H50416  -0.522   8.523  10.643  0.2978  1.5006 -0.6436
  382MOL0     H50417  -0.572   8.520  10.474 -0.6602  1.0788  1.2800
  382MOL0     H50418  -0.504   8.278  10.648 -2.6760  2.8595  3.2484
  382MOL0     H50419  -0.530   8.263  10.467  1.7786 -0.2861  0.1419
  382MOL0     H50420  -0.738   8.219  10.632 -0.2477  0.2957  1.7322
  382MOL0     H50421  -0.733   8.381  10.675  0.3286 -0.6810  0.7234
  382MOL0     H50422  -0.900   8.389  10.277 -1.8359 -0.4196  1.6010
  382MOL0     H50423  -0.214   8.273  10.196  2.4877 -0.2536 -1.4832
  382MOL0     H50424   0.002   8.245  10.123 -1.7342 -1.7835  2.3266
  383MOL0     O50425   5.915   1.828   8.361 -0.6056 -0.1050  0.5367
  383MOL0     C50426   5.967   1.937   8.389 -0.3250  0.0927 -0.9564
  383MOL0     O50427   5.904   2.060   8.361 -0.3557  0.1945 -0.0981
  383MOL0     C50428   5.771   2.063   8.331  0.5834  0.1503  0.3041
  383MOL0     C50429   5.672   1.995   8.402 -0.4413  0.4728  0.2024
  383MOL0     C50430   5.537   1.995   8.363  0.0064  0.6598 -1.1407
  383MOL0     C50431   5.494   2.079   8.263  0.0167  0.0145  0.7049
  383MOL0     O50432   5.362   2.100   8.228  0.0522 -0.0313 -0.6443
  383MOL0     C50433   5.263   1.998   8.274  0.3667 -0.6611  0.5466
  383MOL0     C50434   5.133   2.025   8.205  0.8902  1.2137  0.3426
  383MOL0     C50435   5.022   1.920   8.225  0.0653 -0.3290 -0.6503
  383MOL0     C50436   4.936   1.964   8.343 -0.5534  0.1495 -0.4903
  383MOL0     C50437   4.823   1.861   8.372 -0.3706 -0.1976  0.0321
  383MOL0     C50438   4.716   1.918   8.476  0.1169 -0.2190  0.1491
  383MOL0     C50439   4.629   2.039   8.438  1.0203  0.0376 -0.1889
  383MOL0     C50440   4.532   2.026   8.317  0.0624  0.2258 -0.3840
  383MOL0     N50441   4.430   1.919   8.340  0.1254 -0.4844 -0.0175
  383MOL0     C50442   4.365   1.880   8.455  0.1444 -0.0516 -0.5062
  383MOL0     C50443   4.318   1.755   8.433  0.4331  0.4640 -0.2611
  383MOL0     C50444   4.257   1.647   8.511  0.0128  0.9231  0.0622
  383MOL0     C50445   4.124   1.701   8.581  0.2821 -0.2490  0.3270
  383MOL0     C50446   4.020   1.590   8.585 -0.2033 -0.1846  0.9707
  383MOL0     C50447   3.892   1.655   8.635  0.1269  0.9088 -0.5479
  383MOL0     O50448   3.803   1.547   8.653  0.5393 -0.0261 -0.2082
  383MOL0     C50449   3.672   1.585   8.674 -1.1285 -0.0009 -0.1013
  383MOL0     C50450   3.588   1.495   8.614  0.0307  0.3113  0.1891
  383MOL0     C50451   3.450   1.517   8.624 -0.5509  0.4417  0.0072
  383MOL0     C50452   3.404   1.634   8.686  0.4819  0.8485  1.2550
  383MOL0     C50453   3.259   1.657   8.707 -0.2632  0.0340  0.8717
  383MOL0     O50454   3.176   1.566   8.770  0.3129  0.3364  0.3020
  383MOL0     C50455   3.039   1.564   8.770  0.2686 -0.4670 -0.3254
  383MOL0     C50456   2.958   1.626   8.674 -0.5813  0.8981 -0.1733
  383MOL0     C50457   2.823   1.622   8.688  1.0276 -0.1059 -0.2570
  383MOL0     C50458   2.755   1.542   8.787  1.1955 -0.3596  0.2544
  383MOL0     O50459   2.627   1.516   8.798  0.3968 -0.7216 -0.1339
  383MOL0     C50460   2.521   1.584   8.731 -0.3605  0.3108  0.0777
  383MOL0     C50461   2.391   1.565   8.813  0.3416 -0.5286 -0.5763
  383MOL0     C50462   2.294   1.683   8.782  0.6986 -0.3943  0.3414
  383MOL0     C50463   2.164   1.681   8.870 -0.6156 -0.8218  0.4142
  383MOL0     C50464   2.058   1.755   8.800  0.0202 -0.5666  1.2091
  383MOL0     C50465   1.941   1.782   8.889  0.2318  0.4359  1.2898
  383MOL0     C50466   1.852   1.902   8.838 -0.9683  0.5286 -0.2373
  383MOL0     C50467   1.777   1.894   8.701 -0.2057 -0.2297  0.0990
  383MOL0    Cl50468   1.663   1.759   8.705  0.0304  0.2314  0.1622
  383MOL0     C50469   2.837   1.488   8.884  1.1577  0.7760  0.2241
  383MOL0     C50470   2.975   1.485   8.870  1.0061 -0.8742  0.8872
  383MOL0     O50471   3.223   1.769   8.683 -0.4111  0.4586  0.2431
  383MOL0     C50472   3.492   1.732   8.730 -0.5340 -0.2988 -0.3843
  383MOL0     C50473   3.628   1.704   8.732 -0.6976  0.1496  0.3216
  383MOL0     N50474   4.356   1.723   8.310  0.1715  0.7789 -0.6859
  383MOL0     N50475   4.432   1.816   8.254  0.3066  0.4308 -0.5074
  383MOL0     C50476   5.590   2.163   8.198 -1.0085 -0.0945 -1.2284
  383MOL0     C50477   5.725   2.145   8.234  0.1837 -0.5975 -0.1969
  383MOL0     C50478   6.120   1.929   8.421 -0.3457 -0.2765 -0.0679
  383MOL0     C50479   6.199   2.042   8.421  0.3681 -0.2954  0.0791
  383MOL0     C50480   6.339   2.038   8.427 -0.2116  0.5846  0.4750
  383MOL0     C50481   6.410   1.917   8.442  0.4161 -0.2466  0.0642
  383MOL0     O50482   6.545   1.900   8.458  0.2349 -0.2902  0.5354
  383MOL0     C50483   6.627   2.013   8.451  0.5275  0.4529  0.3297
  383MOL0     C50484   6.632   2.058   8.600 -0.3713  0.3905  0.0829
  383MOL0     C50485   6.734   2.175   8.619  0.4756 -0.1214  0.2820
  383MOL0     C50486   6.713   2.242   8.756  0.0997  0.6845 -0.1948
  383MOL0     C50487   6.817   2.342   8.790  0.2136  0.3708 -0.1604
  383MOL0     C50488   6.893   2.426   8.810  0.3709  0.1906 -0.2471
  383MOL0     C50489   6.330   1.798   8.460  1.4758 -0.3690  0.7571
  383MOL0     C50490   6.190   1.806   8.435 -0.9765  0.1832 -0.2887
  383MOL0     H50491   5.686   1.939   8.494 -1.9416 -0.6345 -0.2105
  383MOL0     H50492   5.468   1.930   8.415  1.6150  0.0966  0.3902
  383MOL0     H50493   5.242   2.002   8.381  1.6097 -0.0835  0.7864
  383MOL0     H50494   5.307   1.900   8.252  2.1607 -0.2210  1.8892
  383MOL0     H50495   5.155   2.017   8.098  0.0481  1.4244  0.1486
  383MOL0     H50496   5.096   2.126   8.223  0.2891  1.0426  0.0806
  383MOL0     H50497   5.065   1.820   8.238  0.3143 -0.0237  1.1921
  383MOL0     H50498   4.948   1.918   8.145 -1.0857  2.0528  0.2297
  383MOL0     H50499   4.987   1.984   8.438 -2.2900 -2.1638  1.0316
  383MOL0     H50500   4.886   2.061   8.328 -1.8175  0.1766  3.0650
  383MOL0     H50501   4.857   1.761   8.401 -2.4567 -0.6582  1.0428
  383MOL0     H50502   4.773   1.842   8.277  0.3415 -2.1282  0.0026
  383MOL0     H50503   4.769   1.953   8.565 -1.1530 -1.1156  1.2850
  383MOL0     H50504   4.640   1.844   8.502 -0.3654  0.4373  0.6051
  383MOL0     H50505   4.566   2.049   8.527 -0.2830 -2.4689 -0.7295
  383MOL0     H50506   4.687   2.129   8.418  2.2654 -0.6464  0.1627
  383MOL0     H50507   4.589   2.002   8.228 -0.4058  0.0984 -0.6561
  383MOL0     H50508   4.478   2.119   8.294  1.0144  0.2880 -2.5590
  383MOL0     H50509   4.363   1.932   8.550 -0.2080 -0.0503 -0.5132
  383MOL0     H50510   4.327   1.620   8.591  0.8022  1.6630 -0.3546
  383MOL0     H50511   4.256   1.554   8.454  0.7665  1.5271 -0.9867
  383MOL0     H50512   4.089   1.784   8.519  2.3143 -0.4238 -1.1550
  383MOL0     H50513   4.153   1.747   8.676  1.1214 -1.6500  0.7691
  383MOL0     H50514   4.009   1.552   8.483  1.4647  0.0802  0.6666
  383MOL0     H50515   4.046   1.507   8.651  1.2212 -0.3628  0.2145
  383MOL0     H50516   3.845   1.724   8.566  1.4144  2.1988 -0.1795
  383MOL0     H50517   3.915   1.707   8.728  0.4841  1.7146 -1.0811
  383MOL0     H50518   3.631   1.418   8.551 -0.5729  1.6113 -1.9370
  383MOL0     H50519   3.381   1.445   8.580 -1.9757  1.1451  1.0402
  383MOL0     H50520   3.003   1.682   8.593 -0.8206  1.9456  0.4020
  383MOL0     H50521   2.761   1.678   8.618  1.1820 -1.6328 -1.6795
  383MOL0     H50522   2.506   1.552   8.627  0.5636 -0.2464  0.1008
  383MOL0     H50523   2.544   1.691   8.732 -1.2109  0.4965  0.1123
  383MOL0     H50524   2.417   1.567   8.919  1.2658  0.2721 -0.8066
  383MOL0     H50525   2.347   1.466   8.798 -2.5931  0.3671  1.2548
  383MOL0     H50526   2.257   1.684   8.679  0.2579 -0.1329  0.4986
  383MOL0     H50527   2.345   1.778   8.793 -0.9987  0.5525  0.4066
  383MOL0     H50528   2.137   1.579   8.900  0.1193 -0.0055  4.4298
  383MOL0     H50529   2.182   1.735   8.964 -0.7780  0.8615 -0.4801
  383MOL0     H50530   2.035   1.692   8.714 -2.8201 -0.1691  1.5845
  383MOL0     H50531   2.092   1.855   8.770 -1.8280  0.8927  3.5751
  383MOL0     H50532   1.979   1.817   8.985 -1.2555  3.6275  0.8520
  383MOL0     H50533   1.889   1.689   8.915 -1.5217  0.6366 -1.1110
  383MOL0     H50534   1.774   1.904   8.915  0.7336 -2.4834  1.7553
  383MOL0     H50535   1.916   1.990   8.846  1.7537 -1.4892  3.0724
  383MOL0     H50536   1.852   1.871   8.625  0.2740 -0.4293  0.6267
  383MOL0     H50537   1.729   1.986   8.665  2.0186  1.4217  1.0882
  383MOL0     H50538   2.787   1.430   8.961 -0.9365  0.8671 -1.0018
  383MOL0     H50539   3.026   1.437   8.953 -1.0389  0.9347  3.3264
  383MOL0     H50540   3.458   1.819   8.784  2.3477 -0.7002  2.3892
  383MOL0     H50541   3.708   1.765   8.773 -0.8469 -0.3332  1.3727
  383MOL0     H50542   5.556   2.226   8.117 -2.5867  0.7168  0.0216
  383MOL0     H50543   5.806   2.197   8.184  0.0919  2.3401  2.4459
  383MOL0     H50544   6.160   2.140   8.397  1.3627 -0.1301 -0.9958
  383MOL0     H50545   6.397   2.130   8.426  1.9733 -0.6248  3.1238
  383MOL0     H50546   6.602   2.097   8.386 -2.7440  0.6299  1.6256
  383MOL0     H50547   6.731   1.985   8.430  0.9116  2.2020 -0.2840
  383MOL0     H50548   6.530   2.087   8.628  0.8427  3.9918  1.2422
  383MOL0     H50549   6.652   1.980   8.674  0.0742  0.4119 -0.0150
  383MOL0     H50550   6.721   2.245   8.536  0.3433 -0.3598  0.0995
  383MOL0     H50551   6.837   2.138   8.616  0.0663 -1.4009  1.0141
  383MOL0     H50552   6.612   2.284   8.759  0.0099  0.4293  1.3216
  383MOL0     H50553   6.717   2.161   8.829  0.5586  2.2462  1.5757
  383MOL0     H50554   6.959   2.509   8.828  0.6982 -0.4546  1.7300
  383MOL0     H50555   6.382   1.703   8.468 -1.4568 -1.9951  1.6331
  383MOL0     H50556   6.134   1.714   8.426  0.1767 -0.6572  0.8169
  384MOL0     O50557   5.393   7.393   1.152 -0.2125  0.0177  0.5425
  384MOL0     C50558   5.430   7.417   1.268  0.2250 -0.9265 -0.1443
  384MOL0     O50559   5.343   7.435   1.371 -0.5615 -0.8642 -0.3060
  384MOL0     C50560   5.221   7.381   1.358 -0.2938  0.5391 -0.1833
  384MOL0     C50561   5.125   7.447   1.272 -1.0933  0.8323 -0.7198
  384MOL0     C50562   4.997   7.392   1.248  0.1099 -0.2334  0.2326
  384MOL0     C50563   4.971   7.272   1.321 -0.3921  0.0247 -0.6804
  384MOL0     O50564   4.852   7.213   1.329  0.1799 -0.4922  0.0895
  384MOL0     C50565   4.737   7.269   1.270  0.7614 -0.4513  0.3656
  384MOL0     C50566   4.614   7.179   1.305 -1.3630 -0.1947 -0.4233
  384MOL0     C50567   4.487   7.236   1.240  0.2113 -0.2981 -0.0524
  384MOL0     C50568   4.360   7.165   1.287 -0.4755  0.1285 -0.3277
  384MOL0     C50569   4.242   7.226   1.212  0.1320 -0.7906  0.3489
  384MOL0     C50570   4.120   7.162   1.262  0.6231  0.1286  0.4949
  384MOL0     C50571   3.997   7.219   1.199 -0.0417 -0.6735 -0.2157
  384MOL0     C50572   3.872   7.130   1.216  0.0670  0.3714 -0.5684
  384MOL0     N50573   3.755   7.198   1.150 -0.0965  0.5527 -0.0055
  384MOL0     C50574   3.670   7.296   1.195  0.1813 -0.2875  0.2272
  384MOL0     C50575   3.564   7.303   1.104  0.4928  0.8324 -0.3825
  384MOL0     C50576   3.425   7.377   1.115  0.5133 -0.6179  0.1145
  384MOL0     C50577   3.395   7.392   1.258 -0.1886 -0.0218  0.2670
  384MOL0     C50578   3.258   7.457   1.282  0.2420 -1.0126  0.6951
  384MOL0     C50579   3.144   7.377   1.345 -0.6556  0.1015 -0.1730
  384MOL0     O50580   3.131   7.242   1.286 -0.1441  0.1858  0.4047
  384MOL0     C50581   3.088   7.217   1.159  1.1477 -0.5235  0.3133
  384MOL0     C50582   3.034   7.321   1.070  0.3113  0.9821  0.0197
  384MOL0     C50583   2.966   7.291   0.958 -0.0429  0.2974  0.3441
  384MOL0     C50584   2.937   7.154   0.925  0.7691  0.5109 -0.2913
  384MOL0     C50585   2.874   7.114   0.791  0.0903  0.4190  0.6701
  384MOL0     O50586   2.816   7.214   0.724 -0.9376  0.2632 -0.2110
  384MOL0     C50587   2.728   7.195   0.627 -0.7173  0.2944 -0.2579
  384MOL0     C50588   2.719   7.290   0.522  0.5123 -0.0251  0.4078
  384MOL0     C50589   2.612   7.285   0.432 -0.4417  0.4437 -0.1245
  384MOL0     C50590   2.518   7.179   0.430 -0.1688  0.7129 -0.7381
  384MOL0     O50591   2.399   7.163   0.357  0.5206 -0.4566 -0.1346
  384MOL0     C50592   2.360   7.280   0.282 -0.6143  0.0901 -0.0727
  384MOL0     C50593   2.225   7.250   0.221  0.2128 -0.8837 -0.3889
  384MOL0     C50594   2.215   7.122   0.138 -0.1989  0.0743  0.0638
  384MOL0     C50595   2.070   7.068   0.120  1.4411 -0.4474 -0.0666
  384MOL0     C50596   1.983   7.161   0.029 -0.5178 -0.0212 -0.4457
  384MOL0     C50597   1.848   7.109  -0.010  0.0063 -0.6366  1.2578
  384MOL0     C50598   1.747   7.122   0.101  0.8421 -0.1907 -0.4127
  384MOL0     C50599   1.599   7.073   0.067  0.5193  0.4005 -0.8217
  384MOL0    Cl50600   1.508   7.171  -0.065 -0.2509  0.0502 -0.0324
  384MOL0     C50601   2.538   7.079   0.521  0.3726 -0.0486 -0.4082
  384MOL0     C50602   2.640   7.082   0.622  0.0597  0.4557  0.6890
  384MOL0     O50603   2.888   6.998   0.752 -0.0903  0.2532  0.7433
  384MOL0     C50604   2.975   7.056   1.010  0.7074  0.2880  0.1541
  384MOL0     C50605   3.050   7.087   1.121 -0.3595 -0.4114 -0.3000
  384MOL0     N50606   3.596   7.217   1.003  0.7218 -0.2757 -0.3405
  384MOL0     N50607   3.705   7.156   1.032 -0.1373  0.2406  0.2550
  384MOL0     C50608   5.067   7.213   1.398 -1.2315 -0.1472 -0.1701
  384MOL0     C50609   5.185   7.267   1.421 -0.0043 -0.1342 -0.2858
  384MOL0     C50610   5.576   7.434   1.304 -0.2031 -0.1979  0.2897
  384MOL0     C50611   5.621   7.530   1.392  0.0359  0.4086  0.0332
  384MOL0     C50612   5.765   7.526   1.409 -0.2091 -0.1284 -0.0980
  384MOL0     C50613   5.852   7.446   1.325 -0.1687 -0.0370 -0.6294
  384MOL0     O50614   5.986   7.467   1.333  0.0676 -0.6727  0.5848
  384MOL0     C50615   6.057   7.491   1.217 -1.0951  0.2808  0.7582
  384MOL0     C50616   6.154   7.609   1.249 -0.1362  0.4069  0.6890
  384MOL0     C50617   6.276   7.616   1.152 -0.2017 -0.1741 -0.5817
  384MOL0     C50618   6.379   7.710   1.220  0.5274 -0.7755 -0.4308
  384MOL0     C50619   6.491   7.747   1.127 -0.9533  0.5389  0.2225
  384MOL0     C50620   6.589   7.773   1.067 -0.6592 -0.2783  0.3489
  384MOL0     C50621   5.798   7.348   1.235 -0.1896 -0.7901 -0.1861
  384MOL0     C50622   5.659   7.339   1.228  0.5711  0.0925 -0.1733
  384MOL0     H50623   5.143   7.534   1.209  3.2576  1.3517  0.8512
  384MOL0     H50624   4.923   7.443   1.189 -0.1387  0.5390  1.1824
  384MOL0     H50625   4.737   7.273   1.161  1.7532 -2.1187  0.2819
  384MOL0     H50626   4.717   7.369   1.311 -0.3625 -0.6912  0.4393
  384MOL0     H50627   4.611   7.186   1.414  4.6556  1.4028  0.0210
  384MOL0     H50628   4.646   7.078   1.280 -0.6948  0.1068 -0.8107
  384MOL0     H50629   4.502   7.223   1.133 -0.3146 -0.1893 -0.1409
  384MOL0     H50630   4.478   7.345   1.238  0.3047 -0.3081 -1.7973
  384MOL0     H50631   4.372   7.065   1.244 -1.5130  0.0502 -0.4570
  384MOL0     H50632   4.340   7.159   1.394  1.7252 -1.4031  0.0696
  384MOL0     H50633   4.264   7.204   1.107  2.5921  0.7000  0.4685
  384MOL0     H50634   4.233   7.334   1.231  1.1605 -0.8462  1.2084
  384MOL0     H50635   4.105   7.184   1.368 -1.2648  3.6295 -0.3568
  384MOL0     H50636   4.126   7.053   1.254  1.4566  0.1690  0.4818
  384MOL0     H50637   3.980   7.322   1.233  3.1711  0.7477 -2.3784
  384MOL0     H50638   4.020   7.219   1.092  0.1299 -1.9812 -0.1860
  384MOL0     H50639   3.848   7.106   1.320  1.8379 -1.8436 -0.6035
  384MOL0     H50640   3.887   7.031   1.172 -0.2990  1.0826 -2.3526
  384MOL0     H50641   3.668   7.344   1.292  0.0835 -1.5021  0.8423
  384MOL0     H50642   3.347   7.325   1.059  0.3689 -1.6925  1.2543
  384MOL0     H50643   3.441   7.475   1.070  0.9540 -0.6767  0.1421
  384MOL0     H50644   3.478   7.450   1.299  0.5980 -0.8568 -0.1119
  384MOL0     H50645   3.398   7.292   1.301 -0.7164 -2.0314 -3.8429
  384MOL0     H50646   3.275   7.557   1.321 -1.2030  0.5058 -2.2424
  384MOL0     H50647   3.221   7.477   1.181  1.9237 -0.8960  0.0728
  384MOL0     H50648   3.050   7.431   1.333 -1.5548 -1.3189  0.2054
  384MOL0     H50649   3.156   7.361   1.453  0.2909  1.3149 -0.0700
  384MOL0     H50650   3.030   7.427   1.097  0.1739  0.7974  0.7546
  384MOL0     H50651   2.933   7.370   0.891  2.5543  1.6168  0.4983
  384MOL0     H50652   2.799   7.363   0.523  0.7931 -0.1678 -2.7249
  384MOL0     H50653   2.606   7.376   0.372 -0.3365  3.8737  4.4870
  384MOL0     H50654   2.422   7.308   0.197 -2.7167  0.1361 -1.6654
  384MOL0     H50655   2.344   7.373   0.338 -1.3237  0.4992 -0.9322
  384MOL0     H50656   2.189   7.336   0.165  3.7864  0.2766 -1.1780
  384MOL0     H50657   2.159   7.236   0.307 -2.2948  1.2704 -1.8349
  384MOL0     H50658   2.260   7.036   0.188 -1.3006  0.0652  1.0810
  384MOL0     H50659   2.252   7.127   0.035  0.7421 -0.3591  0.3667
  384MOL0     H50660   2.077   6.966   0.082 -1.4629 -0.3655 -1.0439
  384MOL0     H50661   2.024   7.076   0.219  1.3449 -0.9492 -0.0727
  384MOL0     H50662   2.037   7.179  -0.065  1.6895  0.8890  0.9141
  384MOL0     H50663   1.986   7.258   0.080  0.6855 -0.0050 -0.5155
  384MOL0     H50664   1.870   7.005  -0.039 -0.5377  0.0047 -1.7081
  384MOL0     H50665   1.813   7.162  -0.099  1.0939 -0.6608  0.8005
  384MOL0     H50666   1.775   7.059   0.186 -0.6315 -0.9937 -0.4798
  384MOL0     H50667   1.737   7.224   0.141 -0.6069 -0.9568  1.3494
  384MOL0     H50668   1.528   7.068   0.150  0.0798  3.1976 -0.9089
  384MOL0     H50669   1.606   6.969   0.035 -0.8326 -0.5470  1.6658
  384MOL0     H50670   2.480   6.988   0.511 -0.2680 -0.3796  3.9616
  384MOL0     H50671   2.663   6.994   0.681 -0.4711  1.1306  1.9501
  384MOL0     H50672   2.944   6.955   0.985  0.9202 -0.1830  1.7052
  384MOL0     H50673   3.074   7.008   1.191  0.1481 -1.1532 -1.2912
  384MOL0     H50674   5.045   7.121   1.451  0.4923 -1.2596 -1.2800
  384MOL0     H50675   5.251   7.219   1.492 -0.1513  0.7334  0.4606
  384MOL0     H50676   5.556   7.590   1.454  0.5023  2.2923 -1.2211
  384MOL0     H50677   5.810   7.589   1.485 -0.3655  0.9977 -0.9140
  384MOL0     H50678   5.993   7.535   1.139 -1.0733 -0.8540  0.0728
  384MOL0     H50679   6.120   7.403   1.202 -3.5233 -1.4407 -0.0280
  384MOL0     H50680   6.089   7.697   1.238  3.5136  3.3268  0.5888
  384MOL0     H50681   6.178   7.597   1.355 -1.1748 -1.1513  0.7914
  384MOL0     H50682   6.254   7.654   1.052  3.4828 -0.1909 -1.5231
  384MOL0     H50683   6.320   7.517   1.135 -0.7868 -0.3555 -1.0930
  384MOL0     H50684   6.330   7.806   1.240 -0.4008 -1.8115  2.9388
  384MOL0     H50685   6.424   7.667   1.309  1.4619 -1.5665 -1.2621
  384MOL0     H50686   6.678   7.804   1.016 -0.5766 -3.5948 -1.8736
  384MOL0     H50687   5.852   7.270   1.184  1.2160 -1.0845  1.6246
  384MOL0     H50688   5.599   7.265   1.177 -1.0885  0.5722  0.9747
  385MOL0     O50689   9.501   7.005   8.886 -0.0449  0.1087 -0.2773
  385MOL0     C50690   9.502   6.974   8.771  0.1239 -0.6551  0.8438
  385MOL0     O50691   9.387   6.956   8.688  0.1710  0.0345  1.1851
  385MOL0     C50692   9.266   6.994   8.735 -0.5688 -0.0417  0.0267
  385MOL0     C50693   9.182   7.085   8.665 -0.0324  0.0826 -0.7673
  385MOL0     C50694   9.052   7.108   8.708 -0.9797 -0.5568 -0.1219
  385MOL0     C50695   9.004   7.050   8.824 -0.4975  0.4180  0.2005
  385MOL0     O50696   8.873   7.076   8.871  0.3725 -0.5708  0.1467
  385MOL0     C50697   8.799   7.190   8.829 -0.6313  0.3212 -0.4523
  385MOL0     C50698   8.697   7.212   8.937  0.6696 -0.6629 -0.9907
  385MOL0     C50699   8.579   7.304   8.897  0.0658  0.2938 -0.2408
  385MOL0     C50700   8.483   7.330   9.011 -0.8363 -0.1861 -0.0135
  385MOL0     C50701   8.371   7.421   8.977 -0.1562  0.5772 -0.0372
  385MOL0     C50702   8.283   7.471   9.104 -0.0362 -0.4736  1.4212
  385MOL0     C50703   8.220   7.349   9.180 -0.3459  0.4818 -0.4403
  385MOL0     C50704   8.132   7.258   9.092  0.7844 -0.0119 -0.2749
  385MOL0     N50705   8.014   7.328   9.036 -0.1096 -0.4913  0.1356
  385MOL0     C50706   7.924   7.381   9.124  0.6319  0.6384  0.9442
  385MOL0     C50707   7.861   7.482   9.058 -0.4666 -0.3266  0.7306
  385MOL0     C50708   7.735   7.560   9.110 -0.3948 -0.0478  0.8530
  385MOL0     C50709   7.671   7.648   9.009  0.5869  0.0519  0.4543
  385MOL0     C50710   7.582   7.567   8.916  0.8876  0.0485  1.1468
  385MOL0     C50711   7.513   7.650   8.807 -0.2907 -0.0814  0.5527
  385MOL0     O50712   7.470   7.780   8.841 -0.4187 -0.1836 -0.0812
  385MOL0     C50713   7.347   7.812   8.865 -0.4014 -1.0984  0.4499
  385MOL0     C50714   7.291   7.926   8.802 -0.6539 -0.0208  0.1965
  385MOL0     C50715   7.159   7.966   8.813  0.2780 -0.1473 -0.2909
  385MOL0     C50716   7.074   7.881   8.892 -0.4618  0.0196 -0.2889
  385MOL0     C50717   6.926   7.911   8.909 -0.5323  0.2988  0.3402
  385MOL0     O50718   6.869   8.015   8.831 -0.2592  0.1696 -0.0952
  385MOL0     C50719   6.735   8.019   8.843 -0.1203 -0.8255 -0.3389
  385MOL0     C50720   6.660   7.943   8.759  0.1905 -0.3107  0.6874
  385MOL0     C50721   6.520   7.955   8.756  0.4974  0.7189 -1.4142
  385MOL0     C50722   6.449   8.045   8.839  0.5222 -0.0687 -0.0388
  385MOL0     O50723   6.309   8.069   8.851 -0.1312  0.8467 -0.0596
  385MOL0     C50724   6.222   7.979   8.787  0.8381  0.1601  0.2080
  385MOL0     C50725   6.084   7.985   8.864  0.2047  0.9850 -0.1581
  385MOL0     C50726   6.000   8.111   8.840  0.2045  0.5471  0.6612
  385MOL0     C50727   5.852   8.123   8.888  0.2224  0.3233 -0.4337
  385MOL0     C50728   5.768   8.236   8.814  0.3039 -0.0941  0.2306
  385MOL0     C50729   5.799   8.371   8.878 -0.3997  0.2369 -0.1117
  385MOL0     C50730   5.726   8.499   8.833 -0.3426  0.6101 -0.6219
  385MOL0     C50731   5.581   8.488   8.844  0.6499  0.0241 -0.7184
  385MOL0    Cl50732   5.506   8.654   8.821  0.0502 -0.2465  0.6993
  385MOL0     C50733   6.524   8.112   8.937  0.2139 -0.1273 -1.2868
  385MOL0     C50734   6.670   8.093   8.942  0.5420  0.4482  0.1896
  385MOL0     O50735   6.875   7.846   8.999 -0.1336 -0.2002 -0.0726
  385MOL0     C50736   7.129   7.762   8.947  0.7452  0.9739  0.4795
  385MOL0     C50737   7.261   7.726   8.928 -0.5896  0.6674 -0.0766
  385MOL0     N50738   7.920   7.495   8.932 -0.8576 -0.5095 -0.0789
  385MOL0     N50739   8.015   7.410   8.922  0.6183 -0.6771  0.5019
  385MOL0     C50740   9.088   6.968   8.902 -0.8884 -0.0192 -0.1423
  385MOL0     C50741   9.217   6.938   8.853  0.0942  0.5478 -0.6379
  385MOL0     C50742   9.639   6.950   8.713 -0.8074 -0.2206  0.6639
  385MOL0     C50743   9.659   6.881   8.593  0.3710 -0.4169 -0.0798
  385MOL0     C50744   9.786   6.861   8.524  0.0568 -0.5496 -0.1186
  385MOL0     C50745   9.898   6.925   8.579 -0.9357  0.0353  0.4853
  385MOL0     O50746  10.023   6.923   8.521 -0.0463  0.6029  0.3224
  385MOL0     C50747  10.054   6.870   8.392 -0.4661  0.3872  0.0487
  385MOL0     C50748  10.207   6.873   8.374 -0.8911 -0.0771  0.2280
  385MOL0     C50749  10.266   7.011   8.389  0.3476 -0.0702 -0.0973
  385MOL0     C50750  10.420   7.004   8.403 -0.4379  0.3055 -0.1842
  385MOL0     C50751  10.466   7.137   8.453 -0.2918 -0.5368  0.0393
  385MOL0     C50752  10.488   7.255   8.474  0.5632  0.1889  0.3685
  385MOL0     C50753   9.882   6.995   8.701  0.0208 -0.0978  0.0098
  385MOL0     C50754   9.759   6.994   8.770 -0.2635 -0.3117  0.4181
  385MOL0     H50755   9.218   7.136   8.576  0.1946  0.4091 -0.4902
  385MOL0     H50756   8.984   7.168   8.649 -1.6473  0.2496  1.4126
  385MOL0     H50757   8.765   7.172   8.726 -1.6813 -1.3861  0.1476
  385MOL0     H50758   8.870   7.273   8.837 -1.0036  0.6083 -0.0773
  385MOL0     H50759   8.742   7.241   9.032 -1.3670 -0.8488  0.0857
  385MOL0     H50760   8.650   7.115   8.955  4.6680 -2.5350  0.3689
  385MOL0     H50761   8.513   7.251   8.827  0.1109  0.4298 -0.3868
  385MOL0     H50762   8.604   7.401   8.852 -1.2003  1.3605  1.2425
  385MOL0     H50763   8.446   7.237   9.055  0.9030 -0.3803  1.1540
  385MOL0     H50764   8.553   7.377   9.081  0.6959  1.0947 -2.2673
  385MOL0     H50765   8.309   7.370   8.903 -1.9631  0.7374  1.2963
  385MOL0     H50766   8.411   7.510   8.929  0.7993  1.0753  1.5778
  385MOL0     H50767   8.198   7.530   9.069  0.1672 -0.4603  0.9412
  385MOL0     H50768   8.348   7.535   9.165  1.4793 -0.5327 -0.0544
  385MOL0     H50769   8.302   7.290   9.222 -0.0453  0.2055 -1.3778
  385MOL0     H50770   8.155   7.382   9.261  1.2452  1.4297  0.4955
  385MOL0     H50771   8.100   7.164   9.139  2.1364 -0.7800 -0.8071
  385MOL0     H50772   8.192   7.217   9.010 -0.5785 -3.8778  0.4127
  385MOL0     H50773   7.904   7.335   9.220 -1.1973 -3.7168 -1.2512
  385MOL0     H50774   7.760   7.622   9.196 -0.7816  0.4223  0.6308
  385MOL0     H50775   7.661   7.483   9.134 -2.5350 -0.1466 -4.4912
  385MOL0     H50776   7.746   7.710   8.958  0.0116  0.0439 -0.4213
  385MOL0     H50777   7.604   7.711   9.069 -0.6248  0.3808 -1.1936
  385MOL0     H50778   7.640   7.484   8.875  1.5791 -0.0698  2.3048
  385MOL0     H50779   7.499   7.531   8.977  2.6116 -2.8249  1.9912
  385MOL0     H50780   7.430   7.598   8.757  0.1584  1.8007 -2.4257
  385MOL0     H50781   7.576   7.663   8.719 -0.3329  1.0557  0.6681
  385MOL0     H50782   7.353   8.000   8.753 -1.3780  2.5105  2.7737
  385MOL0     H50783   7.120   8.054   8.762 -0.5665  0.4088  1.2445
  385MOL0     H50784   6.712   7.887   8.682 -0.9453  0.7391 -0.9316
  385MOL0     H50785   6.476   7.887   8.684 -0.8957 -1.0047  0.9481
  385MOL0     H50786   6.245   7.873   8.787 -2.2173 -0.6006  0.6241
  385MOL0     H50787   6.212   8.004   8.681 -0.9820 -0.0926  0.2876
  385MOL0     H50788   6.095   7.982   8.973 -2.8291  2.4638  0.2778
  385MOL0     H50789   6.029   7.894   8.836 -0.2660  1.0094  0.6546
  385MOL0     H50790   6.018   8.140   8.736  0.7218 -1.4743  0.1474
  385MOL0     H50791   6.049   8.190   8.897 -0.0138  1.6004 -0.5709
  385MOL0     H50792   5.803   8.027   8.869 -0.3640 -0.0484  2.5129
  385MOL0     H50793   5.849   8.136   8.996 -0.3806 -0.9496 -0.2858
  385MOL0     H50794   5.660   8.216   8.819 -0.1752  2.1087  0.0540
  385MOL0     H50795   5.796   8.243   8.709  1.5634  0.5473  0.5942
  385MOL0     H50796   5.905   8.389   8.857 -0.7096 -0.2264 -2.3210
  385MOL0     H50797   5.796   8.362   8.987  2.1811 -2.8855 -0.1770
  385MOL0     H50798   5.761   8.573   8.906  0.2357 -0.9521  0.7381
  385MOL0     H50799   5.754   8.531   8.732  1.8183  1.8689  0.2963
  385MOL0     H50800   5.553   8.460   8.946 -1.3696  4.1368  0.0959
  385MOL0     H50801   5.544   8.418   8.769 -1.2081  2.9283 -2.7311
  385MOL0     H50802   6.474   8.189   8.995 -2.6294 -1.1225 -2.2475
  385MOL0     H50803   6.731   8.156   9.006  1.7428  1.4827 -1.8462
  385MOL0     H50804   7.065   7.690   8.996  1.4187  0.1565  0.1844
  385MOL0     H50805   7.296   7.639   8.984 -2.0926 -0.3674 -0.6799
  385MOL0     H50806   9.068   6.934   9.003  3.0601 -0.8529  0.5356
  385MOL0     H50807   9.281   6.873   8.913 -2.6007 -3.1534 -1.3830
  385MOL0     H50808   9.567   6.848   8.546  0.2453  1.4552 -1.2413
  385MOL0     H50809   9.800   6.793   8.440  0.4594 -1.6352  0.8008
  385MOL0     H50810  10.005   6.923   8.311  1.8424  1.0682 -0.9824
  385MOL0     H50811  10.022   6.765   8.388  1.4382 -0.2813  0.9584
  385MOL0     H50812  10.257   6.802   8.441 -0.0800  0.3412  0.0715
  385MOL0     H50813  10.235   6.839   8.273 -0.1057 -0.4854  0.5741
  385MOL0     H50814  10.223   7.055   8.480  3.0682 -0.1730  1.3262
  385MOL0     H50815  10.240   7.087   8.315  3.6511  1.4232  0.1024
  385MOL0     H50816  10.443   6.918   8.467 -2.6877 -1.0101 -1.0226
  385MOL0     H50817  10.469   6.972   8.311  2.6776 -1.8718  2.0289
  385MOL0     H50818  10.512   7.356   8.500 -1.1007  1.2317 -1.8524
  385MOL0     H50819   9.973   7.049   8.727  1.5666 -2.4262 -0.2455
  385MOL0     H50820   9.753   7.046   8.865 -4.6075  0.0360  0.1816
  386MOL0     O50821  10.793   4.641   4.401 -0.4808 -0.6414 -0.4080
  386MOL0     C50822  10.777   4.759   4.424  0.9715  0.2668  1.3596
  386MOL0     O50823  10.866   4.854   4.399  0.1966 -0.2984  0.1134
  386MOL0     C50824  10.990   4.821   4.343  0.4309  0.3097  0.0603
  386MOL0     C50825  11.097   4.881   4.392  0.0235 -0.6609 -1.1953
  386MOL0     C50826  11.225   4.874   4.339  0.3797 -0.1704  0.4219
  386MOL0     C50827  11.248   4.791   4.233 -0.0137 -0.0029 -0.1261
  386MOL0     O50828  11.372   4.777   4.186  0.3119 -0.0072  0.5279
  386MOL0     C50829  11.420   4.882   4.103  0.9638  0.1447  0.6156
  386MOL0     C50830  11.561   4.846   4.047  0.3952 -0.3632 -0.2150
  386MOL0     C50831  11.555   4.717   3.961 -0.8536 -0.1822 -0.1617
  386MOL0     C50832  11.685   4.680   3.888 -0.5378  1.0141  0.2832
  386MOL0     C50833  11.653   4.579   3.776  0.4574 -0.5511 -0.5948
  386MOL0     C50834  11.602   4.443   3.829 -0.3014 -0.1131 -0.1038
  386MOL0     C50835  11.570   4.325   3.732  0.3136 -0.2496 -0.0502
  386MOL0     C50836  11.477   4.356   3.609 -0.4554 -0.4813  0.2358
  386MOL0     N50837  11.357   4.417   3.669 -0.4051  0.3767  0.3068
  386MOL0     C50838  11.313   4.547   3.641  0.5667 -1.3091  0.1199
  386MOL0     C50839  11.201   4.560   3.722  0.2203 -0.2010  0.8634
  386MOL0     C50840  11.116   4.690   3.734 -0.2725 -0.4890  0.4988
  386MOL0     C50841  10.973   4.642   3.707 -0.7808 -0.0092  0.8052
  386MOL0     C50842  10.878   4.757   3.717  0.0473 -0.4170 -0.9525
  386MOL0     C50843  10.743   4.727   3.660 -1.3539 -1.0613  1.3843
  386MOL0     O50844  10.632   4.776   3.735 -0.2493  0.6286  0.2986
  386MOL0     C50845  10.505   4.757   3.693 -0.1058  0.1283  0.5833
  386MOL0     C50846  10.472   4.771   3.558  0.5307  0.0502 -0.7867
  386MOL0     C50847  10.332   4.749   3.519 -0.9940  0.6852  0.7427
  386MOL0     C50848  10.235   4.736   3.615  0.0599  0.1908 -0.4127
  386MOL0     C50849  10.090   4.735   3.577  0.0873  0.6443 -0.7291
  386MOL0     O50850  10.013   4.725   3.685 -0.4168 -0.6745 -0.5907
  386MOL0     C50851   9.875   4.704   3.662  0.3289 -0.6555 -0.1351
  386MOL0     C50852   9.816   4.594   3.734  1.0946 -0.9624 -0.3690
  386MOL0     C50853   9.676   4.566   3.732 -0.0782  0.2685  0.4633
  386MOL0     C50854   9.591   4.647   3.650  0.6063 -0.4109  0.3165
  386MOL0     O50855   9.461   4.620   3.629 -0.1501  0.3261  0.9285
  386MOL0     C50856   9.386   4.564   3.733  0.5927  0.8829  0.8082
  386MOL0     C50857   9.241   4.593   3.697  0.9063  0.2185  0.5052
  386MOL0     C50858   9.198   4.498   3.583  0.2261  0.4619 -1.5274
  386MOL0     C50859   9.052   4.512   3.560 -1.0220 -0.2285 -0.4259
  386MOL0     C50860   8.996   4.399   3.478  0.3130 -0.2240  0.6401
  386MOL0     C50861   8.976   4.265   3.548  0.3667  0.0255  0.3162
  386MOL0     C50862   8.883   4.170   3.469 -0.5003 -0.4071  0.2865
  386MOL0     C50863   8.947   4.136   3.338 -0.3443 -1.0178  0.6614
  386MOL0    Cl50864   8.852   4.000   3.270 -0.4732  0.0661  0.1695
  386MOL0     C50865   9.644   4.753   3.577 -0.3903  0.6376 -0.6023
  386MOL0     C50866   9.784   4.782   3.582  0.6424 -0.4745  0.4671
  386MOL0     O50867  10.055   4.756   3.457 -0.4718  0.4243  0.0755
  386MOL0     C50868  10.273   4.715   3.750 -0.5255  0.9222 -0.3783
  386MOL0     C50869  10.408   4.734   3.789  0.3922 -0.7155 -0.2024
  386MOL0     N50870  11.179   4.434   3.785 -0.0360 -0.3750  0.4655
  386MOL0     N50871  11.271   4.355   3.759 -0.0959  0.1793 -0.5542
  386MOL0     C50872  11.145   4.715   4.187 -0.4754 -0.0215 -0.8875
  386MOL0     C50873  11.013   4.735   4.237  0.2519  0.1749 -0.6158
  386MOL0     C50874  10.656   4.804   4.488 -0.2298 -0.7021  0.4115
  386MOL0     C50875  10.637   4.942   4.529 -0.1392  1.4221  0.2479
  386MOL0     C50876  10.524   4.977   4.605 -0.0595 -0.7209 -0.0458
  386MOL0     C50877  10.426   4.885   4.638 -0.2290  0.0479 -1.3555
  386MOL0     O50878  10.321   4.897   4.718 -0.5553  0.1428  0.0739
  386MOL0     C50879  10.315   5.002   4.808  0.1266  0.4410 -0.1845
  386MOL0     C50880  10.213   4.969   4.916  0.4987  0.7809 -0.1506
  386MOL0     C50881  10.255   4.855   5.009  0.1108  0.4590  0.0724
  386MOL0     C50882  10.367   4.887   5.119 -0.0987 -0.4193 -0.2570
  386MOL0     C50883  10.339   5.006   5.197 -0.2911  0.1885 -0.4735
  386MOL0     C50884  10.292   5.100   5.256  0.2431 -0.3970  0.3849
  386MOL0     C50885  10.444   4.749   4.602  0.5634 -0.9041  0.7761
  386MOL0     C50886  10.559   4.712   4.530  0.2556 -0.8455  0.3908
  386MOL0     H50887  11.091   4.959   4.468  0.2189 -0.3429 -1.5060
  386MOL0     H50888  11.294   4.946   4.384 -1.4917  2.0602 -0.0951
  386MOL0     H50889  11.426   4.973   4.163  0.8462  1.9537 -1.9621
  386MOL0     H50890  11.348   4.903   4.023 -2.0198 -1.3694  2.6960
  386MOL0     H50891  11.637   4.841   4.126  1.4953  0.0803 -1.2287
  386MOL0     H50892  11.591   4.925   3.978  1.1847  2.4963  3.0691
  386MOL0     H50893  11.475   4.739   3.890 -1.1064  1.6369  0.6231
  386MOL0     H50894  11.527   4.637   4.030  2.8335  0.9371  3.0267
  386MOL0     H50895  11.726   4.776   3.854 -1.9013  1.4470 -0.2059
  386MOL0     H50896  11.760   4.650   3.961  2.0440 -0.1685 -2.6378
  386MOL0     H50897  11.751   4.558   3.732  0.9985  0.0191  0.2938
  386MOL0     H50898  11.579   4.619   3.706  0.4263 -0.2369 -0.3841
  386MOL0     H50899  11.506   4.458   3.880 -1.0256  0.3442 -1.5569
  386MOL0     H50900  11.672   4.411   3.907 -2.0181  3.2344  3.1425
  386MOL0     H50901  11.661   4.277   3.694  0.9417  0.9820 -0.1315
  386MOL0     H50902  11.533   4.246   3.799 -0.9276  0.2758 -0.1091
  386MOL0     H50903  11.458   4.261   3.559 -3.8606  1.5685 -2.9303
  386MOL0     H50904  11.525   4.428   3.542 -1.4070  0.1932  0.2562
  386MOL0     H50905  11.342   4.616   3.562  1.0097 -2.5845 -0.8748
  386MOL0     H50906  11.145   4.759   3.654 -0.3639  0.6762  1.4538
  386MOL0     H50907  11.137   4.737   3.830  4.2923 -2.3893  0.6731
  386MOL0     H50908  10.952   4.561   3.778  1.9568 -2.0695 -0.5498
  386MOL0     H50909  10.972   4.596   3.608  4.1039 -0.5453  0.7404
  386MOL0     H50910  10.874   4.796   3.819 -1.5799 -3.3420  0.2135
  386MOL0     H50911  10.918   4.839   3.656  0.5259  0.2533  0.2430
  386MOL0     H50912  10.724   4.624   3.631 -0.2338 -0.4347 -1.9985
  386MOL0     H50913  10.742   4.779   3.564 -4.4987 -0.2796  1.7176
  386MOL0     H50914  10.547   4.783   3.481 -0.0157  0.0349 -1.3281
  386MOL0     H50915  10.301   4.744   3.415  3.0839  0.4706 -0.6513
  386MOL0     H50916   9.884   4.538   3.798  2.5850  0.3432 -0.7359
  386MOL0     H50917   9.630   4.489   3.793  0.3040  0.0338  0.4567
  386MOL0     H50918   9.406   4.611   3.830 -0.5776  1.3965  0.8116
  386MOL0     H50919   9.404   4.456   3.731  0.1460  0.8126  0.3383
  386MOL0     H50920   9.224   4.693   3.657 -0.0914  0.6752  1.9692
  386MOL0     H50921   9.182   4.583   3.789  2.5846  1.4415  1.7937
  386MOL0     H50922   9.214   4.396   3.619 -0.9138  0.5383 -0.7200
  386MOL0     H50923   9.253   4.518   3.491  1.2394 -1.5540 -1.4144
  386MOL0     H50924   8.989   4.525   3.649  0.1059  1.7052  0.1551
  386MOL0     H50925   9.030   4.596   3.493  0.3160 -2.7382 -4.3186
  386MOL0     H50926   9.048   4.380   3.383  1.8306  0.0556  1.3714
  386MOL0     H50927   8.899   4.440   3.453 -0.9169 -2.0975  2.0238
  386MOL0     H50928   8.929   4.280   3.645 -0.3342  0.9833 -0.1505
  386MOL0     H50929   9.073   4.217   3.566 -0.4864 -2.9966 -2.2206
  386MOL0     H50930   8.867   4.080   3.528  0.8564 -1.8054 -1.3782
  386MOL0     H50931   8.789   4.226   3.469 -0.2613  0.0540  1.7253
  386MOL0     H50932   9.052   4.107   3.333 -0.9227 -2.9789 -2.8520
  386MOL0     H50933   8.933   4.219   3.268  3.8059 -0.7281 -0.0914
  386MOL0     H50934   9.583   4.830   3.530 -0.3716 -0.2690 -2.2056
  386MOL0     H50935   9.822   4.857   3.513  0.4639 -0.7475  0.0668
  386MOL0     H50936  10.201   4.684   3.826 -0.6023 -1.8455 -1.4345
  386MOL0     H50937  10.432   4.723   3.894 -0.5146  5.1583  0.9876
  386MOL0     H50938  11.161   4.650   4.101  0.4283  1.3556 -1.8002
  386MOL0     H50939  10.928   4.691   4.185 -0.4259  0.7127  0.0232
  386MOL0     H50940  10.707   5.016   4.491 -0.8377  1.5615 -0.8225
  386MOL0     H50941  10.505   5.076   4.647 -3.0623 -0.8462 -0.8825
  386MOL0     H50942  10.300   5.101   4.763 -1.5404 -0.1054 -0.9120
  386MOL0     H50943  10.416   4.993   4.848 -0.6688  1.1632  2.1711
  386MOL0     H50944  10.186   5.058   4.974 -3.0875 -1.6817  2.4265
  386MOL0     H50945  10.122   4.944   4.862  0.4425  0.4104  0.1142
  386MOL0     H50946  10.270   4.763   4.951 -1.5969  0.6857 -0.8018
  386MOL0     H50947  10.165   4.828   5.065 -0.1125 -1.8582 -1.2409
  386MOL0     H50948  10.372   4.804   5.189  1.4211 -0.5200 -0.4505
  386MOL0     H50949  10.466   4.905   5.076  0.2539  2.7827  1.6028
  386MOL0     H50950  10.260   5.182   5.317 -1.4191 -0.4632 -0.3599
  386MOL0     H50951  10.369   4.681   4.640  0.1386 -1.7792 -1.4648
  386MOL0     H50952  10.573   4.609   4.499  0.3607 -0.0729 -2.5050
  387MOL0     O50953   1.746   6.576   0.021  0.5004 -0.7195 -0.2834
  387MOL0     C50954   1.847   6.549  -0.040  0.5884 -0.6509 -0.8613
  387MOL0     O50955   1.857   6.455  -0.130 -0.3411  0.1763  0.3419
  387MOL0     C50956   1.740   6.398  -0.162  0.2767  0.2039 -0.3237
  387MOL0     C50957   1.674   6.310  -0.087  0.5335  0.3574  0.4889
  387MOL0     C50958   1.544   6.261  -0.116 -0.0509  0.0535  0.1550
  387MOL0     C50959   1.484   6.312  -0.225 -0.6423  0.0512  0.5387
  387MOL0     O50960   1.359   6.289  -0.274  0.4244 -0.1058  0.4718
  387MOL0     C50961   1.288   6.169  -0.223  0.4095 -0.3292 -0.6309
  387MOL0     C50962   1.154   6.168  -0.301  0.0117  0.9393  0.0019
  387MOL0     C50963   1.072   6.040  -0.250 -0.0661 -0.5585 -0.3860
  387MOL0     C50964   0.928   6.066  -0.301 -0.6305  0.6000 -0.0766
  387MOL0     C50965   0.840   5.944  -0.295 -0.7598 -0.0559  0.0541
  387MOL0     C50966   0.696   5.976  -0.273  0.1566  0.5143  0.1096
  387MOL0     C50967   0.607   5.848  -0.275 -0.2241  0.2211  0.4370
  387MOL0     C50968   0.467   5.871  -0.213  1.1894 -0.0768 -0.1405
  387MOL0     N50969   0.378   5.754  -0.244 -0.6690 -0.5130  0.2366
  387MOL0     C50970   0.271   5.758  -0.331 -1.0735  0.4356 -0.4243
  387MOL0     C50971   0.206   5.643  -0.323  0.6073  0.5827  0.3595
  387MOL0     C50972   0.083   5.601  -0.393 -0.7185  0.6880  0.1580
  387MOL0     C50973  -0.047   5.662  -0.340 -0.1052 -0.0581 -0.0977
  387MOL0     C50974  -0.169   5.619  -0.417  0.3692 -0.5790  0.1283
  387MOL0     C50975  -0.294   5.660  -0.341 -0.7265  0.2520 -0.1465
  387MOL0     O50976  -0.307   5.553  -0.243  0.3156  0.1948 -0.0671
  387MOL0     C50977  -0.433   5.524  -0.196  0.5227 -0.0473  0.3117
  387MOL0     C50978  -0.444   5.410  -0.118 -0.7234  0.3679  0.2164
  387MOL0     C50979  -0.559   5.373  -0.053 -0.1604 -0.2544  0.5575
  387MOL0     C50980  -0.677   5.452  -0.068 -0.9084  0.3932 -1.3722
  387MOL0     C50981  -0.796   5.402  -0.001 -0.3249  0.4879 -0.0164
  387MOL0     O50982  -0.911   5.476  -0.020 -0.6708  1.1036  0.9282
  387MOL0     C50983  -1.034   5.444   0.029  0.5136 -0.5825  0.2575
  387MOL0     C50984  -1.135   5.516  -0.036  0.4068  0.2513  0.2426
  387MOL0     C50985  -1.266   5.496   0.000 -0.8100 -0.7324 -0.4434
  387MOL0     C50986  -1.302   5.414   0.105 -0.9492  1.1200 -0.6613
  387MOL0     O50987  -1.434   5.397   0.137  0.3519  0.1843  0.0640
  387MOL0     C50988  -1.481   5.272   0.199 -0.2078  0.2571 -0.1760
  387MOL0     C50989  -1.595   5.291   0.296  0.7339 -0.1307 -0.0420
  387MOL0     C50990  -1.724   5.347   0.232  0.5370 -0.6305 -0.0628
  387MOL0     C50991  -1.822   5.386   0.344 -0.2069  0.6131 -0.4456
  387MOL0     C50992  -1.951   5.416   0.290  0.3135  0.7754  0.3823
  387MOL0     C50993  -1.955   5.531   0.196 -0.2489  0.2818 -0.5769
  387MOL0     C50994  -2.100   5.546   0.154 -0.2601  0.4504 -0.5102
  387MOL0     C50995  -2.139   5.668   0.077  0.0272 -0.5531  0.0762
  387MOL0    Cl50996  -2.009   5.747  -0.021 -0.5066 -0.0163  0.2910
  387MOL0     C50997  -1.198   5.348   0.177 -0.3049 -0.6006  0.3419
  387MOL0     C50998  -1.065   5.363   0.135 -0.4100  0.1829  0.1670
  387MOL0     O50999  -0.790   5.291   0.060 -0.3341 -0.2555  0.7143
  387MOL0     C51000  -0.667   5.574  -0.135 -0.7455 -0.7438  0.6533
  387MOL0     C51001  -0.551   5.610  -0.209  0.0830  0.3001  0.1484
  387MOL0     N51002   0.272   5.572  -0.232 -0.4628  0.5125  0.1530
  387MOL0     N51003   0.375   5.640  -0.183  1.3836  0.3017  0.0365
  387MOL0     C51004   1.560   6.385  -0.315 -1.1318  0.2660  0.0395
  387MOL0     C51005   1.687   6.434  -0.288  0.2167  0.2523  0.1823
  387MOL0     C51006   1.974   6.601   0.016 -0.2224  0.2066 -0.6157
  387MOL0     C51007   2.089   6.593  -0.066 -0.0018 -0.8500 -0.4128
  387MOL0     C51008   2.219   6.643  -0.025  0.2216  0.1079 -1.0772
  387MOL0     C51009   2.227   6.699   0.099  0.0426  0.1248 -0.1284
  387MOL0     O51010   2.353   6.723   0.140  0.1457 -0.1533  0.2501
  387MOL0     C51011   2.377   6.754   0.278  0.1118  0.5070  0.7458
  387MOL0     C51012   2.526   6.757   0.315 -0.6834  0.2052  0.7514
  387MOL0     C51013   2.588   6.616   0.311 -0.6832  0.3282 -0.3697
  387MOL0     C51014   2.727   6.632   0.383  0.8721 -0.2530  1.0252
  387MOL0     C51015   2.788   6.499   0.403  0.3286 -0.0201  0.7417
  387MOL0     C51016   2.830   6.386   0.398  0.0925  0.5048  0.8152
  387MOL0     C51017   2.113   6.706   0.180  0.1921 -0.2559  0.0332
  387MOL0     C51018   1.990   6.655   0.143  0.6498  0.0030  0.1484
  387MOL0     H51019   1.717   6.285   0.010 -0.6158 -3.1967  0.2306
  387MOL0     H51020   1.489   6.196  -0.049 -3.0286  0.2571 -1.8881
  387MOL0     H51021   1.272   6.182  -0.115  0.1653  1.0289 -0.8220
  387MOL0     H51022   1.338   6.072  -0.232  0.6222 -0.3341  0.4008
  387MOL0     H51023   1.170   6.160  -0.409  1.1916 -4.3824  0.3243
  387MOL0     H51024   1.103   6.261  -0.273 -0.7692  0.1965  1.0981
  387MOL0     H51025   1.075   6.027  -0.141  1.0350 -1.5133 -0.5045
  387MOL0     H51026   1.117   5.950  -0.293 -0.0457 -0.5298 -0.4240
  387MOL0     H51027   0.893   6.150  -0.240  2.4209  0.1075  2.5998
  387MOL0     H51028   0.923   6.094  -0.407  1.1208  1.2117 -0.0256
  387MOL0     H51029   0.882   5.866  -0.231 -1.8864 -0.4287  0.3537
  387MOL0     H51030   0.847   5.909  -0.399 -2.2248  0.4830 -0.2472
  387MOL0     H51031   0.658   6.045  -0.349  0.0432  0.3238 -0.0083
  387MOL0     H51032   0.693   6.032  -0.180  1.0511  2.3494 -0.9126
  387MOL0     H51033   0.601   5.821  -0.381  3.0264  0.6341  0.0460
  387MOL0     H51034   0.659   5.763  -0.229  0.8285  0.0830 -0.9537
  387MOL0     H51035   0.426   5.965  -0.249  1.3658  1.1046  2.5107
  387MOL0     H51036   0.484   5.886  -0.106  1.5321 -2.4442  0.1953
  387MOL0     H51037   0.235   5.846  -0.383 -0.7241  1.0273  0.3261
  387MOL0     H51038   0.091   5.492  -0.391 -0.2987  0.5580 -3.1321
  387MOL0     H51039   0.090   5.617  -0.501  1.2206 -0.8984 -0.0146
  387MOL0     H51040  -0.036   5.770  -0.351 -0.0874 -0.1037 -0.5425
  387MOL0     H51041  -0.052   5.637  -0.233  2.2968 -0.6154 -0.0510
  387MOL0     H51042  -0.176   5.663  -0.517 -0.7243 -0.1387  0.3858
  387MOL0     H51043  -0.167   5.511  -0.438  0.9810 -0.4602 -0.4695
  387MOL0     H51044  -0.372   5.664  -0.419  0.4848  2.6894 -1.3627
  387MOL0     H51045  -0.281   5.761  -0.300 -1.7904  0.1410  0.5125
  387MOL0     H51046  -0.348   5.363  -0.104  0.2072  2.3508  0.9341
  387MOL0     H51047  -0.561   5.274  -0.009 -1.7630 -0.1675  0.7437
  387MOL0     H51048  -1.116   5.581  -0.121 -2.3749  0.1011 -0.5793
  387MOL0     H51049  -1.341   5.546  -0.060 -1.0533 -1.0884 -0.4417
  387MOL0     H51050  -1.403   5.220   0.255  0.5064 -0.2142 -1.5515
  387MOL0     H51051  -1.505   5.214   0.109  2.2331  0.3114 -0.9385
  387MOL0     H51052  -1.557   5.360   0.372  0.6509 -0.5622  0.3966
  387MOL0     H51053  -1.618   5.199   0.350  0.1715  1.4278  2.5486
  387MOL0     H51054  -1.774   5.282   0.159  0.5763 -0.9031  0.1497
  387MOL0     H51055  -1.689   5.438   0.182 -1.4278  0.1074 -0.1916
  387MOL0     H51056  -1.827   5.312   0.424  2.1811 -0.5988 -1.3300
  387MOL0     H51057  -1.777   5.476   0.388 -2.6953  1.0134  1.5358
  387MOL0     H51058  -2.012   5.442   0.377  2.4254  0.4887  2.0402
  387MOL0     H51059  -1.992   5.325   0.247  2.7785 -0.0212 -0.4223
  387MOL0     H51060  -1.900   5.496   0.108  0.4656 -1.3762  0.4781
  387MOL0     H51061  -1.911   5.624   0.234  1.4082 -0.3834 -0.7701
  387MOL0     H51062  -2.124   5.456   0.095 -2.1179 -0.5477  1.5855
  387MOL0     H51063  -2.163   5.544   0.243  0.7614 -1.6527  0.2395
  387MOL0     H51064  -2.169   5.746   0.148 -2.8469 -0.8383 -0.6694
  387MOL0     H51065  -2.226   5.647   0.014 -1.2941 -1.5141  2.1031
  387MOL0     H51066  -1.211   5.285   0.265  2.4921 -0.7116  0.7460
  387MOL0     H51067  -0.989   5.308   0.190  0.5939 -0.9617 -2.1983
  387MOL0     H51068  -0.754   5.637  -0.126  1.8066  3.0660  1.2340
  387MOL0     H51069  -0.542   5.700  -0.269 -0.6142  0.9592  1.0069
  387MOL0     H51070   1.521   6.393  -0.416 -0.7751  1.8016  0.0018
  387MOL0     H51071   1.745   6.491  -0.359  3.2857 -3.3797 -0.5389
  387MOL0     H51072   2.070   6.549  -0.163 -0.5036 -2.5386  0.3992
  387MOL0     H51073   2.308   6.645  -0.088 -0.6370  2.7048 -2.3252
  387MOL0     H51074   2.326   6.677   0.336  0.4748 -1.3880 -1.3042
  387MOL0     H51075   2.332   6.849   0.307 -0.6826  0.3226  0.1440
  387MOL0     H51076   2.578   6.826   0.247  1.7066 -1.9126  0.2621
  387MOL0     H51077   2.540   6.796   0.416 -2.4209  0.5745  0.8818
  387MOL0     H51078   2.602   6.584   0.207 -1.1413 -1.9883  0.2252
  387MOL0     H51079   2.524   6.537   0.352 -1.3415  1.1718  0.2572
  387MOL0     H51080   2.784   6.709   0.331 -0.6718 -0.1510 -0.6216
  387MOL0     H51081   2.698   6.679   0.477 -3.0833  1.5876 -0.8546
  387MOL0     H51082   2.870   6.287   0.391 -0.0573  0.3963  1.4255
  387MOL0     H51083   2.118   6.733   0.285 -3.1591  0.4791  0.1349
  387MOL0     H51084   1.905   6.664   0.209 -2.2342  4.0296 -3.4732
  388MOL0     O51085   5.898   7.982   3.417  0.4587  0.2123 -0.4221
  388MOL0     C51086   5.965   8.076   3.359  0.1426  0.1202 -0.5230
  388MOL0     O51087   5.908   8.173   3.291 -0.0475  0.0735 -0.2163
  388MOL0     C51088   5.774   8.193   3.283 -0.1960 -0.6567 -1.0756
  388MOL0     C51089   5.687   8.174   3.387  0.1361  0.1334 -0.6401
  388MOL0     C51090   5.549   8.211   3.376 -0.1238  0.7018 -0.1310
  388MOL0     C51091   5.500   8.275   3.259  0.3059 -0.3691 -0.3726
  388MOL0     O51092   5.370   8.298   3.240  0.2576 -0.1012 -0.1548
  388MOL0     C51093   5.333   8.407   3.159 -0.3205 -0.3174 -0.5688
  388MOL0     C51094   5.277   8.347   3.026 -1.2234 -0.0497  0.8332
  388MOL0     C51095   5.217   8.460   2.930 -0.4140 -0.5527  0.0025
  388MOL0     C51096   5.218   8.414   2.785  0.6596 -0.0991  0.5733
  388MOL0     C51097   5.124   8.484   2.688 -0.3055 -0.1045 -0.5990
  388MOL0     C51098   4.981   8.511   2.737 -0.4850 -0.0897 -0.3594
  388MOL0     C51099   4.887   8.556   2.624  0.5022 -0.4033 -0.4847
  388MOL0     C51100   4.805   8.679   2.654 -0.0217  0.4561  0.5693
  388MOL0     N51101   4.689   8.652   2.742 -0.6223 -0.0548 -0.2373
  388MOL0     C51102   4.564   8.598   2.698  0.8032 -0.4983  0.9961
  388MOL0     C51103   4.490   8.600   2.804 -0.7052 -0.3698  0.0286
  388MOL0     C51104   4.355   8.538   2.816  0.2557  0.7321 -0.9911
  388MOL0     C51105   4.266   8.645   2.749  0.6975  0.2734 -0.1469
  388MOL0     C51106   4.142   8.575   2.697 -0.0787 -0.3187  0.5228
  388MOL0     C51107   4.049   8.665   2.625  0.1652  0.3174  0.5210
  388MOL0     O51108   3.965   8.743   2.708  0.9328 -0.8214  0.1024
  388MOL0     C51109   3.828   8.721   2.710  0.5559  0.3299  0.0701
  388MOL0     C51110   3.763   8.599   2.699  1.1053  0.4096 -0.3281
  388MOL0     C51111   3.625   8.597   2.706  0.4288 -0.1172  0.0237
  388MOL0     C51112   3.556   8.712   2.701  0.2593 -0.1555  0.4675
  388MOL0     C51113   3.412   8.711   2.676  0.1710 -0.6673  0.7065
  388MOL0     O51114   3.356   8.830   2.635  0.3343  0.0931  0.3809
  388MOL0     C51115   3.225   8.856   2.645  0.4839 -0.5022  1.1418
  388MOL0     C51116   3.131   8.815   2.548 -0.6733 -0.6457 -0.4477
  388MOL0     C51117   3.011   8.880   2.538  0.0694 -0.1045  0.5899
  388MOL0     C51118   2.977   8.984   2.617  0.6820 -0.0394 -0.4771
  388MOL0     O51119   2.863   9.053   2.594 -0.0788  0.1025 -0.0134
  388MOL0     C51120   2.753   9.029   2.678 -0.0998  0.0546 -0.6364
  388MOL0     C51121   2.633   9.106   2.624  0.4455  0.0166 -0.0937
  388MOL0     C51122   2.666   9.254   2.583  0.4705  0.8114  0.1740
  388MOL0     C51123   2.708   9.334   2.705  0.2746  0.5339 -1.1198
  388MOL0     C51124   2.594   9.373   2.812 -0.4368  0.5436  0.6011
  388MOL0     C51125   2.470   9.428   2.746 -0.1004  0.2726 -0.4879
  388MOL0     C51126   2.380   9.482   2.859  0.0798 -0.1809 -0.2082
  388MOL0     C51127   2.251   9.548   2.812  0.3431  0.5180 -0.1851
  388MOL0    Cl51128   2.261   9.710   2.756  0.2097  0.5670  0.2038
  388MOL0     C51129   3.059   9.015   2.725  0.5858  0.9506  0.4100
  388MOL0     C51130   3.184   8.944   2.741 -0.1543 -0.4992 -0.3262
  388MOL0     O51131   3.349   8.602   2.684 -0.0338  0.1305  0.0167
  388MOL0     C51132   3.621   8.835   2.715 -0.6122 -0.1482 -1.0074
  388MOL0     C51133   3.758   8.841   2.721 -0.4755  0.9269 -0.4259
  388MOL0     N51134   4.559   8.659   2.910  0.6788 -0.3850 -0.1531
  388MOL0     N51135   4.676   8.694   2.871 -0.6366  0.1748 -0.3313
  388MOL0     C51136   5.594   8.293   3.157  0.1146 -0.3186  0.1125
  388MOL0     C51137   5.725   8.247   3.166  0.1068  0.2560  0.3149
  388MOL0     C51138   6.108   8.062   3.345  0.0389  0.0327  0.4864
  388MOL0     C51139   6.176   7.944   3.386 -1.0384 -0.2012 -0.1428
  388MOL0     C51140   6.311   7.927   3.349  0.7638 -0.8741  0.0380
  388MOL0     C51141   6.384   8.028   3.275  0.1232 -0.5058 -0.2790
  388MOL0     O51142   6.513   8.022   3.253  0.0305 -0.4646  0.3575
  388MOL0     C51143   6.597   7.923   3.300  0.1305  0.7984  0.2550
  388MOL0     C51144   6.649   7.932   3.445  0.1743 -0.2944  0.0157
  388MOL0     C51145   6.746   7.826   3.486 -0.0791  0.6839 -0.5923
  388MOL0     C51146   6.815   7.880   3.613 -0.0452 -0.0438  0.5192
  388MOL0     C51147   6.944   7.808   3.632  0.0751  0.2196 -0.0412
  388MOL0     C51148   7.044   7.745   3.638 -0.7898 -0.8270  0.0834
  388MOL0     C51149   6.320   8.155   3.255 -0.5574  0.4892 -1.3808
  388MOL0     C51150   6.185   8.161   3.290 -0.1366  0.0123  0.3742
  388MOL0     H51151   5.730   8.145   3.482 -0.4726  1.2610 -0.0058
  388MOL0     H51152   5.471   8.207   3.451 -1.9925  3.0101 -1.7688
  388MOL0     H51153   5.409   8.483   3.136 -0.4831  0.0345  0.0607
  388MOL0     H51154   5.250   8.452   3.213 -1.6098 -1.3254 -1.6183
  388MOL0     H51155   5.200   8.272   3.045 -0.4175 -1.5249 -1.4237
  388MOL0     H51156   5.358   8.289   2.983 -1.2454 -0.8990  1.8890
  388MOL0     H51157   5.277   8.549   2.948 -0.2072 -1.0299  1.9110
  388MOL0     H51158   5.117   8.486   2.966  0.2910  0.8934  1.0055
  388MOL0     H51159   5.320   8.421   2.744 -0.9405  0.3754 -3.9237
  388MOL0     H51160   5.190   8.308   2.791  0.8981 -0.2894 -1.1125
  388MOL0     H51161   5.111   8.419   2.600  1.8710 -1.2603 -0.1331
  388MOL0     H51162   5.165   8.579   2.654 -0.3384 -1.0177 -3.4702
  388MOL0     H51163   4.994   8.600   2.799  1.9692  0.1315 -1.0579
  388MOL0     H51164   4.945   8.429   2.799 -1.3902  1.0203  0.6415
  388MOL0     H51165   4.946   8.582   2.535  0.8444  2.7971  0.5521
  388MOL0     H51166   4.816   8.477   2.597 -0.5431  0.9681 -1.9550
  388MOL0     H51167   4.779   8.723   2.557 -0.5046  1.4720  1.1423
  388MOL0     H51168   4.874   8.756   2.690 -1.8273  4.0278 -2.7445
  388MOL0     H51169   4.524   8.569   2.601  0.5997 -1.5755  1.3830
  388MOL0     H51170   4.321   8.521   2.919  1.8559  0.4608 -0.4870
  388MOL0     H51171   4.341   8.439   2.770 -3.8600 -0.4160  2.1254
  388MOL0     H51172   4.309   8.701   2.665 -1.2886  0.6699 -0.9506
  388MOL0     H51173   4.240   8.719   2.826 -0.7619  0.2355 -0.5667
  388MOL0     H51174   4.172   8.508   2.615 -0.3260 -1.4410  1.3251
  388MOL0     H51175   4.098   8.512   2.774  0.3816 -1.3034  0.0010
  388MOL0     H51176   3.996   8.607   2.549  0.6920 -0.1890  0.5422
  388MOL0     H51177   4.104   8.738   2.565  0.3177 -1.8827 -2.1914
  388MOL0     H51178   3.824   8.509   2.691  2.5676  1.1082  2.0657
  388MOL0     H51179   3.569   8.504   2.714 -1.9837  1.2523 -0.2924
  388MOL0     H51180   3.167   8.742   2.477 -0.4381 -1.7068  0.7386
  388MOL0     H51181   2.941   8.867   2.457 -0.2271  0.7339  0.7067
  388MOL0     H51182   2.783   9.055   2.780 -0.2152 -0.3750 -0.4918
  388MOL0     H51183   2.726   8.923   2.678  2.5592 -0.8659  3.9201
  388MOL0     H51184   2.546   9.108   2.692 -0.3271  1.1068 -1.0741
  388MOL0     H51185   2.586   9.062   2.536  0.4533  3.0801 -1.7800
  388MOL0     H51186   2.580   9.307   2.541 -0.2566  0.0175  0.6542
  388MOL0     H51187   2.738   9.261   2.500  2.8913  2.4814  2.2461
  388MOL0     H51188   2.786   9.281   2.761 -0.7625  0.1297 -0.0134
  388MOL0     H51189   2.759   9.425   2.672  0.0004  1.9879  2.0771
  388MOL0     H51190   2.639   9.451   2.873 -0.9987  0.3169  1.3149
  388MOL0     H51191   2.566   9.281   2.864 -0.1034  0.6585  0.9877
  388MOL0     H51192   2.412   9.357   2.686 -0.3589 -0.6367  0.7929
  388MOL0     H51193   2.486   9.519   2.688  2.4135  0.6720  0.7123
  388MOL0     H51194   2.347   9.400   2.923 -0.6739 -0.7694 -1.3313
  388MOL0     H51195   2.430   9.543   2.935  1.2914 -2.2392  0.7372
  388MOL0     H51196   2.187   9.538   2.900 -0.9463  0.7000 -1.0842
  388MOL0     H51197   2.211   9.487   2.731  2.4271 -0.6491 -0.4010
  388MOL0     H51198   3.026   9.092   2.794  1.4335  2.3236 -0.6685
  388MOL0     H51199   3.259   8.986   2.807  0.4911 -1.2410 -0.5734
  388MOL0     H51200   3.556   8.921   2.726 -2.2829 -1.4611 -0.0772
  388MOL0     H51201   3.807   8.938   2.728 -1.1116  1.1981  0.3591
  388MOL0     H51202   5.561   8.353   3.072 -0.1074 -0.5007  0.0680
  388MOL0     H51203   5.789   8.263   3.080  0.7098 -2.0346  0.2730
  388MOL0     H51204   6.130   7.852   3.422  1.4737 -3.1808 -3.7370
  388MOL0     H51205   6.356   7.832   3.378  1.3803 -0.8061 -0.6656
  388MOL0     H51206   6.687   7.919   3.238 -0.4305 -0.2630 -0.5302
  388MOL0     H51207   6.549   7.825   3.294  2.1361 -0.2441  0.2020
  388MOL0     H51208   6.691   8.033   3.442  3.6739 -1.6261 -1.4905
  388MOL0     H51209   6.555   7.937   3.500 -0.0532  1.2351 -0.4841
  388MOL0     H51210   6.826   7.826   3.411 -1.7175  1.3634 -2.4118
  388MOL0     H51211   6.698   7.728   3.483 -0.8094  1.0576 -1.2730
  388MOL0     H51212   6.828   7.987   3.596  0.6423 -0.2546 -0.3625
  388MOL0     H51213   6.738   7.880   3.691  2.1233  4.0073  2.9889
  388MOL0     H51214   7.144   7.709   3.651  0.1341  2.4886  4.7501
  388MOL0     H51215   6.387   8.234   3.221 -0.7947  1.2439 -0.1612
  388MOL0     H51216   6.136   8.254   3.266 -2.8793 -1.4524 -0.1020
  389MOL0     O51217   3.415   6.157   5.386 -0.4439 -0.0679 -0.3614
  389MOL0     C51218   3.478   6.066   5.446  0.6719 -0.2679 -0.0960
  389MOL0     O51219   3.418   5.978   5.535 -0.1122  0.0581  0.2032
  389MOL0     C51220   3.283   5.956   5.543 -0.0828 -0.3044 -0.0220
  389MOL0     C51221   3.244   5.917   5.667 -0.0019 -0.8077 -0.1785
  389MOL0     C51222   3.115   5.874   5.693  0.6732  0.4813 -0.7270
  389MOL0     C51223   3.022   5.877   5.583  0.2500 -0.7637  0.0359
  389MOL0     O51224   2.893   5.836   5.606  0.4276  0.4255 -0.1427
  389MOL0     C51225   2.787   5.876   5.518 -0.1879 -0.1689  0.0483
  389MOL0     C51226   2.655   5.833   5.589  0.9005  0.1489  0.0597
  389MOL0     C51227   2.619   5.682   5.558 -0.3680 -0.1026  0.2758
  389MOL0     C51228   2.483   5.644   5.635 -0.1379  0.3985 -0.2270
  389MOL0     C51229   2.454   5.495   5.587  0.1132 -0.1033  0.1577
  389MOL0     C51230   2.335   5.443   5.674  0.7124  0.8334  0.3960
  389MOL0     C51231   2.284   5.297   5.636  0.2260 -0.7009 -0.4901
  389MOL0     C51232   2.185   5.240   5.731 -0.5498  0.0788  1.2051
  389MOL0     N51233   2.060   5.316   5.720  0.1828 -0.4973 -0.2434
  389MOL0     C51234   2.036   5.411   5.811  0.2758  0.4774  1.1211
  389MOL0     C51235   1.932   5.491   5.759 -0.4148  0.2786 -0.1055
  389MOL0     C51236   1.875   5.615   5.834 -0.5705  0.1476  0.3363
  389MOL0     C51237   1.811   5.564   5.958  0.0293 -0.1443 -0.5997
  389MOL0     C51238   1.748   5.688   6.035  1.0067  0.6506 -0.6253
  389MOL0     C51239   1.658   5.638   6.147 -0.2013  1.4397 -0.3308
  389MOL0     O51240   1.539   5.576   6.081 -0.6387 -0.1681  0.2826
  389MOL0     C51241   1.438   5.526   6.152  0.1138  0.2317 -0.2418
  389MOL0     C51242   1.416   5.556   6.289 -0.2056 -0.2782 -0.0338
  389MOL0     C51243   1.303   5.518   6.359  0.2876 -0.0313 -0.1904
  389MOL0     C51244   1.201   5.445   6.294 -0.3483 -0.1104 -0.6615
  389MOL0     C51245   1.076   5.412   6.369  0.2330  0.6985 -0.0102
  389MOL0     O51246   1.087   5.427   6.510  0.2990  0.0831  0.5906
  389MOL0     C51247   0.972   5.395   6.575 -0.1437  0.8376 -1.0815
  389MOL0     C51248   0.871   5.492   6.577 -0.0969  0.3757  0.7559
  389MOL0     C51249   0.742   5.451   6.621 -0.6817  0.3809  0.3015
  389MOL0     C51250   0.717   5.321   6.676 -0.1748  0.7309 -0.0846
  389MOL0     O51251   0.593   5.270   6.716  0.8579 -0.9713 -0.4079
  389MOL0     C51252   0.481   5.361   6.704  0.7971  0.5427  0.3004
  389MOL0     C51253   0.345   5.288   6.721  0.6757 -0.1030 -0.4522
  389MOL0     C51254   0.224   5.386   6.728 -0.7369 -0.1929  0.0559
  389MOL0     C51255   0.090   5.310   6.760 -1.1251  0.0963  0.0761
  389MOL0     C51256  -0.020   5.412   6.765  0.0715 -0.5282  0.5020
  389MOL0     C51257  -0.144   5.342   6.822 -0.0142 -0.1428 -0.6939
  389MOL0     C51258  -0.257   5.451   6.845  0.3576 -0.0727  0.0880
  389MOL0     C51259  -0.212   5.541   6.964  0.5943 -0.6053  0.0940
  389MOL0    Cl51260  -0.245   5.450   7.102 -0.0577  0.1134  0.2803
  389MOL0     C51261   0.826   5.227   6.685 -0.0100 -0.8759 -0.0597
  389MOL0     C51262   0.951   5.266   6.627 -0.1069 -0.5868 -0.7512
  389MOL0     O51263   0.972   5.387   6.303 -0.5704  0.0456 -0.4209
  389MOL0     C51264   1.211   5.418   6.162 -0.5531  0.6922 -0.1471
  389MOL0     C51265   1.325   5.456   6.091  0.4237 -0.3013  0.0691
  389MOL0     N51266   1.885   5.435   5.648 -0.2633 -0.4422  0.0320
  389MOL0     N51267   1.979   5.345   5.612 -0.5991 -0.7432 -0.1553
  389MOL0     C51268   3.067   5.918   5.454 -0.0591  0.0397  0.4694
  389MOL0     C51269   3.189   5.967   5.436 -0.0758  0.6206 -0.2011
  389MOL0     C51270   3.620   6.069   5.423  0.4965 -0.0984  0.4750
  389MOL0     C51271   3.688   6.183   5.394 -0.4560 -0.2889 -0.1557
  389MOL0     C51272   3.826   6.184   5.382 -0.2976  0.1211  0.0784
  389MOL0     C51273   3.896   6.059   5.391 -0.0339  0.0171  0.1671
  389MOL0     O51274   4.031   6.032   5.364 -0.6984 -0.1374  0.1647
  389MOL0     C51275   4.105   6.152   5.344 -0.5173 -0.3116  0.1535
  389MOL0     C51276   4.237   6.107   5.303  0.3135  1.1494  0.2675
  389MOL0     C51277   4.346   6.224   5.281 -0.2375 -0.4742  0.6465
  389MOL0     C51278   4.493   6.188   5.277  0.0315  0.3329  0.0692
  389MOL0     C51279   4.519   6.071   5.187  0.4882  0.2607 -0.7864
  389MOL0     C51280   4.530   5.971   5.127  0.7084 -0.5569 -0.0065
  389MOL0     C51281   3.816   5.945   5.425 -0.2082  0.0422 -0.9243
  389MOL0     C51282   3.683   5.949   5.445  1.1134  0.6108 -0.2618
  389MOL0     H51283   3.309   5.902   5.753 -0.3529 -2.2745 -0.1355
  389MOL0     H51284   3.089   5.833   5.791  5.7453 -2.8137 -0.3771
  389MOL0     H51285   2.788   5.830   5.419 -0.4232  1.4843 -0.7622
  389MOL0     H51286   2.799   5.984   5.506  2.5174 -0.3877  0.3020
  389MOL0     H51287   2.572   5.895   5.552 -1.5266 -2.7994  0.1706
  389MOL0     H51288   2.676   5.854   5.694  0.7181  1.1886 -0.1024
  389MOL0     H51289   2.694   5.607   5.584 -2.9327 -1.9017  3.2406
  389MOL0     H51290   2.593   5.667   5.453 -2.6174 -2.9255  1.1152
  389MOL0     H51291   2.506   5.637   5.742 -1.4355  2.0414  0.2015
  389MOL0     H51292   2.404   5.717   5.615  1.4057  1.7936 -1.3923
  389MOL0     H51293   2.538   5.427   5.601  0.9678  0.9884  0.4715
  389MOL0     H51294   2.427   5.500   5.481  1.9417  2.0668 -0.2924
  389MOL0     H51295   2.252   5.511   5.651 -1.0498 -1.4045 -0.3394
  389MOL0     H51296   2.360   5.438   5.780  0.2619  2.3724  0.5956
  389MOL0     H51297   2.228   5.292   5.542 -1.5135  3.0593  0.1555
  389MOL0     H51298   2.368   5.227   5.634 -1.2863 -2.6033 -2.4254
  389MOL0     H51299   2.233   5.244   5.829  3.1171  2.8023 -0.4449
  389MOL0     H51300   2.161   5.135   5.713  0.1588  0.0407  0.4170
  389MOL0     H51301   2.077   5.424   5.911 -1.2822 -1.0843  2.0279
  389MOL0     H51302   1.803   5.661   5.765 -0.2393 -1.1900 -0.9485
  389MOL0     H51303   1.955   5.685   5.860  0.2669 -0.3947 -0.6817
  389MOL0     H51304   1.882   5.518   6.028  0.1158  2.4791  1.1885
  389MOL0     H51305   1.734   5.494   5.926 -1.5449  1.0726  0.3301
  389MOL0     H51306   1.813   5.763   6.080 -1.6435  3.0359 -0.4705
  389MOL0     H51307   1.686   5.734   5.957  0.0337  0.7941  0.2186
  389MOL0     H51308   1.629   5.724   6.208 -1.8442  0.7877 -0.1481
  389MOL0     H51309   1.719   5.568   6.205  1.3066  1.9151 -1.2752
  389MOL0     H51310   1.491   5.618   6.338 -0.2994  1.2906 -1.7741
  389MOL0     H51311   1.295   5.543   6.464 -0.4344  0.1336 -0.2785
  389MOL0     H51312   0.881   5.585   6.521  1.3312  0.3848  0.9944
  389MOL0     H51313   0.665   5.528   6.622 -0.0369  1.0770  2.4000
  389MOL0     H51314   0.494   5.410   6.607 -1.4237  1.3127  0.3300
  389MOL0     H51315   0.494   5.437   6.782  0.9802  1.7211 -0.8429
  389MOL0     H51316   0.347   5.218   6.805 -3.1530  3.2818  2.8985
  389MOL0     H51317   0.330   5.234   6.627  1.6343 -1.2010  0.0076
  389MOL0     H51318   0.205   5.442   6.636  1.2067 -1.6127 -1.3172
  389MOL0     H51319   0.238   5.465   6.802 -2.4149  2.8304 -2.6284
  389MOL0     H51320   0.070   5.238   6.681 -0.2760 -0.8727  0.7180
  389MOL0     H51321   0.100   5.265   6.860  1.9066 -0.1978 -0.2741
  389MOL0     H51322  -0.041   5.446   6.664  1.0524 -0.6136  0.2554
  389MOL0     H51323   0.022   5.493   6.826  2.5438 -0.9646 -0.5135
  389MOL0     H51324  -0.133   5.290   6.918 -0.7697 -2.9462 -2.0039
  389MOL0     H51325  -0.168   5.260   6.753  0.1591 -1.1952  0.4591
  389MOL0     H51326  -0.261   5.508   6.752  0.4231 -1.3690 -0.7439
  389MOL0     H51327  -0.361   5.419   6.857 -0.7030  2.4269 -1.6085
  389MOL0     H51328  -0.273   5.631   6.969  2.0534  0.3897  0.5160
  389MOL0     H51329  -0.107   5.569   6.962  0.6461 -0.8225 -1.2714
  389MOL0     H51330   0.810   5.125   6.718  0.7411 -0.4421  1.8041
  389MOL0     H51331   1.026   5.188   6.631 -2.1452 -2.5975  0.9723
  389MOL0     H51332   1.131   5.370   6.107 -0.4303 -1.4383  1.4055
  389MOL0     H51333   1.327   5.444   5.983 -2.7121 -0.7967 -0.0181
  389MOL0     H51334   2.998   5.923   5.370 -2.6064 -0.3473  2.3854
  389MOL0     H51335   3.235   5.994   5.342 -0.1298  0.4731 -0.2707
  389MOL0     H51336   3.643   6.279   5.371 -1.0127 -0.8857 -1.6427
  389MOL0     H51337   3.876   6.277   5.360 -1.8846  0.8826 -0.4922
  389MOL0     H51338   4.108   6.220   5.429 -1.0520 -1.0002  0.7272
  389MOL0     H51339   4.057   6.206   5.262  2.6449  2.2008 -0.2430
  389MOL0     H51340   4.281   6.049   5.384 -0.0781  4.7276  3.3001
  389MOL0     H51341   4.242   6.044   5.213  2.6917 -0.3358  1.3434
  389MOL0     H51342   4.328   6.299   5.359 -1.2670  0.4861 -0.4700
  389MOL0     H51343   4.315   6.280   5.192 -1.9173  0.3534  1.6993
  389MOL0     H51344   4.551   6.270   5.234 -0.1481  0.0605 -0.7080
  389MOL0     H51345   4.521   6.163   5.379 -1.6203 -2.9000 -0.1447
  389MOL0     H51346   4.529   5.880   5.071 -1.9716  0.7272 -2.3360
  389MOL0     H51347   3.861   5.848   5.441  0.4637  0.7053  1.7663
  389MOL0     H51348   3.634   5.861   5.487 -3.0958  2.7679 -0.0690
  390MOL0     O51349   3.996  10.864   4.896  0.9985 -0.1472  0.2788
  390MOL0     C51350   4.089  10.950   4.927  1.4229 -0.4180 -0.1087
  390MOL0     O51351   4.078  11.090   4.911 -0.2760  0.1807 -0.1146
  390MOL0     C51352   3.973  11.155   4.846 -0.5178  0.8237 -0.4085
  390MOL0     C51353   3.910  11.101   4.735 -0.6146  0.2610 -0.4496
  390MOL0     C51354   3.795  11.161   4.687  1.1665  0.7220  0.0244
  390MOL0     C51355   3.744  11.274   4.749  0.0236 -0.3108 -0.6062
  390MOL0     O51356   3.629  11.324   4.689  0.1146  0.0870  0.0183
  390MOL0     C51357   3.540  11.405   4.767 -0.4819  0.0622 -0.6922
  390MOL0     C51358   3.402  11.396   4.705  0.5989  0.3723 -0.3164
  390MOL0     C51359   3.340  11.250   4.710  0.1682 -0.4020  0.2163
  390MOL0     C51360   3.184  11.253   4.708  0.6554  0.7564  0.0849
  390MOL0     C51361   3.125  11.147   4.613  0.1805 -0.2943  0.3839
  390MOL0     C51362   3.155  11.192   4.466 -0.2921 -0.6253 -0.5768
  390MOL0     C51363   3.074  11.110   4.370  0.2389 -0.2086  0.1411
  390MOL0     C51364   3.112  11.125   4.218  0.0614 -0.6519  0.0595
  390MOL0     N51365   3.253  11.108   4.191  0.0936  0.0861  0.3233
  390MOL0     C51366   3.357  11.199   4.203  0.0841  0.5832 -0.0846
  390MOL0     C51367   3.466  11.132   4.159  0.3154 -0.0085  0.6250
  390MOL0     C51368   3.602  11.202   4.143 -0.0099  0.7203  0.0551
  390MOL0     C51369   3.708  11.143   4.247  0.5138 -0.6433  0.5047
  390MOL0     C51370   3.851  11.158   4.184  0.2584  0.1762 -0.1621
  390MOL0     C51371   3.894  11.309   4.180 -0.0156  0.5779  0.1918
  390MOL0     O51372   4.008  11.338   4.096 -0.2965  0.8277  0.0866
  390MOL0     C51373   4.145  11.319   4.140  0.6382  0.3504  0.1656
  390MOL0     C51374   4.234  11.361   4.043 -0.1424  0.0395  0.1461
  390MOL0     C51375   4.371  11.359   4.088  0.2590 -0.2960  0.3770
  390MOL0     C51376   4.411  11.322   4.214  0.5130  0.4352  0.0741
  390MOL0     C51377   4.559  11.327   4.256  0.3531 -1.1052  0.4535
  390MOL0     O51378   4.652  11.379   4.175  0.7113  0.9534  0.3800
  390MOL0     C51379   4.779  11.357   4.215  0.0669  0.1517 -0.3285
  390MOL0     C51380   4.850  11.453   4.292 -0.2781  0.1248 -0.0555
  390MOL0     C51381   4.982  11.431   4.328 -0.4406  0.2396 -0.3573
  390MOL0     C51382   5.037  11.301   4.303 -0.3795 -0.5058  0.9044
  390MOL0     O51383   5.161  11.256   4.348  0.1881 -0.8178  0.0671
  390MOL0     C51384   5.236  11.344   4.430 -0.8108  0.9243 -0.3742
  390MOL0     C51385   5.358  11.252   4.460  0.6060 -0.4568  0.1740
  390MOL0     C51386   5.464  11.264   4.352  0.1694  0.5063 -0.0006
  390MOL0     C51387   5.598  11.215   4.404  0.2280  0.2591 -0.8410
  390MOL0     C51388   5.684  11.323   4.464  0.2568  0.1490 -0.1780
  390MOL0     C51389   5.821  11.261   4.492  0.8538 -0.6516  0.0993
  390MOL0     C51390   5.918  11.370   4.530 -0.5955 -0.2220 -0.5965
  390MOL0     C51391   6.061  11.311   4.548  0.4521 -0.1746 -0.1737
  390MOL0    Cl51392   6.177  11.440   4.595  0.2294  0.1758  0.0913
  390MOL0     C51393   4.974  11.200   4.228 -0.0836 -0.5655  0.0322
  390MOL0     C51394   4.844  11.233   4.186  1.1197 -0.3751  0.8072
  390MOL0     O51395   4.589  11.270   4.359  0.3856  1.3208  0.2561
  390MOL0     C51396   4.316  11.280   4.301 -0.8433  0.4362 -0.7300
  390MOL0     C51397   4.178  11.278   4.271 -0.2719 -0.4763  0.3422
  390MOL0     N51398   3.439  11.001   4.133 -0.6301 -0.7769  0.1721
  390MOL0     N51399   3.312  10.991   4.146 -0.4912 -0.5972  0.4036
  390MOL0     C51400   3.809  11.331   4.868  0.3815  0.8524  0.4071
  390MOL0     C51401   3.916  11.261   4.916 -0.2993  0.1241 -0.4705
  390MOL0     C51402   4.206  10.896   4.984 -0.9083  0.0541 -0.2048
  390MOL0     C51403   4.296  10.972   5.063  0.0126 -0.5232  0.7113
  390MOL0     C51404   4.410  10.911   5.127 -0.0234  0.3022  0.5192
  390MOL0     C51405   4.438  10.776   5.110  0.7935  0.3063 -0.0309
  390MOL0     O51406   4.552  10.734   5.180 -0.0482  0.1849 -0.4580
  390MOL0     C51407   4.564  10.588   5.191 -0.3004 -0.4126 -0.4577
  390MOL0     C51408   4.657  10.547   5.305 -0.7758 -0.2749 -0.2232
  390MOL0     C51409   4.657  10.403   5.349 -0.1458  0.7576  0.1508
  390MOL0     C51410   4.757  10.369   5.452  0.1351 -0.9739  0.3112
  390MOL0     C51411   4.892  10.332   5.394 -0.8278 -0.3754  0.2854
  390MOL0     C51412   4.997  10.299   5.340 -0.0093 -0.3008 -0.9310
  390MOL0     C51413   4.349  10.704   5.031  0.0782  0.4762 -0.4928
  390MOL0     C51414   4.237  10.759   4.971  0.9884 -0.0052  0.0924
  390MOL0     H51415   3.958  11.023   4.676  3.4222  0.9183  1.5943
  390MOL0     H51416   3.738  11.119   4.605  1.6912 -0.6544  0.3288
  390MOL0     H51417   3.580  11.506   4.761 -0.1386 -0.0728 -0.7180
  390MOL0     H51418   3.526  11.376   4.872  5.2600 -0.7865  0.1956
  390MOL0     H51419   3.413  11.426   4.600  2.3869 -0.4800 -0.3956
  390MOL0     H51420   3.340  11.469   4.758  2.8631  0.0254  3.1223
  390MOL0     H51421   3.378  11.219   4.808 -0.9125 -0.9005  0.4857
  390MOL0     H51422   3.378  11.185   4.631 -0.5300  2.7625 -2.9547
  390MOL0     H51423   3.151  11.228   4.810 -0.6376  0.5409 -0.3594
  390MOL0     H51424   3.142  11.352   4.687 -3.4618 -1.4702 -4.1794
  390MOL0     H51425   3.016  11.144   4.626  0.3169 -5.2187  2.6300
  390MOL0     H51426   3.159  11.050   4.649  1.8998  0.1587  0.0738
  390MOL0     H51427   3.264  11.192   4.455  0.0381  3.1169  1.1931
  390MOL0     H51428   3.132  11.298   4.452 -0.9512  0.2317  4.9795
  390MOL0     H51429   3.101  11.008   4.398  1.9267 -0.1933 -1.2430
  390MOL0     H51430   2.970  11.139   4.388  0.0008 -1.1573  0.3548
  390MOL0     H51431   3.084  11.225   4.183  1.2999  0.4695  2.0667
  390MOL0     H51432   3.055  11.058   4.152  0.6567  0.4669 -1.6692
  390MOL0     H51433   3.363  11.306   4.221 -1.3400  0.8590 -1.0692
  390MOL0     H51434   3.604  11.311   4.148 -1.5050  0.7182  1.2111
  390MOL0     H51435   3.637  11.168   4.045 -0.5801 -0.1229  0.1323
  390MOL0     H51436   3.695  11.036   4.263 -1.1381  0.0848  6.1621
  390MOL0     H51437   3.684  11.192   4.341  2.1169  0.7445  0.2505
  390MOL0     H51438   3.920  11.118   4.259 -0.2637  2.0222  1.3445
  390MOL0     H51439   3.845  11.095   4.094  1.8534 -2.7923  1.6534
  390MOL0     H51440   3.921  11.356   4.276 -1.4676  1.6280  0.1218
  390MOL0     H51441   3.807  11.369   4.151 -0.3637  0.6775  1.3771
  390MOL0     H51442   4.201  11.390   3.944  0.1229 -1.9201 -0.5768
  390MOL0     H51443   4.454  11.395   4.027  1.3487  0.1449  2.0664
  390MOL0     H51444   4.814  11.554   4.309 -2.3907 -0.0606 -2.7740
  390MOL0     H51445   5.043  11.514   4.360 -0.6165  0.7905 -1.3951
  390MOL0     H51446   5.177  11.374   4.517  1.4434  0.1736  1.5322
  390MOL0     H51447   5.278  11.426   4.371  1.2408 -0.7198 -1.3337
  390MOL0     H51448   5.331  11.147   4.473 -0.1195 -0.4123 -0.8282
  390MOL0     H51449   5.402  11.299   4.548  1.6928 -0.3256 -0.4244
  390MOL0     H51450   5.474  11.371   4.332  1.0018  0.9112  2.2609
  390MOL0     H51451   5.434  11.214   4.259  2.0591 -0.4319 -0.1633
  390MOL0     H51452   5.587  11.128   4.470  1.4371 -0.3146 -1.3713
  390MOL0     H51453   5.648  11.175   4.315 -0.7873 -3.2083 -0.0367
  390MOL0     H51454   5.642  11.361   4.558  0.8960  3.8294 -1.2232
  390MOL0     H51455   5.692  11.405   4.392 -0.8365  0.8794  0.5069
  390MOL0     H51456   5.859  11.213   4.401 -0.5343 -0.7146 -0.4620
  390MOL0     H51457   5.817  11.186   4.572  3.7981 -1.7291 -0.6192
  390MOL0     H51458   5.926  11.444   4.450  1.1603  1.8961  1.4105
  390MOL0     H51459   5.895  11.409   4.630  2.8789  0.1378  0.1939
  390MOL0     H51460   6.100  11.265   4.457  1.6550  1.9108 -0.7773
  390MOL0     H51461   6.057  11.234   4.626 -2.0361 -1.5291 -1.4975
  390MOL0     H51462   5.017  11.104   4.201 -2.4272 -1.5478 -0.4992
  390MOL0     H51463   4.785  11.165   4.126 -1.6455  1.9569  0.6590
  390MOL0     H51464   4.349  11.255   4.401 -1.1832 -0.8642 -0.9371
  390MOL0     H51465   4.104  11.248   4.345 -2.4362 -0.7662 -1.8173
  390MOL0     H51466   3.785  11.426   4.914 -0.3785  2.0760 -2.2719
  390MOL0     H51467   3.965  11.292   5.009  2.7181 -2.1280 -1.1575
  390MOL0     H51468   4.279  11.079   5.070 -0.1158 -0.4474 -0.5199
  390MOL0     H51469   4.482  10.967   5.186  1.3640 -0.2188 -0.6399
  390MOL0     H51470   4.581  10.547   5.091  0.3293 -1.1466 -0.0723
  390MOL0     H51471   4.470  10.550   5.231 -1.1566  1.0942 -0.9740
  390MOL0     H51472   4.756  10.575   5.267 -1.0020  0.4247 -0.2961
  390MOL0     H51473   4.636  10.613   5.389  1.5314 -0.1711  0.3467
  390MOL0     H51474   4.678  10.334   5.267 -1.2002  1.3576 -0.6447
  390MOL0     H51475   4.554  10.373   5.369 -1.3303  2.2949 -2.9687
  390MOL0     H51476   4.761  10.446   5.530 -3.2794  0.8049 -1.0534
  390MOL0     H51477   4.712  10.282   5.500 -1.7814  0.1647  0.7150
  390MOL0     H51478   5.090  10.265   5.297  1.7780  3.5368 -0.5458
  390MOL0     H51479   4.358  10.597   5.022  0.0164  0.5358 -1.3900
  390MOL0     H51480   4.172  10.687   4.922 -2.4370  1.3150  2.2736
  391MOL0     O51481   9.300   3.985   0.414 -0.2105 -0.2641 -0.4579
  391MOL0     C51482   9.318   4.046   0.311 -0.6965 -0.4536  0.6171
  391MOL0     O51483   9.435   4.051   0.240 -0.1819  0.0381 -0.3900
  391MOL0     C51484   9.551   4.020   0.303 -0.6586  0.7036 -0.5343
  391MOL0     C51485   9.654   3.964   0.224  0.0503  0.1651 -0.3389
  391MOL0     C51486   9.784   3.938   0.265 -0.0948  0.6356 -0.1089
  391MOL0     C51487   9.809   3.967   0.397 -0.6186 -0.1550 -0.9689
  391MOL0     O51488   9.929   3.941   0.459  0.0779  0.1166  0.1072
  391MOL0     C51489   9.995   3.814   0.421  0.1662  0.3980  0.0294
  391MOL0     C51490  10.096   3.782   0.528 -0.1031  0.0652 -0.0981
  391MOL0     C51491  10.131   3.635   0.523  1.3137  0.7894 -0.6118
  391MOL0     C51492  10.266   3.602   0.598 -0.9418  0.3074  0.5803
  391MOL0     C51493  10.270   3.663   0.754  0.5003  0.3550  0.3550
  391MOL0     C51494  10.396   3.606   0.820  0.5339 -0.4773  0.2999
  391MOL0     C51495  10.518   3.690   0.773  0.7026 -0.2965  0.4594
  391MOL0     C51496  10.642   3.604   0.770 -0.3190 -0.2740 -0.8397
  391MOL0     N51497  10.672   3.565   0.907 -0.2276 -0.1962  0.1016
  391MOL0     C51498  10.632   3.445   0.971  0.0239  0.4660 -0.0160
  391MOL0     C51499  10.679   3.458   1.099 -0.0215  0.2800  0.0464
  391MOL0     C51500  10.660   3.377   1.218 -0.3840  0.5947  0.0712
  391MOL0     C51501  10.579   3.446   1.323  0.0708  0.7929  0.2584
  391MOL0     C51502  10.424   3.410   1.315  0.6076 -0.6743  0.4070
  391MOL0     C51503  10.341   3.472   1.194 -0.8960  0.2610 -0.2094
  391MOL0     O51504  10.356   3.391   1.070 -0.1322 -0.7287  0.4428
  391MOL0     C51505  10.252   3.384   0.979  0.0642 -0.5686  0.7941
  391MOL0     C51506  10.125   3.437   0.987  0.9148 -0.2700  0.6064
  391MOL0     C51507  10.029   3.422   0.882  0.1594  0.3927 -0.2951
  391MOL0     C51508  10.057   3.339   0.772  0.4209  0.7644 -0.0173
  391MOL0     C51509   9.947   3.324   0.662  0.4620  0.0027  0.2998
  391MOL0     O51510   9.832   3.395   0.667  0.4663 -0.0806 -0.9935
  391MOL0     C51511   9.753   3.411   0.562 -0.2291  0.2953  0.4163
  391MOL0     C51512   9.729   3.538   0.508 -0.0682  0.3629  0.0299
  391MOL0     C51513   9.650   3.562   0.396  0.1424 -0.4346 -0.3617
  391MOL0     C51514   9.572   3.462   0.343 -0.0102 -0.2746 -0.4901
  391MOL0     O51515   9.499   3.468   0.229  0.6788  0.5456  0.2958
  391MOL0     C51516   9.436   3.594   0.185 -0.0498  0.5942 -0.2131
  391MOL0     C51517   9.332   3.650   0.293  0.2244 -0.0627  0.3203
  391MOL0     C51518   9.208   3.564   0.300  0.4629  0.0711  0.4719
  391MOL0     C51519   9.125   3.599   0.424  0.4510  0.6503  0.3290
  391MOL0     C51520   9.044   3.726   0.397 -0.4034  0.9770  0.0617
  391MOL0     C51521   8.953   3.731   0.517  0.6154 -0.1786 -0.4339
  391MOL0     C51522   8.803   3.683   0.490 -0.0532  0.3462  0.1605
  391MOL0     C51523   8.728   3.796   0.400  0.4205  0.7799 -0.2167
  391MOL0    Cl51524   8.778   3.972   0.432  0.0150  0.5293 -0.2186
  391MOL0     C51525   9.584   3.332   0.404  0.4601  0.1488  0.1195
  391MOL0     C51526   9.685   3.302   0.498 -0.5822 -0.4438 -0.1162
  391MOL0     O51527   9.985   3.272   0.560 -0.3514  0.5057 -0.3569
  391MOL0     C51528  10.178   3.270   0.765  0.7662 -0.1040 -0.6251
  391MOL0     C51529  10.274   3.297   0.870  0.4199  0.2473  0.0341
  391MOL0     N51530  10.753   3.576   1.108 -0.3512 -0.0687  0.6134
  391MOL0     N51531  10.739   3.641   0.996  0.0917  0.7503 -0.3315
  391MOL0     C51532   9.708   4.011   0.483 -0.4602  1.1519 -0.2357
  391MOL0     C51533   9.586   4.040   0.435 -0.3222  0.2398  0.2720
  391MOL0     C51534   9.202   4.120   0.248 -0.5240  0.7416  0.3090
  391MOL0     C51535   9.215   4.184   0.121 -0.3534 -0.2732  0.5100
  391MOL0     C51536   9.117   4.256   0.064 -0.2235  0.8021  0.5393
  391MOL0     C51537   8.988   4.260   0.119  0.2136 -0.0902  0.1992
  391MOL0     O51538   8.880   4.338   0.084 -0.4161 -0.4189  0.1208
  391MOL0     C51539   8.884   4.396  -0.044  0.4314 -1.1382  0.4844
  391MOL0     C51540   8.759   4.487  -0.047  1.0860  0.0674  0.0735
  391MOL0     C51541   8.632   4.423   0.021 -0.0932 -0.2158  0.4540
  391MOL0     C51542   8.505   4.519   0.025 -0.0156  0.3635  0.0728
  391MOL0     C51543   8.523   4.617   0.130  0.3676 -0.3913  0.4033
  391MOL0     C51544   8.533   4.699   0.221  1.0600  0.3341  0.8619
  391MOL0     C51545   8.968   4.181   0.244  0.4162  0.6380  0.2365
  391MOL0     C51546   9.072   4.117   0.301 -0.8236  0.9180  0.3904
  391MOL0     H51547   9.626   3.946   0.120 -2.7315  2.0678 -0.0181
  391MOL0     H51548   9.850   3.896   0.190 -1.1499  1.2238 -1.3866
  391MOL0     H51549  10.052   3.823   0.328  2.8877  0.7008  1.6177
  391MOL0     H51550   9.932   3.725   0.409 -1.9260  1.5531  1.6463
  391MOL0     H51551  10.059   3.809   0.627  1.2632 -1.8217  0.9937
  391MOL0     H51552  10.182   3.850   0.524 -1.2149  1.4602 -1.9727
  391MOL0     H51553  10.136   3.613   0.416  0.3542 -0.0771 -0.4888
  391MOL0     H51554  10.040   3.587   0.560  0.9161 -0.0312 -2.5265
  391MOL0     H51555  10.274   3.493   0.601  2.8952  0.4176  0.0041
  391MOL0     H51556  10.352   3.648   0.549  0.3350 -0.6766  1.8163
  391MOL0     H51557  10.185   3.628   0.813 -0.2437  1.7940  0.1765
  391MOL0     H51558  10.267   3.773   0.758 -1.6662  0.3294  0.5391
  391MOL0     H51559  10.410   3.500   0.799  0.2338 -1.0271  2.6156
  391MOL0     H51560  10.388   3.618   0.928 -0.3486  1.1622  0.0920
  391MOL0     H51561  10.512   3.729   0.671 -0.3428 -1.6332 -0.0081
  391MOL0     H51562  10.532   3.775   0.841 -3.0572 -0.4087  1.6034
  391MOL0     H51563  10.731   3.653   0.730  0.3905  0.4909  1.5271
  391MOL0     H51564  10.634   3.507   0.720 -1.1899  0.8196 -2.9223
  391MOL0     H51565  10.566   3.374   0.921  0.9975 -0.6744  0.2861
  391MOL0     H51566  10.760   3.344   1.248  0.3569  0.4001 -2.4002
  391MOL0     H51567  10.612   3.291   1.171  1.5813  0.5139 -1.9680
  391MOL0     H51568  10.594   3.554   1.314  2.1414  0.6065  0.8502
  391MOL0     H51569  10.612   3.422   1.424 -2.5658  2.5214  1.6185
  391MOL0     H51570  10.417   3.301   1.307 -3.3263 -0.7666  2.7271
  391MOL0     H51571  10.382   3.457   1.405  1.9680  2.3423 -0.3792
  391MOL0     H51572  10.382   3.572   1.179  0.8748 -0.1023  1.7009
  391MOL0     H51573  10.237   3.478   1.227 -1.4698 -3.2046 -0.9932
  391MOL0     H51574  10.103   3.488   1.079  2.3488  0.6971  0.4531
  391MOL0     H51575   9.943   3.488   0.881  0.1129  0.3348  0.0801
  391MOL0     H51576   9.789   3.620   0.547 -0.3163  1.1196 -1.1198
  391MOL0     H51577   9.641   3.661   0.354 -1.2477 -1.6934 -3.3239
  391MOL0     H51578   9.390   3.564   0.090 -2.6861  1.2234  0.7662
  391MOL0     H51579   9.518   3.664   0.166  1.5084 -1.0750  0.1567
  391MOL0     H51580   9.293   3.748   0.265 -0.9594 -1.2455 -2.5438
  391MOL0     H51581   9.376   3.659   0.393 -0.4676  0.6284  0.5715
  391MOL0     H51582   9.233   3.458   0.312 -0.2227 -0.4407 -1.9631
  391MOL0     H51583   9.147   3.577   0.210 -0.3423  0.3581  1.0512
  391MOL0     H51584   9.051   3.520   0.436  0.6207  0.3071 -0.8248
  391MOL0     H51585   9.183   3.606   0.517  1.6244  1.6486 -0.4468
  391MOL0     H51586   8.989   3.718   0.303 -1.7798 -1.5288  1.0043
  391MOL0     H51587   9.116   3.808   0.393  2.0375 -1.0785 -0.8161
  391MOL0     H51588   8.952   3.837   0.544 -0.8509 -0.5210  1.0155
  391MOL0     H51589   8.998   3.684   0.605 -0.7877 -0.1415  0.3397
  391MOL0     H51590   8.808   3.586   0.438  2.1412  0.9582 -0.8903
  391MOL0     H51591   8.749   3.667   0.583  0.0569 -1.7663 -0.0847
  391MOL0     H51592   8.622   3.771   0.408  0.0836  0.3419 -4.1321
  391MOL0     H51593   8.747   3.780   0.293 -0.8283 -2.2500 -0.0744
  391MOL0     H51594   9.528   3.246   0.369 -0.9616 -0.7731  4.1223
  391MOL0     H51595   9.700   3.202   0.538  1.6421  0.0820  0.4867
  391MOL0     H51596  10.204   3.188   0.699  1.1861 -0.1378 -0.4247
  391MOL0     H51597  10.364   3.237   0.880  2.5451  3.4372  1.7182
  391MOL0     H51598   9.736   4.034   0.585  0.4938 -1.1740  0.0746
  391MOL0     H51599   9.517   4.089   0.503 -2.0232 -0.0939 -1.1525
  391MOL0     H51600   9.307   4.196   0.066 -0.0388 -0.3427  1.0133
  391MOL0     H51601   9.141   4.312  -0.026 -2.5148 -2.3862 -2.2855
  391MOL0     H51602   8.876   4.319  -0.121  1.8951 -2.2001  1.3444
  391MOL0     H51603   8.968   4.462  -0.066 -2.6270  3.0480 -0.0138
  391MOL0     H51604   8.798   4.574   0.007  2.1136 -0.5623  0.3843
  391MOL0     H51605   8.738   4.527  -0.147 -0.0009  0.9686  0.6490
  391MOL0     H51606   8.658   4.398   0.124 -1.9375  0.8379  1.2375
  391MOL0     H51607   8.602   4.337  -0.040 -2.4844  0.2299  0.8876
  391MOL0     H51608   8.489   4.569  -0.070 -1.9444 -0.5739 -0.1578
  391MOL0     H51609   8.418   4.454   0.041  0.5173 -0.9917 -2.0746
  391MOL0     H51610   8.534   4.776   0.296 -1.4972  1.7352 -0.3865
  391MOL0     H51611   8.868   4.181   0.286 -0.3982  2.1506 -1.5504
  391MOL0     H51612   9.068   4.053   0.389 -1.9755 -2.6459 -1.9924
  392MOL0     O51613   7.427   4.460   1.119 -0.1488  0.4233  1.2197
  392MOL0     C51614   7.520   4.540   1.143  0.5072 -0.6838 -0.7641
  392MOL0     O51615   7.503   4.679   1.157  0.4238  0.0622 -0.0761
  392MOL0     C51616   7.375   4.723   1.132 -0.6086  0.5404 -0.4992
  392MOL0     C51617   7.307   4.796   1.229 -0.1341 -0.3403 -0.0575
  392MOL0     C51618   7.184   4.857   1.204 -0.4596  0.1653  0.1014
  392MOL0     C51619   7.116   4.824   1.080 -0.2896 -0.2082 -0.0883
  392MOL0     O51620   6.994   4.875   1.045 -0.3514 -0.6374 -0.0454
  392MOL0     C51621   6.942   4.852   0.914 -0.6484  0.4609  0.0202
  392MOL0     C51622   6.804   4.918   0.917 -0.0450 -0.3278  1.0673
  392MOL0     C51623   6.727   4.900   0.783 -0.2990 -0.0635  0.3955
  392MOL0     C51624   6.704   4.747   0.745 -0.5776 -0.0253  0.5607
  392MOL0     C51625   6.605   4.738   0.629 -0.7012 -0.2920  0.4615
  392MOL0     C51626   6.464   4.751   0.683 -0.1317 -0.3117  0.3369
  392MOL0     C51627   6.368   4.715   0.569 -1.2063  0.0634  0.7567
  392MOL0     C51628   6.227   4.770   0.590  1.1223 -0.4602 -0.3979
  392MOL0     N51629   6.135   4.726   0.485 -0.0138 -0.0911 -0.0852
  392MOL0     C51630   6.158   4.758   0.349 -0.0190 -0.7344 -0.0312
  392MOL0     C51631   6.066   4.677   0.291  0.6280  0.6741 -0.1849
  392MOL0     C51632   6.040   4.681   0.141 -0.3476  0.5249 -0.6450
  392MOL0     C51633   5.928   4.780   0.094 -0.0890  0.1948 -0.7441
  392MOL0     C51634   5.893   4.760  -0.051 -0.6047 -0.4545 -0.3215
  392MOL0     C51635   5.780   4.852  -0.093 -0.0201  0.1179  0.2506
  392MOL0     O51636   5.748   4.840  -0.232 -0.5818  0.2156 -0.5004
  392MOL0     C51637   5.647   4.918  -0.285  0.7725 -0.5266  0.3076
  392MOL0     C51638   5.633   4.918  -0.423  0.2882  0.0633 -0.5413
  392MOL0     C51639   5.533   4.987  -0.490 -0.8801  0.3650  0.3854
  392MOL0     C51640   5.451   5.069  -0.413  0.1666  0.2226 -0.2655
  392MOL0     C51641   5.333   5.134  -0.470  0.9854 -0.5052  0.7166
  392MOL0     O51642   5.278   5.232  -0.404 -0.3454 -0.8645  0.4640
  392MOL0     C51643   5.153   5.284  -0.424 -0.4290 -0.4380 -0.6225
  392MOL0     C51644   5.139   5.422  -0.407 -0.1763  1.1057 -1.0665
  392MOL0     C51645   5.011   5.469  -0.422 -0.5356 -0.2082 -0.3816
  392MOL0     C51646   4.898   5.398  -0.452 -0.4125 -0.4348  0.0238
  392MOL0     O51647   4.778   5.468  -0.465 -0.6058 -0.2686  0.0593
  392MOL0     C51648   4.667   5.391  -0.521 -0.6723  0.0235 -0.1130
  392MOL0     C51649   4.541   5.495  -0.530  0.5168  0.2692 -0.1918
  392MOL0     C51650   4.415   5.428  -0.576 -0.6470 -0.1860  0.7452
  392MOL0     C51651   4.345   5.335  -0.477 -0.7598  0.6280 -0.1872
  392MOL0     C51652   4.277   5.220  -0.556 -0.2156  0.1769 -0.7562
  392MOL0     C51653   4.151   5.176  -0.484 -1.1547 -0.9990  0.6851
  392MOL0     C51654   4.169   5.140  -0.331  0.1066 -0.5029 -0.4372
  392MOL0     C51655   4.039   5.086  -0.271  0.1556  0.1428 -0.0105
  392MOL0    Cl51656   3.913   5.216  -0.270 -0.3643 -0.0290  0.1174
  392MOL0     C51657   4.917   5.262  -0.477 -0.5868  0.1065 -0.2786
  392MOL0     C51658   5.046   5.206  -0.461 -0.3849  0.0574  0.5590
  392MOL0     O51659   5.302   5.097  -0.584  0.1743  0.3787 -0.2541
  392MOL0     C51660   5.468   5.078  -0.276  0.1415  0.5460 -0.6805
  392MOL0     C51661   5.557   4.997  -0.205 -1.4525  1.2358  0.5973
  392MOL0     N51662   5.996   4.600   0.383 -0.1171  0.4984  0.0189
  392MOL0     N51663   6.044   4.629   0.497  0.5947  0.3198 -0.5856
  392MOL0     C51664   7.189   4.746   0.982 -0.0552  0.3542 -0.1459
  392MOL0     C51665   7.321   4.701   1.004  0.3983 -0.4543 -0.1936
  392MOL0     C51666   7.666   4.493   1.136  0.3458 -0.2760 -0.0057
  392MOL0     C51667   7.687   4.354   1.137 -1.0525 -0.1241  0.3618
  392MOL0     C51668   7.814   4.306   1.147 -0.5406  0.2055 -0.0183
  392MOL0     C51669   7.923   4.394   1.134 -0.5153  1.0430  0.2644
  392MOL0     O51670   8.044   4.328   1.132 -0.5919  0.2759  0.1021
  392MOL0     C51671   8.154   4.401   1.080  0.4597 -0.4006  0.1440
  392MOL0     C51672   8.280   4.321   1.046 -0.5511 -0.0720  0.2037
  392MOL0     C51673   8.351   4.260   1.168 -0.5259  0.1206  0.6127
  392MOL0     C51674   8.471   4.168   1.121  0.2137  0.2692 -0.6336
  392MOL0     C51675   8.474   4.067   1.221 -0.2003 -0.0545 -0.7873
  392MOL0     C51676   8.492   3.977   1.293  0.6187 -0.4858 -0.1219
  392MOL0     C51677   7.896   4.535   1.130 -0.2786  0.4578 -0.5524
  392MOL0     C51678   7.764   4.585   1.133 -0.4996  0.5251  0.7933
  392MOL0     H51679   7.356   4.806   1.326 -0.7841 -1.2939  0.3761
  392MOL0     H51680   7.149   4.935   1.272  0.1612  0.7043 -0.1855
  392MOL0     H51681   6.926   4.746   0.897  1.7095 -0.0905  0.8395
  392MOL0     H51682   7.010   4.893   0.838 -0.4921  1.2880  0.5802
  392MOL0     H51683   6.815   5.021   0.951  2.2515  1.1542 -3.3077
  392MOL0     H51684   6.732   4.876   0.987 -1.3646 -0.2604 -0.2069
  392MOL0     H51685   6.792   4.946   0.707 -1.4760  0.4328 -0.3486
  392MOL0     H51686   6.631   4.953   0.789 -0.2715  0.0432 -0.0700
  392MOL0     H51687   6.802   4.705   0.722 -0.1722  0.4683  1.3334
  392MOL0     H51688   6.666   4.693   0.832 -0.4286 -2.4953 -0.8125
  392MOL0     H51689   6.628   4.642   0.580 -3.5316  0.8751 -3.7655
  392MOL0     H51690   6.628   4.820   0.560  2.3740 -1.2038  0.2622
  392MOL0     H51691   6.453   4.852   0.724 -2.9128  0.9286 -3.0051
  392MOL0     H51692   6.449   4.684   0.768 -1.3584 -0.2338  0.2044
  392MOL0     H51693   6.413   4.753   0.477 -0.3066  0.0344  1.1746
  392MOL0     H51694   6.366   4.608   0.545 -1.6386  0.3458 -0.5530
  392MOL0     H51695   6.222   4.878   0.608 -2.3595 -0.3306 -1.5735
  392MOL0     H51696   6.188   4.733   0.686  1.2402 -1.1125 -0.6008
  392MOL0     H51697   6.229   4.832   0.314  0.0129 -0.9324 -0.3946
  392MOL0     H51698   6.003   4.581   0.116 -0.5913  0.7410 -1.1649
  392MOL0     H51699   6.140   4.689   0.096 -0.3203  2.3782 -0.3273
  392MOL0     H51700   5.955   4.884   0.110 -0.3877  0.1163  0.4059
  392MOL0     H51701   5.837   4.773   0.154 -0.0200 -0.2570 -0.6844
  392MOL0     H51702   5.984   4.790  -0.105  2.5250 -2.8613  3.0879
  392MOL0     H51703   5.867   4.658  -0.083 -3.5214  0.1925 -0.2492
  392MOL0     H51704   5.813   4.954  -0.072  0.6795 -0.1829  0.6525
  392MOL0     H51705   5.699   4.832  -0.023  1.1091  1.5599  2.0564
  392MOL0     H51706   5.692   4.846  -0.480 -0.0429 -2.7863  2.4428
  392MOL0     H51707   5.524   4.968  -0.596 -0.4456  3.5062 -0.3119
  392MOL0     H51708   5.227   5.482  -0.388 -0.0447  1.8002 -3.5454
  392MOL0     H51709   4.981   5.573  -0.420 -1.6298 -0.5052  1.9343
  392MOL0     H51710   4.634   5.324  -0.440 -0.5126  0.7429  0.5568
  392MOL0     H51711   4.685   5.331  -0.610  2.2004  1.8913 -0.9074
  392MOL0     H51712   4.570   5.571  -0.603  0.0667  0.5330 -0.1032
  392MOL0     H51713   4.520   5.549  -0.437 -1.9113 -1.1254  0.1670
  392MOL0     H51714   4.447   5.370  -0.663  2.2258  0.8382  0.9995
  392MOL0     H51715   4.339   5.497  -0.615 -0.2169 -0.1740 -0.0842
  392MOL0     H51716   4.417   5.287  -0.409 -3.1966 -1.5836  1.0523
  392MOL0     H51717   4.281   5.396  -0.413  0.4558 -0.1911  1.9393
  392MOL0     H51718   4.346   5.135  -0.566  0.6857  0.6295  1.1043
  392MOL0     H51719   4.259   5.255  -0.658 -2.0530  2.8335  0.3719
  392MOL0     H51720   4.120   5.092  -0.547  1.8190 -1.4170 -0.3969
  392MOL0     H51721   4.080   5.258  -0.499  0.4087  0.6260  1.7587
  392MOL0     H51722   4.254   5.078  -0.302  0.0159 -0.0356  0.8921
  392MOL0     H51723   4.185   5.237  -0.282 -1.7888 -1.0025  1.3099
  392MOL0     H51724   4.064   5.058  -0.168  2.0072  0.7079 -0.2677
  392MOL0     H51725   4.008   4.994  -0.322 -1.6188 -0.0673  1.3111
  392MOL0     H51726   4.843   5.189  -0.506  1.3905 -2.6060  1.1201
  392MOL0     H51727   5.062   5.101  -0.483 -1.2825  0.1110 -0.4516
  392MOL0     H51728   5.411   5.145  -0.211  1.8972 -0.6642  2.2603
  392MOL0     H51729   5.567   4.992  -0.097 -0.2542 -2.2756  0.4549
  392MOL0     H51730   7.138   4.734   0.886 -0.5098  4.8008 -0.6618
  392MOL0     H51731   7.380   4.644   0.933  0.4872  0.1798 -0.6355
  392MOL0     H51732   7.604   4.286   1.155 -1.3882 -0.2857 -1.6541
  392MOL0     H51733   7.829   4.200   1.166  0.8886  0.6158  1.2944
  392MOL0     H51734   8.194   4.471   1.155  2.0164 -1.6291  0.5193
  392MOL0     H51735   8.121   4.441   0.984 -2.3873 -1.8458  0.4245
  392MOL0     H51736   8.242   4.241   0.982 -1.3743  2.6048 -2.9271
  392MOL0     H51737   8.359   4.380   0.998  1.5768 -0.9489  2.3932
  392MOL0     H51738   8.274   4.213   1.232 -1.6322  0.9811 -0.0532
  392MOL0     H51739   8.382   4.342   1.233  0.9873 -0.9152  1.2420
  392MOL0     H51740   8.431   4.134   1.025 -0.6062  1.6688 -0.8237
  392MOL0     H51741   8.564   4.226   1.114  0.7981 -0.4772  0.5975
  392MOL0     H51742   8.517   3.898   1.360  0.5407  0.8737  1.5863
  392MOL0     H51743   7.982   4.601   1.135  0.8697 -1.0659  1.0747
  392MOL0     H51744   7.747   4.690   1.112  2.3587  0.9940  0.3187
  393MOL0     O51745   6.164  10.378   6.762 -0.1408 -0.5301 -0.5142
  393MOL0     C51746   6.119  10.327   6.660  0.0608 -1.2539 -0.4897
  393MOL0     O51747   5.987  10.322   6.631  0.0843 -0.2979  0.2066
  393MOL0     C51748   5.888  10.380   6.711 -0.0346  1.2726  0.0926
  393MOL0     C51749   5.779  10.309   6.764  0.7555 -0.2594 -0.5669
  393MOL0     C51750   5.697  10.371   6.856  0.0821  0.9853  0.3043
  393MOL0     C51751   5.710  10.508   6.894 -0.0525  0.3841 -0.6661
  393MOL0     O51752   5.630  10.567   6.989  0.8247 -0.0920 -0.1284
  393MOL0     C51753   5.517  10.624   6.936 -0.0329 -0.1529  0.3796
  393MOL0     C51754   5.381  10.565   6.961  0.8267  0.0034 -0.4651
  393MOL0     C51755   5.338  10.576   7.115  0.0635  0.2410 -0.2757
  393MOL0     C51756   5.189  10.542   7.149 -0.0131  0.4461 -1.0015
  393MOL0     C51757   5.097  10.657   7.090  0.5521 -0.8217 -0.5743
  393MOL0     C51758   4.959  10.621   7.123 -0.2324 -0.2447 -0.4071
  393MOL0     C51759   4.857  10.721   7.064  0.0633 -0.5720  0.5281
  393MOL0     C51760   4.724  10.670   7.019  0.0356  0.0578  1.2242
  393MOL0     N51761   4.652  10.590   7.114 -0.0489  0.0351 -0.0431
  393MOL0     C51762   4.618  10.633   7.240  0.0666  0.4657  0.2783
  393MOL0     C51763   4.590  10.513   7.307  0.4085 -0.4360  1.0954
  393MOL0     C51764   4.557  10.494   7.456  0.3660  0.1897  0.2336
  393MOL0     C51765   4.416  10.511   7.492  0.0506 -0.4479  0.0764
  393MOL0     C51766   4.336  10.411   7.418 -0.6615  0.4773  0.3634
  393MOL0     C51767   4.198  10.434   7.437  0.0651  0.0043  0.3798
  393MOL0     O51768   4.175  10.563   7.365 -0.6057  0.5336  0.0958
  393MOL0     C51769   4.046  10.608   7.379  0.3815 -0.2407  0.1695
  393MOL0     C51770   3.934  10.529   7.334  0.0545  0.1407 -0.7295
  393MOL0     C51771   3.802  10.580   7.345  1.2691 -0.6622 -0.5525
  393MOL0     C51772   3.776  10.708   7.387  0.4129 -0.0463  0.2668
  393MOL0     C51773   3.635  10.763   7.391  0.1241  0.1777  0.9595
  393MOL0     O51774   3.528  10.690   7.364  0.8531  0.8935 -0.5731
  393MOL0     C51775   3.396  10.732   7.369  1.2911  0.2347 -0.3405
  393MOL0     C51776   3.306  10.705   7.258 -0.2931 -0.4382 -0.1878
  393MOL0     C51777   3.177  10.737   7.257  1.7636 -0.5524 -0.6766
  393MOL0     C51778   3.116  10.801   7.372 -0.4534  0.4906  0.8981
  393MOL0     O51779   2.977  10.826   7.369 -0.2295  0.3415 -0.3873
  393MOL0     C51780   2.905  10.828   7.491 -0.4465  0.7144 -0.1079
  393MOL0     C51781   2.763  10.793   7.448 -0.2856 -0.2655  0.2910
  393MOL0     C51782   2.666  10.781   7.564  1.2293  0.1073  0.2247
  393MOL0     C51783   2.528  10.807   7.502 -0.3536 -0.5608 -0.1430
  393MOL0     C51784   2.438  10.831   7.625  0.6647 -0.0494 -0.6661
  393MOL0     C51785   2.293  10.846   7.588 -0.4767  0.6354  0.0498
  393MOL0     C51786   2.210  10.904   7.701  0.5877 -0.3421 -0.0833
  393MOL0     C51787   2.061  10.881   7.676  0.1013 -1.0699  0.2191
  393MOL0    Cl51788   2.032  10.721   7.747 -0.0353 -0.2916  0.1306
  393MOL0     C51789   3.202  10.836   7.470 -0.7724 -0.1403  0.0619
  393MOL0     C51790   3.339  10.802   7.472  0.1088  0.4433  0.1043
  393MOL0     O51791   3.631  10.882   7.418 -0.1430  0.6361 -0.2595
  393MOL0     C51792   3.886  10.793   7.422  0.4020 -0.0165  0.1025
  393MOL0     C51793   4.015  10.744   7.409 -0.8406 -0.4720 -0.2598
  393MOL0     N51794   4.602  10.404   7.224 -1.1177 -0.0474 -0.2331
  393MOL0     N51795   4.646  10.451   7.115  0.5043 -0.3935  0.3322
  393MOL0     C51796   5.806  10.580   6.825  0.1994 -0.5154 -0.6940
  393MOL0     C51797   5.898  10.516   6.739 -0.1543 -0.1226  0.0648
  393MOL0     C51798   6.215  10.290   6.557  0.5470  0.6995  0.6227
  393MOL0     C51799   6.177  10.271   6.419  0.0549 -0.2268  0.6874
  393MOL0     C51800   6.267  10.248   6.312  0.4383  0.1395 -0.2395
  393MOL0     C51801   6.407  10.244   6.338 -0.5335 -0.5897 -1.3448
  393MOL0     O51802   6.509  10.224   6.247  0.7851 -0.3440 -0.1740
  393MOL0     C51803   6.469  10.177   6.117  0.0777 -0.0993  0.0813
  393MOL0     C51804   6.593  10.186   6.023 -0.1952  0.0414 -0.3033
  393MOL0     C51805   6.690  10.301   6.053 -0.0140 -0.5176  0.2153
  393MOL0     C51806   6.815  10.288   5.954  0.1707 -0.2430  1.0777
  393MOL0     C51807   6.916  10.389   5.993  0.4050 -0.1499  1.0280
  393MOL0     C51808   7.001  10.472   6.015  0.7540 -0.2797  0.6549
  393MOL0     C51809   6.445  10.264   6.469 -0.0229 -0.2365 -0.7189
  393MOL0     C51810   6.351  10.290   6.574 -0.5378  0.4571  0.4319
  393MOL0     H51811   5.769  10.209   6.722 -0.0193 -0.3738 -0.1250
  393MOL0     H51812   5.637  10.304   6.915 -0.1575  1.6387  0.8194
  393MOL0     H51813   5.525  10.616   6.827  2.1404 -0.8778  0.5425
  393MOL0     H51814   5.497  10.726   6.968 -1.8566  0.2836 -1.8165
  393MOL0     H51815   5.393  10.457   6.943  1.2193  0.1431 -1.0859
  393MOL0     H51816   5.302  10.607   6.899 -0.3312  1.1666  1.6824
  393MOL0     H51817   5.355  10.679   7.148 -0.7194  0.4801 -0.6067
  393MOL0     H51818   5.391  10.508   7.182 -1.7919  1.3096  2.4387
  393MOL0     H51819   5.164  10.444   7.109  1.3011 -0.9105  1.3196
  393MOL0     H51820   5.182  10.541   7.258 -2.4613 -0.9808 -1.0941
  393MOL0     H51821   5.110  10.673   6.983 -0.1776 -1.6134 -0.7937
  393MOL0     H51822   5.131  10.749   7.137  0.9709 -0.5162 -1.4633
  393MOL0     H51823   4.936  10.610   7.229 -2.0949 -0.0895 -0.7475
  393MOL0     H51824   4.937  10.527   7.071  0.4549  1.8547 -4.9921
  393MOL0     H51825   4.845  10.801   7.138  1.0949  0.7665 -0.7015
  393MOL0     H51826   4.904  10.771   6.979 -1.6293  3.4219  1.6627
  393MOL0     H51827   4.747  10.606   6.933 -0.1040  0.4921  0.8598
  393MOL0     H51828   4.665  10.756   6.987  0.1822 -0.0227  0.7215
  393MOL0     H51829   4.622  10.735   7.277 -2.8304 -0.8027  4.9552
  393MOL0     H51830   4.614  10.560   7.522 -1.7088  0.9722  1.3597
  393MOL0     H51831   4.590  10.396   7.491 -4.1750 -0.9702  2.0669
  393MOL0     H51832   4.391  10.616   7.472  0.6576 -0.0710  1.2135
  393MOL0     H51833   4.402  10.499   7.600 -1.3907  2.3609  0.3069
  393MOL0     H51834   4.348  10.408   7.310  1.8993  0.8619  0.5673
  393MOL0     H51835   4.361  10.310   7.454  1.2195  0.7439 -0.1018
  393MOL0     H51836   4.164  10.440   7.541  0.8548 -1.0312  0.7025
  393MOL0     H51837   4.145  10.351   7.389 -2.3278  1.1923  0.7815
  393MOL0     H51838   3.964  10.429   7.307  1.0850 -0.4515  2.2430
  393MOL0     H51839   3.717  10.522   7.309  1.8888 -1.4962 -0.7190
  393MOL0     H51840   3.337  10.656   7.166 -2.9123  1.7435 -2.4134
  393MOL0     H51841   3.107  10.724   7.176  2.3949 -3.1591 -0.8913
  393MOL0     H51842   2.915  10.920   7.549  1.3202  0.6205 -0.1894
  393MOL0     H51843   2.943  10.751   7.559 -0.3270 -0.7867 -1.7871
  393MOL0     H51844   2.760  10.704   7.385 -1.0316  0.1501 -0.2858
  393MOL0     H51845   2.727  10.877   7.387 -1.4356 -1.1837 -0.3357
  393MOL0     H51846   2.687  10.857   7.640 -0.6894 -0.2481  1.1666
  393MOL0     H51847   2.685  10.687   7.616  0.7453  0.0511  0.3058
  393MOL0     H51848   2.531  10.897   7.440  2.4831 -0.6212 -0.2371
  393MOL0     H51849   2.502  10.723   7.437  1.6225  0.6110 -2.6241
  393MOL0     H51850   2.467  10.920   7.682 -1.4661 -0.5136  1.2976
  393MOL0     H51851   2.449  10.744   7.691 -2.5617  0.3427  0.5599
  393MOL0     H51852   2.258  10.744   7.571 -0.8344  0.5814  1.0411
  393MOL0     H51853   2.287  10.918   7.506 -1.7012 -0.1939 -0.6193
  393MOL0     H51854   2.231  10.856   7.797 -4.4398 -1.3841  0.7888
  393MOL0     H51855   2.235  11.010   7.713 -1.5187  0.1079  0.7674
  393MOL0     H51856   2.034  10.880   7.570  3.0474 -1.0534 -0.6194
  393MOL0     H51857   1.993  10.956   7.717 -1.4554 -0.3647 -3.1996
  393MOL0     H51858   3.158  10.899   7.548  2.4346  2.1107  0.2555
  393MOL0     H51859   3.414  10.832   7.545  1.2263 -0.3852 -0.6775
  393MOL0     H51860   3.858  10.880   7.480  0.0552 -0.6992  0.9823
  393MOL0     H51861   4.103  10.794   7.448 -0.0884 -1.9679  0.0440
  393MOL0     H51862   5.822  10.684   6.851 -1.2872 -0.6592  1.1163
  393MOL0     H51863   5.986  10.565   6.699  0.6953 -1.1710  0.6343
  393MOL0     H51864   6.070  10.269   6.400  0.0756 -2.0414  0.6376
  393MOL0     H51865   6.227  10.234   6.213 -2.6122 -0.3196  0.9336
  393MOL0     H51866   6.383  10.233   6.079 -1.7990 -1.3732  2.1821
  393MOL0     H51867   6.433  10.074   6.127  1.0921 -0.5528 -0.7217
  393MOL0     H51868   6.642  10.089   6.014  0.7128  0.5904 -1.4266
  393MOL0     H51869   6.547  10.200   5.924  0.3326 -0.8980 -0.6841
  393MOL0     H51870   6.714  10.291   6.159 -2.1670  1.1553  0.9578
  393MOL0     H51871   6.641  10.396   6.029 -0.6940 -1.1277 -0.9346
  393MOL0     H51872   6.868  10.192   5.947  2.0789  0.7293  1.4690
  393MOL0     H51873   6.775  10.317   5.856 -0.2680  3.0595  2.1090
  393MOL0     H51874   7.073  10.546   6.043  0.0913  2.0726 -3.1607
  393MOL0     H51875   6.550  10.264   6.498 -0.0031  0.6390 -0.7433
  393MOL0     H51876   6.377  10.314   6.677 -3.2391 -1.0571  1.5820
  394MOL0     O51877   8.287   7.173   0.363 -0.8246 -0.7345  0.4593
  394MOL0     C51878   8.344   7.213   0.269  0.0301  0.7637  0.5986
  394MOL0     O51879   8.287   7.247   0.148 -0.3123  0.6854 -0.3900
  394MOL0     C51880   8.152   7.234   0.119 -0.2433 -0.0377  0.2524
  394MOL0     C51881   8.117   7.276  -0.014  0.1914 -0.3646 -0.1236
  394MOL0     C51882   7.989   7.253  -0.067  0.7721  0.1912 -0.5242
  394MOL0     C51883   7.886   7.195   0.007 -0.5656  0.0594  0.4508
  394MOL0     O51884   7.768   7.174  -0.062 -0.3287  0.0452 -0.3573
  394MOL0     C51885   7.644   7.172   0.009 -0.8615 -0.0690 -0.3576
  394MOL0     C51886   7.553   7.287  -0.040 -0.3093 -0.8280  0.1368
  394MOL0     C51887   7.402   7.271   0.012 -1.0601 -0.4964  0.1849
  394MOL0     C51888   7.313   7.376  -0.052  0.5842 -0.3842  0.9300
  394MOL0     C51889   7.172   7.376   0.015  0.2799 -0.0252  0.1843
  394MOL0     C51890   7.097   7.502  -0.042  0.5419 -0.3305 -0.6442
  394MOL0     C51891   6.947   7.511   0.002 -0.2519  0.5180 -0.2242
  394MOL0     C51892   6.861   7.383  -0.039 -0.3956  0.0465  0.7295
  394MOL0     N51893   6.710   7.402  -0.045  0.4379 -0.3943 -0.7238
  394MOL0     C51894   6.634   7.489   0.033  0.0903 -0.5435 -0.4414
  394MOL0     C51895   6.513   7.468  -0.012 -0.1831  0.3257  0.3273
  394MOL0     C51896   6.390   7.531   0.031 -0.5109  0.0921  0.3628
  394MOL0     C51897   6.322   7.478   0.158 -0.6553  0.5395  0.6430
  394MOL0     C51898   6.406   7.523   0.279 -0.6380 -0.5204 -0.2623
  394MOL0     C51899   6.327   7.492   0.404 -0.7040  0.0772  0.5600
  394MOL0     O51900   6.274   7.358   0.390 -0.9804  0.0408 -0.7624
  394MOL0     C51901   6.151   7.336   0.457  0.5391  1.0229 -0.0452
  394MOL0     C51902   6.103   7.406   0.568  0.3794 -1.2877  0.5882
  394MOL0     C51903   5.968   7.399   0.605 -0.3468 -0.0412 -0.6721
  394MOL0     C51904   5.884   7.301   0.555 -0.6070 -0.1449  1.0211
  394MOL0     C51905   5.739   7.289   0.614 -0.2394 -0.4498 -0.0479
  394MOL0     O51906   5.654   7.209   0.543  0.1594 -0.1283 -0.0222
  394MOL0     C51907   5.531   7.167   0.592  0.2646 -0.7879  0.2030
  394MOL0     C51908   5.500   7.031   0.592 -0.3055 -0.7114  0.3473
  394MOL0     C51909   5.377   6.996   0.634 -0.5626  0.6054 -0.2886
  394MOL0     C51910   5.269   7.087   0.657  0.1186  0.5230 -0.0730
  394MOL0     O51911   5.133   7.059   0.676 -0.2906  0.4001 -1.0472
  394MOL0     C51912   5.086   6.925   0.641 -0.1189  0.2971 -0.2516
  394MOL0     C51913   4.938   6.928   0.601 -0.2408 -0.7619 -0.0090
  394MOL0     C51914   4.885   6.790   0.557 -0.3786 -0.5032 -0.0044
  394MOL0     C51915   4.753   6.813   0.502 -0.2517  0.2482  0.5546
  394MOL0     C51916   4.700   6.688   0.439  0.4273  0.5895  0.1829
  394MOL0     C51917   4.570   6.708   0.363 -0.0068  0.2752  1.0212
  394MOL0     C51918   4.444   6.729   0.449 -1.0888 -0.1230  0.0030
  394MOL0     C51919   4.313   6.722   0.363 -0.7432 -0.1661 -0.0989
  394MOL0    Cl51920   4.192   6.828   0.445 -0.2392  0.0271 -0.0791
  394MOL0     C51921   5.303   7.219   0.662 -0.5824 -0.1692 -0.5898
  394MOL0     C51922   5.430   7.262   0.627 -0.4198  0.1560  0.4849
  394MOL0     O51923   5.722   7.317   0.730 -0.7487  0.1947 -0.7642
  394MOL0     C51924   5.933   7.220   0.448  0.5011  0.2173  0.3271
  394MOL0     C51925   6.063   7.243   0.403 -1.0239  0.1097  0.7544
  394MOL0     N51926   6.514   7.366  -0.110 -0.2645  0.2173  0.5390
  394MOL0     N51927   6.636   7.334  -0.130  0.6280 -0.4470 -0.0582
  394MOL0     C51928   7.923   7.155   0.135  0.3754  0.0859 -0.1985
  394MOL0     C51929   8.048   7.180   0.189  0.2767 -0.0393  0.1930
  394MOL0     C51930   8.490   7.222   0.270 -0.6772  0.2820  0.4699
  394MOL0     C51931   8.542   7.236   0.396 -0.5461 -0.1449 -0.7053
  394MOL0     C51932   8.681   7.247   0.420  0.6707 -0.0678  0.0915
  394MOL0     C51933   8.769   7.262   0.305  0.3157  0.2933 -0.9666
  394MOL0     O51934   8.895   7.270   0.344  0.1159  0.3717 -0.5689
  394MOL0     C51935   8.995   7.267   0.239 -0.4441  0.5272 -0.3697
  394MOL0     C51936   9.136   7.284   0.299 -0.0660 -0.1864 -0.9052
  394MOL0     C51937   9.148   7.414   0.374 -0.2103 -0.6658  0.1140
  394MOL0     C51938   9.290   7.446   0.421 -0.5944  0.5417 -0.4275
  394MOL0     C51939   9.317   7.399   0.557  0.5960  0.8252 -0.5393
  394MOL0     C51940   9.349   7.358   0.665  0.1780  0.1130  0.9279
  394MOL0     C51941   8.711   7.252   0.173  0.6112  0.6903 -0.6061
  394MOL0     C51942   8.575   7.241   0.162  0.0533  0.0556  0.0761
  394MOL0     H51943   8.180   7.346  -0.069 -1.3957  0.6326 -0.7539
  394MOL0     H51944   7.959   7.272  -0.170 -0.7625 -1.3918 -0.4163
  394MOL0     H51945   7.666   7.170   0.116  1.5999  1.3457 -0.7537
  394MOL0     H51946   7.590   7.080  -0.015  0.1933  0.0236 -3.4656
  394MOL0     H51947   7.556   7.298  -0.149 -2.6958 -2.3554 -0.1739
  394MOL0     H51948   7.585   7.386  -0.007 -0.3792 -0.6189 -0.4113
  394MOL0     H51949   7.405   7.272   0.122 -2.3610  0.5563  0.2392
  394MOL0     H51950   7.361   7.175  -0.022  0.0777 -0.6311 -0.8339
  394MOL0     H51951   7.358   7.476  -0.049 -1.1793  0.4944 -0.1343
  394MOL0     H51952   7.300   7.342  -0.155 -1.8433 -1.8417  1.6273
  394MOL0     H51953   7.197   7.370   0.122  2.1163 -0.5022 -0.2455
  394MOL0     H51954   7.123   7.285  -0.020  0.3139 -0.3155  0.8736
  394MOL0     H51955   7.095   7.500  -0.152 -1.4349  0.2661 -0.6662
  394MOL0     H51956   7.154   7.590  -0.013  0.6595 -0.1935 -1.2645
  394MOL0     H51957   6.934   7.529   0.109  0.1569 -1.1059  0.1260
  394MOL0     H51958   6.902   7.594  -0.053 -0.6691  0.8767  0.6385
  394MOL0     H51959   6.883   7.294   0.021 -2.3358 -1.4259 -0.6139
  394MOL0     H51960   6.890   7.359  -0.142  0.0468  3.0216  0.0711
  394MOL0     H51961   6.665   7.548   0.118 -0.3764  1.5215 -1.6334
  394MOL0     H51962   6.331   7.521  -0.061 -0.4262  4.0325 -0.2880
  394MOL0     H51963   6.400   7.640   0.033 -2.3049  0.2893  1.9504
  394MOL0     H51964   6.313   7.369   0.150  1.6635  0.2977  0.7016
  394MOL0     H51965   6.222   7.522   0.164 -0.6029  0.4147  3.9596
  394MOL0     H51966   6.497   7.463   0.285 -1.8111 -2.3615  0.3573
  394MOL0     H51967   6.437   7.627   0.267 -0.4537 -0.6048 -0.5207
  394MOL0     H51968   6.256   7.572   0.426  0.2648  0.5462  2.2136
  394MOL0     H51969   6.403   7.501   0.483  0.1585  1.6086 -0.4027
  394MOL0     H51970   6.167   7.481   0.614  0.7929  0.2130 -2.2594
  394MOL0     H51971   5.944   7.455   0.695  0.5021 -1.2061  0.3306
  394MOL0     H51972   5.564   6.949   0.564 -1.5814 -1.5123 -0.3433
  394MOL0     H51973   5.360   6.890   0.655  1.6088  0.1785 -0.4859
  394MOL0     H51974   5.083   6.869   0.735 -0.6797  1.6252  0.5599
  394MOL0     H51975   5.152   6.880   0.567  2.4590  1.0604  1.4697
  394MOL0     H51976   4.930   7.003   0.522 -3.3518  0.3949  1.2860
  394MOL0     H51977   4.891   6.975   0.687  0.8613  3.4353 -1.4425
  394MOL0     H51978   4.885   6.718   0.639 -1.5060 -1.8427 -1.1309
  394MOL0     H51979   4.956   6.756   0.482 -0.0355 -2.2736  1.0816
  394MOL0     H51980   4.676   6.843   0.574 -1.4755 -2.2108  0.3781
  394MOL0     H51981   4.757   6.877   0.414  0.7014 -0.6619 -0.0793
  394MOL0     H51982   4.689   6.613   0.518  1.0253  1.9421  1.5808
  394MOL0     H51983   4.767   6.647   0.363  1.7288 -1.2776  2.2136
  394MOL0     H51984   4.551   6.629   0.291 -2.6056  1.3491  0.4118
  394MOL0     H51985   4.579   6.798   0.302 -1.1326 -0.6277 -0.5185
  394MOL0     H51986   4.430   6.646   0.518 -3.1279 -1.5948 -2.0341
  394MOL0     H51987   4.454   6.828   0.494  1.5152 -0.3022 -0.0121
  394MOL0     H51988   4.274   6.622   0.342 -1.8536  0.7711 -2.9977
  394MOL0     H51989   4.322   6.761   0.261  0.8996 -0.2378 -0.0113
  394MOL0     H51990   5.223   7.293   0.662  1.0354  1.7275  1.4398
  394MOL0     H51991   5.451   7.368   0.631  0.4048 -0.0217  1.0808
  394MOL0     H51992   5.864   7.146   0.408 -1.7680  2.8119 -0.8741
  394MOL0     H51993   6.099   7.183   0.320  0.1923  0.5781  0.9339
  394MOL0     H51994   7.852   7.091   0.187  1.3928  0.2038  1.4268
  394MOL0     H51995   8.063   7.146   0.291 -0.0262 -1.0759 -0.0935
  394MOL0     H51996   8.482   7.222   0.485  1.4774 -0.8220  0.6256
  394MOL0     H51997   8.721   7.235   0.520 -0.9137  0.4561  0.8152
  394MOL0     H51998   8.998   7.353   0.171  0.6194 -0.2819 -1.3870
  394MOL0     H51999   8.973   7.175   0.184 -1.5106 -0.0638  0.9775
  394MOL0     H52000   9.153   7.199   0.366 -0.9001  0.4941  0.2137
  394MOL0     H52001   9.210   7.279   0.218  0.7796  2.6533 -0.4094
  394MOL0     H52002   9.075   7.412   0.455 -1.2736  1.8827 -0.6822
  394MOL0     H52003   9.118   7.492   0.303  0.0862 -3.4185 -3.3457
  394MOL0     H52004   9.369   7.405   0.357 -0.2939  1.2020 -0.4894
  394MOL0     H52005   9.310   7.554   0.425 -0.3298  0.5127 -0.9876
  394MOL0     H52006   9.393   7.324   0.756 -0.2370  1.9447  1.8712
  394MOL0     H52007   8.775   7.273   0.088  3.2218  1.3147  1.3974
  394MOL0     H52008   8.528   7.240   0.064  0.4971  0.5321 -0.1459
  395MOL0     O52009   2.787   5.900   3.476  0.4451 -0.0750 -0.6792
  395MOL0     C52010   2.806   5.872   3.364 -1.1154  0.4134  0.1985
  395MOL0     O52011   2.722   5.875   3.260 -0.5930 -0.2742 -0.9012
  395MOL0     C52012   2.608   5.942   3.253  1.1825 -0.3248  0.4300
  395MOL0     C52013   2.545   5.924   3.124  0.9397  0.1376 -0.5914
  395MOL0     C52014   2.427   5.992   3.106 -0.1188 -0.0790 -1.0963
  395MOL0     C52015   2.362   6.070   3.202  0.3357 -0.0502  0.0699
  395MOL0     O52016   2.248   6.127   3.160  0.2266 -0.3001  0.5325
  395MOL0     C52017   2.129   6.050   3.166  0.6616 -0.2813 -0.6610
  395MOL0     C52018   2.008   6.124   3.232  0.2959  0.4485 -0.0137
  395MOL0     C52019   2.037   6.154   3.379  0.1826 -0.3398  0.1221
  395MOL0     C52020   2.036   6.028   3.469 -1.0963  1.3604 -0.4614
  395MOL0     C52021   2.032   6.070   3.620 -0.0297 -0.3987 -0.3555
  395MOL0     C52022   2.061   5.949   3.710 -0.7121  0.4519  0.3077
  395MOL0     C52023   1.965   5.826   3.698  0.1741 -0.5039 -0.3888
  395MOL0     C52024   1.862   5.835   3.811 -0.2504 -0.1155  0.2357
  395MOL0     N52025   1.781   5.713   3.816  0.1470 -1.1051  0.1155
  395MOL0     C52026   1.658   5.674   3.757  0.4989 -0.5653 -0.7853
  395MOL0     C52027   1.648   5.542   3.791  0.2575 -0.2175  0.5300
  395MOL0     C52028   1.512   5.473   3.779 -0.1862 -0.7682 -0.6863
  395MOL0     C52029   1.534   5.330   3.808  0.0875  0.3247 -0.1402
  395MOL0     C52030   1.421   5.240   3.757 -0.2123 -0.4526  0.1629
  395MOL0     C52031   1.396   5.237   3.595 -0.7850 -0.0368 -0.7420
  395MOL0     O52032   1.311   5.338   3.543 -0.0799 -0.5065  0.1429
  395MOL0     C52033   1.175   5.352   3.562  0.0259  0.1483  0.0274
  395MOL0     C52034   1.103   5.254   3.626  0.2130 -0.1585 -0.0050
  395MOL0     C52035   0.968   5.266   3.640  0.3783  0.1540  0.6286
  395MOL0     C52036   0.902   5.358   3.571 -0.4214 -0.2852 -0.8653
  395MOL0     C52037   0.748   5.358   3.583  0.8938  0.0727 -0.6142
  395MOL0     O52038   0.677   5.248   3.633  0.5544 -0.3361  0.5058
  395MOL0     C52039   0.542   5.268   3.670 -0.4539 -0.5426 -0.2086
  395MOL0     C52040   0.497   5.217   3.793 -0.1344  0.5166  0.2284
  395MOL0     C52041   0.368   5.233   3.834  0.7368  0.1577 -0.3474
  395MOL0     C52042   0.263   5.273   3.749 -0.2532 -0.2935  0.2114
  395MOL0     O52043   0.135   5.279   3.804 -0.2881  0.9407 -0.4720
  395MOL0     C52044   0.024   5.270   3.712 -0.3817  0.4025  0.4482
  395MOL0     C52045  -0.114   5.268   3.774 -0.4695  0.0687  0.5193
  395MOL0     C52046  -0.218   5.213   3.672  0.0545 -0.3559  0.8288
  395MOL0     C52047  -0.357   5.254   3.687 -0.4464 -0.5844  0.0179
  395MOL0     C52048  -0.443   5.204   3.567  0.8245  0.6689  0.1811
  395MOL0     C52049  -0.589   5.231   3.604 -0.1878 -0.0921  0.1538
  395MOL0     C52050  -0.660   5.106   3.663  0.2383  0.6060  0.7498
  395MOL0     C52051  -0.803   5.134   3.684  0.8506 -0.6360  0.0605
  395MOL0    Cl52052  -0.847   5.202   3.842  0.4837  0.0641  0.2857
  395MOL0     C52053   0.301   5.312   3.620 -0.6104 -0.6194  0.0745
  395MOL0     C52054   0.440   5.308   3.580 -0.3186 -0.2354  0.7033
  395MOL0     O52055   0.695   5.459   3.537  0.8032  0.7936 -0.4366
  395MOL0     C52056   0.966   5.459   3.500 -0.9390 -0.0103 -0.0904
  395MOL0     C52057   1.107   5.462   3.501  0.1694  0.9452 -0.3211
  395MOL0     N52058   1.760   5.508   3.864  0.0364 -0.1029 -0.1145
  395MOL0     N52059   1.834   5.613   3.882  0.0632  0.1294 -0.4784
  395MOL0     C52060   2.409   6.069   3.331 -0.1704 -0.5167  0.1684
  395MOL0     C52061   2.537   6.017   3.357 -0.2349 -0.8917  0.3407
  395MOL0     C52062   2.951   5.825   3.333  1.5765  0.1195 -0.0028
  395MOL0     C52063   2.989   5.798   3.203  0.3961  0.1094  0.2198
  395MOL0     C52064   3.125   5.771   3.168  0.3996 -0.0401  0.8232
  395MOL0     C52065   3.221   5.764   3.269  0.2361  0.5387 -0.0066
  395MOL0     O52066   3.352   5.737   3.236  0.5122 -0.0356  0.9441
  395MOL0     C52067   3.442   5.690   3.329  0.0256 -0.6907  0.2031
  395MOL0     C52068   3.581   5.696   3.275  0.1962 -0.3633  0.4519
  395MOL0     C52069   3.607   5.578   3.177  0.0920 -0.8444 -0.0500
  395MOL0     C52070   3.761   5.548   3.164  0.1101 -0.7358  0.6828
  395MOL0     C52071   3.820   5.662   3.093 -0.2603 -0.3070  0.0845
  395MOL0     C52072   3.877   5.749   3.025 -0.6638  0.0285 -0.2139
  395MOL0     C52073   3.176   5.777   3.402  0.2348  0.5433 -0.4565
  395MOL0     C52074   3.046   5.801   3.442 -0.1539  0.2880  0.0125
  395MOL0     H52075   2.596   5.859   3.055  2.7833  0.1075  0.7020
  395MOL0     H52076   2.367   5.994   3.016 -0.1974  0.3401 -1.0357
  395MOL0     H52077   2.147   5.959   3.224  1.0803  1.2577  1.7579
  395MOL0     H52078   2.093   6.022   3.067  0.4960  0.2135 -0.7399
  395MOL0     H52079   1.912   6.075   3.219  0.6851 -0.4214  0.3596
  395MOL0     H52080   2.005   6.218   3.176  2.1491  0.2200 -0.5772
  395MOL0     H52081   1.966   6.226   3.421  0.5182 -0.2975  0.6357
  395MOL0     H52082   2.136   6.202   3.375 -0.7256  2.7035  5.1623
  395MOL0     H52083   1.950   5.966   3.441  0.2614 -0.6113 -0.5143
  395MOL0     H52084   2.124   5.966   3.448 -1.5100  0.0885  1.3739
  395MOL0     H52085   1.937   6.116   3.650  1.4304  0.3585  3.8225
  395MOL0     H52086   2.115   6.141   3.625  0.0252 -0.4660 -0.3202
  395MOL0     H52087   2.069   5.983   3.813 -0.7744  1.5844 -0.0423
  395MOL0     H52088   2.161   5.917   3.681 -0.4700 -0.3084  1.8787
  395MOL0     H52089   1.913   5.818   3.602 -2.0949  1.2255  0.6232
  395MOL0     H52090   2.027   5.738   3.716  1.4686  0.4168 -0.1506
  395MOL0     H52091   1.796   5.920   3.793 -0.7319 -1.0453 -2.9862
  395MOL0     H52092   1.915   5.850   3.905  3.0789 -1.5300 -1.2685
  395MOL0     H52093   1.580   5.721   3.697  0.3405 -3.0936 -2.7513
  395MOL0     H52094   1.474   5.475   3.677  0.1742 -1.9927 -0.8711
  395MOL0     H52095   1.443   5.517   3.851  1.6700 -0.1913  0.8380
  395MOL0     H52096   1.528   5.316   3.916 -0.6358 -2.6013 -0.4836
  395MOL0     H52097   1.629   5.287   3.774 -0.0015 -1.7287  1.9580
  395MOL0     H52098   1.464   5.142   3.779  1.3904 -0.0264 -0.8917
  395MOL0     H52099   1.324   5.252   3.806 -0.2921  1.7243 -0.4198
  395MOL0     H52100   1.364   5.138   3.563  0.1070 -1.3493  2.1065
  395MOL0     H52101   1.495   5.258   3.553 -0.7179 -0.8052 -0.9869
  395MOL0     H52102   1.152   5.167   3.669 -0.4406 -1.6660 -2.1843
  395MOL0     H52103   0.920   5.193   3.704  0.8009  0.1858  0.9934
  395MOL0     H52104   0.562   5.166   3.864  0.8506  0.8654 -0.4018
  395MOL0     H52105   0.339   5.182   3.926  1.0655 -0.8660 -0.7905
  395MOL0     H52106   0.043   5.189   3.641  0.4862  1.9544 -1.2096
  395MOL0     H52107   0.021   5.365   3.657  1.6231 -0.8900 -2.1102
  395MOL0     H52108  -0.147   5.368   3.806 -1.3709 -0.5280  1.4966
  395MOL0     H52109  -0.103   5.196   3.856  2.9549 -3.1667 -2.4089
  395MOL0     H52110  -0.218   5.104   3.669  1.2016 -0.3759  0.9774
  395MOL0     H52111  -0.197   5.256   3.573 -0.3847 -1.8010  0.0829
  395MOL0     H52112  -0.394   5.219   3.784 -1.6683  0.4637 -0.0501
  395MOL0     H52113  -0.368   5.362   3.689  1.2481 -0.3838 -0.3081
  395MOL0     H52114  -0.421   5.097   3.554 -1.0430  0.2269  0.4150
  395MOL0     H52115  -0.422   5.247   3.469 -0.8277 -2.4842 -1.7267
  395MOL0     H52116  -0.649   5.254   3.515 -0.4927 -1.2014  0.0490
  395MOL0     H52117  -0.595   5.309   3.680  2.6516  0.7696 -0.3985
  395MOL0     H52118  -0.649   5.024   3.592  4.6798  1.1297  0.5846
  395MOL0     H52119  -0.622   5.072   3.760  1.5558 -1.9741 -0.5845
  395MOL0     H52120  -0.857   5.039   3.682 -0.9223  0.2479  1.9202
  395MOL0     H52121  -0.842   5.206   3.612  4.1692  1.2255 -0.0693
  395MOL0     H52122   0.224   5.345   3.552 -3.4173 -1.5262  2.6024
  395MOL0     H52123   0.456   5.340   3.478  0.9583  1.4938  1.3923
  395MOL0     H52124   0.904   5.533   3.452 -0.2144  1.0538  0.5746
  395MOL0     H52125   1.174   5.531   3.449 -1.0064  1.9511 -0.5578
  395MOL0     H52126   2.343   6.113   3.405 -0.7777 -0.2465 -0.5228
  395MOL0     H52127   2.585   6.027   3.454  1.8341  0.4452 -0.7548
  395MOL0     H52128   2.918   5.792   3.121  0.4819  0.8127  0.0942
  395MOL0     H52129   3.145   5.756   3.063  0.7924 -0.1880  0.9158
  395MOL0     H52130   3.411   5.595   3.372  1.0300  0.0731  2.8808
  395MOL0     H52131   3.448   5.760   3.413  0.7150 -0.3805 -0.0922
  395MOL0     H52132   3.606   5.790   3.225 -1.2292 -1.6887 -3.0553
  395MOL0     H52133   3.649   5.691   3.361  1.4570  1.8243 -0.3276
  395MOL0     H52134   3.565   5.595   3.078 -2.7178 -0.3975  1.1139
  395MOL0     H52135   3.558   5.496   3.230  0.1118 -0.8045  0.0309
  395MOL0     H52136   3.799   5.545   3.266 -2.4398  0.8355  1.7757
  395MOL0     H52137   3.784   5.455   3.111 -0.3539  0.3661 -1.5768
  395MOL0     H52138   3.933   5.825   2.975 -0.9753 -0.1719 -0.8810
  395MOL0     H52139   3.247   5.776   3.484  0.8236  1.4335 -0.9266
  395MOL0     H52140   3.022   5.814   3.547  2.1043 -1.3731  0.8148
  396MOL0     O52141   1.780   3.048   9.478 -0.2017  0.3792 -0.0508
  396MOL0     C52142   1.780   3.071   9.604 -0.5984 -0.2068 -0.2998
  396MOL0     O52143   1.897   3.093   9.675  0.0522 -0.4670 -0.3483
  396MOL0     C52144   2.028   3.083   9.630 -1.5757 -1.5804 -0.6565
  396MOL0     C52145   2.085   3.053   9.501  0.5800 -0.6167 -0.0633
  396MOL0     C52146   2.223   3.056   9.480 -0.5651 -0.7308 -0.4829
  396MOL0     C52147   2.310   3.093   9.581 -0.6062 -0.4744  0.0273
  396MOL0     O52148   2.446   3.094   9.552  0.2452  0.2682 -0.3094
  396MOL0     C52149   2.547   3.130   9.647  0.6848  0.3135 -0.6740
  396MOL0     C52150   2.685   3.139   9.582  0.0599  0.5923 -1.1535
  396MOL0     C52151   2.788   3.206   9.673 -0.3532 -0.8263  0.0120
  396MOL0     C52152   2.927   3.217   9.607 -0.9390  0.1512  0.0927
  396MOL0     C52153   3.016   3.286   9.709  0.3102  0.7377  0.3414
  396MOL0     C52154   3.153   3.308   9.644  0.3214 -0.4006 -0.3685
  396MOL0     C52155   3.251   3.372   9.749 -0.0898 -0.2517  0.1299
  396MOL0     C52156   3.340   3.270   9.816 -0.3231  0.3868  0.0726
  396MOL0     N52157   3.282   3.237   9.955  0.2410 -0.4459 -0.6306
  396MOL0     C52158   3.201   3.130   9.987 -0.5357 -0.2782 -0.2833
  396MOL0     C52159   3.173   3.155  10.122  0.0744  0.4032  0.5646
  396MOL0     C52160   3.083   3.060  10.211  0.2210 -1.1824  0.2435
  396MOL0     C52161   3.081   3.128  10.351  0.7099  1.0595 -0.2036
  396MOL0     C52162   2.997   3.044  10.453  0.0681 -0.5787 -0.1064
  396MOL0     C52163   2.849   3.050  10.428 -1.0620 -0.2773  0.6774
  396MOL0     O52164   2.775   3.038  10.551  0.8668 -0.5559  0.1682
  396MOL0     C52165   2.639   3.051  10.561 -0.0229 -0.3574  0.1063
  396MOL0     C52166   2.548   3.075  10.457  0.3715  0.3353 -0.8081
  396MOL0     C52167   2.411   3.086  10.482 -0.4376  0.1347  0.1654
  396MOL0     C52168   2.356   3.060  10.614  0.4215  0.2563  0.3661
  396MOL0     C52169   2.210   3.072  10.658 -0.7223  0.4907 -0.5652
  396MOL0     O52170   2.180   3.034  10.795 -0.5956  0.2365 -0.2699
  396MOL0     C52171   2.051   3.049  10.835  0.3520  0.0758 -0.8032
  396MOL0     C52172   1.961   2.940  10.838 -0.4011 -0.0155  0.8536
  396MOL0     C52173   1.831   2.962  10.891  0.9394 -0.1069 -0.5068
  396MOL0     C52174   1.790   3.076  10.951  0.5244  0.9288  0.3352
  396MOL0     O52175   1.657   3.080  10.991 -0.6417 -0.3573  0.1063
  396MOL0     C52176   1.614   3.197  11.059  0.4480  0.0460  1.2082
  396MOL0     C52177   1.474   3.169  11.105 -0.3701 -0.6068  0.0426
  396MOL0     C52178   1.478   3.095  11.238 -0.0535 -0.2273 -0.1629
  396MOL0     C52179   1.344   3.090  11.307  0.8296 -0.3669 -0.5062
  396MOL0     C52180   1.328   2.971  11.407 -0.9958 -0.6929 -0.1199
  396MOL0     C52181   1.194   2.978  11.481  0.1946  0.4493  0.4710
  396MOL0     C52182   1.169   2.854  11.564  0.6727 -0.0949 -0.5977
  396MOL0     C52183   1.026   2.857  11.632 -0.7315  0.0677 -0.3593
  396MOL0    Cl52184   0.901   2.835  11.506  1.0253 -0.0334  0.2241
  396MOL0     C52185   1.878   3.185  10.951 -0.4892 -0.2421 -0.9695
  396MOL0     C52186   2.012   3.170  10.903  0.0215 -0.8409 -0.4847
  396MOL0     O52187   2.127   3.105  10.582  0.2489  0.7773  0.4205
  396MOL0     C52188   2.449   3.031  10.715  0.3263  0.5684 -0.2233
  396MOL0     C52189   2.589   3.018  10.687  0.3480 -0.7214 -0.2503
  396MOL0     N52190   3.232   3.276  10.158 -0.6463  0.3634 -0.9981
  396MOL0     N52191   3.296   3.323  10.057  0.1132  0.2250 -0.5678
  396MOL0     C52192   2.258   3.125   9.709  0.0562 -0.5080  0.8660
  396MOL0     C52193   2.121   3.119   9.738 -0.3321  0.3487  0.8699
  396MOL0     C52194   1.656   3.112   9.679 -0.8378 -0.5812 -0.2482
  396MOL0     C52195   1.664   3.154   9.812 -1.0901  0.6096  0.7217
  396MOL0     C52196   1.544   3.165   9.881 -0.5495 -1.1654 -0.0554
  396MOL0     C52197   1.420   3.146   9.822 -0.8196  0.4057  0.2177
  396MOL0     O52198   1.299   3.153   9.890 -1.1109  0.2578 -0.4805
  396MOL0     C52199   1.291   3.201  10.029  0.4734  0.2262 -0.2621
  396MOL0     C52200   1.145   3.196  10.079 -0.4633 -0.0074  1.2178
  396MOL0     C52201   1.082   3.054  10.063 -1.0825 -0.9076  0.0359
  396MOL0     C52202   0.951   3.049  10.128 -0.7090  1.0964 -0.3605
  396MOL0     C52203   0.969   3.065  10.273  0.5875 -0.6217  0.0320
  396MOL0     C52204   1.006   3.079  10.390 -0.6734  0.0969  0.2867
  396MOL0     C52205   1.415   3.123   9.685  0.0153  0.3018 -0.1054
  396MOL0     C52206   1.525   3.091   9.617 -0.0416  0.0438 -0.6606
  396MOL0     H52207   2.012   3.063   9.422 -2.4114  1.2070  2.7101
  396MOL0     H52208   2.265   3.022   9.386 -0.9479  1.6521 -1.6016
  396MOL0     H52209   2.555   3.055   9.726 -0.3577  0.4830 -0.3940
  396MOL0     H52210   2.528   3.228   9.691 -1.3637  0.6471 -2.1912
  396MOL0     H52211   2.681   3.205   9.494 -1.2289  0.5220 -1.1676
  396MOL0     H52212   2.716   3.038   9.555 -2.4153 -0.2053 -1.2779
  396MOL0     H52213   2.794   3.156   9.770 -1.9855  0.9589  1.0901
  396MOL0     H52214   2.753   3.307   9.695 -0.3746 -1.1139  1.4215
  396MOL0     H52215   2.977   3.121   9.591 -0.4295  0.3870  0.2348
  396MOL0     H52216   2.924   3.274   9.514 -1.4500 -0.7465 -0.4568
  396MOL0     H52217   3.028   3.227   9.801  1.1805  2.9697  1.7463
  396MOL0     H52218   2.965   3.380   9.730 -2.7383 -0.7949  0.4168
  396MOL0     H52219   3.144   3.385   9.567  2.4045  0.7476  0.4350
  396MOL0     H52220   3.195   3.215   9.605 -1.4696 -0.6350 -1.8486
  396MOL0     H52221   3.309   3.455   9.709 -0.2878  0.1358  0.6318
  396MOL0     H52222   3.192   3.412   9.832  2.9599  3.6424  0.7156
  396MOL0     H52223   3.439   3.315   9.826  0.3468 -0.9190 -0.4254
  396MOL0     H52224   3.364   3.182   9.756  4.7040  3.4685 -3.1472
  396MOL0     H52225   3.159   3.051   9.925 -0.6325 -2.0396  1.8979
  396MOL0     H52226   3.123   2.958  10.205  0.3512 -1.0769 -0.8947
  396MOL0     H52227   2.980   3.041  10.180 -0.3592 -0.0904  1.4568
  396MOL0     H52228   3.039   3.229  10.347  2.7133  1.8982 -1.5729
  396MOL0     H52229   3.187   3.146  10.375  1.0530 -2.0547  1.0872
  396MOL0     H52230   3.038   2.942  10.457  0.8140 -0.3071 -0.4606
  396MOL0     H52231   3.023   3.082  10.552  1.0642  1.1687 -0.9758
  396MOL0     H52232   2.822   2.974  10.355  0.0153  1.4338 -1.6011
  396MOL0     H52233   2.817   3.142  10.378 -2.9801 -1.2845 -0.0437
  396MOL0     H52234   2.586   3.081  10.356 -0.3044 -1.5119 -1.2157
  396MOL0     H52235   2.338   3.105  10.404 -0.9739  2.6891  1.2039
  396MOL0     H52236   2.002   2.840  10.826  0.4628  0.2485  1.5167
  396MOL0     H52237   1.764   2.877  10.881  0.3054  0.4785 -1.4177
  396MOL0     H52238   1.601   3.280  10.990  0.5722 -0.7737  0.1689
  396MOL0     H52239   1.685   3.223  11.139  1.1060 -0.9018  0.9600
  396MOL0     H52240   1.416   3.120  11.026 -1.7902  3.3054 -1.5535
  396MOL0     H52241   1.424   3.264  11.126  1.8984  0.5042  0.7387
  396MOL0     H52242   1.541   3.152  11.307 -3.8141  0.5769  2.9172
  396MOL0     H52243   1.527   2.997  11.237  0.3700 -0.0208 -0.1563
  396MOL0     H52244   1.322   3.184  11.357 -1.9404 -2.8720  3.5961
  396MOL0     H52245   1.274   3.077  11.224 -1.1979  2.5359  0.6094
  396MOL0     H52246   1.411   2.980  11.477 -0.3870 -0.2948 -0.8740
  396MOL0     H52247   1.340   2.877  11.353 -0.9239 -0.3010 -0.8003
  396MOL0     H52248   1.122   2.990  11.399  1.6680  0.6357 -0.8325
  396MOL0     H52249   1.187   3.057  11.556  0.4524  1.1258 -0.2013
  396MOL0     H52250   1.167   2.760  11.508  0.1314 -1.1616  1.1396
  396MOL0     H52251   1.243   2.840  11.643 -0.0374 -3.4844 -0.3627
  396MOL0     H52252   1.007   2.954  11.678 -0.8749 -0.8693  1.6618
  396MOL0     H52253   1.036   2.784  11.713  0.4653  0.8743  0.2503
  396MOL0     H52254   1.854   3.285  10.985  0.8097 -0.4352  0.6620
  396MOL0     H52255   2.080   3.254  10.903  0.7087 -1.3630 -1.6182
  396MOL0     H52256   2.409   3.019  10.815  0.3128 -2.0978 -0.4643
  396MOL0     H52257   2.652   2.988  10.770 -0.2465  0.8433  0.8275
  396MOL0     H52258   2.323   3.163   9.788  1.2616 -2.7615  1.0491
  396MOL0     H52259   2.085   3.153   9.834 -0.2009  1.4850  0.5368
  396MOL0     H52260   1.757   3.161   9.867 -1.3376  0.5008  1.1540
  396MOL0     H52261   1.547   3.175   9.989 -0.1173 -0.4219 -0.1315
  396MOL0     H52262   1.333   3.301  10.037 -0.1748  0.4970 -0.1185
  396MOL0     H52263   1.345   3.144  10.106 -1.3308 -0.6260  0.4479
  396MOL0     H52264   1.142   3.233  10.182  0.2187  1.4909  0.7135
  396MOL0     H52265   1.092   3.263  10.011 -1.7752 -0.5202  1.6839
  396MOL0     H52266   1.154   2.981  10.101 -0.9285  0.3292  2.2769
  396MOL0     H52267   1.075   3.037   9.955 -3.0699  0.9822 -0.2147
  396MOL0     H52268   0.880   3.127  10.098 -0.0347  1.6012 -0.6579
  396MOL0     H52269   0.916   2.947  10.111 -1.4052  1.3915 -0.7624
  396MOL0     H52270   1.042   3.100  10.488  1.2022 -0.5887 -0.2073
  396MOL0     H52271   1.321   3.117   9.631 -0.8516 -0.3862  1.3896
  396MOL0     H52272   1.520   3.055   9.515  2.3710  0.2929 -0.9343
  397MOL0     O52273   9.356   8.277   1.143  0.1224 -0.1368  0.4996
  397MOL0     C52274   9.350   8.394   1.164 -0.1785 -0.5977  0.2774
  397MOL0     O52275   9.241   8.471   1.147 -0.0240 -0.0449  0.5605
  397MOL0     C52276   9.138   8.406   1.080 -0.4964 -0.3858 -0.9999
  397MOL0     C52277   9.019   8.399   1.144  0.6742 -0.3328 -0.8397
  397MOL0     C52278   8.909   8.343   1.079 -1.1211 -1.4315  0.0647
  397MOL0     C52279   8.923   8.286   0.950  0.0412 -1.0303  0.6911
  397MOL0     O52280   8.814   8.243   0.881  1.4971  0.8541 -0.4775
  397MOL0     C52281   8.677   8.236   0.937 -0.3712 -0.1630  0.1892
  397MOL0     C52282   8.576   8.188   0.841 -0.3432  0.2476  0.4978
  397MOL0     C52283   8.447   8.151   0.913 -0.4682 -0.2960  0.2630
  397MOL0     C52284   8.319   8.178   0.834  0.0622 -0.1745  0.4784
  397MOL0     C52285   8.197   8.142   0.918 -0.0664  0.1585 -0.1830
  397MOL0     C52286   8.061   8.180   0.849 -0.1159  0.0327 -0.1716
  397MOL0     C52287   7.952   8.185   0.942 -0.6594 -0.3590  0.7823
  397MOL0     C52288   7.828   8.212   0.866  0.5501 -0.1873  0.0298
  397MOL0     N52289   7.710   8.233   0.947  0.4706  0.3620 -0.1887
  397MOL0     C52290   7.673   8.154   1.055  0.6243 -0.1033  1.0125
  397MOL0     C52291   7.559   8.208   1.094  0.7970  0.2006 -0.0205
  397MOL0     C52292   7.472   8.156   1.207 -0.0511  0.3466 -0.2194
  397MOL0     C52293   7.531   8.193   1.346 -0.1759  0.0329  0.0815
  397MOL0     C52294   7.488   8.096   1.455  0.9711  0.0255  0.3684
  397MOL0     C52295   7.341   8.085   1.468 -0.1756 -0.3841  0.8318
  397MOL0     O52296   7.272   8.214   1.476  0.4438  0.3768 -0.2837
  397MOL0     C52297   7.135   8.217   1.481 -0.5580  0.0863  0.5683
  397MOL0     C52298   7.056   8.102   1.515 -0.0934  0.6591 -0.2655
  397MOL0     C52299   6.917   8.107   1.512 -0.7083  0.5118  0.5521
  397MOL0     C52300   6.856   8.227   1.479 -0.3863 -0.0198  0.2290
  397MOL0     C52301   6.708   8.241   1.480 -0.3084 -0.5578  0.3060
  397MOL0     O52302   6.666   8.350   1.553  0.1377  0.1303  0.1944
  397MOL0     C52303   6.528   8.370   1.567 -0.2102 -0.3399 -0.1112
  397MOL0     C52304   6.434   8.276   1.607 -0.3199 -0.6671  0.6129
  397MOL0     C52305   6.299   8.306   1.607  0.0156  0.3301  0.0390
  397MOL0     C52306   6.252   8.429   1.551 -0.1020 -0.9739  0.3183
  397MOL0     O52307   6.122   8.459   1.536 -0.5515 -0.4498 -0.3652
  397MOL0     C52308   6.021   8.365   1.589 -0.9435  0.0568 -0.4333
  397MOL0     C52309   5.878   8.420   1.581 -0.1849  0.2807 -0.5123
  397MOL0     C52310   5.768   8.331   1.655 -0.3063 -0.4146  0.5937
  397MOL0     C52311   5.627   8.387   1.622  0.0242  0.0728 -0.5414
  397MOL0     C52312   5.522   8.272   1.627 -0.1824 -0.5222  0.6764
  397MOL0     C52313   5.395   8.316   1.556  0.4533 -0.4747  0.4222
  397MOL0     C52314   5.273   8.221   1.580  0.5557  0.5118 -0.0360
  397MOL0     C52315   5.146   8.260   1.509  0.0858 -0.0453 -0.4756
  397MOL0    Cl52316   5.004   8.135   1.516 -0.4250 -0.3650  0.0302
  397MOL0     C52317   6.348   8.527   1.505  0.2036  0.2128 -1.0192
  397MOL0     C52318   6.487   8.490   1.518 -0.4833  0.4137  0.3819
  397MOL0     O52319   6.639   8.156   1.424  0.4873  0.2771 -0.5232
  397MOL0     C52320   6.931   8.345   1.468 -0.0610  0.1258  0.9356
  397MOL0     C52321   7.071   8.340   1.463 -0.1370  0.0941 -0.4999
  397MOL0     N52322   7.537   8.324   1.023  0.2033 -0.1155 -0.6689
  397MOL0     N52323   7.628   8.335   0.930  0.2026  0.2395  1.0943
  397MOL0     C52324   9.047   8.291   0.888 -0.4471 -0.0648  1.5630
  397MOL0     C52325   9.153   8.352   0.950 -0.0637 -0.4281  0.0455
  397MOL0     C52326   9.473   8.465   1.217 -0.1565  0.1767 -0.5192
  397MOL0     C52327   9.488   8.602   1.210 -0.0032 -0.9038 -0.0751
  397MOL0     C52328   9.607   8.664   1.261  0.1180  0.4610 -0.6442
  397MOL0     C52329   9.712   8.589   1.327  0.2585 -1.0076 -0.7198
  397MOL0     O52330   9.809   8.659   1.387 -0.0895  0.2142  0.5720
  397MOL0     C52331   9.927   8.604   1.439 -0.4326  0.4690 -0.7627
  397MOL0     C52332  10.041   8.704   1.439  0.3560 -0.0364  0.2778
  397MOL0     C52333  10.063   8.789   1.307 -0.3780  0.4584 -0.0166
  397MOL0     C52334  10.098   8.938   1.332  0.0481 -0.5173  0.2878
  397MOL0     C52335  10.234   8.942   1.387 -0.1546  0.0996 -0.6566
  397MOL0     C52336  10.338   8.957   1.443 -0.7684 -0.2752  0.0665
  397MOL0     C52337   9.701   8.445   1.326  0.5814 -0.2766 -0.3097
  397MOL0     C52338   9.582   8.392   1.275 -0.0506 -0.6399 -0.5116
  397MOL0     H52339   8.996   8.440   1.242  0.2140  1.1168 -1.5384
  397MOL0     H52340   8.819   8.332   1.139 -0.5595 -1.4291  0.9212
  397MOL0     H52341   8.650   8.334   0.977  5.0187  0.3559  3.5361
  397MOL0     H52342   8.686   8.168   1.022  0.7295  0.6221  0.7185
  397MOL0     H52343   8.624   8.105   0.788 -0.5168  1.0432 -0.9816
  397MOL0     H52344   8.555   8.276   0.779  0.7384  2.3649  2.9571
  397MOL0     H52345   8.425   8.220   0.995  2.4004 -0.5918  1.3911
  397MOL0     H52346   8.461   8.051   0.953 -1.6040 -0.4376  0.3287
  397MOL0     H52347   8.316   8.283   0.804  3.7394  0.3305  1.4153
  397MOL0     H52348   8.322   8.117   0.743 -0.1213 -1.2982  1.2088
  397MOL0     H52349   8.199   8.194   1.014  1.4175 -1.2884  0.6178
  397MOL0     H52350   8.195   8.034   0.939  0.9770 -0.1645 -1.5311
  397MOL0     H52351   8.042   8.097   0.780 -1.6694  0.4900 -0.3306
  397MOL0     H52352   8.067   8.277   0.799  0.5822  0.0540 -0.0534
  397MOL0     H52353   7.953   8.084   0.984 -3.2969 -1.2628 -1.0442
  397MOL0     H52354   7.964   8.265   1.016 -0.1035  0.1909  0.1077
  397MOL0     H52355   7.798   8.127   0.804 -1.4125 -1.2319  2.2718
  397MOL0     H52356   7.838   8.305   0.808  1.6278  0.9855  1.9930
  397MOL0     H52357   7.704   8.054   1.083  0.9736 -0.1786  0.3858
  397MOL0     H52358   7.469   8.048   1.194  1.3372 -0.2746  3.3826
  397MOL0     H52359   7.373   8.201   1.207 -0.5998 -0.7680  1.3247
  397MOL0     H52360   7.495   8.295   1.362  1.2840  0.6059 -0.1710
  397MOL0     H52361   7.639   8.187   1.337 -0.3277 -1.3680 -1.3259
  397MOL0     H52362   7.528   7.998   1.429 -1.5862 -1.0590  0.2581
  397MOL0     H52363   7.534   8.110   1.554 -1.2274 -3.0769  2.0050
  397MOL0     H52364   7.326   8.029   1.561  1.2507 -0.2111  1.1991
  397MOL0     H52365   7.303   8.026   1.385 -1.6884  3.0190 -1.0680
  397MOL0     H52366   7.096   8.003   1.535  0.3461  1.1226  1.2814
  397MOL0     H52367   6.859   8.020   1.542  1.8766 -1.3914  0.3437
  397MOL0     H52368   6.477   8.179   1.631  2.3818 -0.0074 -1.1761
  397MOL0     H52369   6.232   8.228   1.642 -0.2499  1.2140  1.6006
  397MOL0     H52370   6.046   8.351   1.694  3.4981  0.1993 -1.2633
  397MOL0     H52371   6.043   8.269   1.541  1.4454 -0.2861  1.2145
  397MOL0     H52372   5.855   8.419   1.474 -1.1969 -3.0401 -0.3701
  397MOL0     H52373   5.888   8.521   1.621  2.6763 -0.3898  0.7534
  397MOL0     H52374   5.780   8.309   1.761  0.2878  0.7823  0.7905
  397MOL0     H52375   5.767   8.235   1.602  1.0152 -1.2841  2.0701
  397MOL0     H52376   5.599   8.471   1.687  1.6457 -0.0841  0.3976
  397MOL0     H52377   5.633   8.425   1.520 -0.1466 -0.3977 -0.7270
  397MOL0     H52378   5.498   8.238   1.729 -1.0190  0.5462  0.8440
  397MOL0     H52379   5.555   8.188   1.564  1.3856  1.2360 -0.9668
  397MOL0     H52380   5.420   8.324   1.449  1.0963  3.7726  0.6973
  397MOL0     H52381   5.354   8.411   1.591 -0.3302 -0.9416  0.8028
  397MOL0     H52382   5.310   8.128   1.537  0.7653  0.9691 -0.8726
  397MOL0     H52383   5.262   8.224   1.688 -0.9520  3.9900 -0.1334
  397MOL0     H52384   5.187   8.268   1.407 -0.4877 -3.0509 -1.0225
  397MOL0     H52385   5.115   8.360   1.542  0.2230 -0.4195  0.8182
  397MOL0     H52386   6.309   8.624   1.475 -0.0823  1.0084  1.6266
  397MOL0     H52387   6.565   8.559   1.485 -0.1849  0.1036  0.4304
  397MOL0     H52388   6.883   8.440   1.447 -2.5841 -1.2284  0.1817
  397MOL0     H52389   7.121   8.435   1.443  1.6981 -0.4652  1.0740
  397MOL0     H52390   9.063   8.240   0.794 -1.5834 -3.1447  2.9024
  397MOL0     H52391   9.251   8.337   0.905  0.1665 -1.6836  0.9091
  397MOL0     H52392   9.419   8.672   1.163 -0.7077 -0.2503  1.8544
  397MOL0     H52393   9.613   8.771   1.250  0.3349  0.4277 -0.8717
  397MOL0     H52394   9.958   8.522   1.373  0.9722  1.9772 -2.0467
  397MOL0     H52395   9.903   8.574   1.542 -0.0731 -1.7449 -1.2796
  397MOL0     H52396  10.021   8.779   1.515 -2.3526  0.6718 -1.0237
  397MOL0     H52397  10.138   8.663   1.471  0.4556 -0.1619 -0.1759
  397MOL0     H52398   9.968   8.789   1.253  0.0488  0.7289 -0.7813
  397MOL0     H52399  10.147   8.743   1.256  0.3363  1.5400  0.1580
  397MOL0     H52400  10.092   8.993   1.238 -2.8453  0.7540  1.1121
  397MOL0     H52401  10.020   8.981   1.395  0.9942  0.9544  0.4962
  397MOL0     H52402  10.434   8.953   1.491  0.7704 -3.6183 -2.8709
  397MOL0     H52403   9.771   8.378   1.374 -2.4911 -1.5519  2.8310
  397MOL0     H52404   9.568   8.284   1.274  0.3417 -0.7456  1.4138
  398MOL0     O52405   5.437   5.082   4.945  0.3023 -0.0951 -0.1423
  398MOL0     C52406   5.501   5.039   4.849  0.2811 -0.3849 -0.1874
  398MOL0     O52407   5.454   4.990   4.738  0.7011  0.0603 -0.3205
  398MOL0     C52408   5.322   4.978   4.714  0.5229 -0.1297  0.5260
  398MOL0     C52409   5.260   5.015   4.590 -0.5754 -1.1634 -0.4892
  398MOL0     C52410   5.120   4.995   4.572 -0.7451  0.4984 -0.6559
  398MOL0     C52411   5.029   4.942   4.665  0.4938 -0.0694 -0.3674
  398MOL0     O52412   4.899   4.918   4.632  0.6326  0.2627  0.3197
  398MOL0     C52413   4.810   4.928   4.742  0.5258  0.1803  0.4095
  398MOL0     C52414   4.676   4.868   4.705 -0.8514 -0.8607 -0.1615
  398MOL0     C52415   4.602   4.953   4.601  0.1561 -0.1824  0.3326
  398MOL0     C52416   4.459   4.898   4.572  1.4576 -0.8204  0.3250
  398MOL0     C52417   4.376   4.988   4.472  0.3299  0.0432 -0.8370
  398MOL0     C52418   4.224   4.968   4.503 -1.2221  0.6839  0.3035
  398MOL0     C52419   4.169   5.015   4.638 -0.3251 -0.1198 -0.1598
  398MOL0     C52420   4.029   4.963   4.657  0.1447  0.3705 -0.3361
  398MOL0     N52421   3.946   5.018   4.546 -0.6115  0.6372 -0.5919
  398MOL0     C52422   3.898   5.138   4.527  0.7710 -0.5554  0.4258
  398MOL0     C52423   3.851   5.134   4.401  1.1011 -1.4389 -0.2528
  398MOL0     C52424   3.795   5.255   4.328  0.1575  0.9902  0.1584
  398MOL0     C52425   3.650   5.292   4.348 -0.5923  0.6297  0.6105
  398MOL0     C52426   3.600   5.314   4.498 -0.0484  0.3158 -0.1203
  398MOL0     C52427   3.455   5.343   4.501 -0.0288  0.1916 -0.1576
  398MOL0     O52428   3.391   5.218   4.469 -0.3226  0.5771  0.3891
  398MOL0     C52429   3.254   5.210   4.448  0.2516  0.0562 -0.2543
  398MOL0     C52430   3.166   5.314   4.479 -0.8962 -0.2568 -0.5652
  398MOL0     C52431   3.028   5.302   4.468 -0.2164  0.9441  0.3065
  398MOL0     C52432   2.979   5.180   4.413 -0.2470  0.1664 -0.7620
  398MOL0     C52433   2.835   5.161   4.406 -0.0642 -0.2648  0.4934
  398MOL0     O52434   2.758   5.279   4.439  0.2638 -0.6094 -0.0901
  398MOL0     C52435   2.627   5.263   4.478 -0.7040 -0.5295 -0.0351
  398MOL0     C52436   2.575   5.342   4.585  0.2101 -0.6621  0.7796
  398MOL0     C52437   2.437   5.336   4.614  0.3539  0.2895  0.0881
  398MOL0     C52438   2.354   5.248   4.539  0.2816 -0.2521 -0.4389
  398MOL0     O52439   2.220   5.247   4.584  0.0606 -0.1959  0.0306
  398MOL0     C52440   2.136   5.138   4.545 -0.4037  0.0730 -0.2911
  398MOL0     C52441   2.008   5.137   4.631 -0.5044 -0.0415  0.7618
  398MOL0     C52442   1.882   5.113   4.551 -0.5387 -0.1438 -0.0487
  398MOL0     C52443   1.847   5.221   4.454 -0.2537  0.4066  0.0009
  398MOL0     C52444   1.709   5.189   4.388 -0.4084  0.8354 -0.1559
  398MOL0     C52445   1.659   5.296   4.290 -0.0985 -0.3245 -0.0801
  398MOL0     C52446   1.521   5.262   4.229 -0.6400  0.1615  0.7478
  398MOL0     C52447   1.530   5.135   4.144 -0.1579 -0.3987 -0.2793
  398MOL0    Cl52448   1.378   5.139   4.061  0.0019 -0.4933 -0.2389
  398MOL0     C52449   2.410   5.183   4.428  0.6925  1.0106  0.3327
  398MOL0     C52450   2.544   5.190   4.396  0.2069  1.0112 -0.1946
  398MOL0     O52451   2.793   5.048   4.382 -0.4080  0.2456  0.3051
  398MOL0     C52452   3.068   5.070   4.394 -0.1710  0.0018  0.1419
  398MOL0     C52453   3.202   5.081   4.409 -1.0061 -1.5338 -0.0601
  398MOL0     N52454   3.862   5.008   4.350  0.2385 -1.0823 -0.3844
  398MOL0     N52455   3.911   4.943   4.442  0.1931  1.2830 -0.0254
  398MOL0     C52456   5.092   4.901   4.781 -0.2556  0.8198 -0.2436
  398MOL0     C52457   5.228   4.920   4.807  0.3886 -0.3258  0.5800
  398MOL0     C52458   5.648   5.027   4.876 -0.0973  0.0773 -0.7706
  398MOL0     C52459   5.734   4.991   4.773 -0.0898 -0.4998 -0.4151
  398MOL0     C52460   5.873   4.978   4.789 -0.0819  0.8319 -0.4969
  398MOL0     C52461   5.929   4.989   4.912 -1.0728  0.0714 -0.8672
  398MOL0     O52462   6.066   4.961   4.938  0.3386  0.0846 -0.1860
  398MOL0     C52463   6.146   4.908   4.832  0.0588  0.3097  0.2458
  398MOL0     C52464   6.277   4.854   4.888 -0.0773  0.5645 -0.4354
  398MOL0     C52465   6.368   4.957   4.942  0.4828  0.0214 -0.0134
  398MOL0     C52466   6.471   4.897   5.030 -0.7747  0.3584 -0.3784
  398MOL0     C52467   6.572   4.997   5.061 -0.1091  0.0059  0.1179
  398MOL0     C52468   6.652   5.058   5.120  0.5224 -1.0932 -0.1927
  398MOL0     C52469   5.845   5.021   5.019  0.3513 -0.0052  0.4233
  398MOL0     C52470   5.703   5.041   5.006  0.0508  0.1458 -0.7164
  398MOL0     H52471   5.325   5.058   4.515  2.8721  1.1881  3.3681
  398MOL0     H52472   5.108   5.019   4.466  3.3530 -0.1445 -1.4150
  398MOL0     H52473   4.801   5.033   4.771 -1.4775 -0.4422  2.3299
  398MOL0     H52474   4.839   4.877   4.834  0.1321  1.5217  1.3185
  398MOL0     H52475   4.614   4.866   4.794 -1.7782  1.6553 -0.6777
  398MOL0     H52476   4.690   4.769   4.661  0.1452 -0.0394 -1.8252
  398MOL0     H52477   4.666   4.971   4.514  1.9723 -0.0736  1.6537
  398MOL0     H52478   4.591   5.052   4.646  1.8888  1.3563 -2.3414
  398MOL0     H52479   4.463   4.796   4.533 -2.3205 -1.6955  1.8293
  398MOL0     H52480   4.412   4.880   4.669  1.7455 -0.7014  0.4890
  398MOL0     H52481   4.389   4.955   4.369 -1.1861  0.4235 -1.1709
  398MOL0     H52482   4.399   5.094   4.490 -2.6680  0.7288 -0.3742
  398MOL0     H52483   4.190   4.865   4.486 -2.6543  1.1079  0.4057
  398MOL0     H52484   4.171   5.028   4.428  0.0875  0.3339 -0.9344
  398MOL0     H52485   4.237   4.979   4.716  0.1480 -1.8766 -1.3134
  398MOL0     H52486   4.169   5.124   4.647 -2.1494 -0.0521 -0.7042
  398MOL0     H52487   3.994   5.000   4.753 -1.6987 -1.2623 -0.3315
  398MOL0     H52488   4.021   4.854   4.660 -0.0005  0.3434 -1.3128
  398MOL0     H52489   3.900   5.222   4.595  0.2570  0.3844 -0.6905
  398MOL0     H52490   3.803   5.238   4.220 -0.8528 -1.3824  0.3992
  398MOL0     H52491   3.861   5.331   4.370 -0.7627  1.4429  0.8151
  398MOL0     H52492   3.593   5.212   4.300 -1.3905  1.4443  0.1614
  398MOL0     H52493   3.628   5.385   4.294  0.3283  0.5362  0.0591
  398MOL0     H52494   3.619   5.223   4.557 -1.2624 -0.5338 -0.9805
  398MOL0     H52495   3.639   5.400   4.553 -4.2921  1.0813  2.0867
  398MOL0     H52496   3.427   5.421   4.429 -2.5660  1.0569  1.6201
  398MOL0     H52497   3.424   5.377   4.600  2.4790 -1.8467  1.4930
  398MOL0     H52498   3.193   5.407   4.529 -0.8992 -0.7560  0.3843
  398MOL0     H52499   2.968   5.390   4.487 -0.5544  0.4931  1.4082
  398MOL0     H52500   2.642   5.409   4.638 -1.5718  1.0717  0.9676
  398MOL0     H52501   2.392   5.401   4.688 -0.5023 -0.6628  0.4160
  398MOL0     H52502   2.187   5.044   4.569 -4.5265 -1.8553  2.0054
  398MOL0     H52503   2.119   5.136   4.437 -2.9988 -1.9611  0.0496
  398MOL0     H52504   2.007   5.235   4.679 -2.7428  0.5413 -0.3307
  398MOL0     H52505   2.029   5.061   4.708  2.6914 -0.0372  0.0212
  398MOL0     H52506   1.806   5.095   4.628  0.1670 -0.1570  0.6614
  398MOL0     H52507   1.892   5.019   4.496 -0.1489 -0.3300  0.3373
  398MOL0     H52508   1.825   5.304   4.521 -0.6440  0.4107 -0.1326
  398MOL0     H52509   1.930   5.258   4.392  0.6138  1.9895  1.9662
  398MOL0     H52510   1.636   5.160   4.465  0.4370  0.7689  0.6361
  398MOL0     H52511   1.724   5.093   4.336  0.5175 -0.7228  2.7667
  398MOL0     H52512   1.736   5.299   4.213 -0.4190 -0.0835 -0.3927
  398MOL0     H52513   1.670   5.392   4.342  2.1594  0.3656 -1.6891
  398MOL0     H52514   1.442   5.274   4.304 -0.8546  1.1405  0.3776
  398MOL0     H52515   1.487   5.337   4.157 -0.4996  0.5340  1.0647
  398MOL0     H52516   1.519   5.050   4.211 -0.5692 -0.7444 -0.7781
  398MOL0     H52517   1.623   5.133   4.086  1.0056  2.8625  1.2323
  398MOL0     H52518   2.345   5.126   4.362  0.1736  1.1665  0.6988
  398MOL0     H52519   2.566   5.141   4.302 -0.6863 -0.6413  0.4182
  398MOL0     H52520   3.021   4.978   4.361 -1.3054  1.0008 -1.1519
  398MOL0     H52521   3.271   5.002   4.380  0.6396  0.7947 -3.1989
  398MOL0     H52522   5.044   4.852   4.865 -1.0655  0.3822 -0.9470
  398MOL0     H52523   5.278   4.874   4.891  1.2338 -0.4668  0.0117
  398MOL0     H52524   5.698   4.976   4.672 -2.3577 -0.6994  0.3542
  398MOL0     H52525   5.923   4.955   4.696 -1.2680  1.7863 -1.4183
  398MOL0     H52526   6.169   4.976   4.749 -0.6185  1.4049  0.9365
  398MOL0     H52527   6.101   4.815   4.796  1.2843 -0.5534  0.8606
  398MOL0     H52528   6.255   4.778   4.964 -0.5487 -0.0331 -1.1534
  398MOL0     H52529   6.324   4.798   4.807  1.3236 -2.0382  1.9954
  398MOL0     H52530   6.315   5.028   5.006  0.1449  2.8809 -3.1783
  398MOL0     H52531   6.400   5.020   4.858  2.1552 -0.9337 -0.1202
  398MOL0     H52532   6.426   4.866   5.125 -2.7358 -0.5992 -1.5610
  398MOL0     H52533   6.523   4.811   4.986 -1.2517 -0.7674  1.1731
  398MOL0     H52534   6.723   5.107   5.182  0.1638 -0.0414 -0.5920
  398MOL0     H52535   5.892   5.020   5.117  1.2651  2.4076  0.0772
  398MOL0     H52536   5.644   5.069   5.093 -0.7613 -0.8863 -0.9248
  399MOL0     O52537   3.034   3.883   9.099 -0.5158 -0.3095  0.2997
  399MOL0     C52538   2.953   3.816   9.037 -0.4990  0.4130 -0.2225
  399MOL0     O52539   2.985   3.732   8.921  0.0856 -0.0603 -0.0585
  399MOL0     C52540   3.117   3.728   8.881  0.2809  0.2874 -0.5084
  399MOL0     C52541   3.170   3.602   8.837 -0.0521 -0.2503 -0.4558
  399MOL0     C52542   3.301   3.579   8.817 -0.6292  0.1282  0.9889
  399MOL0     C52543   3.395   3.682   8.835 -0.6268 -0.9133  0.5808
  399MOL0     O52544   3.532   3.688   8.810  0.1075 -0.2562 -0.0734
  399MOL0     C52545   3.576   3.576   8.728 -1.4304  0.0921 -0.3511
  399MOL0     C52546   3.715   3.621   8.664 -0.2377 -0.0601  0.7865
  399MOL0     C52547   3.820   3.640   8.771  0.0062  0.5057 -0.5778
  399MOL0     C52548   3.855   3.504   8.829 -0.2141 -0.6344  0.3396
  399MOL0     C52549   3.988   3.509   8.902 -0.0031 -0.2116  0.0119
  399MOL0     C52550   3.973   3.580   9.032 -0.0785 -0.3523 -0.0103
  399MOL0     C52551   4.106   3.620   9.100  0.6268  0.0211 -0.0578
  399MOL0     C52552   4.169   3.504   9.158 -0.6787  0.0896 -0.0227
  399MOL0     N52553   4.093   3.446   9.262  0.4056 -0.0454 -0.6261
  399MOL0     C52554   4.028   3.323   9.269  0.1144 -0.1384 -0.0837
  399MOL0     C52555   3.979   3.315   9.393  0.3179  0.8297 -0.1722
  399MOL0     C52556   3.897   3.196   9.450 -0.6456  0.3653 -0.0421
  399MOL0     C52557   3.749   3.206   9.414  0.4915  1.5273  0.0598
  399MOL0     C52558   3.675   3.068   9.418  0.3813 -0.6277 -0.0707
  399MOL0     C52559   3.529   3.090   9.392 -0.2710 -0.1817 -0.2361
  399MOL0     O52560   3.457   2.966   9.425 -0.7484  0.3914  0.3727
  399MOL0     C52561   3.320   2.965   9.422  0.3286  0.7221  0.1038
  399MOL0     C52562   3.237   3.050   9.352 -0.1525  0.0982 -0.1561
  399MOL0     C52563   3.097   3.031   9.335 -0.8063 -0.8940  0.2470
  399MOL0     C52564   3.033   2.927   9.396 -0.0855  0.0448  0.2794
  399MOL0     C52565   2.886   2.913   9.389 -0.6689 -0.6025  0.0939
  399MOL0     O52566   2.825   2.990   9.301  0.1864 -0.2802 -0.2535
  399MOL0     C52567   2.690   2.966   9.266 -0.8592 -0.1937 -1.1639
  399MOL0     C52568   2.645   2.849   9.228  0.7340 -0.6504 -0.6520
  399MOL0     C52569   2.518   2.825   9.179  0.8428 -0.0351  0.1438
  399MOL0     C52570   2.428   2.941   9.174 -1.0372  0.8485 -0.5609
  399MOL0     O52571   2.302   2.957   9.129 -0.3421 -0.1587  0.2094
  399MOL0     C52572   2.219   2.843   9.106  0.5893  0.0027 -0.3994
  399MOL0     C52573   2.126   2.852   8.987 -0.0470 -0.5964 -0.1112
  399MOL0     C52574   1.989   2.918   9.011  0.0295  0.9185  0.4554
  399MOL0     C52575   1.920   2.944   8.875 -0.8168 -0.2224 -0.1341
  399MOL0     C52576   1.781   3.012   8.896 -0.4119  0.9732 -0.5883
  399MOL0     C52577   1.683   2.948   8.994 -0.1654 -1.2201  0.2662
  399MOL0     C52578   1.552   3.026   8.994  0.1561  0.0372 -0.9050
  399MOL0     C52579   1.486   3.001   9.130  0.0219 -0.0318  0.0415
  399MOL0    Cl52580   1.448   2.834   9.155 -0.3177  0.7989 -0.0821
  399MOL0     C52581   2.483   3.066   9.210 -0.3267  0.3194 -0.0702
  399MOL0     C52582   2.610   3.079   9.252 -0.0294  0.4304 -0.8512
  399MOL0     O52583   2.847   2.807   9.437  0.2277 -0.1757  0.1709
  399MOL0     C52584   3.114   2.840   9.471 -0.6480  1.5030  0.0688
  399MOL0     C52585   3.261   2.856   9.483  0.2087 -0.4501  0.6601
  399MOL0     N52586   4.003   3.438   9.457 -0.4980 -0.1949 -0.9178
  399MOL0     N52587   4.085   3.508   9.384  0.3921  1.1291  0.2715
  399MOL0     C52588   3.347   3.810   8.857  0.5009 -0.7406 -0.6925
  399MOL0     C52589   3.207   3.832   8.876  0.0934  0.0619 -0.3271
  399MOL0     C52590   2.818   3.817   9.101 -0.7260  0.4800  0.0517
  399MOL0     C52591   2.714   3.751   9.034  0.4158 -0.4307 -0.5243
  399MOL0     C52592   2.581   3.767   9.090  0.8679  0.1216 -0.3171
  399MOL0     C52593   2.544   3.840   9.202  0.1641  0.0659  0.4707
  399MOL0     O52594   2.419   3.862   9.259  0.2156 -0.2822 -0.6670
  399MOL0     C52595   2.298   3.804   9.210  0.2227  0.6772  0.6387
  399MOL0     C52596   2.188   3.888   9.276  0.0956 -0.4486 -0.0740
  399MOL0     C52597   2.049   3.827   9.253 -0.3994  0.2820  0.1855
  399MOL0     C52598   1.948   3.918   9.318  0.4111  0.6705 -0.4642
  399MOL0     C52599   1.811   3.875   9.296  0.5633  0.5521 -0.4416
  399MOL0     C52600   1.695   3.846   9.261 -0.1365 -0.5389  0.4655
  399MOL0     C52601   2.651   3.904   9.256 -0.4374  0.5552 -0.1276
  399MOL0     C52602   2.785   3.895   9.211 -0.3724  0.1948  0.4141
  399MOL0     H52603   3.104   3.517   8.827  1.4702 -1.5858  0.2481
  399MOL0     H52604   3.337   3.480   8.791 -0.9025  0.6021 -1.4194
  399MOL0     H52605   3.515   3.548   8.641  3.0320 -2.7339 -2.9735
  399MOL0     H52606   3.582   3.484   8.786  2.1747 -0.0307 -0.6928
  399MOL0     H52607   3.709   3.711   8.603  3.5480 -0.7219 -0.8289
  399MOL0     H52608   3.744   3.546   8.589 -2.0263 -0.7821  0.7463
  399MOL0     H52609   3.785   3.719   8.837 -0.9475 -0.6854  0.3838
  399MOL0     H52610   3.907   3.681   8.718 -0.2388  1.1778 -0.4753
  399MOL0     H52611   3.773   3.464   8.889 -2.0749  2.1192 -0.1963
  399MOL0     H52612   3.869   3.430   8.749 -0.3928 -1.0654  0.7042
  399MOL0     H52613   4.069   3.560   8.847 -1.9979 -0.2230 -3.2027
  399MOL0     H52614   4.017   3.405   8.920  2.9106  0.5658  0.3752
  399MOL0     H52615   3.914   3.527   9.107 -3.0627  0.7208 -1.4175
  399MOL0     H52616   3.919   3.673   9.013 -1.7995 -1.4646 -0.8005
  399MOL0     H52617   4.166   3.662   9.019  1.7314 -0.5616  0.4330
  399MOL0     H52618   4.079   3.696   9.174 -1.4242  1.7898 -2.4684
  399MOL0     H52619   4.253   3.542   9.216  1.2869  0.2386 -2.7702
  399MOL0     H52620   4.201   3.425   9.089  2.1594 -0.1111  1.3686
  399MOL0     H52621   4.013   3.245   9.194  2.2732  1.6107 -2.5324
  399MOL0     H52622   3.911   3.188   9.559  0.5185  2.5131  0.0088
  399MOL0     H52623   3.938   3.103   9.409 -0.8988  0.4951 -0.5917
  399MOL0     H52624   3.737   3.238   9.310  1.4182 -1.5004 -1.1127
  399MOL0     H52625   3.694   3.281   9.471 -0.4059  1.5542 -0.8149
  399MOL0     H52626   3.731   3.001   9.351 -0.6930 -2.0063  0.3517
  399MOL0     H52627   3.693   3.028   9.519 -1.0415 -0.5655  0.2179
  399MOL0     H52628   3.510   3.123   9.289  1.4458 -1.7724 -1.1258
  399MOL0     H52629   3.487   3.163   9.462  0.6262  0.2711 -0.1580
  399MOL0     H52630   3.288   3.133   9.305  1.8130 -1.3283 -0.6931
  399MOL0     H52631   3.047   3.102   9.271 -0.5344  2.4879  3.4198
  399MOL0     H52632   2.711   2.765   9.244 -0.5632 -1.3267  1.5640
  399MOL0     H52633   2.475   2.729   9.156  0.2824 -0.0324  1.1120
  399MOL0     H52634   2.165   2.831   9.201  2.1329 -1.0698  0.3798
  399MOL0     H52635   2.279   2.752   9.095  0.1341 -0.4357  0.6024
  399MOL0     H52636   2.096   2.757   8.942 -0.3171  0.2616 -1.8349
  399MOL0     H52637   2.175   2.905   8.905 -0.3236 -0.5578 -0.2540
  399MOL0     H52638   1.996   3.001   9.082  1.2216  1.8768 -0.7595
  399MOL0     H52639   1.931   2.834   9.053 -0.3998  0.7915 -0.3819
  399MOL0     H52640   1.984   3.013   8.820  1.6627 -3.0652 -1.0695
  399MOL0     H52641   1.908   2.850   8.820  0.8375 -1.3560  1.3258
  399MOL0     H52642   1.720   3.012   8.805  1.0882  3.3740 -1.7131
  399MOL0     H52643   1.808   3.118   8.902 -1.1602  1.2435 -1.6290
  399MOL0     H52644   1.728   2.962   9.093 -2.0795  0.7414  0.9368
  399MOL0     H52645   1.666   2.842   8.974 -2.8250 -0.8375  0.0934
  399MOL0     H52646   1.565   3.132   8.972 -1.1748  0.1235 -1.3514
  399MOL0     H52647   1.485   2.977   8.923  1.5247 -0.3119 -2.0000
  399MOL0     H52648   1.391   3.052   9.150 -0.3784 -0.8175  0.2176
  399MOL0     H52649   1.553   3.047   9.202  0.1301 -0.7207  0.3933
  399MOL0     H52650   2.428   3.155   9.180 -0.9106 -0.1394 -0.4060
  399MOL0     H52651   2.653   3.175   9.278 -0.0342  0.2624 -0.2143
  399MOL0     H52652   3.075   2.760   9.534  1.2277  2.2971  2.4067
  399MOL0     H52653   3.319   2.784   9.541 -1.0873 -1.2534  0.9992
  399MOL0     H52654   3.408   3.900   8.856 -0.4600 -0.0621  0.0142
  399MOL0     H52655   3.176   3.934   8.901  0.4696  0.0008  0.4293
  399MOL0     H52656   2.721   3.679   8.953 -0.2395  0.3670 -1.3078
  399MOL0     H52657   2.500   3.718   9.039 -1.7304  1.1395  2.5395
  399MOL0     H52658   2.295   3.695   9.222  0.0682  0.6608  0.4518
  399MOL0     H52659   2.292   3.825   9.102  1.1362 -1.7722  0.0373
  399MOL0     H52660   2.212   3.903   9.382 -5.0696  0.0267  1.2735
  399MOL0     H52661   2.186   3.985   9.226  2.0987 -1.1261 -1.5981
  399MOL0     H52662   2.049   3.730   9.302 -1.1407  0.2271  0.0827
  399MOL0     H52663   2.032   3.821   9.145  0.7920  0.0921 -0.0018
  399MOL0     H52664   1.963   3.922   9.426  2.2385  1.5878 -0.7116
  399MOL0     H52665   1.953   4.018   9.272 -1.2512  0.7325 -0.5892
  399MOL0     H52666   1.597   3.819   9.229 -0.8716  0.4350  1.7880
  399MOL0     H52667   2.625   3.962   9.344  2.4712  1.7945  0.0336
  399MOL0     H52668   2.870   3.938   9.263  0.5696 -0.8450 -0.2261
  400MOL0     O52669   2.854   8.232   2.936 -0.9281 -0.5687  0.1264
  400MOL0     C52670   2.876   8.136   2.867  0.0727  0.4814 -0.7280
  400MOL0     O52671   2.784   8.048   2.818  0.2528 -0.4028 -0.9562
  400MOL0     C52672   2.654   8.081   2.813 -0.5836  0.0888  0.5305
  400MOL0     C52673   2.608   8.217   2.795 -0.3344  0.0252 -0.2152
  400MOL0     C52674   2.469   8.246   2.809  0.7187  0.2066  0.4952
  400MOL0     C52675   2.373   8.144   2.830 -0.1746  0.2352  0.4114
  400MOL0     O52676   2.244   8.176   2.846 -0.5976 -0.1236 -0.4108
  400MOL0     C52677   2.144   8.085   2.887 -0.4180 -0.2246  0.3280
  400MOL0     C52678   2.093   8.003   2.773 -0.4035 -0.2418  0.1987
  400MOL0     C52679   1.987   7.895   2.802  0.4583 -0.1588 -0.2970
  400MOL0     C52680   1.851   7.965   2.815 -0.2216  0.0195  0.1985
  400MOL0     C52681   1.740   7.899   2.902  0.1974  1.1458  0.0156
  400MOL0     C52682   1.693   7.769   2.837 -0.0314  0.3837 -0.7294
  400MOL0     C52683   1.562   7.710   2.888 -0.2058 -0.2423  0.1913
  400MOL0     C52684   1.449   7.765   2.808 -0.5199  0.3719 -0.7902
  400MOL0     N52685   1.315   7.713   2.852 -0.5001 -0.7465  0.2244
  400MOL0     C52686   1.201   7.784   2.840 -0.1639  0.1511 -0.3027
  400MOL0     C52687   1.099   7.702   2.887 -0.9335  0.4715  0.8311
  400MOL0     C52688   0.963   7.749   2.887  0.2565 -0.2546  1.0537
  400MOL0     C52689   0.871   7.679   2.779  0.5931  0.1570  0.7002
  400MOL0     C52690   0.724   7.706   2.826 -0.7877 -0.3122 -0.0170
  400MOL0     C52691   0.632   7.688   2.712  0.1886  0.8408 -0.5287
  400MOL0     O52692   0.515   7.657   2.773  0.0550 -0.0236 -0.0855
  400MOL0     C52693   0.398   7.631   2.699  0.0282 -0.4171 -0.1887
  400MOL0     C52694   0.393   7.609   2.565 -1.2885 -0.0355 -0.1243
  400MOL0     C52695   0.274   7.596   2.496 -0.5237  0.4539  0.4503
  400MOL0     C52696   0.156   7.586   2.569  0.0086  0.1149  0.0390
  400MOL0     C52697   0.023   7.564   2.512 -0.2539 -0.5404 -0.0633
  400MOL0     O52698  -0.085   7.553   2.598  0.0707  0.5448  0.7085
  400MOL0     C52699  -0.213   7.541   2.546 -0.3525 -0.4271 -0.7321
  400MOL0     C52700  -0.270   7.620   2.442 -0.0721 -0.1193 -0.4805
  400MOL0     C52701  -0.401   7.596   2.406 -0.4724  0.2269  0.6749
  400MOL0     C52702  -0.469   7.494   2.471 -0.6169 -0.7051  0.4394
  400MOL0     O52703  -0.596   7.485   2.425  0.2368  0.1217 -0.2506
  400MOL0     C52704  -0.638   7.348   2.393 -0.2536  0.5821  0.8339
  400MOL0     C52705  -0.754   7.358   2.288  0.1681 -0.9780  0.2281
  400MOL0     C52706  -0.882   7.422   2.346  0.8729  0.3693 -0.6419
  400MOL0     C52707  -0.991   7.418   2.240 -0.1395 -0.2525  0.0844
  400MOL0     C52708  -1.130   7.473   2.270 -0.8996  0.9359  0.3260
  400MOL0     C52709  -1.230   7.413   2.161  0.8101 -0.2330  0.2587
  400MOL0     C52710  -1.368   7.391   2.222 -0.2501  0.5981 -0.2362
  400MOL0     C52711  -1.463   7.317   2.121 -1.3041 -0.2355 -0.7950
  400MOL0    Cl52712  -1.512   7.438   1.995  0.2624  0.5671 -0.0732
  400MOL0     C52713  -0.426   7.421   2.580 -0.2426  0.3725  0.2524
  400MOL0     C52714  -0.292   7.444   2.606  0.0485  0.4330  1.0666
  400MOL0     O52715   0.013   7.570   2.384 -0.5340  0.0178 -0.0752
  400MOL0     C52716   0.156   7.604   2.706 -0.4240  0.7040  0.0120
  400MOL0     C52717   0.281   7.624   2.772 -0.2950  0.3000 -0.5018
  400MOL0     N52718   1.148   7.578   2.916  0.6345 -0.0866  0.0324
  400MOL0     N52719   1.276   7.592   2.899  0.7831 -0.6054 -0.1880
  400MOL0     C52720   2.421   8.013   2.842  0.7060  1.5418 -0.8425
  400MOL0     C52721   2.563   7.979   2.825  0.3880  0.6107 -0.3258
  400MOL0     C52722   3.013   8.117   2.808  0.6029  0.4384  0.1058
  400MOL0     C52723   3.065   7.999   2.757 -0.6665 -0.0810  0.0741
  400MOL0     C52724   3.169   7.993   2.671 -0.6930  0.5799  0.0151
  400MOL0     C52725   3.246   8.104   2.635  0.2670 -0.3439 -0.6756
  400MOL0     O52726   3.353   8.112   2.552 -0.4525  0.4700  0.0125
  400MOL0     C52727   3.430   7.989   2.526  0.5096 -0.0432 -0.2462
  400MOL0     C52728   3.576   8.014   2.508 -0.1728 -0.8117 -0.4984
  400MOL0     C52729   3.644   7.879   2.481 -0.4034  0.6119 -0.0646
  400MOL0     C52730   3.792   7.898   2.444  0.5756 -0.6215  0.1135
  400MOL0     C52731   3.804   7.958   2.304 -0.5774  0.9569 -0.4388
  400MOL0     C52732   3.813   8.024   2.206  0.5060 -0.4232 -0.2928
  400MOL0     C52733   3.202   8.219   2.688  0.3123  0.1931  0.7919
  400MOL0     C52734   3.089   8.230   2.776 -0.0842 -0.1781  0.4343
  400MOL0     H52735   2.682   8.295   2.781  0.1322 -0.5638 -1.0404
  400MOL0     H52736   2.452   8.353   2.804 -0.5275 -0.0260 -1.0120
  400MOL0     H52737   2.060   8.144   2.923 -0.6110 -0.7483  0.7405
  400MOL0     H52738   2.171   8.020   2.971 -1.9324 -0.6547  0.4948
  400MOL0     H52739   2.180   7.948   2.735 -1.7503 -0.9640 -2.0167
  400MOL0     H52740   2.045   8.061   2.694 -4.1641 -2.9111  0.2662
  400MOL0     H52741   2.002   7.854   2.902  0.6673  1.6845  0.4734
  400MOL0     H52742   1.975   7.816   2.728 -1.6785  0.5393 -0.7793
  400MOL0     H52743   1.866   8.061   2.865 -1.0334  1.8940 -2.8898
  400MOL0     H52744   1.808   8.005   2.723  1.3962  3.9398  0.9462
  400MOL0     H52745   1.657   7.970   2.904  0.9771  2.3251 -3.1735
  400MOL0     H52746   1.780   7.883   3.002  0.5710 -4.0131 -0.6690
  400MOL0     H52747   1.765   7.687   2.840 -0.5552 -0.1717 -2.2344
  400MOL0     H52748   1.670   7.778   2.730  0.0478  0.7133 -0.7198
  400MOL0     H52749   1.555   7.601   2.886 -1.2436 -0.3845  3.7209
  400MOL0     H52750   1.548   7.735   2.994 -1.7022  1.1548 -0.2876
  400MOL0     H52751   1.467   7.742   2.703  1.5893  2.2213 -0.8989
  400MOL0     H52752   1.433   7.873   2.819  0.1279  0.4995 -1.0615
  400MOL0     H52753   1.194   7.884   2.800  1.1697 -0.1726 -1.4345
  400MOL0     H52754   0.971   7.857   2.870  0.8300 -0.7771 -2.9597
  400MOL0     H52755   0.921   7.733   2.987  2.1122  2.8697  2.4680
  400MOL0     H52756   0.892   7.575   2.754 -1.3717  0.2220 -1.5543
  400MOL0     H52757   0.872   7.734   2.684 -2.8283  2.4450  1.7924
  400MOL0     H52758   0.703   7.639   2.910 -2.5110  0.5699  0.2989
  400MOL0     H52759   0.705   7.808   2.859 -0.0084  0.0684 -0.6876
  400MOL0     H52760   0.674   7.605   2.653  1.1335  1.2137 -0.3945
  400MOL0     H52761   0.627   7.779   2.652  1.2466  2.3938  1.6135
  400MOL0     H52762   0.480   7.618   2.501 -1.0201  0.5129  0.3116
  400MOL0     H52763   0.269   7.592   2.388 -0.5960  5.1925  0.0438
  400MOL0     H52764  -0.231   7.713   2.401 -1.5830  2.2219  2.9202
  400MOL0     H52765  -0.456   7.652   2.331 -1.8007  0.6120  1.8916
  400MOL0     H52766  -0.666   7.279   2.474  0.0237 -1.3903 -0.6767
  400MOL0     H52767  -0.557   7.296   2.341 -0.8912 -2.3979  2.6141
  400MOL0     H52768  -0.770   7.257   2.252  1.5179 -0.5395 -1.7695
  400MOL0     H52769  -0.712   7.411   2.202  2.5255 -1.7617  0.8061
  400MOL0     H52770  -0.869   7.526   2.378 -2.5096  0.7187 -0.0210
  400MOL0     H52771  -0.923   7.369   2.433 -0.1585  0.0783 -1.2808
  400MOL0     H52772  -0.957   7.473   2.152  0.0096 -0.5269 -0.0327
  400MOL0     H52773  -0.991   7.311   2.215  2.8384 -0.6362  1.2601
  400MOL0     H52774  -1.134   7.581   2.252 -1.6993  0.8127 -0.3039
  400MOL0     H52775  -1.173   7.447   2.367 -2.2662 -1.2710 -0.7727
  400MOL0     H52776  -1.193   7.311   2.146  0.7306 -0.0848 -1.0334
  400MOL0     H52777  -1.231   7.465   2.065 -0.0325  2.4865  1.6550
  400MOL0     H52778  -1.348   7.337   2.315  0.7783  1.5553  0.1248
  400MOL0     H52779  -1.420   7.483   2.247 -0.0999  0.8861 -0.9550
  400MOL0     H52780  -1.551   7.275   2.171  0.8480  0.0116  3.6427
  400MOL0     H52781  -1.407   7.235   2.074 -0.7997 -0.1801 -0.2983
  400MOL0     H52782  -0.482   7.352   2.641  0.1246  1.1259  1.4742
  400MOL0     H52783  -0.245   7.388   2.686  1.2800  2.4772  1.8487
  400MOL0     H52784   0.066   7.605   2.767  1.0910 -0.2335  2.3634
  400MOL0     H52785   0.286   7.651   2.878 -1.5940 -1.7323  0.1260
  400MOL0     H52786   2.362   7.925   2.866  3.1589 -0.0929 -0.3795
  400MOL0     H52787   2.592   7.875   2.831  1.3210  0.8456 -0.6379
  400MOL0     H52788   3.003   7.914   2.783  0.3743 -0.4735  1.3927
  400MOL0     H52789   3.194   7.897   2.628 -1.3696  1.6209 -2.9412
  400MOL0     H52790   3.385   7.942   2.439  0.1726 -1.7549  0.8091
  400MOL0     H52791   3.410   7.915   2.604 -3.6825  0.8983 -0.1926
  400MOL0     H52792   3.588   8.073   2.417 -0.6869  1.1446  0.6457
  400MOL0     H52793   3.618   8.052   2.601 -2.4112  0.8434 -0.0795
  400MOL0     H52794   3.612   7.832   2.388  0.6384 -0.3619  0.0490
  400MOL0     H52795   3.642   7.814   2.569 -1.0260  1.3220  0.4639
  400MOL0     H52796   3.835   7.964   2.520 -1.8765 -0.5901  1.5900
  400MOL0     H52797   3.840   7.800   2.441 -0.8061 -1.3346  0.2461
  400MOL0     H52798   3.838   8.095   2.129 -1.2031  3.0861  2.0844
  400MOL0     H52799   3.259   8.307   2.661  0.8442 -0.1762  0.7014
  400MOL0     H52800   3.055   8.328   2.808  0.7289  0.8978 -1.7401
  401MOL0     O52801   0.069   0.309   7.575  0.6399  0.3092  0.6064
  401MOL0     C52802   0.129   0.211   7.599  0.9816 -1.1984 -0.1754
  401MOL0     O52803   0.079   0.078   7.616 -0.6213 -0.3520 -0.0332
  401MOL0     C52804  -0.042   0.035   7.562  0.0997  0.0171  0.0279
  401MOL0     C52805  -0.076  -0.097   7.595 -0.0727 -0.0189 -0.5624
  401MOL0     C52806  -0.178  -0.173   7.543 -0.1876 -0.8205 -0.1108
  401MOL0     C52807  -0.258  -0.106   7.445 -0.2987  0.2122  0.4025
  401MOL0     O52808  -0.356  -0.160   7.378  0.2187  1.2527 -0.0678
  401MOL0     C52809  -0.386  -0.300   7.397  0.0559  0.3736 -0.5347
  401MOL0     C52810  -0.505  -0.328   7.298 -0.1204 -0.8761 -0.0788
  401MOL0     C52811  -0.538  -0.480   7.286 -0.1797  1.1315  0.2533
  401MOL0     C52812  -0.524  -0.568   7.427  0.5133  1.0848  1.3616
  401MOL0     C52813  -0.609  -0.694   7.411  0.4789 -0.4020  0.5630
  401MOL0     C52814  -0.764  -0.679   7.437 -0.5838  0.2988 -0.0637
  401MOL0     C52815  -0.826  -0.817   7.445  0.1884  0.2765 -0.2546
  401MOL0     C52816  -0.978  -0.797   7.442 -1.1667 -0.4740 -0.7305
  401MOL0     N52817  -1.055  -0.919   7.423 -1.0729  0.3363  0.1845
  401MOL0     C52818  -1.077  -0.996   7.533  0.1694  0.1168 -0.1938
  401MOL0     C52819  -1.164  -1.088   7.487 -1.2021 -0.8473 -0.2707
  401MOL0     C52820  -1.213  -1.209   7.550 -0.4242 -0.1110  0.6836
  401MOL0     C52821  -1.239  -1.186   7.704 -0.0700 -0.1119  0.0380
  401MOL0     C52822  -1.258  -1.319   7.784  0.5588 -0.4539  0.3083
  401MOL0     C52823  -1.364  -1.415   7.722 -0.3484 -0.2608 -0.3685
  401MOL0     O52824  -1.400  -1.524   7.805  0.3239  0.2411  0.2863
  401MOL0     C52825  -1.483  -1.496   7.915 -0.2706  0.2632 -0.3142
  401MOL0     C52826  -1.542  -1.366   7.921 -0.2217  0.4954 -0.0158
  401MOL0     C52827  -1.623  -1.353   8.036  1.2555 -0.1769  0.6545
  401MOL0     C52828  -1.665  -1.453   8.117  0.1579  0.1442 -1.1798
  401MOL0     C52829  -1.766  -1.428   8.225 -0.5439 -0.0596 -1.0482
  401MOL0     O52830  -1.794  -1.297   8.258 -0.4991 -0.2717 -0.3081
  401MOL0     C52831  -1.890  -1.266   8.353 -0.3601 -0.1411 -0.6205
  401MOL0     C52832  -1.882  -1.299   8.491  0.7968 -0.1671  0.2403
  401MOL0     C52833  -1.976  -1.242   8.581 -0.2123  0.3492 -0.2849
  401MOL0     C52834  -2.091  -1.169   8.531  0.0365  0.2416 -0.5839
  401MOL0     O52835  -2.194  -1.122   8.608  0.2879  0.7759  0.5264
  401MOL0     C52836  -2.228  -1.186   8.731  0.4640 -0.0234  0.1908
  401MOL0     C52837  -2.371  -1.145   8.772 -0.5006  0.3645 -0.6999
  401MOL0     C52838  -2.426  -1.227   8.883 -0.0073  0.5297 -0.2655
  401MOL0     C52839  -2.574  -1.205   8.899  0.0992  0.3513  0.5049
  401MOL0     C52840  -2.640  -1.290   9.007  0.2502 -0.4322 -0.1794
  401MOL0     C52841  -2.637  -1.227   9.148 -0.3501  0.0816 -0.3863
  401MOL0     C52842  -2.733  -1.305   9.237  0.4950  0.4395 -0.3850
  401MOL0     C52843  -2.763  -1.225   9.365 -0.0399 -1.0247  0.3153
  401MOL0    Cl52844  -2.643  -1.255   9.499  0.6782 -0.4555  0.1850
  401MOL0     C52845  -2.097  -1.143   8.396  0.1917  0.1453  0.4137
  401MOL0     C52846  -1.990  -1.183   8.314  0.0553  1.1769  0.4300
  401MOL0     O52847  -1.832  -1.526   8.262 -0.1565  0.3443 -0.4775
  401MOL0     C52848  -1.599  -1.579   8.110 -1.5369 -0.3300 -0.3417
  401MOL0     C52849  -1.512  -1.600   8.001 -0.0325 -0.2780  0.7752
  401MOL0     N52850  -1.183  -1.065   7.354  0.8518  0.0574  0.2716
  401MOL0     N52851  -1.118  -0.965   7.316  0.5368  0.6461 -0.0921
  401MOL0     C52852  -0.233   0.033   7.412 -0.6784  0.2464 -0.3323
  401MOL0     C52853  -0.126   0.098   7.469 -0.6722 -0.0894  0.2021
  401MOL0     C52854   0.273   0.222   7.633  0.6817 -0.4481 -0.3740
  401MOL0     C52855   0.341   0.341   7.609  0.0156 -0.8093  0.2267
  401MOL0     C52856   0.476   0.355   7.630 -0.2340 -0.4129  0.1177
  401MOL0     C52857   0.550   0.252   7.687  0.0866 -0.2138  0.2117
  401MOL0     O52858   0.685   0.247   7.718 -0.0021  0.1126 -0.3321
  401MOL0     C52859   0.750   0.373   7.705 -0.4007  0.1840  0.4060
  401MOL0     C52860   0.902   0.334   7.735 -1.3421 -0.6250 -0.0493
  401MOL0     C52861   0.995   0.452   7.752  0.3411 -0.3345 -0.2140
  401MOL0     C52862   0.969   0.521   7.890  0.5316 -0.2655 -0.0056
  401MOL0     C52863   1.096   0.562   7.950  0.6716 -0.3761  0.0157
  401MOL0     C52864   1.206   0.594   7.998 -0.1127  0.2237 -0.0615
  401MOL0     C52865   0.480   0.131   7.706  0.1462 -0.4948 -0.3129
  401MOL0     C52866   0.347   0.116   7.681  0.3835  1.7018 -0.3471
  401MOL0     H52867  -0.023  -0.152   7.672  0.7879  1.7902  0.2143
  401MOL0     H52868  -0.204  -0.276   7.567 -1.6417 -1.1598 -2.7800
  401MOL0     H52869  -0.417  -0.316   7.501 -1.9163  1.2483 -0.9370
  401MOL0     H52870  -0.304  -0.365   7.366 -1.7310 -1.9346 -0.6602
  401MOL0     H52871  -0.466  -0.293   7.202 -0.5993 -0.1423 -0.0109
  401MOL0     H52872  -0.598  -0.276   7.324  0.1032 -0.3767 -0.2583
  401MOL0     H52873  -0.474  -0.524   7.208  0.8515  1.1654  1.0603
  401MOL0     H52874  -0.640  -0.487   7.249  0.0425 -1.3706 -0.1086
  401MOL0     H52875  -0.420  -0.597   7.443  0.3924 -2.2646 -2.3963
  401MOL0     H52876  -0.557  -0.522   7.521  0.6855 -0.3278  2.1552
  401MOL0     H52877  -0.571  -0.769   7.481 -0.4671 -2.5794 -1.1056
  401MOL0     H52878  -0.581  -0.750   7.321  1.2915  1.1584 -0.2047
  401MOL0     H52879  -0.811  -0.626   7.354  1.4258  0.4410 -1.1833
  401MOL0     H52880  -0.785  -0.621   7.527 -0.5222  1.8356 -0.9916
  401MOL0     H52881  -0.809  -0.878   7.357 -1.8042  0.2876 -0.6949
  401MOL0     H52882  -0.795  -0.876   7.532 -0.4926 -1.4831 -1.1678
  401MOL0     H52883  -0.996  -0.734   7.354  2.8661  0.8955 -0.7794
  401MOL0     H52884  -1.014  -0.737   7.526  3.4721  2.6986 -0.6286
  401MOL0     H52885  -1.044  -0.983   7.636 -0.7188  1.2876 -0.0444
  401MOL0     H52886  -1.154  -1.297   7.522 -1.4095 -0.1342 -1.5175
  401MOL0     H52887  -1.302  -1.230   7.490  2.2207 -3.8749 -2.4874
  401MOL0     H52888  -1.323  -1.118   7.718 -2.3506 -3.1524  2.2901
  401MOL0     H52889  -1.153  -1.132   7.746 -1.9622  0.3836  3.6847
  401MOL0     H52890  -1.166  -1.377   7.798 -0.8111 -2.1976  2.7340
  401MOL0     H52891  -1.297  -1.286   7.880 -0.4181 -1.0936  0.1352
  401MOL0     H52892  -1.315  -1.459   7.635  2.1744  0.9075  0.3399
  401MOL0     H52893  -1.448  -1.357   7.682 -0.7998  0.1431  1.0921
  401MOL0     H52894  -1.538  -1.296   7.839  1.7523 -1.3739 -1.6300
  401MOL0     H52895  -1.666  -1.254   8.041  1.0766 -0.1795 -0.5103
  401MOL0     H52896  -1.798  -1.354   8.531  0.4953 -1.8502 -1.3283
  401MOL0     H52897  -1.969  -1.251   8.689 -0.5108  2.8839 -0.0034
  401MOL0     H52898  -2.157  -1.154   8.808  0.3286  2.7071 -0.7264
  401MOL0     H52899  -2.226  -1.296   8.727 -1.0373 -0.1270  1.4424
  401MOL0     H52900  -2.433  -1.149   8.682  0.1450 -0.7250 -1.1242
  401MOL0     H52901  -2.376  -1.039   8.800  4.2460  1.2239 -2.2133
  401MOL0     H52902  -2.381  -1.190   8.975 -0.8754  1.6302 -0.2679
  401MOL0     H52903  -2.403  -1.334   8.875  0.2542  0.3756  1.8768
  401MOL0     H52904  -2.584  -1.097   8.913  0.2901  0.4754 -0.2568
  401MOL0     H52905  -2.620  -1.239   8.805  1.5786  0.6481 -0.3584
  401MOL0     H52906  -2.596  -1.390   9.013 -0.8767 -0.8695  2.0648
  401MOL0     H52907  -2.744  -1.288   8.974 -0.6800  4.9242  2.0396
  401MOL0     H52908  -2.675  -1.125   9.141 -1.0617  0.0884  2.3472
  401MOL0     H52909  -2.537  -1.222   9.193  0.7439  2.5559 -2.8259
  401MOL0     H52910  -2.826  -1.318   9.180 -0.7743 -0.1904  1.7017
  401MOL0     H52911  -2.695  -1.403   9.269 -2.8729 -1.0633 -0.5058
  401MOL0     H52912  -2.862  -1.254   9.399 -0.7030  0.5357 -0.1535
  401MOL0     H52913  -2.767  -1.116   9.356  1.1282 -1.0337 -0.6277
  401MOL0     H52914  -2.181  -1.100   8.343  0.5427 -1.4084 -1.5360
  401MOL0     H52915  -1.998  -1.166   8.207  0.9942 -2.4544 -0.3661
  401MOL0     H52916  -1.629  -1.664   8.169  0.9387 -1.9492 -1.2728
  401MOL0     H52917  -1.474  -1.698   7.975  0.1557  0.1627 -0.6777
  401MOL0     H52918  -0.296   0.083   7.339  2.2249  0.2827 -3.0395
  401MOL0     H52919  -0.104   0.200   7.440 -3.4193  0.5625  0.1650
  401MOL0     H52920   0.288   0.419   7.554 -2.8246 -3.3787 -1.0075
  401MOL0     H52921   0.528   0.443   7.592  0.6444 -1.4495 -1.1365
  401MOL0     H52922   0.713   0.448   7.775  2.2799 -0.1321  2.3231
  401MOL0     H52923   0.739   0.405   7.601  1.6515 -2.5669 -0.7882
  401MOL0     H52924   0.908   0.283   7.832  0.4074  2.2472  1.4888
  401MOL0     H52925   0.937   0.262   7.661  0.2740  0.0413  0.0379
  401MOL0     H52926   0.971   0.519   7.670 -2.9902 -1.3443 -0.2220
  401MOL0     H52927   1.102   0.434   7.745  0.3820  0.4647 -2.5652
  401MOL0     H52928   0.897   0.600   7.867 -1.1578 -0.9787  2.3045
  401MOL0     H52929   0.927   0.448   7.960  0.6766  0.6722  1.0831
  401MOL0     H52930   1.302   0.606   8.045 -0.2810  1.7089 -0.0306
  401MOL0     H52931   0.543   0.051   7.742  1.7041  1.1279  0.7098
  401MOL0     H52932   0.293   0.023   7.698 -0.4387  2.3271  0.6131
  402MOL0     O52933   1.399   9.677   4.213  0.2183  0.3450  0.2970
  402MOL0     C52934   1.445   9.756   4.124  0.7468 -0.6565  0.5266
  402MOL0     O52935   1.362   9.809   4.024 -0.0468 -0.1168  0.3255
  402MOL0     C52936   1.223   9.808   4.004  0.6471  0.1762 -0.3070
  402MOL0     C52937   1.164   9.895   3.911  0.0122  0.7680 -1.1285
  402MOL0     C52938   1.020   9.904   3.888 -0.4507  0.2344  0.0356
  402MOL0     C52939   0.939   9.829   3.984 -0.3925  0.0331 -0.7984
  402MOL0     O52940   0.807   9.846   4.008  0.4904 -0.0025 -0.3920
  402MOL0     C52941   0.722   9.920   3.923 -0.0842 -0.7571  0.5169
  402MOL0     C52942   0.580   9.871   3.933  1.1184  0.1263 -0.8345
  402MOL0     C52943   0.484   9.947   3.846  0.6145 -0.5262 -0.7517
  402MOL0     C52944   0.355   9.881   3.808 -0.7402 -0.4265 -0.3558
  402MOL0     C52945   0.270   9.955   3.707  0.0255 -0.7252 -0.5353
  402MOL0     C52946   0.134   9.878   3.710 -0.6345 -0.3211  0.4433
  402MOL0     C52947   0.041   9.908   3.588  0.2029  0.0446  0.1161
  402MOL0     C52948   0.009  10.055   3.589  0.7713 -0.7617  0.0115
  402MOL0     N52949  -0.065  10.087   3.711  0.5709  0.1434  0.0376
  402MOL0     C52950  -0.022  10.155   3.818  0.6841 -0.8155  0.0185
  402MOL0     C52951  -0.132  10.181   3.890 -0.0861 -1.2572 -0.7136
  402MOL0     C52952  -0.138  10.249   4.024  0.1328  0.0439  0.2308
  402MOL0     C52953  -0.004  10.304   4.064  0.1132  0.4243  0.3264
  402MOL0     C52954   0.005  10.400   4.179  0.3854  0.0996  0.2361
  402MOL0     C52955  -0.000  10.323   4.315  0.2803  0.2959  0.1782
  402MOL0     O52956  -0.128  10.268   4.351  0.0872  0.6935 -0.1528
  402MOL0     C52957  -0.221  10.362   4.391  0.2361 -0.0210  1.0227
  402MOL0     C52958  -0.202  10.416   4.514  0.4182 -0.2918 -0.8860
  402MOL0     C52959  -0.295  10.515   4.557  1.1056  0.4318 -0.7106
  402MOL0     C52960  -0.411  10.551   4.493  0.9998 -0.3299  0.8738
  402MOL0     C52961  -0.510  10.657   4.536  0.7232 -0.5949 -0.0738
  402MOL0     O52962  -0.480  10.759   4.629 -0.4462 -0.7391  0.1332
  402MOL0     C52963  -0.567  10.860   4.668  0.5060 -0.0853  0.2646
  402MOL0     C52964  -0.710  10.843   4.682  0.4772 -0.4642 -0.4727
  402MOL0     C52965  -0.797  10.946   4.724 -1.1435 -0.9753 -0.7795
  402MOL0     C52966  -0.742  11.068   4.757  0.7833 -0.5279  0.8225
  402MOL0     O52967  -0.828  11.163   4.796 -0.2768 -0.3299  0.5425
  402MOL0     C52968  -0.770  11.286   4.841 -0.7859  1.2151 -0.6106
  402MOL0     C52969  -0.871  11.380   4.867  0.0220  0.2099 -0.5206
  402MOL0     C52970  -0.937  11.358   5.005  0.0452  0.6213 -0.5632
  402MOL0     C52971  -1.065  11.428   5.014  0.0802  0.6648 -1.0374
  402MOL0     C52972  -1.048  11.584   5.035  0.3983  1.1855  0.8565
  402MOL0     C52973  -1.180  11.651   5.057 -0.6608 -0.4626  0.2941
  402MOL0     C52974  -1.150  11.800   5.102  0.1680 -0.5069  0.1757
  402MOL0     C52975  -1.266  11.901   5.113  0.5335 -0.2408 -0.4800
  402MOL0    Cl52976  -1.205  12.059   5.190  0.2426 -0.2492  0.0444
  402MOL0     C52977  -0.605  11.086   4.747  0.2795 -0.1403 -0.2769
  402MOL0     C52978  -0.520  10.979   4.712 -0.0590  0.2650 -0.6071
  402MOL0     O52979  -0.616  10.641   4.476 -0.6418  0.2789  0.2333
  402MOL0     C52980  -0.424  10.486   4.369 -0.2905 -0.2137  0.0821
  402MOL0     C52981  -0.334  10.394   4.320  0.3674  0.2867 -0.0554
  402MOL0     N52982  -0.240  10.121   3.825 -0.1284 -0.1473  0.7466
  402MOL0     N52983  -0.199  10.072   3.714 -1.1325 -0.3162  0.2157
  402MOL0     C52984   0.999   9.723   4.049 -0.2938 -0.6482 -0.0246
  402MOL0     C52985   1.139   9.716   4.058 -1.0552  0.8906 -0.3149
  402MOL0     C52986   1.581   9.804   4.151  0.3728  0.2728  0.5030
  402MOL0     C52987   1.655   9.888   4.062  0.0724  0.1741  0.5964
  402MOL0     C52988   1.788   9.918   4.083  0.2644  0.0648 -0.8226
  402MOL0     C52989   1.851   9.865   4.202  0.9513 -0.1010  0.1326
  402MOL0     O52990   1.978   9.900   4.227  0.1849 -0.1521  0.0401
  402MOL0     C52991   2.044   9.849   4.337 -0.3902 -0.2914  1.3169
  402MOL0     C52992   2.185   9.897   4.336  0.2276 -0.2792 -0.4890
  402MOL0     C52993   2.241   9.899   4.479  0.4543  0.2110  0.1777
  402MOL0     C52994   2.385   9.948   4.495  0.3022  0.4424  0.2975
  402MOL0     C52995   2.419   9.929   4.630 -0.1822 -0.0621 -0.5269
  402MOL0     C52996   2.454   9.918   4.745 -0.2126 -0.3040  0.8056
  402MOL0     C52997   1.780   9.777   4.280 -0.0293 -0.2604 -0.6584
  402MOL0     C52998   1.649   9.749   4.256  0.2540  0.0006  0.1615
  402MOL0     H52999   1.228   9.963   3.856  0.5061  0.3298 -1.0968
  402MOL0     H53000   0.975   9.982   3.827 -1.0326  1.2796  1.7124
  402MOL0     H53001   0.755   9.920   3.819  3.0070 -1.0268  1.4027
  402MOL0     H53002   0.724  10.021   3.965 -2.3510 -0.1132 -0.7327
  402MOL0     H53003   0.548   9.883   4.037  1.6659 -1.1584 -0.4897
  402MOL0     H53004   0.587   9.764   3.913  0.9696 -0.3279  1.2544
  402MOL0     H53005   0.532   9.958   3.748  1.7773 -2.9715 -0.5319
  402MOL0     H53006   0.469  10.044   3.894  1.2138 -1.0457  0.5274
  402MOL0     H53007   0.375   9.781   3.768  1.4939 -1.1414  2.2228
  402MOL0     H53008   0.301   9.880   3.903 -2.0263  1.8510 -0.9999
  402MOL0     H53009   0.304   9.952   3.604  0.4502  0.4394 -0.4413
  402MOL0     H53010   0.265  10.057   3.746  1.2130 -0.9797  0.3524
  402MOL0     H53011   0.077   9.904   3.800 -1.2860  2.0367 -0.5858
  402MOL0     H53012   0.147   9.769   3.711 -0.0758 -0.2986 -1.2145
  402MOL0     H53013   0.099   9.880   3.499 -0.5362 -2.8310  0.4707
  402MOL0     H53014  -0.042   9.839   3.580  0.7194 -0.5575 -0.1715
  402MOL0     H53015  -0.056  10.077   3.503 -1.0842 -3.5795  0.5322
  402MOL0     H53016   0.104  10.108   3.593  0.7965 -0.8572  0.8730
  402MOL0     H53017   0.085  10.172   3.830  0.4450  1.6546 -0.8012
  402MOL0     H53018  -0.170  10.181   4.104 -0.1694 -0.5892 -0.4162
  402MOL0     H53019  -0.216  10.320   3.995 -0.5076 -1.8017 -3.0635
  402MOL0     H53020   0.028  10.362   3.977 -3.5776 -0.3712 -1.7721
  402MOL0     H53021   0.070  10.223   4.058 -1.4661 -0.9909 -0.6815
  402MOL0     H53022   0.096  10.458   4.167  1.2709 -1.3865 -0.4244
  402MOL0     H53023  -0.080  10.468   4.167  1.3790  1.3572  0.2509
  402MOL0     H53024   0.038  10.377   4.402  0.4894 -1.6277  1.3338
  402MOL0     H53025   0.066  10.237   4.305  1.0887  0.9625 -0.3128
  402MOL0     H53026  -0.111  10.397   4.570 -0.1439  1.4997  0.7404
  402MOL0     H53027  -0.272  10.578   4.642  0.8241  3.7095 -2.8759
  402MOL0     H53028  -0.754  10.744   4.673  0.6696 -0.6628  0.6573
  402MOL0     H53029  -0.904  10.927   4.733 -1.8668  1.5251 -2.7196
  402MOL0     H53030  -0.713  11.332   4.761 -2.1898  1.8050 -1.2951
  402MOL0     H53031  -0.698  11.272   4.923  0.4632 -1.4296 -2.0347
  402MOL0     H53032  -0.943  11.383   4.786 -1.0411  5.0360  0.2839
  402MOL0     H53033  -0.836  11.484   4.874  1.0723  0.0490 -2.5873
  402MOL0     H53034  -0.869  11.390   5.085  1.2563 -1.1725 -0.8138
  402MOL0     H53035  -0.943  11.249   5.015 -1.1634  0.6953 -0.3124
  402MOL0     H53036  -1.135  11.399   4.936  0.9986 -2.4679 -0.8312
  402MOL0     H53037  -1.119  11.397   5.104  0.9784  0.2132 -0.6421
  402MOL0     H53038  -1.012  11.620   4.938 -1.1945  3.0193  0.8756
  402MOL0     H53039  -0.971  11.599   5.111 -0.1090  0.2396  1.5862
  402MOL0     H53040  -1.242  11.596   5.129  0.4197 -2.1161  0.0342
  402MOL0     H53041  -1.233  11.642   4.962  1.0775 -0.0667 -0.7527
  402MOL0     H53042  -1.103  11.792   5.200  2.4426 -0.8491 -0.8841
  402MOL0     H53043  -1.076  11.848   5.038 -0.9818  1.6713  0.3990
  402MOL0     H53044  -1.344  11.857   5.176  0.2893  2.0916  0.9410
  402MOL0     H53045  -1.303  11.918   5.012 -1.2878 -0.1525  0.1706
  402MOL0     H53046  -0.558  11.177   4.786 -1.2314  0.0762  1.1491
  402MOL0     H53047  -0.413  10.990   4.726 -0.1650  0.1167  0.3557
  402MOL0     H53048  -0.507  10.518   4.307  0.9511  1.1678 -0.9340
  402MOL0     H53049  -0.358  10.342   4.228  0.6439  0.1220 -0.0340
  402MOL0     H53050   0.941   9.660   4.116 -0.1803  0.2850  0.9768
  402MOL0     H53051   1.170   9.643   4.132 -2.6731  0.7617  0.2685
  402MOL0     H53052   1.594   9.934   3.985  0.8623  1.1679  0.5418
  402MOL0     H53053   1.845   9.974   4.009  1.8823 -1.2280 -0.6224
  402MOL0     H53054   2.051   9.740   4.342  3.5352 -0.1755  1.8407
  402MOL0     H53055   1.988   9.888   4.422 -2.4061  0.2509 -0.1766
  402MOL0     H53056   2.247   9.826   4.280  1.3056 -0.3196  0.6895
  402MOL0     H53057   2.188   9.998   4.295  0.9910  0.9601  2.3268
  402MOL0     H53058   2.236   9.796   4.516  0.8001 -0.3369 -1.2346
  402MOL0     H53059   2.185   9.973   4.537  1.4730  0.6629  0.6038
  402MOL0     H53060   2.456   9.898   4.428 -0.9777 -1.5584  0.3407
  402MOL0     H53061   2.388  10.052   4.461 -1.2996 -0.1181 -1.7262
  402MOL0     H53062   2.483   9.900   4.847 -1.9246 -1.9897  1.0488
  402MOL0     H53063   1.818   9.723   4.366 -4.6761 -3.0040  0.0040
  402MOL0     H53064   1.605   9.681   4.328  1.5784 -1.2700 -0.1926
  403MOL0     O53065   1.226   1.221  10.871  0.4315 -0.7264  0.7631
  403MOL0     C53066   1.261   1.113  10.820 -0.0782  0.0735 -0.5486
  403MOL0     O53067   1.180   1.005  10.798  0.3751  0.1141  0.3662
  403MOL0     C53068   1.051   0.997  10.846  0.3551 -0.4760  1.2550
  403MOL0     C53069   0.988   0.884  10.795  0.6611 -0.2424  0.5312
  403MOL0     C53070   0.864   0.842  10.842  0.5252 -0.2867 -0.0753
  403MOL0     C53071   0.790   0.924  10.932  0.8990 -0.0154  0.9243
  403MOL0     O53072   0.660   0.909  10.968 -0.3955  0.4493  0.0329
  403MOL0     C53073   0.581   0.812  10.897 -0.5299 -0.1380 -0.4428
  403MOL0     C53074   0.432   0.830  10.919 -0.4111 -0.6027  0.6305
  403MOL0     C53075   0.351   0.699  10.899 -0.1966 -0.3843  0.9495
  403MOL0     C53076   0.198   0.704  10.923 -0.8911 -0.2832 -0.2096
  403MOL0     C53077   0.124   0.584  10.862 -0.8480 -0.7545  1.2769
  403MOL0     C53078  -0.021   0.561  10.915 -0.9786 -0.4757 -0.4195
  403MOL0     C53079  -0.075   0.429  10.871 -0.1142 -0.4325  0.0523
  403MOL0     C53080  -0.116   0.437  10.720  0.2949 -0.5302 -0.6552
  403MOL0     N53081  -0.265   0.440  10.691 -0.7506 -0.4136 -0.1707
  403MOL0     C53082  -0.361   0.461  10.784 -0.0443  0.7753 -0.4164
  403MOL0     C53083  -0.479   0.421  10.730  0.0023  0.2811 -1.1565
  403MOL0     C53084  -0.620   0.412  10.802  0.3701 -0.2123  0.1998
  403MOL0     C53085  -0.734   0.381  10.709  0.1755 -0.4488  0.7437
  403MOL0     C53086  -0.854   0.342  10.793 -0.7061  0.1337  0.4089
  403MOL0     C53087  -0.997   0.349  10.721 -0.3782  0.3518 -0.1544
  403MOL0     O53088  -1.092   0.304  10.814 -0.0160  0.0030  0.2308
  403MOL0     C53089  -1.222   0.321  10.778  0.1705  0.0742 -0.4007
  403MOL0     C53090  -1.281   0.234  10.692  0.1087 -0.1029 -0.9074
  403MOL0     C53091  -1.416   0.244  10.676  0.4162 -0.4599  0.0783
  403MOL0     C53092  -1.490   0.350  10.725  0.4923 -0.8899 -0.2561
  403MOL0     C53093  -1.637   0.360  10.706  0.2819  1.2259 -0.4405
  403MOL0     O53094  -1.682   0.270  10.610 -0.1559 -0.0312  0.0032
  403MOL0     C53095  -1.797   0.307  10.540 -0.2358  0.2178 -0.2409
  403MOL0     C53096  -1.888   0.196  10.502 -0.3075 -0.1197 -0.8436
  403MOL0     C53097  -2.006   0.232  10.439  0.1816 -0.4924  0.8237
  403MOL0     C53098  -2.038   0.365  10.411 -0.0230 -0.4191  0.1436
  403MOL0     O53099  -2.143   0.394  10.325  0.6177 -0.1289 -0.3445
  403MOL0     C53100  -2.237   0.487  10.392  0.8203 -1.2377 -0.4910
  403MOL0     C53101  -2.351   0.545  10.297  0.3971  0.5489  0.7226
  403MOL0     C53102  -2.435   0.430  10.238 -0.8743  0.9060  0.0673
  403MOL0     C53103  -2.532   0.372  10.348 -0.7618  0.4622  0.2833
  403MOL0     C53104  -2.659   0.320  10.274 -0.1233  0.0998 -0.0477
  403MOL0     C53105  -2.768   0.437  10.282  0.3269  0.2025 -0.4499
  403MOL0     C53106  -2.900   0.383  10.216  0.4455  0.3784  0.2641
  403MOL0     C53107  -2.991   0.503  10.203  0.5063  0.0625 -0.1956
  403MOL0    Cl53108  -3.057   0.545  10.370 -0.5478  0.0030  0.1591
  403MOL0     C53109  -1.943   0.465  10.441  0.3004  0.4012  0.5996
  403MOL0     C53110  -1.826   0.436  10.501  0.4827  0.3462  0.1031
  403MOL0     O53111  -1.708   0.435  10.774  0.0128 -0.2204 -0.5500
  403MOL0     C53112  -1.421   0.447  10.801 -0.0258 -0.1275  0.4543
  403MOL0     C53113  -1.286   0.433  10.827 -0.0264 -0.4120  1.0466
  403MOL0     N53114  -0.450   0.377  10.598 -0.2594 -0.0217 -0.1786
  403MOL0     N53115  -0.325   0.389  10.577 -0.7230  0.3026 -0.0990
  403MOL0     C53116   0.851   1.038  10.979  0.5981 -0.5327 -0.6984
  403MOL0     C53117   0.986   1.069  10.951  0.0454  0.8371  0.3044
  403MOL0     C53118   1.404   1.107  10.793 -0.0505  0.6556  1.2312
  403MOL0     C53119   1.490   1.193  10.853  0.0750  0.4041 -0.2709
  403MOL0     C53120   1.630   1.180  10.837 -0.2697  0.0143  0.4469
  403MOL0     C53121   1.679   1.073  10.759  0.5980 -0.1915 -0.0105
  403MOL0     O53122   1.811   1.054  10.731  0.4238 -0.4843  0.2986
  403MOL0     C53123   1.923   1.133  10.790  0.3263  0.7599 -0.4863
  403MOL0     C53124   1.972   1.239  10.696  0.0205 -0.2259 -0.2306
  403MOL0     C53125   2.055   1.185  10.576  0.5073 -0.2836 -0.3891
  403MOL0     C53126   2.185   1.249  10.548 -0.1274 -0.4356 -0.2889
  403MOL0     C53127   2.261   1.209  10.424 -0.1320  0.0906  1.1209
  403MOL0     C53128   2.339   1.191  10.329  0.8268  0.3227  0.5140
  403MOL0     C53129   1.591   0.996  10.688 -0.1446 -0.2536  0.3722
  403MOL0     C53130   1.455   1.014  10.704  0.5470  0.1898 -0.7888
  403MOL0     H53131   1.047   0.817  10.734  2.7017 -0.4416  2.5574
  403MOL0     H53132   0.820   0.751  10.803  1.5123 -0.0075 -1.9376
  403MOL0     H53133   0.607   0.710  10.924 -2.2990 -0.9131 -1.4801
  403MOL0     H53134   0.593   0.843  10.793 -0.3397  2.7586  0.3446
  403MOL0     H53135   0.401   0.918  10.862  0.3254 -1.1852 -0.7312
  403MOL0     H53136   0.415   0.866  11.020  0.1008  1.6706 -0.0322
  403MOL0     H53137   0.395   0.612  10.950  0.3561  0.4162  1.8796
  403MOL0     H53138   0.357   0.674  10.793 -0.3893 -1.8273  1.2546
  403MOL0     H53139   0.191   0.708  11.032 -0.3685 -0.8401 -0.1523
  403MOL0     H53140   0.155   0.795  10.882  1.9210  0.0467 -2.7546
  403MOL0     H53141   0.180   0.492  10.882  0.7938 -0.6208 -2.0669
  403MOL0     H53142   0.127   0.603  10.755 -0.0459 -0.0517  1.4085
  403MOL0     H53143  -0.079   0.645  10.877  0.9652  1.2782  0.3197
  403MOL0     H53144  -0.036   0.572  11.023 -0.5462 -0.1378 -0.3916
  403MOL0     H53145   0.004   0.358  10.898  1.3001  1.1331  0.2442
  403MOL0     H53146  -0.159   0.405  10.937  0.5799 -0.1347  1.0822
  403MOL0     H53147  -0.082   0.342  10.677 -1.0260 -1.0270 -0.6510
  403MOL0     H53148  -0.074   0.527  10.675 -3.9019  4.1881  3.6683
  403MOL0     H53149  -0.356   0.491  10.888  1.8790 -0.4170 -0.1173
  403MOL0     H53150  -0.639   0.503  10.860 -0.7516 -0.5918  0.4305
  403MOL0     H53151  -0.618   0.350  10.892  0.9038 -1.4240 -0.6205
  403MOL0     H53152  -0.706   0.297  10.644 -0.2453 -1.1941  1.5098
  403MOL0     H53153  -0.760   0.474  10.657 -0.0479 -1.0266 -0.2005
  403MOL0     H53154  -0.822   0.244  10.831 -2.0623 -0.8039 -0.8033
  403MOL0     H53155  -0.861   0.405  10.882  1.2697 -0.8676  1.3431
  403MOL0     H53156  -1.000   0.270  10.645 -3.6798 -1.4742  1.6711
  403MOL0     H53157  -1.005   0.444  10.666 -0.6243  0.6386  0.3734
  403MOL0     H53158  -1.221   0.162  10.639 -2.0764 -4.2048  1.6635
  403MOL0     H53159  -1.467   0.166  10.620 -2.2078  1.8969 -1.0808
  403MOL0     H53160  -1.866   0.094  10.532  0.6528  1.2236  3.8912
  403MOL0     H53161  -2.069   0.157  10.394 -0.6229  1.1477 -0.9167
  403MOL0     H53162  -2.189   0.575  10.436  0.6847 -1.4714  0.1387
  403MOL0     H53163  -2.286   0.423  10.466 -1.4949 -1.4036 -2.0760
  403MOL0     H53164  -2.303   0.606  10.220 -0.5546  1.4855  0.8598
  403MOL0     H53165  -2.410   0.615  10.356  0.0419  2.6743 -1.9599
  403MOL0     H53166  -2.363   0.356  10.204  1.2450  2.1576  1.5824
  403MOL0     H53167  -2.496   0.474  10.158  0.7419  2.0620 -0.5902
  403MOL0     H53168  -2.471   0.288  10.383  2.0766  2.7293  1.2200
  403MOL0     H53169  -2.559   0.439  10.430 -1.4272  0.4113  0.1112
  403MOL0     H53170  -2.708   0.231  10.314 -0.2263 -0.5073 -1.4476
  403MOL0     H53171  -2.629   0.287  10.173 -0.4127 -2.6430  0.6802
  403MOL0     H53172  -2.738   0.520  10.218 -2.3715  0.8300 -1.0565
  403MOL0     H53173  -2.774   0.459  10.388 -1.0295 -0.9011 -0.2645
  403MOL0     H53174  -2.886   0.339  10.117 -0.9846 -0.7280  0.5189
  403MOL0     H53175  -2.957   0.302  10.262 -1.2856  1.3910  0.0084
  403MOL0     H53176  -3.070   0.494  10.128  0.7817 -1.6062 -0.3269
  403MOL0     H53177  -2.926   0.586  10.175  1.0515 -0.6885 -1.2029
  403MOL0     H53178  -1.976   0.560  10.400  0.8226 -0.5505 -2.3055
  403MOL0     H53179  -1.754   0.515  10.521  2.1726 -1.1240 -0.0038
  403MOL0     H53180  -1.472   0.533  10.843 -0.7140 -0.0767 -0.4418
  403MOL0     H53181  -1.239   0.490  10.907 -0.3157 -2.3866  2.6957
  403MOL0     H53182   0.801   1.090  11.061  1.1188 -0.0760 -0.6642
  403MOL0     H53183   1.046   1.131  11.017 -2.1956  1.2885  2.0424
  403MOL0     H53184   1.454   1.270  10.921  1.0725  1.5556 -1.0073
  403MOL0     H53185   1.698   1.244  10.891  0.9416 -1.6378  0.9728
  403MOL0     H53186   2.005   1.065  10.817 -0.4115 -0.3458 -0.9479
  403MOL0     H53187   1.895   1.170  10.889 -0.0069 -1.9093  0.5230
  403MOL0     H53188   1.882   1.291  10.662 -0.4716 -0.5456  0.5603
  403MOL0     H53189   2.046   1.304  10.746 -1.5840  1.1881  0.4189
  403MOL0     H53190   2.002   1.184  10.480  0.6911 -2.1923 -0.5109
  403MOL0     H53191   2.076   1.080  10.597  1.4370  0.1810  1.0978
  403MOL0     H53192   2.160   1.355  10.541  0.4067 -0.0918  2.0608
  403MOL0     H53193   2.252   1.231  10.633 -0.5847 -3.1721 -0.4209
  403MOL0     H53194   2.406   1.192  10.246 -0.4136 -1.0082 -0.5433
  403MOL0     H53195   1.624   0.914  10.625 -1.9790 -2.8077  2.4757
  403MOL0     H53196   1.388   0.939  10.663 -1.0418 -0.0092  1.9090
  404MOL0     O53197   7.767   1.121   1.757  0.1401  0.8262 -0.7454
  404MOL0     C53198   7.817   1.042   1.841  0.2113  1.4983 -0.3746
  404MOL0     O53199   7.749   0.941   1.898 -0.8765  0.5643 -0.7649
  404MOL0     C53200   7.620   0.922   1.863 -0.0702  0.6286 -0.4680
  404MOL0     C53201   7.596   0.807   1.785  0.9069  0.2966  0.5560
  404MOL0     C53202   7.463   0.784   1.740 -0.5940 -0.3178 -0.1461
  404MOL0     C53203   7.361   0.861   1.798  0.7989 -0.1317  0.4646
  404MOL0     O53204   7.242   0.818   1.750  0.2923 -0.0407 -0.7698
  404MOL0     C53205   7.126   0.864   1.824 -0.5115  0.3596  0.7777
  404MOL0     C53206   7.011   0.767   1.795  0.1163 -0.3777 -0.4107
  404MOL0     C53207   6.882   0.816   1.852  0.4647  0.5912 -0.1449
  404MOL0     C53208   6.806   0.692   1.912 -0.2275  0.4794 -0.2672
  404MOL0     C53209   6.661   0.740   1.965 -0.8451  1.3768 -0.0611
  404MOL0     C53210   6.568   0.750   1.837 -0.2331 -0.6006 -0.4316
  404MOL0     C53211   6.441   0.835   1.867 -0.8450 -0.7018  0.7312
  404MOL0     C53212   6.343   0.727   1.914  0.4534 -0.2440  0.3246
  404MOL0     N53213   6.217   0.786   1.955  0.1742 -0.3811  0.2498
  404MOL0     C53214   6.170   0.815   2.087 -0.6290  0.0327  0.7210
  404MOL0     C53215   6.036   0.843   2.075 -0.1444 -0.2276  0.4177
  404MOL0     C53216   5.942   0.878   2.191 -0.5759 -0.0048  1.2451
  404MOL0     C53217   5.792   0.862   2.161 -0.1991  0.4568 -0.3253
  404MOL0     C53218   5.742   0.970   2.074  1.9751 -0.2914  0.4459
  404MOL0     C53219   5.594   0.949   2.032  0.2520  0.3299 -0.3244
  404MOL0     O53220   5.513   0.962   2.148  0.6011  0.3747  0.3185
  404MOL0     C53221   5.376   0.940   2.117  0.9042  0.3314  0.0352
  404MOL0     C53222   5.307   1.003   2.008 -0.4102 -0.2731  0.2360
  404MOL0     C53223   5.169   1.002   1.984 -0.3401 -0.4216  0.3494
  404MOL0     C53224   5.090   0.919   2.071 -0.8916 -0.2752  0.8651
  404MOL0     C53225   4.944   0.897   2.036 -0.0316  0.1656  0.2408
  404MOL0     O53226   4.889   0.954   1.928  0.1741 -0.4842 -0.0872
  404MOL0     C53227   4.747   0.968   1.918  0.9925 -0.7905  0.0842
  404MOL0     C53228   4.692   1.088   1.891  0.0750 -0.0111 -0.0209
  404MOL0     C53229   4.555   1.110   1.870 -1.0506  0.2619  0.1823
  404MOL0     C53230   4.463   0.999   1.890  0.5986  0.7412  0.7755
  404MOL0     O53231   4.320   0.993   1.883 -0.9240 -0.3304 -0.7437
  404MOL0     C53232   4.254   1.112   1.826 -0.0214 -0.3395 -0.2252
  404MOL0     C53233   4.100   1.099   1.852  0.0973 -0.0230  0.1046
  404MOL0     C53234   4.036   1.014   1.752 -0.5299  0.9670  0.0704
  404MOL0     C53235   3.885   1.018   1.770  0.0189 -0.2580 -0.1613
  404MOL0     C53236   3.819   0.936   1.654 -0.7551 -0.0941  1.1937
  404MOL0     C53237   3.667   0.936   1.661  0.3271  0.6168 -0.2337
  404MOL0     C53238   3.605   0.856   1.548 -0.0396  0.6249 -0.7960
  404MOL0     C53239   3.455   0.868   1.537  0.2228 -0.3500 -0.5666
  404MOL0    Cl53240   3.373   0.761   1.653  0.4761  0.7037 -0.1852
  404MOL0     C53241   4.523   0.869   1.919  0.1877  0.7295  0.1282
  404MOL0     C53242   4.665   0.855   1.931  0.4167 -0.2651  0.1176
  404MOL0     O53243   4.880   0.832   2.122 -0.0648 -0.3651  0.3378
  404MOL0     C53244   5.148   0.849   2.181 -0.6682  0.3303  0.0766
  404MOL0     C53245   5.291   0.869   2.204  0.4926 -0.1209  0.2022
  404MOL0     N53246   6.010   0.847   1.937  0.0828  0.0517 -0.0893
  404MOL0     N53247   6.109   0.806   1.872  0.0585 -0.1126  0.0763
  404MOL0     C53248   7.389   0.976   1.878 -0.1861 -0.5577  0.4350
  404MOL0     C53249   7.518   0.997   1.918  0.0171 -0.7072  0.0692
  404MOL0     C53250   7.957   1.074   1.885 -0.3225 -0.0285 -0.3214
  404MOL0     C53251   8.029   1.191   1.847  0.8159 -0.3063 -0.2149
  404MOL0     C53252   8.161   1.210   1.880  0.3627 -0.3920 -0.3177
  404MOL0     C53253   8.239   1.109   1.936  0.0512 -0.3842  0.1929
  404MOL0     O53254   8.366   1.147   1.957  0.4502  0.7945  0.2717
  404MOL0     C53255   8.461   1.051   2.000 -0.4879  0.5018 -0.8836
  404MOL0     C53256   8.523   0.972   1.883  0.5800 -1.3378  0.1567
  404MOL0     C53257   8.625   0.874   1.937  0.1718 -0.6642  0.4076
  404MOL0     C53258   8.756   0.957   1.979 -0.5333  0.6493  0.1133
  404MOL0     C53259   8.865   0.876   2.034  0.4016  0.2599 -0.8063
  404MOL0     C53260   8.942   0.796   2.070 -0.0985 -0.1359  0.2995
  404MOL0     C53261   8.184   0.985   1.964  0.7290 -0.0986  0.7749
  404MOL0     C53262   8.039   0.970   1.942 -0.1756  0.7043  0.1212
  404MOL0     H53263   7.677   0.745   1.748  0.5884 -0.0681  0.4719
  404MOL0     H53264   7.442   0.695   1.683  0.1391  0.7198 -2.1296
  404MOL0     H53265   7.100   0.961   1.782  0.6824  0.7607  0.9390
  404MOL0     H53266   7.147   0.876   1.931  1.3693 -2.2178  0.7803
  404MOL0     H53267   7.046   0.675   1.843  3.1031  0.0468 -1.6120
  404MOL0     H53268   6.991   0.740   1.691  2.5157 -2.6906 -0.3640
  404MOL0     H53269   6.827   0.859   1.768 -1.1633  0.3125  0.7297
  404MOL0     H53270   6.892   0.893   1.929 -1.9936  1.6329 -0.7703
  404MOL0     H53271   6.801   0.608   1.843 -1.8276  1.4823 -1.4530
  404MOL0     H53272   6.861   0.660   2.001  0.7454 -1.8203 -1.6065
  404MOL0     H53273   6.670   0.838   2.014  0.3503  0.8363  0.8695
  404MOL0     H53274   6.630   0.661   2.033  0.9921 -1.6666 -2.4915
  404MOL0     H53275   6.548   0.648   1.801  0.0793  0.2040 -3.0644
  404MOL0     H53276   6.620   0.812   1.764  0.2773  0.5929  0.9046
  404MOL0     H53277   6.460   0.921   1.933  1.4892  0.9512 -1.8789
  404MOL0     H53278   6.413   0.880   1.772 -2.5415 -1.2289  0.9530
  404MOL0     H53279   6.391   0.674   1.996 -0.6108  1.9993  2.5236
  404MOL0     H53280   6.318   0.655   1.835 -1.6251 -0.3866  1.0563
  404MOL0     H53281   6.232   0.815   2.176  1.1413 -0.4863 -0.4683
  404MOL0     H53282   5.959   0.981   2.223  1.2309  0.5277 -1.1025
  404MOL0     H53283   5.974   0.803   2.263 -0.6628 -1.8742 -0.5846
  404MOL0     H53284   5.732   0.864   2.252 -1.3806 -0.6792 -1.0426
  404MOL0     H53285   5.771   0.775   2.097  0.6761  0.9426 -1.3013
  404MOL0     H53286   5.745   1.068   2.124 -2.2380 -0.6007  1.6691
  404MOL0     H53287   5.799   0.975   1.980  0.2287 -0.7687 -0.6862
  404MOL0     H53288   5.568   0.859   1.977 -0.1422 -0.9164  1.7819
  404MOL0     H53289   5.572   1.031   1.963  0.3942  1.2335  0.6723
  404MOL0     H53290   5.376   1.067   1.953  1.0018  0.1373  2.3374
  404MOL0     H53291   5.131   1.074   1.912  0.4725 -2.2408 -2.0209
  404MOL0     H53292   4.762   1.171   1.887  1.6403 -1.3053 -0.3647
  404MOL0     H53293   4.527   1.210   1.840  1.9831 -0.0252 -4.8670
  404MOL0     H53294   4.271   1.125   1.719 -1.8124 -2.5013 -0.8546
  404MOL0     H53295   4.294   1.201   1.875 -0.9875  0.5660 -1.0409
  404MOL0     H53296   4.061   1.201   1.854 -2.2672 -0.8305  2.6448
  404MOL0     H53297   4.094   1.052   1.951  3.8508 -0.1281  0.4170
  404MOL0     H53298   4.062   0.908   1.763  1.0138  1.4388  1.3587
  404MOL0     H53299   4.072   1.036   1.651 -0.3589 -2.8253 -0.8749
  404MOL0     H53300   3.853   0.974   1.865 -1.4451 -0.8518 -0.8932
  404MOL0     H53301   3.859   1.124   1.764  0.7746  0.4278  4.6185
  404MOL0     H53302   3.854   0.833   1.654 -0.7237 -0.0934  0.2139
  404MOL0     H53303   3.849   0.987   1.562  1.3761 -1.0254  1.3109
  404MOL0     H53304   3.632   1.040   1.661  1.1024  0.8936 -1.0768
  404MOL0     H53305   3.628   0.888   1.751  1.7813  1.1929  0.7255
  404MOL0     H53306   3.641   0.889   1.450 -2.0872  0.1526 -1.7457
  404MOL0     H53307   3.626   0.751   1.571 -2.2786  0.0490 -1.1774
  404MOL0     H53308   3.416   0.843   1.438  1.4862 -0.6232 -1.0030
  404MOL0     H53309   3.429   0.970   1.568 -0.7183 -1.1184  1.3333
  404MOL0     H53310   4.457   0.784   1.937 -0.5882  1.4278  0.6881
  404MOL0     H53311   4.712   0.764   1.966  1.7073 -0.2030 -1.3046
  404MOL0     H53312   5.079   0.787   2.238 -0.9392 -0.6069 -1.1969
  404MOL0     H53313   5.327   0.823   2.295 -1.7843 -2.2960  0.1281
  404MOL0     H53314   7.318   1.046   1.921 -0.1388  0.2572 -0.7488
  404MOL0     H53315   7.545   1.083   1.978  2.6447  0.1390 -2.0697
  404MOL0     H53316   7.965   1.264   1.800  1.0968 -0.9260 -1.6337
  404MOL0     H53317   8.204   1.309   1.870 -0.2778 -0.0810 -0.0673
  404MOL0     H53318   8.412   0.975   2.061  2.1436  0.8179  1.8600
  404MOL0     H53319   8.535   1.106   2.059  1.8776 -1.1301 -2.1819
  404MOL0     H53320   8.438   0.923   1.834  0.4887  0.7858 -2.0061
  404MOL0     H53321   8.566   1.044   1.813 -0.1462 -0.4761  0.5637
  404MOL0     H53322   8.637   0.800   1.857  0.4455 -0.5261  0.3196
  404MOL0     H53323   8.583   0.814   2.018 -0.5690 -3.0135 -1.6050
  404MOL0     H53324   8.793   1.010   1.890 -1.4522  0.6108 -0.3018
  404MOL0     H53325   8.731   1.039   2.048 -3.2841  0.9828 -1.1520
  404MOL0     H53326   9.027   0.739   2.102  1.0074  0.4069 -1.5468
  404MOL0     H53327   8.228   0.895   2.005 -1.9590 -2.0956 -0.4576
  404MOL0     H53328   8.002   0.870   1.967  3.6820 -1.1157 -0.6306
  405MOL0     O53329   5.714   0.401  11.021  0.3023 -0.0746  0.1473
  405MOL0     C53330   5.794   0.313  10.982 -0.3576  0.1347  0.8267
  405MOL0     O53331   5.755   0.191  10.915  0.5698 -0.1251  0.3290
  405MOL0     C53332   5.621   0.173  10.899  0.4519  0.2943  0.4208
  405MOL0     C53333   5.542   0.246  10.807  0.0370  0.4550 -0.7488
  405MOL0     C53334   5.406   0.213  10.790  0.0829 -0.2021  0.5931
  405MOL0     C53335   5.345   0.099  10.852 -0.1438 -0.3772  0.3131
  405MOL0     O53336   5.208   0.073  10.851  0.3050  0.4181 -0.0252
  405MOL0     C53337   5.133   0.123  10.739  0.2339 -0.7896  0.7085
  405MOL0     C53338   5.081   0.268  10.766  0.0502 -0.5329 -0.3275
  405MOL0     C53339   4.991   0.283  10.891 -0.3997 -0.0032 -0.0350
  405MOL0     C53340   4.892   0.163  10.904  0.3938 -0.4762  0.6655
  405MOL0     C53341   4.784   0.199  11.007 -0.0092 -0.5576  0.9803
  405MOL0     C53342   4.685   0.076  11.026  0.2808 -0.7425  0.4988
  405MOL0     C53343   4.575   0.106  11.128 -0.3240  0.2346  0.1189
  405MOL0     C53344   4.482  -0.026  11.153  0.3457  0.1565  0.1995
  405MOL0     N53345   4.374   0.012  11.239 -0.6273  0.2869 -0.7201
  405MOL0     C53346   4.250   0.061  11.212  0.5043  0.7985 -0.8623
  405MOL0     C53347   4.190   0.100  11.327 -0.3628 -0.3149  0.0819
  405MOL0     C53348   4.060   0.181  11.329 -0.4179 -0.0489  0.6129
  405MOL0     C53349   3.945   0.087  11.333 -0.3683  0.0469  0.2374
  405MOL0     C53350   3.816   0.168  11.307 -0.1065 -0.7245  0.3824
  405MOL0     C53351   3.681   0.089  11.316 -0.2329  0.6767  0.5491
  405MOL0     O53352   3.575   0.196  11.318  0.2247 -0.1606 -0.7143
  405MOL0     C53353   3.451   0.172  11.254 -0.4259 -0.2475  0.0711
  405MOL0     C53354   3.347   0.265  11.271  0.3691 -0.2593 -0.2107
  405MOL0     C53355   3.225   0.250  11.203 -0.6222  0.5456 -0.5267
  405MOL0     C53356   3.201   0.134  11.122 -0.6665 -0.2111 -1.1451
  405MOL0     C53357   3.072   0.127  11.054 -0.5562 -0.0144  1.2250
  405MOL0     O53358   3.003   0.246  11.018 -1.0648  0.3336  0.0064
  405MOL0     C53359   2.871   0.257  10.971 -0.2567  0.6330  0.7080
  405MOL0     C53360   2.773   0.158  10.962 -0.4492  0.2895 -1.1394
  405MOL0     C53361   2.647   0.181  10.915  0.7360 -0.6986 -0.4652
  405MOL0     C53362   2.609   0.313  10.886 -0.0767  0.0655 -0.5463
  405MOL0     O53363   2.489   0.352  10.830 -0.7566 -0.6481  0.5377
  405MOL0     C53364   2.409   0.253  10.772 -1.0137  0.5469 -0.1054
  405MOL0     C53365   2.283   0.313  10.700  0.0447 -0.0484  0.3528
  405MOL0     C53366   2.203   0.207  10.630 -0.0986  0.0167 -1.0471
  405MOL0     C53367   2.067   0.269  10.613  0.8795 -0.1879  0.2084
  405MOL0     C53368   1.973   0.208  10.516  0.1320  0.4736 -0.1758
  405MOL0     C53369   2.028   0.189  10.371 -0.5440  0.5451 -0.2318
  405MOL0     C53370   1.919   0.195  10.272  0.5288  0.1469  0.6102
  405MOL0     C53371   1.961   0.181  10.126 -0.4958  0.3013  0.4613
  405MOL0    Cl53372   1.823   0.204  10.011 -0.2079 -0.1860 -0.0360
  405MOL0     C53373   2.706   0.414  10.898 -0.4306 -0.2393 -0.7101
  405MOL0     C53374   2.833   0.392  10.948 -0.2384  1.0210  0.2382
  405MOL0     O53375   3.032   0.016  11.033  0.3646  0.0968  1.2140
  405MOL0     C53376   3.304   0.040  11.114 -0.0926 -1.1578 -0.6339
  405MOL0     C53377   3.428   0.058  11.174  0.1026 -0.3143  0.5843
  405MOL0     N53378   4.278   0.068  11.431  0.6137  0.5480  0.3390
  405MOL0     N53379   4.391   0.001  11.378 -0.5050 -0.7107  0.2461
  405MOL0     C53380   5.425   0.020  10.934 -0.4210 -1.0752  0.2042
  405MOL0     C53381   5.558   0.062  10.955 -0.0431 -0.0524 -0.6700
  405MOL0     C53382   5.940   0.341  10.989  0.2624 -0.5835 -0.7050
  405MOL0     C53383   5.990   0.443  11.068 -0.6820 -0.6472  0.0911
  405MOL0     C53384   6.122   0.482  11.057  0.5300 -0.3503  0.2635
  405MOL0     C53385   6.209   0.400  10.982 -0.7452  0.5295  0.4160
  405MOL0     O53386   6.345   0.435  10.987 -0.1875 -0.2230 -0.5437
  405MOL0     C53387   6.402   0.474  11.112 -0.1427  0.2873 -0.5583
  405MOL0     C53388   6.548   0.426  11.130  0.7519  0.3664  0.1604
  405MOL0     C53389   6.649   0.514  11.211  0.3311 -0.1196  0.4325
  405MOL0     C53390   6.625   0.493  11.364 -0.0450  0.5432 -0.0533
  405MOL0     C53391   6.700   0.586  11.442  0.1325 -0.9549 -0.0079
  405MOL0     C53392   6.784   0.653  11.494 -0.5454  0.5544 -1.0658
  405MOL0     C53393   6.164   0.288  10.911  0.3771 -0.4913  0.4339
  405MOL0     C53394   6.025   0.267  10.902 -0.2733 -0.6413 -0.1561
  405MOL0     H53395   5.606   0.324  10.767 -0.6398  2.3613  1.6087
  405MOL0     H53396   5.346   0.277  10.725 -1.7240  0.0341  2.4049
  405MOL0     H53397   5.054   0.051  10.716 -0.7125  0.1197  1.0463
  405MOL0     H53398   5.183   0.130  10.642  1.7241 -0.3763  1.4836
  405MOL0     H53399   5.020   0.296  10.679  2.1253 -1.0907 -2.0641
  405MOL0     H53400   5.164   0.339  10.759 -0.2429 -0.1740 -0.2395
  405MOL0     H53401   4.939   0.379  10.884  0.4948  0.4596 -0.5677
  405MOL0     H53402   5.058   0.277  10.977 -0.5361 -2.0474 -0.0226
  405MOL0     H53403   4.836   0.148  10.811 -0.5202  3.8074  0.3243
  405MOL0     H53404   4.943   0.070  10.930  1.2462 -0.7463 -1.7074
  405MOL0     H53405   4.743   0.293  10.970  0.3768 -0.4499  0.8208
  405MOL0     H53406   4.842   0.216  11.098  1.5423 -0.7288  0.0589
  405MOL0     H53407   4.736  -0.016  11.058  0.9543  0.0291  1.7339
  405MOL0     H53408   4.633   0.057  10.932  1.3663  1.8275 -0.7028
  405MOL0     H53409   4.628   0.136  11.219  1.4911 -0.8725 -0.4980
  405MOL0     H53410   4.515   0.191  11.096 -1.7228 -0.6380  0.3240
  405MOL0     H53411   4.537  -0.109  11.198 -1.7254 -0.7335  1.2143
  405MOL0     H53412   4.435  -0.052  11.057 -2.5481  0.6025  1.3901
  405MOL0     H53413   4.208   0.074  11.113 -1.1277 -4.3484 -1.1252
  405MOL0     H53414   4.061   0.239  11.236 -0.0838 -0.4642  0.3565
  405MOL0     H53415   4.058   0.252  11.412 -3.2162 -1.9303  2.3271
  405MOL0     H53416   3.946   0.025  11.424 -2.4873 -0.3603  0.0365
  405MOL0     H53417   3.956   0.011  11.255  2.3329  1.5814 -1.0208
  405MOL0     H53418   3.806   0.250  11.378 -1.4254 -0.2175 -0.3547
  405MOL0     H53419   3.834   0.212  11.208  0.7300 -1.1521  0.3338
  405MOL0     H53420   3.669   0.027  11.405 -3.8361  2.8756  1.8269
  405MOL0     H53421   3.676   0.023  11.229  0.7401 -0.1233  1.0865
  405MOL0     H53422   3.367   0.352  11.334  1.3800 -0.2467 -0.5284
  405MOL0     H53423   3.144   0.322  11.206 -1.1459  0.0048 -1.3116
  405MOL0     H53424   2.793   0.056  10.992  2.4372  0.6365 -1.5971
  405MOL0     H53425   2.576   0.100  10.898 -0.8726  0.7086 -0.7853
  405MOL0     H53426   2.384   0.178  10.848  1.1065  0.3279  0.4427
  405MOL0     H53427   2.464   0.214  10.687 -1.2536 -2.2714  0.9407
  405MOL0     H53428   2.309   0.375  10.614 -1.4527 -2.3235 -1.8740
  405MOL0     H53429   2.216   0.366  10.768 -1.6789 -0.8535 -0.6586
  405MOL0     H53430   2.185   0.117  10.689  0.6347  0.0726 -0.7257
  405MOL0     H53431   2.250   0.173  10.537 -0.7276 -1.1913 -0.9363
  405MOL0     H53432   2.011   0.260  10.706 -1.0588 -0.1828 -0.8902
  405MOL0     H53433   2.080   0.370  10.574  0.5588 -0.4481 -0.5963
  405MOL0     H53434   1.876   0.257  10.527  0.7829  1.4179  1.7109
  405MOL0     H53435   1.964   0.103  10.547  0.3292  1.2319  2.6928
  405MOL0     H53436   2.078   0.092  10.365 -0.1935  0.7469 -0.6068
  405MOL0     H53437   2.097   0.274  10.362  0.0631  0.2190  1.1003
  405MOL0     H53438   1.846   0.117  10.296  0.7268 -0.9641 -2.0231
  405MOL0     H53439   1.875   0.294  10.288 -0.1372 -0.2496  1.2990
  405MOL0     H53440   2.010   0.086  10.104  1.0889  1.3013 -0.5562
  405MOL0     H53441   2.034   0.258  10.101 -0.3692 -0.6904 -2.5699
  405MOL0     H53442   2.688   0.511  10.853  1.2026 -0.1610 -1.2380
  405MOL0     H53443   2.916   0.463  10.951  0.2057  0.4981  0.5924
  405MOL0     H53444   3.296  -0.046  11.048  2.3713  0.0200 -2.6514
  405MOL0     H53445   3.497  -0.023  11.152  0.0810 -0.2280  0.2003
  405MOL0     H53446   5.371  -0.066  10.973 -0.2249 -0.4729  1.8811
  405MOL0     H53447   5.622   0.009  11.025 -0.8008 -0.9986 -0.6665
  405MOL0     H53448   5.916   0.489  11.133 -1.3046 -2.5406  0.7809
  405MOL0     H53449   6.156   0.572  11.107 -1.4178  0.3651  0.3825
  405MOL0     H53450   6.343   0.428  11.193  1.6872  2.6754  2.3501
  405MOL0     H53451   6.390   0.582  11.115 -0.7175  0.2133  0.2939
  405MOL0     H53452   6.540   0.325  11.172  0.3861  0.1331 -0.4496
  405MOL0     H53453   6.580   0.408  11.027  0.2530 -0.5560  0.1571
  405MOL0     H53454   6.631   0.618  11.184  0.7950  0.2546  1.4979
  405MOL0     H53455   6.754   0.492  11.193  0.1593  0.3967 -1.4558
  405MOL0     H53456   6.518   0.495  11.383 -0.1839 -1.3947 -0.4889
  405MOL0     H53457   6.666   0.395  11.387 -1.6414 -0.6735 -2.0363
  405MOL0     H53458   6.857   0.714  11.544 -2.1700  1.7097  0.0340
  405MOL0     H53459   6.228   0.231  10.844  0.5772  0.3036 -0.0610
  405MOL0     H53460   5.980   0.181  10.852 -1.5396 -1.2956  1.9650
  406MOL0     O53461   8.990   7.249   3.504 -0.5427 -0.2495 -0.5112
  406MOL0     C53462   9.019   7.311   3.397  0.6291 -0.2050  0.1236
  406MOL0     O53463   8.929   7.382   3.314  0.5015  0.5936 -0.3775
  406MOL0     C53464   8.797   7.371   3.345  0.2982  0.3939  0.1725
  406MOL0     C53465   8.743   7.432   3.459  1.0628 -0.9076  0.0839
  406MOL0     C53466   8.606   7.430   3.487 -0.4106 -0.4291 -0.1625
  406MOL0     C53467   8.525   7.367   3.399 -0.2743  0.6465  0.7220
  406MOL0     O53468   8.389   7.351   3.421 -0.5909  0.4113  0.7965
  406MOL0     C53469   8.298   7.449   3.378  0.0350  0.2628  0.8948
  406MOL0     C53470   8.168   7.396   3.439 -0.9507  0.7142 -0.5311
  406MOL0     C53471   8.063   7.496   3.422  0.1489 -0.4491 -0.2454
  406MOL0     C53472   7.931   7.455   3.482 -0.3292 -0.8204  0.6422
  406MOL0     C53473   7.831   7.565   3.445  0.7025 -0.4129  0.0044
  406MOL0     C53474   7.696   7.544   3.519  0.2651  0.6311  0.3829
  406MOL0     C53475   7.612   7.667   3.506  0.3733  0.6166  0.6069
  406MOL0     C53476   7.474   7.657   3.570 -0.3815 -0.0223  0.2172
  406MOL0     N53477   7.408   7.785   3.567 -0.4087 -0.0042 -0.1768
  406MOL0     C53478   7.323   7.827   3.467  0.0372 -0.0595 -0.3730
  406MOL0     C53479   7.276   7.947   3.514  0.5496  0.1637  0.5344
  406MOL0     C53480   7.171   8.043   3.450 -0.3542  0.6395  0.3796
  406MOL0     C53481   7.237   8.112   3.325  0.0843  0.0874  0.5606
  406MOL0     C53482   7.142   8.203   3.240  1.0074  0.0337 -0.0746
  406MOL0     C53483   7.077   8.307   3.345  0.6399 -0.4841 -0.4583
  406MOL0     O53484   7.039   8.431   3.276 -0.1735  0.4214 -0.0437
  406MOL0     C53485   6.909   8.440   3.218 -1.2230  0.8922  0.0466
  406MOL0     C53486   6.883   8.569   3.160  0.2305  0.2444 -1.1948
  406MOL0     C53487   6.757   8.592   3.106 -0.3347  0.9245  0.2828
  406MOL0     C53488   6.652   8.504   3.124 -1.0862 -0.4694  0.3025
  406MOL0     C53489   6.516   8.547   3.080  0.2838  0.0619 -0.7322
  406MOL0     O53490   6.416   8.454   3.108 -0.1289  0.1706  0.5867
  406MOL0     C53491   6.276   8.481   3.101 -0.5010  0.0867  0.8023
  406MOL0     C53492   6.222   8.605   3.140  0.0226  0.4513  0.6868
  406MOL0     C53493   6.081   8.625   3.116 -0.7204  0.4290  0.0360
  406MOL0     C53494   6.005   8.515   3.074 -0.0510 -0.5351  0.2471
  406MOL0     O53495   5.868   8.515   3.066 -0.0854  0.4459  0.5935
  406MOL0     C53496   5.802   8.638   3.039 -0.4285  0.6028  0.7580
  406MOL0     C53497   5.668   8.600   2.968  0.3062 -0.2758 -0.5016
  406MOL0     C53498   5.614   8.736   2.922 -0.5212  0.4372  0.2064
  406MOL0     C53499   5.489   8.716   2.829  0.1672  0.3168  0.3302
  406MOL0     C53500   5.433   8.854   2.793 -0.3955 -0.3201  0.2256
  406MOL0     C53501   5.298   8.834   2.735 -0.0868  0.2894  0.2420
  406MOL0     C53502   5.245   8.973   2.681  0.3720  0.3266  0.2734
  406MOL0     C53503   5.096   8.961   2.640  0.5329 -0.0317  0.0613
  406MOL0    Cl53504   5.074   8.880   2.477  0.0878 -0.0050  0.2757
  406MOL0     C53505   6.069   8.402   3.027  0.0207  0.4097 -0.1419
  406MOL0     C53506   6.203   8.380   3.043  0.4751  0.4629  0.0708
  406MOL0     O53507   6.500   8.657   3.038  0.3376  0.2123  0.1563
  406MOL0     C53508   6.674   8.382   3.179 -1.4484  0.0304  0.7853
  406MOL0     C53509   6.807   8.340   3.227  0.4154 -0.2980  0.2831
  406MOL0     N53510   7.340   7.967   3.634  0.1105  0.3120 -0.8154
  406MOL0     N53511   7.425   7.878   3.669  0.3615 -0.3005  0.2574
  406MOL0     C53512   8.573   7.315   3.275 -0.3181  0.5856 -0.5579
  406MOL0     C53513   8.711   7.308   3.255  0.2252 -0.8233  0.1430
  406MOL0     C53514   9.159   7.317   3.361 -0.2719 -0.3815 -0.3160
  406MOL0     C53515   9.260   7.302   3.452 -0.1791  0.4304 -0.1679
  406MOL0     C53516   9.396   7.311   3.424 -1.0943  0.2482 -0.2123
  406MOL0     C53517   9.432   7.342   3.296 -0.6353 -0.6068  0.9171
  406MOL0     O53518   9.559   7.341   3.244  0.2332 -0.1163  0.0809
  406MOL0     C53519   9.677   7.350   3.331 -0.1096  0.4135  0.4061
  406MOL0     C53520   9.777   7.426   3.245  0.0914 -0.1208 -0.9813
  406MOL0     C53521   9.911   7.426   3.312  0.3418 -0.2842  0.3245
  406MOL0     C53522  10.010   7.498   3.220 -0.1294 -0.3157 -0.6303
  406MOL0     C53523  10.138   7.530   3.299  1.2925  0.2344 -0.3789
  406MOL0     C53524  10.245   7.529   3.354 -0.6090 -0.7561  0.2018
  406MOL0     C53525   9.337   7.362   3.197  0.2824 -0.2312 -0.3332
  406MOL0     C53526   9.198   7.350   3.228 -0.3156  0.3325 -0.6192
  406MOL0     H53527   8.804   7.488   3.529  1.9471  0.3620 -1.6403
  406MOL0     H53528   8.569   7.476   3.577 -0.9481 -0.4990 -0.3422
  406MOL0     H53529   8.300   7.449   3.269 -2.4510 -0.5993  0.7923
  406MOL0     H53530   8.328   7.550   3.409 -0.3662  0.2846  1.2196
  406MOL0     H53531   8.171   7.387   3.548  0.1674  1.0375 -0.5217
  406MOL0     H53532   8.154   7.301   3.387 -1.5279 -0.5248  1.7380
  406MOL0     H53533   8.048   7.513   3.315 -2.2162  1.3874  0.2933
  406MOL0     H53534   8.092   7.595   3.458 -4.2358  1.1821 -0.5964
  406MOL0     H53535   7.894   7.360   3.442 -0.5414  0.2560 -1.9526
  406MOL0     H53536   7.940   7.459   3.591 -0.4218  0.6540  0.6189
  406MOL0     H53537   7.820   7.571   3.336 -0.8853 -2.3428  0.0134
  406MOL0     H53538   7.866   7.666   3.470  0.5750  0.0418 -1.5068
  406MOL0     H53539   7.696   7.491   3.615 -1.8383 -2.4789 -1.1550
  406MOL0     H53540   7.655   7.459   3.463  0.7469 -0.0735  1.0701
  406MOL0     H53541   7.666   7.739   3.568  1.0943 -1.9503  3.1782
  406MOL0     H53542   7.601   7.699   3.402 -1.8936  4.0601  1.7636
  406MOL0     H53543   7.486   7.622   3.673  0.1154  1.8028  0.8112
  406MOL0     H53544   7.419   7.585   3.507 -0.4357 -0.6957  1.0174
  406MOL0     H53545   7.319   7.776   3.371 -1.6420  1.0586 -0.9362
  406MOL0     H53546   7.137   8.113   3.527 -1.9808  2.1225 -1.5759
  406MOL0     H53547   7.079   7.992   3.423 -2.2049  4.4816 -1.3858
  406MOL0     H53548   7.294   8.039   3.268  0.0234  1.5439 -1.5007
  406MOL0     H53549   7.322   8.175   3.351  0.9416 -0.3928 -0.9384
  406MOL0     H53550   7.207   8.260   3.172  2.4859  1.7604  2.5832
  406MOL0     H53551   7.065   8.141   3.194 -0.0342  1.5056 -0.3882
  406MOL0     H53552   7.147   8.333   3.425 -0.1931 -0.8230  0.3994
  406MOL0     H53553   6.994   8.259   3.397  0.5697  1.9979  1.9390
  406MOL0     H53554   6.962   8.643   3.164 -0.1003  0.5910 -1.1367
  406MOL0     H53555   6.758   8.685   3.050  0.7951 -0.4380 -2.0963
  406MOL0     H53556   6.282   8.684   3.184 -0.2610  3.0814 -3.1416
  406MOL0     H53557   6.028   8.711   3.155 -2.9287 -0.1409 -1.4991
  406MOL0     H53558   5.862   8.689   2.964 -1.3633 -2.2766 -2.1752
  406MOL0     H53559   5.803   8.690   3.136  3.8463 -0.3571  1.4572
  406MOL0     H53560   5.596   8.556   3.038  1.9864  1.7454  2.7245
  406MOL0     H53561   5.681   8.540   2.877  2.8181  2.7476 -2.3213
  406MOL0     H53562   5.688   8.792   2.863 -2.0403 -0.2585 -2.5488
  406MOL0     H53563   5.580   8.794   3.008  2.5262  1.5007  0.8096
  406MOL0     H53564   5.500   8.642   2.750 -5.0747 -1.8290  1.2008
  406MOL0     H53565   5.419   8.668   2.898  0.4670 -0.4119  0.1277
  406MOL0     H53566   5.512   8.900   2.733 -1.8612  1.7851 -0.1922
  406MOL0     H53567   5.406   8.906   2.886  0.2135 -2.2291  1.5413
  406MOL0     H53568   5.229   8.810   2.817 -0.8354 -0.7783 -0.6699
  406MOL0     H53569   5.302   8.756   2.658  2.8036 -0.8154  1.3867
  406MOL0     H53570   5.258   9.054   2.754  0.3462  1.9301 -1.4240
  406MOL0     H53571   5.291   9.008   2.588 -1.7631  2.1993 -0.1761
  406MOL0     H53572   5.058   9.062   2.623  0.3115  0.0730  1.1013
  406MOL0     H53573   5.032   8.906   2.710 -0.7128 -2.4404 -2.7302
  406MOL0     H53574   6.009   8.328   2.975  0.3646  0.6014 -0.8174
  406MOL0     H53575   6.255   8.291   3.009 -1.5887 -1.0384  0.6527
  406MOL0     H53576   6.597   8.307   3.188 -0.3684 -1.4920 -1.6097
  406MOL0     H53577   6.827   8.238   3.255  0.7424 -0.5923 -0.9416
  406MOL0     H53578   8.509   7.267   3.202  0.6512 -1.9814  0.1975
  406MOL0     H53579   8.747   7.271   3.159  0.1213  1.8267 -1.0030
  406MOL0     H53580   9.239   7.263   3.551  1.0478 -0.1055 -0.1068
  406MOL0     H53581   9.470   7.288   3.500 -1.1379  1.8085  0.3368
  406MOL0     H53582   9.718   7.255   3.365 -1.1220 -0.5999 -1.1151
  406MOL0     H53583   9.656   7.406   3.423  2.0629  1.0601  0.5508
  406MOL0     H53584   9.779   7.392   3.141  0.7084 -2.9893 -0.1042
  406MOL0     H53585   9.748   7.532   3.248  2.1062  0.4535 -0.2671
  406MOL0     H53586   9.946   7.323   3.320 -0.2022 -0.5664 -0.7978
  406MOL0     H53587   9.899   7.484   3.404  1.0171  0.8810 -0.2834
  406MOL0     H53588  10.034   7.428   3.140 -0.1218 -1.4543  0.3251
  406MOL0     H53589   9.972   7.595   3.186 -1.0710  0.0738  1.3504
  406MOL0     H53590  10.341   7.539   3.400  0.5959  0.2420 -2.3014
  406MOL0     H53591   9.364   7.373   3.092 -3.0589 -1.6079 -1.4977
  406MOL0     H53592   9.121   7.354   3.152  0.1491  1.4749 -1.0586
  407MOL0     O53593   4.219   8.899   1.341 -0.4416  0.7944  0.5049
  407MOL0     C53594   4.202   8.863   1.220 -0.4020 -0.6165 -0.8757
  407MOL0     O53595   4.130   8.944   1.130 -0.2312  0.3343 -0.9014
  407MOL0     C53596   4.060   9.051   1.177 -0.0665 -0.3000 -0.2160
  407MOL0     C53597   3.930   9.051   1.219 -0.1630  0.5480  0.9045
  407MOL0     C53598   3.844   9.166   1.231  0.0697  0.6599  0.1800
  407MOL0     C53599   3.901   9.293   1.212  0.6930  0.2318 -0.0046
  407MOL0     O53600   3.831   9.413   1.226 -0.2514 -0.0655 -0.2283
  407MOL0     C53601   3.689   9.424   1.252  0.0283 -0.4672  0.1712
  407MOL0     C53602   3.649   9.561   1.280  0.1414  0.4868  0.3780
  407MOL0     C53603   3.501   9.561   1.328  0.2007  0.5775  0.6263
  407MOL0     C53604   3.457   9.709   1.345 -0.1762  0.2449 -0.4381
  407MOL0     C53605   3.311   9.713   1.380  0.2896 -0.1754  0.2137
  407MOL0     C53606   3.272   9.864   1.386  0.8716 -0.6798 -0.0269
  407MOL0     C53607   3.123   9.867   1.421 -0.9599  0.3664  0.1048
  407MOL0     C53608   3.065  10.010   1.424  0.2905 -0.9059  0.1098
  407MOL0     N53609   2.919   9.998   1.410 -0.4157  0.2102  0.4104
  407MOL0     C53610   2.830  10.092   1.369 -0.0473  0.1482  0.9740
  407MOL0     C53611   2.701  10.032   1.388  0.0443 -0.1335  0.1292
  407MOL0     C53612   2.574  10.100   1.337 -0.5096  0.3967 -0.0467
  407MOL0     C53613   2.449  10.083   1.422  0.4583 -0.3833 -0.4744
  407MOL0     C53614   2.324  10.175   1.386  0.1403  0.2512 -0.2847
  407MOL0     C53615   2.209  10.156   1.489 -1.0026 -0.2260 -0.4385
  407MOL0     O53616   2.121  10.269   1.469  0.2702 -0.4363 -0.1850
  407MOL0     C53617   1.993  10.271   1.524  0.1215 -0.7045  0.3164
  407MOL0     C53618   1.914  10.390   1.508  0.4431  0.9373 -0.2745
  407MOL0     C53619   1.792  10.394   1.582 -0.2146  0.6204 -0.0472
  407MOL0     C53620   1.750  10.287   1.658 -0.0614  1.2067 -0.1913
  407MOL0     C53621   1.612  10.293   1.712  0.5701  0.3836 -0.4966
  407MOL0     O53622   1.537  10.410   1.692  0.5731 -0.5837  0.0011
  407MOL0     C53623   1.416  10.451   1.748 -0.2359 -0.3481 -1.1312
  407MOL0     C53624   1.326  10.367   1.804 -0.3945 -0.1586  0.3085
  407MOL0     C53625   1.212  10.411   1.873 -0.3118 -0.1806  0.2788
  407MOL0     C53626   1.184  10.550   1.872 -0.3515  0.2460 -0.2314
  407MOL0     O53627   1.073  10.613   1.934  0.1491  0.3690  1.2568
  407MOL0     C53628   0.970  10.519   1.960 -0.3902 -0.3341 -0.6008
  407MOL0     C53629   0.858  10.598   2.023 -0.3973  0.1729 -0.3262
  407MOL0     C53630   0.806  10.716   1.945 -0.1573  0.0409 -0.4193
  407MOL0     C53631   0.657  10.708   1.897  0.5567 -0.8668  0.5524
  407MOL0     C53632   0.608  10.843   1.853  1.2491  0.4842  0.1750
  407MOL0     C53633   0.456  10.850   1.816  0.0329  0.1651  0.0189
  407MOL0     C53634   0.393  10.990   1.787  0.5000 -0.3667  0.5146
  407MOL0     C53635   0.243  10.975   1.729  0.3671 -0.2000 -0.0187
  407MOL0    Cl53636   0.149  10.898   1.861  0.1723  0.5135  0.0055
  407MOL0     C53637   1.275  10.631   1.812  0.6621 -0.7058 -0.0694
  407MOL0     C53638   1.395  10.587   1.750  0.0075 -0.0282  0.5160
  407MOL0     O53639   1.585  10.205   1.790  0.6530  0.9875  0.2342
  407MOL0     C53640   1.831  10.173   1.674  0.3324  0.2421 -0.0484
  407MOL0     C53641   1.951  10.168   1.610 -0.4672 -0.3427  0.2736
  407MOL0     N53642   2.725   9.913   1.455 -0.4221 -0.9803  0.5437
  407MOL0     N53643   2.850   9.894   1.462  0.0921  0.8455 -0.3473
  407MOL0     C53644   4.033   9.299   1.181  0.4846  0.0431 -0.2523
  407MOL0     C53645   4.112   9.185   1.163  0.4636  0.7637 -0.0691
  407MOL0     C53646   4.272   8.744   1.169  0.3909  0.2436 -0.5724
  407MOL0     C53647   4.297   8.728   1.028  0.6155 -0.4510 -0.5520
  407MOL0     C53648   4.383   8.624   0.984  1.8094  0.2740  0.3891
  407MOL0     C53649   4.429   8.527   1.070 -0.2772  0.0371 -0.1044
  407MOL0     O53650   4.511   8.427   1.015  0.1914 -0.2532  0.1986
  407MOL0     C53651   4.466   8.297   1.038 -0.0252  0.5334  0.5804
  407MOL0     C53652   4.580   8.202   1.079  0.4150 -0.7357  0.1317
  407MOL0     C53653   4.543   8.054   1.081 -0.1982  0.2509 -0.9769
  407MOL0     C53654   4.662   7.966   1.122  0.7930  0.3445  0.7407
  407MOL0     C53655   4.780   7.957   1.027  0.2070  1.1153 -0.3813
  407MOL0     C53656   4.865   7.948   0.942 -0.3019  0.1457  0.0256
  407MOL0     C53657   4.400   8.538   1.207  0.5509  0.1572 -0.3846
  407MOL0     C53658   4.316   8.638   1.256 -0.1389 -0.6743 -0.6964
  407MOL0     H53659   3.877   8.957   1.226 -1.8908  1.5837  2.5081
  407MOL0     H53660   3.737   9.160   1.250 -0.1698  0.8020 -1.0487
  407MOL0     H53661   3.664   9.360   1.337  0.5250 -1.1474 -0.1744
  407MOL0     H53662   3.641   9.392   1.159  1.5914  0.2174 -0.9115
  407MOL0     H53663   3.647   9.612   1.183 -2.3087 -3.0374 -1.6643
  407MOL0     H53664   3.716   9.617   1.346  0.6384  4.2940 -2.9417
  407MOL0     H53665   3.491   9.500   1.419  1.5775 -0.3764  0.1642
  407MOL0     H53666   3.440   9.506   1.256 -1.2455 -0.0262  2.2474
  407MOL0     H53667   3.517   9.754   1.425  2.2434 -0.5646 -1.6776
  407MOL0     H53668   3.473   9.761   1.250  0.4335 -1.1273 -1.1021
  407MOL0     H53669   3.293   9.654   1.470 -0.9037  0.5753  0.4888
  407MOL0     H53670   3.262   9.669   1.292  0.1073 -0.2298  0.3418
  407MOL0     H53671   3.302   9.919   1.297  1.9885  0.1103  0.8174
  407MOL0     H53672   3.326   9.909   1.470 -0.7069  1.2739  0.0327
  407MOL0     H53673   3.065   9.811   1.348 -4.2244  1.6345  1.5414
  407MOL0     H53674   3.110   9.812   1.514  3.1651  0.7941  1.1245
  407MOL0     H53675   3.108  10.059   1.336  0.4121  1.5450  1.4340
  407MOL0     H53676   3.096  10.071   1.509  0.2131 -0.0613 -0.4482
  407MOL0     H53677   2.854  10.189   1.327  0.9248  0.0277  1.2409
  407MOL0     H53678   2.556  10.066   1.235 -3.8062  2.1915 -0.1758
  407MOL0     H53679   2.593  10.207   1.333 -1.0482  0.5031  0.2653
  407MOL0     H53680   2.477  10.100   1.526 -0.3121  0.5699 -0.4061
  407MOL0     H53681   2.413   9.980   1.417  0.1768 -0.5281  2.8344
  407MOL0     H53682   2.368  10.273   1.405  2.1832 -0.3290 -1.6097
  407MOL0     H53683   2.287  10.154   1.285  0.5272 -2.3857  0.0451
  407MOL0     H53684   2.256  10.170   1.586 -2.0109  0.3361 -0.0076
  407MOL0     H53685   2.160  10.061   1.469 -3.0581  0.2671  1.8196
  407MOL0     H53686   1.937  10.470   1.438 -0.0725  0.1536 -1.3544
  407MOL0     H53687   1.727  10.481   1.583 -2.2863 -0.8298 -1.2007
  407MOL0     H53688   1.349  10.261   1.801  0.0862 -0.0387 -0.3645
  407MOL0     H53689   1.162  10.334   1.932 -1.8633  0.2498 -0.4297
  407MOL0     H53690   1.007  10.443   2.030  0.4340  1.3096  0.8176
  407MOL0     H53691   0.929  10.482   1.866  1.4665 -1.2270 -1.0974
  407MOL0     H53692   0.894  10.632   2.120  0.4451  2.1727 -1.2639
  407MOL0     H53693   0.773  10.531   2.037  0.4957 -0.7112  1.0529
  407MOL0     H53694   0.862  10.734   1.853  0.5313 -0.9286 -0.1994
  407MOL0     H53695   0.825  10.803   2.009  0.1267 -0.4995  0.2375
  407MOL0     H53696   0.642  10.639   1.813 -3.2167  0.4213 -0.0241
  407MOL0     H53697   0.586  10.678   1.974 -1.2796 -0.8466 -1.0481
  407MOL0     H53698   0.667  10.866   1.763  0.3851 -1.1334 -0.8658
  407MOL0     H53699   0.635  10.912   1.933 -1.4462  0.2920  1.3450
  407MOL0     H53700   0.392  10.798   1.889  1.7452 -0.6286  1.0109
  407MOL0     H53701   0.442  10.780   1.733 -4.2411 -0.0239  0.6676
  407MOL0     H53702   0.390  11.046   1.880 -0.9566  2.0739 -0.9015
  407MOL0     H53703   0.452  11.032   1.705 -1.7035  0.8066 -0.5629
  407MOL0     H53704   0.231  10.915   1.638  0.8220  1.0287 -0.9198
  407MOL0     H53705   0.199  11.075   1.723 -0.6055 -0.3769  2.8983
  407MOL0     H53706   1.259  10.739   1.811  0.9267 -0.5686  2.4493
  407MOL0     H53707   1.451  10.659   1.691  1.9162 -1.2875  0.7374
  407MOL0     H53708   1.787  10.088   1.726 -5.5269  1.0943 -2.7573
  407MOL0     H53709   2.013  10.078   1.613  1.2940  0.8714  2.1865
  407MOL0     H53710   4.078   9.396   1.167  3.2160 -0.7355  2.2364
  407MOL0     H53711   4.217   9.197   1.141  0.4642  1.0809  0.1066
  407MOL0     H53712   4.267   8.797   0.949  0.7549  0.1700 -0.0707
  407MOL0     H53713   4.395   8.638   0.877  1.0042  2.3534  0.5258
  407MOL0     H53714   4.429   8.259   0.943  0.0904 -2.3294  1.5774
  407MOL0     H53715   4.381   8.295   1.107 -0.1133  2.5012  0.6012
  407MOL0     H53716   4.663   8.219   1.010 -0.7831  1.5094 -0.8801
  407MOL0     H53717   4.605   8.230   1.182 -2.2952  1.2868  0.3623
  407MOL0     H53718   4.505   8.017   0.985  1.5601 -0.8587 -1.2933
  407MOL0     H53719   4.462   8.039   1.153  0.4502  2.2010  0.2405
  407MOL0     H53720   4.696   7.995   1.222  1.5275  0.1051  0.5666
  407MOL0     H53721   4.631   7.862   1.117 -0.5530  0.7835 -1.4077
  407MOL0     H53722   4.948   7.939   0.875 -0.8531 -0.5274 -0.5866
  407MOL0     H53723   4.428   8.462   1.279 -0.9412  2.0664  2.4194
  407MOL0     H53724   4.293   8.647   1.362  1.5537  0.5920 -0.3989
  408MOL0     O53725   6.867   8.912   7.376 -0.1818 -1.3357 -0.0721
  408MOL0     C53726   6.884   9.024   7.323  0.7691  0.4803 -0.8614
  408MOL0     O53727   6.791   9.121   7.321  0.4744 -0.2794  0.2550
  408MOL0     C53728   6.657   9.099   7.346 -0.2013 -0.5100  0.0299
  408MOL0     C53729   6.589   8.984   7.388  0.0277  0.6175 -0.0722
  408MOL0     C53730   6.452   8.971   7.380  0.0003  0.1285 -0.0600
  408MOL0     C53731   6.371   9.078   7.353  0.0173 -0.3237  0.7547
  408MOL0     O53732   6.241   9.051   7.382 -0.4347 -0.4617  0.0517
  408MOL0     C53733   6.153   9.160   7.355 -0.5847 -0.4309 -0.2689
  408MOL0     C53734   6.031   9.119   7.429 -0.1808 -0.6478  0.5910
  408MOL0     C53735   5.902   9.195   7.371 -0.4797 -0.1054 -0.0881
  408MOL0     C53736   5.778   9.153   7.439 -0.3638 -0.8202 -0.3142
  408MOL0     C53737   5.652   9.210   7.386  0.2176 -0.0531 -0.4863
  408MOL0     C53738   5.530   9.164   7.473 -0.0134  0.3004  0.7699
  408MOL0     C53739   5.406   9.260   7.444 -0.5560  0.4428 -0.3478
  408MOL0     C53740   5.329   9.223   7.312  0.1079  0.2091 -0.1881
  408MOL0     N53741   5.195   9.283   7.310 -0.3172 -0.9454 -1.0301
  408MOL0     C53742   5.181   9.415   7.335 -0.9868  1.0615  0.3544
  408MOL0     C53743   5.054   9.431   7.372 -0.3239 -0.4633 -1.0573
  408MOL0     C53744   4.995   9.556   7.424  0.2213  0.1209 -0.3652
  408MOL0     C53745   4.911   9.616   7.312  0.1045  0.4650 -0.0568
  408MOL0     C53746   4.875   9.762   7.348 -0.7453  0.0796 -0.3024
  408MOL0     C53747   4.731   9.798   7.295  0.3051  0.2201  0.3510
  408MOL0     O53748   4.679   9.936   7.303  0.6186  0.5794 -0.2838
  408MOL0     C53749   4.560   9.966   7.254  0.3914 -0.2037 -0.0449
  408MOL0     C53750   4.467   9.873   7.208  0.4686 -0.1672 -0.1807
  408MOL0     C53751   4.347   9.915   7.155  0.6682 -0.0428 -0.1028
  408MOL0     C53752   4.315  10.057   7.149  0.6589  0.3895  0.5220
  408MOL0     C53753   4.186  10.102   7.100 -0.4844 -0.7966 -1.2960
  408MOL0     O53754   4.171  10.241   7.088 -0.3670 -0.3945 -0.1448
  408MOL0     C53755   4.039  10.293   7.079  0.0271  0.1925  0.3436
  408MOL0     C53756   3.921  10.240   7.140  0.1458 -0.6868  1.1208
  408MOL0     C53757   3.799  10.291   7.116  0.7840  0.0694  0.5587
  408MOL0     C53758   3.782  10.393   7.027  0.0953 -0.1687  0.9722
  408MOL0     O53759   3.659  10.436   6.975 -0.8747  0.2370  0.1074
  408MOL0     C53760   3.542  10.430   7.059 -0.6158  0.6586 -0.2366
  408MOL0     C53761   3.417  10.447   6.983  0.3005  0.8325  0.0760
  408MOL0     C53762   3.418  10.586   6.913  0.5077 -0.6164 -0.6361
  408MOL0     C53763   3.280  10.614   6.848  0.0402  0.3017 -0.4983
  408MOL0     C53764   3.290  10.726   6.747  0.5558 -0.1677  0.0534
  408MOL0     C53765   3.159  10.764   6.676 -0.1552  0.3750 -0.5737
  408MOL0     C53766   3.094  10.636   6.612 -0.3804  0.0833  0.0420
  408MOL0     C53767   2.977  10.684   6.526  0.0720 -0.9474 -0.2294
  408MOL0    Cl53768   3.020  10.804   6.402 -0.0849 -0.0463  0.3288
  408MOL0     C53769   3.894  10.457   6.978  0.2273  1.0234  1.0221
  408MOL0     C53770   4.024  10.408   7.006 -1.1223 -0.4108  0.3374
  408MOL0     O53771   4.098  10.018   7.092 -0.3005 -0.8491 -0.0873
  408MOL0     C53772   4.413  10.149   7.189 -0.1123  0.0192 -0.0083
  408MOL0     C53773   4.532  10.101   7.245  0.6278  0.0547  0.5498
  408MOL0     N53774   4.993   9.308   7.367 -0.3936  0.6471  0.3665
  408MOL0     N53775   5.079   9.224   7.335 -0.2712  0.1673 -0.5536
  408MOL0     C53776   6.436   9.202   7.325 -0.1680  0.6805  0.7732
  408MOL0     C53777   6.577   9.210   7.315  0.3646 -0.6157  0.4873
  408MOL0     C53778   7.016   9.056   7.261  0.6895  0.7418  0.3446
  408MOL0     C53779   7.015   9.159   7.161  0.1607 -0.5081  0.5685
  408MOL0     C53780   7.136   9.188   7.094 -0.4110  0.1503 -0.1285
  408MOL0     C53781   7.255   9.119   7.121  0.5138 -0.6764 -0.0217
  408MOL0     O53782   7.370   9.177   7.071  0.2682 -0.2681 -0.8285
  408MOL0     C53783   7.400   9.142   6.941 -0.3063 -0.7042 -0.6535
  408MOL0     C53784   7.486   9.017   6.929  0.0210 -0.8883 -0.8658
  408MOL0     C53785   7.637   9.040   6.967  0.3277  0.7850 -0.3530
  408MOL0     C53786   7.674   9.026   7.114  0.1814 -0.3475  0.1659
  408MOL0     C53787   7.785   9.100   7.154 -0.0787 -0.6100  0.7165
  408MOL0     C53788   7.862   9.167   7.210 -0.6550 -0.2866 -0.1903
  408MOL0     C53789   7.250   9.010   7.212 -0.0888 -0.1483 -0.3074
  408MOL0     C53790   7.133   8.980   7.276  0.4298  0.2453 -0.2950
  408MOL0     H53791   6.640   8.893   7.416  2.7841  2.5114  1.5256
  408MOL0     H53792   6.394   8.888   7.419  2.3169 -1.4739  0.1851
  408MOL0     H53793   6.137   9.169   7.247 -2.1672  1.2867  0.0708
  408MOL0     H53794   6.194   9.249   7.404 -1.6742  0.1939 -0.4696
  408MOL0     H53795   6.044   9.135   7.536 -2.0142 -2.3200  1.1283
  408MOL0     H53796   6.009   9.015   7.405 -1.0799 -0.8627  2.2350
  408MOL0     H53797   5.890   9.170   7.265  3.8905 -0.2895 -0.7118
  408MOL0     H53798   5.918   9.303   7.375  0.0222 -0.1485 -0.7646
  408MOL0     H53799   5.770   9.044   7.428 -0.0946 -0.7687 -1.0431
  408MOL0     H53800   5.788   9.186   7.543  0.8083  0.1866 -0.7188
  408MOL0     H53801   5.641   9.167   7.286  0.2970 -0.6154 -0.2563
  408MOL0     H53802   5.656   9.319   7.392 -2.3199  0.1477 -1.1894
  408MOL0     H53803   5.560   9.170   7.578  3.2810  0.0795 -0.0324
  408MOL0     H53804   5.512   9.058   7.452 -1.9040  0.5948  0.7399
  408MOL0     H53805   5.339   9.247   7.529  0.6747  1.6807  0.8512
  408MOL0     H53806   5.435   9.365   7.447  0.6292  0.1259  2.7949
  408MOL0     H53807   5.321   9.115   7.300  0.8717 -0.2081  2.4654
  408MOL0     H53808   5.384   9.257   7.224 -0.5574 -0.1224 -0.7379
  408MOL0     H53809   5.255   9.494   7.333 -0.1556  0.3349  1.3264
  408MOL0     H53810   5.082   9.619   7.449  0.0402  0.5859 -0.8890
  408MOL0     H53811   4.931   9.537   7.511  0.2037 -1.2188 -0.6486
  408MOL0     H53812   4.825   9.549   7.303  1.0260 -0.7077 -0.4593
  408MOL0     H53813   4.977   9.613   7.225  1.0717  2.0509  0.5722
  408MOL0     H53814   4.878   9.783   7.455  1.6100  0.6673 -0.4169
  408MOL0     H53815   4.953   9.824   7.302  1.4266 -2.4720 -0.3033
  408MOL0     H53816   4.652   9.734   7.334 -1.4247  1.8500 -0.3456
  408MOL0     H53817   4.746   9.768   7.190  0.4969 -1.2801  0.7781
  408MOL0     H53818   4.487   9.767   7.195  3.8270  0.2257  0.9357
  408MOL0     H53819   4.268   9.843   7.137  0.6270 -0.0913  0.2571
  408MOL0     H53820   3.931  10.146   7.194  0.2604 -1.7519 -0.6570
  408MOL0     H53821   3.713  10.245   7.163  0.8847 -0.8573 -0.1363
  408MOL0     H53822   3.547  10.505   7.138  0.5362 -0.9630  1.3100
  408MOL0     H53823   3.533  10.333   7.108  0.5349  1.1364  0.9828
  408MOL0     H53824   3.324  10.430   7.037  1.7053 -1.6829  1.9140
  408MOL0     H53825   3.413  10.377   6.900 -0.5805 -1.3488  1.8564
  408MOL0     H53826   3.498  10.594   6.839 -1.3218  1.0864 -2.5558
  408MOL0     H53827   3.427  10.668   6.985 -0.1333 -0.0178 -1.2270
  408MOL0     H53828   3.248  10.526   6.792 -1.6246 -0.2912  1.2410
  408MOL0     H53829   3.201  10.645   6.918 -2.2573  1.5710 -3.4683
  408MOL0     H53830   3.367  10.694   6.676  0.6867 -0.0803  0.1544
  408MOL0     H53831   3.331  10.813   6.799  2.8975  0.2894 -2.3231
  408MOL0     H53832   3.186  10.833   6.595 -2.1081  0.0436 -1.5637
  408MOL0     H53833   3.085  10.814   6.740 -0.5416  3.6326 -3.2594
  408MOL0     H53834   3.163  10.587   6.543 -0.2381 -1.6388  1.3359
  408MOL0     H53835   3.056  10.569   6.690 -3.3633  1.1086 -0.4134
  408MOL0     H53836   2.905  10.729   6.595  0.4062  0.5522 -0.8106
  408MOL0     H53837   2.940  10.588   6.488  1.1392 -2.7306  2.8644
  408MOL0     H53838   3.878  10.543   6.914  1.5653  2.5180  2.6110
  408MOL0     H53839   4.119  10.450   6.973  0.3162 -2.5535  1.5541
  408MOL0     H53840   4.387  10.254   7.187  0.1478  0.0802 -0.5498
  408MOL0     H53841   4.603  10.173   7.285 -0.7239  1.9853 -0.3619
  408MOL0     H53842   6.377   9.287   7.294 -2.5008 -0.0147  2.9960
  408MOL0     H53843   6.624   9.300   7.277  0.8794 -1.8167 -1.9718
  408MOL0     H53844   6.928   9.217   7.134  1.6735  0.1101 -3.8450
  408MOL0     H53845   7.116   9.269   7.025  1.0330  2.0469  1.5552
  408MOL0     H53846   7.438   9.218   6.873  0.9664 -0.8816 -0.1528
  408MOL0     H53847   7.310   9.108   6.888  0.0197 -2.9802  0.1505
  408MOL0     H53848   7.448   8.943   7.000  2.0077  0.9620  2.3817
  408MOL0     H53849   7.475   8.979   6.827 -0.7077 -1.3452 -0.6278
  408MOL0     H53850   7.680   9.128   6.918  1.2406 -0.0076 -1.0305
  408MOL0     H53851   7.701   8.965   6.919 -0.8644  1.1422 -2.6289
  408MOL0     H53852   7.590   9.054   7.179  0.3679 -1.1604  0.7797
  408MOL0     H53853   7.698   8.925   7.151 -0.3621  0.4206  2.8623
  408MOL0     H53854   7.924   9.248   7.240 -2.4496  0.7037  1.0813
  408MOL0     H53855   7.340   8.953   7.233 -0.3141 -0.2905  0.2886
  408MOL0     H53856   7.133   8.896   7.344  2.4654 -1.4858 -2.2761
  409MOL0     O53857   4.111   9.358  11.037  0.4938 -0.5123 -0.1919
  409MOL0     C53858   4.192   9.276  11.073 -0.3384 -0.1216 -0.1250
  409MOL0     O53859   4.153   9.157  11.128 -0.4210 -0.0145 -0.4094
  409MOL0     C53860   4.028   9.104  11.107  0.9533 -0.1947  0.4068
  409MOL0     C53861   3.986   9.046  10.986  0.3688 -1.2680  0.6673
  409MOL0     C53862   3.854   8.990  10.975 -0.6390 -0.3603  0.2186
  409MOL0     C53863   3.773   8.979  11.091  0.0181 -0.4839  0.1910
  409MOL0     O53864   3.652   8.920  11.091  0.8774  0.0780  0.1044
  409MOL0     C53865   3.573   8.935  10.971  0.3477 -0.2315 -0.1126
  409MOL0     C53866   3.427   8.900  11.004 -0.6128 -0.4663 -0.4642
  409MOL0     C53867   3.341   8.931  10.885 -0.2045  0.4314 -0.1472
  409MOL0     C53868   3.208   8.858  10.897  0.3179 -0.4928 -0.2238
  409MOL0     C53869   3.101   8.923  10.804  0.3170 -0.3017 -0.0501
  409MOL0     C53870   3.144   8.941  10.658 -0.0770 -0.0276  0.5107
  409MOL0     C53871   3.020   8.957  10.570 -0.4516  0.2117 -0.0543
  409MOL0     C53872   2.983   8.820  10.505 -0.3160  0.5514 -0.3646
  409MOL0     N53873   2.856   8.843  10.435 -0.6393 -0.6982  0.9932
  409MOL0     C53874   2.838   8.919  10.323  0.8791 -0.0978  0.2943
  409MOL0     C53875   2.700   8.934  10.313  0.2079 -0.1250 -0.3257
  409MOL0     C53876   2.633   9.022  10.206 -0.4538 -0.6146 -0.2607
  409MOL0     C53877   2.544   8.941  10.111 -0.4607  0.2127 -0.6697
  409MOL0     C53878   2.508   9.034   9.995 -0.6942  0.6534  0.5500
  409MOL0     C53879   2.445   8.962   9.874  0.4043  0.1029  0.0982
  409MOL0     O53880   2.422   9.066   9.776 -0.0823  0.0752  0.1625
  409MOL0     C53881   2.304   9.123   9.755  0.2277  0.1605  0.4240
  409MOL0     C53882   2.277   9.179   9.628  0.1796  1.0642 -1.0573
  409MOL0     C53883   2.149   9.232   9.593 -0.3502 -0.1339 -0.1434
  409MOL0     C53884   2.049   9.233   9.693 -0.2832  0.0360  0.2741
  409MOL0     C53885   1.913   9.280   9.663  0.2180 -0.1294  0.5427
  409MOL0     O53886   1.906   9.366   9.560 -0.4394  0.0927  0.9986
  409MOL0     C53887   1.781   9.414   9.522  0.0769  1.0227 -0.1880
  409MOL0     C53888   1.671   9.429   9.604  0.5020 -0.0229 -0.2048
  409MOL0     C53889   1.543   9.465   9.554 -0.5587  0.3504  0.1866
  409MOL0     C53890   1.533   9.513   9.423  0.3863 -1.6062  0.7227
  409MOL0     O53891   1.426   9.573   9.366 -0.3536 -0.6993  0.8170
  409MOL0     C53892   1.299   9.561   9.430 -0.0509 -0.2248  0.7401
  409MOL0     C53893   1.174   9.595   9.341  0.0688 -0.5326  0.0210
  409MOL0     C53894   1.174   9.723   9.259 -0.0666  0.0763 -0.9542
  409MOL0     C53895   1.043   9.790   9.220  0.3070 -0.2173  0.4905
  409MOL0     C53896   1.071   9.937   9.170  0.3046  0.9817 -0.2486
  409MOL0     C53897   0.933  10.008   9.176 -0.3743 -0.1215 -0.1521
  409MOL0     C53898   0.945  10.163   9.133 -0.3065  1.4914  0.2879
  409MOL0     C53899   0.806  10.230   9.153  0.2980 -0.9723 -0.8749
  409MOL0    Cl53900   0.764  10.222   9.329 -0.1397 -0.1785 -0.2375
  409MOL0     C53901   1.648   9.508   9.339  0.4526 -0.0660  0.1190
  409MOL0     C53902   1.773   9.463   9.392 -0.3193 -0.4898  0.0446
  409MOL0     O53903   1.815   9.230   9.725 -0.9615  0.5662 -0.5018
  409MOL0     C53904   2.072   9.175   9.814  0.7841  0.8272 -0.6522
  409MOL0     C53905   2.204   9.123   9.851  0.1869  0.4169  0.5843
  409MOL0     N53906   2.641   8.862  10.414  0.1219  0.4852  0.4227
  409MOL0     N53907   2.734   8.814  10.480  0.4037  0.3395 -0.4313
  409MOL0     C53908   3.827   9.024  11.209  0.0568  0.9237 -0.3858
  409MOL0     C53909   3.946   9.090  11.216  0.3972  0.5111  1.0470
  409MOL0     C53910   4.338   9.318  11.088  0.1948 -0.0726  1.1595
  409MOL0     C53911   4.389   9.430  11.027 -0.7314  0.7152  0.4572
  409MOL0     C53912   4.518   9.473  11.045 -0.6298  0.8940  0.1026
  409MOL0     C53913   4.606   9.389  11.117 -0.1701 -0.8066  1.1864
  409MOL0     O53914   4.745   9.418  11.118  0.6922 -0.0594 -0.1924
  409MOL0     C53915   4.833   9.305  11.136 -0.4391 -0.2859  0.4882
  409MOL0     C53916   4.839   9.224  11.001 -0.7215 -0.5300 -0.1886
  409MOL0     C53917   4.975   9.151  11.009 -0.9380 -0.2360 -0.1132
  409MOL0     C53918   5.004   9.055  10.887  0.2912 -0.3398 -0.4410
  409MOL0     C53919   5.011   9.136  10.766 -0.3013 -0.3072 -1.0272
  409MOL0     C53920   5.014   9.201  10.665  0.1622 -0.3418 -0.1417
  409MOL0     C53921   4.551   9.269  11.171 -0.1051  0.0490  0.9171
  409MOL0     C53922   4.415   9.246  11.165  0.6426  0.4890 -0.7912
  409MOL0     H53923   4.060   9.056  10.908 -0.0484 -2.9680  0.0246
  409MOL0     H53924   3.819   8.969  10.875  0.8236  3.0389 -1.1656
  409MOL0     H53925   3.605   8.862  10.896  1.8626 -1.5585  1.7393
  409MOL0     H53926   3.581   9.037  10.932 -0.5719 -1.1460 -2.9838
  409MOL0     H53927   3.390   8.967  11.083  2.4194  0.4407  0.3367
  409MOL0     H53928   3.416   8.800  11.047  0.9467 -0.8386 -0.8702
  409MOL0     H53929   3.380   8.894  10.789 -1.6182  0.6743 -0.8350
  409MOL0     H53930   3.323   9.038  10.873 -1.2977  0.4262  1.3092
  409MOL0     H53931   3.219   8.752  10.870  1.3640  0.2121 -2.8250
  409MOL0     H53932   3.172   8.875  10.999 -2.1248  0.9237 -1.2494
  409MOL0     H53933   3.078   9.027  10.829 -1.1531 -0.1433 -1.8724
  409MOL0     H53934   3.011   8.862  10.797 -1.1998  1.6327  1.2087
  409MOL0     H53935   3.191   8.848  10.621 -1.7427 -0.4747 -0.5851
  409MOL0     H53936   3.208   9.029  10.648  0.3575 -0.4226 -0.3775
  409MOL0     H53937   2.934   8.990  10.629  0.6914 -0.2982  2.0141
  409MOL0     H53938   3.033   9.033  10.493 -0.8497  1.6039  1.1948
  409MOL0     H53939   2.973   8.735  10.573 -0.5042 -2.2965 -3.6380
  409MOL0     H53940   3.053   8.791  10.425  0.3995  1.8503 -0.2453
  409MOL0     H53941   2.908   8.961  10.252  0.5242  1.7933  1.0016
  409MOL0     H53942   2.719   9.066  10.155 -1.1543 -1.2403 -2.0451
  409MOL0     H53943   2.572   9.105  10.242 -2.5140 -1.8207 -0.8413
  409MOL0     H53944   2.453   8.913  10.165  0.5184  0.8722  1.4594
  409MOL0     H53945   2.601   8.856  10.074  1.3461  0.0010  2.2967
  409MOL0     H53946   2.438   9.116  10.018  2.2870  3.8011 -0.7834
  409MOL0     H53947   2.594   9.089   9.958  0.0329 -0.0154  1.2143
  409MOL0     H53948   2.360   8.897   9.897  1.8254 -2.7936 -2.2261
  409MOL0     H53949   2.521   8.897   9.830 -0.0557  0.3910 -1.1485
  409MOL0     H53950   2.364   9.181   9.563  1.2377  2.4243  0.3073
  409MOL0     H53951   2.132   9.264   9.491  0.7122  0.6824 -0.0832
  409MOL0     H53952   1.667   9.403   9.709  2.8355 -2.1555 -0.5165
  409MOL0     H53953   1.457   9.460   9.620  0.0291 -1.0369  0.8986
  409MOL0     H53954   1.296   9.631   9.513  2.6561  1.0580 -0.1453
  409MOL0     H53955   1.288   9.456   9.459 -3.4286 -0.1629  0.1520
  409MOL0     H53956   1.084   9.594   9.403  1.4892  2.6146  2.4508
  409MOL0     H53957   1.158   9.515   9.268 -0.5525  0.0940 -0.5417
  409MOL0     H53958   1.233   9.705   9.169  0.1203  0.5176 -0.9278
  409MOL0     H53959   1.241   9.789   9.317 -1.2186 -1.1611  1.9850
  409MOL0     H53960   0.989   9.729   9.146 -0.0593  2.0644 -1.2343
  409MOL0     H53961   0.977   9.797   9.308  1.4306 -1.3571  1.4650
  409MOL0     H53962   1.114   9.937   9.070 -0.2134  0.1080 -0.4904
  409MOL0     H53963   1.143   9.995   9.228  0.1430 -0.6344  1.7014
  409MOL0     H53964   0.899   9.989   9.278  1.7480 -1.6358  0.3481
  409MOL0     H53965   0.871   9.953   9.104 -2.0025  0.5944  0.6706
  409MOL0     H53966   1.025  10.216   9.187  3.2697 -4.2241  1.3974
  409MOL0     H53967   0.974  10.163   9.028 -0.4862  0.9699  0.2381
  409MOL0     H53968   0.720  10.195   9.096 -1.9949  4.1005 -1.1045
  409MOL0     H53969   0.807  10.336   9.123  2.8121 -0.4409  0.7696
  409MOL0     H53970   1.652   9.555   9.241  1.4646  1.9463  1.0503
  409MOL0     H53971   1.865   9.472   9.336  1.0119  2.3164  2.3919
  409MOL0     H53972   1.990   9.182   9.885  0.1547 -0.2671 -1.2469
  409MOL0     H53973   2.216   9.080   9.950 -0.6841 -0.8750  0.1386
  409MOL0     H53974   3.769   9.020  11.301  0.0957  2.3051 -0.2907
  409MOL0     H53975   3.978   9.150  11.301  0.6924  2.1694 -0.2001
  409MOL0     H53976   4.321   9.483  10.961 -0.3954  0.0471 -0.4517
  409MOL0     H53977   4.559   9.561  10.996 -2.6875  1.8454 -0.0047
  409MOL0     H53978   4.805   9.232  11.213 -2.6275 -0.8118 -0.7225
  409MOL0     H53979   4.933   9.346  11.153 -1.3554  3.3570 -1.7676
  409MOL0     H53980   4.757   9.153  11.011 -1.6170  0.4753 -0.2811
  409MOL0     H53981   4.822   9.286  10.913 -2.1543  3.1556  2.4537
  409MOL0     H53982   4.973   9.078  11.091 -3.2199 -0.1030  0.0198
  409MOL0     H53983   5.066   9.212  11.021  1.1357 -2.4090 -3.1799
  409MOL0     H53984   5.100   9.004  10.898  1.4107  1.6827 -0.4473
  409MOL0     H53985   4.934   8.973  10.869  1.4533 -1.5887  0.5679
  409MOL0     H53986   5.010   9.267  10.581 -1.0996  1.1690  1.0462
  409MOL0     H53987   4.608   9.199  11.231  2.8015 -0.7630 -2.4126
  409MOL0     H53988   4.369   9.164  11.220 -0.2137  1.2289 -0.3792
  410MOL0     O53989   2.961  10.968   2.088  0.4061 -0.5144  0.2600
  410MOL0     C53990   3.012  11.048   2.010 -0.3608 -0.3750  0.1283
  410MOL0     O53991   2.959  11.171   1.969  0.0253  0.0380 -0.5613
  410MOL0     C53992   2.830  11.194   2.007 -0.6685  0.4321  0.1756
  410MOL0     C53993   2.795  11.272   2.120  0.1931  0.4710  0.4655
  410MOL0     C53994   2.659  11.283   2.158  0.6929  0.2599 -0.0004
  410MOL0     C53995   2.556  11.229   2.084 -0.3829 -0.1177  0.6092
  410MOL0     O53996   2.430  11.257   2.130  0.0890 -0.1325 -0.2745
  410MOL0     C53997   2.321  11.222   2.046 -0.1945 -0.7643  0.1983
  410MOL0     C53998   2.193  11.251   2.118 -0.7480 -0.1392 -0.5936
  410MOL0     C53999   2.076  11.263   2.022 -0.0995 -1.0714  0.3533
  410MOL0     C54000   1.947  11.276   2.103  0.5258  0.0713 -0.0719
  410MOL0     C54001   1.834  11.324   2.015  0.2022  0.2674 -0.3738
  410MOL0     C54002   1.711  11.368   2.086 -0.9014  0.2763  0.4610
  410MOL0     C54003   1.605  11.411   1.992 -0.6053  0.2389  0.0559
  410MOL0     C54004   1.501  11.492   2.076 -0.5249  0.8052  0.3509
  410MOL0     N54005   1.421  11.389   2.152 -0.0249  0.2683 -0.3285
  410MOL0     C54006   1.300  11.342   2.101  0.5950 -0.6224 -0.0308
  410MOL0     C54007   1.247  11.275   2.205 -0.4497  0.0555 -0.0182
  410MOL0     C54008   1.122  11.196   2.219  0.1496 -0.3445  0.5867
  410MOL0     C54009   1.033  11.254   2.331 -0.0585 -0.0488  0.5507
  410MOL0     C54010   0.986  11.404   2.307  0.6914  0.4442 -0.0910
  410MOL0     C54011   0.901  11.443   2.427  0.8572  1.2019  0.3723
  410MOL0     O54012   0.865  11.584   2.422 -0.3339  0.3781  0.2109
  410MOL0     C54013   0.794  11.634   2.530 -0.5066 -0.6981  0.3539
  410MOL0     C54014   0.748  11.767   2.522 -1.4939 -0.0995 -0.1608
  410MOL0     C54015   0.690  11.834   2.634 -0.2763 -0.4680 -0.0964
  410MOL0     C54016   0.671  11.765   2.754  0.3897 -0.3617 -0.0795
  410MOL0     C54017   0.615  11.825   2.874 -0.2963 -0.0661 -0.4842
  410MOL0     O54018   0.620  11.756   2.989  0.1975  1.1057 -0.4238
  410MOL0     C54019   0.587  11.811   3.105  0.4554  0.4071  0.3683
  410MOL0     C54020   0.665  11.777   3.216 -0.1094 -1.4841 -0.7097
  410MOL0     C54021   0.631  11.825   3.345  0.3534  0.5470 -0.1362
  410MOL0     C54022   0.534  11.908   3.360  1.1771 -0.3745 -0.1025
  410MOL0     O54023   0.509  11.972   3.487  0.7282 -0.0496 -0.1483
  410MOL0     C54024   0.553  11.904   3.605  0.7672 -0.0293  0.8154
  410MOL0     C54025   0.479  11.961   3.725 -0.4143 -1.1344  0.3601
  410MOL0     C54026   0.327  11.938   3.702 -0.0310  0.2782 -0.3873
  410MOL0     C54027   0.244  12.009   3.807  0.0851  0.0485  0.1637
  410MOL0     C54028   0.091  11.976   3.797  0.3901  0.3024  0.0192
  410MOL0     C54029   0.020  12.049   3.907  0.4350  0.4887 -0.4058
  410MOL0     C54030  -0.129  12.059   3.882 -0.0112  0.3880  0.4139
  410MOL0     C54031  -0.202  12.116   4.007 -0.1287 -0.6513 -0.6087
  410MOL0    Cl54032  -0.367  12.171   3.978  0.3326  0.5991 -0.0124
  410MOL0     C54033   0.448  11.934   3.256 -0.9828  0.6005 -0.7727
  410MOL0     C54034   0.470  11.882   3.132  0.3286  0.4859 -0.0732
  410MOL0     O54035   0.566  11.940   2.864 -0.3565  0.1796  0.0506
  410MOL0     C54036   0.717  11.631   2.758 -0.5699 -0.6773 -0.1982
  410MOL0     C54037   0.781  11.568   2.648 -0.2977  0.4077 -0.0351
  410MOL0     N54038   1.332  11.288   2.318 -0.7526  0.5357  0.8094
  410MOL0     N54039   1.434  11.355   2.281 -0.0390  0.0111  0.5071
  410MOL0     C54040   2.590  11.157   1.973 -0.2633 -0.1271 -0.3652
  410MOL0     C54041   2.726  11.137   1.940 -1.2371  0.4657 -0.0775
  410MOL0     C54042   3.147  11.023   1.953 -0.0563 -0.0046 -0.4861
  410MOL0     C54043   3.179  11.079   1.831 -0.1132  0.2023 -0.4158
  410MOL0     C54044   3.292  11.045   1.765 -0.8060 -0.1330 -0.0426
  410MOL0     C54045   3.387  10.961   1.830  0.4548 -0.5121 -0.5635
  410MOL0     O54046   3.498  10.949   1.756 -0.2449 -0.4670  0.4002
  410MOL0     C54047   3.608  10.873   1.823 -0.5731 -0.9949 -0.2214
  410MOL0     C54048   3.715  10.846   1.716  0.9605 -0.9411  0.1572
  410MOL0     C54049   3.862  10.836   1.759  0.9083  0.4649  0.9235
  410MOL0     C54050   3.908  10.720   1.847 -0.2913 -0.5635  0.3587
  410MOL0     C54051   3.816  10.657   1.946  0.2541 -0.1722 -0.4428
  410MOL0     C54052   3.772  10.588   2.038  0.0707  0.8435  0.3144
  410MOL0     C54053   3.357  10.909   1.960  0.0366  0.6006  0.5925
  410MOL0     C54054   3.242  10.947   2.022  0.5555  0.2795  0.2881
  410MOL0     H54055   2.883  11.318   2.162  0.1244  1.9106 -0.8651
  410MOL0     H54056   2.630  11.340   2.245  2.5227  0.3993  0.5565
  410MOL0     H54057   2.324  11.117   2.016  2.0592 -0.2065 -1.8605
  410MOL0     H54058   2.330  11.294   1.964  2.7620 -0.7563  0.3985
  410MOL0     H54059   2.198  11.347   2.170 -0.3525 -0.5075  0.0586
  410MOL0     H54060   2.174  11.160   2.177 -1.8864 -0.6747 -1.7135
  410MOL0     H54061   2.073  11.185   1.945  0.6285 -0.7938  0.0398
  410MOL0     H54062   2.074  11.362   1.977  1.4029 -0.7441  0.9611
  410MOL0     H54063   1.924  11.177   2.145  0.3497 -0.0381 -0.4197
  410MOL0     H54064   1.955  11.342   2.189  0.6580 -0.3729  0.2610
  410MOL0     H54065   1.804  11.241   1.949  0.2370  0.3703 -0.5199
  410MOL0     H54066   1.854  11.419   1.964  1.0020  0.6041  0.5490
  410MOL0     H54067   1.742  11.449   2.153  2.8034 -0.3712 -0.2577
  410MOL0     H54068   1.669  11.287   2.146  0.0469  0.2403  1.0982
  410MOL0     H54069   1.642  11.473   1.910 -1.6293 -1.4988 -1.7996
  410MOL0     H54070   1.559  11.328   1.939 -0.9740  0.2360  0.3711
  410MOL0     H54071   1.435  11.551   2.012  0.2281 -0.7668 -1.9723
  410MOL0     H54072   1.545  11.562   2.148 -1.9166  0.3193  1.7280
  410MOL0     H54073   1.251  11.355   2.005  1.4956 -0.0334 -0.4266
  410MOL0     H54074   1.137  11.088   2.225  0.5317 -0.2779  0.8374
  410MOL0     H54075   1.065  11.211   2.126 -0.6697  2.6387  1.4348
  410MOL0     H54076   1.090  11.249   2.424  1.5894  0.7175 -0.3680
  410MOL0     H54077   0.942  11.194   2.324  0.6012 -1.0672  0.3609
  410MOL0     H54078   1.080  11.460   2.305  2.2032 -1.6291  3.0936
  410MOL0     H54079   0.931  11.414   2.213  0.4630  1.7948  0.1753
  410MOL0     H54080   0.958  11.426   2.519 -1.3002  2.5346  2.0447
  410MOL0     H54081   0.810  11.383   2.437  0.1820  1.7577 -1.7389
  410MOL0     H54082   0.780  11.826   2.436 -0.1855  0.5358  0.7237
  410MOL0     H54083   0.653  11.935   2.621  1.6913  0.4577  1.0467
  410MOL0     H54084   0.746  11.707   3.201  0.3969 -0.8162 -1.1388
  410MOL0     H54085   0.700  11.783   3.418  2.0280 -0.8461 -2.3996
  410MOL0     H54086   0.662  11.908   3.611  0.6790  2.6622  1.7499
  410MOL0     H54087   0.519  11.800   3.602  1.6759 -0.3422  1.1892
  410MOL0     H54088   0.512  12.065   3.734  1.1451 -1.6658  1.1975
  410MOL0     H54089   0.503  11.915   3.821 -1.1662  1.1482  1.7417
  410MOL0     H54090   0.304  11.831   3.699 -0.0371  0.1636  2.0036
  410MOL0     H54091   0.290  11.986   3.611 -1.6556  0.3001  0.2414
  410MOL0     H54092   0.263  11.965   3.905  1.2139 -0.2792 -0.1803
  410MOL0     H54093   0.263  12.116   3.802 -1.9279  0.3999 -0.9645
  410MOL0     H54094   0.068  11.872   3.817 -2.3148  0.9217  0.4825
  410MOL0     H54095   0.060  12.014   3.699 -1.7960  0.4532  0.7228
  410MOL0     H54096   0.065  12.149   3.902  3.0520 -0.5583  0.5103
  410MOL0     H54097   0.038  11.993   3.998  1.3303  0.1178 -0.8041
  410MOL0     H54098  -0.142  12.120   3.793  2.1460 -1.4805 -1.3178
  410MOL0     H54099  -0.165  11.959   3.856  1.3657 -0.1365  0.4101
  410MOL0     H54100  -0.142  12.206   4.023 -1.2304 -0.1004  0.6957
  410MOL0     H54101  -0.199  12.045   4.090  0.2565  0.1386  0.0650
  410MOL0     H54102   0.353  11.984   3.273 -0.7024  0.4999  1.3185
  410MOL0     H54103   0.403  11.912   3.053 -1.0558  0.0791  0.9106
  410MOL0     H54104   0.699  11.569   2.845 -2.3657  0.9241  0.6622
  410MOL0     H54105   0.815  11.466   2.666  1.9879  1.4162  1.8706
  410MOL0     H54106   2.512  11.120   1.908 -0.6211  2.7845 -1.7794
  410MOL0     H54107   2.761  11.077   1.856  0.0802 -1.9386  2.0316
  410MOL0     H54108   3.105  11.136   1.776  0.5497  0.2618 -1.2770
  410MOL0     H54109   3.308  11.079   1.663 -1.9838 -2.7328 -1.1748
  410MOL0     H54110   3.577  10.781   1.874  1.5561 -0.8300  1.5205
  410MOL0     H54111   3.646  10.939   1.903  1.1479  2.0612 -3.2886
  410MOL0     H54112   3.687  10.758   1.658  1.2807  0.5101 -2.3680
  410MOL0     H54113   3.714  10.933   1.649 -1.9156 -2.3616 -1.8535
  410MOL0     H54114   3.902  10.925   1.808  1.0148  1.7037 -1.2939
  410MOL0     H54115   3.926  10.826   1.671  1.1380  0.9702  1.0291
  410MOL0     H54116   3.932  10.639   1.778 -0.1342  1.8378 -2.5721
  410MOL0     H54117   3.997  10.761   1.897 -0.1188 -0.1357 -0.2959
  410MOL0     H54118   3.725  10.534   2.118  2.1922 -0.2994  0.8659
  410MOL0     H54119   3.433  10.849   2.010  1.4341  1.6851 -0.1445
  410MOL0     H54120   3.218  10.938   2.128 -1.3038  1.2612 -0.0092
  411MOL0     O54121   4.031   2.102   7.758  0.3254  0.3685  0.3340
  411MOL0     C54122   4.098   2.049   7.671 -0.0640  0.6121 -0.4133
  411MOL0     O54123   4.081   2.063   7.536 -0.7479  0.9519  0.5685
  411MOL0     C54124   3.962   2.110   7.495  0.2691  0.1114  0.2056
  411MOL0     C54125   3.875   2.008   7.444  0.3240 -0.9294 -0.0735
  411MOL0     C54126   3.744   2.048   7.400 -0.0175 -0.4047  0.0996
  411MOL0     C54127   3.700   2.177   7.401 -0.2200 -0.1036  0.2974
  411MOL0     O54128   3.570   2.188   7.356  0.2480 -0.5779 -0.3738
  411MOL0     C54129   3.503   2.309   7.331  0.1708  0.8639 -0.7664
  411MOL0     C54130   3.374   2.269   7.254 -0.0807 -0.0623  0.7880
  411MOL0     C54131   3.286   2.182   7.340 -0.2764  0.4397 -0.4271
  411MOL0     C54132   3.157   2.150   7.261 -0.2464  0.3279  0.1963
  411MOL0     C54133   3.099   2.011   7.296 -0.0876  0.2774  0.4511
  411MOL0     C54134   3.037   2.006   7.440  0.0759  0.3320 -0.0872
  411MOL0     C54135   2.972   1.867   7.468  0.1366 -0.5806  0.7002
  411MOL0     C54136   2.836   1.876   7.545 -1.0551  0.2157 -0.1189
  411MOL0     N54137   2.720   1.905   7.459 -0.1024 -0.4139 -0.0796
  411MOL0     C54138   2.675   2.043   7.438 -1.0287  0.0314 -0.0251
  411MOL0     C54139   2.584   2.036   7.335  0.0887  0.1584 -0.3256
  411MOL0     C54140   2.522   2.151   7.269  0.2081 -0.1788  0.1194
  411MOL0     C54141   2.374   2.159   7.304 -0.3163 -0.0941 -0.3074
  411MOL0     C54142   2.282   2.050   7.228 -0.8473 -0.2171 -0.0209
  411MOL0     C54143   2.243   2.094   7.087  0.0533  0.7898  1.0954
  411MOL0     O54144   2.159   2.209   7.085 -0.1935 -0.3982 -0.1464
  411MOL0     C54145   2.027   2.201   7.095 -0.1842 -0.3356  0.0956
  411MOL0     C54146   1.956   2.082   7.097  0.2078 -1.2476  0.0519
  411MOL0     C54147   1.815   2.082   7.107  0.7347 -0.3114  0.3969
  411MOL0     C54148   1.737   2.201   7.117 -0.5783  0.2588  0.3454
  411MOL0     C54149   1.589   2.197   7.140  0.5385 -0.2946  0.2279
  411MOL0     O54150   1.527   2.314   7.147  0.8116 -0.1894 -0.5938
  411MOL0     C54151   1.389   2.315   7.152 -0.1117  0.2485  0.3060
  411MOL0     C54152   1.312   2.255   7.250 -0.0125  0.5942  0.6465
  411MOL0     C54153   1.170   2.260   7.247 -0.5189 -0.0905  0.8133
  411MOL0     C54154   1.108   2.342   7.151 -1.3167  0.0817 -0.1398
  411MOL0     O54155   0.972   2.327   7.146  1.2720  0.3425 -0.2222
  411MOL0     C54156   0.902   2.393   7.036  0.3278 -0.5018  0.7186
  411MOL0     C54157   0.758   2.395   7.059 -0.0237  0.6558 -0.3172
  411MOL0     C54158   0.693   2.257   7.087 -0.4534 -0.6512 -0.1350
  411MOL0     C54159   0.546   2.280   7.095  0.7482  0.7806 -0.2207
  411MOL0     C54160   0.480   2.155   7.139 -0.0443 -0.1470 -0.1757
  411MOL0     C54161   0.332   2.173   7.085  0.3952  0.0711  0.4809
  411MOL0     C54162   0.219   2.101   7.165 -0.9233  0.5528 -0.5875
  411MOL0     C54163   0.084   2.110   7.101  0.1222  1.4157  0.5792
  411MOL0    Cl54164  -0.036   2.063   7.221 -0.5439  0.2297 -0.1657
  411MOL0     C54165   1.188   2.412   7.056 -0.9368 -0.1025  0.6231
  411MOL0     C54166   1.333   2.396   7.059  0.6944  0.1837 -0.4215
  411MOL0     O54167   1.534   2.084   7.141 -0.2734 -0.3316  0.5678
  411MOL0     C54168   1.811   2.323   7.105 -0.2329 -0.0039  0.1075
  411MOL0     C54169   1.951   2.324   7.081  0.4648  0.4878 -0.4886
  411MOL0     N54170   2.578   1.908   7.288 -0.0046  0.3835  0.1017
  411MOL0     N54171   2.665   1.840   7.352  0.8313  0.3008 -0.3815
  411MOL0     C54172   3.785   2.279   7.446 -0.1439  0.5558 -0.3199
  411MOL0     C54173   3.916   2.244   7.492 -0.5311 -0.4872  0.1115
  411MOL0     C54174   4.210   1.963   7.720  0.2490  0.0862  0.5737
  411MOL0     C54175   4.304   1.899   7.634 -0.1480  1.0325  0.0703
  411MOL0     C54176   4.398   1.802   7.681  0.1555 -0.1283  0.2400
  411MOL0     C54177   4.397   1.769   7.815 -0.0922  0.4179 -0.8317
  411MOL0     O54178   4.495   1.678   7.847  0.5227 -0.2260  0.3190
  411MOL0     C54179   4.482   1.596   7.966  0.6691  0.1428 -0.1780
  411MOL0     C54180   4.612   1.536   8.003  0.2492 -0.1070 -0.5945
  411MOL0     C54181   4.744   1.592   7.942  0.1770 -0.6432 -0.2773
  411MOL0     C54182   4.881   1.571   8.015  0.0319  0.4114 -0.8800
  411MOL0     C54183   4.974   1.642   7.934 -0.5404  0.7351  0.0661
  411MOL0     C54184   5.056   1.706   7.872 -0.2649  0.1068  1.1166
  411MOL0     C54185   4.310   1.833   7.913  0.2141  1.0188  0.4091
  411MOL0     C54186   4.218   1.920   7.857 -0.5986  0.2756 -0.3725
  411MOL0     H54187   3.911   1.905   7.442  1.0437 -0.6985 -2.4609
  411MOL0     H54188   3.670   1.978   7.363 -0.6037  0.6212 -0.7090
  411MOL0     H54189   3.565   2.378   7.273  0.6472  1.3258  0.2857
  411MOL0     H54190   3.474   2.349   7.428  1.7134  0.0895  0.0419
  411MOL0     H54191   3.408   2.218   7.164  1.6238  0.7112  0.9646
  411MOL0     H54192   3.306   2.354   7.242  0.8136  0.3985 -1.5048
  411MOL0     H54193   3.262   2.225   7.437  0.0876 -2.6002  1.1283
  411MOL0     H54194   3.349   2.098   7.368  1.7838  2.4091  1.2069
  411MOL0     H54195   3.079   2.227   7.262 -0.7615 -0.0758 -2.1380
  411MOL0     H54196   3.182   2.139   7.155 -0.4510  1.3160  0.0290
  411MOL0     H54197   3.176   1.934   7.295 -0.1429  0.2259  0.2151
  411MOL0     H54198   3.018   1.989   7.225 -0.2193  3.1815 -0.4555
  411MOL0     H54199   2.961   2.084   7.445 -0.0529  0.4639 -2.7557
  411MOL0     H54200   3.119   2.028   7.509  1.8574 -0.1598 -1.9408
  411MOL0     H54201   2.948   1.815   7.375  1.3690  2.0002 -1.2201
  411MOL0     H54202   3.049   1.807   7.517  2.8166 -1.1158 -3.5527
  411MOL0     H54203   2.833   1.952   7.624 -0.1287  1.0664 -0.8604
  411MOL0     H54204   2.827   1.776   7.588 -0.7035  0.3996  0.3898
  411MOL0     H54205   2.714   2.130   7.489 -1.0986  0.3272 -0.4770
  411MOL0     H54206   2.533   2.148   7.160  0.9592  1.5587  0.1060
  411MOL0     H54207   2.572   2.246   7.292  1.5111 -0.5478 -1.0081
  411MOL0     H54208   2.333   2.257   7.279 -3.2088 -1.4030 -1.2023
  411MOL0     H54209   2.351   2.146   7.410 -1.5157  0.7229 -0.4454
  411MOL0     H54210   2.322   1.949   7.242 -0.6318  0.2062  3.1835
  411MOL0     H54211   2.187   2.044   7.280 -0.2828 -1.9803  0.8759
  411MOL0     H54212   2.209   2.009   7.027  2.6565 -0.6747  1.5525
  411MOL0     H54213   2.329   2.121   7.024 -1.3061  2.3342 -0.1947
  411MOL0     H54214   2.010   1.992   7.071  1.0248 -0.5856 -0.6226
  411MOL0     H54215   1.760   1.988   7.105  0.2807 -0.0367 -1.1907
  411MOL0     H54216   1.355   2.192   7.327 -0.9631 -0.5207  0.2847
  411MOL0     H54217   1.105   2.210   7.318 -1.8586 -0.0381 -0.3586
  411MOL0     H54218   0.914   2.335   6.944 -3.3437 -0.7487  0.2490
  411MOL0     H54219   0.932   2.497   7.023 -2.2843  0.0719 -1.8085
  411MOL0     H54220   0.712   2.435   6.967 -0.0192 -1.2352 -1.1921
  411MOL0     H54221   0.726   2.456   7.144  0.3930 -2.3766  2.1597
  411MOL0     H54222   0.733   2.213   7.179  3.1307  4.3717  1.1735
  411MOL0     H54223   0.716   2.198   6.998  2.5052 -0.5004  0.4173
  411MOL0     H54224   0.525   2.359   7.169 -3.1454  0.8616 -1.1750
  411MOL0     H54225   0.516   2.313   6.995  2.3170  1.4817 -0.4794
  411MOL0     H54226   0.490   2.147   7.248 -1.4198  3.7255  0.3937
  411MOL0     H54227   0.525   2.073   7.083 -0.4369 -0.3283 -0.2239
  411MOL0     H54228   0.331   2.162   6.976 -1.1170  1.9298  0.2588
  411MOL0     H54229   0.308   2.278   7.102 -0.9646 -0.3103  0.9958
  411MOL0     H54230   0.248   1.996   7.172  0.0790  0.9227  2.2280
  411MOL0     H54231   0.224   2.139   7.267  1.8590 -1.9549  0.3733
  411MOL0     H54232   0.084   2.042   7.016  0.6505  0.1285  1.5768
  411MOL0     H54233   0.069   2.215   7.072 -0.1724  1.4581  0.8812
  411MOL0     H54234   1.147   2.489   6.992 -1.7580  0.9818  2.3863
  411MOL0     H54235   1.404   2.440   6.990  0.9374  0.9741  0.3028
  411MOL0     H54236   1.753   2.415   7.109 -0.3813 -0.1012  0.2182
  411MOL0     H54237   2.002   2.416   7.054  1.5969  0.2765  0.8280
  411MOL0     H54238   3.748   2.380   7.457  2.0070  1.1943  1.8810
  411MOL0     H54239   3.987   2.319   7.524 -1.0352 -1.4880  4.1369
  411MOL0     H54240   4.298   1.929   7.530 -1.3339 -0.7223 -0.4155
  411MOL0     H54241   4.466   1.756   7.610  1.5485  2.1068  0.0484
  411MOL0     H54242   4.409   1.516   7.953  1.0278 -0.2410  0.1372
  411MOL0     H54243   4.449   1.652   8.054 -0.1691 -0.8031  0.1325
  411MOL0     H54244   4.626   1.553   8.110  4.6623  1.3220 -1.1908
  411MOL0     H54245   4.617   1.429   7.980  0.4246  0.3898 -3.1485
  411MOL0     H54246   4.727   1.698   7.924  1.7768 -0.3309 -0.1594
  411MOL0     H54247   4.757   1.532   7.851 -0.1825  0.2161 -0.9076
  411MOL0     H54248   4.876   1.615   8.115 -2.0656  1.0772 -1.2317
  411MOL0     H54249   4.916   1.469   8.031 -0.8285  0.0030 -1.5430
  411MOL0     H54250   5.116   1.767   7.808 -1.5039  0.6803  0.4719
  411MOL0     H54251   4.301   1.791   8.013  0.1348 -1.0566 -0.4087
  411MOL0     H54252   4.154   1.972   7.928  1.4350  1.8105  0.4397
  412MOL0     O54253  10.674   1.788   6.817  0.3229  0.7590  0.4618
  412MOL0     C54254  10.735   1.840   6.726 -0.4884  0.0181 -0.2163
  412MOL0     O54255  10.681   1.899   6.626  0.0833 -0.3247 -0.5733
  412MOL0     C54256  10.544   1.878   6.599  0.8628  0.1086  0.8101
  412MOL0     C54257  10.445   1.943   6.674  0.1838 -0.3978  0.1284
  412MOL0     C54258  10.312   1.939   6.630  0.4052 -0.0246 -0.9812
  412MOL0     C54259  10.269   1.840   6.540 -0.3933 -0.8310 -0.4875
  412MOL0     O54260  10.135   1.835   6.526  0.1511  0.1120  0.2712
  412MOL0     C54261  10.073   1.741   6.430  0.0189  0.2361  0.4369
  412MOL0     C54262  10.033   1.617   6.506  0.0885  0.4521 -0.4436
  412MOL0     C54263   9.975   1.497   6.432 -0.1772 -0.3935  1.5496
  412MOL0     C54264   9.953   1.378   6.529 -0.5313 -0.3523 -0.5307
  412MOL0     C54265   9.927   1.259   6.452  0.5809  0.8168 -0.8307
  412MOL0     C54266   9.786   1.242   6.398  0.4813  0.0905 -0.1461
  412MOL0     C54267   9.745   1.098   6.365  0.1891  0.3596  0.3144
  412MOL0     C54268   9.615   1.081   6.287 -0.2874  0.2616  0.6859
  412MOL0     N54269   9.490   1.130   6.355  0.7585  0.2354  0.7018
  412MOL0     C54270   9.402   1.047   6.429 -0.1884 -0.0840  0.5538
  412MOL0     C54271   9.321   1.142   6.485 -0.3355 -0.6159 -0.1430
  412MOL0     C54272   9.207   1.122   6.579 -0.0075  0.2334 -0.4667
  412MOL0     C54273   9.112   1.018   6.539 -0.0748  0.1557 -0.0580
  412MOL0     C54274   9.035   1.071   6.415  0.2784  0.5054  0.1687
  412MOL0     C54275   8.968   0.953   6.344  0.0388 -0.2310  1.0742
  412MOL0     O54276   8.857   0.911   6.413  0.2488  0.2246 -0.4843
  412MOL0     C54277   8.733   0.928   6.358 -0.3280 -0.2930  0.1141
  412MOL0     C54278   8.701   1.020   6.251 -0.6605  0.7232  0.1661
  412MOL0     C54279   8.581   1.029   6.196  0.3972 -0.2101 -0.6593
  412MOL0     C54280   8.470   0.960   6.261  0.2501 -0.7604  0.3840
  412MOL0     C54281   8.337   0.979   6.205  0.5623  0.3549  0.0777
  412MOL0     O54282   8.259   0.867   6.214  0.1965  0.4264 -0.0093
  412MOL0     C54283   8.132   0.858   6.158 -0.1995  0.1675 -0.4775
  412MOL0     C54284   8.088   0.940   6.046 -0.5170  0.5488  0.2993
  412MOL0     C54285   7.961   0.912   5.993  0.1734  0.2978  0.1823
  412MOL0     C54286   7.884   0.814   6.036  0.6934 -0.0134  0.0283
  412MOL0     O54287   7.764   0.808   5.969  0.0042  0.2604  0.1781
  412MOL0     C54288   7.651   0.818   6.048  0.0263  0.3142 -0.4390
  412MOL0     C54289   7.521   0.787   5.967  0.2076  0.5562 -0.2286
  412MOL0     C54290   7.513   0.635   5.947  0.0165  0.6834 -0.2876
  412MOL0     C54291   7.378   0.598   5.891  0.5265  0.6082  0.7546
  412MOL0     C54292   7.376   0.454   5.842 -1.0292 -0.8003  0.1102
  412MOL0     C54293   7.237   0.413   5.799 -0.2642  0.0416  0.0352
  412MOL0     C54294   7.241   0.293   5.699  1.0328  0.0537 -0.2295
  412MOL0     C54295   7.138   0.301   5.599 -0.6047 -0.3234 -0.1061
  412MOL0    Cl54296   6.965   0.277   5.652  0.3491  0.0687 -0.2932
  412MOL0     C54297   7.928   0.732   6.135 -0.5748  0.7553  0.5088
  412MOL0     C54298   8.050   0.750   6.191 -0.9135 -0.2207  0.9348
  412MOL0     O54299   8.308   1.085   6.153  0.4200  0.0194  1.4832
  412MOL0     C54300   8.499   0.870   6.366 -0.1909  0.1070 -0.7508
  412MOL0     C54301   8.627   0.859   6.409 -0.4342 -0.5445 -0.1970
  412MOL0     N54302   9.360   1.268   6.443 -0.0152  0.8019  0.6655
  412MOL0     N54303   9.457   1.256   6.373 -0.5515 -0.0420 -0.3885
  412MOL0     C54304  10.367   1.751   6.489 -0.8808 -0.1683 -0.7194
  412MOL0     C54305  10.502   1.782   6.509 -0.1692 -0.4539  0.7929
  412MOL0     C54306  10.882   1.852   6.743 -0.3055  0.3781 -0.9149
  412MOL0     C54307  10.968   1.898   6.636  0.4030 -0.4080  0.4208
  412MOL0     C54308  11.110   1.901   6.662  0.3981  0.1948  0.9270
  412MOL0     C54309  11.159   1.868   6.785 -0.6201 -0.6062 -0.1956
  412MOL0     O54310  11.288   1.860   6.803 -0.6211  1.0000 -0.0322
  412MOL0     C54311  11.352   1.739   6.744 -0.4797  0.5326  0.4909
  412MOL0     C54312  11.424   1.745   6.606 -1.1383 -0.8849 -0.0683
  412MOL0     C54313  11.525   1.860   6.603  1.2827  0.3817  0.5536
  412MOL0     C54314  11.639   1.847   6.496  0.3316  0.6263  0.5478
  412MOL0     C54315  11.704   1.973   6.465 -0.4022 -0.3208 -0.1726
  412MOL0     C54316  11.760   2.087   6.449  0.4085 -0.8243  0.4393
  412MOL0     C54317  11.079   1.838   6.892 -0.6007  0.0737  0.5049
  412MOL0     C54318  10.939   1.829   6.878  0.4091  0.1082  0.0466
  412MOL0     H54319  10.476   2.003   6.758 -0.7108  1.4297 -0.8035
  412MOL0     H54320  10.248   1.999   6.694  0.1444  0.9310 -2.0945
  412MOL0     H54321  10.142   1.714   6.349 -0.5908  0.7623 -0.2724
  412MOL0     H54322   9.988   1.789   6.382  0.1764  0.1413  0.0598
  412MOL0     H54323   9.959   1.643   6.582 -1.2133 -2.1805 -0.7027
  412MOL0     H54324  10.116   1.577   6.566 -1.3848 -2.0828  0.0539
  412MOL0     H54325  10.041   1.473   6.348 -0.7710  1.2492  0.5948
  412MOL0     H54326   9.878   1.528   6.394  1.1787  2.0411 -0.1999
  412MOL0     H54327  10.041   1.362   6.591  0.2323  2.8388 -0.6087
  412MOL0     H54328   9.871   1.392   6.601  0.9880  2.3314  0.8409
  412MOL0     H54329   9.935   1.176   6.523 -1.0269 -0.2747 -1.8815
  412MOL0     H54330  10.002   1.253   6.373  0.2932 -0.6197 -1.0177
  412MOL0     H54331   9.785   1.296   6.303  1.1992 -1.2646 -0.9493
  412MOL0     H54332   9.713   1.284   6.468 -1.3377 -0.7499 -1.4507
  412MOL0     H54333   9.823   1.053   6.302  0.7397 -0.0839  1.2960
  412MOL0     H54334   9.741   1.033   6.452 -0.6181 -1.2373 -0.8693
  412MOL0     H54335   9.605   0.978   6.252  3.4143 -0.4112  1.1067
  412MOL0     H54336   9.630   1.143   6.198  1.0004  1.7463  1.8644
  412MOL0     H54337   9.401   0.941   6.449  0.3310 -0.0834  0.5899
  412MOL0     H54338   9.156   1.218   6.592 -0.9573 -0.2158 -0.7601
  412MOL0     H54339   9.245   1.092   6.678 -0.7582  1.0770  0.0970
  412MOL0     H54340   9.038   0.998   6.618  1.2625  0.7305  1.4079
  412MOL0     H54341   9.164   0.923   6.522 -0.9384  0.1718 -3.4173
  412MOL0     H54342   8.951   1.137   6.441  0.4249  2.2769 -3.2451
  412MOL0     H54343   9.088   1.137   6.346 -1.5792 -1.7203 -3.6723
  412MOL0     H54344   9.045   0.875   6.344  0.3005 -0.0242 -1.0010
  412MOL0     H54345   8.958   0.983   6.239  2.0807  2.0988  1.4455
  412MOL0     H54346   8.780   1.081   6.208  0.6867 -0.4085  0.9383
  412MOL0     H54347   8.574   1.088   6.105 -2.1500  1.6420  0.6195
  412MOL0     H54348   8.136   1.031   6.013 -0.0977  1.2154  2.5894
  412MOL0     H54349   7.928   0.974   5.910 -0.0047  2.4095  1.7267
  412MOL0     H54350   7.630   0.918   6.088 -4.8466 -0.1023 -1.3562
  412MOL0     H54351   7.665   0.748   6.130  0.1570  0.2914 -0.4803
  412MOL0     H54352   7.521   0.848   5.876  2.5720  1.2840  0.1941
  412MOL0     H54353   7.434   0.819   6.025 -1.0589 -2.2203 -0.4567
  412MOL0     H54354   7.533   0.580   6.040  2.2019  1.6067 -0.1462
  412MOL0     H54355   7.605   0.614   5.891  0.4508 -2.3111  1.3557
  412MOL0     H54356   7.309   0.608   5.975 -0.0461  3.2739  0.0572
  412MOL0     H54357   7.348   0.669   5.814  0.9378 -0.1176 -0.1054
  412MOL0     H54358   7.402   0.390   5.926  0.0206  0.1143  0.5015
  412MOL0     H54359   7.444   0.441   5.757 -1.0448 -1.5254  0.2041
  412MOL0     H54360   7.182   0.496   5.752 -1.1413 -1.0920 -1.0146
  412MOL0     H54361   7.188   0.383   5.892  1.4973 -2.3487  0.2818
  412MOL0     H54362   7.334   0.299   5.641  0.7843  0.0558 -0.6318
  412MOL0     H54363   7.237   0.198   5.752  1.1484 -0.6687 -1.4698
  412MOL0     H54364   7.161   0.227   5.522 -0.1225 -1.1292  0.7918
  412MOL0     H54365   7.158   0.397   5.550  1.2925  1.1300  3.1394
  412MOL0     H54366   7.873   0.640   6.152 -1.4278 -0.4425 -6.0935
  412MOL0     H54367   8.088   0.675   6.260 -0.5252  0.2145  1.1991
  412MOL0     H54368   8.423   0.820   6.425  0.9960  0.2232  0.9493
  412MOL0     H54369   8.652   0.792   6.491  0.8315  1.2609  0.9923
  412MOL0     H54370  10.339   1.683   6.409 -3.8194  0.5051 -0.3821
  412MOL0     H54371  10.586   1.739   6.455 -0.5161  1.1684 -1.1222
  412MOL0     H54372  10.931   1.930   6.539 -0.5567  0.0534  0.9219
  412MOL0     H54373  11.175   1.933   6.581 -0.0536 -1.3727 -0.1034
  412MOL0     H54374  11.290   1.649   6.738 -1.0904  1.0157 -1.2931
  412MOL0     H54375  11.438   1.722   6.809 -0.5597 -2.8116 -0.1076
  412MOL0     H54376  11.486   1.657   6.589  2.7025  1.5998 -0.0662
  412MOL0     H54377  11.359   1.759   6.520  1.1994 -1.1654 -1.9928
  412MOL0     H54378  11.572   1.869   6.701 -0.2071 -3.6150  1.8738
  412MOL0     H54379  11.466   1.950   6.583  1.2979  0.1727 -0.5083
  412MOL0     H54380  11.707   1.766   6.526  2.0006  0.3875 -3.3125
  412MOL0     H54381  11.599   1.817   6.399 -0.8797 -0.8979  1.4730
  412MOL0     H54382  11.821   2.173   6.427  0.0938 -0.0046  2.5467
  412MOL0     H54383  11.127   1.810   6.985  1.1784  0.2301 -0.3258
  412MOL0     H54384  10.874   1.781   6.951  0.2516 -0.0924 -0.2204
  413MOL0     O54385   7.403   2.169   3.184 -0.8621 -0.3748  0.2593
  413MOL0     C54386   7.458   2.281   3.201 -0.6597 -0.4311 -0.2011
  413MOL0     O54387   7.400   2.405   3.173 -0.1468 -0.4462 -0.0389
  413MOL0     C54388   7.263   2.430   3.163  0.5202  0.1425 -0.6509
  413MOL0     C54389   7.171   2.341   3.113 -0.2294 -0.7604  0.2098
  413MOL0     C54390   7.034   2.371   3.107  0.3933 -0.6847  0.0512
  413MOL0     C54391   6.985   2.497   3.144  0.1982  0.7409 -0.3401
  413MOL0     O54392   6.855   2.545   3.133  0.0286  0.6464  0.1887
  413MOL0     C54393   6.756   2.445   3.138  0.0574  0.1279  0.6898
  413MOL0     C54394   6.689   2.399   3.272 -0.3170  0.0566 -0.2907
  413MOL0     C54395   6.568   2.494   3.308 -0.9671 -0.3485 -0.1218
  413MOL0     C54396   6.525   2.456   3.452 -0.0686  0.6643  0.4112
  413MOL0     C54397   6.410   2.537   3.503 -0.3805  0.1916  0.6117
  413MOL0     C54398   6.344   2.485   3.627 -0.5880  0.8159  0.2397
  413MOL0     C54399   6.250   2.591   3.684 -0.2780 -0.1991 -0.2267
  413MOL0     C54400   6.136   2.626   3.594 -0.2347  1.0248  0.1250
  413MOL0     N54401   6.004   2.595   3.658 -0.0275  0.5559  0.6312
  413MOL0     C54402   5.943   2.648   3.766 -0.4084  0.8601  0.5056
  413MOL0     C54403   5.821   2.581   3.765 -0.6714  0.1864 -1.0858
  413MOL0     C54404   5.693   2.612   3.843 -0.6471 -0.0761 -0.6714
  413MOL0     C54405   5.593   2.691   3.761 -0.0211 -0.2639  0.8798
  413MOL0     C54406   5.468   2.721   3.845 -0.0310  0.3529  0.0388
  413MOL0     C54407   5.360   2.800   3.769 -0.7301  0.0500  0.5195
  413MOL0     O54408   5.261   2.706   3.723  0.7845 -0.6074 -0.0593
  413MOL0     C54409   5.137   2.742   3.663  0.4214 -0.1484  0.5152
  413MOL0     C54410   5.105   2.876   3.639 -0.0737  0.3260  1.0268
  413MOL0     C54411   4.982   2.913   3.586 -0.5557  0.4550  0.1145
  413MOL0     C54412   4.894   2.809   3.559 -0.0372  0.0671  1.1690
  413MOL0     C54413   4.762   2.839   3.517  0.2931 -0.5664 -0.3755
  413MOL0     O54414   4.723   2.964   3.544 -0.7279  0.6704  0.2314
  413MOL0     C54415   4.589   2.998   3.512  0.2093  0.4294  0.0119
  413MOL0     C54416   4.537   2.983   3.385 -0.5218 -0.0176  0.2328
  413MOL0     C54417   4.404   3.015   3.360 -0.1805  0.5012  0.1065
  413MOL0     C54418   4.312   3.045   3.464 -0.5532  0.7385 -0.5775
  413MOL0     O54419   4.175   3.072   3.442 -0.7129 -0.1407 -0.1209
  413MOL0     C54420   4.126   3.053   3.307  0.1500 -0.0539 -0.6149
  413MOL0     C54421   3.979   3.073   3.302  0.8080  1.0209 -0.4360
  413MOL0     C54422   3.930   3.208   3.353 -0.3248  0.3978 -0.3093
  413MOL0     C54423   3.790   3.244   3.313  0.1125 -0.3869 -0.2162
  413MOL0     C54424   3.752   3.370   3.394 -0.8331  1.2293 -0.2362
  413MOL0     C54425   3.642   3.461   3.330 -0.0641 -0.6093 -0.0636
  413MOL0     C54426   3.680   3.506   3.192  0.5727  0.6247 -0.5655
  413MOL0     C54427   3.672   3.662   3.165 -1.5209  0.6940  0.7063
  413MOL0    Cl54428   3.504   3.725   3.184  0.0191  0.7372 -0.0120
  413MOL0     C54429   4.362   3.038   3.600 -0.8054 -0.7820 -0.6478
  413MOL0     C54430   4.498   3.027   3.620  0.4926  0.4166 -0.8914
  413MOL0     O54431   4.698   2.753   3.458  0.3998 -0.2079 -0.3176
  413MOL0     C54432   4.928   2.677   3.576  0.0219 -0.7270 -0.0260
  413MOL0     C54433   5.052   2.642   3.624  0.3275  0.6834  0.1791
  413MOL0     N54434   5.815   2.482   3.675  0.5711 -0.7419 -1.1824
  413MOL0     N54435   5.917   2.497   3.608  0.3266 -1.1879 -0.5667
  413MOL0     C54436   7.080   2.586   3.192  0.5562  0.3465  0.1163
  413MOL0     C54437   7.216   2.556   3.208  0.5269  0.7336 -0.2623
  413MOL0     C54438   7.588   2.274   3.264  0.4915  0.4993  0.4193
  413MOL0     C54439   7.667   2.389   3.286 -0.3255  0.2645 -0.2294
  413MOL0     C54440   7.793   2.369   3.331  0.2358 -0.6459 -0.9227
  413MOL0     C54441   7.847   2.251   3.369  1.1260  0.6356 -1.1387
  413MOL0     O54442   7.965   2.244   3.440 -0.6327 -0.4526 -0.1144
  413MOL0     C54443   7.988   2.144   3.547  0.2827  0.4232  0.1165
  413MOL0     C54444   8.047   2.015   3.493 -0.4618  0.6258  1.2967
  413MOL0     C54445   8.200   2.024   3.459 -0.8226 -0.3604 -0.2096
  413MOL0     C54446   8.253   1.890   3.400  0.5148  0.0847  0.5677
  413MOL0     C54447   8.191   1.840   3.275  0.3786 -0.0450 -0.0140
  413MOL0     C54448   8.154   1.778   3.175  0.6858 -0.1640 -0.4427
  413MOL0     C54449   7.776   2.137   3.345  0.2726  0.6209 -0.0533
  413MOL0     C54450   7.651   2.140   3.279 -0.8470 -0.7106 -0.3980
  413MOL0     H54451   7.199   2.244   3.074 -0.4023  0.1589 -2.4077
  413MOL0     H54452   6.980   2.288   3.063  1.3720 -0.5707 -1.4271
  413MOL0     H54453   6.783   2.351   3.089 -0.5233  0.7021 -0.7960
  413MOL0     H54454   6.668   2.481   3.084 -0.2689 -0.4004  0.8668
  413MOL0     H54455   6.760   2.417   3.354 -0.8637 -0.0809  0.2155
  413MOL0     H54456   6.668   2.292   3.276  1.1494 -0.2358  0.1366
  413MOL0     H54457   6.488   2.487   3.234 -0.2798 -0.8671 -0.8439
  413MOL0     H54458   6.596   2.599   3.304 -1.5306 -0.2370 -1.7746
  413MOL0     H54459   6.499   2.350   3.461  1.2048  0.3449  0.5421
  413MOL0     H54460   6.602   2.463   3.530 -0.4474 -2.1378  1.1258
  413MOL0     H54461   6.335   2.553   3.425 -0.3235  1.9735  0.8740
  413MOL0     H54462   6.451   2.637   3.524  2.2267 -0.9880  1.5156
  413MOL0     H54463   6.416   2.457   3.704 -0.0167 -1.4920 -1.0522
  413MOL0     H54464   6.285   2.396   3.607 -1.3202  0.9852  1.5123
  413MOL0     H54465   6.206   2.548   3.775 -1.5991 -1.0539 -1.2366
  413MOL0     H54466   6.295   2.688   3.710 -1.4694 -0.2179  2.2735
  413MOL0     H54467   6.131   2.553   3.513 -1.9445 -1.0919  2.0049
  413MOL0     H54468   6.144   2.730   3.561 -1.8114  0.6715 -1.4405
  413MOL0     H54469   5.966   2.741   3.817  0.0656  0.2131  1.5189
  413MOL0     H54470   5.721   2.667   3.933 -0.8944  0.6628 -1.0408
  413MOL0     H54471   5.655   2.511   3.862  2.0793 -0.4462  4.8747
  413MOL0     H54472   5.570   2.629   3.674  0.4558  0.8398 -0.0529
  413MOL0     H54473   5.636   2.783   3.721 -0.4692  0.5722  2.2685
  413MOL0     H54474   5.433   2.631   3.896  1.5124  0.2529  0.9909
  413MOL0     H54475   5.499   2.792   3.923 -1.0539 -0.2203  0.9863
  413MOL0     H54476   5.401   2.850   3.680 -2.7423  0.2724 -0.3487
  413MOL0     H54477   5.323   2.882   3.831 -1.6047  2.1194 -2.4846
  413MOL0     H54478   5.158   2.968   3.662  1.4386  0.2288 -1.6954
  413MOL0     H54479   4.954   3.018   3.585 -2.1068  0.0567  0.0989
  413MOL0     H54480   4.589   2.952   3.295 -1.4742  3.0018 -1.4795
  413MOL0     H54481   4.363   3.025   3.260 -2.7019 -2.7718  0.6392
  413MOL0     H54482   4.138   2.947   3.281 -0.3237 -0.0484 -0.8727
  413MOL0     H54483   4.173   3.124   3.239 -3.2429  0.7104 -2.3990
  413MOL0     H54484   3.928   2.999   3.364  0.4666  2.0410  0.5227
  413MOL0     H54485   3.947   3.066   3.197 -2.0820 -2.8118  0.4954
  413MOL0     H54486   3.994   3.287   3.313  0.0001 -0.4975 -1.6313
  413MOL0     H54487   3.938   3.216   3.462 -2.4876  0.5860 -0.1285
  413MOL0     H54488   3.784   3.252   3.204 -2.2823 -1.2423 -0.1999
  413MOL0     H54489   3.728   3.159   3.342 -1.4827  0.1822 -1.7443
  413MOL0     H54490   3.844   3.428   3.406 -0.2172 -0.1352  2.4268
  413MOL0     H54491   3.726   3.357   3.499 -1.4621  3.8015 -0.0098
  413MOL0     H54492   3.624   3.547   3.396 -1.3156  0.8954 -2.2315
  413MOL0     H54493   3.552   3.400   3.317 -0.7931  0.2157  0.8783
  413MOL0     H54494   3.784   3.477   3.174  0.6570 -0.4026  1.3216
  413MOL0     H54495   3.614   3.459   3.119  0.1380  0.9494 -0.3827
  413MOL0     H54496   3.704   3.691   3.065 -0.5029 -1.2227  0.4210
  413MOL0     H54497   3.737   3.711   3.238 -1.1347  2.2122 -0.6194
  413MOL0     H54498   4.294   3.060   3.681 -2.0212  1.5551 -2.1954
  413MOL0     H54499   4.526   3.010   3.723 -3.4940  1.3065  0.5000
  413MOL0     H54500   4.857   2.601   3.544 -1.9160  0.8403  0.3767
  413MOL0     H54501   5.073   2.537   3.640 -4.3326 -0.2881  1.5828
  413MOL0     H54502   7.050   2.685   3.226 -0.8482 -0.0527  0.1037
  413MOL0     H54503   7.296   2.620   3.244 -0.7819  2.3343 -0.0402
  413MOL0     H54504   7.625   2.489   3.278 -0.3342  0.8549  4.4168
  413MOL0     H54505   7.840   2.465   3.354 -0.1026 -0.3271 -1.5422
  413MOL0     H54506   7.894   2.139   3.603 -0.3483 -1.5588 -1.0290
  413MOL0     H54507   8.060   2.183   3.619  1.1784  0.6734 -0.8822
  413MOL0     H54508   8.045   1.942   3.574  1.6407  1.2464  1.9694
  413MOL0     H54509   7.986   1.987   3.406  0.0742  0.3202  1.0061
  413MOL0     H54510   8.262   2.040   3.548 -1.9632  0.8732  0.3897
  413MOL0     H54511   8.216   2.108   3.390 -2.8788 -0.8098 -1.2975
  413MOL0     H54512   8.358   1.908   3.376  0.6908  0.0357  1.2787
  413MOL0     H54513   8.247   1.813   3.477 -1.2910 -2.2707 -1.7464
  413MOL0     H54514   8.114   1.734   3.087 -1.1314  2.5414 -1.1040
  413MOL0     H54515   7.798   2.035   3.375 -0.0172 -0.0512 -2.0133
  413MOL0     H54516   7.598   2.049   3.255  1.9006 -2.3114 -0.7777
  414MOL0     O54517   0.857   9.103   1.848  0.3062 -0.4323 -0.5380
  414MOL0     C54518   0.948   9.023   1.835 -0.4833 -0.8284 -0.6075
  414MOL0     O54519   0.943   8.887   1.819 -0.8979 -0.5217  0.1556
  414MOL0     C54520   0.817   8.831   1.805 -0.4452 -0.6010 -0.2312
  414MOL0     C54521   0.720   8.856   1.900  0.2948 -0.8320 -0.6399
  414MOL0     C54522   0.599   8.792   1.889 -0.2097  0.5893  1.3979
  414MOL0     C54523   0.564   8.716   1.774  0.0617  0.2049 -0.0175
  414MOL0     O54524   0.445   8.645   1.764 -0.4826 -0.8234  0.3276
  414MOL0     C54525   0.435   8.541   1.866  0.4743 -0.0305  0.0105
  414MOL0     C54526   0.463   8.406   1.799  0.8919 -0.5503  0.2376
  414MOL0     C54527   0.464   8.269   1.880  0.0077 -0.2440  0.2354
  414MOL0     C54528   0.459   8.140   1.788 -0.1825 -0.0875  0.5427
  414MOL0     C54529   0.422   8.008   1.851 -0.1899  0.5789  0.4763
  414MOL0     C54530   0.295   8.021   1.938 -0.5563  0.3276 -0.4963
  414MOL0     C54531   0.175   8.084   1.873 -0.4231 -0.1433  0.8790
  414MOL0     C54532   0.124   8.003   1.750 -0.3386 -0.3096 -0.4272
  414MOL0     N54533   0.001   8.050   1.687 -0.1465  0.6297  0.7866
  414MOL0     C54534  -0.051   8.172   1.678  0.4709 -0.1869 -1.1021
  414MOL0     C54535  -0.186   8.165   1.661  0.5502  0.1789  0.4434
  414MOL0     C54536  -0.291   8.271   1.650  0.1040 -0.2714  0.6826
  414MOL0     C54537  -0.406   8.253   1.758  0.6754  0.1671 -0.6555
  414MOL0     C54538  -0.498   8.135   1.738 -0.3902  0.4015  0.5251
  414MOL0     C54539  -0.623   8.147   1.820  0.5839 -0.1137 -0.3095
  414MOL0     O54540  -0.705   8.252   1.766  0.3099  0.3603  0.3930
  414MOL0     C54541  -0.832   8.226   1.721 -0.3755  0.1434  0.0912
  414MOL0     C54542  -0.864   8.105   1.655 -0.0447 -0.2143  0.7467
  414MOL0     C54543  -0.998   8.083   1.616 -0.9479  0.0738 -0.2497
  414MOL0     C54544  -1.096   8.187   1.615  0.3671 -0.6272 -0.6137
  414MOL0     C54545  -1.234   8.175   1.569  0.7862  0.5990  0.2258
  414MOL0     O54546  -1.264   8.069   1.482  0.4796  0.8292 -0.1883
  414MOL0     C54547  -1.385   8.025   1.440 -0.3632  0.5365  0.0238
  414MOL0     C54548  -1.370   7.941   1.327  0.9650 -0.5895 -0.1375
  414MOL0     C54549  -1.489   7.911   1.260 -0.1190 -0.4602 -0.7582
  414MOL0     C54550  -1.614   7.943   1.325  0.6059  0.7770 -0.4025
  414MOL0     O54551  -1.726   7.903   1.252 -0.5292 -0.2443  0.1981
  414MOL0     C54552  -1.855   7.959   1.286 -0.7765  0.1426 -0.0097
  414MOL0     C54553  -1.943   7.934   1.168  1.5054 -0.6616  0.1097
  414MOL0     C54554  -2.085   7.984   1.176  0.4747  0.3211 -0.3960
  414MOL0     C54555  -2.148   7.946   1.042 -0.1255  0.3273  0.4143
  414MOL0     C54556  -2.298   7.962   1.044  0.8225 -0.3323  0.9973
  414MOL0     C54557  -2.377   7.824   1.063 -0.8946 -0.5586  0.5843
  414MOL0     C54558  -2.524   7.825   1.026  0.6534 -0.2248 -0.6849
  414MOL0     C54559  -2.580   7.688   1.003 -1.1924 -0.7566  0.5563
  414MOL0    Cl54560  -2.595   7.599   1.158 -0.0381 -0.0749  0.6136
  414MOL0     C54561  -1.627   7.999   1.449  0.4847 -0.6523 -1.2329
  414MOL0     C54562  -1.506   8.051   1.501 -0.2224 -0.0458 -0.0577
  414MOL0     O54563  -1.305   8.273   1.591 -0.2990 -0.1917  0.2349
  414MOL0     C54564  -1.067   8.299   1.695  0.5420  0.5219  0.2544
  414MOL0     C54565  -0.940   8.313   1.751  0.0023  0.3284  0.4647
  414MOL0     N54566  -0.219   8.035   1.649  0.7306  0.6079 -0.3293
  414MOL0     N54567  -0.105   7.963   1.672  0.2614 -0.5137  0.5149
  414MOL0     C54568   0.657   8.699   1.671 -0.5492 -0.3573  0.3458
  414MOL0     C54569   0.792   8.749   1.696  0.4094 -0.4365  0.0232
  414MOL0     C54570   1.087   9.065   1.813  0.3738 -0.4218 -0.4113
  414MOL0     C54571   1.199   8.974   1.821 -0.3040 -0.4833  1.0432
  414MOL0     C54572   1.331   9.026   1.800  1.0267 -0.2640  0.8359
  414MOL0     C54573   1.355   9.157   1.764 -0.4573 -0.4927 -0.0583
  414MOL0     O54574   1.488   9.176   1.727 -0.0140  0.1739 -0.1910
  414MOL0     C54575   1.527   9.310   1.685 -0.1404 -0.0891 -0.4588
  414MOL0     C54576   1.667   9.292   1.611 -0.1117 -0.5924  0.3107
  414MOL0     C54577   1.771   9.256   1.714  1.0113  0.3690 -0.1364
  414MOL0     C54578   1.906   9.217   1.651  0.5311 -0.1051  0.1612
  414MOL0     C54579   1.898   9.073   1.605  0.3230 -0.4498 -0.7184
  414MOL0     C54580   1.904   8.971   1.540 -0.3677 -0.3839 -0.8791
  414MOL0     C54581   1.246   9.247   1.753 -0.7637  0.2121 -0.3092
  414MOL0     C54582   1.118   9.198   1.769  0.0840 -0.0322 -0.7305
  414MOL0     H54583   0.742   8.915   1.989  1.4223 -2.6096  0.2975
  414MOL0     H54584   0.528   8.797   1.971  0.2204  1.4020  1.7318
  414MOL0     H54585   0.330   8.549   1.895  0.5995  1.9161  0.0901
  414MOL0     H54586   0.504   8.550   1.951 -0.2371  2.1168  0.4154
  414MOL0     H54587   0.562   8.416   1.754 -0.0364  1.3317 -1.5436
  414MOL0     H54588   0.390   8.397   1.718 -0.6731  1.9338  1.2518
  414MOL0     H54589   0.388   8.277   1.959  1.8551  1.0485  1.9935
  414MOL0     H54590   0.563   8.263   1.926 -0.7219 -1.7990  1.7094
  414MOL0     H54591   0.385   8.153   1.709 -3.1257 -1.1276  2.8901
  414MOL0     H54592   0.558   8.129   1.744 -0.1105  0.7318  0.4826
  414MOL0     H54593   0.509   7.974   1.908 -1.0418 -0.6448  1.0777
  414MOL0     H54594   0.397   7.940   1.770 -0.8795  0.6234  0.6521
  414MOL0     H54595   0.323   8.085   2.022 -1.8106  2.9339 -1.9361
  414MOL0     H54596   0.270   7.919   1.967  1.9491  0.3054  2.0201
  414MOL0     H54597   0.100   8.088   1.953  0.6022  4.3505  1.8992
  414MOL0     H54598   0.182   8.189   1.842 -0.8001 -0.8753 -1.9791
  414MOL0     H54599   0.116   7.899   1.782 -0.5466 -0.5545 -1.2725
  414MOL0     H54600   0.201   8.007   1.673  0.2859 -0.0270  0.1949
  414MOL0     H54601   0.005   8.262   1.701  1.9925 -1.2617 -0.4277
  414MOL0     H54602  -0.329   8.253   1.549 -2.1165 -3.4859  1.9069
  414MOL0     H54603  -0.245   8.369   1.664  1.2079 -0.6533 -0.1127
  414MOL0     H54604  -0.472   8.339   1.750 -1.0562 -1.1505 -1.1918
  414MOL0     H54605  -0.365   8.251   1.860 -2.5063 -0.1810  0.7443
  414MOL0     H54606  -0.515   8.117   1.631  4.5985 -1.7858 -0.1661
  414MOL0     H54607  -0.450   8.042   1.769  0.5872 -0.0565 -2.0442
  414MOL0     H54608  -0.601   8.179   1.922  1.3042  1.3728 -0.8950
  414MOL0     H54609  -0.671   8.049   1.823  1.4162 -0.5040  1.5351
  414MOL0     H54610  -0.790   8.030   1.628 -1.7768 -1.4083 -0.8593
  414MOL0     H54611  -1.014   7.981   1.580 -0.6699 -0.6862  1.6624
  414MOL0     H54612  -1.270   7.928   1.287  1.8362  3.4119  0.2863
  414MOL0     H54613  -1.492   7.848   1.171 -0.1444  1.0722 -1.8976
  414MOL0     H54614  -1.848   8.066   1.310  1.2015 -0.6258  3.6279
  414MOL0     H54615  -1.882   7.894   1.370  0.4650 -0.4887 -0.0706
  414MOL0     H54616  -1.938   7.828   1.140  2.1521 -0.4471 -0.6408
  414MOL0     H54617  -1.897   7.983   1.082  1.4726 -0.8618 -0.0238
  414MOL0     H54618  -2.087   8.093   1.192  0.3476  0.4539 -1.3091
  414MOL0     H54619  -2.148   7.930   1.248 -2.4777 -0.3877 -3.3032
  414MOL0     H54620  -2.108   8.010   0.962 -0.7527 -0.3846 -0.4888
  414MOL0     H54621  -2.116   7.850   1.001  0.9465  1.6352 -2.0599
  414MOL0     H54622  -2.316   8.010   0.948 -1.6107 -3.2782 -0.1950
  414MOL0     H54623  -2.339   8.033   1.116  1.1793  0.8577  0.0651
  414MOL0     H54624  -2.378   7.786   1.165 -2.3985 -0.2103  0.7097
  414MOL0     H54625  -2.325   7.750   1.001  1.6148  0.3952  1.4027
  414MOL0     H54626  -2.579   7.883   1.101  1.5306 -0.3181  0.0446
  414MOL0     H54627  -2.539   7.878   0.931  0.7431  2.9895  0.9516
  414MOL0     H54628  -2.505   7.640   0.939 -0.6851  0.8696 -0.0942
  414MOL0     H54629  -2.673   7.698   0.947  0.1703 -1.6647 -2.0491
  414MOL0     H54630  -1.719   8.019   1.503  3.3011 -0.5954  4.2478
  414MOL0     H54631  -1.507   8.096   1.600  1.1220 -0.0420 -0.0271
  414MOL0     H54632  -1.134   8.378   1.726  2.0206  2.6363 -1.6252
  414MOL0     H54633  -0.920   8.405   1.804  0.8337  1.0666 -1.0726
  414MOL0     H54634   0.629   8.650   1.578 -2.2013  0.7736  0.1934
  414MOL0     H54635   0.871   8.740   1.622 -0.4259  0.3773 -0.9964
  414MOL0     H54636   1.192   8.871   1.854  1.9477 -0.7132  0.9530
  414MOL0     H54637   1.403   8.946   1.817  1.3783 -0.6581 -1.9868
  414MOL0     H54638   1.536   9.373   1.773  0.0395 -1.5171  0.5887
  414MOL0     H54639   1.456   9.343   1.608  0.2071 -0.1849 -0.8216
  414MOL0     H54640   1.668   9.216   1.532 -0.3112 -0.8216  0.5248
  414MOL0     H54641   1.696   9.386   1.564 -2.1104 -0.1324 -0.0903
  414MOL0     H54642   1.733   9.174   1.777 -0.3332  0.8160 -0.3492
  414MOL0     H54643   1.788   9.329   1.793  1.8214 -1.6019  1.6266
  414MOL0     H54644   1.938   9.296   1.582 -2.5876  0.4982 -0.7699
  414MOL0     H54645   1.976   9.214   1.735 -0.5468  0.1433  1.0874
  414MOL0     H54646   1.881   8.884   1.482 -0.2844 -2.3019  1.7884
  414MOL0     H54647   1.257   9.349   1.719 -0.3944  0.2966  0.0649
  414MOL0     H54648   1.037   9.265   1.742  0.9117  1.2804 -0.0633
  415MOL0     O54649   2.847   6.405   2.115  0.0822 -0.0172  0.1251
  415MOL0     C54650   2.861   6.346   2.221  0.3340  0.8469  0.4281
  415MOL0     O54651   2.767   6.265   2.279 -0.1469 -0.0402 -0.2491
  415MOL0     C54652   2.648   6.237   2.222 -0.8281 -0.1834  0.2338
  415MOL0     C54653   2.611   6.113   2.161  0.4598  0.7316 -0.8718
  415MOL0     C54654   2.476   6.088   2.121 -0.8319 -0.0652 -0.1534
  415MOL0     C54655   2.383   6.187   2.129 -1.0509  0.5502 -0.3903
  415MOL0     O54656   2.253   6.176   2.098 -0.2564  0.0797 -0.1323
  415MOL0     C54657   2.224   6.106   1.981  0.1967 -1.1421 -0.0998
  415MOL0     C54658   2.092   6.130   1.908 -0.6721  0.1479 -0.5348
  415MOL0     C54659   2.103   6.262   1.828  0.0340  0.1656  0.0376
  415MOL0     C54660   1.976   6.300   1.744 -0.1589  0.4587 -0.6332
  415MOL0     C54661   1.980   6.424   1.655  0.1611  0.5205  0.5864
  415MOL0     C54662   1.993   6.559   1.721 -0.1119 -0.3526  0.2065
  415MOL0     C54663   2.006   6.676   1.618  0.2792  0.1581 -1.0757
  415MOL0     C54664   2.035   6.816   1.687 -0.2395  0.0604 -0.5656
  415MOL0     N54665   2.116   6.902   1.589  0.3480 -0.5959  0.0089
  415MOL0     C54666   2.064   6.993   1.501 -0.5999 -0.0783 -0.1235
  415MOL0     C54667   2.174   7.042   1.440 -0.2297 -0.5523 -0.1669
  415MOL0     C54668   2.169   7.144   1.331 -0.3389 -0.8137 -0.1407
  415MOL0     C54669   2.184   7.083   1.180 -0.3367 -0.0886 -0.2093
  415MOL0     C54670   2.097   6.957   1.152 -0.8872  0.1187  0.0245
  415MOL0     C54671   1.956   6.995   1.152  0.6036 -0.0729  0.0977
  415MOL0     O54672   1.932   7.093   1.050 -0.2193  0.9246  0.2386
  415MOL0     C54673   1.802   7.117   1.012 -0.1036  0.6145  0.7786
  415MOL0     C54674   1.778   7.195   0.901 -0.1709 -0.5373  0.5038
  415MOL0     C54675   1.648   7.227   0.848 -0.0707  0.9388  0.4150
  415MOL0     C54676   1.532   7.182   0.910  0.1378 -0.4078 -0.4446
  415MOL0     C54677   1.397   7.207   0.860 -0.3547  0.1504 -0.3245
  415MOL0     O54678   1.293   7.159   0.925 -0.3521 -0.4943  0.0351
  415MOL0     C54679   1.179   7.147   0.856 -0.3071  0.8291 -0.6826
  415MOL0     C54680   1.145   7.026   0.797 -0.6768  0.8852 -0.1875
  415MOL0     C54681   1.025   7.002   0.741  0.4610 -0.0213 -0.0789
  415MOL0     C54682   0.923   7.103   0.735 -0.0318 -0.2124  0.8094
  415MOL0     O54683   0.792   7.089   0.692 -0.9247 -0.4304 -0.2953
  415MOL0     C54684   0.718   6.967   0.697  0.0278  0.7476 -0.2084
  415MOL0     C54685   0.570   7.001   0.726 -0.1791 -0.0258 -0.1060
  415MOL0     C54686   0.465   6.895   0.696  0.2253  0.5320 -0.0780
  415MOL0     C54687   0.322   6.944   0.663  0.2932  0.0267 -0.2544
  415MOL0     C54688   0.234   6.831   0.710  0.7300  0.8591 -0.1867
  415MOL0     C54689   0.090   6.856   0.668 -0.7970  0.0225  0.2538
  415MOL0     C54690   0.009   6.923   0.778 -0.2144  0.6050  0.0749
  415MOL0     C54691  -0.142   6.907   0.723  0.5477  0.0692  0.3318
  415MOL0    Cl54692  -0.247   6.974   0.847 -0.1641 -0.4039 -0.5339
  415MOL0     C54693   0.962   7.228   0.777  0.0421 -0.1491  0.0877
  415MOL0     C54694   1.085   7.246   0.847 -0.1341  0.2721 -0.6769
  415MOL0     O54695   1.394   7.271   0.754 -0.3514  0.5978  0.4499
  415MOL0     C54696   1.549   7.104   1.028  0.2830 -0.2796 -0.0104
  415MOL0     C54697   1.680   7.079   1.083  0.4621 -0.5701 -0.2226
  415MOL0     N54698   2.290   6.988   1.494  0.2264  0.0693 -0.5413
  415MOL0     N54699   2.256   6.907   1.592  0.0844 -0.5691 -0.7520
  415MOL0     C54700   2.429   6.313   2.178  0.7238 -0.3379  1.2709
  415MOL0     C54701   2.552   6.341   2.213 -0.0909 -0.3843  0.2181
  415MOL0     C54702   2.996   6.365   2.282 -0.0283 -0.5390  0.2307
  415MOL0     C54703   3.040   6.263   2.362 -0.3487  0.5806 -0.0516
  415MOL0     C54704   3.175   6.264   2.409 -0.5263  0.0575  0.4003
  415MOL0     C54705   3.265   6.365   2.374  0.5014 -0.2731  0.3933
  415MOL0     O54706   3.387   6.375   2.437  0.0257 -0.8508  0.6298
  415MOL0     C54707   3.466   6.258   2.447  0.0025  0.6052 -0.7638
  415MOL0     C54708   3.602   6.307   2.465  0.6527  0.5522  0.0869
  415MOL0     C54709   3.622   6.384   2.602  0.3020  1.4769  0.6012
  415MOL0     C54710   3.760   6.438   2.622 -0.4693  0.0021 -0.0613
  415MOL0     C54711   3.872   6.338   2.639  0.0485 -0.1578  0.3286
  415MOL0     C54712   3.946   6.245   2.661 -0.3842  1.3315 -0.4555
  415MOL0     C54713   3.222   6.469   2.293  0.4808 -0.8509  0.6112
  415MOL0     C54714   3.091   6.464   2.246  1.9926 -0.0519 -0.3384
  415MOL0     H54715   2.687   6.037   2.169 -0.9468 -0.5741  0.8086
  415MOL0     H54716   2.446   5.987   2.094 -0.2493 -0.2451 -0.1308
  415MOL0     H54717   2.223   6.002   2.015  1.3733 -1.3507 -0.6441
  415MOL0     H54718   2.310   6.101   1.914  2.2916 -0.2941  2.3404
  415MOL0     H54719   2.007   6.128   1.976  0.3207 -0.6881  0.7407
  415MOL0     H54720   2.080   6.040   1.847  0.0722 -0.7897  0.6666
  415MOL0     H54721   2.193   6.254   1.767 -0.4937  0.5281 -0.8103
  415MOL0     H54722   2.113   6.345   1.898 -1.4382 -1.0025  1.6965
  415MOL0     H54723   1.949   6.225   1.669 -3.4132  1.5033 -0.6607
  415MOL0     H54724   1.900   6.302   1.822  1.7631  2.3696  1.3264
  415MOL0     H54725   1.884   6.434   1.604 -0.3151 -0.2539  1.3061
  415MOL0     H54726   2.063   6.415   1.584 -0.1718  1.3833  0.0780
  415MOL0     H54727   2.080   6.560   1.787 -0.7271  2.2703  1.1078
  415MOL0     H54728   1.907   6.585   1.784 -0.1074  0.3123 -0.0589
  415MOL0     H54729   2.091   6.658   1.552  1.0396 -0.6995  0.1084
  415MOL0     H54730   1.917   6.690   1.556  0.1655  2.8818 -0.4602
  415MOL0     H54731   2.098   6.804   1.776 -0.2881  0.0255 -0.5360
  415MOL0     H54732   1.947   6.860   1.735  0.4723  0.6987  0.1932
  415MOL0     H54733   1.958   7.008   1.481 -1.3436  0.2453  3.4098
  415MOL0     H54734   2.250   7.217   1.339 -0.7340  0.1430 -3.3609
  415MOL0     H54735   2.075   7.200   1.341 -0.3350 -0.4993 -1.6600
  415MOL0     H54736   2.289   7.058   1.160 -0.3941 -0.2444 -0.3125
  415MOL0     H54737   2.166   7.162   1.107  1.9655  0.2109 -0.5361
  415MOL0     H54738   2.126   6.910   1.057  2.0976  0.5760  0.6196
  415MOL0     H54739   2.108   6.875   1.223 -0.1946  0.2547  0.0813
  415MOL0     H54740   1.929   7.045   1.245  0.6455 -0.4065  0.2915
  415MOL0     H54741   1.894   6.905   1.145 -0.8572  0.6475  2.6197
  415MOL0     H54742   1.869   7.220   0.847 -1.2749 -0.4738 -1.4112
  415MOL0     H54743   1.644   7.301   0.769  0.9551  1.5252  0.8972
  415MOL0     H54744   1.228   6.955   0.801 -0.2903  1.3882  1.2700
  415MOL0     H54745   0.989   6.917   0.683 -1.0895  0.6906 -0.2320
  415MOL0     H54746   0.748   6.912   0.787 -2.8958  1.0781  1.0983
  415MOL0     H54747   0.721   6.910   0.604 -2.7525 -0.9291  0.6205
  415MOL0     H54748   0.553   7.078   0.650 -0.2152  1.0484  0.9650
  415MOL0     H54749   0.563   7.041   0.827  1.4898  0.4453 -0.1469
  415MOL0     H54750   0.459   6.824   0.779  1.8980  1.5891  0.9902
  415MOL0     H54751   0.503   6.846   0.605 -1.1146  0.3246 -0.5431
  415MOL0     H54752   0.294   7.030   0.725  0.6956  1.2388 -1.6975
  415MOL0     H54753   0.315   6.970   0.557  3.1577 -0.9449 -0.7650
  415MOL0     H54754   0.234   6.810   0.818  0.6165 -1.1960 -0.5503
  415MOL0     H54755   0.271   6.735   0.673 -1.1124 -0.5455  1.4102
  415MOL0     H54756   0.057   6.753   0.648  1.5897 -0.8397  0.5034
  415MOL0     H54757   0.098   6.924   0.583 -0.1406 -1.0887 -0.5912
  415MOL0     H54758   0.021   6.877   0.876  1.5312  1.6089  0.3749
  415MOL0     H54759   0.030   7.030   0.787 -1.8074  0.9679 -0.3302
  415MOL0     H54760  -0.174   6.804   0.705 -0.9458  0.5125  0.3374
  415MOL0     H54761  -0.148   6.957   0.626 -1.7134 -2.0768 -0.7414
  415MOL0     H54762   0.886   7.306   0.777 -0.3675 -0.3357 -3.9701
  415MOL0     H54763   1.110   7.343   0.886  1.0151 -0.7065  1.1346
  415MOL0     H54764   1.455   7.065   1.067  0.0442 -0.0526 -0.3535
  415MOL0     H54765   1.693   7.029   1.179  1.0801  0.1269  0.0666
  415MOL0     H54766   2.353   6.391   2.173 -0.5024 -1.4694  1.7842
  415MOL0     H54767   2.588   6.440   2.240 -0.7945 -0.2295  0.6341
  415MOL0     H54768   2.986   6.170   2.378  2.4003 -1.5366 -2.0264
  415MOL0     H54769   3.217   6.182   2.466  0.1044 -0.6970 -1.1246
  415MOL0     H54770   3.466   6.191   2.361 -2.0231 -2.1281  1.1647
  415MOL0     H54771   3.438   6.207   2.540  0.7092  0.4394 -0.6411
  415MOL0     H54772   3.674   6.226   2.450 -1.5278 -0.9691 -3.7270
  415MOL0     H54773   3.615   6.380   2.384 -0.4662  0.9822  0.2828
  415MOL0     H54774   3.595   6.327   2.691 -0.7077  4.1332  2.1032
  415MOL0     H54775   3.552   6.466   2.586 -2.6054 -0.9144  0.2796
  415MOL0     H54776   3.791   6.501   2.539 -0.4916  0.4201  0.2468
  415MOL0     H54777   3.759   6.506   2.708  0.2969  2.6719 -2.0445
  415MOL0     H54778   4.010   6.163   2.688 -1.6981  0.4532  0.0827
  415MOL0     H54779   3.295   6.546   2.269 -0.4241 -1.0673 -3.7292
  415MOL0     H54780   3.044   6.541   2.185 -0.9182 -2.3770 -1.2489
  416MOL0     O54781  10.303   0.471   2.485  0.0316 -0.5321  0.2547
  416MOL0     C54782  10.390   0.408   2.550 -0.8173 -0.0545  0.0633
  416MOL0     O54783  10.373   0.349   2.678 -0.3538  0.5216 -0.0006
  416MOL0     C54784  10.255   0.374   2.747 -0.5029  0.2570  0.9294
  416MOL0     C54785  10.200   0.262   2.812  0.1957 -1.2649 -0.4932
  416MOL0     C54786  10.081   0.277   2.889  0.4049 -0.1724  0.4826
  416MOL0     C54787  10.024   0.399   2.925 -0.4738 -0.3004  0.4235
  416MOL0     O54788   9.924   0.404   3.016 -0.0391 -0.4315 -0.5028
  416MOL0     C54789   9.845   0.520   3.036 -0.4078  0.0076  0.0989
  416MOL0     C54790   9.742   0.491   3.146 -0.3853  0.2373 -0.2405
  416MOL0     C54791   9.694   0.611   3.208 -0.0423 -0.1840  0.5866
  416MOL0     C54792   9.564   0.591   3.289  0.7799 -0.3465  0.4967
  416MOL0     C54793   9.515   0.717   3.361  0.0173 -0.1267  0.5871
  416MOL0     C54794   9.382   0.689   3.426 -0.2598 -0.2142 -0.1839
  416MOL0     C54795   9.328   0.802   3.504  0.7429 -0.6318 -0.2842
  416MOL0     C54796   9.200   0.765   3.593  0.3309 -0.0288 -0.5603
  416MOL0     N54797   9.089   0.725   3.506  0.3192 -0.4999  0.0219
  416MOL0     C54798   9.047   0.802   3.401  0.1367  0.4085 -0.0317
  416MOL0     C54799   8.939   0.746   3.355 -0.3861 -0.6344  0.0619
  416MOL0     C54800   8.864   0.803   3.240 -0.0213  0.0274 -1.3058
  416MOL0     C54801   8.752   0.717   3.198 -0.6811  0.3907 -1.1203
  416MOL0     C54802   8.691   0.755   3.065 -0.6220  1.0861 -0.0860
  416MOL0     C54803   8.597   0.877   3.080  0.1018 -0.8608  0.3381
  416MOL0     O54804   8.563   0.925   2.944 -0.3330  0.0915  0.1007
  416MOL0     C54805   8.440   0.889   2.901 -0.2842  0.2229 -0.3496
  416MOL0     C54806   8.359   0.780   2.951 -0.6886 -0.0338 -0.0315
  416MOL0     C54807   8.219   0.774   2.904  0.0898 -0.2091 -0.3995
  416MOL0     C54808   8.179   0.855   2.800 -0.1861 -0.3744  0.9528
  416MOL0     C54809   8.035   0.849   2.756 -1.0684 -0.0145  0.7611
  416MOL0     O54810   7.938   0.807   2.833  0.6360 -0.2425 -0.5357
  416MOL0     C54811   7.818   0.762   2.778 -0.2598 -0.4581  0.0030
  416MOL0     C54812   7.809   0.689   2.656 -0.4174 -0.4440  0.7149
  416MOL0     C54813   7.683   0.663   2.596  0.2929 -0.2625  0.2313
  416MOL0     C54814   7.570   0.716   2.661  0.0562  0.2319  0.3481
  416MOL0     O54815   7.451   0.695   2.602 -0.0892  0.3545 -0.3519
  416MOL0     C54816   7.406   0.560   2.596 -0.5006 -0.5394  0.3514
  416MOL0     C54817   7.317   0.537   2.713  0.3604 -0.2198 -0.0351
  416MOL0     C54818   7.184   0.611   2.698 -0.1119 -0.5304 -1.2412
  416MOL0     C54819   7.090   0.590   2.813 -0.3784  0.0243 -0.4197
  416MOL0     C54820   6.958   0.651   2.762 -0.1228  0.2252  0.0094
  416MOL0     C54821   6.841   0.631   2.858 -0.4346 -0.2500 -0.8256
  416MOL0     C54822   6.725   0.706   2.804  0.1747 -0.8911  0.3641
  416MOL0     C54823   6.594   0.688   2.887  0.0855 -0.7388  0.6513
  416MOL0    Cl54824   6.517   0.524   2.882  0.8035 -0.1327 -0.3452
  416MOL0     C54825   7.580   0.785   2.781 -0.1341 -0.0347 -0.7078
  416MOL0     C54826   7.706   0.805   2.842 -0.4351  0.4092 -0.5452
  416MOL0     O54827   8.024   0.874   2.639 -0.2044 -0.3880 -0.3161
  416MOL0     C54828   8.266   0.950   2.739 -0.0681  0.0364  0.2470
  416MOL0     C54829   8.395   0.964   2.791  0.2148  1.0024  0.2077
  416MOL0     N54830   8.915   0.628   3.434  0.7603 -0.7951 -0.5405
  416MOL0     N54831   9.004   0.627   3.531  0.3312  0.8578  0.0202
  416MOL0     C54832  10.082   0.511   2.862 -0.4302  0.2956  0.7821
  416MOL0     C54833  10.189   0.500   2.779 -1.5193 -0.4166  0.3086
  416MOL0     C54834  10.512   0.370   2.478 -0.2266 -0.0265  1.1678
  416MOL0     C54835  10.560   0.450   2.371 -0.5082  0.0879  0.0923
  416MOL0     C54836  10.666   0.395   2.296 -0.2975  0.3479  0.8577
  416MOL0     C54837  10.744   0.292   2.346 -0.0488 -0.2870  0.4427
  416MOL0     O54838  10.852   0.227   2.298 -0.6792  0.0863  0.1393
  416MOL0     C54839  10.901   0.265   2.169 -0.0039 -0.1691 -0.2147
  416MOL0     C54840  11.053   0.222   2.161  0.1858  0.0871  0.6636
  416MOL0     C54841  11.111   0.260   2.023  0.2743 -0.5152  0.1126
  416MOL0     C54842  11.264   0.273   2.025  0.1527  0.0871 -0.0980
  416MOL0     C54843  11.342   0.147   2.037  0.2505  0.1658 -0.3318
  416MOL0     C54844  11.408   0.039   2.049 -0.5649 -0.2132 -0.2346
  416MOL0     C54845  10.698   0.217   2.457 -0.0225 -0.7261 -1.5626
  416MOL0     C54846  10.579   0.254   2.518 -0.2086 -0.1531 -0.6484
  416MOL0     H54847  10.248   0.165   2.815  0.6132 -1.0626 -0.5177
  416MOL0     H54848  10.039   0.188   2.935  1.5147 -1.4477 -0.8621
  416MOL0     H54849   9.796   0.554   2.943 -0.6751 -1.6894 -0.4061
  416MOL0     H54850   9.916   0.598   3.066 -0.2141 -0.1305 -0.0041
  416MOL0     H54851   9.783   0.421   3.221  2.0182 -0.2270 -1.8875
  416MOL0     H54852   9.655   0.436   3.108 -0.8286  0.1113  0.9102
  416MOL0     H54853   9.661   0.671   3.123  1.8569  0.1538  0.0448
  416MOL0     H54854   9.771   0.667   3.263 -1.9522  0.9172  2.2681
  416MOL0     H54855   9.485   0.553   3.223  2.0898  0.9114 -1.9309
  416MOL0     H54856   9.596   0.510   3.356  0.7795  0.5471  1.5964
  416MOL0     H54857   9.506   0.798   3.288 -1.2068  3.0638  3.9400
  416MOL0     H54858   9.591   0.753   3.431  0.3151  0.8640 -0.2269
  416MOL0     H54859   9.407   0.615   3.503 -0.5926  0.9745  1.1150
  416MOL0     H54860   9.312   0.642   3.356  0.6054 -2.2643  0.2420
  416MOL0     H54861   9.406   0.849   3.565 -0.1322  2.3666 -1.2922
  416MOL0     H54862   9.302   0.884   3.436 -0.3871 -0.5434  0.2283
  416MOL0     H54863   9.176   0.856   3.650 -2.8210 -0.9981 -0.1223
  416MOL0     H54864   9.222   0.679   3.657  4.1145 -0.7699 -2.5686
  416MOL0     H54865   9.086   0.898   3.368  2.4141 -0.3877  0.1691
  416MOL0     H54866   8.937   0.824   3.161 -0.4263  1.5843 -1.3030
  416MOL0     H54867   8.824   0.897   3.279  2.1328 -0.7141  3.3615
  416MOL0     H54868   8.678   0.730   3.277 -0.7436  0.5280 -1.2027
  416MOL0     H54869   8.774   0.609   3.201 -1.0640  0.3171 -1.0026
  416MOL0     H54870   8.778   0.773   3.000 -0.1490  0.5754  0.4001
  416MOL0     H54871   8.631   0.674   3.022  2.5487 -0.1070 -2.7195
  416MOL0     H54872   8.658   0.960   3.118 -0.1385  3.4741 -6.8727
  416MOL0     H54873   8.508   0.857   3.140 -0.9312  0.0391 -0.8360
  416MOL0     H54874   8.389   0.716   3.033 -1.2652  0.7590  0.8221
  416MOL0     H54875   8.162   0.693   2.948  1.0487 -0.2870  0.7525
  416MOL0     H54876   7.899   0.670   2.599 -0.7784  1.2008 -0.4820
  416MOL0     H54877   7.676   0.624   2.495  0.9286 -0.3736  0.2267
  416MOL0     H54878   7.488   0.488   2.603 -0.5153 -0.6602 -0.5269
  416MOL0     H54879   7.355   0.553   2.499 -0.3753  0.3384  0.2179
  416MOL0     H54880   7.372   0.568   2.802 -2.4234 -1.8531  2.4152
  416MOL0     H54881   7.290   0.431   2.719 -1.8778  0.4212  3.3628
  416MOL0     H54882   7.144   0.580   2.601  2.0611 -2.3959 -1.6117
  416MOL0     H54883   7.198   0.719   2.706 -0.7354 -0.5796  2.0983
  416MOL0     H54884   7.075   0.485   2.842  1.0432 -0.6034 -1.7559
  416MOL0     H54885   7.121   0.649   2.900 -2.8882 -0.3967  0.8251
  416MOL0     H54886   6.933   0.606   2.665  2.4528 -2.1795  0.3268
  416MOL0     H54887   6.962   0.759   2.748 -2.1619  0.8400  3.1435
  416MOL0     H54888   6.862   0.671   2.958 -3.0861 -2.7928  0.8997
  416MOL0     H54889   6.821   0.526   2.880 -2.8043  0.2669 -0.3063
  416MOL0     H54890   6.749   0.812   2.795 -1.8138 -0.5915 -2.8542
  416MOL0     H54891   6.704   0.675   2.701  1.8902  0.2752 -0.3773
  416MOL0     H54892   6.524   0.758   2.842 -0.0949 -1.8357 -0.8475
  416MOL0     H54893   6.622   0.722   2.987  1.5655  0.0749  0.0075
  416MOL0     H54894   7.486   0.831   2.810 -0.0851 -0.1684 -0.3369
  416MOL0     H54895   7.721   0.869   2.928  2.0471 -1.5871  0.6068
  416MOL0     H54896   8.242   1.012   2.654  1.3729 -0.2732 -0.4253
  416MOL0     H54897   8.456   1.051   2.770  0.4016  0.7509 -0.2796
  416MOL0     H54898  10.041   0.609   2.884  0.9400  0.6193  2.0698
  416MOL0     H54899  10.232   0.597   2.754  2.0984 -1.2656  2.5758
  416MOL0     H54900  10.503   0.534   2.333  0.4072  0.2507 -0.9869
  416MOL0     H54901  10.694   0.444   2.203  1.8972 -3.3971 -0.7244
  416MOL0     H54902  10.875   0.369   2.147 -1.6935 -0.0189  2.0958
  416MOL0     H54903  10.855   0.196   2.098 -1.3053 -1.6187  1.8853
  416MOL0     H54904  11.104   0.284   2.236  0.8745  1.5683 -0.9477
  416MOL0     H54905  11.078   0.116   2.173  0.2880 -0.3886 -2.7678
  416MOL0     H54906  11.069   0.356   1.993  0.1340  0.2632  2.5766
  416MOL0     H54907  11.085   0.184   1.949 -1.2419  1.1733 -1.1787
  416MOL0     H54908  11.293   0.318   1.930 -0.0757 -0.5883 -0.4944
  416MOL0     H54909  11.297   0.342   2.104 -2.7878  2.2541 -0.6079
  416MOL0     H54910  11.461  -0.054   2.044 -1.8975 -0.9663 -1.3271
  416MOL0     H54911  10.757   0.134   2.494  1.4987 -0.2549 -2.8498
  416MOL0     H54912  10.547   0.204   2.609 -1.7722  2.2299  0.1836
  417MOL0     O54913  11.034   1.872   4.006  1.2385  0.5468  0.7724
  417MOL0     C54914  11.036   1.773   4.078  0.1558 -0.5274  0.7379
  417MOL0     O54915  10.927   1.701   4.125 -0.3987 -0.5301 -1.1576
  417MOL0     C54916  10.825   1.700   4.041 -0.4532 -0.3351  0.8399
  417MOL0     C54917  10.696   1.766   4.069 -1.2238  0.3934 -1.0792
  417MOL0     C54918  10.601   1.783   3.975  0.6555  0.4176 -0.3450
  417MOL0     C54919  10.616   1.729   3.842  0.2209  0.6898  0.0639
  417MOL0     O54920  10.523   1.748   3.736 -0.3888  0.5075 -0.3073
  417MOL0     C54921  10.413   1.834   3.763  0.6645  0.0485  0.7629
  417MOL0     C54922  10.325   1.829   3.636 -0.1371  1.3246  0.5812
  417MOL0     C54923  10.204   1.909   3.640  0.6694 -0.3807  0.1614
  417MOL0     C54924  10.127   1.896   3.505 -0.2203 -0.6740 -0.3244
  417MOL0     C54925   9.981   1.946   3.516 -0.6879  0.0073 -0.3270
  417MOL0     C54926   9.893   1.893   3.397 -0.1782  0.9889 -0.3205
  417MOL0     C54927   9.756   1.962   3.405 -0.7672  0.1153 -0.6157
  417MOL0     C54928   9.650   1.909   3.305 -0.7452 -0.5513 -1.4536
  417MOL0     N54929   9.692   1.900   3.163 -0.5464 -0.2246  0.5738
  417MOL0     C54930   9.770   1.810   3.102  0.1108 -0.7809 -0.3580
  417MOL0     C54931   9.776   1.843   2.975 -0.1613  0.2177  0.8636
  417MOL0     C54932   9.858   1.776   2.866  0.4154 -0.9984 -0.5592
  417MOL0     C54933   9.805   1.640   2.830  0.2033  0.0430 -0.1533
  417MOL0     C54934   9.661   1.640   2.760 -0.9080 -0.6148 -0.1628
  417MOL0     C54935   9.545   1.615   2.862  0.2854 -0.1383  0.4367
  417MOL0     O54936   9.463   1.527   2.788  0.4403  0.1629 -0.4290
  417MOL0     C54937   9.328   1.542   2.785  0.7138 -0.3567  0.7391
  417MOL0     C54938   9.260   1.459   2.693  0.1607 -1.0702 -0.2406
  417MOL0     C54939   9.121   1.464   2.687  0.4815 -0.4618  0.1086
  417MOL0     C54940   9.044   1.546   2.782  0.1808  0.0599  0.1215
  417MOL0     C54941   8.906   1.528   2.789 -0.0522  0.0368 -0.5925
  417MOL0     O54942   8.850   1.406   2.743 -0.0728  0.0591  0.2472
  417MOL0     C54943   8.709   1.387   2.755 -0.1989  1.1298  0.3609
  417MOL0     C54944   8.615   1.471   2.695 -0.1759 -0.3996 -0.4992
  417MOL0     C54945   8.482   1.474   2.721 -0.1639 -0.1470 -0.4608
  417MOL0     C54946   8.425   1.381   2.815  0.1763  0.4351 -0.2682
  417MOL0     O54947   8.289   1.390   2.833 -0.4250  0.4060 -0.0847
  417MOL0     C54948   8.231   1.316   2.940 -0.0430 -0.0791  0.2804
  417MOL0     C54949   8.075   1.316   2.939 -0.3858 -0.4197 -0.4912
  417MOL0     C54950   8.009   1.223   2.838 -0.0409 -0.1049  0.4764
  417MOL0     C54951   7.864   1.218   2.877 -0.0120  0.5040 -0.1414
  417MOL0     C54952   7.762   1.176   2.769 -0.2540  0.3864 -1.1599
  417MOL0     C54953   7.620   1.163   2.826  0.2255  0.7255  0.0090
  417MOL0     C54954   7.523   1.131   2.714  0.4801  0.7345 -0.2787
  417MOL0     C54955   7.380   1.120   2.765  0.1072  0.9085  0.3093
  417MOL0    Cl54956   7.260   1.119   2.637 -0.4601 -0.5498 -0.0852
  417MOL0     C54957   8.517   1.298   2.884  1.1730  0.3176 -0.0759
  417MOL0     C54958   8.656   1.303   2.857 -0.0933  0.0377  0.9279
  417MOL0     O54959   8.835   1.624   2.832  0.3452 -0.5158 -0.1956
  417MOL0     C54960   9.118   1.619   2.873  0.5308 -0.1872 -0.0164
  417MOL0     C54961   9.255   1.620   2.878 -0.4759  0.3723 -0.6468
  417MOL0     N54962   9.706   1.966   2.960  0.6579  0.0224 -0.7218
  417MOL0     N54963   9.664   2.003   3.076  0.1248  0.0042 -0.1346
  417MOL0     C54964  10.736   1.660   3.810 -0.8026  0.1696 -0.0093
  417MOL0     C54965  10.839   1.642   3.907  0.2942  0.4818  0.0239
  417MOL0     C54966  11.159   1.728   4.146 -0.4174 -0.3189  0.1053
  417MOL0     C54967  11.279   1.807   4.144  0.0731 -0.0771 -0.2786
  417MOL0     C54968  11.396   1.756   4.201 -0.0845 -1.0732  0.3596
  417MOL0     C54969  11.407   1.643   4.269  0.1560  0.3411 -0.2398
  417MOL0     O54970  11.519   1.593   4.335 -0.3687  0.6433  0.3255
  417MOL0     C54971  11.600   1.507   4.250 -0.1954 -0.5665 -0.1895
  417MOL0     C54972  11.728   1.459   4.317  0.5148 -0.2109 -0.6056
  417MOL0     C54973  11.699   1.401   4.457 -0.3432  0.1786  0.0876
  417MOL0     C54974  11.817   1.406   4.546 -0.5525 -0.8075  0.0909
  417MOL0     C54975  11.922   1.312   4.506  0.0011 -0.9871 -0.3404
  417MOL0     C54976  12.004   1.238   4.459 -0.0697 -0.2988  0.2815
  417MOL0     C54977  11.290   1.568   4.277 -0.3501 -0.2060 -0.0259
  417MOL0     C54978  11.171   1.606   4.218  0.8531 -0.1338 -0.6365
  417MOL0     H54979  10.668   1.803   4.167  0.3152 -1.7754  0.2662
  417MOL0     H54980  10.513   1.829   4.018  2.0762 -0.0162  3.4370
  417MOL0     H54981  10.445   1.936   3.784  0.0797  0.3680  0.1443
  417MOL0     H54982  10.349   1.798   3.844 -2.0252  1.6943 -0.4925
  417MOL0     H54983  10.279   1.730   3.625  0.7068  1.1626 -2.1068
  417MOL0     H54984  10.385   1.852   3.548  0.8587 -0.6071  0.7103
  417MOL0     H54985  10.231   2.013   3.660  1.2398 -0.0374 -2.1651
  417MOL0     H54986  10.144   1.892   3.730 -0.1938  0.2075 -0.2942
  417MOL0     H54987  10.163   1.965   3.429 -2.2539  0.8269 -0.0339
  417MOL0     H54988  10.115   1.794   3.468 -0.4809 -0.3637 -1.1012
  417MOL0     H54989   9.975   2.053   3.541  2.0734  0.4975 -1.3447
  417MOL0     H54990   9.944   1.904   3.610  1.8106  1.6549  1.5295
  417MOL0     H54991   9.887   1.784   3.407 -2.5106  1.0715 -0.3092
  417MOL0     H54992   9.955   1.922   3.311  0.4779 -2.1905 -1.0813
  417MOL0     H54993   9.712   1.946   3.504 -1.3895  1.8186 -0.5808
  417MOL0     H54994   9.766   2.069   3.387 -0.7569  0.0299 -1.1345
  417MOL0     H54995   9.561   1.972   3.313 -0.4923 -0.2282 -1.1349
  417MOL0     H54996   9.617   1.810   3.337  2.4646 -1.4423 -0.4901
  417MOL0     H54997   9.826   1.728   3.147  1.1985 -0.6855 -1.4705
  417MOL0     H54998   9.961   1.775   2.904  0.0573 -1.0982  0.4191
  417MOL0     H54999   9.859   1.845   2.781  0.2693  1.1625  1.1152
  417MOL0     H55000   9.809   1.598   2.931 -2.0285 -2.7849 -1.1028
  417MOL0     H55001   9.882   1.587   2.773  2.6371  1.2781  1.7984
  417MOL0     H55002   9.642   1.734   2.706 -0.7248 -0.4878 -0.0065
  417MOL0     H55003   9.656   1.554   2.692  1.2575 -1.5213  0.7576
  417MOL0     H55004   9.508   1.717   2.880  0.6893 -0.1571  1.4760
  417MOL0     H55005   9.571   1.572   2.960  0.4364 -0.8579  0.0843
  417MOL0     H55006   9.320   1.397   2.626  1.1912  1.2114 -1.5576
  417MOL0     H55007   9.075   1.399   2.613 -0.2634  0.9517 -0.7166
  417MOL0     H55008   8.651   1.547   2.627 -0.4180  1.6641  1.5623
  417MOL0     H55009   8.408   1.529   2.664 -2.2959 -1.9552  0.3840
  417MOL0     H55010   8.267   1.365   3.031  2.9432 -0.2408 -0.7305
  417MOL0     H55011   8.262   1.212   2.931 -1.4328 -0.4829 -0.1230
  417MOL0     H55012   8.036   1.416   2.917  0.2286 -0.4203 -1.6833
  417MOL0     H55013   8.044   1.292   3.041  0.8109  3.5634  1.0284
  417MOL0     H55014   8.052   1.122   2.834 -2.8987 -1.3790 -0.1087
  417MOL0     H55015   8.026   1.267   2.740  3.2482  0.1492  1.0468
  417MOL0     H55016   7.852   1.152   2.964  0.3503  0.0075 -0.4611
  417MOL0     H55017   7.841   1.318   2.914 -0.5460 -0.4804  2.3986
  417MOL0     H55018   7.805   1.082   2.733  0.4846  1.0511 -2.0437
  417MOL0     H55019   7.753   1.239   2.680 -4.8525 -0.5033 -1.5850
  417MOL0     H55020   7.604   1.256   2.882 -1.0555 -1.2904  3.3178
  417MOL0     H55021   7.613   1.085   2.903 -1.2075  1.9350  1.1465
  417MOL0     H55022   7.529   1.195   2.625 -0.1658  1.6566  0.3238
  417MOL0     H55023   7.547   1.031   2.677  0.9204  1.0551 -0.8689
  417MOL0     H55024   7.352   1.176   2.855  0.8971 -1.8794  2.4399
  417MOL0     H55025   7.368   1.017   2.801  3.0496  0.2330 -0.4176
  417MOL0     H55026   8.488   1.227   2.962  3.7612 -2.2721 -1.2701
  417MOL0     H55027   8.719   1.230   2.907  1.4039 -1.2689 -2.5809
  417MOL0     H55028   9.066   1.672   2.953 -1.7278 -2.3286  0.0773
  417MOL0     H55029   9.290   1.676   2.964  0.6873 -1.5729  0.2274
  417MOL0     H55030  10.749   1.618   3.711 -1.5342 -1.0234  0.3741
  417MOL0     H55031  10.929   1.586   3.883 -1.3231 -2.2897 -0.0022
  417MOL0     H55032  11.282   1.902   4.092 -0.6650  0.3277  0.3972
  417MOL0     H55033  11.482   1.822   4.191 -1.1438  0.1709 -0.8492
  417MOL0     H55034  11.628   1.558   4.157  1.7241 -0.3496  0.4760
  417MOL0     H55035  11.549   1.415   4.218 -0.7244 -0.9437  1.6468
  417MOL0     H55036  11.759   1.380   4.248  0.1813 -0.8699 -0.0179
  417MOL0     H55037  11.799   1.541   4.331  1.0408 -1.0959  3.0615
  417MOL0     H55038  11.679   1.294   4.446  0.8543 -0.1378  0.7785
  417MOL0     H55039  11.620   1.459   4.506 -2.6903  0.0250 -3.2480
  417MOL0     H55040  11.849   1.510   4.552  0.3562 -0.8468 -2.7362
  417MOL0     H55041  11.777   1.383   4.646  0.1014  1.5708  0.9728
  417MOL0     H55042  12.072   1.164   4.422 -2.5487 -1.7768 -1.7164
  417MOL0     H55043  11.296   1.479   4.339  3.4616 -0.1829 -0.1811
  417MOL0     H55044  11.083   1.546   4.236 -0.6539  2.2735  0.6951
  418MOL0     O55045  10.132   3.243   5.212  0.2743 -0.4577 -0.7664
  418MOL0     C55046  10.143   3.131   5.172 -0.2583 -0.2567  0.0155
  418MOL0     O55047  10.109   3.086   5.044  0.3992 -0.4740 -0.0004
  418MOL0     C55048  10.039   3.170   4.958  0.2074 -1.3821 -0.3730
  418MOL0     C55049   9.918   3.233   4.997 -0.1738 -0.7902  0.1128
  418MOL0     C55050   9.849   3.325   4.909  0.2079  0.5231  0.2623
  418MOL0     C55051   9.902   3.338   4.779 -0.4545 -0.3937 -0.1962
  418MOL0     O55052   9.833   3.424   4.695  0.3935  0.8534  0.3588
  418MOL0     C55053   9.888   3.459   4.566 -0.1913 -0.4548  0.8794
  418MOL0     C55054   9.832   3.593   4.522 -0.4652  0.8952  0.5728
  418MOL0     C55055   9.880   3.627   4.382  1.3256 -0.3975 -0.1294
  418MOL0     C55056  10.022   3.577   4.347  0.8049  0.3671  0.1199
  418MOL0     C55057  10.064   3.600   4.205 -0.7530  0.5104  0.1057
  418MOL0     C55058  10.211   3.574   4.176 -0.5293 -0.2879 -0.0300
  418MOL0     C55059  10.234   3.565   4.029 -0.1113 -0.1794  0.1112
  418MOL0     C55060  10.369   3.518   3.985 -0.1526 -0.6187 -0.6508
  418MOL0     N55061  10.474   3.616   3.995  0.8261 -0.2115 -0.2008
  418MOL0     C55062  10.477   3.731   3.918  0.9116  0.6206  0.2891
  418MOL0     C55063  10.590   3.789   3.958 -0.1528 -0.6798  0.8163
  418MOL0     C55064  10.672   3.910   3.923 -0.2846 -0.4009  0.2749
  418MOL0     C55065  10.636   3.968   3.789 -0.7168  0.2382  1.2337
  418MOL0     C55066  10.695   4.108   3.758  0.2551 -0.2616 -0.0517
  418MOL0     C55067  10.838   4.111   3.730  0.4189 -0.0343 -0.4765
  418MOL0     O55068  10.882   4.010   3.635  0.5201  0.3461  0.1701
  418MOL0     C55069  11.016   4.003   3.625  0.7462  0.4317 -0.0673
  418MOL0     C55070  11.051   3.896   3.542  0.5617 -0.3702  0.2407
  418MOL0     C55071  11.189   3.868   3.515 -0.7679 -0.5977 -0.0389
  418MOL0     C55072  11.295   3.945   3.567 -0.5372  0.3801  0.1100
  418MOL0     C55073  11.435   3.918   3.529 -0.8743 -0.3686 -0.5834
  418MOL0     O55074  11.518   4.020   3.551 -0.2993  0.1187  0.1189
  418MOL0     C55075  11.655   3.994   3.556  0.5478 -1.0160 -0.7751
  418MOL0     C55076  11.725   4.006   3.677  0.0580  0.4978 -0.6878
  418MOL0     C55077  11.859   3.996   3.679 -0.5036  0.4881 -0.3872
  418MOL0     C55078  11.934   3.971   3.561 -0.1569 -0.3218  0.1979
  418MOL0     O55079  12.065   3.974   3.556  0.5967  0.4666 -0.0151
  418MOL0     C55080  12.145   3.971   3.678 -0.2013 -0.1749  0.2647
  418MOL0     C55081  12.292   3.971   3.637  0.2384 -0.5286 -0.0288
  418MOL0     C55082  12.335   3.856   3.553 -0.3012 -0.1481  0.0281
  418MOL0     C55083  12.477   3.857   3.504  0.0425 -0.4781  0.5139
  418MOL0     C55084  12.510   3.725   3.457  0.0906 -0.1692 -0.6108
  418MOL0     C55085  12.642   3.720   3.384 -0.0117  0.2562  0.1111
  418MOL0     C55086  12.777   3.762   3.456  0.5587  0.5075 -1.1034
  418MOL0     C55087  12.897   3.719   3.390  0.4841  0.4835  0.6066
  418MOL0    Cl55088  13.050   3.782   3.468  0.3239  0.3318 -0.5423
  418MOL0     C55089  11.864   3.940   3.440  0.0791 -0.7333 -0.1771
  418MOL0     C55090  11.724   3.966   3.440 -0.0850  0.7484 -0.0585
  418MOL0     O55091  11.468   3.800   3.507 -0.1147 -0.2682  0.4233
  418MOL0     C55092  11.251   4.046   3.654 -0.8370  0.4839  0.2174
  418MOL0     C55093  11.117   4.077   3.676  0.0203  0.4411  0.0007
  418MOL0     N55094  10.638   3.721   4.066  0.5305  0.8206  0.1340
  418MOL0     N55095  10.557   3.618   4.091 -0.5676  0.2373  0.5990
  418MOL0     C55096  10.024   3.269   4.742  0.3243 -0.1665  0.2436
  418MOL0     C55097  10.090   3.197   4.834  0.2451 -0.6694 -0.0764
  418MOL0     C55098  10.201   3.031   5.258 -0.1002 -0.2359 -0.0615
  418MOL0     C55099  10.202   3.064   5.399 -0.4822  0.5670  0.2768
  418MOL0     C55100  10.250   2.960   5.480 -0.2253  0.1731  0.1685
  418MOL0     C55101  10.300   2.837   5.435 -0.2438 -0.6190  0.1914
  418MOL0     O55102  10.352   2.756   5.527 -0.8862  0.0047 -0.9337
  418MOL0     C55103  10.404   2.624   5.493 -1.1930 -0.4737 -0.1221
  418MOL0     C55104  10.363   2.505   5.588 -0.7974 -0.3500  0.3180
  418MOL0     C55105  10.396   2.513   5.734 -0.0283  0.3431  0.2068
  418MOL0     C55106  10.546   2.499   5.762 -0.3762 -0.3845 -0.1984
  418MOL0     C55107  10.580   2.494   5.906 -0.2751 -0.4501  0.5801
  418MOL0     C55108  10.614   2.482   6.023  0.1467 -0.2342 -0.3902
  418MOL0     C55109  10.309   2.819   5.297 -0.2340 -0.3389 -0.3109
  418MOL0     C55110  10.255   2.913   5.211 -0.6948  1.1605  1.0756
  418MOL0     H55111   9.877   3.204   5.093 -0.7040  1.4029  0.6059
  418MOL0     H55112   9.753   3.364   4.940  0.2761 -0.6233  2.0500
  418MOL0     H55113   9.876   3.386   4.486  0.3140  2.5633 -2.1933
  418MOL0     H55114   9.995   3.480   4.577 -0.6740  2.1461  1.2190
  418MOL0     H55115   9.876   3.663   4.593 -3.2101  2.4369  0.8742
  418MOL0     H55116   9.725   3.602   4.539 -0.4910  1.1350  0.2981
  418MOL0     H55117   9.879   3.735   4.363  0.1627 -0.7269 -2.1750
  418MOL0     H55118   9.813   3.595   4.302 -0.9232  2.2814  0.5171
  418MOL0     H55119  10.091   3.637   4.408 -0.0091  1.1091  0.3400
  418MOL0     H55120  10.045   3.472   4.367 -2.1669 -0.1600  1.2359
  418MOL0     H55121  10.042   3.702   4.174  0.4573 -0.0187 -2.7638
  418MOL0     H55122   9.998   3.540   4.142 -1.7898  2.6797 -0.9916
  418MOL0     H55123  10.242   3.480   4.223  2.5457  0.4571 -0.2998
  418MOL0     H55124  10.282   3.654   4.201  2.1545 -2.0232 -1.5174
  418MOL0     H55125  10.166   3.494   3.980  0.3341 -0.8336  0.4221
  418MOL0     H55126  10.199   3.660   3.988 -0.6036 -0.0180  0.8808
  418MOL0     H55127  10.352   3.484   3.882 -1.0197  0.3328 -0.8364
  418MOL0     H55128  10.390   3.429   4.046 -1.2979 -1.9193 -2.0581
  418MOL0     H55129  10.404   3.748   3.839  1.5290 -1.7965 -0.9085
  418MOL0     H55130  10.776   3.879   3.929 -1.0086 -3.4069 -0.5821
  418MOL0     H55131  10.642   3.981   4.001  2.0976 -1.4018  2.2096
  418MOL0     H55132  10.528   3.968   3.775 -0.6084 -2.2323 -0.0178
  418MOL0     H55133  10.673   3.895   3.717 -3.7300 -1.0984  0.9127
  418MOL0     H55134  10.652   4.146   3.666  1.0770  2.0893  0.4625
  418MOL0     H55135  10.665   4.183   3.832  0.8602  2.3214 -2.2773
  418MOL0     H55136  10.884   4.090   3.827  0.1297 -1.2951 -0.5925
  418MOL0     H55137  10.874   4.210   3.702 -0.4703  0.5137  0.2959
  418MOL0     H55138  10.976   3.833   3.495 -1.7303  2.6086 -0.3929
  418MOL0     H55139  11.215   3.800   3.434 -0.1745 -1.1955  0.6418
  418MOL0     H55140  11.675   4.029   3.771  2.0235 -0.5061  0.6755
  418MOL0     H55141  11.902   3.994   3.779  0.5159 -0.9593 -0.8257
  418MOL0     H55142  12.110   3.889   3.742  1.1080 -0.7471  0.2954
  418MOL0     H55143  12.132   4.063   3.736  0.9602  1.7204 -2.2928
  418MOL0     H55144  12.354   3.990   3.725  0.6954 -0.9518 -0.2570
  418MOL0     H55145  12.298   4.064   3.581 -0.4780  1.4884  2.9668
  418MOL0     H55146  12.268   3.840   3.468 -1.0453  1.6760  0.2154
  418MOL0     H55147  12.331   3.773   3.623 -0.8764  0.6397  0.9532
  418MOL0     H55148  12.486   3.930   3.422  0.2928 -2.9413 -1.7932
  418MOL0     H55149  12.547   3.890   3.582  0.6654 -1.5959  0.4536
  418MOL0     H55150  12.431   3.688   3.391  0.8898 -2.9627 -0.1308
  418MOL0     H55151  12.521   3.661   3.544  1.1561  1.6337  0.6449
  418MOL0     H55152  12.635   3.781   3.292  0.9368  1.7952  1.0014
  418MOL0     H55153  12.660   3.621   3.343  1.0030  0.6128 -0.3500
  418MOL0     H55154  12.776   3.864   3.495  0.0578 -0.2235  0.8892
  418MOL0     H55155  12.769   3.701   3.546 -1.0131  0.4067 -1.2768
  418MOL0     H55156  12.907   3.755   3.288  3.1504 -1.4358  0.0852
  418MOL0     H55157  12.892   3.610   3.381 -1.5314  0.4476  1.5433
  418MOL0     H55158  11.928   3.908   3.359  1.4571 -2.2642  1.4273
  418MOL0     H55159  11.673   3.957   3.345  0.4943 -3.4020 -0.1236
  418MOL0     H55160  11.327   4.105   3.704 -0.6174 -0.3351  0.8928
  418MOL0     H55161  11.090   4.163   3.737 -0.7900 -0.8945  1.6246
  418MOL0     H55162  10.078   3.279   4.648  1.3278 -2.0859  0.5782
  418MOL0     H55163  10.189   3.155   4.817  0.5634 -1.2100  2.6090
  418MOL0     H55164  10.152   3.151   5.441  1.1963  3.0635 -2.4870
  418MOL0     H55165  10.256   2.967   5.588 -0.4215  1.1932  0.1254
  418MOL0     H55166  10.513   2.621   5.501 -1.1091  2.8477  2.9717
  418MOL0     H55167  10.366   2.592   5.396 -0.2304 -1.1593 -0.2859
  418MOL0     H55168  10.256   2.488   5.579 -1.0737  1.4898 -0.3118
  418MOL0     H55169  10.411   2.417   5.544 -1.2123 -0.2660 -0.3148
  418MOL0     H55170  10.335   2.433   5.777 -2.7644  1.0497 -2.0244
  418MOL0     H55171  10.363   2.603   5.785  0.0286  0.1923  0.5081
  418MOL0     H55172  10.588   2.420   5.700 -0.0753  0.3909 -1.0090
  418MOL0     H55173  10.585   2.593   5.721  1.0218 -1.7023 -2.0159
  418MOL0     H55174  10.647   2.470   6.125 -4.5591  1.1277  1.5470
  418MOL0     H55175  10.352   2.733   5.246  0.0414  0.5114 -1.5403
  418MOL0     H55176  10.263   2.894   5.105  2.0433 -1.7829  1.6598
  419MOL0     O55177   2.233   4.944   0.218  0.1576  0.3802  0.5603
  419MOL0     C55178   2.215   5.063   0.213  0.1233 -1.5074 -0.5658
  419MOL0     O55179   2.121   5.132   0.285  0.3882 -0.2520  1.1250
  419MOL0     C55180   2.025   5.079   0.365  0.6112  0.7719  0.3893
  419MOL0     C55181   1.954   4.955   0.337  0.2061 -0.6640 -0.2784
  419MOL0     C55182   1.864   4.912   0.429 -0.0787  0.3471  0.2376
  419MOL0     C55183   1.840   4.981   0.550 -0.0684  0.8248 -0.3503
  419MOL0     O55184   1.757   4.916   0.636 -0.8576 -0.3096  0.5005
  419MOL0     C55185   1.707   5.001   0.746  0.2908 -0.0055 -0.3971
  419MOL0     C55186   1.643   4.905   0.845  0.3687 -0.7423 -0.3583
  419MOL0     C55187   1.737   4.852   0.946 -0.0917 -0.2837  0.1279
  419MOL0     C55188   1.675   4.787   1.066  1.0941  1.3626 -0.1974
  419MOL0     C55189   1.785   4.777   1.166 -0.4010  0.3086  0.0187
  419MOL0     C55190   1.725   4.717   1.298  0.1976  0.0247  0.3140
  419MOL0     C55191   1.835   4.664   1.394  0.0183  0.3076 -0.1077
  419MOL0     C55192   1.905   4.773   1.480 -0.1196 -0.1052  1.0201
  419MOL0     N55193   1.811   4.854   1.561  0.6379 -0.1094  0.1943
  419MOL0     C55194   1.719   4.799   1.662  0.0403  0.4699  0.4215
  419MOL0     C55195   1.647   4.907   1.697  0.4788  0.3299  0.2044
  419MOL0     C55196   1.540   4.893   1.799 -0.2001  0.3533 -0.1970
  419MOL0     C55197   1.392   4.908   1.747 -0.3318  1.3224  0.4620
  419MOL0     C55198   1.377   5.025   1.650  0.0213  0.0614 -0.3112
  419MOL0     C55199   1.229   5.061   1.616 -0.0530 -0.6367  0.5002
  419MOL0     O55200   1.150   4.958   1.552 -0.3572  0.3887  0.6130
  419MOL0     C55201   1.013   4.958   1.594  0.0028  0.3539 -0.2235
  419MOL0     C55202   0.977   4.879   1.702 -0.2230  0.6090  0.4007
  419MOL0     C55203   0.845   4.871   1.761  0.5856 -0.3940  0.9559
  419MOL0     C55204   0.741   4.945   1.694 -0.7018  0.5356 -0.6882
  419MOL0     C55205   0.604   4.950   1.735 -0.5627 -0.2948  0.2625
  419MOL0     O55206   0.516   4.986   1.639  0.7151  0.7930 -0.1050
  419MOL0     C55207   0.381   4.948   1.646  0.0246  0.0367  0.1346
  419MOL0     C55208   0.283   5.044   1.622  0.5725  0.4501 -1.0152
  419MOL0     C55209   0.150   5.012   1.631 -0.0021  0.9383  0.0855
  419MOL0     C55210   0.108   4.884   1.670  0.9807  0.3802  0.3581
  419MOL0     O55211  -0.026   4.862   1.686  0.3502 -0.0980  0.5691
  419MOL0     C55212  -0.076   4.731   1.706 -0.7630 -0.1239 -0.0358
  419MOL0     C55213  -0.228   4.727   1.710  0.1887 -0.2838  0.0151
  419MOL0     C55214  -0.292   4.768   1.848 -0.2320 -0.8070  1.1382
  419MOL0     C55215  -0.443   4.785   1.846 -0.9676  0.2814  0.1217
  419MOL0     C55216  -0.505   4.653   1.825 -0.1638  0.1107 -0.0404
  419MOL0     C55217  -0.654   4.667   1.797  0.0592  0.0376  0.7393
  419MOL0     C55218  -0.727   4.535   1.761 -0.7810 -0.1911 -0.2004
  419MOL0     C55219  -0.872   4.559   1.709  0.1620  0.4231 -0.2073
  419MOL0    Cl55220  -0.998   4.633   1.830  0.0294  0.2975 -0.1009
  419MOL0     C55221   0.214   4.788   1.704 -0.3111  0.0229  0.0580
  419MOL0     C55222   0.344   4.826   1.690  0.5702  0.6888  0.2888
  419MOL0     O55223   0.576   4.891   1.842  0.1991  0.2811  0.3240
  419MOL0     C55224   0.781   5.034   1.586  0.4036  0.5540  0.2372
  419MOL0     C55225   0.915   5.042   1.539  0.3630  0.0765 -0.3704
  419MOL0     N55226   1.686   5.018   1.628  0.0359 -0.9667  0.4114
  419MOL0     N55227   1.786   4.987   1.545  0.2827  0.3592 -0.6988
  419MOL0     C55228   1.907   5.110   0.568  0.6505  0.7090 -0.3711
  419MOL0     C55229   1.998   5.157   0.474 -0.4133 -0.0928  0.2151
  419MOL0     C55230   2.303   5.137   0.127 -0.2409  0.4031  0.1794
  419MOL0     C55231   2.390   5.066   0.035  0.5931 -0.3039 -0.4346
  419MOL0     C55232   2.465   5.145  -0.057  0.0225  1.4287 -0.3010
  419MOL0     C55233   2.457   5.281  -0.050 -0.0962 -0.5541 -0.1836
  419MOL0     O55234   2.532   5.364  -0.134  1.2744 -0.0813  0.3431
  419MOL0     C55235   2.609   5.302  -0.237  0.7783  0.0311  0.2475
  419MOL0     C55236   2.660   5.413  -0.329  0.2163  0.1886  0.5895
  419MOL0     C55237   2.728   5.356  -0.459  0.6111  0.0646 -0.4429
  419MOL0     C55238   2.771   5.470  -0.541 -0.0863 -0.2732  0.5549
  419MOL0     C55239   2.869   5.432  -0.645  0.5862  1.1341 -0.1069
  419MOL0     C55240   2.952   5.400  -0.726 -0.0754 -0.4382  0.1134
  419MOL0     C55241   2.365   5.343   0.037 -0.3336  0.1121  0.3213
  419MOL0     C55242   2.291   5.276   0.128 -0.1473 -0.2083  0.0692
  419MOL0     H55243   1.978   4.902   0.245 -0.2454  0.8596 -1.3350
  419MOL0     H55244   1.807   4.821   0.411 -1.6345  1.3361 -0.0675
  419MOL0     H55245   1.643   5.082   0.709  0.4589  0.1677 -0.3110
  419MOL0     H55246   1.786   5.051   0.802 -0.1313  0.6811 -0.3945
  419MOL0     H55247   1.589   4.829   0.789  0.3149  0.5127 -2.0703
  419MOL0     H55248   1.563   4.957   0.899  1.1680 -1.3509  1.4982
  419MOL0     H55249   1.781   4.945   0.983  1.5159 -0.5060 -1.1236
  419MOL0     H55250   1.819   4.797   0.899 -0.5750 -0.0104 -1.0636
  419MOL0     H55251   1.594   4.851   1.103 -0.2721  1.1542 -2.6378
  419MOL0     H55252   1.633   4.689   1.043 -1.3737  2.3122 -0.0580
  419MOL0     H55253   1.835   4.873   1.183  0.6406 -0.3478  0.7318
  419MOL0     H55254   1.855   4.698   1.138  0.5276  0.6282  1.3135
  419MOL0     H55255   1.661   4.633   1.271 -0.7476  0.5824  0.7630
  419MOL0     H55256   1.663   4.782   1.361  2.5552  0.7110  2.1131
  419MOL0     H55257   1.795   4.592   1.466  0.3283 -0.0818 -0.3195
  419MOL0     H55258   1.906   4.607   1.333 -0.9551  0.4427 -1.4146
  419MOL0     H55259   1.962   4.848   1.424  0.2152 -0.5543  0.7514
  419MOL0     H55260   1.967   4.722   1.555  0.0538 -1.5171 -0.0383
  419MOL0     H55261   1.715   4.695   1.692 -1.7996 -0.2301 -1.9240
  419MOL0     H55262   1.549   4.967   1.879  0.0267 -0.3085  0.4112
  419MOL0     H55263   1.540   4.791   1.839 -1.9333  0.5013  0.2784
  419MOL0     H55264   1.326   4.917   1.834 -1.4092  0.5047 -0.2461
  419MOL0     H55265   1.362   4.814   1.700  2.5877  0.4958  0.0881
  419MOL0     H55266   1.423   5.114   1.694 -0.6647  0.5078 -0.4889
  419MOL0     H55267   1.427   5.012   1.554 -0.6952 -0.1290 -0.6640
  419MOL0     H55268   1.226   5.150   1.552 -1.9828 -1.1161 -0.1209
  419MOL0     H55269   1.178   5.083   1.710  1.7326 -2.1804  1.9016
  419MOL0     H55270   1.060   4.837   1.758 -0.9360 -0.9463  0.3397
  419MOL0     H55271   0.832   4.807   1.847  0.9246 -1.0779  0.5014
  419MOL0     H55272   0.336   5.133   1.590  2.2273 -0.0346  0.1807
  419MOL0     H55273   0.076   5.085   1.600 -2.0406 -0.4528  1.3883
  419MOL0     H55274  -0.038   4.694   1.801 -0.6843 -1.1815 -0.4722
  419MOL0     H55275  -0.042   4.669   1.623  1.7379  1.0593  0.0118
  419MOL0     H55276  -0.252   4.621   1.692 -0.8175  0.1197 -1.1954
  419MOL0     H55277  -0.264   4.789   1.628 -1.0562 -0.9854 -0.0016
  419MOL0     H55278  -0.254   4.866   1.878  0.8712 -0.2870 -1.6505
  419MOL0     H55279  -0.259   4.697   1.924 -0.0962 -1.1444  0.7738
  419MOL0     H55280  -0.476   4.817   1.945 -0.6422  0.0137  0.3206
  419MOL0     H55281  -0.476   4.861   1.775  0.5536  2.5646  1.7048
  419MOL0     H55282  -0.481   4.594   1.914 -2.2200 -1.3058 -0.3761
  419MOL0     H55283  -0.463   4.611   1.733 -2.6756 -0.6025 -0.9490
  419MOL0     H55284  -0.652   4.720   1.702  1.4165 -2.1273 -0.5394
  419MOL0     H55285  -0.711   4.725   1.870 -0.6484  0.1709  0.0838
  419MOL0     H55286  -0.665   4.491   1.683 -1.0827 -0.9388 -0.0354
  419MOL0     H55287  -0.724   4.481   1.856  2.1193 -1.7539 -1.0798
  419MOL0     H55288  -0.912   4.461   1.681  1.9600  0.4016 -3.0032
  419MOL0     H55289  -0.871   4.622   1.620  0.5601 -0.0327 -0.5243
  419MOL0     H55290   0.201   4.684   1.733 -1.5863 -0.1838 -1.1056
  419MOL0     H55291   0.423   4.755   1.711  0.7896  0.6418 -0.6355
  419MOL0     H55292   0.702   5.092   1.540  0.5493 -0.3413 -1.2083
  419MOL0     H55293   0.938   5.123   1.470  3.8076  0.9114  1.5361
  419MOL0     H55294   1.896   5.158   0.665 -1.4086  0.7415 -0.5814
  419MOL0     H55295   2.052   5.251   0.479 -1.3996  0.4219  2.4734
  419MOL0     H55296   2.392   4.959   0.021 -1.8067 -0.5359  0.6680
  419MOL0     H55297   2.537   5.091  -0.118  1.7447  0.7828  2.1729
  419MOL0     H55298   2.545   5.236  -0.297 -1.3957  1.9610  0.3070
  419MOL0     H55299   2.695   5.250  -0.195  1.5132  0.9684 -0.0426
  419MOL0     H55300   2.582   5.482  -0.365 -0.1731  0.2761  1.5620
  419MOL0     H55301   2.735   5.474  -0.277  0.8247 -0.7605  0.8394
  419MOL0     H55302   2.668   5.286  -0.518  0.2271  0.6364 -0.7466
  419MOL0     H55303   2.817   5.307  -0.418 -0.0003 -0.4893  0.2629
  419MOL0     H55304   2.689   5.519  -0.594  0.8855 -0.2613 -1.0074
  419MOL0     H55305   2.823   5.544  -0.479 -0.6252  0.6634 -0.0839
  419MOL0     H55306   3.026   5.372  -0.798 -0.1109  0.2758 -0.2145
  419MOL0     H55307   2.368   5.451   0.036 -0.0635  0.0995 -0.2448
  419MOL0     H55308   2.234   5.322   0.208 -0.7835 -1.1850  0.1900
  420MOL0     O55309   2.264   5.135  10.346 -0.0704  0.1652 -0.4807
  420MOL0     C55310   2.369   5.151  10.401 -0.2195 -0.5377 -0.1143
  420MOL0     O55311   2.396   5.168  10.537  0.0483  0.0159  0.3738
  420MOL0     C55312   2.295   5.163  10.630 -0.4043  0.2186 -0.3894
  420MOL0     C55313   2.312   5.242  10.741  0.5187 -0.7372  0.8190
  420MOL0     C55314   2.202   5.241  10.838 -0.2032 -0.1324 -0.4266
  420MOL0     C55315   2.098   5.146  10.839 -0.8785  0.1931  0.2600
  420MOL0     O55316   2.007   5.125  10.944 -0.2795  0.1056 -0.1778
  420MOL0     C55317   2.027   5.214  11.060  0.5186  0.8163 -0.2322
  420MOL0     C55318   1.936   5.178  11.174 -0.6227 -0.2019  0.0175
  420MOL0     C55319   1.787   5.163  11.125 -0.4628 -0.6089 -1.1003
  420MOL0     C55320   1.693   5.140  11.249 -1.5556  0.5647  0.1051
  420MOL0     C55321   1.553   5.127  11.191  0.2219 -0.0944 -0.2699
  420MOL0     C55322   1.452   5.106  11.303  0.5320 -0.3518  0.1126
  420MOL0     C55323   1.308   5.079  11.255  0.0898 -0.9172 -0.0877
  420MOL0     C55324   1.243   5.195  11.168  0.2136  0.2237  0.0468
  420MOL0     N55325   1.094   5.188  11.178 -0.8229 -0.9373  0.1869
  420MOL0     C55326   1.008   5.115  11.097 -0.6218  0.2574 -0.7483
  420MOL0     C55327   0.884   5.162  11.137  0.1646  0.2796  0.9606
  420MOL0     C55328   0.763   5.106  11.067 -0.2738  0.7196  0.0030
  420MOL0     C55329   0.638   5.075  11.160 -0.0389  0.0969  0.0969
  420MOL0     C55330   0.530   4.991  11.099 -0.1933 -0.2333  0.7755
  420MOL0     C55331   0.407   4.974  11.190 -0.2733 -0.0941  0.3771
  420MOL0     O55332   0.314   5.079  11.149 -0.3426 -0.6206 -0.3832
  420MOL0     C55333   0.188   5.051  11.122 -0.1974 -1.1341  0.6132
  420MOL0     C55334   0.113   4.952  11.193 -0.2049  0.4129 -0.9461
  420MOL0     C55335  -0.019   4.919  11.173  0.3649 -0.8924  1.0912
  420MOL0     C55336  -0.088   4.984  11.065 -0.6210 -0.2758 -0.4616
  420MOL0     C55337  -0.230   4.955  11.049  0.0186  0.1378 -0.5016
  420MOL0     O55338  -0.274   4.845  11.119  0.7611  0.0283 -0.4896
  420MOL0     C55339  -0.411   4.838  11.150  0.4624 -0.3823  0.2092
  420MOL0     C55340  -0.463   4.706  11.142  0.5367  0.0756 -0.5544
  420MOL0     C55341  -0.586   4.678  11.189  0.0412  0.1948 -0.7947
  420MOL0     C55342  -0.682   4.783  11.219 -0.7887 -0.5563  0.2553
  420MOL0     O55343  -0.822   4.768  11.237  0.1897  0.4272 -0.2778
  420MOL0     C55344  -0.878   4.662  11.146 -0.6832  0.0744 -0.3569
  420MOL0     C55345  -1.027   4.690  11.107  0.2776 -0.7296 -0.0543
  420MOL0     C55346  -1.100   4.762  11.220 -0.6022 -0.4618 -0.0302
  420MOL0     C55347  -1.258   4.786  11.205  0.4253 -0.2520 -0.4271
  420MOL0     C55348  -1.332   4.785  11.337 -0.5636  0.4224 -0.4499
  420MOL0     C55349  -1.482   4.814  11.315  0.5915 -0.7879  0.2404
  420MOL0     C55350  -1.555   4.853  11.443  0.3582 -0.0671 -0.5351
  420MOL0     C55351  -1.696   4.899  11.413  1.3026  0.9748 -0.5117
  420MOL0    Cl55352  -1.775   4.970  11.565 -0.0759 -0.2092 -0.0778
  420MOL0     C55353  -0.633   4.909  11.233  0.2544  0.1561  0.5742
  420MOL0     C55354  -0.502   4.938  11.201  0.1155  0.0963  0.3408
  420MOL0     O55355  -0.298   5.044  10.996 -0.4623 -0.1501  0.2555
  420MOL0     C55356  -0.018   5.078  10.987  0.4005  0.5455  0.5636
  420MOL0     C55357   0.120   5.112  11.015  0.6330 -0.3712 -0.3876
  420MOL0     N55358   0.896   5.259  11.229  0.2350  0.7416 -0.4370
  420MOL0     N55359   1.025   5.278  11.250 -0.3179 -0.8205 -0.2049
  420MOL0     C55360   2.097   5.054  10.727  1.0722  0.2670 -0.5884
  420MOL0     C55361   2.203   5.056  10.632  0.1251 -0.5083 -0.1077
  420MOL0     C55362   2.483   5.183  10.313 -0.6051  1.1917 -0.0725
  420MOL0     C55363   2.482   5.143  10.172 -0.3368  0.5987 -1.0458
  420MOL0     C55364   2.600   5.165  10.099  0.3728  0.0692  0.9452
  420MOL0     C55365   2.714   5.222  10.146  1.0636 -0.2945  0.1168
  420MOL0     O55366   2.813   5.239  10.054  0.1840 -0.1411 -0.4278
  420MOL0     C55367   2.897   5.353  10.066  0.4897 -0.5870 -0.8202
  420MOL0     C55368   2.823   5.473  10.004 -0.6741 -0.2102 -0.5108
  420MOL0     C55369   2.869   5.617  10.043 -0.3568 -0.2651  0.4768
  420MOL0     C55370   3.016   5.646   9.998  0.5637 -0.5721 -0.0062
  420MOL0     C55371   3.063   5.588   9.873 -0.6197  0.7027  1.2496
  420MOL0     C55372   3.084   5.552   9.758 -0.7030  0.0680 -0.2530
  420MOL0     C55373   2.726   5.246  10.284  0.0724  0.6314 -0.7782
  420MOL0     C55374   2.611   5.225  10.366  0.2396  0.5580  0.7226
  420MOL0     H55375   2.403   5.302  10.735  0.4804 -0.5897  1.5615
  420MOL0     H55376   2.221   5.309  10.921  0.7866 -1.6597  0.6393
  420MOL0     H55377   1.997   5.317  11.036  1.0222  1.3241  1.2017
  420MOL0     H55378   2.130   5.209  11.095  0.8164 -0.0902 -1.1831
  420MOL0     H55379   1.946   5.257  11.248  1.3391 -0.8868  0.5376
  420MOL0     H55380   1.963   5.084  11.225 -1.7844 -0.4984  0.1123
  420MOL0     H55381   1.770   5.087  11.049  3.3785 -0.7495 -2.0054
  420MOL0     H55382   1.760   5.262  11.088 -0.0469 -0.5269 -1.1814
  420MOL0     H55383   1.740   5.049  11.288 -1.4420  0.8100  0.5477
  420MOL0     H55384   1.691   5.226  11.317  1.4317  0.5923  0.3067
  420MOL0     H55385   1.550   5.048  11.115 -2.1615  2.0095 -2.5472
  420MOL0     H55386   1.534   5.216  11.131  0.7194  0.1943 -0.0085
  420MOL0     H55387   1.451   5.202  11.357 -0.1880 -0.3591  0.1210
  420MOL0     H55388   1.484   5.025  11.369  1.3649 -1.8194 -1.9953
  420MOL0     H55389   1.298   4.985  11.199 -1.4902 -0.9010  0.1237
  420MOL0     H55390   1.247   5.057  11.343  0.4779 -2.4280 -0.1754
  420MOL0     H55391   1.281   5.185  11.066  2.4243  1.9768  0.6332
  420MOL0     H55392   1.277   5.291  11.208 -0.1603  0.7118 -0.7852
  420MOL0     H55393   1.036   5.043  11.021 -2.3697 -0.9396 -0.3298
  420MOL0     H55394   0.792   5.012  11.020  1.8046  0.1077  2.3120
  420MOL0     H55395   0.737   5.164  10.978 -1.8384 -0.6143 -0.4509
  420MOL0     H55396   0.599   5.173  11.187  2.5904  1.7341 -1.5750
  420MOL0     H55397   0.676   5.025  11.249 -3.2842  0.4224  1.8495
  420MOL0     H55398   0.512   5.041  11.003  1.4107 -0.1252  0.4898
  420MOL0     H55399   0.572   4.892  11.080  0.6608  0.5939 -2.2151
  420MOL0     H55400   0.429   4.986  11.297 -3.7057 -0.8143  1.2714
  420MOL0     H55401   0.368   4.879  11.153 -2.5246  0.5008  1.0731
  420MOL0     H55402   0.159   4.917  11.285  1.1503  2.4812 -0.7915
  420MOL0     H55403  -0.069   4.867  11.254 -3.0374  1.5601  0.7284
  420MOL0     H55404  -0.404   4.625  11.101  1.2044 -0.8158  1.9678
  420MOL0     H55405  -0.617   4.574  11.196 -1.9234  0.8244  1.2809
  420MOL0     H55406  -0.868   4.571  11.205 -1.3936  0.1828 -0.0670
  420MOL0     H55407  -0.828   4.676  11.049  2.0041  0.7967  1.0362
  420MOL0     H55408  -1.085   4.606  11.070 -0.0748 -0.2400 -0.6363
  420MOL0     H55409  -1.024   4.759  11.022 -1.1055  1.6905  1.7413
  420MOL0     H55410  -1.053   4.860  11.229  0.8420 -1.3004  2.7866
  420MOL0     H55411  -1.074   4.710  11.313  2.7367  0.8027 -0.1007
  420MOL0     H55412  -1.279   4.879  11.151  0.6094  0.4367  0.6564
  420MOL0     H55413  -1.307   4.705  11.152 -2.7279  1.1062  0.1898
  420MOL0     H55414  -1.284   4.871  11.384 -0.7609  1.1020 -1.4396
  420MOL0     H55415  -1.316   4.689  11.386  1.6410  0.9233 -0.0908
  420MOL0     H55416  -1.536   4.729  11.273 -0.4779 -0.2894  0.5488
  420MOL0     H55417  -1.489   4.899  11.247 -1.4695 -0.5282  0.6951
  420MOL0     H55418  -1.556   4.768  11.513  1.8052 -1.3909 -2.0433
  420MOL0     H55419  -1.501   4.929  11.500  2.6295 -2.7733  1.1887
  420MOL0     H55420  -1.750   4.811  11.378 -1.0799  0.7654  3.1963
  420MOL0     H55421  -1.696   4.980  11.339  4.9656  0.9884 -0.6928
  420MOL0     H55422  -0.697   4.991  11.265 -0.3299 -0.8607  2.0967
  420MOL0     H55423  -0.475   5.040  11.224 -1.4688  0.9068 -1.2148
  420MOL0     H55424  -0.063   5.138  10.908 -0.5919 -0.3933  0.3928
  420MOL0     H55425   0.161   5.197  10.961 -2.0067  1.9129  0.9420
  420MOL0     H55426   2.024   4.974  10.723  1.1475  0.1425  0.3529
  420MOL0     H55427   2.204   4.986  10.549  1.0956  0.2707 -0.7782
  420MOL0     H55428   2.388   5.121  10.121  0.3064 -0.1806 -1.9292
  420MOL0     H55429   2.597   5.136   9.994  2.2202 -1.1451  1.1775
  420MOL0     H55430   2.987   5.334  10.007  1.4491 -2.1789  1.0176
  420MOL0     H55431   2.930   5.369  10.170  0.2425 -0.8840 -0.6928
  420MOL0     H55432   2.835   5.450   9.898  0.6570 -1.6707 -0.0911
  420MOL0     H55433   2.718   5.450  10.025 -0.0689 -2.4410  0.4290
  420MOL0     H55434   2.861   5.641  10.149  1.4665 -1.3083  0.8976
  420MOL0     H55435   2.798   5.681   9.989  2.8988  3.1001 -0.2637
  420MOL0     H55436   3.025   5.755   9.985  1.9674 -0.4993  1.2475
  420MOL0     H55437   3.086   5.617  10.077 -0.4965 -1.7387  0.5395
  420MOL0     H55438   3.082   5.516   9.657  5.1587 -4.8039  0.8335
  420MOL0     H55439   2.823   5.278  10.321  1.1911  2.6399 -4.7830
  420MOL0     H55440   2.620   5.247  10.472 -1.2371  1.8485  0.6151
  421MOL0     O55441   9.150   9.065   6.404  0.1271  0.0812 -0.3259
  421MOL0     C55442   9.204   9.131   6.486 -0.4037  0.0110 -0.4735
  421MOL0     O55443   9.142   9.214   6.583  0.5480 -0.3055  0.4869
  421MOL0     C55444   9.012   9.179   6.609 -0.5285 -0.2819  0.3807
  421MOL0     C55445   8.915   9.181   6.509 -0.9249 -0.0762 -0.0713
  421MOL0     C55446   8.788   9.161   6.550  0.2512  0.1407 -1.3839
  421MOL0     C55447   8.753   9.131   6.682  0.3949 -1.0372  0.3339
  421MOL0     O55448   8.628   9.112   6.719  0.1457  0.3050 -0.6537
  421MOL0     C55449   8.613   9.006   6.816  0.0289 -1.1193  0.8292
  421MOL0     C55450   8.467   8.948   6.810 -0.0550 -0.2273 -1.0667
  421MOL0     C55451   8.425   8.884   6.945  0.6626  0.0638  0.1508
  421MOL0     C55452   8.540   8.800   7.002 -0.2428  0.4436  0.3695
  421MOL0     C55453   8.495   8.730   7.133 -0.2914  0.0324  0.1785
  421MOL0     C55454   8.471   8.835   7.248 -0.5719  0.1870  0.2951
  421MOL0     C55455   8.441   8.761   7.382  0.1325 -0.2200  0.5180
  421MOL0     C55456   8.290   8.717   7.375  0.2701  0.3244  0.4602
  421MOL0     N55457   8.197   8.828   7.394  0.4992 -0.6991 -0.0635
  421MOL0     C55458   8.210   8.913   7.495 -0.0852  0.4247  0.5590
  421MOL0     C55459   8.110   9.007   7.462 -0.2059 -0.1245  0.4922
  421MOL0     C55460   8.084   9.132   7.544  0.0939  0.1143 -0.6404
  421MOL0     C55461   7.971   9.112   7.644 -0.2279  0.8912  0.1111
  421MOL0     C55462   7.836   9.153   7.582 -0.0368  0.5863 -0.0110
  421MOL0     C55463   7.755   9.029   7.570  0.0965  0.1500 -0.1724
  421MOL0     O55464   7.716   8.975   7.699 -0.3575  0.2138  0.3346
  421MOL0     C55465   7.617   9.032   7.774  0.7969 -0.2618 -0.1506
  421MOL0     C55466   7.549   9.149   7.747  0.0563 -0.5308  0.8137
  421MOL0     C55467   7.450   9.199   7.828  0.4934  0.3471 -0.0932
  421MOL0     C55468   7.411   9.130   7.945 -0.0080  0.4508 -0.2011
  421MOL0     C55469   7.288   9.171   8.029 -0.8377  0.2158  1.0284
  421MOL0     O55470   7.223   9.280   7.985 -0.8614 -0.2561 -0.0271
  421MOL0     C55471   7.101   9.320   8.034  0.0186 -0.1124 -0.3245
  421MOL0     C55472   7.010   9.240   8.108 -0.2103  0.3344 -0.5246
  421MOL0     C55473   6.877   9.270   8.123 -0.4224  0.1905  0.2620
  421MOL0     C55474   6.826   9.385   8.060 -0.6560  0.3107  0.2589
  421MOL0     O55475   6.700   9.430   8.061  0.4001  0.3315  0.4601
  421MOL0     C55476   6.600   9.334   8.103 -0.4269  0.6433 -0.2369
  421MOL0     C55477   6.473   9.424   8.114 -0.2174  0.0647  0.7104
  421MOL0     C55478   6.339   9.360   8.152  0.6307 -0.7768 -0.4272
  421MOL0     C55479   6.232   9.466   8.121 -0.1689  1.1183 -0.7243
  421MOL0     C55480   6.084   9.430   8.152  0.2714  1.3265  1.0586
  421MOL0     C55481   5.975   9.537   8.135  0.1155 -0.3065  0.1335
  421MOL0     C55482   5.832   9.474   8.148  0.6864 -0.3305 -1.1000
  421MOL0     C55483   5.721   9.573   8.126 -1.0168 -0.4125  0.0419
  421MOL0    Cl55484   5.684   9.694   8.248 -0.5324  0.3645 -0.2904
  421MOL0     C55485   6.914   9.461   7.987 -0.9798 -0.0977  0.5992
  421MOL0     C55486   7.051   9.428   7.962  0.0420  0.3247  0.3018
  421MOL0     O55487   7.251   9.090   8.121  0.7400  0.8656  0.4176
  421MOL0     C55488   7.481   9.018   7.982  0.7349  0.7297 -0.4497
  421MOL0     C55489   7.581   8.964   7.891  0.9466 -0.2009 -1.5800
  421MOL0     N55490   8.029   8.961   7.360 -0.1712  0.3924  0.3620
  421MOL0     N55491   8.088   8.849   7.316  0.4296  0.0868  0.5450
  421MOL0     C55492   8.855   9.135   6.781  1.0235 -0.4049 -0.1139
  421MOL0     C55493   8.982   9.167   6.739 -0.1946 -0.7527 -0.5882
  421MOL0     C55494   9.351   9.128   6.502  0.4765  0.3859 -0.5800
  421MOL0     C55495   9.408   9.178   6.618  0.7178  0.0996 -0.9121
  421MOL0     C55496   9.547   9.179   6.633  0.7016  0.3508 -0.4384
  421MOL0     C55497   9.631   9.106   6.551 -0.2100  0.2731  0.0215
  421MOL0     O55498   9.770   9.110   6.583  0.0426  0.1466  0.4633
  421MOL0     C55499   9.850   9.038   6.486 -1.4278  0.5033  0.4003
  421MOL0     C55500  10.002   9.071   6.509 -0.1657  0.4843 -0.1360
  421MOL0     C55501  10.031   9.166   6.628 -0.4084  0.3422 -0.3863
  421MOL0     C55502  10.181   9.204   6.655 -0.0485  0.3385 -0.5915
  421MOL0     C55503  10.230   9.277   6.534 -0.1405 -0.0997 -0.0497
  421MOL0     C55504  10.273   9.336   6.438  0.1421  0.5932  0.6024
  421MOL0     C55505   9.565   9.047   6.439 -0.7557  0.2372 -0.0066
  421MOL0     C55506   9.426   9.058   6.419 -0.7751 -0.5906  0.0143
  421MOL0     H55507   8.937   9.214   6.408  2.6150  2.0289  1.2029
  421MOL0     H55508   8.709   9.168   6.475  1.1406 -2.1381 -2.6175
  421MOL0     H55509   8.635   9.048   6.914  1.3546  2.5149 -0.8288
  421MOL0     H55510   8.681   8.922   6.799  1.9277  0.5100 -0.0131
  421MOL0     H55511   8.463   8.871   6.732 -2.3126  0.8576 -2.1165
  421MOL0     H55512   8.401   9.032   6.785  0.3889  0.0454 -1.3459
  421MOL0     H55513   8.333   8.829   6.920  1.2759 -1.4667  1.0783
  421MOL0     H55514   8.394   8.963   7.013 -2.3927 -0.9834  0.1387
  421MOL0     H55515   8.568   8.729   6.923  1.5008  1.7454 -0.2356
  421MOL0     H55516   8.638   8.846   7.017  0.5183 -1.4148  1.3839
  421MOL0     H55517   8.577   8.659   7.149 -1.1444 -1.2621 -0.9213
  421MOL0     H55518   8.409   8.664   7.115 -0.1597 -0.0380 -0.2159
  421MOL0     H55519   8.398   8.908   7.211  1.6266  1.3783 -1.9484
  421MOL0     H55520   8.560   8.897   7.255  0.2290 -1.0034  1.2133
  421MOL0     H55521   8.511   8.682   7.410  1.6698  1.3413  1.3024
  421MOL0     H55522   8.447   8.831   7.466 -2.6396  1.6579 -0.6937
  421MOL0     H55523   8.276   8.640   7.451  1.7905 -2.7227 -2.1153
  421MOL0     H55524   8.269   8.666   7.280  1.8726 -0.5301  0.5345
  421MOL0     H55525   8.288   8.927   7.569 -1.6121  0.8821  2.1410
  421MOL0     H55526   8.067   9.211   7.471 -0.2126 -0.4637 -1.2086
  421MOL0     H55527   8.179   9.160   7.589  1.2057  3.4921 -4.4990
  421MOL0     H55528   7.992   9.171   7.734  1.3241 -0.6586  0.8097
  421MOL0     H55529   7.976   9.006   7.668  2.0589  0.6924 -1.0315
  421MOL0     H55530   7.787   9.233   7.638 -1.5088 -0.9328  0.9476
  421MOL0     H55531   7.857   9.192   7.482  0.1948 -1.5117 -0.8391
  421MOL0     H55532   7.822   8.962   7.515  0.2287 -1.1614  1.4868
  421MOL0     H55533   7.670   9.032   7.500 -0.6718  1.4300  0.7711
  421MOL0     H55534   7.576   9.196   7.654 -1.1022  4.4167  2.6602
  421MOL0     H55535   7.410   9.298   7.809  0.8293  0.3476 -0.8279
  421MOL0     H55536   7.032   9.137   8.134 -0.2293  0.5375  0.3315
  421MOL0     H55537   6.807   9.199   8.164 -0.5045  0.3896  0.4673
  421MOL0     H55538   6.617   9.278   8.196 -1.3266  0.5545 -0.1125
  421MOL0     H55539   6.591   9.262   8.021 -1.5843  0.8104 -0.2674
  421MOL0     H55540   6.467   9.479   8.020  0.7091  0.9903  1.1703
  421MOL0     H55541   6.492   9.502   8.188  0.7689 -0.2147  0.7700
  421MOL0     H55542   6.346   9.332   8.257 -0.5682  1.5318  0.3336
  421MOL0     H55543   6.324   9.265   8.100  1.1075 -0.7212 -0.6776
  421MOL0     H55544   6.257   9.553   8.183  2.3016  2.5802 -3.5444
  421MOL0     H55545   6.231   9.480   8.013 -0.3771 -3.8609 -1.6159
  421MOL0     H55546   6.081   9.401   8.258 -0.7259 -1.4235  0.3671
  421MOL0     H55547   6.062   9.337   8.099  2.7089  1.1983  0.1251
  421MOL0     H55548   5.978   9.582   8.036  2.0984 -2.1422 -0.7139
  421MOL0     H55549   5.991   9.609   8.216  1.0798  2.5787 -2.4327
  421MOL0     H55550   5.822   9.388   8.082 -2.4409 -2.2672  1.5864
  421MOL0     H55551   5.819   9.433   8.248  0.6085  0.7527 -0.6565
  421MOL0     H55552   5.629   9.516   8.112 -0.8493 -0.9772  1.1777
  421MOL0     H55553   5.742   9.637   8.040 -3.6460 -0.0761 -0.4163
  421MOL0     H55554   6.870   9.537   7.923 -2.5499 -2.0052 -0.7237
  421MOL0     H55555   7.102   9.462   7.873 -0.6392 -0.4147 -0.3840
  421MOL0     H55556   7.462   8.965   8.075  0.6444  0.1850 -0.7744
  421MOL0     H55557   7.629   8.868   7.904 -0.1133 -0.8996 -2.6180
  421MOL0     H55558   8.831   9.116   6.885 -2.1880  2.6184 -0.0976
  421MOL0     H55559   9.065   9.180   6.808 -0.9165  0.2924  0.1248
  421MOL0     H55560   9.347   9.222   6.697  2.0543 -0.2297  0.3477
  421MOL0     H55561   9.589   9.234   6.717  0.6195 -0.0568 -0.1287
  421MOL0     H55562   9.819   9.060   6.384 -1.3285  0.7165  0.4146
  421MOL0     H55563   9.828   8.932   6.501  0.9954 -0.3115 -1.1068
  421MOL0     H55564  10.061   8.980   6.521  0.5924  0.9473 -0.2790
  421MOL0     H55565  10.043   9.126   6.424 -0.4589 -0.3574 -0.8330
  421MOL0     H55566   9.993   9.111   6.714 -1.6139  0.8622 -0.5675
  421MOL0     H55567   9.965   9.253   6.622 -4.6927 -2.6439 -0.8487
  421MOL0     H55568  10.186   9.272   6.741 -0.5859  0.4671 -0.6570
  421MOL0     H55569  10.232   9.109   6.674  0.9197  0.7652 -1.0146
  421MOL0     H55570  10.329   9.388   6.364 -1.8836  1.4100 -0.4453
  421MOL0     H55571   9.614   8.992   6.360 -0.9209  1.4438 -0.9690
  421MOL0     H55572   9.378   9.010   6.334 -1.0641 -2.5028  1.1814
  422MOL0     O55573   8.907  10.643   8.392  0.3389  0.0550  0.5023
  422MOL0     C55574   8.909  10.547   8.320  0.7949  0.7203  0.2427
  422MOL0     O55575   8.805  10.480   8.261 -0.0728 -0.7300  0.3320
  422MOL0     C55576   8.684  10.544   8.249 -0.1137  0.0036 -0.4717
  422MOL0     C55577   8.628  10.609   8.352 -1.2626 -0.0704  0.8013
  422MOL0     C55578   8.515  10.689   8.336 -0.4828 -0.1499  0.0306
  422MOL0     C55579   8.463  10.697   8.206 -0.8198  0.2752  0.2235
  422MOL0     O55580   8.352  10.763   8.171 -0.1672  0.6959  0.1193
  422MOL0     C55581   8.353  10.908   8.170 -0.4636 -0.9390  0.4434
  422MOL0     C55582   8.207  10.959   8.185  0.2921 -0.4488  0.6117
  422MOL0     C55583   8.189  11.111   8.153  1.2615 -0.2020  0.4294
  422MOL0     C55584   8.278  11.199   8.236  0.2696  0.3213  0.0525
  422MOL0     C55585   8.252  11.344   8.215 -0.6594  0.1181 -0.0123
  422MOL0     C55586   8.319  11.435   8.321  0.0704 -0.1542  0.0668
  422MOL0     C55587   8.328  11.577   8.266 -0.2837 -1.1603 -0.5561
  422MOL0     C55588   8.198  11.653   8.266 -0.2657 -0.7960 -1.3675
  422MOL0     N55589   8.226  11.796   8.258  0.1336 -0.0048 -0.3380
  422MOL0     C55590   8.347  11.865   8.279  0.4499 -0.4733  0.6432
  422MOL0     C55591   8.314  11.997   8.275  0.1462  0.1941  0.1719
  422MOL0     C55592   8.408  12.114   8.306 -0.6030  0.7041  0.3209
  422MOL0     C55593   8.453  12.178   8.175 -0.0205  0.1191 -1.0986
  422MOL0     C55594   8.338  12.269   8.123  0.0259 -0.7184 -0.0040
  422MOL0     C55595   8.400  12.357   8.004 -0.7191 -0.2268  0.4568
  422MOL0     O55596   8.291  12.443   7.963  0.2220 -0.2443  0.2138
  422MOL0     C55597   8.194  12.409   7.878  1.3501  0.3907 -1.2840
  422MOL0     C55598   8.172  12.288   7.817  0.0691 -0.2562  0.2952
  422MOL0     C55599   8.072  12.261   7.719  0.6493 -0.0924 -0.2233
  422MOL0     C55600   7.978  12.365   7.692  0.3894 -0.2561 -0.3057
  422MOL0     C55601   7.867  12.351   7.589  0.0330  0.0282  0.1735
  422MOL0     O55602   7.830  12.228   7.561 -0.5499  0.1062  0.5644
  422MOL0     C55603   7.717  12.220   7.482 -0.6483  0.4139  0.3178
  422MOL0     C55604   7.595  12.185   7.541  0.0499  0.6899 -0.2261
  422MOL0     C55605   7.471  12.192   7.472 -0.0950  0.7963 -0.4825
  422MOL0     C55606   7.468  12.213   7.335  0.1118  0.7357 -0.6674
  422MOL0     O55607   7.358  12.226   7.255 -0.2284  0.4171 -0.1359
  422MOL0     C55608   7.232  12.232   7.317 -0.1276  0.4505 -0.3862
  422MOL0     C55609   7.166  12.100   7.342  0.0475  0.0487 -0.0892
  422MOL0     C55610   7.165  12.012   7.219  0.3673  0.8459 -0.1338
  422MOL0     C55611   7.054  12.067   7.129  0.1768 -0.8558  0.3875
  422MOL0     C55612   7.048  11.990   6.999  0.0668  0.0577  0.4284
  422MOL0     C55613   6.907  12.016   6.940 -0.3111  0.3575  0.4386
  422MOL0     C55614   6.916  11.952   6.794 -0.1753  0.5129  0.5231
  422MOL0     C55615   6.791  11.966   6.715 -0.5872 -0.3944 -0.1548
  422MOL0    Cl55616   6.667  11.873   6.796 -0.3020  0.4160 -0.2119
  422MOL0     C55617   7.590  12.233   7.269  0.4982 -0.1212  0.3728
  422MOL0     C55618   7.714  12.243   7.343 -0.2241 -0.2068  0.0196
  422MOL0     O55619   7.804  12.455   7.553 -0.7695  0.1565 -0.1817
  422MOL0     C55620   7.990  12.491   7.758 -0.2221 -0.2786  0.0245
  422MOL0     C55621   8.101  12.508   7.843 -0.2125  0.5838  0.0876
  422MOL0     N55622   8.180  12.006   8.244 -0.4380  0.5958 -0.0090
  422MOL0     N55623   8.131  11.886   8.239 -0.0608 -0.1882 -0.3201
  422MOL0     C55624   8.519  10.627   8.105  0.5072 -0.3615  0.2528
  422MOL0     C55625   8.625  10.544   8.123 -1.0963 -0.2167  0.0149
  422MOL0     C55626   9.041  10.515   8.267  0.4252  0.3543 -0.1486
  422MOL0     C55627   9.147  10.606   8.273 -0.3565  0.1442  0.0016
  422MOL0     C55628   9.271  10.578   8.208  0.8039  0.1550 -1.9084
  422MOL0     C55629   9.283  10.457   8.136  0.7833 -0.3503 -0.9153
  422MOL0     O55630   9.404  10.431   8.088 -0.4730  0.0880  0.3898
  422MOL0     C55631   9.433  10.330   7.994  0.0787 -0.5662 -0.3338
  422MOL0     C55632   9.365  10.366   7.858  1.1561 -0.3050 -0.5743
  422MOL0     C55633   9.424  10.494   7.804 -0.9971 -0.1522 -0.5633
  422MOL0     C55634   9.393  10.524   7.658  0.1539  0.4389  0.2280
  422MOL0     C55635   9.250  10.559   7.657 -0.4957  0.1706 -0.0574
  422MOL0     C55636   9.130  10.595   7.665 -0.3337  0.6766  0.5124
  422MOL0     C55637   9.178  10.362   8.136 -0.0097 -0.3543 -0.1212
  422MOL0     C55638   9.058  10.393   8.200 -0.0935 -0.2386 -0.6998
  422MOL0     H55639   8.678  10.610   8.449  1.7879 -3.4129 -0.4872
  422MOL0     H55640   8.487  10.762   8.411  2.6828 -0.1664  1.3320
  422MOL0     H55641   8.406  10.953   8.085 -0.8649 -0.2573  0.5431
  422MOL0     H55642   8.397  10.958   8.256 -0.4423  4.0517 -2.0988
  422MOL0     H55643   8.176  10.939   8.288  2.1226  0.7267  1.4253
  422MOL0     H55644   8.149  10.896   8.116  1.1775  0.8320 -1.3875
  422MOL0     H55645   8.085  11.141   8.166  1.0369  1.2975 -3.4201
  422MOL0     H55646   8.211  11.122   8.046  0.8992  2.4313  0.5713
  422MOL0     H55647   8.266  11.171   8.341  0.6811  1.7103  0.4886
  422MOL0     H55648   8.384  11.178   8.216  0.5200  1.6006 -0.0185
  422MOL0     H55649   8.143  11.358   8.210 -0.9599 -1.1652  1.8533
  422MOL0     H55650   8.288  11.365   8.114 -3.2502 -1.3961 -1.3650
  422MOL0     H55651   8.422  11.403   8.331  0.6059  1.6863  0.8370
  422MOL0     H55652   8.268  11.427   8.417 -1.1070 -1.6494 -0.6398
  422MOL0     H55653   8.396  11.621   8.340 -2.5863  0.0352  0.9581
  422MOL0     H55654   8.378  11.577   8.169  0.9225  1.2114 -0.0401
  422MOL0     H55655   8.145  11.639   8.361 -1.2135  2.6418 -1.2316
  422MOL0     H55656   8.132  11.623   8.185  0.3868  3.1590 -3.6191
  422MOL0     H55657   8.448  11.829   8.296  0.0199 -1.5785  0.9998
  422MOL0     H55658   8.504  12.070   8.337  1.0483  2.6932 -1.6605
  422MOL0     H55659   8.360  12.179   8.379  2.1497  2.4256  0.7417
  422MOL0     H55660   8.479  12.101   8.102 -0.7104 -1.9611  0.7726
  422MOL0     H55661   8.546  12.232   8.196  1.1503 -2.2505  0.1833
  422MOL0     H55662   8.262  12.194   8.100 -1.3443 -0.2454  2.5955
  422MOL0     H55663   8.302  12.338   8.200  2.0648  0.6233 -0.1623
  422MOL0     H55664   8.431  12.300   7.917 -0.6775 -0.9783  0.9531
  422MOL0     H55665   8.486  12.415   8.039 -2.5802  2.9468  0.1818
  422MOL0     H55666   8.242  12.209   7.844  0.5683  0.5926  1.5556
  422MOL0     H55667   8.068  12.172   7.656 -0.3195  0.0934 -0.4329
  422MOL0     H55668   7.588  12.156   7.645 -0.5657 -0.3161 -0.5308
  422MOL0     H55669   7.379  12.184   7.530  0.1302 -1.7526 -0.3646
  422MOL0     H55670   7.166  12.295   7.257  0.1755  0.4749 -0.6921
  422MOL0     H55671   7.240  12.292   7.409 -0.9168 -1.6621  1.1447
  422MOL0     H55672   7.063  12.110   7.376 -0.9524 -1.3258 -2.4632
  422MOL0     H55673   7.229  12.050   7.416 -0.7187 -0.5114  0.1904
  422MOL0     H55674   7.138  11.914   7.259  0.9658  0.9453  0.5281
  422MOL0     H55675   7.264  12.005   7.173  1.2564  2.3230  1.4794
  422MOL0     H55676   6.959  12.066   7.184  0.7728  0.2231  1.4792
  422MOL0     H55677   7.085  12.167   7.099 -0.8713 -0.5730  0.2284
  422MOL0     H55678   7.063  11.883   7.017  0.6533  0.1780  0.7007
  422MOL0     H55679   7.131  12.025   6.937  0.9399 -3.2361 -0.4393
  422MOL0     H55680   6.889  12.122   6.920  0.4940  0.2177 -1.2351
  422MOL0     H55681   6.826  11.969   6.997  0.1621  0.6046  1.3426
  422MOL0     H55682   6.994  12.005   6.738  0.2233 -1.9063 -1.3632
  422MOL0     H55683   6.936  11.846   6.812  0.7704  0.9691  2.4667
  422MOL0     H55684   6.804  11.936   6.611 -0.5756 -0.3561 -0.1641
  422MOL0     H55685   6.771  12.073   6.715 -0.7365 -0.3499 -2.8264
  422MOL0     H55686   7.586  12.241   7.161 -3.1371  0.1491  0.3812
  422MOL0     H55687   7.802  12.275   7.288 -1.8786  3.3805 -0.8336
  422MOL0     H55688   7.922  12.575   7.752 -1.8236 -1.6144 -2.9140
  422MOL0     H55689   8.140  12.602   7.879  2.2086  0.1388 -1.1475
  422MOL0     H55690   8.478  10.649   8.007 -0.2583  0.8333  0.8112
  422MOL0     H55691   8.667  10.493   8.037 -4.3164 -1.7899 -0.8052
  422MOL0     H55692   9.128  10.695   8.333  1.4636  0.5362  0.0541
  422MOL0     H55693   9.364  10.629   8.229  1.5327 -2.3864  2.1368
  422MOL0     H55694   9.407  10.232   8.035  3.2528 -1.6872 -0.6658
  422MOL0     H55695   9.542  10.320   7.986  0.2613 -0.0566  1.1644
  422MOL0     H55696   9.371  10.285   7.785 -4.1073  1.3582 -3.3732
  422MOL0     H55697   9.259  10.392   7.868  1.1404  1.0088 -3.2701
  422MOL0     H55698   9.533  10.499   7.812 -0.4792  2.0162 -5.3094
  422MOL0     H55699   9.385  10.576   7.864 -0.3215 -0.2444  0.0126
  422MOL0     H55700   9.445  10.610   7.614 -0.1943  0.9746  0.8523
  422MOL0     H55701   9.416  10.427   7.612  0.6267  0.6243  0.0727
  422MOL0     H55702   9.023  10.606   7.662 -0.3868  0.3209 -3.0120
  422MOL0     H55703   9.168  10.271   8.078 -0.1523 -0.3726 -0.0672
  422MOL0     H55704   8.984  10.315   8.192  1.1945 -2.3177  4.0103
  423MOL0     O55705   5.153   2.113   8.669  0.2371 -0.2064 -0.7202
  423MOL0     C55706   5.224   2.207   8.686  0.8643  0.0816  0.2462
  423MOL0     O55707   5.184   2.343   8.665 -0.7940  0.5086  0.0701
  423MOL0     C55708   5.058   2.376   8.612 -0.2056 -0.0654  0.5089
  423MOL0     C55709   4.942   2.294   8.618  0.5782  0.9321 -0.5595
  423MOL0     C55710   4.819   2.338   8.564  0.4597  0.0453  0.5925
  423MOL0     C55711   4.805   2.465   8.504 -0.0190  0.4329 -0.0251
  423MOL0     O55712   4.682   2.491   8.464  0.4075  0.0690 -0.0079
  423MOL0     C55713   4.660   2.589   8.357  0.1017 -0.8152 -0.1125
  423MOL0     C55714   4.505   2.614   8.339 -0.0712  0.7441  0.4135
  423MOL0     C55715   4.456   2.497   8.251  0.4683  0.7838 -0.2000
  423MOL0     C55716   4.294   2.482   8.272 -0.4090  0.0524 -0.2596
  423MOL0     C55717   4.251   2.346   8.213  0.4569 -1.5872 -0.0849
  423MOL0     C55718   4.104   2.333   8.211  0.3941 -0.3018 -0.3243
  423MOL0     C55719   4.074   2.185   8.159  0.5044 -0.5565 -0.4647
  423MOL0     C55720   4.112   2.065   8.252  1.1515 -0.6356 -0.0380
  423MOL0     N55721   4.042   2.077   8.378  0.6698 -0.7276 -0.2150
  423MOL0     C55722   3.904   2.073   8.398  0.0929  0.2540  0.6071
  423MOL0     C55723   3.879   2.054   8.521 -0.1300 -0.6234 -0.0913
  423MOL0     C55724   3.741   2.027   8.579  0.5956 -0.0357 -0.6892
  423MOL0     C55725   3.646   2.138   8.538  1.1290 -0.0782  0.1417
  423MOL0     C55726   3.528   2.147   8.620 -0.4719  0.7340  0.1733
  423MOL0     C55727   3.432   2.254   8.577 -0.4228  0.4931  0.4684
  423MOL0     O55728   3.342   2.274   8.687  0.1447 -0.0152 -0.2221
  423MOL0     C55729   3.224   2.345   8.669  0.6443  1.1755 -0.0660
  423MOL0     C55730   3.117   2.327   8.755  0.3260  0.0382 -0.1338
  423MOL0     C55731   2.991   2.388   8.732  0.3226 -0.3519 -0.5297
  423MOL0     C55732   2.966   2.465   8.617  0.0895  0.4422 -0.2672
  423MOL0     C55733   2.839   2.530   8.596 -0.0122  0.2606 -0.5623
  423MOL0     O55734   2.737   2.514   8.688 -1.1576  0.0601  0.1051
  423MOL0     C55735   2.601   2.557   8.664 -0.8850  0.5776  0.2677
  423MOL0     C55736   2.527   2.528   8.544  0.5218 -0.4802  0.5725
  423MOL0     C55737   2.387   2.549   8.538  0.1157  0.0402 -0.0017
  423MOL0     C55738   2.322   2.594   8.657 -0.6613  0.0849 -0.3225
  423MOL0     O55739   2.180   2.594   8.674  0.2553  0.9195 -0.0683
  423MOL0     C55740   2.096   2.517   8.589  1.2185 -0.0245  0.6936
  423MOL0     C55741   1.962   2.589   8.612  0.3641  0.3015 -0.0506
  423MOL0     C55742   1.842   2.503   8.565  0.7800  0.0723 -0.7302
  423MOL0     C55743   1.722   2.584   8.594 -0.2822  0.4541  0.2719
  423MOL0     C55744   1.601   2.505   8.555  0.1766  0.1545  0.5023
  423MOL0     C55745   1.469   2.585   8.577  0.9167  1.5509  0.2825
  423MOL0     C55746   1.347   2.486   8.552  0.5132 -0.2158 -0.0396
  423MOL0     C55747   1.214   2.536   8.603 -0.2892 -0.1305 -0.5212
  423MOL0    Cl55748   1.144   2.648   8.478 -0.2783  0.1164 -0.0260
  423MOL0     C55749   2.394   2.626   8.775  0.0177 -0.2766  0.9553
  423MOL0     C55750   2.530   2.606   8.777  0.2734  0.7868 -0.3506
  423MOL0     O55751   2.821   2.568   8.480 -0.1221  0.4639 -0.0112
  423MOL0     C55752   3.069   2.487   8.524 -0.2740  0.5404 -0.3129
  423MOL0     C55753   3.194   2.420   8.547 -0.0224  0.7904 -0.5557
  423MOL0     N55754   3.997   2.063   8.589 -0.6959 -0.1808  0.4202
  423MOL0     N55755   4.090   2.078   8.506  0.4174  0.1589  0.8952
  423MOL0     C55756   4.920   2.549   8.503  0.2588  0.4506  0.4026
  423MOL0     C55757   5.040   2.505   8.561 -0.7719 -0.4421 -0.0522
  423MOL0     C55758   5.367   2.178   8.706 -0.1568 -0.1733  0.0728
  423MOL0     C55759   5.449   2.287   8.726  0.7481  0.1097  0.0466
  423MOL0     C55760   5.580   2.272   8.771  0.5497  0.3439  0.1500
  423MOL0     C55761   5.633   2.136   8.788 -0.1115  0.4524  0.8397
  423MOL0     O55762   5.759   2.106   8.813 -0.6208  0.1896 -0.3384
  423MOL0     C55763   5.847   2.207   8.865  0.5705  0.6455  0.1763
  423MOL0     C55764   5.981   2.127   8.904  1.0570  0.2295 -0.1825
  423MOL0     C55765   6.052   2.064   8.787  1.0611 -0.7423  0.4236
  423MOL0     C55766   6.201   2.016   8.805  0.6028  0.1068  1.0357
  423MOL0     C55767   6.282   2.133   8.842 -0.8021 -0.3211 -0.3024
  423MOL0     C55768   6.353   2.229   8.873  0.6920 -0.3166 -0.0942
  423MOL0     C55769   5.545   2.031   8.768  1.4847 -0.0097  0.9070
  423MOL0     C55770   5.416   2.053   8.722  1.1380  0.1876 -0.0334
  423MOL0     H55771   4.942   2.198   8.668  0.2879  0.9961 -0.4331
  423MOL0     H55772   4.732   2.279   8.590  0.4263  0.0089  0.3996
  423MOL0     H55773   4.705   2.560   8.262 -0.5344 -2.1323 -0.0357
  423MOL0     H55774   4.706   2.685   8.383  1.0672 -1.7044  1.6684
  423MOL0     H55775   4.480   2.704   8.282  0.4260 -0.5719 -2.0185
  423MOL0     H55776   4.454   2.608   8.435  1.3508 -1.7765  1.1043
  423MOL0     H55777   4.503   2.401   8.273  0.0105  0.3407 -1.0909
  423MOL0     H55778   4.470   2.527   8.147  1.0026  3.3602  0.5567
  423MOL0     H55779   4.270   2.491   8.378  1.2954  1.9059  0.0424
  423MOL0     H55780   4.249   2.566   8.219  0.4368 -0.1712 -1.3759
  423MOL0     H55781   4.307   2.267   8.264  0.6532 -2.9536 -2.3253
  423MOL0     H55782   4.285   2.347   8.109 -0.6308 -0.4410 -0.4495
  423MOL0     H55783   4.063   2.398   8.133 -0.3711 -1.1667 -0.6687
  423MOL0     H55784   4.051   2.351   8.305 -1.3104 -2.5361 -0.7718
  423MOL0     H55785   3.967   2.171   8.141  0.3772  1.0302 -1.0444
  423MOL0     H55786   4.120   2.169   8.061 -1.6877  3.5153 -2.4013
  423MOL0     H55787   4.218   2.066   8.279  1.1704  1.6151 -0.0792
  423MOL0     H55788   4.092   1.974   8.194  2.0996 -1.7165  1.2468
  423MOL0     H55789   3.830   2.071   8.318 -2.3525 -0.4179  2.7523
  423MOL0     H55790   3.754   2.035   8.688  0.8100  0.1736 -0.7293
  423MOL0     H55791   3.695   1.929   8.562  0.0867 -0.0082  0.4148
  423MOL0     H55792   3.614   2.123   8.434 -1.7903 -1.9434  1.1678
  423MOL0     H55793   3.696   2.235   8.545  2.0889 -0.5315 -0.2762
  423MOL0     H55794   3.474   2.054   8.635 -2.2044  1.3785 -1.5569
  423MOL0     H55795   3.561   2.168   8.722 -2.0648 -3.1587  1.6885
  423MOL0     H55796   3.378   2.218   8.489  0.7328 -0.3535  0.0765
  423MOL0     H55797   3.486   2.347   8.556 -0.6736  1.0988  2.3479
  423MOL0     H55798   3.125   2.257   8.838  0.2993 -0.6333 -0.6811
  423MOL0     H55799   2.906   2.366   8.796 -0.8988  1.5335 -1.3990
  423MOL0     H55800   2.589   2.495   8.462  2.5273  4.2851 -0.1493
  423MOL0     H55801   2.328   2.517   8.453 -0.4662 -0.2336  0.4949
  423MOL0     H55802   2.083   2.410   8.610 -0.6320 -0.1090 -0.6145
  423MOL0     H55803   2.135   2.533   8.488  2.2804  1.7743  1.3464
  423MOL0     H55804   1.969   2.684   8.557 -0.2651  1.7638  2.2509
  423MOL0     H55805   1.944   2.610   8.718  1.5064 -2.5649  0.7904
  423MOL0     H55806   1.840   2.407   8.617 -0.1909  0.7617  0.5533
  423MOL0     H55807   1.860   2.476   8.460  0.8017 -0.2734 -0.6379
  423MOL0     H55808   1.708   2.606   8.700 -0.5228 -0.9610  0.5477
  423MOL0     H55809   1.735   2.677   8.537  0.6686  0.0567 -0.1862
  423MOL0     H55810   1.594   2.412   8.612 -1.5085  0.6794  1.2277
  423MOL0     H55811   1.599   2.467   8.453 -4.2275  1.9786 -0.3404
  423MOL0     H55812   1.475   2.667   8.505  1.0128 -0.2640 -1.9120
  423MOL0     H55813   1.465   2.633   8.675  0.9503 -0.1049  1.1294
  423MOL0     H55814   1.330   2.460   8.447 -0.8837 -1.1230  0.3755
  423MOL0     H55815   1.379   2.388   8.589 -0.8192 -1.8733 -2.8861
  423MOL0     H55816   1.232   2.593   8.694  1.3219  2.1316 -2.1255
  423MOL0     H55817   1.148   2.451   8.623  2.4632 -2.4927 -0.7834
  423MOL0     H55818   2.336   2.637   8.865 -1.1140  2.5108  0.0085
  423MOL0     H55819   2.587   2.600   8.868  2.0527 -0.9918 -1.4931
  423MOL0     H55820   3.052   2.553   8.440 -1.5439  0.3631 -0.2085
  423MOL0     H55821   3.276   2.434   8.478  0.6780  2.7832  0.6129
  423MOL0     H55822   4.918   2.649   8.461  1.6345  0.5115  0.4173
  423MOL0     H55823   5.129   2.563   8.539 -0.7763 -0.4998 -0.2236
  423MOL0     H55824   5.401   2.383   8.709 -1.7461 -1.0921 -0.1600
  423MOL0     H55825   5.637   2.364   8.785  0.0113  0.4712  1.7536
  423MOL0     H55826   5.801   2.255   8.953  1.1821  0.9217  0.3483
  423MOL0     H55827   5.862   2.291   8.797  0.5258  2.2846  2.1000
  423MOL0     H55828   6.050   2.196   8.954  2.5962 -0.0317 -1.8207
  423MOL0     H55829   5.953   2.043   8.967 -1.1074  0.9818 -0.0753
  423MOL0     H55830   6.060   2.139   8.708 -3.1374  2.0021  2.2835
  423MOL0     H55831   5.995   1.980   8.745  1.8056  0.1717 -2.7265
  423MOL0     H55832   6.208   1.943   8.886  2.7107 -2.1207 -0.9743
  423MOL0     H55833   6.244   1.959   8.722  0.2893 -0.5632  1.3267
  423MOL0     H55834   6.425   2.298   8.913  0.0314  1.4742 -1.8516
  423MOL0     H55835   5.594   1.934   8.772  1.6449 -0.0023 -0.4216
  423MOL0     H55836   5.354   1.972   8.684  0.2590  0.9448 -0.2464
  424MOL0     O55837  10.067   5.982   8.621 -0.4542  0.2295  0.3036
  424MOL0     C55838  10.095   6.010   8.502 -0.3173  0.3552 -0.2779
  424MOL0     O55839  10.005   6.030   8.405  0.3165 -1.1861 -0.6861
  424MOL0     C55840   9.869   6.019   8.430 -0.1074  0.0292 -0.2971
  424MOL0     C55841   9.792   6.118   8.373 -0.6707 -0.2022 -0.5241
  424MOL0     C55842   9.653   6.113   8.397  0.0779 -0.6171 -0.0401
  424MOL0     C55843   9.592   6.017   8.476  0.0876  0.1373  0.4377
  424MOL0     O55844   9.454   6.032   8.487 -0.1772 -0.2625  0.2712
  424MOL0     C55845   9.394   5.938   8.586  1.2172  0.1871  0.7890
  424MOL0     C55846   9.234   5.954   8.586 -0.5581  0.9092  0.1988
  424MOL0     C55847   9.194   6.092   8.619 -0.2091 -0.4730 -0.0458
  424MOL0     C55848   9.201   6.118   8.771 -0.3571 -0.8974  0.1979
  424MOL0     C55849   9.074   6.200   8.819  1.1212  0.5298 -0.0433
  424MOL0     C55850   8.942   6.117   8.832 -0.1516 -0.0443 -0.0680
  424MOL0     C55851   8.810   6.200   8.844 -0.7054  0.5668 -1.1119
  424MOL0     C55852   8.805   6.269   8.976 -0.2962  0.2719  0.0291
  424MOL0     N55853   8.670   6.314   9.012  0.3793 -0.3194 -0.1549
  424MOL0     C55854   8.600   6.264   9.123  0.8708  0.3857 -0.3877
  424MOL0     C55855   8.478   6.321   9.116  0.1933  0.6275  0.7738
  424MOL0     C55856   8.377   6.286   9.217 -0.0750 -0.5186 -0.4305
  424MOL0     C55857   8.238   6.241   9.169 -0.4372 -0.0453 -1.2293
  424MOL0     C55858   8.159   6.364   9.118  0.6236  0.8628  0.5163
  424MOL0     C55859   8.025   6.322   9.057 -0.8514  0.0429  0.3955
  424MOL0     O55860   7.956   6.448   9.079 -0.0805  0.1883  0.5087
  424MOL0     C55861   7.828   6.454   9.039  0.1122  0.6445 -0.7178
  424MOL0     C55862   7.756   6.354   8.989 -0.3462 -0.8855  1.0312
  424MOL0     C55863   7.622   6.379   8.943 -0.1754 -0.4235  0.2443
  424MOL0     C55864   7.561   6.496   8.959  0.8232  0.3556  0.0578
  424MOL0     C55865   7.417   6.511   8.913 -0.7323 -1.0701  0.0763
  424MOL0     O55866   7.356   6.401   8.859  0.0176  0.3204 -0.5129
  424MOL0     C55867   7.225   6.386   8.882  0.4856 -0.0992 -0.4140
  424MOL0     C55868   7.168   6.340   9.005  0.3081  0.9145 -0.2048
  424MOL0     C55869   7.032   6.328   9.021 -0.6270 -0.0590 -0.1467
  424MOL0     C55870   6.949   6.366   8.914 -0.0939 -0.4926  0.2669
  424MOL0     O55871   6.811   6.340   8.904 -0.3938  1.0618  0.0753
  424MOL0     C55872   6.743   6.315   9.023 -0.2768  0.4784 -0.7965
  424MOL0     C55873   6.594   6.301   8.994  0.2160  0.8026  0.6310
  424MOL0     C55874   6.504   6.350   9.108 -0.2557 -0.5747 -0.6413
  424MOL0     C55875   6.363   6.388   9.058 -0.3332  0.2489  0.0593
  424MOL0     C55876   6.270   6.419   9.178  0.3481  0.0328  0.1461
  424MOL0     C55877   6.152   6.504   9.137 -0.1020 -0.6235  0.7002
  424MOL0     C55878   6.058   6.525   9.253  0.1353  0.2172 -0.1249
  424MOL0     C55879   5.922   6.580   9.204  0.4314 -0.6139  0.1638
  424MOL0    Cl55880   5.792   6.598   9.337  0.0407  0.4790 -0.0445
  424MOL0     C55881   7.000   6.426   8.800  0.0699  1.0832 -0.1832
  424MOL0     C55882   7.138   6.432   8.786 -0.6579 -0.2728 -0.3057
  424MOL0     O55883   7.366   6.620   8.930 -0.1652 -0.2842 -0.1317
  424MOL0     C55884   7.617   6.594   9.032 -0.7708 -0.6428 -0.0902
  424MOL0     C55885   7.752   6.572   9.071 -0.1804  0.3856 -0.3604
  424MOL0     N55886   8.481   6.422   9.020  0.5927  0.4177 -0.2768
  424MOL0     N55887   8.596   6.411   8.956  0.2827  0.0375  1.0231
  424MOL0     C55888   9.672   5.912   8.527 -0.0072 -0.9411 -0.2127
  424MOL0     C55889   9.809   5.919   8.497 -0.1053  0.7784 -0.4018
  424MOL0     C55890  10.245   6.016   8.482  0.1985  0.7293  0.8928
  424MOL0     C55891  10.298   6.044   8.350  0.1534 -0.1110 -0.8283
  424MOL0     C55892  10.430   6.078   8.330  0.2889  1.2353 -0.5628
  424MOL0     C55893  10.514   6.085   8.432 -0.8460 -0.6051  0.1866
  424MOL0     O55894  10.640   6.136   8.428 -0.0033  0.0912 -0.2041
  424MOL0     C55895  10.721   6.144   8.303 -0.3793  0.6908  0.8620
  424MOL0     C55896  10.867   6.161   8.352  0.3351 -0.7311  0.5257
  424MOL0     C55897  10.926   6.231   8.230 -0.1572 -0.0038  0.2087
  424MOL0     C55898  11.074   6.233   8.251  0.0260 -0.1556 -0.0652
  424MOL0     C55899  11.099   6.316   8.370 -0.2611  0.3076 -1.1890
  424MOL0     C55900  11.116   6.381   8.469  0.0494  0.2494 -0.5929
  424MOL0     C55901  10.467   6.040   8.562 -0.6681 -0.7127 -0.0747
  424MOL0     C55902  10.337   6.010   8.588 -0.1127  0.0725  0.1900
  424MOL0     H55903   9.834   6.200   8.316  1.7299 -1.3372 -0.5096
  424MOL0     H55904   9.594   6.195   8.358  2.6199  1.2728 -0.2072
  424MOL0     H55905   9.435   5.958   8.685  0.3685  1.1387  0.9512
  424MOL0     H55906   9.421   5.835   8.558  0.2739 -0.1264  0.9951
  424MOL0     H55907   9.198   5.886   8.663  3.1878 -2.6294 -0.7853
  424MOL0     H55908   9.195   5.919   8.490  1.3138  0.1537 -0.3374
  424MOL0     H55909   9.090   6.101   8.587 -0.6632 -2.2780  0.8412
  424MOL0     H55910   9.259   6.164   8.568 -0.4356 -1.3163 -1.5761
  424MOL0     H55911   9.201   6.021   8.821 -1.4866 -1.2527 -0.4490
  424MOL0     H55912   9.289   6.180   8.791 -2.6710  2.8646 -0.3147
  424MOL0     H55913   9.060   6.277   8.743  1.3360  1.9793  1.3286
  424MOL0     H55914   9.099   6.244   8.917 -1.5990 -0.2735  1.1017
  424MOL0     H55915   8.953   6.045   8.914  2.4007 -0.6741 -0.8712
  424MOL0     H55916   8.936   6.053   8.744 -1.0820 -2.3326  1.5708
  424MOL0     H55917   8.792   6.266   8.760 -0.1520  3.3554  0.8256
  424MOL0     H55918   8.734   6.121   8.842  0.2932 -0.7760  3.0787
  424MOL0     H55919   8.871   6.356   8.966  1.5312 -1.2841 -3.4519
  424MOL0     H55920   8.841   6.200   9.053 -1.5138  0.3433  0.6838
  424MOL0     H55921   8.633   6.190   9.195  2.9916  1.1934 -0.4533
  424MOL0     H55922   8.367   6.373   9.282 -3.1543 -1.4677  0.5297
  424MOL0     H55923   8.428   6.214   9.281 -0.3692 -0.7028 -0.4002
  424MOL0     H55924   8.195   6.189   9.255  2.8937 -3.3830 -1.3104
  424MOL0     H55925   8.243   6.158   9.097  0.2755 -2.4365  1.3799
  424MOL0     H55926   8.141   6.438   9.196  2.0384 -0.6626  2.3921
  424MOL0     H55927   8.224   6.395   9.035  0.2271  0.5926  0.0995
  424MOL0     H55928   7.972   6.237   9.102 -0.6625 -1.0242 -1.2967
  424MOL0     H55929   8.040   6.293   8.953 -0.1407 -0.0410  0.5162
  424MOL0     H55930   7.802   6.259   8.962  2.8207  0.1512  2.3387
  424MOL0     H55931   7.573   6.299   8.888 -0.6729 -0.7824  1.1881
  424MOL0     H55932   7.237   6.303   9.080 -1.7508 -0.3995  1.1575
  424MOL0     H55933   7.003   6.295   9.121 -2.2396 -2.9541 -1.4386
  424MOL0     H55934   6.767   6.394   9.094 -2.1134 -0.0326  0.4714
  424MOL0     H55935   6.785   6.224   9.069  4.1274  2.0245 -1.2807
  424MOL0     H55936   6.580   6.196   8.969 -0.4229  1.2280 -0.9123
  424MOL0     H55937   6.568   6.368   8.911 -0.6874 -0.1732  0.0984
  424MOL0     H55938   6.552   6.443   9.139 -0.3104 -0.6581 -0.3011
  424MOL0     H55939   6.504   6.277   9.190  0.6465  0.7097  0.5375
  424MOL0     H55940   6.379   6.479   8.998  1.0940 -1.5699 -2.5088
  424MOL0     H55941   6.323   6.310   8.993 -0.2991  0.9420 -0.8141
  424MOL0     H55942   6.327   6.474   9.253 -0.0559 -0.2717  0.6856
  424MOL0     H55943   6.225   6.327   9.219  0.5549  0.3094  1.0182
  424MOL0     H55944   6.097   6.458   9.055 -3.2345  1.7543  1.2883
  424MOL0     H55945   6.181   6.603   9.102 -0.4472 -0.4266  0.9733
  424MOL0     H55946   6.042   6.431   9.307  0.8599 -1.1818 -2.2047
  424MOL0     H55947   6.101   6.594   9.327 -2.3698  0.4917  1.1891
  424MOL0     H55948   5.877   6.524   9.122 -0.4624  0.6728 -0.2653
  424MOL0     H55949   5.946   6.683   9.174 -1.1287  0.4079  2.1956
  424MOL0     H55950   6.933   6.458   8.721 -1.3346  0.5641  0.7592
  424MOL0     H55951   7.182   6.478   8.698 -0.8672  3.2593  1.2406
  424MOL0     H55952   7.569   6.688   9.056 -0.8311 -1.1290  1.9142
  424MOL0     H55953   7.799   6.639   9.143  0.0149  1.2098 -1.2224
  424MOL0     H55954   9.640   5.833   8.594  3.5605 -2.4734 -0.0433
  424MOL0     H55955   9.874   5.836   8.525 -1.3523  0.9402  3.6536
  424MOL0     H55956  10.230   6.068   8.269  0.4240 -1.3754 -1.4444
  424MOL0     H55957  10.464   6.117   8.235  4.5020 -0.5039  0.0290
  424MOL0     H55958  10.679   6.225   8.243  0.7248  0.6081 -0.0672
  424MOL0     H55959  10.708   6.055   8.239  1.9231  1.1474 -0.3413
  424MOL0     H55960  10.872   6.214   8.447 -2.2777  1.6637 -0.5152
  424MOL0     H55961  10.914   6.063   8.365  0.7270 -0.5006  0.8366
  424MOL0     H55962  10.884   6.332   8.227 -0.1790  0.1252  2.5507
  424MOL0     H55963  10.909   6.171   8.140  2.5978 -0.4119 -0.1252
  424MOL0     H55964  11.101   6.128   8.263  1.3691  0.1490 -0.2689
  424MOL0     H55965  11.134   6.271   8.168 -1.1803  1.1175 -0.3864
  424MOL0     H55966  11.127   6.438   8.560 -0.2658 -0.3166 -0.1922
  424MOL0     H55967  10.535   6.018   8.643 -0.6004 -0.7339 -0.1376
  424MOL0     H55968  10.312   5.968   8.686 -0.9054 -3.1316 -1.2625
  425MOL0     O55969   0.902   1.595   8.910 -0.0091 -0.3389  0.1315
  425MOL0     C55970   0.907   1.537   8.799 -0.6405 -0.5376 -0.5570
  425MOL0     O55971   0.802   1.521   8.712 -0.0835  0.3650 -0.8300
  425MOL0     C55972   0.681   1.584   8.730 -0.0974  0.1759  0.3246
  425MOL0     C55973   0.565   1.515   8.684  0.0163  0.6170 -0.1911
  425MOL0     C55974   0.438   1.560   8.701 -0.6643 -0.0079 -0.4884
  425MOL0     C55975   0.418   1.690   8.750  0.1287  0.7102 -0.4456
  425MOL0     O55976   0.303   1.762   8.740  0.4492 -0.1816  0.3200
  425MOL0     C55977   0.195   1.701   8.662 -0.3456 -1.5752  0.2982
  425MOL0     C55978   0.110   1.604   8.747 -0.4238  0.3488 -0.0504
  425MOL0     C55979   0.020   1.524   8.643  0.1521 -0.0518 -0.0203
  425MOL0     C55980  -0.076   1.424   8.700  0.2315 -0.9336  0.0949
  425MOL0     C55981  -0.119   1.311   8.606 -0.1670 -0.3124 -0.4888
  425MOL0     C55982  -0.181   1.360   8.473 -0.3239 -0.4617  0.2143
  425MOL0     C55983  -0.316   1.429   8.508 -0.6572  0.2052  0.2268
  425MOL0     C55984  -0.381   1.473   8.375 -0.6637  0.8075  0.4530
  425MOL0     N55985  -0.444   1.356   8.303 -0.3176  0.0768  0.8131
  425MOL0     C55986  -0.555   1.290   8.338  0.1324 -0.2034  0.3634
  425MOL0     C55987  -0.574   1.196   8.245  0.5371  1.2216 -0.0189
  425MOL0     C55988  -0.689   1.099   8.245 -0.5365  0.6427  0.7615
  425MOL0     C55989  -0.710   1.006   8.356 -0.0739 -0.3352 -0.0425
  425MOL0     C55990  -0.828   0.917   8.333 -0.3711  0.2737  0.4324
  425MOL0     C55991  -0.872   0.827   8.452 -0.3612 -0.2673 -0.2420
  425MOL0     O55992  -0.966   0.737   8.401  0.3823 -0.0864  0.0294
  425MOL0     C55993  -1.024   0.650   8.496  0.4504 -0.3834 -0.6670
  425MOL0     C55994  -0.988   0.627   8.629 -0.0027 -0.3821 -0.4122
  425MOL0     C55995  -1.053   0.528   8.705  0.0902  0.3474  0.1092
  425MOL0     C55996  -1.154   0.455   8.657  0.1506  0.6523 -0.3426
  425MOL0     C55997  -1.204   0.337   8.731  0.8733 -0.1410 -0.0684
  425MOL0     O55998  -1.124   0.272   8.827  0.5563  0.1202  0.2772
  425MOL0     C55999  -1.186   0.195   8.919 -0.1152  0.4709  0.2092
  425MOL0     C56000  -1.224   0.065   8.892 -0.5440 -0.5113  0.2557
  425MOL0     C56001  -1.273  -0.010   8.994 -0.2338 -0.5628 -0.7459
  425MOL0     C56002  -1.291   0.037   9.128 -0.0680  0.1077  0.5791
  425MOL0     O56003  -1.328  -0.027   9.241 -0.3163 -0.7360 -0.6960
  425MOL0     C56004  -1.350  -0.167   9.225  0.4452  0.5409  0.7050
  425MOL0     C56005  -1.356  -0.236   9.362  0.5549 -0.4101 -1.3122
  425MOL0     C56006  -1.321  -0.386   9.354 -0.0214 -0.4359 -0.3436
  425MOL0     C56007  -1.327  -0.454   9.490 -0.1284 -0.4794 -0.0170
  425MOL0     C56008  -1.278  -0.598   9.499 -1.4995 -1.0370 -0.1556
  425MOL0     C56009  -1.166  -0.653   9.405 -0.6939 -0.5259  0.1553
  425MOL0     C56010  -1.118  -0.786   9.458 -0.9158 -0.0908  0.2663
  425MOL0     C56011  -1.013  -0.857   9.367 -0.3414 -0.3745 -0.3233
  425MOL0    Cl56012  -0.841  -0.775   9.372 -0.3730  0.5760 -0.0920
  425MOL0     C56013  -1.254   0.172   9.142 -0.5413  0.4779 -0.0916
  425MOL0     C56014  -1.196   0.250   9.049  0.3170  0.0493  0.4277
  425MOL0     O56015  -1.323   0.308   8.702 -0.9668 -0.6588  1.1096
  425MOL0     C56016  -1.197   0.483   8.519  0.2723  0.5003 -0.3602
  425MOL0     C56017  -1.133   0.583   8.448  1.0189  0.6404  0.6217
  425MOL0     N56018  -0.471   1.192   8.159 -0.4324 -0.1129 -0.3008
  425MOL0     N56019  -0.398   1.293   8.195  0.1028 -0.5665  0.3258
  425MOL0     C56020   0.521   1.754   8.808 -0.7166 -0.8885  0.8869
  425MOL0     C56021   0.652   1.706   8.796  1.2438 -0.1649  0.5387
  425MOL0     C56022   1.040   1.488   8.757 -0.5900  0.0448 -0.0775
  425MOL0     C56023   1.050   1.452   8.618  0.0618  0.3924 -0.4036
  425MOL0     C56024   1.170   1.406   8.571  0.5866  0.6458  0.3049
  425MOL0     C56025   1.282   1.394   8.647 -1.2981  0.6979  0.1235
  425MOL0     O56026   1.397   1.356   8.579 -0.0929  0.1663  0.6783
  425MOL0     C56027   1.521   1.344   8.653 -0.4425  0.1488  0.3663
  425MOL0     C56028   1.637   1.345   8.549  0.0759 -0.3761  0.8338
  425MOL0     C56029   1.767   1.342   8.623 -0.7426 -0.5217  0.5516
  425MOL0     C56030   1.869   1.409   8.536  0.9597 -0.8846  0.4238
  425MOL0     C56031   2.010   1.382   8.563  0.0285  0.5144  0.1554
  425MOL0     C56032   2.125   1.359   8.573 -0.0314 -1.0671  0.7241
  425MOL0     C56033   1.273   1.431   8.775 -0.3684 -0.2674  0.7844
  425MOL0     C56034   1.156   1.483   8.832  0.8081  0.0515 -0.1383
  425MOL0     H56035   0.579   1.420   8.635 -1.9535 -0.6121  1.4452
  425MOL0     H56036   0.353   1.503   8.664 -1.6213  1.3765 -0.4958
  425MOL0     H56037   0.232   1.656   8.569 -1.5170 -2.8702  0.4298
  425MOL0     H56038   0.133   1.788   8.637  0.8453  0.0868  2.6547
  425MOL0     H56039   0.053   1.652   8.828  1.4360 -1.2502  2.3294
  425MOL0     H56040   0.170   1.530   8.800 -1.1375 -0.2728 -0.0851
  425MOL0     H56041   0.081   1.468   8.572 -0.7670 -1.8350  0.5485
  425MOL0     H56042  -0.034   1.601   8.587 -1.5599 -1.9450 -1.0852
  425MOL0     H56043  -0.025   1.376   8.784 -0.6223  0.2290  1.3114
  425MOL0     H56044  -0.169   1.469   8.736  0.1144 -1.2196  0.1584
  425MOL0     H56045  -0.194   1.250   8.656 -0.4045  1.1855  1.0711
  425MOL0     H56046  -0.034   1.246   8.579  1.1593 -0.0263  2.5359
  425MOL0     H56047  -0.199   1.272   8.410  1.1396 -0.6299 -0.0204
  425MOL0     H56048  -0.108   1.427   8.426  2.5746 -2.0230  2.2022
  425MOL0     H56049  -0.386   1.361   8.558  0.7147 -1.6702 -0.3068
  425MOL0     H56050  -0.305   1.519   8.569  0.0694  0.7764 -0.7241
  425MOL0     H56051  -0.315   1.538   8.316 -1.5331  0.8483 -0.4790
  425MOL0     H56052  -0.467   1.536   8.401 -1.2354 -0.4234  1.6458
  425MOL0     H56053  -0.624   1.310   8.419  0.9487  0.1384  0.9986
  425MOL0     H56054  -0.679   1.042   8.152  0.5254  2.7317 -0.4780
  425MOL0     H56055  -0.781   1.150   8.215 -0.5890 -1.0782 -2.4914
  425MOL0     H56056  -0.710   1.053   8.455 -0.5350  2.2402 -1.1835
  425MOL0     H56057  -0.625   0.937   8.363  1.0510  0.8333 -1.4395
  425MOL0     H56058  -0.907   0.986   8.302  1.2563  2.8357  1.6183
  425MOL0     H56059  -0.804   0.872   8.237  1.6340  2.3516 -0.1459
  425MOL0     H56060  -0.920   0.887   8.529  2.2946  0.4762  0.9676
  425MOL0     H56061  -0.788   0.779   8.504 -0.2250 -2.1734 -2.0765
  425MOL0     H56062  -0.918   0.701   8.668  0.5425 -1.3865  0.5639
  425MOL0     H56063  -1.012   0.511   8.804 -2.5712 -1.1092  1.0467
  425MOL0     H56064  -1.207   0.011   8.800 -1.3596 -1.3701  0.5906
  425MOL0     H56065  -1.293  -0.115   8.978 -1.4151 -0.7687  1.6443
  425MOL0     H56066  -1.277  -0.221   9.164  0.7032  0.9813  0.6132
  425MOL0     H56067  -1.443  -0.181   9.170  1.3539 -1.3803 -0.4248
  425MOL0     H56068  -1.455  -0.228   9.408  0.9490  0.1826 -0.5489
  425MOL0     H56069  -1.294  -0.176   9.428 -3.8322  0.8685  2.1484
  425MOL0     H56070  -1.224  -0.391   9.304  1.0400  1.6864  1.3253
  425MOL0     H56071  -1.399  -0.433   9.292 -0.2529  1.3861 -1.5083
  425MOL0     H56072  -1.268  -0.390   9.557 -0.0451 -1.0025  0.4132
  425MOL0     H56073  -1.432  -0.454   9.518 -0.4780 -0.2552 -1.2767
  425MOL0     H56074  -1.362  -0.667   9.490 -1.9220 -0.5973  0.3367
  425MOL0     H56075  -1.236  -0.611   9.599  2.5348  0.6999 -1.4086
  425MOL0     H56076  -1.085  -0.580   9.394 -0.7511 -0.3665  0.7474
  425MOL0     H56077  -1.213  -0.660   9.307  0.8518  1.2326 -0.7881
  425MOL0     H56078  -1.075  -0.773   9.558 -2.1405 -0.1001  0.8033
  425MOL0     H56079  -1.202  -0.855   9.455 -1.7276  0.9103 -1.6674
  425MOL0     H56080  -1.060  -0.853   9.268  0.5919  2.8254 -0.7619
  425MOL0     H56081  -0.996  -0.962   9.393 -2.0570 -0.3564  1.0092
  425MOL0     H56082  -1.267   0.214   9.241  1.4215 -1.2261  0.9626
  425MOL0     H56083  -1.156   0.351   9.063 -1.2728  0.7797 -0.0532
  425MOL0     H56084  -1.282   0.426   8.483 -0.7614  1.8073 -0.1117
  425MOL0     H56085  -1.156   0.592   8.342 -0.6609  1.4906  1.0229
  425MOL0     H56086   0.496   1.851   8.848 -1.6498 -1.1175  0.8715
  425MOL0     H56087   0.732   1.764   8.843 -0.7639  1.6601  1.9196
  425MOL0     H56088   0.979   1.472   8.539 -1.7154  0.0771  1.0569
  425MOL0     H56089   1.162   1.399   8.463 -0.7956 -1.0211  0.4653
  425MOL0     H56090   1.540   1.264   8.726  1.0858 -0.2315 -0.4149
  425MOL0     H56091   1.538   1.434   8.713 -1.0317  0.1034  0.6106
  425MOL0     H56092   1.639   1.251   8.494  1.4239 -0.4843  1.0375
  425MOL0     H56093   1.632   1.437   8.490  1.9249 -0.1603  0.9509
  425MOL0     H56094   1.791   1.239   8.650  1.5083  0.0910  1.0730
  425MOL0     H56095   1.769   1.394   8.719  0.4353  0.8960 -0.1982
  425MOL0     H56096   1.846   1.384   8.432 -0.3810 -0.0616  0.4935
  425MOL0     H56097   1.846   1.515   8.550 -2.3576 -0.9115 -3.0437
  425MOL0     H56098   2.232   1.351   8.575  0.2755  1.7292 -0.3582
  425MOL0     H56099   1.365   1.438   8.832  1.7312  0.0182 -2.3992
  425MOL0     H56100   1.154   1.512   8.936 -1.3183 -0.8319  0.1110
  426MOL0     O56101   7.640   5.839   5.011 -0.0349 -0.4623 -0.1318
  426MOL0     C56102   7.695   5.779   5.111  0.1400  0.5709  0.0573
  426MOL0     O56103   7.633   5.716   5.215  0.2609  0.0424  0.1405
  426MOL0     C56104   7.500   5.685   5.215 -0.2927  0.0716 -0.0316
  426MOL0     C56105   7.399   5.718   5.117  0.3892 -0.5157  0.1227
  426MOL0     C56106   7.264   5.678   5.136 -1.3392  0.6649  0.9165
  426MOL0     C56107   7.222   5.611   5.244 -0.8898 -0.6446 -0.1326
  426MOL0     O56108   7.090   5.580   5.246  0.0002  0.0441 -0.0865
  426MOL0     C56109   7.046   5.491   5.343 -0.2444  0.5543 -0.7530
  426MOL0     C56110   6.903   5.462   5.310  0.3635  0.0730 -0.8523
  426MOL0     C56111   6.847   5.354   5.405  0.0524 -0.6707 -0.6432
  426MOL0     C56112   6.693   5.347   5.384  0.0724 -0.4555  0.1223
  426MOL0     C56113   6.623   5.256   5.490 -1.0361 -0.1315  0.1641
  426MOL0     C56114   6.686   5.123   5.518  0.4067 -0.1909  0.0564
  426MOL0     C56115   6.577   5.019   5.547 -0.3285 -0.3747 -1.0221
  426MOL0     C56116   6.629   4.885   5.504 -0.7524 -0.4056  0.9345
  426MOL0     N56117   6.540   4.774   5.546  0.3818  0.2080 -0.4137
  426MOL0     C56118   6.416   4.740   5.506 -0.0242  0.3319 -0.5585
  426MOL0     C56119   6.388   4.627   5.565  0.4169  1.0567  0.0552
  426MOL0     C56120   6.256   4.560   5.573  1.1303 -0.3140  0.4824
  426MOL0     C56121   6.253   4.410   5.626 -0.2435 -0.4543  0.4818
  426MOL0     C56122   6.124   4.338   5.583  0.4829  0.4661  0.3483
  426MOL0     C56123   5.996   4.401   5.644  0.3308 -0.0563 -0.6426
  426MOL0     O56124   5.993   4.373   5.796  0.2885 -0.2243 -0.1590
  426MOL0     C56125   5.870   4.352   5.854 -0.2511  0.2452 -0.6131
  426MOL0     C56126   5.865   4.293   5.979 -0.1655 -0.0202 -0.6877
  426MOL0     C56127   5.747   4.277   6.049 -0.1107 -0.3898 -0.8870
  426MOL0     C56128   5.631   4.310   5.981 -0.3006 -0.3563  0.1114
  426MOL0     C56129   5.503   4.288   6.045  1.5206 -0.6847 -0.3123
  426MOL0     O56130   5.387   4.304   5.965 -0.4530 -0.4638  0.2385
  426MOL0     C56131   5.258   4.309   6.013 -0.5287 -0.0967 -0.1751
  426MOL0     C56132   5.214   4.317   6.147  1.1218  0.2817  0.2022
  426MOL0     C56133   5.082   4.332   6.176 -0.1321  0.1682  0.7301
  426MOL0     C56134   4.980   4.350   6.082 -0.4950  0.2346  0.0397
  426MOL0     O56135   4.843   4.365   6.094 -0.1707  0.2013  0.7111
  426MOL0     C56136   4.794   4.340   6.223  0.2065  0.4645 -0.1926
  426MOL0     C56137   4.640   4.346   6.200 -0.1028  0.3870 -0.9306
  426MOL0     C56138   4.575   4.347   6.332 -0.3460  0.4612 -0.3036
  426MOL0     C56139   4.422   4.335   6.323  1.2447 -0.8745 -0.0695
  426MOL0     C56140   4.349   4.336   6.451 -0.3315 -0.1701 -0.2593
  426MOL0     C56141   4.354   4.468   6.531  0.2170  0.1555  0.8854
  426MOL0     C56142   4.270   4.443   6.661 -0.2242  0.0261  0.3426
  426MOL0     C56143   4.264   4.578   6.734  0.0187 -0.3427  0.0135
  426MOL0    Cl56144   4.148   4.579   6.882  0.0060  0.1173 -0.2575
  426MOL0     C56145   5.025   4.346   5.945  0.3668 -0.2990  0.5913
  426MOL0     C56146   5.158   4.312   5.912  0.6243  0.1962  0.2536
  426MOL0     O56147   5.502   4.240   6.160 -0.8310  0.2770 -0.2381
  426MOL0     C56148   5.636   4.370   5.852 -0.4594  0.3508 -0.7663
  426MOL0     C56149   5.754   4.395   5.794  0.2644 -0.3075  0.2195
  426MOL0     N56150   6.498   4.580   5.630  0.2120 -0.2997  0.2993
  426MOL0     N56151   6.578   4.676   5.630 -0.2001  0.2624  0.5487
  426MOL0     C56152   7.318   5.599   5.341 -0.3999  0.7507 -0.8038
  426MOL0     C56153   7.452   5.623   5.328  0.7832  0.9473 -0.4174
  426MOL0     C56154   7.835   5.799   5.131 -0.3808  0.4927  0.7093
  426MOL0     C56155   7.910   5.855   5.030 -0.2101 -0.4321 -0.7279
  426MOL0     C56156   8.048   5.871   5.044 -0.5372  0.5698 -0.3416
  426MOL0     C56157   8.119   5.822   5.159  0.0309  0.3802 -0.3061
  426MOL0     O56158   8.254   5.828   5.154  0.3719 -0.3004  0.5838
  426MOL0     C56159   8.326   5.797   5.274 -0.0547 -0.4540 -0.1443
  426MOL0     C56160   8.453   5.878   5.266 -0.1550  0.0775  0.0145
  426MOL0     C56161   8.440   6.031   5.262  0.3261  0.0115 -0.1809
  426MOL0     C56162   8.535   6.108   5.189  0.1960  0.4400  0.1833
  426MOL0     C56163   8.535   6.083   5.042  0.8180  0.3145 -0.6112
  426MOL0     C56164   8.532   6.065   4.917  0.2679 -0.4708  0.4292
  426MOL0     C56165   8.044   5.771   5.263 -0.3216  0.4228  0.5063
  426MOL0     C56166   7.904   5.751   5.244 -0.2561 -0.6266 -0.5153
  426MOL0     H56167   7.428   5.770   5.026 -2.8866  2.4884  0.5521
  426MOL0     H56168   7.181   5.693   5.068 -1.6560 -2.8671  0.3322
  426MOL0     H56169   7.058   5.525   5.447  0.4086 -3.7355  0.7777
  426MOL0     H56170   7.106   5.400   5.335  0.0768  0.7193 -0.2654
  426MOL0     H56171   6.874   5.434   5.208 -0.5850 -2.0685 -0.0598
  426MOL0     H56172   6.841   5.551   5.327  1.4896  0.3665  2.2878
  426MOL0     H56173   6.872   5.388   5.506 -0.0802 -1.3508 -0.3778
  426MOL0     H56174   6.886   5.253   5.390 -0.8534 -1.1168 -0.0737
  426MOL0     H56175   6.661   5.451   5.391  0.4872 -0.0643 -2.7186
  426MOL0     H56176   6.665   5.316   5.283  1.7602 -1.8465  0.0331
  426MOL0     H56177   6.525   5.234   5.448 -0.5849 -0.6755 -0.6383
  426MOL0     H56178   6.606   5.324   5.574 -0.7336  3.3345 -2.3696
  426MOL0     H56179   6.764   5.129   5.595 -0.1583 -1.3153  0.7262
  426MOL0     H56180   6.730   5.078   5.428 -1.2077 -1.4584 -0.1365
  426MOL0     H56181   6.565   5.025   5.656 -0.3798  0.1755 -1.0521
  426MOL0     H56182   6.483   5.043   5.497 -0.0915  2.2440 -0.3811
  426MOL0     H56183   6.731   4.874   5.543 -0.8748 -0.3886  1.2596
  426MOL0     H56184   6.630   4.881   5.394  1.2204  0.4212  0.8775
  426MOL0     H56185   6.338   4.806   5.470 -1.8682  0.4577  3.1884
  426MOL0     H56186   6.201   4.569   5.478 -2.2195  0.8299  2.3612
  426MOL0     H56187   6.192   4.616   5.642  0.3952  0.5073 -0.8166
  426MOL0     H56188   6.252   4.417   5.735  1.5315  1.3187  0.4366
  426MOL0     H56189   6.342   4.352   5.602 -1.1993 -2.7820  2.1478
  426MOL0     H56190   6.112   4.333   5.474 -3.6961 -2.4064  0.6795
  426MOL0     H56191   6.132   4.237   5.622  0.1071  0.9706  1.8014
  426MOL0     H56192   5.915   4.343   5.598 -0.9524  0.6992  0.5637
  426MOL0     H56193   5.990   4.509   5.628 -2.1833  0.6091  3.3721
  426MOL0     H56194   5.957   4.259   6.026  0.1659  0.8387 -0.6944
  426MOL0     H56195   5.750   4.232   6.148 -2.6329  0.7110 -0.2461
  426MOL0     H56196   5.286   4.311   6.228  1.9868 -0.0959 -0.5848
  426MOL0     H56197   5.058   4.337   6.282 -0.9166  1.3142  0.5192
  426MOL0     H56198   4.815   4.415   6.300 -0.2707 -0.8093  1.2391
  426MOL0     H56199   4.819   4.242   6.265 -1.6860 -0.1204 -0.3000
  426MOL0     H56200   4.597   4.261   6.145  0.1385 -1.8677  2.1357
  426MOL0     H56201   4.613   4.438   6.147  0.2522  1.1058  0.1224
  426MOL0     H56202   4.611   4.437   6.383 -0.4214 -0.9124  2.3327
  426MOL0     H56203   4.592   4.256   6.390 -2.1123  0.9466  1.0734
  426MOL0     H56204   4.388   4.421   6.265  1.6490 -2.0838 -2.2097
  426MOL0     H56205   4.397   4.240   6.275 -1.0726 -1.0049  1.2675
  426MOL0     H56206   4.384   4.260   6.521 -2.8132  2.1412  3.8418
  426MOL0     H56207   4.249   4.308   6.417 -0.1619 -0.0174 -0.9017
  426MOL0     H56208   4.302   4.546   6.474 -0.5831  0.1972  1.6415
  426MOL0     H56209   4.461   4.489   6.540  0.5362 -1.8387  2.4906
  426MOL0     H56210   4.171   4.399   6.648 -1.0982  1.8027  0.6904
  426MOL0     H56211   4.327   4.366   6.715 -1.7780 -0.1669  1.7692
  426MOL0     H56212   4.244   4.661   6.666 -0.5156 -1.8008 -1.6898
  426MOL0     H56213   4.365   4.597   6.773 -0.0457  0.2552 -0.1033
  426MOL0     H56214   4.955   4.339   5.863 -0.3843  0.5823  1.1343
  426MOL0     H56215   5.178   4.307   5.806  0.9300  0.2697  0.3064
  426MOL0     H56216   5.549   4.409   5.801 -1.6929 -1.5345 -0.2063
  426MOL0     H56217   5.747   4.434   5.693  1.0983 -0.8450 -0.0583
  426MOL0     H56218   7.297   5.546   5.434  0.0729  0.2882 -0.9527
  426MOL0     H56219   7.514   5.590   5.411 -0.0224 -1.7756 -0.7961
  426MOL0     H56220   7.865   5.874   4.933 -0.9494 -2.6038 -0.8449
  426MOL0     H56221   8.103   5.917   4.963 -0.9785  0.7390 -0.5468
  426MOL0     H56222   8.332   5.688   5.280 -1.7799 -0.4966  2.7789
  426MOL0     H56223   8.279   5.817   5.371  1.6578  0.7309  0.5027
  426MOL0     H56224   8.522   5.851   5.347  2.4185  0.3846 -1.9415
  426MOL0     H56225   8.499   5.848   5.171  0.7668  0.4603  0.3235
  426MOL0     H56226   8.440   6.067   5.366 -3.4141  0.6648 -0.2783
  426MOL0     H56227   8.339   6.055   5.229 -0.9138 -1.7322  2.1170
  426MOL0     H56228   8.518   6.214   5.212  3.1237  1.3281 -1.2876
  426MOL0     H56229   8.630   6.080   5.235  0.9828  0.9283 -1.0845
  426MOL0     H56230   8.524   6.044   4.812 -0.7878  0.9661  0.1876
  426MOL0     H56231   8.085   5.751   5.361  0.8469  1.8767  0.3492
  426MOL0     H56232   7.857   5.699   5.327 -0.1651 -0.8221 -0.5850
  427MOL0     O56233   5.404   4.333   4.331 -0.1279 -0.2697  0.0651
  427MOL0     C56234   5.379   4.380   4.218  0.8732  0.0468  0.1551
  427MOL0     O56235   5.471   4.444   4.137 -0.0317  0.6655  0.0754
  427MOL0     C56236   5.595   4.480   4.188  0.4938  0.2128  0.1978
  427MOL0     C56237   5.643   4.610   4.176  0.3345 -0.3904  0.7546
  427MOL0     C56238   5.777   4.642   4.204  0.0904  0.2044  0.1142
  427MOL0     C56239   5.861   4.540   4.252  0.2736  0.0007  0.1091
  427MOL0     O56240   5.987   4.574   4.289  0.0877  0.1090  0.0523
  427MOL0     C56241   6.094   4.495   4.239  0.4942 -0.1895 -0.2383
  427MOL0     C56242   6.211   4.588   4.238 -0.1445 -0.3413  0.2319
  427MOL0     C56243   6.313   4.582   4.344 -0.6316 -0.1766  0.0131
  427MOL0     C56244   6.447   4.669   4.314 -0.1879  0.0808 -0.0793
  427MOL0     C56245   6.565   4.648   4.417  0.2654  0.1370  0.3574
  427MOL0     C56246   6.520   4.704   4.556  0.3468 -0.0002 -0.0422
  427MOL0     C56247   6.633   4.686   4.667  0.9001  0.2761 -0.3246
  427MOL0     C56248   6.761   4.776   4.637  0.3792  0.4270 -0.6032
  427MOL0     N56249   6.867   4.753   4.742  0.4032  0.1898 -0.1320
  427MOL0     C56250   6.877   4.816   4.863  0.1421 -0.1630 -0.1721
  427MOL0     C56251   6.963   4.742   4.937 -0.1179 -0.1184  0.2162
  427MOL0     C56252   7.024   4.777   5.075  0.2134 -0.0913 -0.0958
  427MOL0     C56253   6.933   4.873   5.164  0.3202  0.0340  0.6991
  427MOL0     C56254   6.975   4.875   5.310 -0.5887  0.4861  0.2130
  427MOL0     C56255   7.116   4.916   5.328 -0.7184 -0.7810 -0.6307
  427MOL0     O56256   7.144   5.051   5.296  0.1472  0.5812 -0.1507
  427MOL0     C56257   7.273   5.093   5.318  0.2821 -0.2927  0.1445
  427MOL0     C56258   7.357   5.062   5.424 -0.1743  0.2235 -0.7393
  427MOL0     C56259   7.494   5.089   5.426 -0.7053 -0.9258  0.3413
  427MOL0     C56260   7.555   5.156   5.322 -0.2207 -0.3924  0.9218
  427MOL0     C56261   7.702   5.190   5.312 -0.3250  0.3523  0.3387
  427MOL0     O56262   7.754   5.256   5.193  0.5425  0.0008  0.1144
  427MOL0     C56263   7.894   5.271   5.187 -1.1631 -0.0586  0.4674
  427MOL0     C56264   7.962   5.367   5.264  0.4146  0.6743  0.2762
  427MOL0     C56265   8.093   5.394   5.256  0.2847  0.9280 -0.3587
  427MOL0     C56266   8.177   5.312   5.174  0.0200 -0.6020 -0.7481
  427MOL0     O56267   8.311   5.336   5.183 -0.1988  0.1552  0.2380
  427MOL0     C56268   8.381   5.346   5.060 -0.7294 -0.7340  0.1389
  427MOL0     C56269   8.484   5.453   5.079  0.0217  0.0368 -0.4228
  427MOL0     C56270   8.580   5.481   4.961  0.3589  0.1069  0.3120
  427MOL0     C56271   8.510   5.527   4.834  0.8893  1.2557  1.7084
  427MOL0     C56272   8.619   5.577   4.740 -0.1281 -0.1426 -0.0022
  427MOL0     C56273   8.549   5.620   4.606  0.6129  0.1681  0.1518
  427MOL0     C56274   8.660   5.664   4.495 -0.6744  0.8980  0.7009
  427MOL0     C56275   8.745   5.784   4.548  0.1788  1.0588  0.2081
  427MOL0    Cl56276   8.627   5.900   4.598  0.0355 -0.2131 -0.1951
  427MOL0     C56277   8.113   5.215   5.086 -0.3374  0.2342 -1.9188
  427MOL0     C56278   7.973   5.199   5.095  0.9841 -0.1708 -0.3389
  427MOL0     O56279   7.768   5.168   5.415  0.1880 -0.1468  0.3755
  427MOL0     C56280   7.470   5.190   5.214 -0.7744 -0.1594  0.5411
  427MOL0     C56281   7.330   5.164   5.213  0.8894 -0.0431  0.5016
  427MOL0     N56282   7.004   4.639   4.855  0.3412 -0.0495  0.6147
  427MOL0     N56283   6.949   4.651   4.737  0.1816  0.6121 -0.2420
  427MOL0     C56284   5.807   4.409   4.266 -0.0804 -0.5703 -0.9128
  427MOL0     C56285   5.675   4.379   4.243 -0.6534 -0.4127 -0.1161
  427MOL0     C56286   5.245   4.353   4.152 -0.4238  0.0815 -0.7692
  427MOL0     C56287   5.231   4.380   4.019 -0.5300 -0.5514  0.7145
  427MOL0     C56288   5.099   4.383   3.969  0.2465  0.1300 -0.1416
  427MOL0     C56289   4.988   4.352   4.042  0.6109 -0.0437 -0.4402
  427MOL0     O56290   4.874   4.348   3.972 -0.2967 -0.0189  0.3168
  427MOL0     C56291   4.759   4.415   4.024  0.4686  0.8198  0.0724
  427MOL0     C56292   4.664   4.482   3.923 -1.0671  0.1689 -0.4173
  427MOL0     C56293   4.653   4.419   3.790 -0.5835 -0.3145 -0.4218
  427MOL0     C56294   4.558   4.497   3.704 -0.0206 -0.3292 -0.3383
  427MOL0     C56295   4.420   4.497   3.766 -0.2326  0.3481 -0.0197
  427MOL0     C56296   4.301   4.511   3.805  0.6442 -0.1035 -0.3707
  427MOL0     C56297   5.008   4.322   4.172  0.2593 -0.3793 -1.3521
  427MOL0     C56298   5.135   4.316   4.232 -0.1060  0.0490  0.1094
  427MOL0     H56299   5.579   4.669   4.111  1.8491  0.2746 -0.1909
  427MOL0     H56300   5.810   4.745   4.191  0.6748 -0.0040 -0.0847
  427MOL0     H56301   6.070   4.468   4.136 -2.4489  1.9238 -0.2134
  427MOL0     H56302   6.111   4.402   4.293  1.1348  0.0989  0.0697
  427MOL0     H56303   6.175   4.691   4.230  1.5138  0.3498  1.0507
  427MOL0     H56304   6.269   4.557   4.151 -0.8750  1.0866 -0.8068
  427MOL0     H56305   6.335   4.474   4.348 -1.2130 -0.4354 -2.3404
  427MOL0     H56306   6.273   4.620   4.438  2.6935  1.4405  0.9365
  427MOL0     H56307   6.489   4.637   4.218 -1.1202  1.3838 -0.9499
  427MOL0     H56308   6.415   4.772   4.299  1.7519  1.0324  1.7081
  427MOL0     H56309   6.646   4.712   4.381  1.7911 -0.8030  1.9662
  427MOL0     H56310   6.590   4.542   4.426 -0.5197  0.0174  1.3872
  427MOL0     H56311   6.422   4.663   4.582  0.7033 -1.3910 -0.7986
  427MOL0     H56312   6.492   4.810   4.555  2.0991  0.8203  5.3440
  427MOL0     H56313   6.581   4.715   4.759  1.0875  1.5435 -0.6014
  427MOL0     H56314   6.664   4.583   4.688 -1.5210 -0.6001 -0.7452
  427MOL0     H56315   6.734   4.882   4.643  0.3193  0.4133 -0.6276
  427MOL0     H56316   6.791   4.752   4.534 -1.3156  0.3800 -1.1282
  427MOL0     H56317   6.844   4.916   4.889 -1.5519 -1.1699  1.7805
  427MOL0     H56318   7.120   4.828   5.061  2.4587 -2.8664  3.2353
  427MOL0     H56319   7.040   4.688   5.138  1.5163  0.0142 -0.2539
  427MOL0     H56320   6.827   4.847   5.156 -0.1045  1.6521  0.7818
  427MOL0     H56321   6.938   4.972   5.118 -1.2105 -0.7573 -1.3346
  427MOL0     H56322   6.915   4.952   5.359 -1.6501 -0.3618  0.2839
  427MOL0     H56323   6.964   4.780   5.364  2.4965  0.4193  0.8994
  427MOL0     H56324   7.191   4.858   5.274  3.1496  0.5283  2.7488
  427MOL0     H56325   7.136   4.904   5.435 -1.4649  0.2143 -0.3687
  427MOL0     H56326   7.319   5.005   5.508  0.6935 -0.3608 -0.7353
  427MOL0     H56327   7.539   5.063   5.522 -0.0197 -0.2949  0.1989
  427MOL0     H56328   7.910   5.432   5.333  2.0133  3.8244 -1.2372
  427MOL0     H56329   8.140   5.472   5.315  2.0253  0.2827 -0.8223
  427MOL0     H56330   8.309   5.380   4.984  0.3025 -0.6603 -0.8324
  427MOL0     H56331   8.423   5.250   5.029  0.4205  0.1347 -1.1484
  427MOL0     H56332   8.545   5.428   5.166  3.1672 -0.0813 -2.5019
  427MOL0     H56333   8.428   5.545   5.100 -1.9641  0.2933 -5.3210
  427MOL0     H56334   8.634   5.389   4.938  0.5133 -0.4560  2.6702
  427MOL0     H56335   8.649   5.565   4.976 -0.1689  0.8386 -1.2421
  427MOL0     H56336   8.459   5.437   4.798  1.6501  1.9639 -1.3557
  427MOL0     H56337   8.440   5.610   4.847  1.7907  1.6837  4.5031
  427MOL0     H56338   8.696   5.504   4.714  0.7711  0.1192  1.8113
  427MOL0     H56339   8.664   5.665   4.787 -1.5281 -0.0662  1.2787
  427MOL0     H56340   8.463   5.687   4.616 -0.2840 -1.1105  1.3554
  427MOL0     H56341   8.494   5.535   4.564 -0.0295  1.1647 -1.0742
  427MOL0     H56342   8.733   5.584   4.475 -2.1259 -0.4654  0.6738
  427MOL0     H56343   8.621   5.692   4.397 -0.1443  0.3262  0.3134
  427MOL0     H56344   8.802   5.832   4.468  1.1403 -0.4334 -0.0391
  427MOL0     H56345   8.816   5.754   4.626  0.4544  0.5630 -0.2242
  427MOL0     H56346   8.169   5.155   5.015  4.7575  4.8605 -2.5257
  427MOL0     H56347   7.935   5.116   5.036 -2.4737  0.4195  0.8163
  427MOL0     H56348   7.524   5.234   5.131 -0.1342 -1.9993 -0.0636
  427MOL0     H56349   7.269   5.202   5.131  0.9612  1.0716  0.9538
  427MOL0     H56350   5.869   4.327   4.301  1.7822  0.3271 -1.9810
  427MOL0     H56351   5.649   4.276   4.264  0.3898 -0.9230 -1.1920
  427MOL0     H56352   5.321   4.373   3.958 -1.7550 -0.8908 -1.1233
  427MOL0     H56353   5.086   4.405   3.864 -3.0730 -0.5012  0.0254
  427MOL0     H56354   4.801   4.481   4.101  1.7679 -0.6341  0.6565
  427MOL0     H56355   4.691   4.351   4.080 -0.4339  2.1141  0.5117
  427MOL0     H56356   4.567   4.497   3.970 -0.4653 -1.7921  1.6722
  427MOL0     H56357   4.707   4.580   3.903 -0.5643 -0.1115 -0.7503
  427MOL0     H56358   4.607   4.320   3.795 -0.6336 -0.3547 -1.4329
  427MOL0     H56359   4.747   4.388   3.743 -1.2825 -1.0745 -1.3883
  427MOL0     H56360   4.597   4.598   3.690  0.5958 -0.2374  1.7420
  427MOL0     H56361   4.557   4.463   3.600  0.0869  0.8734 -0.7372
  427MOL0     H56362   4.206   4.534   3.850  0.6675  0.6655 -0.6998
  427MOL0     H56363   4.926   4.282   4.230  0.8442 -0.0439 -0.2721
  427MOL0     H56364   5.157   4.270   4.328  0.5112 -1.3880 -0.6684
  428MOL0     O56365   5.911   8.313   1.164 -0.2305  0.0754 -0.3903
  428MOL0     C56366   5.961   8.330   1.055 -0.1990  0.0018 -0.4972
  428MOL0     O56367   5.900   8.313   0.931  0.3274  0.1866 -0.0656
  428MOL0     C56368   5.768   8.279   0.926  0.1946  0.3994 -0.2745
  428MOL0     C56369   5.714   8.166   0.982 -0.1493 -0.4885  0.4844
  428MOL0     C56370   5.582   8.153   0.978 -0.3062 -0.4244  0.1287
  428MOL0     C56371   5.494   8.243   0.915 -0.3108  0.4005  0.2441
  428MOL0     O56372   5.362   8.247   0.924  0.5619  0.0724 -0.4610
  428MOL0     C56373   5.286   8.149   0.993  0.1418  1.0628  0.8104
  428MOL0     C56374   5.140   8.174   0.990  0.3300  0.3366 -0.2836
  428MOL0     C56375   5.098   8.287   1.074  0.1341 -0.3847 -0.0780
  428MOL0     C56376   4.946   8.301   1.052 -0.3064  0.2383  0.2397
  428MOL0     C56377   4.875   8.403   1.154 -1.1549  0.3274  0.2848
  428MOL0     C56378   4.854   8.349   1.294 -0.1152 -0.1133 -0.2466
  428MOL0     C56379   4.775   8.455   1.374 -0.0312  0.1634  0.9867
  428MOL0     C56380   4.729   8.412   1.517  0.4119  0.0573 -0.1506
  428MOL0     N56381   4.620   8.314   1.511  0.6995  0.1692 -0.4878
  428MOL0     C56382   4.629   8.183   1.561  0.4656 -1.1721  0.5021
  428MOL0     C56383   4.514   8.126   1.535 -0.8379  0.8867 -0.1188
  428MOL0     C56384   4.480   7.992   1.593  0.2344 -0.8916  0.0526
  428MOL0     C56385   4.452   7.900   1.482  0.0716  0.7185 -0.9738
  428MOL0     C56386   4.416   7.764   1.545 -0.1890  0.3798  0.2718
  428MOL0     C56387   4.417   7.644   1.434 -0.5407 -0.7413  0.6042
  428MOL0     O56388   4.400   7.520   1.500  0.3220 -0.0796  0.1427
  428MOL0     C56389   4.271   7.473   1.514 -0.8185 -0.2733  0.1678
  428MOL0     C56390   4.153   7.543   1.485 -1.2524 -0.0919 -0.3403
  428MOL0     C56391   4.026   7.489   1.513  0.7887 -0.4302  0.1064
  428MOL0     C56392   4.023   7.361   1.571 -0.0986 -0.0624  0.3266
  428MOL0     C56393   3.900   7.312   1.611  0.0499  0.0870  0.7908
  428MOL0     O56394   3.799   7.318   1.512 -0.3859  0.1424  0.6518
  428MOL0     C56395   3.674   7.306   1.564 -0.3837  0.6127 -0.3498
  428MOL0     C56396   3.619   7.405   1.637  0.4589 -0.4872  0.0255
  428MOL0     C56397   3.485   7.395   1.680 -0.3299  0.0647 -0.3253
  428MOL0     C56398   3.405   7.285   1.641 -0.5847 -0.6090  0.9556
  428MOL0     O56399   3.275   7.255   1.667  0.4992 -0.7878  0.4460
  428MOL0     C56400   3.206   7.362   1.732  0.0800 -0.3423 -0.2959
  428MOL0     C56401   3.060   7.306   1.747 -0.4543 -0.1592  0.9585
  428MOL0     C56402   2.968   7.410   1.800 -0.1225 -0.5411  0.1049
  428MOL0     C56403   2.821   7.378   1.791  0.2621 -0.1438  0.5509
  428MOL0     C56404   2.789   7.259   1.887  0.4672  0.2970  0.1794
  428MOL0     C56405   2.637   7.229   1.877  0.4518 -0.5272  0.0157
  428MOL0     C56406   2.580   7.100   1.945  0.5431  0.0218 -0.0694
  428MOL0     C56407   2.435   7.085   1.892 -0.1523  0.2488 -0.6638
  428MOL0    Cl56408   2.344   7.219   1.972  0.5325  0.1848  0.3893
  428MOL0     C56409   3.466   7.188   1.567 -0.4704  0.9743 -0.0872
  428MOL0     C56410   3.603   7.192   1.537  0.9289  0.0650 -0.6362
  428MOL0     O56411   3.883   7.267   1.723 -0.0626 -0.1103 -0.4591
  428MOL0     C56412   4.143   7.285   1.595  0.1631  0.4706  0.0482
  428MOL0     C56413   4.262   7.346   1.561 -0.0440  0.1828 -0.1966
  428MOL0     N56414   4.428   8.217   1.480  0.3611 -0.2387 -0.4172
  428MOL0     N56415   4.499   8.321   1.455 -0.2361  0.3976  0.0060
  428MOL0     C56416   5.559   8.353   0.846  0.8935 -0.3875  0.4837
  428MOL0     C56417   5.690   8.366   0.849 -0.3635  0.3391  0.8502
  428MOL0     C56418   6.099   8.377   1.043 -0.7815  0.1092 -0.4334
  428MOL0     C56419   6.176   8.391   1.150 -0.6308 -0.7598 -0.7072
  428MOL0     C56420   6.308   8.432   1.161  0.2795 -0.2306  0.4839
  428MOL0     C56421   6.375   8.448   1.034 -0.1682 -0.5666  0.1343
  428MOL0     O56422   6.506   8.487   1.014 -0.0820  0.0029 -0.7260
  428MOL0     C56423   6.583   8.547   1.117  0.6029 -0.3243  0.6037
  428MOL0     C56424   6.689   8.640   1.073 -0.2282 -1.0867  0.3719
  428MOL0     C56425   6.654   8.764   0.992 -0.3485  0.2331 -0.6715
  428MOL0     C56426   6.564   8.871   1.055  0.0239  1.0199 -0.3162
  428MOL0     C56427   6.427   8.818   1.048  0.1286  0.1851  0.1435
  428MOL0     C56428   6.314   8.767   1.047  0.0966  0.0941  0.7833
  428MOL0     C56429   6.297   8.434   0.919 -1.3800 -0.3487  0.4140
  428MOL0     C56430   6.160   8.399   0.922 -0.5627 -0.6350 -0.5468
  428MOL0     H56431   5.777   8.088   1.023 -2.1800 -3.1472 -1.1502
  428MOL0     H56432   5.538   8.063   1.021  1.4439  0.5405  4.4407
  428MOL0     H56433   5.317   8.138   1.097  1.5343  0.7946  0.3949
  428MOL0     H56434   5.310   8.053   0.945  0.5698  0.9220  1.2964
  428MOL0     H56435   5.082   8.086   1.018 -0.3943  0.2694 -1.8753
  428MOL0     H56436   5.120   8.201   0.886 -0.4794 -3.2996 -1.2188
  428MOL0     H56437   5.155   8.373   1.039  1.2860 -1.9210 -2.1856
  428MOL0     H56438   5.111   8.259   1.179 -0.9109 -0.0612  0.1427
  428MOL0     H56439   4.930   8.318   0.945  1.6876 -2.5080 -0.5892
  428MOL0     H56440   4.901   8.203   1.070  1.5863 -0.5284  1.0652
  428MOL0     H56441   4.785   8.421   1.094  0.2664  2.0758 -1.4236
  428MOL0     H56442   4.935   8.494   1.157 -0.2149 -0.1170 -2.4203
  428MOL0     H56443   4.955   8.348   1.336 -0.2828  0.4726  0.1667
  428MOL0     H56444   4.802   8.252   1.297  0.9124 -0.7918 -2.2777
  428MOL0     H56445   4.822   8.554   1.373  0.7051 -0.0891 -2.4678
  428MOL0     H56446   4.681   8.477   1.323 -2.2752 -1.4472  4.1221
  428MOL0     H56447   4.706   8.509   1.562  2.5927  0.4766  0.1705
  428MOL0     H56448   4.804   8.364   1.581  0.1829 -1.9699 -1.3137
  428MOL0     H56449   4.717   8.142   1.611  2.4296  1.3916 -0.6407
  428MOL0     H56450   4.397   8.010   1.662 -1.1202 -0.3578 -1.6431
  428MOL0     H56451   4.573   7.955   1.637  1.2715 -2.0695 -2.8931
  428MOL0     H56452   4.543   7.897   1.421 -0.6046  0.4596 -1.9967
  428MOL0     H56453   4.371   7.944   1.422 -0.3616 -1.7604 -2.3232
  428MOL0     H56454   4.492   7.742   1.620 -2.0869 -0.3378  2.0585
  428MOL0     H56455   4.323   7.761   1.602 -0.9442 -0.0624 -0.9343
  428MOL0     H56456   4.513   7.627   1.384 -1.8740 -3.1196 -1.3645
  428MOL0     H56457   4.344   7.664   1.355 -0.3426 -1.8392  0.1280
  428MOL0     H56458   4.164   7.640   1.438 -0.3787 -0.5976 -1.2150
  428MOL0     H56459   3.931   7.538   1.491 -0.0157 -0.6752  2.6621
  428MOL0     H56460   3.677   7.494   1.660  2.1792 -1.2138 -1.2836
  428MOL0     H56461   3.447   7.476   1.740  1.8838 -0.8757  2.5987
  428MOL0     H56462   3.208   7.450   1.667 -0.1481 -0.7613 -0.8763
  428MOL0     H56463   3.254   7.389   1.827  0.6046  0.8406 -0.8795
  428MOL0     H56464   3.058   7.210   1.799  0.3460  0.0195  1.3328
  428MOL0     H56465   3.040   7.278   1.643  2.8989  1.6090 -0.3334
  428MOL0     H56466   2.988   7.488   1.727 -0.9209 -2.2838 -2.0879
  428MOL0     H56467   3.002   7.436   1.901  1.3125  1.1879 -0.7605
  428MOL0     H56468   2.761   7.465   1.816  0.1926  0.7468 -2.3702
  428MOL0     H56469   2.795   7.348   1.689  2.9281 -0.4951 -0.0963
  428MOL0     H56470   2.825   7.288   1.987  1.7992  1.1155 -0.5097
  428MOL0     H56471   2.842   7.167   1.859  1.6506  0.7999  0.6880
  428MOL0     H56472   2.614   7.231   1.770 -1.7780 -1.7747  0.4159
  428MOL0     H56473   2.583   7.314   1.919  0.4973  0.3843 -1.6871
  428MOL0     H56474   2.642   7.015   1.912 -2.1710 -2.3944  0.6276
  428MOL0     H56475   2.577   7.108   2.054  2.6792 -1.2734  0.1507
  428MOL0     H56476   2.399   6.987   1.922  3.4934 -0.9008  0.5901
  428MOL0     H56477   2.443   7.087   1.783 -2.8670 -0.5828 -0.9474
  428MOL0     H56478   3.408   7.101   1.538  0.1502  0.3334  0.5682
  428MOL0     H56479   3.648   7.107   1.486 -0.5865 -0.5512 -1.0076
  428MOL0     H56480   4.132   7.182   1.627 -2.6947  0.8420  0.4869
  428MOL0     H56481   4.357   7.298   1.585  0.4309  1.8508  1.5110
  428MOL0     H56482   5.503   8.428   0.793  0.3809 -0.6515  0.6468
  428MOL0     H56483   5.744   8.454   0.814 -1.9909  2.4153  3.1512
  428MOL0     H56484   6.134   8.386   1.250  0.0856  2.0745 -0.1911
  428MOL0     H56485   6.363   8.460   1.251  2.8733 -2.1234 -0.4016
  428MOL0     H56486   6.636   8.476   1.182  0.9533 -3.6776 -3.0235
  428MOL0     H56487   6.516   8.610   1.177  0.7018 -0.6419  1.0527
  428MOL0     H56488   6.732   8.683   1.164  0.4629  0.8826 -0.8119
  428MOL0     H56489   6.771   8.584   1.029  0.9197  0.1822  0.8256
  428MOL0     H56490   6.605   8.751   0.895 -2.6704  1.9236  0.1831
  428MOL0     H56491   6.748   8.803   0.954 -0.1440 -1.3315 -1.8587
  428MOL0     H56492   6.592   8.891   1.159 -0.1176  2.6573 -0.5661
  428MOL0     H56493   6.576   8.965   1.000 -1.3577 -0.4119 -3.2540
  428MOL0     H56494   6.214   8.731   1.057  0.1213 -0.9708 -1.8913
  428MOL0     H56495   6.337   8.440   0.818 -0.4736 -2.9381  0.5368
  428MOL0     H56496   6.112   8.397   0.824 -0.6500 -1.0745 -0.4990
  429MOL0     O56497   8.752   2.315   6.023 -0.3954 -0.4814  0.4525
  429MOL0     C56498   8.694   2.307   6.129 -0.6290  1.4478 -0.1057
  429MOL0     O56499   8.748   2.270   6.249 -0.1591  0.2045 -0.3113
  429MOL0     C56500   8.873   2.214   6.266  1.1313 -0.5239  0.7602
  429MOL0     C56501   8.950   2.268   6.370 -0.4859 -0.2082  0.3529
  429MOL0     C56502   9.088   2.226   6.382 -0.1541  0.1595 -0.1109
  429MOL0     C56503   9.141   2.120   6.313 -0.2979 -0.5309  0.3186
  429MOL0     O56504   9.272   2.074   6.331  0.8430 -0.1370 -0.4274
  429MOL0     C56505   9.329   2.066   6.459  0.6877 -0.2745  0.5699
  429MOL0     C56506   9.434   1.962   6.465 -0.7703 -0.1349  0.5423
  429MOL0     C56507   9.450   1.933   6.614 -0.0274 -0.7743 -0.6800
  429MOL0     C56508   9.558   1.831   6.639 -0.1851  0.4168  0.0733
  429MOL0     C56509   9.697   1.878   6.591  0.1767 -0.0383  0.7465
  429MOL0     C56510   9.734   2.003   6.666 -0.1830  0.1390 -0.8108
  429MOL0     C56511   9.883   2.021   6.694  0.3258 -0.0634 -0.1850
  429MOL0     C56512   9.952   2.075   6.569  0.3647 -0.1575 -0.2938
  429MOL0     N56513   9.911   2.209   6.523 -0.5193 -0.0994  0.0099
  429MOL0     C56514   9.827   2.247   6.428 -0.4403 -0.0774  0.6939
  429MOL0     C56515   9.830   2.382   6.418  0.1676 -0.0311 -0.2397
  429MOL0     C56516   9.763   2.463   6.324 -0.9451 -0.7986 -0.7139
  429MOL0     C56517   9.632   2.525   6.372 -0.7612  0.0209  0.0663
  429MOL0     C56518   9.527   2.413   6.410 -0.7294  0.5927  0.1531
  429MOL0     C56519   9.397   2.474   6.457  0.3531  0.2395  0.3752
  429MOL0     O56520   9.324   2.524   6.341  0.2348  1.2393  0.3265
  429MOL0     C56521   9.189   2.551   6.333 -0.2894  0.9075 -0.8411
  429MOL0     C56522   9.116   2.536   6.213  0.1903 -0.4274 -0.4049
  429MOL0     C56523   8.979   2.553   6.216  0.1664 -0.2469  0.1834
  429MOL0     C56524   8.906   2.588   6.334 -0.0756  0.2697  0.1638
  429MOL0     C56525   8.767   2.623   6.317  0.1656  0.3317 -1.3250
  429MOL0     O56526   8.707   2.634   6.433  0.2087 -0.3405 -0.0038
  429MOL0     C56527   8.584   2.689   6.434 -0.7871  0.0452  0.4000
  429MOL0     C56528   8.558   2.818   6.391 -0.5281  0.0894  0.0789
  429MOL0     C56529   8.428   2.868   6.413 -0.5897  0.0413 -0.0808
  429MOL0     C56530   8.328   2.800   6.469  0.6588  0.8132 -0.0488
  429MOL0     O56531   8.212   2.866   6.486 -0.4641  0.1960  0.7372
  429MOL0     C56532   8.096   2.772   6.487  1.4640 -0.5563  0.6568
  429MOL0     C56533   7.972   2.864   6.474 -0.0018  0.1044 -0.6112
  429MOL0     C56534   7.850   2.802   6.550 -0.3215 -0.0903  0.4210
  429MOL0     C56535   7.727   2.894   6.551 -0.3340 -0.8869 -0.1799
  429MOL0     C56536   7.602   2.808   6.554  0.4571  0.5367 -0.0884
  429MOL0     C56537   7.483   2.885   6.604 -0.2401  0.2693  0.3627
  429MOL0     C56538   7.359   2.807   6.654 -0.2600 -0.0379  0.0886
  429MOL0     C56539   7.265   2.744   6.555 -0.2701  0.5795  0.3245
  429MOL0    Cl56540   7.211   2.861   6.443  0.1465  0.2296  0.1156
  429MOL0     C56541   8.355   2.666   6.507 -0.4499 -0.0984  0.1350
  429MOL0     C56542   8.485   2.611   6.491 -0.2242 -0.1693 -0.9382
  429MOL0     O56543   8.717   2.623   6.205  0.4212 -0.4873 -0.0913
  429MOL0     C56544   8.983   2.614   6.446 -0.0703 -0.2361  1.2916
  429MOL0     C56545   9.122   2.590   6.450  0.3798 -0.6998 -0.1289
  429MOL0     N56546   9.915   2.427   6.513 -0.3178 -0.0053 -0.4863
  429MOL0     N56547   9.964   2.328   6.572  0.8889 -0.1076 -0.3061
  429MOL0     C56548   9.065   2.080   6.200  0.0317  0.1055 -0.7654
  429MOL0     C56549   8.935   2.128   6.178  0.3478 -0.5384  0.6213
  429MOL0     C56550   8.545   2.336   6.133 -0.7897 -0.1726  0.6735
  429MOL0     C56551   8.482   2.353   6.014  0.2621 -0.4639 -0.3949
  429MOL0     C56552   8.348   2.369   5.999  0.6941  0.9227  0.7330
  429MOL0     C56553   8.270   2.379   6.117  0.6509 -0.3948 -0.3596
  429MOL0     O56554   8.130   2.390   6.125  0.0018 -0.4276 -0.0394
  429MOL0     C56555   8.062   2.390   5.998  0.3444 -0.3174 -0.3521
  429MOL0     C56556   7.910   2.387   6.008  0.3505 -0.6882 -0.2407
  429MOL0     C56557   7.855   2.244   6.033 -0.1386  0.7418  0.6728
  429MOL0     C56558   7.707   2.220   6.048 -0.1105 -0.0679 -0.7389
  429MOL0     C56559   7.651   2.291   6.166 -0.6974 -0.4343 -0.3847
  429MOL0     C56560   7.613   2.344   6.269 -0.1334  0.2796 -0.1484
  429MOL0     C56561   8.331   2.366   6.245 -0.9008 -0.6725 -0.2765
  429MOL0     C56562   8.475   2.342   6.254  0.3843  0.3820  0.0732
  429MOL0     H56563   8.901   2.347   6.426 -1.9138  0.5661 -1.8653
  429MOL0     H56564   9.152   2.277   6.452 -1.5365  1.7439  0.0731
  429MOL0     H56565   9.248   2.050   6.531  0.6688 -1.7090  0.2490
  429MOL0     H56566   9.381   2.159   6.483  2.8350 -0.9813 -1.0501
  429MOL0     H56567   9.520   1.999   6.409 -1.1668 -0.4793 -0.3122
  429MOL0     H56568   9.403   1.870   6.414  2.2349  0.6858 -3.2125
  429MOL0     H56569   9.361   1.891   6.662  1.4381 -0.1041  2.9505
  429MOL0     H56570   9.470   2.028   6.665  0.7501  0.0887 -2.4932
  429MOL0     H56571   9.558   1.791   6.741  0.5173 -0.0453 -0.0966
  429MOL0     H56572   9.525   1.747   6.577 -1.0305  1.3909 -0.8172
  429MOL0     H56573   9.701   1.899   6.484  2.4870 -2.2835  0.2626
  429MOL0     H56574   9.772   1.799   6.603  0.8032  0.2687 -0.9056
  429MOL0     H56575   9.675   1.996   6.758  0.6078 -0.6415 -0.3485
  429MOL0     H56576   9.700   2.092   6.612 -2.7744  0.0374  0.4700
  429MOL0     H56577   9.902   2.090   6.777 -0.6299 -1.2310  1.0386
  429MOL0     H56578   9.924   1.924   6.726  0.9384 -0.1865 -1.3026
  429MOL0     H56579   9.941   2.004   6.487  0.4505  1.3882 -1.6972
  429MOL0     H56580  10.058   2.084   6.592  0.2663 -0.6095  0.3721
  429MOL0     H56581   9.775   2.183   6.358 -3.6582  1.7637  1.2211
  429MOL0     H56582   9.731   2.395   6.245 -0.5081 -1.0736 -0.6572
  429MOL0     H56583   9.832   2.542   6.292 -0.0686 -0.9737  0.6643
  429MOL0     H56584   9.594   2.586   6.289 -0.5099  1.4782  0.9869
  429MOL0     H56585   9.658   2.590   6.456  1.1223  0.8870 -1.1414
  429MOL0     H56586   9.508   2.350   6.323 -0.7543  1.1849 -0.2755
  429MOL0     H56587   9.569   2.348   6.488 -1.3279  1.8644  1.5864
  429MOL0     H56588   9.406   2.546   6.539 -1.0808 -1.8774  2.5408
  429MOL0     H56589   9.331   2.402   6.506 -2.1305  2.1065 -0.0425
  429MOL0     H56590   9.169   2.496   6.127  2.1370 -1.1768  1.0747
  429MOL0     H56591   8.920   2.542   6.126 -2.6230  2.6057  1.5014
  429MOL0     H56592   8.635   2.888   6.359 -1.5683  3.0214  3.2866
  429MOL0     H56593   8.409   2.972   6.387 -1.3368  0.0225  0.3633
  429MOL0     H56594   8.103   2.710   6.576  3.1351 -3.1147 -1.1011
  429MOL0     H56595   8.094   2.697   6.408 -1.5923 -0.4287  0.4907
  429MOL0     H56596   7.944   2.882   6.370 -4.0551 -1.6493 -0.0408
  429MOL0     H56597   7.980   2.950   6.540 -2.2596 -1.9727  2.7167
  429MOL0     H56598   7.871   2.773   6.653 -1.4722 -0.2036  0.6335
  429MOL0     H56599   7.834   2.714   6.486 -0.5130  1.7645 -2.2717
  429MOL0     H56600   7.737   2.960   6.638 -0.2381 -0.9477 -0.1433
  429MOL0     H56601   7.729   2.963   6.466 -4.3753 -0.8358 -0.3851
  429MOL0     H56602   7.630   2.724   6.619  3.3124 -0.1578 -2.0322
  429MOL0     H56603   7.596   2.778   6.449  2.0109 -0.2131  0.0102
  429MOL0     H56604   7.454   2.946   6.518 -0.4856 -0.4555 -0.0690
  429MOL0     H56605   7.511   2.955   6.683  1.5482  0.9431 -0.8129
  429MOL0     H56606   7.394   2.731   6.725 -1.9362 -1.3215 -0.4108
  429MOL0     H56607   7.304   2.877   6.717  1.7168 -0.6464  2.6819
  429MOL0     H56608   7.169   2.718   6.599 -1.1857 -0.0010 -1.8989
  429MOL0     H56609   7.316   2.659   6.510 -0.9289  0.8794 -1.0269
  429MOL0     H56610   8.276   2.608   6.553 -2.8735  1.1703 -2.1456
  429MOL0     H56611   8.500   2.507   6.516 -0.4192  0.0022 -0.0943
  429MOL0     H56612   8.935   2.647   6.537 -1.6682 -2.2012  1.2257
  429MOL0     H56613   9.176   2.589   6.544  0.8649 -1.4869 -0.4005
  429MOL0     H56614   9.103   2.000   6.137 -0.8292 -0.3122 -0.7593
  429MOL0     H56615   8.885   2.088   6.091 -1.8350 -0.6159  1.8373
  429MOL0     H56616   8.546   2.344   5.927  1.3889 -1.6701  0.5271
  429MOL0     H56617   8.314   2.382   5.897  2.5413  0.2264 -0.0218
  429MOL0     H56618   8.096   2.307   5.935  2.5793  0.3498 -0.0899
  429MOL0     H56619   8.107   2.481   5.957  2.2071 -1.7686 -1.7044
  429MOL0     H56620   7.879   2.451   6.091 -2.4189 -0.5121 -1.3281
  429MOL0     H56621   7.857   2.434   5.926  0.6144  1.7783  0.9083
  429MOL0     H56622   7.897   2.215   6.130  2.3826 -0.5605 -0.7086
  429MOL0     H56623   7.900   2.171   5.966 -0.4737  1.9307 -0.9078
  429MOL0     H56624   7.656   2.249   5.956 -1.3579  0.2069  0.0203
  429MOL0     H56625   7.689   2.113   6.062  2.7614 -0.3078  2.6020
  429MOL0     H56626   7.588   2.410   6.349 -0.4230 -2.7894  2.4902
  429MOL0     H56627   8.268   2.389   6.330 -1.1770  0.2884 -0.7307
  429MOL0     H56628   8.531   2.323   6.345  1.5623  1.5340 -0.3806
  430MOL0     O56629   3.538   0.740   7.337  0.7972  0.8014  1.2511
  430MOL0     C56630   3.548   0.693   7.447 -0.9692 -0.1936  0.2570
  430MOL0     O56631   3.480   0.741   7.552  0.1470  0.1275  0.1238
  430MOL0     C56632   3.357   0.806   7.547 -0.1927 -0.0229 -0.2302
  430MOL0     C56633   3.258   0.777   7.449 -1.4309 -0.2908 -0.7752
  430MOL0     C56634   3.134   0.839   7.467  0.3853 -0.4202 -0.7643
  430MOL0     C56635   3.113   0.924   7.571 -0.0607 -0.2875 -0.1475
  430MOL0     O56636   2.995   0.994   7.565  0.0569 -0.1908  0.6999
  430MOL0     C56637   2.996   1.131   7.622  0.4102  0.1274 -1.0993
  430MOL0     C56638   2.885   1.223   7.573 -0.9211  0.5279 -0.1446
  430MOL0     C56639   2.872   1.349   7.657 -0.2147 -1.3158  0.3303
  430MOL0     C56640   2.788   1.450   7.575  0.1044 -0.0006  1.3332
  430MOL0     C56641   2.650   1.415   7.517 -0.2491 -0.7563 -0.0288
  430MOL0     C56642   2.576   1.528   7.431  0.0372 -0.3413  0.1800
  430MOL0     C56643   2.440   1.466   7.391  0.2483 -0.2006  0.0147
  430MOL0     C56644   2.366   1.578   7.314 -0.5703 -0.1117 -0.2646
  430MOL0     N56645   2.283   1.653   7.409 -0.9974 -0.5885  0.0599
  430MOL0     C56646   2.318   1.779   7.461 -0.3761 -0.1270  0.4559
  430MOL0     C56647   2.218   1.819   7.533  0.2327 -0.4933 -0.1155
  430MOL0     C56648   2.208   1.953   7.598  0.1246 -0.5544 -0.6184
  430MOL0     C56649   2.187   1.935   7.749  0.4376  0.8392  0.2167
  430MOL0     C56650   2.039   1.957   7.786 -0.0054 -0.0057  0.1676
  430MOL0     C56651   2.022   1.942   7.932  0.1655  0.7910  0.4913
  430MOL0     O56652   1.911   2.004   7.992  0.4138 -0.2557  0.1904
  430MOL0     C56653   1.779   1.965   7.972  0.1477  0.9938  0.2999
  430MOL0     C56654   1.740   1.838   7.909  0.2110 -0.5390  0.1152
  430MOL0     C56655   1.605   1.813   7.887 -1.2021  0.0244 -0.1652
  430MOL0     C56656   1.497   1.905   7.928 -0.4832  0.5819  0.5840
  430MOL0     C56657   1.353   1.879   7.895 -0.0462  0.6659  0.3550
  430MOL0     O56658   1.270   1.979   7.940  0.1202 -0.1196  0.3888
  430MOL0     C56659   1.135   1.949   7.932 -0.3303 -0.0681 -1.2788
  430MOL0     C56660   1.072   1.910   7.817 -0.1733  0.2242  0.6825
  430MOL0     C56661   0.934   1.902   7.818 -0.5045 -0.3324  0.0293
  430MOL0     C56662   0.859   1.917   7.937 -0.3568 -0.1765  0.1730
  430MOL0     O56663   0.725   1.891   7.960  0.4124  0.3138  0.7067
  430MOL0     C56664   0.651   1.825   7.855 -0.2396 -0.1083 -0.4563
  430MOL0     C56665   0.516   1.825   7.908  0.6796  0.1212 -0.1899
  430MOL0     C56666   0.411   1.794   7.804  0.1306  0.4868 -0.3281
  430MOL0     C56667   0.259   1.798   7.851 -0.2539  0.0797  0.1420
  430MOL0     C56668   0.222   1.697   7.964 -0.3990 -0.3358  0.2307
  430MOL0     C56669   0.080   1.651   7.966  0.2325 -0.2434 -0.4468
  430MOL0     C56670   0.072   1.511   8.031 -0.9561 -0.5090  0.0170
  430MOL0     C56671  -0.034   1.514   8.147 -0.4510  0.1404  0.5819
  430MOL0    Cl56672  -0.190   1.478   8.054 -0.1583 -0.2877 -0.5935
  430MOL0     C56673   0.925   1.955   8.050 -0.2618  0.1587 -0.0019
  430MOL0     C56674   1.070   1.962   8.056  0.8482 -0.1319  0.1460
  430MOL0     O56675   1.319   1.766   7.844  0.4243  0.4940 -0.5631
  430MOL0     C56676   1.542   2.023   7.993  0.2447 -0.1174  0.2042
  430MOL0     C56677   1.679   2.046   8.023  0.7178 -0.7544  1.2710
  430MOL0     N56678   2.114   1.732   7.531  0.3824 -0.0913 -0.5766
  430MOL0     N56679   2.151   1.634   7.453 -0.1111  0.2174  0.6188
  430MOL0     C56680   3.213   0.947   7.668  0.5399 -0.5875 -0.4402
  430MOL0     C56681   3.333   0.893   7.652 -0.4253  0.2435 -0.8951
  430MOL0     C56682   3.663   0.604   7.475  0.0480  0.2188 -1.1094
  430MOL0     C56683   3.737   0.550   7.368  0.0068  0.8100 -0.4114
  430MOL0     C56684   3.841   0.470   7.396  0.4784  0.2644  0.7184
  430MOL0     C56685   3.872   0.422   7.523 -0.6016 -0.6816 -0.2838
  430MOL0     O56686   3.975   0.334   7.562 -0.0586 -0.1247 -0.1827
  430MOL0     C56687   4.059   0.293   7.456  0.3012  0.6257  0.4864
  430MOL0     C56688   4.139   0.176   7.512 -0.4493  0.0484  1.5006
  430MOL0     C56689   4.251   0.219   7.601 -0.7402  0.6172  0.0808
  430MOL0     C56690   4.328   0.108   7.661 -0.2326  1.2319 -0.6387
  430MOL0     C56691   4.404   0.147   7.778  0.4349 -0.6865 -0.2106
  430MOL0     C56692   4.476   0.184   7.862 -0.3070 -0.2556  0.8993
  430MOL0     C56693   3.799   0.476   7.627  0.0537  0.2296 -0.1331
  430MOL0     C56694   3.697   0.569   7.606  0.8902 -0.2482  0.3295
  430MOL0     H56695   3.291   0.722   7.361  1.7850  0.4001 -0.1310
  430MOL0     H56696   3.064   0.817   7.387  0.1463 -0.7134 -0.4805
  430MOL0     H56697   3.081   1.188   7.583 -0.8136  2.1170 -1.0295
  430MOL0     H56698   2.995   1.125   7.731 -0.5491 -3.1436 -1.1887
  430MOL0     H56699   2.785   1.177   7.573 -0.8134  0.1811  2.3877
  430MOL0     H56700   2.896   1.247   7.466 -0.4824 -1.6838 -0.6540
  430MOL0     H56701   2.969   1.393   7.678 -0.3690 -1.3310  1.1272
  430MOL0     H56702   2.822   1.325   7.752 -0.3687  0.3471  0.6916
  430MOL0     H56703   2.765   1.535   7.640  2.0301  0.5966  1.2885
  430MOL0     H56704   2.850   1.495   7.496 -1.4112 -0.1216  0.0285
  430MOL0     H56705   2.587   1.393   7.603 -3.1491  0.1881 -1.7817
  430MOL0     H56706   2.650   1.323   7.458  1.6199 -0.3803 -0.6858
  430MOL0     H56707   2.633   1.541   7.339  1.7481  0.8154  1.3534
  430MOL0     H56708   2.559   1.625   7.479 -0.1951  0.3246 -1.2128
  430MOL0     H56709   2.456   1.372   7.339 -0.6603 -0.9241  1.0004
  430MOL0     H56710   2.375   1.447   7.476 -0.7459 -1.9961 -1.0841
  430MOL0     H56711   2.297   1.526   7.247 -0.3130 -0.1088 -0.5323
  430MOL0     H56712   2.433   1.642   7.255  1.4113 -0.5642  1.3696
  430MOL0     H56713   2.412   1.830   7.445 -0.9889  0.5087 -1.3595
  430MOL0     H56714   2.132   2.014   7.548  0.9785  1.1594  0.0978
  430MOL0     H56715   2.305   2.001   7.594 -0.2446  0.0856 -2.9455
  430MOL0     H56716   2.244   2.015   7.798  2.1781  0.5355 -1.1960
  430MOL0     H56717   2.213   1.832   7.777 -1.7932  0.3296  0.6456
  430MOL0     H56718   2.002   2.054   7.753  1.2928  0.7817  0.9363
  430MOL0     H56719   1.983   1.877   7.737 -2.8055  2.8868 -1.6819
  430MOL0     H56720   2.111   1.983   7.980  2.5587 -0.0468 -2.8860
  430MOL0     H56721   2.019   1.834   7.944 -0.8930  0.6952 -0.4042
  430MOL0     H56722   1.814   1.762   7.886 -0.2561 -0.3160 -2.4593
  430MOL0     H56723   1.573   1.718   7.845 -1.5790  0.7694 -1.6385
  430MOL0     H56724   1.123   1.900   7.722 -2.8921  0.4637 -0.9206
  430MOL0     H56725   0.882   1.861   7.732 -1.5259  1.3627 -0.2183
  430MOL0     H56726   0.695   1.728   7.828 -0.4391  0.1092 -1.6217
  430MOL0     H56727   0.646   1.889   7.767  0.1208  3.9828  2.2108
  430MOL0     H56728   0.493   1.929   7.935 -0.0397 -0.6475  2.5051
  430MOL0     H56729   0.508   1.761   7.996  1.0649  0.8997  0.4190
  430MOL0     H56730   0.434   1.692   7.773 -1.3158 -0.4538  1.4901
  430MOL0     H56731   0.420   1.853   7.713  0.5096  0.2481 -0.4471
  430MOL0     H56732   0.244   1.897   7.895  0.2733 -0.0467  0.6163
  430MOL0     H56733   0.195   1.782   7.763 -2.2910  3.1657  0.8786
  430MOL0     H56734   0.250   1.749   8.056 -0.8994  0.5698 -0.1175
  430MOL0     H56735   0.287   1.610   7.944 -1.8666 -0.8238 -3.2612
  430MOL0     H56736   0.051   1.651   7.861 -0.4882 -0.1169 -0.2568
  430MOL0     H56737   0.022   1.716   8.032  3.0096  1.7023  0.2740
  430MOL0     H56738   0.058   1.425   7.966  1.2081 -2.1777  1.6008
  430MOL0     H56739   0.166   1.495   8.085  0.1076 -1.2341 -1.9377
  430MOL0     H56740  -0.041   1.609   8.199  1.1697  0.3794  0.4204
  430MOL0     H56741  -0.019   1.435   8.221  0.1379  1.1093  1.5232
  430MOL0     H56742   0.872   1.932   8.142  0.4774 -0.3337  0.3089
  430MOL0     H56743   1.105   1.985   8.156 -0.8386  1.1311  0.4933
  430MOL0     H56744   1.469   2.090   8.037 -0.3233 -2.0066  2.2771
  430MOL0     H56745   1.701   2.127   8.093 -0.4229 -0.1421  0.9487
  430MOL0     H56746   3.192   1.003   7.759 -0.2224  0.8394 -1.4571
  430MOL0     H56747   3.401   0.905   7.736  0.3928  0.0900 -1.5337
  430MOL0     H56748   3.710   0.581   7.267  1.6525  1.7748 -0.5803
  430MOL0     H56749   3.906   0.454   7.310 -1.2440  1.1887 -0.8262
  430MOL0     H56750   4.128   0.364   7.409  0.8605  0.9689  1.7999
  430MOL0     H56751   3.994   0.252   7.378 -1.3983  0.5639  1.8800
  430MOL0     H56752   4.067   0.108   7.559 -0.5134  0.0263  1.3694
  430MOL0     H56753   4.174   0.125   7.422 -0.1007  1.8451  0.5720
  430MOL0     H56754   4.202   0.277   7.681  1.0703  0.4739  1.3493
  430MOL0     H56755   4.320   0.284   7.547  0.6439  0.1808  1.2508
  430MOL0     H56756   4.251   0.038   7.694  0.1839  1.2058  0.3306
  430MOL0     H56757   4.384   0.054   7.584 -1.3770 -0.3109 -0.4398
  430MOL0     H56758   4.540   0.231   7.934 -0.8047  2.1592 -0.1208
  430MOL0     H56759   3.814   0.440   7.728  2.5347 -0.5004 -0.7001
  430MOL0     H56760   3.629   0.614   7.677 -0.7043  2.6173 -2.7279
  431MOL0     O56761   6.926   5.186   7.421 -0.3734 -0.1797 -0.1980
  431MOL0     C56762   6.912   5.188   7.539  0.3015  0.1814 -0.4306
  431MOL0     O56763   7.018   5.181   7.634  0.3791  0.3728  0.4825
  431MOL0     C56764   7.142   5.162   7.577 -0.2877  0.0437 -0.2169
  431MOL0     C56765   7.247   5.233   7.621 -0.6596  0.4192  0.0265
  431MOL0     C56766   7.374   5.223   7.569  0.0571 -1.1402  0.5126
  431MOL0     C56767   7.406   5.127   7.473 -0.2595 -0.2029  0.0570
  431MOL0     O56768   7.529   5.097   7.409 -0.0608 -0.6358  0.0095
  431MOL0     C56769   7.642   5.188   7.429 -0.5583 -0.0146 -0.0057
  431MOL0     C56770   7.618   5.312   7.342 -0.0565 -0.6064 -0.0052
  431MOL0     C56771   7.617   5.276   7.195  0.3762 -0.2444  0.5040
  431MOL0     C56772   7.605   5.394   7.095  0.3151 -0.2737  0.9414
  431MOL0     C56773   7.604   5.339   6.945 -0.9490 -0.0117 -1.7176
  431MOL0     C56774   7.476   5.259   6.898 -0.1488  0.3174  0.6159
  431MOL0     C56775   7.333   5.330   6.890 -0.0809 -1.0010 -0.4405
  431MOL0     C56776   7.223   5.237   6.849  0.3912 -0.4208 -0.2469
  431MOL0     N56777   7.089   5.273   6.895 -0.1742  0.2530  0.0224
  431MOL0     C56778   7.041   5.267   7.021  0.4666  0.4297  0.7768
  431MOL0     C56779   6.909   5.275   7.011 -0.5163 -0.3960  0.4357
  431MOL0     C56780   6.812   5.238   7.116  0.4733  0.1171 -0.9068
  431MOL0     C56781   6.667   5.261   7.066 -0.2767 -0.7624 -0.1052
  431MOL0     C56782   6.569   5.254   7.178  0.6662 -0.0298  0.1780
  431MOL0     C56783   6.431   5.277   7.129  0.3794 -0.0747 -0.4647
  431MOL0     O56784   6.343   5.233   7.230  0.1922  0.6552 -0.0727
  431MOL0     C56785   6.211   5.270   7.209  0.4772 -0.4553 -0.0244
  431MOL0     C56786   6.125   5.264   7.317  0.4337 -0.4462  0.0411
  431MOL0     C56787   5.986   5.273   7.305 -0.3071  0.0284 -0.3203
  431MOL0     C56788   5.931   5.313   7.188  0.4875 -0.7171  0.0666
  431MOL0     C56789   5.781   5.330   7.175  0.3045 -0.7824 -0.7018
  431MOL0     O56790   5.709   5.301   7.288  0.4971  0.3468 -0.0951
  431MOL0     C56791   5.576   5.292   7.294  1.0582  0.3890 -0.0346
  431MOL0     C56792   5.518   5.283   7.428  0.6651 -0.1222  0.4876
  431MOL0     C56793   5.381   5.280   7.443 -0.3629  0.2775 -0.9257
  431MOL0     C56794   5.292   5.274   7.334 -0.2313  0.0696  0.1082
  431MOL0     O56795   5.157   5.282   7.357 -0.1959  0.0090  0.2787
  431MOL0     C56796   5.072   5.339   7.256 -1.0346 -0.8365 -0.7042
  431MOL0     C56797   4.932   5.381   7.308 -0.2183 -0.6525 -0.3994
  431MOL0     C56798   4.821   5.359   7.206  0.4125 -0.5419 -0.1643
  431MOL0     C56799   4.676   5.385   7.256  0.3898  1.2833 -0.0297
  431MOL0     C56800   4.587   5.425   7.140 -0.1903 -0.3696  1.0733
  431MOL0     C56801   4.445   5.438   7.189 -0.2624 -0.3892  0.6321
  431MOL0     C56802   4.365   5.321   7.227 -0.3390  0.0943  0.4495
  431MOL0     C56803   4.260   5.365   7.331  0.0744 -0.8988  0.1499
  431MOL0    Cl56804   4.138   5.474   7.246 -0.4803 -0.3090  0.6377
  431MOL0     C56805   5.339   5.268   7.199 -0.2417 -0.4097 -0.1891
  431MOL0     C56806   5.480   5.285   7.182  0.3163 -0.2614  0.2385
  431MOL0     O56807   5.739   5.369   7.069 -0.4634  0.0935  0.9181
  431MOL0     C56808   6.008   5.328   7.073  0.0032 -0.6966  0.5503
  431MOL0     C56809   6.144   5.306   7.083 -1.0566  0.6547 -0.0871
  431MOL0     N56810   6.879   5.292   6.877 -0.3680  0.9343 -0.1527
  431MOL0     N56811   6.986   5.284   6.806  0.4161 -0.1534  0.9850
  431MOL0     C56812   7.307   5.041   7.437  1.1496  0.5603 -0.0219
  431MOL0     C56813   7.177   5.058   7.482 -1.0635  0.8062 -0.2878
  431MOL0     C56814   6.770   5.184   7.585 -1.3445 -0.5885  0.6163
  431MOL0     C56815   6.734   5.242   7.706 -0.1402 -0.3081  0.6263
  431MOL0     C56816   6.594   5.265   7.729 -0.5909  1.7900  0.7324
  431MOL0     C56817   6.503   5.225   7.635  1.2500  0.5400  0.0026
  431MOL0     O56818   6.365   5.239   7.648  0.0977  0.0262  0.1318
  431MOL0     C56819   6.323   5.272   7.778  0.2116  0.1508 -0.3972
  431MOL0     C56820   6.166   5.291   7.788 -0.6732  1.1877 -0.0373
  431MOL0     C56821   6.084   5.181   7.737  0.2155  0.6576  0.0994
  431MOL0     C56822   5.929   5.200   7.761  0.0783  0.1659 -0.2812
  431MOL0     C56823   5.884   5.322   7.686  0.4146  0.4318  0.0091
  431MOL0     C56824   5.827   5.409   7.618 -0.7280  0.7130 -0.2251
  431MOL0     C56825   6.538   5.168   7.522 -0.1036 -0.9496 -0.4439
  431MOL0     C56826   6.670   5.153   7.493  0.6896 -0.4578  0.1525
  431MOL0     H56827   7.217   5.300   7.700 -0.2517  2.1286 -1.2236
  431MOL0     H56828   7.450   5.294   7.600 -1.7558  1.3251 -0.3381
  431MOL0     H56829   7.742   5.145   7.415  0.0737  0.4479  2.5237
  431MOL0     H56830   7.647   5.211   7.536  1.6549  2.1578 -0.4719
  431MOL0     H56831   7.699   5.380   7.365  1.1676 -1.7292 -0.8343
  431MOL0     H56832   7.522   5.360   7.365  1.3313  1.8734  0.9116
  431MOL0     H56833   7.541   5.198   7.182  0.3277 -0.2032  0.5376
  431MOL0     H56834   7.717   5.234   7.186  1.4106  1.6901  2.0517
  431MOL0     H56835   7.502   5.427   7.107 -0.0819 -1.3689  0.6413
  431MOL0     H56836   7.674   5.479   7.102  0.5895 -0.5659  1.8756
  431MOL0     H56837   7.702   5.290   6.940  1.3963  3.5829  2.5716
  431MOL0     H56838   7.598   5.423   6.876 -5.3714  1.5051  0.1482
  431MOL0     H56839   7.453   5.174   6.964 -0.3628  1.8067  2.5231
  431MOL0     H56840   7.495   5.217   6.799  1.2589 -1.8602  1.7213
  431MOL0     H56841   7.312   5.373   6.988 -2.7867  1.6627 -1.9913
  431MOL0     H56842   7.335   5.408   6.813  1.0846 -1.0804 -0.5090
  431MOL0     H56843   7.247   5.135   6.882  3.9163 -0.4470 -2.3986
  431MOL0     H56844   7.222   5.250   6.741 -0.6878  0.7386 -0.1134
  431MOL0     H56845   7.100   5.239   7.108 -2.8567 -0.9202  2.8033
  431MOL0     H56846   6.828   5.299   7.205  2.5484  0.9183 -1.7713
  431MOL0     H56847   6.801   5.136   7.153 -1.1908  0.6220  0.0585
  431MOL0     H56848   6.650   5.185   6.989  1.0639  1.3896 -2.7159
  431MOL0     H56849   6.655   5.356   7.012 -0.2003  0.5963  2.1369
  431MOL0     H56850   6.578   5.153   7.221  1.3654  1.8866  5.2119
  431MOL0     H56851   6.581   5.325   7.260 -1.4605 -0.3593  0.8394
  431MOL0     H56852   6.414   5.223   7.035  2.8511 -2.3580  0.2732
  431MOL0     H56853   6.411   5.384   7.120  0.3117  0.0032  0.4790
  431MOL0     H56854   6.173   5.246   7.412  2.5345  0.2870 -0.8418
  431MOL0     H56855   5.921   5.249   7.389 -0.2778 -1.7099 -0.7602
  431MOL0     H56856   5.579   5.283   7.518  1.5408 -2.1495 -0.0510
  431MOL0     H56857   5.349   5.278   7.547 -1.3859  0.0729 -1.2336
  431MOL0     H56858   5.071   5.276   7.167 -1.2691 -2.0591  0.1279
  431MOL0     H56859   5.119   5.432   7.226 -0.3459 -0.6519  0.8457
  431MOL0     H56860   4.935   5.488   7.332  2.2016 -0.0565 -2.9226
  431MOL0     H56861   4.912   5.334   7.405 -0.9920 -0.0660 -0.2655
  431MOL0     H56862   4.824   5.255   7.171 -2.6322 -0.9831  0.6005
  431MOL0     H56863   4.839   5.426   7.121 -0.3864  0.6215  0.5566
  431MOL0     H56864   4.633   5.296   7.303 -1.5163  2.4473  0.5319
  431MOL0     H56865   4.682   5.469   7.326  0.3525  1.0101  0.3067
  431MOL0     H56866   4.590   5.347   7.064  4.7702 -1.3740  1.9447
  431MOL0     H56867   4.614   5.523   7.099 -1.3847 -0.4325  0.0992
  431MOL0     H56868   4.391   5.480   7.104 -1.0921 -1.1940  0.7505
  431MOL0     H56869   4.444   5.514   7.268 -0.5203  0.9739 -0.6495
  431MOL0     H56870   4.326   5.268   7.139  1.6209 -2.5219  1.0354
  431MOL0     H56871   4.437   5.252   7.272 -0.3696 -1.2061 -1.3860
  431MOL0     H56872   4.306   5.426   7.410  0.1484 -1.9548  0.9389
  431MOL0     H56873   4.217   5.280   7.384  0.4404  0.7756  3.4000
  431MOL0     H56874   5.272   5.250   7.115 -2.4718 -3.9230  2.0911
  431MOL0     H56875   5.521   5.299   7.082 -0.2517  0.2830  0.0725
  431MOL0     H56876   5.958   5.346   6.978  0.3176 -0.1856  0.4767
  431MOL0     H56877   6.208   5.310   6.996  0.1894 -1.4882  0.6545
  431MOL0     H56878   7.323   4.969   7.358 -0.6169 -0.0196  0.1024
  431MOL0     H56879   7.102   4.989   7.444  3.2734 -1.8875 -5.3872
  431MOL0     H56880   6.812   5.265   7.777  0.7526 -1.1817 -0.0408
  431MOL0     H56881   6.566   5.305   7.826 -0.3927 -1.8362  2.4515
  431MOL0     H56882   6.367   5.369   7.805 -0.0414  0.5407 -1.3536
  431MOL0     H56883   6.352   5.198   7.853 -2.2869 -0.3201  0.1879
  431MOL0     H56884   6.148   5.317   7.893 -0.7862 -2.7644  1.1012
  431MOL0     H56885   6.142   5.380   7.729 -2.7809  0.2804 -0.6735
  431MOL0     H56886   6.119   5.090   7.786  1.7341  0.6511 -0.9353
  431MOL0     H56887   6.099   5.154   7.632 -0.0754 -1.1986  0.4888
  431MOL0     H56888   5.881   5.106   7.734  0.8998  0.2148 -2.0158
  431MOL0     H56889   5.930   5.212   7.870  0.1502 -0.1772 -0.2422
  431MOL0     H56890   5.761   5.464   7.554  2.8231  2.3295 -2.8124
  431MOL0     H56891   6.456   5.151   7.454 -0.1742 -0.6753 -0.4300
  431MOL0     H56892   6.699   5.104   7.401 -1.2817 -2.3999  0.4964
  432MOL0     O56893   2.948   4.004   8.357 -0.5726  0.3951 -0.4693
  432MOL0     C56894   2.982   3.907   8.422 -0.2449 -0.1163 -0.3148
  432MOL0     O56895   2.903   3.856   8.518 -0.2553  0.0908  0.2254
  432MOL0     C56896   2.764   3.865   8.525 -0.0321 -0.7035 -0.6223
  432MOL0     C56897   2.680   3.881   8.416  0.1157  0.0138  0.5322
  432MOL0     C56898   2.542   3.866   8.422 -0.7408  0.6436 -0.6920
  432MOL0     C56899   2.484   3.821   8.550 -0.1645 -0.6314 -0.2550
  432MOL0     O56900   2.354   3.820   8.587  0.1138  0.7114 -0.1625
  432MOL0     C56901   2.262   3.873   8.483 -0.3134  0.2800 -0.0598
  432MOL0     C56902   2.111   3.860   8.533  0.0128 -0.0812  0.2577
  432MOL0     C56903   2.018   3.896   8.417  0.3150 -0.5757 -0.6617
  432MOL0     C56904   1.876   3.873   8.442  0.1275 -0.0617  0.5639
  432MOL0     C56905   1.780   3.949   8.351  0.3968  0.8800 -0.3130
  432MOL0     C56906   1.785   4.097   8.361  0.3752  0.6772 -0.0163
  432MOL0     C56907   1.766   4.148   8.506 -0.2777  0.2671  0.6162
  432MOL0     C56908   1.788   4.303   8.499 -0.1081  0.0810 -0.9000
  432MOL0     N56909   1.835   4.349   8.632 -0.7710 -0.1659 -0.2829
  432MOL0     C56910   1.972   4.348   8.659  0.3452 -0.4814 -0.5603
  432MOL0     C56911   1.983   4.408   8.785  0.3328 -0.1888  0.0866
  432MOL0     C56912   2.115   4.431   8.866 -0.2893 -0.4056 -0.1407
  432MOL0     C56913   2.170   4.567   8.833 -0.0908 -0.0489 -0.7785
  432MOL0     C56914   2.308   4.585   8.908  0.0403 -0.2941 -0.1924
  432MOL0     C56915   2.376   4.716   8.857 -0.8616  0.3364  0.2708
  432MOL0     O56916   2.310   4.831   8.907 -0.4296 -0.6044  0.3178
  432MOL0     C56917   2.355   4.952   8.846  0.5450 -0.2486  0.8036
  432MOL0     C56918   2.253   5.042   8.827  0.2315 -0.0359  0.1235
  432MOL0     C56919   2.276   5.157   8.753 -0.5086 -0.3777 -0.7941
  432MOL0     C56920   2.410   5.198   8.728 -0.4874 -0.2865  0.3174
  432MOL0     C56921   2.440   5.320   8.652  0.2611 -0.2446  0.5073
  432MOL0     O56922   2.573   5.354   8.655 -0.2451 -0.9448 -0.1713
  432MOL0     C56923   2.615   5.484   8.627 -0.9146 -0.0092  0.2652
  432MOL0     C56924   2.749   5.497   8.580 -0.7488 -0.0006  0.3661
  432MOL0     C56925   2.795   5.633   8.560 -0.6319  0.1197  0.4688
  432MOL0     C56926   2.708   5.739   8.574 -0.0365 -0.3031  1.0953
  432MOL0     O56927   2.754   5.871   8.559 -0.6002  0.2723 -1.1471
  432MOL0     C56928   2.826   5.907   8.438 -0.6327 -0.5610 -0.2922
  432MOL0     C56929   2.737   5.992   8.336 -1.5180 -0.7695  0.3505
  432MOL0     C56930   2.820   6.024   8.208  0.4730 -0.3687 -0.4209
  432MOL0     C56931   2.748   6.102   8.103 -0.3647  0.4449 -0.5667
  432MOL0     C56932   2.620   6.034   8.051  1.0803 -0.0928  0.3069
  432MOL0     C56933   2.570   6.080   7.911  0.1167  0.4909  0.0098
  432MOL0     C56934   2.567   6.236   7.913 -0.1757  0.1958 -0.3149
  432MOL0     C56935   2.508   6.287   7.784 -0.5027 -0.1005  0.8721
  432MOL0    Cl56936   2.340   6.233   7.754 -0.0298 -0.3874 -0.5756
  432MOL0     C56937   2.574   5.724   8.605 -0.4034  0.1438 -0.5709
  432MOL0     C56938   2.530   5.594   8.633  0.2225 -0.1235  0.2453
  432MOL0     O56939   2.345   5.389   8.612  0.4821  0.1819  0.4159
  432MOL0     C56940   2.516   5.106   8.749 -0.1425 -0.1072 -0.5277
  432MOL0     C56941   2.488   4.979   8.815  0.1290  0.2212 -0.0677
  432MOL0     N56942   1.860   4.420   8.839  1.4919  0.2782 -0.4300
  432MOL0     N56943   1.771   4.394   8.744 -0.6378 -0.1667  0.5725
  432MOL0     C56944   2.570   3.802   8.663 -0.9401  0.5245  1.3151
  432MOL0     C56945   2.705   3.828   8.648 -0.1262  0.6401  0.0301
  432MOL0     C56946   3.119   3.846   8.416  0.6426  0.1663 -0.3722
  432MOL0     C56947   3.217   3.910   8.338 -0.7861  0.5219 -0.9179
  432MOL0     C56948   3.346   3.856   8.323 -0.5500  0.0756 -0.9337
  432MOL0     C56949   3.388   3.742   8.392 -0.8708  0.6222 -0.8458
  432MOL0     O56950   3.514   3.692   8.380  0.2617 -0.0517  0.2029
  432MOL0     C56951   3.601   3.742   8.279  0.0349 -0.3120 -0.2302
  432MOL0     C56952   3.721   3.646   8.278  0.1127 -0.5137  0.1806
  432MOL0     C56953   3.814   3.684   8.165 -0.2539  0.0267  0.8232
  432MOL0     C56954   3.768   3.627   8.025 -0.0240 -0.8284  0.1265
  432MOL0     C56955   3.766   3.484   8.026 -0.5035  0.0846  0.0496
  432MOL0     C56956   3.768   3.358   8.027  0.6322 -0.8401 -0.1924
  432MOL0     C56957   3.286   3.678   8.471  0.0998 -0.3606 -0.2360
  432MOL0     C56958   3.155   3.726   8.480  0.1075 -0.6002  0.1042
  432MOL0     H56959   2.724   3.909   8.321  0.5484  2.5391  1.4026
  432MOL0     H56960   2.481   3.880   8.333  1.6183  1.9384 -2.2365
  432MOL0     H56961   2.270   3.811   8.393 -0.6939 -1.4958  1.0576
  432MOL0     H56962   2.285   3.977   8.462  0.3279  0.2951  0.6585
  432MOL0     H56963   2.096   3.931   8.615  1.1644  0.2664  0.1796
  432MOL0     H56964   2.098   3.763   8.583 -0.5935  0.2463  0.7507
  432MOL0     H56965   2.055   3.839   8.331  0.7000  0.8113 -1.4481
  432MOL0     H56966   2.026   4.001   8.389 -1.3080 -0.6737 -1.6453
  432MOL0     H56967   1.859   3.766   8.430  0.4475 -0.2837  1.9258
  432MOL0     H56968   1.849   3.893   8.547 -4.6780  3.4662 -0.9637
  432MOL0     H56969   1.682   3.904   8.370  0.7870 -0.5216 -1.5175
  432MOL0     H56970   1.794   3.918   8.247 -2.6615  1.8361 -1.1195
  432MOL0     H56971   1.697   4.128   8.304 -1.6676 -3.6358  0.4278
  432MOL0     H56972   1.876   4.132   8.311  0.1708 -1.2027 -1.8508
  432MOL0     H56973   1.665   4.122   8.542 -2.7780  2.9347 -3.6783
  432MOL0     H56974   1.837   4.112   8.581  0.2832  1.2129  0.5488
  432MOL0     H56975   1.690   4.350   8.481 -0.6595  0.6045  2.6020
  432MOL0     H56976   1.862   4.330   8.424  1.6502 -0.7061  0.4666
  432MOL0     H56977   2.052   4.323   8.590  1.6708  1.4775  0.1792
  432MOL0     H56978   2.195   4.365   8.830 -0.1127  0.0957 -0.6935
  432MOL0     H56979   2.090   4.417   8.971 -0.8810 -0.6548 -0.3079
  432MOL0     H56980   2.100   4.638   8.877 -2.0188 -3.3241  1.9381
  432MOL0     H56981   2.180   4.578   8.725  0.1676 -0.9019 -0.8492
  432MOL0     H56982   2.296   4.595   9.016  0.6847 -0.2180 -0.1249
  432MOL0     H56983   2.373   4.497   8.893  0.2575 -0.6769  2.5186
  432MOL0     H56984   2.375   4.712   8.747 -1.3146  0.1515  0.2806
  432MOL0     H56985   2.483   4.705   8.880 -0.9961 -4.9594 -0.4961
  432MOL0     H56986   2.149   5.024   8.852  0.3751 -5.1553 -1.6877
  432MOL0     H56987   2.191   5.218   8.723 -0.9270 -0.2148  0.6523
  432MOL0     H56988   2.813   5.410   8.572  1.2303  1.3425  0.8863
  432MOL0     H56989   2.899   5.637   8.530 -1.6891 -0.8213 -4.0882
  432MOL0     H56990   2.870   5.822   8.384 -1.6091  0.2391 -2.4383
  432MOL0     H56991   2.913   5.968   8.462 -0.9494  0.2142 -1.0785
  432MOL0     H56992   2.695   6.084   8.377 -0.6199 -0.3082  0.2491
  432MOL0     H56993   2.652   5.932   8.302 -1.6841 -0.6215  0.5092
  432MOL0     H56994   2.849   5.927   8.166 -0.2068 -0.8725  0.2298
  432MOL0     H56995   2.906   6.081   8.242 -0.5065  0.8946  0.0474
  432MOL0     H56996   2.712   6.203   8.125 -1.0357  0.6374 -2.3560
  432MOL0     H56997   2.820   6.120   8.022 -1.3978  2.8762 -1.0241
  432MOL0     H56998   2.539   6.053   8.122  1.0276  0.7942  0.0337
  432MOL0     H56999   2.624   5.925   8.050 -0.4403 -0.1872 -1.6818
  432MOL0     H57000   2.477   6.025   7.892  1.5374 -1.2618 -2.5598
  432MOL0     H57001   2.645   6.050   7.836 -1.1803 -2.0414 -0.4034
  432MOL0     H57002   2.526   6.277   8.005  0.9608  0.0237  0.2832
  432MOL0     H57003   2.667   6.279   7.917  0.2115 -0.6770 -0.3617
  432MOL0     H57004   2.569   6.257   7.698 -1.4708 -2.1304  0.8478
  432MOL0     H57005   2.510   6.396   7.786  2.6329 -0.0734  1.1373
  432MOL0     H57006   2.504   5.807   8.614  0.9871  1.6511 -2.6291
  432MOL0     H57007   2.432   5.595   8.681  1.1029  3.7544  2.4542
  432MOL0     H57008   2.619   5.129   8.721  0.9975 -0.9618  2.5552
  432MOL0     H57009   2.569   4.906   8.820 -0.3358 -0.4352 -1.5685
  432MOL0     H57010   2.532   3.786   8.763 -1.4231 -0.9492  0.9189
  432MOL0     H57011   2.774   3.819   8.730  2.4125 -0.9092 -2.1282
  432MOL0     H57012   3.192   4.004   8.291 -1.6331  0.2195 -1.0893
  432MOL0     H57013   3.410   3.920   8.264  1.4463 -0.3738  0.6295
  432MOL0     H57014   3.629   3.847   8.286 -1.3141  0.2526 -2.4210
  432MOL0     H57015   3.545   3.732   8.186 -2.1187  1.0342  0.8241
  432MOL0     H57016   3.764   3.652   8.378 -3.5737  1.2733  1.8604
  432MOL0     H57017   3.683   3.544   8.272 -1.0703 -0.1620  1.2638
  432MOL0     H57018   3.905   3.627   8.185 -0.0740  0.7471  2.2165
  432MOL0     H57019   3.840   3.791   8.162 -0.9902  0.1959 -1.0500
  432MOL0     H57020   3.669   3.667   7.999  1.8428  1.9510 -3.7384
  432MOL0     H57021   3.829   3.670   7.945  2.4899 -0.2194  2.2395
  432MOL0     H57022   3.774   3.253   8.049  0.3120 -0.5665  1.3533
  432MOL0     H57023   3.316   3.597   8.536 -0.6973 -0.8905 -0.5216
  432MOL0     H57024   3.091   3.666   8.543 -1.3035  1.9806  1.3024
  433MOL0     O57025   2.338   6.032   5.396  0.2037 -0.3711  0.2334
  433MOL0     C57026   2.360   6.005   5.276  0.3801  0.5284 -0.1415
  433MOL0     O57027   2.276   5.935   5.194 -0.1516  0.1498 -0.4487
  433MOL0     C57028   2.166   5.866   5.251 -0.4056  0.4413  0.9807
  433MOL0     C57029   2.165   5.775   5.360 -0.7304 -0.5652  1.0594
  433MOL0     C57030   2.042   5.729   5.400 -0.1269  0.4636  0.0121
  433MOL0     C57031   1.924   5.758   5.329  0.3477 -0.4608 -0.9183
  433MOL0     O57032   1.801   5.706   5.368 -0.6135 -0.0549 -0.4839
  433MOL0     C57033   1.778   5.559   5.344  0.3038 -0.6404 -0.2810
  433MOL0     C57034   1.650   5.534   5.262  1.5774  0.2695  0.5048
  433MOL0     C57035   1.524   5.578   5.336  0.7056  0.0918 -1.3246
  433MOL0     C57036   1.412   5.586   5.236  0.6895 -1.0339  0.8677
  433MOL0     C57037   1.282   5.653   5.258  0.7980  0.2746 -0.9137
  433MOL0     C57038   1.205   5.594   5.380  0.4842 -0.3872 -1.3000
  433MOL0     C57039   1.084   5.674   5.418  0.1134  0.7475  0.0238
  433MOL0     C57040   1.015   5.641   5.549  0.1067 -0.0519  0.1015
  433MOL0     N57041   0.901   5.547   5.538 -0.2410  0.7435  0.5879
  433MOL0     C57042   0.793   5.553   5.615  0.2728  0.2132 -1.3337
  433MOL0     C57043   0.709   5.458   5.569 -0.0541  0.0301  0.2859
  433MOL0     C57044   0.589   5.407   5.638 -0.9833 -0.0747  0.3094
  433MOL0     C57045   0.476   5.513   5.649 -0.0420  0.5396 -0.8747
  433MOL0     C57046   0.338   5.440   5.641 -0.5362 -0.1646  0.1254
  433MOL0     C57047   0.222   5.531   5.640  0.0245  0.1736 -0.4375
  433MOL0     O57048   0.114   5.448   5.648  0.1170 -0.6778  0.8233
  433MOL0     C57049  -0.008   5.506   5.652  0.0852 -0.1682 -0.2890
  433MOL0     C57050  -0.111   5.418   5.636 -0.4862  0.6420 -0.5650
  433MOL0     C57051  -0.242   5.459   5.663 -0.4062 -0.4487 -0.1656
  433MOL0     C57052  -0.272   5.592   5.692  0.3131  0.0761  0.1945
  433MOL0     C57053  -0.401   5.632   5.728  0.1178  0.1870  0.6078
  433MOL0     O57054  -0.424   5.761   5.766  0.0181  0.9907  0.0815
  433MOL0     C57055  -0.553   5.809   5.765 -0.6081  0.5037  0.8096
  433MOL0     C57056  -0.569   5.940   5.813 -0.2949 -0.1899  0.3652
  433MOL0     C57057  -0.695   6.003   5.820  0.0521  0.2921  0.2056
  433MOL0     C57058  -0.805   5.941   5.772 -0.4031  0.2258  0.4331
  433MOL0     O57059  -0.924   6.010   5.784 -0.0075  0.0767  0.1070
  433MOL0     C57060  -1.041   5.938   5.752  0.0534  0.2987  0.4422
  433MOL0     C57061  -1.169   6.021   5.755 -0.2022  0.5156  0.5401
  433MOL0     C57062  -1.292   5.929   5.762 -0.6505  0.0508  0.0258
  433MOL0     C57063  -1.408   6.012   5.719  0.6086 -0.1511  0.1348
  433MOL0     C57064  -1.545   5.940   5.745 -0.8918 -0.4870 -0.0993
  433MOL0     C57065  -1.560   5.802   5.676  0.6516  0.1374  0.6994
  433MOL0     C57066  -1.704   5.752   5.689  0.2970  0.0362 -0.2322
  433MOL0     C57067  -1.719   5.645   5.589  1.0298  0.1634 -0.4001
  433MOL0    Cl57068  -1.602   5.506   5.631  0.1025 -0.2303  0.0162
  433MOL0     C57069  -0.787   5.815   5.708  0.1646 -0.1733  0.1703
  433MOL0     C57070  -0.663   5.752   5.700  0.4952  0.2111  0.8721
  433MOL0     O57071  -0.483   5.541   5.732 -0.1680  0.4829 -0.1269
  433MOL0     C57072  -0.167   5.684   5.691  0.0956  0.0637  0.6022
  433MOL0     C57073  -0.036   5.636   5.669 -0.3778 -0.6747 -0.3970
  433MOL0     N57074   0.760   5.392   5.458 -0.8144 -0.0010 -0.3413
  433MOL0     N57075   0.870   5.455   5.434 -0.5758  0.6933 -0.0518
  433MOL0     C57076   1.929   5.842   5.213  0.0371  0.6696 -0.8913
  433MOL0     C57077   2.052   5.894   5.176  0.6162 -0.1503 -0.3738
  433MOL0     C57078   2.489   6.046   5.220  0.2823  0.6201  0.0896
  433MOL0     C57079   2.515   5.995   5.093  0.6974  0.0692  0.4310
  433MOL0     C57080   2.642   6.026   5.033 -0.6636  0.0894  0.4592
  433MOL0     C57081   2.732   6.112   5.099 -0.4385 -0.2910  0.6074
  433MOL0     O57082   2.840   6.141   5.024  0.4458 -0.4130  0.2454
  433MOL0     C57083   2.971   6.153   5.085 -0.1192 -0.2141  0.2638
  433MOL0     C57084   3.066   6.160   4.962  0.0869  0.3535 -0.0095
  433MOL0     C57085   3.092   6.026   4.889 -0.1139 -0.6818 -0.0510
  433MOL0     C57086   3.092   6.043   4.730  0.0070 -0.6473  0.4260
  433MOL0     C57087   2.954   6.038   4.681  0.3624 -0.0863  0.2098
  433MOL0     C57088   2.836   6.019   4.654  0.4309 -0.4976  0.2199
  433MOL0     C57089   2.699   6.166   5.223 -0.3117  0.3122  0.1666
  433MOL0     C57090   2.584   6.129   5.290  0.4611 -0.2684 -0.4558
  433MOL0     H57091   2.260   5.767   5.411  0.2549  0.5782 -0.4961
  433MOL0     H57092   2.046   5.672   5.492 -0.9073  0.1946 -0.1078
  433MOL0     H57093   1.775   5.516   5.445  2.2882  1.9660  1.0151
  433MOL0     H57094   1.866   5.513   5.297 -0.4410 -1.3795 -0.9734
  433MOL0     H57095   1.661   5.429   5.233  1.4647  0.8078 -1.6763
  433MOL0     H57096   1.651   5.588   5.167 -1.7528 -0.6293 -0.1583
  433MOL0     H57097   1.535   5.672   5.390 -0.2059 -1.0560  1.0101
  433MOL0     H57098   1.491   5.508   5.413  0.4272  3.4347  1.8890
  433MOL0     H57099   1.446   5.637   5.146  2.5134 -2.9847  0.3700
  433MOL0     H57100   1.408   5.483   5.200  0.5869 -0.7833  0.1329
  433MOL0     H57101   1.224   5.648   5.166 -1.1710  0.7905  0.2192
  433MOL0     H57102   1.306   5.756   5.284  2.8048 -0.5831  0.9823
  433MOL0     H57103   1.273   5.580   5.465 -2.3157  0.3057  1.1861
  433MOL0     H57104   1.175   5.490   5.361  1.4880 -1.1171  0.7471
  433MOL0     H57105   1.116   5.779   5.420  2.6238  0.0789  2.9997
  433MOL0     H57106   1.007   5.676   5.340 -2.4733 -0.8587  2.3731
  433MOL0     H57107   0.974   5.730   5.597 -2.6062 -1.0328 -0.1985
  433MOL0     H57108   1.085   5.611   5.627 -0.8792  1.0630  1.4689
  433MOL0     H57109   0.784   5.592   5.716 -1.1089 -0.8216 -1.0301
  433MOL0     H57110   0.624   5.377   5.738  1.6716  2.1271  0.1700
  433MOL0     H57111   0.552   5.320   5.583  0.9475 -0.8653  0.1862
  433MOL0     H57112   0.490   5.589   5.572  1.6688  0.3773 -0.7529
  433MOL0     H57113   0.480   5.561   5.747 -1.5581 -0.6048 -0.2061
  433MOL0     H57114   0.339   5.391   5.544  0.3558  2.4425 -1.2804
  433MOL0     H57115   0.337   5.378   5.731  2.2451  0.1896  0.5118
  433MOL0     H57116   0.233   5.596   5.553  4.1183 -1.1317 -1.1044
  433MOL0     H57117   0.225   5.600   5.725 -1.2281 -1.7018  1.2251
  433MOL0     H57118  -0.086   5.313   5.630  0.7816  0.9934 -2.3190
  433MOL0     H57119  -0.326   5.391   5.660 -3.2607  2.5746  2.8589
  433MOL0     H57120  -0.477   5.983   5.851 -1.4260  0.5933  2.3476
  433MOL0     H57121  -0.706   6.099   5.870 -0.4451  0.3473 -0.0108
  433MOL0     H57122  -1.062   5.860   5.826  0.9333  0.8988  1.3404
  433MOL0     H57123  -1.017   5.890   5.657 -1.2294 -2.4107  1.3761
  433MOL0     H57124  -1.169   6.074   5.659  0.0572 -1.1902 -0.4410
  433MOL0     H57125  -1.156   6.102   5.827 -0.6885  2.1687 -1.1439
  433MOL0     H57126  -1.315   5.902   5.866  0.6346  0.8379  0.5305
  433MOL0     H57127  -1.289   5.833   5.708  0.7546  1.0273 -1.7564
  433MOL0     H57128  -1.426   6.096   5.786  1.6271 -0.4448  0.7888
  433MOL0     H57129  -1.405   6.059   5.620 -3.1000 -3.2844 -1.7528
  433MOL0     H57130  -1.622   6.011   5.713 -0.4551  0.6488  1.2614
  433MOL0     H57131  -1.556   5.934   5.854  1.3141 -0.8702  0.1492
  433MOL0     H57132  -1.489   5.731   5.722 -0.8106 -1.8052  0.0980
  433MOL0     H57133  -1.531   5.811   5.570  1.1653 -5.4285  0.0415
  433MOL0     H57134  -1.708   5.695   5.783  0.4925  0.8078  0.2547
  433MOL0     H57135  -1.776   5.833   5.678  0.5986  0.3344 -0.0385
  433MOL0     H57136  -1.711   5.679   5.485 -0.1388 -0.4065 -0.6867
  433MOL0     H57137  -1.822   5.610   5.593  0.3727  2.1237  1.8047
  433MOL0     H57138  -0.872   5.763   5.665 -1.5653  2.3506  0.3181
  433MOL0     H57139  -0.663   5.661   5.641  0.5423  0.2799  0.7660
  433MOL0     H57140  -0.175   5.791   5.700 -0.0659  0.2523 -1.4198
  433MOL0     H57141   0.046   5.707   5.664  0.0004 -1.0751  0.0739
  433MOL0     H57142   1.839   5.854   5.154 -0.7047  1.4148  0.3425
  433MOL0     H57143   2.060   5.946   5.081  0.3712  1.9928  0.7190
  433MOL0     H57144   2.450   5.933   5.032 -0.0167 -1.5532  2.7306
  433MOL0     H57145   2.679   5.978   4.943 -0.6400 -3.3359  2.1565
  433MOL0     H57146   2.988   6.061   5.140  0.0033 -0.0735  0.4615
  433MOL0     H57147   2.982   6.243   5.146  1.5050  1.7969 -2.7523
  433MOL0     H57148   3.037   6.227   4.880  1.3536 -2.7416 -3.2819
  433MOL0     H57149   3.162   6.207   4.988  1.2096 -2.4254  1.2930
  433MOL0     H57150   3.007   5.961   4.909 -1.3397  1.3265  1.7186
  433MOL0     H57151   3.175   5.965   4.927  0.2736 -0.9171 -1.2509
  433MOL0     H57152   3.134   6.142   4.711  0.2129 -0.1121  3.2575
  433MOL0     H57153   3.150   5.965   4.678  0.2999 -0.6073  0.6911
  433MOL0     H57154   2.730   6.018   4.640  0.7591 -0.1140 -3.1514
  433MOL0     H57155   2.773   6.225   5.275  0.3436 -0.7624  0.4617
  433MOL0     H57156   2.552   6.177   5.382  1.8521 -2.4516  1.2622
  434MOL0     O57157   1.033   8.905   3.708  1.0622  0.2790  0.4650
  434MOL0     C57158   1.129   8.831   3.673  0.2573 -0.4271 -0.6981
  434MOL0     O57159   1.116   8.723   3.594 -1.0206  0.5308  1.1599
  434MOL0     C57160   0.992   8.670   3.562  0.1835 -0.0646  0.0379
  434MOL0     C57161   0.988   8.595   3.448 -0.2005 -0.2932 -0.1509
  434MOL0     C57162   0.866   8.536   3.404 -0.3142  0.0130  0.2869
  434MOL0     C57163   0.743   8.567   3.465 -0.0134 -0.0634  0.6162
  434MOL0     O57164   0.626   8.531   3.404  0.3819  0.9603 -0.6690
  434MOL0     C57165   0.523   8.469   3.493 -0.1555 -0.2493  0.2742
  434MOL0     C57166   0.409   8.405   3.407  0.7759  0.3677 -0.3490
  434MOL0     C57167   0.316   8.497   3.326 -0.2708  0.9864 -0.7132
  434MOL0     C57168   0.203   8.428   3.242  0.4555  0.3131 -0.4387
  434MOL0     C57169   0.090   8.367   3.333 -0.6582  0.1097  1.0771
  434MOL0     C57170   0.033   8.463   3.426 -0.3936  0.8964 -0.7739
  434MOL0     C57171  -0.025   8.587   3.359 -0.2014 -0.6347 -0.1390
  434MOL0     C57172  -0.087   8.667   3.463 -0.2167  0.0285  0.4963
  434MOL0     N57173  -0.236   8.654   3.460  0.4057  0.1449 -1.1623
  434MOL0     C57174  -0.322   8.740   3.393 -0.2899 -0.6071 -0.6697
  434MOL0     C57175  -0.442   8.712   3.442 -0.0474  0.2965 -0.3530
  434MOL0     C57176  -0.576   8.758   3.398  0.2620 -0.5755 -0.6014
  434MOL0     C57177  -0.577   8.910   3.369  0.7609 -0.3790 -0.0240
  434MOL0     C57178  -0.607   8.930   3.219  0.0271  0.5771  0.6352
  434MOL0     C57179  -0.577   9.070   3.180 -0.0957 -0.5729  0.0769
  434MOL0     O57180  -0.648   9.172   3.256  0.2203 -0.1119  0.2953
  434MOL0     C57181  -0.789   9.180   3.242 -0.6042  0.3222  0.4802
  434MOL0     C57182  -0.852   9.188   3.113  0.0670 -0.1017 -0.0018
  434MOL0     C57183  -0.989   9.199   3.113 -0.6944 -0.7061  0.4684
  434MOL0     C57184  -1.065   9.204   3.233  0.3062 -0.5061  0.8363
  434MOL0     C57185  -1.213   9.221   3.219 -0.5005  0.2235  0.6100
  434MOL0     O57186  -1.270   9.230   3.092  0.1408 -0.1259 -0.3224
  434MOL0     C57187  -1.405   9.228   3.063  0.3086  0.8593 -0.9954
  434MOL0     C57188  -1.512   9.192   3.156 -0.4871  0.1310  0.1491
  434MOL0     C57189  -1.638   9.183   3.106 -0.0538  0.6921  0.7451
  434MOL0     C57190  -1.674   9.229   2.984 -0.8872 -0.4275  0.2507
  434MOL0     O57191  -1.803   9.215   2.939 -0.0166  0.2248 -0.0575
  434MOL0     C57192  -1.866   9.312   2.868 -0.2537 -0.3695  1.1110
  434MOL0     C57193  -2.012   9.274   2.831 -0.4708 -0.3704 -0.1382
  434MOL0     C57194  -2.105   9.280   2.961 -0.3856  0.7519  0.0123
  434MOL0     C57195  -2.250   9.253   2.944 -0.1089  0.4253  0.0780
  434MOL0     C57196  -2.323   9.247   3.074 -0.8256 -0.7301 -0.6486
  434MOL0     C57197  -2.475   9.270   3.058  0.0995  0.2061  0.1325
  434MOL0     C57198  -2.540   9.329   3.189 -0.1446  0.1265  0.0180
  434MOL0     C57199  -2.687   9.311   3.189  0.4178 -0.6102 -0.1362
  434MOL0    Cl57200  -2.725   9.164   3.270 -0.1185 -0.1758 -0.2473
  434MOL0     C57201  -1.577   9.277   2.899 -0.1346  0.2330  0.0096
  434MOL0     C57202  -1.447   9.275   2.942 -0.5069 -1.1300 -0.3019
  434MOL0     O57203  -1.273   9.243   3.326  1.1059  0.3819  0.5452
  434MOL0     C57204  -1.001   9.208   3.350 -0.0876 -0.6662  0.4816
  434MOL0     C57205  -0.862   9.197   3.358  0.1541  1.3009 -0.2394
  434MOL0     N57206  -0.428   8.615   3.534 -0.1510 -0.2400 -0.5271
  434MOL0     N57207  -0.304   8.580   3.547  0.0372 -0.5550  0.8799
  434MOL0     C57208   0.762   8.633   3.590  0.1862  0.2545  0.4952
  434MOL0     C57209   0.880   8.671   3.643 -1.2522 -0.1899 -0.3618
  434MOL0     C57210   1.260   8.854   3.728  0.0611  0.1230 -0.9418
  434MOL0     C57211   1.362   8.764   3.709  0.1488 -0.1176  0.1880
  434MOL0     C57212   1.481   8.786   3.769 -0.1653  0.1688  0.2071
  434MOL0     C57213   1.518   8.900   3.838 -0.0463 -0.6283  0.4697
  434MOL0     O57214   1.648   8.925   3.884  0.5834  0.0615 -0.3435
  434MOL0     C57215   1.689   9.056   3.895 -0.0126 -0.3241 -0.1246
  434MOL0     C57216   1.837   9.054   3.889  0.5288 -0.0991  0.6254
  434MOL0     C57217   1.905   9.191   3.899  0.6283 -0.4315 -0.3821
  434MOL0     C57218   2.056   9.175   3.925  0.0819  0.2342  0.7289
  434MOL0     C57219   2.132   9.113   3.818  0.0501 -0.8373  0.1072
  434MOL0     C57220   2.194   9.042   3.736  0.1801  0.3154 -0.0725
  434MOL0     C57221   1.406   8.990   3.861 -0.3464 -1.0868  0.2389
  434MOL0     C57222   1.278   8.971   3.801  0.4322  0.4263 -0.4802
  434MOL0     H57223   1.069   8.581   3.376 -0.5121 -0.4415 -0.4752
  434MOL0     H57224   0.858   8.473   3.316  1.9709 -1.0621  0.7976
  434MOL0     H57225   0.485   8.532   3.574 -0.7855 -1.5558  1.0255
  434MOL0     H57226   0.564   8.377   3.534 -1.1655 -0.7838  0.1039
  434MOL0     H57227   0.342   8.355   3.477  0.7463  1.9663  0.8312
  434MOL0     H57228   0.457   8.337   3.336 -2.5038 -0.4954 -1.8868
  434MOL0     H57229   0.372   8.551   3.250 -0.2454  4.2332  1.4353
  434MOL0     H57230   0.273   8.575   3.389  1.2630  0.2504  1.3671
  434MOL0     H57231   0.155   8.503   3.177  1.6232 -0.1723 -1.9122
  434MOL0     H57232   0.248   8.357   3.172 -3.5565 -0.5003 -2.5019
  434MOL0     H57233   0.135   8.283   3.387  0.2932  0.1911  0.4260
  434MOL0     H57234   0.010   8.339   3.264  1.7095  4.0468 -3.8973
  434MOL0     H57235   0.113   8.477   3.499  0.1956 -1.3887 -0.9085
  434MOL0     H57236  -0.036   8.406   3.489  0.8054  0.6344  0.3521
  434MOL0     H57237   0.054   8.647   3.312  0.4014  0.6194  2.2891
  434MOL0     H57238  -0.099   8.564   3.283 -1.0482 -2.2670  1.1356
  434MOL0     H57239  -0.061   8.771   3.440  1.7968 -0.1513  1.7519
  434MOL0     H57240  -0.048   8.645   3.563  0.6299 -0.3423  0.0949
  434MOL0     H57241  -0.297   8.813   3.316  1.2064  0.5749  0.8366
  434MOL0     H57242  -0.655   8.743   3.472  0.4678 -0.4852 -0.3620
  434MOL0     H57243  -0.598   8.707   3.304 -0.5373  2.3949 -2.1835
  434MOL0     H57244  -0.480   8.954   3.394  1.4080 -1.4155 -0.6594
  434MOL0     H57245  -0.652   8.960   3.432 -0.9557 -3.7852  0.8989
  434MOL0     H57246  -0.548   8.853   3.167 -2.7361 -0.7806 -0.6843
  434MOL0     H57247  -0.707   8.890   3.201  1.0659 -2.6778  1.3669
  434MOL0     H57248  -0.591   9.083   3.072 -1.2245 -2.7326 -0.0981
  434MOL0     H57249  -0.472   9.090   3.199  0.0293 -1.0299 -0.1118
  434MOL0     H57250  -0.787   9.177   3.027 -0.3601 -0.5035 -0.2833
  434MOL0     H57251  -1.032   9.215   3.015  1.4621 -1.3784 -0.6525
  434MOL0     H57252  -1.501   9.163   3.260 -0.0481 -3.3577 -0.7650
  434MOL0     H57253  -1.713   9.145   3.175  1.6321  0.1165  2.3565
  434MOL0     H57254  -1.809   9.343   2.780 -0.1236 -0.0649  1.3004
  434MOL0     H57255  -1.872   9.394   2.940  0.7755  0.0867  0.6870
  434MOL0     H57256  -2.008   9.169   2.803 -1.5492 -0.7814  1.1395
  434MOL0     H57257  -2.049   9.341   2.752  0.5918  1.9414  1.2111
  434MOL0     H57258  -2.092   9.372   3.019  2.6291 -0.2495  1.1413
  434MOL0     H57259  -2.062   9.200   3.021  1.6244  1.2528 -0.6809
  434MOL0     H57260  -2.292   9.332   2.881  2.1402 -0.0872 -2.2046
  434MOL0     H57261  -2.271   9.165   2.883  0.8007 -0.7312  1.3973
  434MOL0     H57262  -2.288   9.337   3.126 -1.8074 -0.6380 -0.1033
  434MOL0     H57263  -2.297   9.154   3.126  2.6997 -0.0171 -0.9485
  434MOL0     H57264  -2.522   9.180   3.017  1.4309 -0.8736  0.8620
  434MOL0     H57265  -2.493   9.354   2.990 -0.2426  1.4644  1.7157
  434MOL0     H57266  -2.501   9.283   3.280 -1.2650  0.9951  0.9573
  434MOL0     H57267  -2.511   9.434   3.189 -2.6759  0.8964  0.1701
  434MOL0     H57268  -2.735   9.313   3.090 -2.1952  1.2627  1.0532
  434MOL0     H57269  -2.731   9.396   3.241  0.5852 -0.1455 -0.7386
  434MOL0     H57270  -1.588   9.302   2.794  0.6101  2.5287  0.4169
  434MOL0     H57271  -1.375   9.327   2.879 -0.8097  1.3321  1.2379
  434MOL0     H57272  -1.049   9.240   3.442  0.9875  2.4443  0.0743
  434MOL0     H57273  -0.809   9.208   3.452 -1.4669  0.5124  0.7992
  434MOL0     H57274   0.673   8.658   3.646 -0.3652  0.8734 -0.6217
  434MOL0     H57275   0.886   8.708   3.745  1.0614  0.0073 -0.5337
  434MOL0     H57276   1.342   8.674   3.653  1.9551 -0.9213  0.7557
  434MOL0     H57277   1.560   8.712   3.759  1.8555  1.8747  2.5457
  434MOL0     H57278   1.672   9.102   3.993  2.4508  1.5123 -0.4715
  434MOL0     H57279   1.642   9.119   3.818 -0.8601  3.2289  2.9877
  434MOL0     H57280   1.878   8.989   3.967 -2.2411 -0.5649  1.8506
  434MOL0     H57281   1.859   8.998   3.798 -0.8146 -2.7075  1.7745
  434MOL0     H57282   1.861   9.246   3.983  0.3750  0.3604 -1.0096
  434MOL0     H57283   1.896   9.262   3.815 -1.4158  4.0604  3.1494
  434MOL0     H57284   2.094   9.277   3.929  1.3944 -0.2251  0.5784
  434MOL0     H57285   2.069   9.118   4.018  1.8805 -0.8265 -0.1109
  434MOL0     H57286   2.253   8.974   3.677  0.7113  0.6504  0.0707
  434MOL0     H57287   1.412   9.085   3.911  0.7054 -0.6242 -0.7216
  434MOL0     H57288   1.201   9.047   3.811 -0.1377 -0.2449  0.5150
  435MOL0     O57289   0.700   7.412  10.418  0.0268 -0.2556  0.6233
  435MOL0     C57290   0.771   7.328  10.451 -0.4173 -0.4405 -0.1992
  435MOL0     O57291   0.734   7.205  10.483  0.4515  0.3740  1.1680
  435MOL0     C57292   0.601   7.163  10.470  0.0463  0.3264  0.3002
  435MOL0     C57293   0.486   7.235  10.485  0.8955  0.2715 -0.4137
  435MOL0     C57294   0.359   7.183  10.469  0.3063  0.3084 -0.3632
  435MOL0     C57295   0.348   7.048  10.450 -0.4467  0.1513  0.1362
  435MOL0     O57296   0.222   6.984  10.428 -0.6959 -0.1849 -0.4696
  435MOL0     C57297   0.115   7.001  10.522  0.0980 -0.0914  0.2125
  435MOL0     C57298  -0.016   6.981  10.444  0.7767  0.3788 -0.0952
  435MOL0     C57299  -0.134   6.967  10.545 -0.1827 -0.8030 -0.2777
  435MOL0     C57300  -0.266   6.924  10.482 -0.2086  0.1976  0.4247
  435MOL0     C57301  -0.385   6.949  10.571 -0.5499 -0.0953 -0.3712
  435MOL0     C57302  -0.514   6.884  10.503  0.5225 -0.2227 -0.7095
  435MOL0     C57303  -0.636   6.907  10.582 -0.4703  0.5325  0.2571
  435MOL0     C57304  -0.759   6.893  10.487  0.4947  0.0606 -0.3907
  435MOL0     N57305  -0.879   6.949  10.546 -0.1075 -0.0466  0.4388
  435MOL0     C57306  -0.896   7.084  10.578 -0.4068  1.3379  0.8633
  435MOL0     C57307  -0.993   7.083  10.667  0.2774  0.4908 -0.2600
  435MOL0     C57308  -1.059   7.209  10.737  0.5473  0.8132  0.6926
  435MOL0     C57309  -0.973   7.335  10.747 -0.1717  0.4242  0.0797
  435MOL0     C57310  -0.855   7.303  10.835 -0.1585 -0.6189 -0.7225
  435MOL0     C57311  -0.745   7.412  10.846  0.9349  1.6795 -0.3586
  435MOL0     O57312  -0.674   7.409  10.721  0.0366  0.0892 -0.6443
  435MOL0     C57313  -0.541   7.437  10.734  0.1597 -0.5961 -0.4737
  435MOL0     C57314  -0.498   7.554  10.799 -0.0057  1.1156  0.6032
  435MOL0     C57315  -0.365   7.583  10.804  1.2707 -0.3427 -0.2411
  435MOL0     C57316  -0.274   7.491  10.751  0.6700  0.5335 -0.0883
  435MOL0     C57317  -0.133   7.523  10.750  0.1122 -0.5227 -0.3359
  435MOL0     O57318  -0.070   7.460  10.658 -1.2566  0.7404 -0.2884
  435MOL0     C57319   0.064   7.471  10.661 -0.1362 -0.6167 -0.6003
  435MOL0     C57320   0.136   7.589  10.621 -0.8929  0.1867  0.6556
  435MOL0     C57321   0.277   7.601  10.639  1.0664 -0.9135 -0.1222
  435MOL0     C57322   0.350   7.506  10.703  0.0062  0.5029 -0.2417
  435MOL0     O57323   0.483   7.508  10.727 -0.3274 -0.7356  0.1260
  435MOL0     C57324   0.553   7.627  10.677  0.2985 -0.2906  0.6848
  435MOL0     C57325   0.704   7.628  10.700  0.3506  0.1412  0.1479
  435MOL0     C57326   0.732   7.632  10.859 -0.1748 -0.9288  0.2570
  435MOL0     C57327   0.880   7.661  10.896  0.1591 -0.4915  1.5313
  435MOL0     C57328   0.982   7.561  10.832 -0.2058  0.0390  0.5140
  435MOL0     C57329   1.134   7.582  10.879  0.7069 -0.9086  0.9949
  435MOL0     C57330   1.224   7.464  10.836  0.7559 -0.0578 -1.0552
  435MOL0     C57331   1.370   7.486  10.896  0.0804  0.8009 -0.3451
  435MOL0    Cl57332   1.454   7.611  10.812  0.2459 -0.2334  0.0490
  435MOL0     C57333   0.273   7.386  10.742  0.3189  0.4475  0.1051
  435MOL0     C57334   0.139   7.372  10.719  0.3687 -0.9526 -0.5060
  435MOL0     O57335  -0.095   7.622  10.817 -0.4292 -1.1893 -1.1635
  435MOL0     C57336  -0.319   7.370  10.682 -0.0211  0.2193  0.3555
  435MOL0     C57337  -0.454   7.350  10.672 -0.1486 -0.4113  0.0969
  435MOL0     N57338  -1.043   6.952  10.688  0.0835  0.9635  0.1370
  435MOL0     N57339  -0.966   6.875  10.616  0.1164  0.3297 -0.1522
  435MOL0     C57340   0.457   6.967  10.438 -0.5561 -0.3407 -0.2870
  435MOL0     C57341   0.586   7.020  10.447 -0.1197  0.4016 -0.8423
  435MOL0     C57342   0.913   7.356  10.453 -0.8127  0.2950  0.4148
  435MOL0     C57343   0.962   7.484  10.419 -0.4073 -0.7867  0.7847
  435MOL0     C57344   1.101   7.520  10.395  0.5664 -0.9562 -0.1130
  435MOL0     C57345   1.194   7.416  10.417 -0.4727  0.3634  0.2032
  435MOL0     O57346   1.332   7.437  10.419 -0.4154 -0.2977 -0.3092
  435MOL0     C57347   1.377   7.572  10.424  0.3107  0.3335  0.2922
  435MOL0     C57348   1.525   7.567  10.453  0.5191 -0.1049  0.5179
  435MOL0     C57349   1.615   7.485  10.345  0.6786 -0.2116  0.5088
  435MOL0     C57350   1.767   7.486  10.386  0.8210  0.4912 -0.1712
  435MOL0     C57351   1.816   7.631  10.376  0.9586 -0.0392 -0.0748
  435MOL0     C57352   1.832   7.745  10.346 -0.1113  0.8311 -0.2843
  435MOL0     C57353   1.148   7.286  10.448 -0.0525  0.1898  0.5391
  435MOL0     C57354   1.008   7.251  10.460  0.4452 -0.0396  0.5834
  435MOL0     H57355   0.496   7.343  10.497  0.1425  0.4552 -1.3227
  435MOL0     H57356   0.270   7.243  10.453 -0.0914 -0.8298 -2.9823
  435MOL0     H57357   0.122   7.095  10.577 -0.5575  0.9589 -1.4178
  435MOL0     H57358   0.122   6.927  10.602 -1.2161  0.6758  1.0693
  435MOL0     H57359   0.005   6.894  10.381  2.6806  0.7497 -0.0114
  435MOL0     H57360  -0.032   7.061  10.371  0.4422  1.1633  0.8095
  435MOL0     H57361  -0.155   7.063  10.594  2.4245 -0.4753  0.3344
  435MOL0     H57362  -0.095   6.895  10.617  1.1182 -0.5687 -0.7101
  435MOL0     H57363  -0.276   6.973  10.384  1.8720  0.6206  0.3796
  435MOL0     H57364  -0.266   6.816  10.469 -1.6679  0.4750 -3.0802
  435MOL0     H57365  -0.399   7.057  10.578 -1.9859  0.0889 -3.7344
  435MOL0     H57366  -0.371   6.911  10.672 -0.7017  2.0628  0.5231
  435MOL0     H57367  -0.498   6.775  10.501 -1.4482 -0.5675  0.4035
  435MOL0     H57368  -0.543   6.934  10.410 -3.2353 -0.9118 -0.0645
  435MOL0     H57369  -0.640   6.842  10.669 -1.4807 -1.0347 -0.8980
  435MOL0     H57370  -0.630   7.013  10.608 -1.0950  1.0402 -1.4990
  435MOL0     H57371  -0.777   6.788  10.462  2.4745 -0.0568 -1.5763
  435MOL0     H57372  -0.731   6.937  10.391 -0.4752  0.7390 -0.3790
  435MOL0     H57373  -0.835   7.165  10.540 -1.5511  2.5871  1.6118
  435MOL0     H57374  -1.092   7.178  10.836 -2.1345 -0.0468 -0.3921
  435MOL0     H57375  -1.149   7.232  10.680  1.4843  1.4965 -0.5685
  435MOL0     H57376  -1.037   7.413  10.789 -0.7340  0.8631 -1.5402
  435MOL0     H57377  -0.945   7.360  10.644  2.5099 -0.3706  0.5251
  435MOL0     H57378  -0.895   7.277  10.934 -1.7155 -0.6411 -1.3319
  435MOL0     H57379  -0.812   7.213  10.790  0.0139 -0.4994 -0.7977
  435MOL0     H57380  -0.677   7.394  10.930  0.9791 -0.8596 -0.8751
  435MOL0     H57381  -0.784   7.514  10.845  0.7744  1.7063  2.0675
  435MOL0     H57382  -0.570   7.622  10.843 -0.4545  0.8952  0.2225
  435MOL0     H57383  -0.326   7.668  10.858 -0.8960 -0.6292  1.9314
  435MOL0     H57384   0.090   7.679  10.579 -1.7748 -1.6476 -2.6782
  435MOL0     H57385   0.320   7.697  10.614 -0.1163 -0.2802  0.2114
  435MOL0     H57386   0.507   7.707  10.735 -0.7422  0.1633 -0.7061
  435MOL0     H57387   0.535   7.633  10.569 -0.5710  2.5277  0.9073
  435MOL0     H57388   0.746   7.716  10.649  1.7066 -1.5319 -1.7753
  435MOL0     H57389   0.756   7.539  10.664  1.3662 -0.2429  2.3496
  435MOL0     H57390   0.706   7.536  10.905  0.2096 -1.7146 -1.1075
  435MOL0     H57391   0.672   7.715  10.898  1.4824  0.7125 -0.5395
  435MOL0     H57392   0.906   7.757  10.849 -1.8252  0.8324  2.9639
  435MOL0     H57393   0.888   7.666  11.005  1.2309  0.6563  1.4193
  435MOL0     H57394   0.978   7.571  10.723  3.9383 -0.4100  0.1879
  435MOL0     H57395   0.953   7.459  10.861 -0.5112  0.3985  1.5322
  435MOL0     H57396   1.134   7.584  10.988  0.5430  0.7383  0.9819
  435MOL0     H57397   1.175   7.677  10.844 -0.8319 -1.0384 -1.3848
  435MOL0     H57398   1.180   7.372  10.874  0.1848  0.6390  0.0111
  435MOL0     H57399   1.241   7.458  10.728  4.3407 -1.4315 -0.5639
  435MOL0     H57400   1.429   7.394  10.895 -0.5666  0.3758 -0.1608
  435MOL0     H57401   1.355   7.525  10.998 -2.9107 -3.1748  0.9826
  435MOL0     H57402   0.316   7.316  10.812  0.1892  0.7848  0.5284
  435MOL0     H57403   0.089   7.287  10.764 -2.9138  1.2530  0.3728
  435MOL0     H57404  -0.245   7.309  10.631  0.8778 -0.0605  1.9470
  435MOL0     H57405  -0.486   7.257  10.626 -0.0466  0.3248 -1.5187
  435MOL0     H57406   0.442   6.860  10.427  2.0004 -0.7475 -0.5001
  435MOL0     H57407   0.675   6.958  10.447 -1.9180 -2.4096 -2.2334
  435MOL0     H57408   0.888   7.564  10.421  0.3646 -0.0676  1.9284
  435MOL0     H57409   1.133   7.622  10.380  1.1553 -0.6736  2.5616
  435MOL0     H57410   1.318   7.623  10.501 -1.3465  2.5514 -2.2451
  435MOL0     H57411   1.362   7.621  10.327 -0.7854 -1.0439 -0.2577
  435MOL0     H57412   1.567   7.668  10.449  5.0534 -1.7821 -0.8296
  435MOL0     H57413   1.540   7.530  10.554 -0.3466  0.0072  0.6961
  435MOL0     H57414   1.601   7.519  10.242 -0.2146  2.0602  1.3095
  435MOL0     H57415   1.576   7.383  10.352 -1.6308  0.3510 -2.2561
  435MOL0     H57416   1.792   7.442  10.483  0.2985  0.7261  0.0739
  435MOL0     H57417   1.827   7.423  10.320 -0.7767 -2.5533  1.0625
  435MOL0     H57418   1.849   7.844  10.310 -1.1688  1.1480  0.0589
  435MOL0     H57419   1.216   7.202  10.454 -2.1795 -1.5913  1.2353
  435MOL0     H57420   0.969   7.150  10.463 -3.8224  1.0983 -3.3368
  436MOL0     O57421   9.455   1.364   0.608  0.3568 -0.3892  0.2815
  436MOL0     C57422   9.502   1.441   0.695  1.1534 -0.0739  0.1742
  436MOL0     O57423   9.431   1.489   0.806 -0.4254 -0.0922  0.1147
  436MOL0     C57424   9.296   1.461   0.813  0.3211 -0.3854  0.0470
  436MOL0     C57425   9.205   1.492   0.707 -0.4002  0.7262 -0.0107
  436MOL0     C57426   9.065   1.478   0.715  0.2556  0.2374  1.5935
  436MOL0     C57427   9.011   1.438   0.837 -0.0801 -0.9492 -0.2756
  436MOL0     O57428   8.886   1.423   0.868  0.0286 -0.5626 -0.4515
  436MOL0     C57429   8.812   1.322   0.795 -0.2526 -0.6258 -0.9196
  436MOL0     C57430   8.687   1.288   0.875 -0.0548 -0.8107  0.2793
  436MOL0     C57431   8.594   1.182   0.833  0.1996  0.2663  0.3129
  436MOL0     C57432   8.491   1.156   0.945 -0.8108 -0.7393  1.0074
  436MOL0     C57433   8.377   1.083   0.887 -0.7288  1.1912  0.3394
  436MOL0     C57434   8.269   1.036   0.992 -0.5295 -0.2138  0.8463
  436MOL0     C57435   8.151   0.953   0.935 -0.1975 -0.1300  0.6582
  436MOL0     C57436   8.047   1.049   0.877 -0.0445 -0.2157  0.1110
  436MOL0     N57437   7.930   0.973   0.849  0.6347  0.2173  0.5985
  436MOL0     C57438   7.837   0.945   0.942 -0.4789  0.7973 -0.0084
  436MOL0     C57439   7.751   0.866   0.883 -0.2559 -0.0348 -0.5109
  436MOL0     C57440   7.634   0.799   0.945  0.6415 -0.7462  0.8250
  436MOL0     C57441   7.505   0.850   0.884 -0.3749 -0.2764  0.2122
  436MOL0     C57442   7.387   0.802   0.965 -0.0694 -0.8980  1.1590
  436MOL0     C57443   7.256   0.816   0.881 -0.0312  0.2376 -0.4048
  436MOL0     O57444   7.240   0.943   0.831  0.4678  0.3113 -0.4823
  436MOL0     C57445   7.131   0.975   0.755 -0.1709 -0.8838  0.9755
  436MOL0     C57446   7.106   1.105   0.715  0.9042  0.3407  0.4225
  436MOL0     C57447   7.008   1.139   0.630  0.3986 -0.3421 -0.3336
  436MOL0     C57448   6.923   1.033   0.583  0.1462 -0.0415 -0.3934
  436MOL0     C57449   6.809   1.062   0.488 -0.6335  1.1299 -0.6213
  436MOL0     O57450   6.771   0.960   0.399  0.2685 -0.3959 -0.3979
  436MOL0     C57451   6.673   0.985   0.312 -0.0159  0.2274 -0.4063
  436MOL0     C57452   6.706   1.040   0.192 -0.6263  0.4061  0.5022
  436MOL0     C57453   6.611   1.044   0.095  0.0849 -0.1487 -0.7651
  436MOL0     C57454   6.484   0.991   0.115 -0.3066  0.0205  0.2304
  436MOL0     O57455   6.391   0.993   0.007 -0.0406 -0.1409  0.2468
  436MOL0     C57456   6.300   0.881  -0.005 -0.5184  0.2731  0.3475
  436MOL0     C57457   6.224   0.894  -0.145  0.0179  0.4914 -0.6580
  436MOL0     C57458   6.101   0.990  -0.129 -0.0011 -0.4066  0.6270
  436MOL0     C57459   6.011   0.997  -0.255 -0.8696  0.6306 -0.2971
  436MOL0     C57460   5.900   1.101  -0.249  0.3778  0.0308 -1.0072
  436MOL0     C57461   5.800   1.076  -0.361  0.1051 -0.1633 -0.4863
  436MOL0     C57462   5.691   1.179  -0.359 -0.1453 -0.3119  0.0169
  436MOL0     C57463   5.561   1.140  -0.298 -0.1078  0.3532  0.2570
  436MOL0    Cl57464   5.457   1.289  -0.275  0.1088 -0.1051 -0.1256
  436MOL0     C57465   6.458   0.924   0.233  1.0725  0.0273 -0.6612
  436MOL0     C57466   6.559   0.913   0.332 -0.0960  0.0426  0.9216
  436MOL0     O57467   6.754   1.169   0.505 -0.4456 -0.0922  0.1851
  436MOL0     C57468   6.944   0.898   0.614 -0.7844 -0.9363  0.5755
  436MOL0     C57469   7.049   0.874   0.695  0.5283 -0.3161  0.4965
  436MOL0     N57470   7.784   0.864   0.748  0.2501  1.1620 -0.5675
  436MOL0     N57471   7.895   0.930   0.730  0.6796 -0.4574 -0.0568
  436MOL0     C57472   9.102   1.389   0.934  0.3392 -0.9944 -0.8504
  436MOL0     C57473   9.238   1.411   0.920 -0.3304 -0.1236 -0.1437
  436MOL0     C57474   9.636   1.492   0.682 -0.4241  1.1836  0.3896
  436MOL0     C57475   9.721   1.454   0.573 -0.2921 -0.1769  0.0091
  436MOL0     C57476   9.851   1.505   0.570 -0.9260 -0.5473  0.7092
  436MOL0     C57477   9.908   1.581   0.673 -0.1243  0.0579  0.1142
  436MOL0     O57478  10.045   1.618   0.669  0.8134 -0.4206 -0.1992
  436MOL0     C57479  10.114   1.679   0.782 -0.2573  0.8797 -0.2661
  436MOL0     C57480  10.260   1.663   0.767 -0.0604  0.6417  0.4080
  436MOL0     C57481  10.328   1.717   0.901 -0.2478  0.2283 -0.4943
  436MOL0     C57482  10.454   1.629   0.921 -0.0305 -0.6407 -0.5701
  436MOL0     C57483  10.532   1.664   1.036 -0.7266 -0.4204  0.2879
  436MOL0     C57484  10.591   1.650   1.137  0.0075  0.1633  0.6358
  436MOL0     C57485   9.820   1.629   0.768  0.8949 -0.5671  0.7340
  436MOL0     C57486   9.689   1.591   0.777 -0.0481  0.2990 -0.5576
  436MOL0     H57487   9.254   1.509   0.612  4.5998  0.0871  2.1408
  436MOL0     H57488   9.008   1.483   0.623  1.2475 -2.6000  0.7403
  436MOL0     H57489   8.864   1.226   0.791  0.1201 -0.6095  1.8137
  436MOL0     H57490   8.782   1.362   0.698 -0.0962  1.0426 -0.3126
  436MOL0     H57491   8.632   1.383   0.884  4.4027  1.8890  2.9411
  436MOL0     H57492   8.732   1.259   0.970  2.6122  0.1165 -0.6216
  436MOL0     H57493   8.656   1.094   0.814  1.8920  1.6240 -0.7363
  436MOL0     H57494   8.542   1.201   0.739  0.8449  0.1898 -0.0654
  436MOL0     H57495   8.528   1.083   1.018 -1.4393 -2.6271 -0.4661
  436MOL0     H57496   8.465   1.253   0.987 -0.3478 -0.0003 -0.3529
  436MOL0     H57497   8.414   0.987   0.851 -0.2682  1.2358  0.6992
  436MOL0     H57498   8.332   1.144   0.808  0.6632 -0.0276 -1.4678
  436MOL0     H57499   8.221   1.121   1.041  1.5585  0.0981  2.4601
  436MOL0     H57500   8.316   0.978   1.072  0.0373  2.0744  2.2565
  436MOL0     H57501   8.188   0.890   0.854  0.4226  1.0460 -0.0094
  436MOL0     H57502   8.109   0.885   1.009 -2.0944  0.9120  0.5952
  436MOL0     H57503   8.084   1.106   0.790 -0.3033 -0.3755 -0.1046
  436MOL0     H57504   8.013   1.121   0.952  2.9517 -0.6745  2.0921
  436MOL0     H57505   7.847   0.966   1.048 -3.3414 -2.4482  1.1061
  436MOL0     H57506   7.635   0.826   1.051 -0.3495  2.0725  0.1983
  436MOL0     H57507   7.641   0.693   0.919  1.2239 -0.4823 -0.1354
  436MOL0     H57508   7.510   0.824   0.778  4.0372 -0.7239  0.3259
  436MOL0     H57509   7.499   0.959   0.886 -1.0675 -0.3087  1.7031
  436MOL0     H57510   7.405   0.698   0.991  1.0901 -1.0645 -0.1878
  436MOL0     H57511   7.392   0.852   1.062 -0.2100 -0.5112  0.9725
  436MOL0     H57512   7.180   0.779   0.951 -0.0613 -3.5722 -2.1759
  436MOL0     H57513   7.262   0.752   0.792  0.8237 -1.0261  0.5224
  436MOL0     H57514   7.166   1.182   0.762 -2.0210  2.4621  0.9441
  436MOL0     H57515   6.985   1.241   0.601  1.3715  0.2791  1.0142
  436MOL0     H57516   6.810   1.064   0.173 -0.4166 -0.9550 -0.1945
  436MOL0     H57517   6.641   1.082  -0.002  3.2481 -3.1751 -1.1808
  436MOL0     H57518   6.225   0.887   0.074  0.6050  0.3939  1.4342
  436MOL0     H57519   6.361   0.790  -0.000 -0.7134  0.0018 -1.5131
  436MOL0     H57520   6.178   0.797  -0.168  3.0380 -1.5291  1.1838
  436MOL0     H57521   6.289   0.935  -0.222  3.1444 -0.7625  1.1334
  436MOL0     H57522   6.138   1.090  -0.105  1.9602 -1.2128  1.1534
  436MOL0     H57523   6.035   0.953  -0.050  1.7316  1.8185  3.3009
  436MOL0     H57524   6.072   1.032  -0.339  0.8861  0.7995  1.0009
  436MOL0     H57525   5.968   0.897  -0.266 -2.5374  1.0410  1.7626
  436MOL0     H57526   5.939   1.202  -0.250 -0.2651  0.3430  1.1481
  436MOL0     H57527   5.843   1.091  -0.156 -1.3741 -1.2876 -2.1484
  436MOL0     H57528   5.760   0.974  -0.357  3.9340 -1.8700 -1.5012
  436MOL0     H57529   5.857   1.092  -0.453 -0.9417  1.9284 -0.8421
  436MOL0     H57530   5.726   1.265  -0.302  0.3051 -0.2394 -0.3618
  436MOL0     H57531   5.677   1.215  -0.462 -0.4792 -2.5996 -0.8020
  436MOL0     H57532   5.579   1.079  -0.209 -0.4439 -2.0629 -1.2483
  436MOL0     H57533   5.513   1.069  -0.365  1.5511  0.1131 -0.7448
  436MOL0     H57534   6.371   0.864   0.257  1.2107  0.0041 -0.2128
  436MOL0     H57535   6.543   0.874   0.432  1.1878 -0.9210  0.7676
  436MOL0     H57536   6.894   0.807   0.583  1.6279 -2.2080  0.1696
  436MOL0     H57537   7.067   0.767   0.702  1.7576 -0.1035  0.8542
  436MOL0     H57538   9.081   1.334   1.025 -1.9954  1.8770  0.5144
  436MOL0     H57539   9.297   1.390   1.009 -3.0251 -1.4768  1.4734
  436MOL0     H57540   9.694   1.382   0.497  1.3810 -2.6178  1.5849
  436MOL0     H57541   9.920   1.464   0.497  0.7782 -0.5393  2.2382
  436MOL0     H57542  10.082   1.623   0.870 -1.1748  1.5505 -0.1553
  436MOL0     H57543  10.087   1.784   0.794 -1.7066  0.5827 -0.6719
  436MOL0     H57544  10.282   1.556   0.754  0.0483  0.9125 -2.4342
  436MOL0     H57545  10.287   1.714   0.674 -0.0213  1.0159  0.6237
  436MOL0     H57546  10.257   1.708   0.983 -0.5258 -0.6450 -0.8233
  436MOL0     H57547  10.352   1.818   0.866 -2.5423  0.2723 -2.1964
  436MOL0     H57548  10.431   1.522   0.932 -1.0847 -0.1852  2.4430
  436MOL0     H57549  10.527   1.649   0.841  2.3812 -3.1167  0.8256
  436MOL0     H57550  10.620   1.653   1.241 -0.5027  0.1771  0.7801
  436MOL0     H57551   9.863   1.689   0.847  3.8856 -0.2675 -0.9796
  436MOL0     H57552   9.624   1.622   0.858 -1.6859 -3.0725 -0.4063
  437MOL0     O57553   2.009  10.694   9.268  0.0378 -0.3877 -0.2835
  437MOL0     C57554   1.913  10.776   9.285 -0.9329 -0.5582 -0.5777
  437MOL0     O57555   1.925  10.908   9.312  0.7164  0.5148  0.0384
  437MOL0     C57556   2.038  10.959   9.368 -0.0186  0.1909  0.1373
  437MOL0     C57557   2.077  11.087   9.316 -0.8205 -0.7679 -0.2804
  437MOL0     C57558   2.189  11.151   9.375  0.4733  0.2965  0.6963
  437MOL0     C57559   2.263  11.082   9.474 -0.8023  0.1811  0.8460
  437MOL0     O57560   2.378  11.153   9.506  0.2893  0.2078  0.0892
  437MOL0     C57561   2.481  11.088   9.565  0.0228  0.3054  0.8764
  437MOL0     C57562   2.497  11.120   9.713  0.4084 -0.5180  0.0748
  437MOL0     C57563   2.634  11.098   9.775  0.2458  0.0741  0.3432
  437MOL0     C57564   2.639  11.144   9.923 -0.4048 -0.3258 -0.8266
  437MOL0     C57565   2.777  11.128   9.988  0.9396  0.4180  0.2514
  437MOL0     C57566   2.865  11.244   9.948 -0.6764  0.1372 -0.3602
  437MOL0     C57567   3.017  11.227   9.994  0.2001 -0.5731 -0.2142
  437MOL0     C57568   3.034  11.219  10.141 -0.2899  0.8480 -0.0764
  437MOL0     N57569   3.178  11.206  10.174  0.1322  0.1969 -0.1348
  437MOL0     C57570   3.253  11.097  10.229  0.7011 -0.2113 -0.4146
  437MOL0     C57571   3.362  11.158  10.276 -0.6324  1.3818 -0.6565
  437MOL0     C57572   3.484  11.089  10.331  0.3693  0.2587 -0.2207
  437MOL0     C57573   3.602  11.082  10.232 -0.4967  0.1889  0.3695
  437MOL0     C57574   3.700  10.978  10.283 -0.1132 -0.5393 -0.2072
  437MOL0     C57575   3.844  11.005  10.224  0.2127 -0.5885 -0.0191
  437MOL0     O57576   3.927  10.888  10.258  0.4511  0.2479 -0.2725
  437MOL0     C57577   4.065  10.908  10.282 -0.0640 -0.7586 -0.4127
  437MOL0     C57578   4.142  11.005  10.214  0.5875  0.0831  0.3374
  437MOL0     C57579   4.282  11.011  10.241  0.7762  0.3099  0.6045
  437MOL0     C57580   4.344  10.925  10.329 -0.1236 -0.3997  0.2756
  437MOL0     C57581   4.496  10.936  10.350  0.9071 -0.4468 -0.4294
  437MOL0     O57582   4.555  11.044  10.315 -1.4984 -0.2697  0.0931
  437MOL0     C57583   4.685  11.060  10.354 -0.2088 -0.0778  0.9488
  437MOL0     C57584   4.790  10.974  10.312 -0.3386  0.0391  0.6262
  437MOL0     C57585   4.928  11.000  10.340  1.0310  0.0153  0.8621
  437MOL0     C57586   4.962  11.113  10.421 -0.0307  0.6856 -0.3373
  437MOL0     O57587   5.092  11.138  10.472 -0.3579 -0.0158  0.5325
  437MOL0     C57588   5.202  11.073  10.408  0.3813  0.1416  0.1459
  437MOL0     C57589   5.330  11.135  10.464  0.2801  0.2752  0.8149
  437MOL0     C57590   5.455  11.102  10.391 -1.0173  0.0963  0.0691
  437MOL0     C57591   5.587  11.151  10.447  0.6898  0.5491  0.9062
  437MOL0     C57592   5.609  11.302  10.425 -0.4764 -0.5160 -0.9576
  437MOL0     C57593   5.761  11.337  10.462  0.0247 -0.3472 -0.3602
  437MOL0     C57594   5.776  11.491  10.465 -0.7662 -0.3404 -0.5382
  437MOL0     C57595   5.917  11.524  10.520 -0.5656  0.2177  0.0036
  437MOL0    Cl57596   6.055  11.465  10.414  0.0147 -0.4025 -0.2887
  437MOL0     C57597   4.858  11.191  10.477 -0.3075  0.3375  0.5195
  437MOL0     C57598   4.720  11.169  10.439 -0.6999  0.7585 -0.2915
  437MOL0     O57599   4.550  10.842  10.404  0.4182  0.5583  0.1993
  437MOL0     C57600   4.261  10.830  10.398 -0.7076  0.4805 -0.2887
  437MOL0     C57601   4.122  10.817  10.370 -0.4233  0.5292 -1.1210
  437MOL0     N57602   3.362  11.290  10.247 -0.1964  0.5166  0.0339
  437MOL0     N57603   3.241  11.321  10.208 -0.5604 -1.0298  0.0065
  437MOL0     C57604   2.226  10.954   9.520  0.3488  0.6298  0.4768
  437MOL0     C57605   2.109  10.890   9.463 -0.6557  0.7200  0.6961
  437MOL0     C57606   1.773  10.714   9.268 -1.3238 -0.0457  0.1983
  437MOL0     C57607   1.751  10.574   9.277  0.5222 -0.8980  0.1769
  437MOL0     C57608   1.629  10.513   9.254  0.0611  0.4837 -0.6857
  437MOL0     C57609   1.518  10.588   9.224  0.9691 -0.1732  0.2653
  437MOL0     O57610   1.407  10.517   9.197 -0.0576  0.1000 -0.0891
  437MOL0     C57611   1.284  10.585   9.162 -0.2598 -0.1289  0.1234
  437MOL0     C57612   1.180  10.483   9.191 -0.1664 -0.0208  0.4747
  437MOL0     C57613   1.176  10.455   9.344 -0.5982  1.0737 -0.2766
  437MOL0     C57614   1.110  10.567   9.421  0.0295 -0.0337 -0.2646
  437MOL0     C57615   0.968  10.578   9.377 -0.1951 -0.3247 -0.2879
  437MOL0     C57616   0.859  10.569   9.339  0.7936  0.2109 -0.8710
  437MOL0     C57617   1.535  10.729   9.214  0.0395  0.2482  0.4664
  437MOL0     C57618   1.658  10.789   9.246  0.0459  0.3914  0.7845
  437MOL0     H57619   2.017  11.139   9.243 -1.0535 -1.6416 -0.7289
  437MOL0     H57620   2.223  11.247   9.338  0.9796  0.9917  2.8620
  437MOL0     H57621   2.567  11.126   9.508 -0.5731 -1.2720 -1.1898
  437MOL0     H57622   2.490  10.981   9.547 -2.6619  0.1109  0.3563
  437MOL0     H57623   2.428  11.048   9.759  2.4900 -2.5654  0.2186
  437MOL0     H57624   2.475  11.225   9.730  0.5455 -0.6292  0.9660
  437MOL0     H57625   2.707  11.154   9.715 -0.6053 -0.2051 -0.9940
  437MOL0     H57626   2.661  10.994   9.756  0.6937  0.7311 -3.3748
  437MOL0     H57627   2.622  11.252   9.925 -0.5893 -0.3617 -0.4367
  437MOL0     H57628   2.563  11.102   9.989 -1.6221  0.9811 -1.3541
  437MOL0     H57629   2.831  11.037   9.959  1.8430  0.9851  0.1262
  437MOL0     H57630   2.764  11.132  10.096  1.0184  1.7160  0.2295
  437MOL0     H57631   2.823  11.340   9.980 -3.3365 -0.2907 -2.1811
  437MOL0     H57632   2.883  11.250   9.840  0.3753  4.8789 -0.1236
  437MOL0     H57633   3.053  11.140   9.940 -2.6177 -1.6877 -0.4944
  437MOL0     H57634   3.072  11.318   9.969  0.8963 -1.0807 -0.5586
  437MOL0     H57635   2.981  11.136  10.189  3.6878 -1.0513  1.4720
  437MOL0     H57636   2.995  11.302  10.200  0.7021 -1.0096  3.5186
  437MOL0     H57637   3.240  10.990  10.220 -1.8090 -0.0635  0.4983
  437MOL0     H57638   3.451  10.986  10.350  0.7105  0.1892  0.0161
  437MOL0     H57639   3.520  11.150  10.414  0.3000  0.8567 -0.6285
  437MOL0     H57640   3.656  11.178  10.231 -1.1381  0.5600 -0.3501
  437MOL0     H57641   3.560  11.056  10.134 -0.3686  1.9468 -0.1848
  437MOL0     H57642   3.704  10.967  10.392  2.1167 -2.2790 -0.3942
  437MOL0     H57643   3.664  10.884  10.240 -3.4989 -0.1475  1.4493
  437MOL0     H57644   3.882  11.098  10.268  0.0795 -0.4561 -0.1853
  437MOL0     H57645   3.849  11.028  10.118 -0.8264 -0.3069 -0.0093
  437MOL0     H57646   4.096  11.065  10.135  0.6053  1.0445  1.0380
  437MOL0     H57647   4.340  11.079  10.180 -1.1070 -0.3002 -2.0225
  437MOL0     H57648   4.765  10.887  10.252 -0.4484 -0.1198  0.9026
  437MOL0     H57649   5.008  10.937  10.302 -1.0819 -2.4800  0.3586
  437MOL0     H57650   5.206  11.088  10.300  2.8671  0.0890  0.1796
  437MOL0     H57651   5.201  10.966  10.432  0.7815 -0.1127 -0.8925
  437MOL0     H57652   5.339  11.103  10.568 -0.8464 -0.1411  0.7963
  437MOL0     H57653   5.321  11.244  10.460  2.1725  0.4543  0.2233
  437MOL0     H57654   5.436  11.125  10.286 -1.1647 -0.0901  0.0537
  437MOL0     H57655   5.463  10.993  10.403  4.2597  0.0944 -1.2984
  437MOL0     H57656   5.593  11.134  10.555  0.2025  2.8621  1.3519
  437MOL0     H57657   5.681  11.108  10.411  0.4486  0.0433  0.8778
  437MOL0     H57658   5.538  11.357  10.488  0.6391 -1.2894  1.0808
  437MOL0     H57659   5.601  11.330  10.319  0.7883 -0.2981 -1.0139
  437MOL0     H57660   5.834  11.304  10.388  0.0851  0.8501 -0.8588
  437MOL0     H57661   5.783  11.307  10.565  0.3219  0.1225 -0.2819
  437MOL0     H57662   5.779  11.541  10.368  2.2590  1.0359  0.1599
  437MOL0     H57663   5.705  11.544  10.529  1.1027 -1.1017  2.3690
  437MOL0     H57664   5.923  11.481  10.620  2.9105 -2.5874 -1.2053
  437MOL0     H57665   5.926  11.630  10.545  1.4317  0.1373 -0.2590
  437MOL0     H57666   4.886  11.261  10.555  1.5764  0.0752  0.1267
  437MOL0     H57667   4.643  11.236  10.476 -1.7106 -0.2514 -0.5028
  437MOL0     H57668   4.303  10.754  10.463 -2.4849 -0.2963  0.0304
  437MOL0     H57669   4.057  10.751  10.426  1.5443  0.2152  0.9165
  437MOL0     H57670   2.280  10.910   9.603 -1.1401 -1.0063  0.6224
  437MOL0     H57671   2.080  10.796   9.507  1.4314 -0.5774 -0.5278
  437MOL0     H57672   1.834  10.506   9.295  0.4394 -1.6713 -2.0956
  437MOL0     H57673   1.623  10.405   9.241 -0.3733  0.6007 -1.5689
  437MOL0     H57674   1.287  10.619   9.058  0.3270 -0.3197  0.0729
  437MOL0     H57675   1.272  10.674   9.224  1.1350  0.7791 -0.8518
  437MOL0     H57676   1.087  10.523   9.149 -0.7292 -2.8392 -1.2178
  437MOL0     H57677   1.210  10.391   9.140 -2.0360 -1.0139  1.0479
  437MOL0     H57678   1.277  10.439   9.383 -0.7087 -2.8038 -1.1927
  437MOL0     H57679   1.124  10.360   9.358 -0.1510  0.6618 -1.3220
  437MOL0     H57680   1.104  10.541   9.527 -0.4360  0.7670 -0.0808
  437MOL0     H57681   1.162  10.661   9.403  1.4783 -0.8534 -0.4503
  437MOL0     H57682   0.758  10.560   9.304  0.9474 -1.0934 -1.0378
  437MOL0     H57683   1.455  10.797   9.188  1.1794  1.3500 -0.2731
  437MOL0     H57684   1.656  10.896   9.227 -1.4899  0.0080 -1.5837
  438MOL0     O57685   1.156  10.385   2.246  0.1517 -0.0227  0.7583
  438MOL0     C57686   1.242  10.407   2.337  0.2796  0.3206  1.1580
  438MOL0     O57687   1.210  10.450   2.462 -0.8829 -0.3417  0.4701
  438MOL0     C57688   1.088  10.406   2.499 -0.7142 -0.2089 -0.2505
  438MOL0     C57689   0.997  10.504   2.545  0.2777  0.6439  0.8329
  438MOL0     C57690   0.870  10.464   2.586  0.3489 -0.9520 -0.2057
  438MOL0     C57691   0.837  10.327   2.591  0.3878 -0.2646 -0.2034
  438MOL0     O57692   0.715  10.279   2.628  0.0291  0.0835  0.5808
  438MOL0     C57693   0.597  10.352   2.594  0.0260  0.1245  0.1615
  438MOL0     C57694   0.477  10.276   2.642 -0.0896  0.0640  0.6385
  438MOL0     C57695   0.355  10.365   2.635  0.4151 -0.2367  0.3986
  438MOL0     C57696   0.235  10.296   2.702 -0.5317 -0.4948  0.3701
  438MOL0     C57697   0.099  10.353   2.666 -0.1703 -0.5383  0.5691
  438MOL0     C57698  -0.026  10.281   2.725 -0.5092 -0.2008 -0.1043
  438MOL0     C57699  -0.156  10.343   2.681  0.3141  0.1379  0.2809
  438MOL0     C57700  -0.272  10.283   2.758 -0.5009  0.3074 -0.3067
  438MOL0     N57701  -0.402  10.317   2.694  0.1647 -1.0170  0.4170
  438MOL0     C57702  -0.488  10.415   2.746  0.4834 -0.5868  0.4824
  438MOL0     C57703  -0.565  10.444   2.635  0.0970 -0.5651 -1.2629
  438MOL0     C57704  -0.669  10.548   2.644  0.3196  0.4293 -0.6081
  438MOL0     C57705  -0.807  10.495   2.679 -1.0048  0.8892 -0.0885
  438MOL0     C57706  -0.907  10.606   2.683  0.3022 -0.0070  0.1729
  438MOL0     C57707  -1.041  10.561   2.733 -0.3510  1.0000  0.2257
  438MOL0     O57708  -1.113  10.466   2.656 -0.4440 -0.2511 -0.4130
  438MOL0     C57709  -1.249  10.449   2.684  1.3862 -0.0641 -0.0149
  438MOL0     C57710  -1.327  10.522   2.775  0.6742  0.0496  0.7934
  438MOL0     C57711  -1.458  10.476   2.807 -0.9427 -0.6563 -0.4352
  438MOL0     C57712  -1.526  10.378   2.729  0.9349 -0.2970 -1.1362
  438MOL0     C57713  -1.669  10.348   2.757 -0.7402 -0.0616 -0.2844
  438MOL0     O57714  -1.723  10.254   2.680  0.8419 -0.4993 -0.5317
  438MOL0     C57715  -1.849  10.205   2.713  0.1290  0.0411 -0.3732
  438MOL0     C57716  -1.937  10.195   2.611  0.2984 -0.0330 -0.7869
  438MOL0     C57717  -2.059  10.150   2.634 -0.0435  0.2806 -0.2018
  438MOL0     C57718  -2.106  10.098   2.753 -0.2779  0.3045 -0.3759
  438MOL0     O57719  -2.230  10.053   2.756  0.2005  0.0135  0.4190
  438MOL0     C57720  -2.332  10.123   2.682 -0.6336 -0.2465  0.5548
  438MOL0     C57721  -2.473  10.069   2.700 -0.1516 -0.0196  0.2664
  438MOL0     C57722  -2.521  10.063   2.837 -0.1669  0.0051  0.3512
  438MOL0     C57723  -2.675  10.056   2.856  0.1516 -0.6007  0.2588
  438MOL0     C57724  -2.711  10.072   3.001 -0.0004 -0.1972 -0.5622
  438MOL0     C57725  -2.863  10.068   3.025  0.0996 -0.4536  0.1922
  438MOL0     C57726  -2.940  10.170   2.944  0.3121  0.9091  0.4970
  438MOL0     C57727  -3.076  10.190   3.000  0.1264 -0.3437 -0.1639
  438MOL0    Cl57728  -3.192  10.259   2.878  0.4840 -0.1569  0.2052
  438MOL0     C57729  -2.017  10.097   2.867 -0.0753  0.2351  0.2708
  438MOL0     C57730  -1.883  10.146   2.836  0.8612 -0.0742  0.2673
  438MOL0     O57731  -1.714  10.397   2.855  0.4691 -0.0498 -0.4389
  438MOL0     C57732  -1.446  10.318   2.640  0.5816  0.4082 -0.2056
  438MOL0     C57733  -1.316  10.347   2.617 -0.2560 -0.1342  0.4354
  438MOL0     N57734  -0.525  10.369   2.527 -0.0179  0.1039 -0.4335
  438MOL0     N57735  -0.435  10.287   2.569  0.8145 -0.3632 -0.0205
  438MOL0     C57736   0.930  10.231   2.539  1.1491  0.1163 -0.3380
  438MOL0     C57737   1.055  10.266   2.504 -1.2066  0.2143 -0.2191
  438MOL0     C57738   1.381  10.410   2.293  0.5467  0.6172  0.8506
  438MOL0     C57739   1.479  10.474   2.356  0.1235  0.2410  0.5416
  438MOL0     C57740   1.616  10.467   2.326  0.4941  0.8692  0.1419
  438MOL0     C57741   1.654  10.379   2.219  0.0401 -0.3283  0.5069
  438MOL0     O57742   1.784  10.378   2.194 -0.0073 -0.2837 -0.2171
  438MOL0     C57743   1.832  10.293   2.085 -0.8747  0.1388 -0.4660
  438MOL0     C57744   1.989  10.286   2.071  0.3899 -0.0373 -0.3484
  438MOL0     C57745   2.068  10.230   2.190 -0.0794  0.4729 -0.7779
  438MOL0     C57746   2.220  10.217   2.177  1.5035 -0.5195 -0.9609
  438MOL0     C57747   2.276  10.348   2.136  0.3127 -0.0094 -0.5281
  438MOL0     C57748   2.322  10.452   2.089 -0.0000  0.3410 -0.3530
  438MOL0     C57749   1.555  10.326   2.137  0.1810 -0.0103  0.0201
  438MOL0     C57750   1.422  10.332   2.176 -0.2644 -1.3058 -0.2259
  438MOL0     H57751   1.022  10.609   2.552  1.0593  0.4954  0.3557
  438MOL0     H57752   0.795  10.536   2.618  2.9092  1.3591  0.9058
  438MOL0     H57753   0.598  10.392   2.492  0.0948  1.1360  0.5444
  438MOL0     H57754   0.605  10.433   2.667 -0.8880  1.1245 -0.8126
  438MOL0     H57755   0.501  10.234   2.740  0.6924 -1.2587 -0.0944
  438MOL0     H57756   0.469  10.194   2.571 -0.7800  1.3727 -0.8443
  438MOL0     H57757   0.337  10.390   2.531  0.8637  1.4215  0.6892
  438MOL0     H57758   0.385  10.459   2.683  1.6331 -0.5130  0.2110
  438MOL0     H57759   0.236  10.191   2.670  1.7976  0.1000 -1.8135
  438MOL0     H57760   0.233  10.311   2.810 -0.9743  2.6603  0.0095
  438MOL0     H57761   0.090  10.349   2.557 -0.2774 -1.2911  0.5985
  438MOL0     H57762   0.099  10.457   2.699 -0.9982 -0.6356  0.9059
  438MOL0     H57763  -0.028  10.276   2.835 -0.5584 -0.2826 -0.1088
  438MOL0     H57764  -0.030  10.180   2.684 -0.1730  0.6522 -2.3295
  438MOL0     H57765  -0.152  10.452   2.688  1.0368  0.0416  1.6605
  438MOL0     H57766  -0.186  10.327   2.577 -3.0666 -0.5948  1.2482
  438MOL0     H57767  -0.263  10.319   2.861  1.1959  2.9125 -1.2674
  438MOL0     H57768  -0.256  10.176   2.742 -1.0172  0.2024 -0.1678
  438MOL0     H57769  -0.484  10.479   2.834  0.3768  1.9403 -1.2442
  438MOL0     H57770  -0.684  10.574   2.539  0.1599 -1.1808 -1.0155
  438MOL0     H57771  -0.628  10.625   2.710  1.3097 -1.9298  1.7164
  438MOL0     H57772  -0.800  10.434   2.770  0.7182 -0.3030 -0.9661
  438MOL0     H57773  -0.830  10.416   2.607  2.1574 -0.4419  0.2124
  438MOL0     H57774  -0.882  10.690   2.748  1.2420  3.2044 -3.8947
  438MOL0     H57775  -0.926  10.641   2.581 -0.6926 -1.5373 -0.2062
  438MOL0     H57776  -1.088  10.660   2.746  3.1709  2.5844  2.4410
  438MOL0     H57777  -1.031  10.519   2.833  1.4399  0.0370 -0.3132
  438MOL0     H57778  -1.281  10.612   2.816  0.3289  1.0395 -0.9004
  438MOL0     H57779  -1.514  10.517   2.890  1.3535 -0.7269  1.2375
  438MOL0     H57780  -1.899  10.226   2.515  0.2958  1.2120 -0.4110
  438MOL0     H57781  -2.124  10.150   2.546 -3.2763 -1.3874  1.9681
  438MOL0     H57782  -2.318  10.109   2.575 -2.1996 -0.9175  0.4155
  438MOL0     H57783  -2.339  10.227   2.716 -0.4432 -0.1065  0.1730
  438MOL0     H57784  -2.498   9.969   2.662  0.1611 -0.7311  1.8684
  438MOL0     H57785  -2.529  10.142   2.641  1.7246  0.1144 -1.4948
  438MOL0     H57786  -2.483  10.145   2.900 -0.8560  0.2688  0.4293
  438MOL0     H57787  -2.459   9.988   2.887  0.5773  0.9755  0.9273
  438MOL0     H57788  -2.710  10.145   2.804  3.9255  1.3074  0.6539
  438MOL0     H57789  -2.728   9.970   2.814 -0.7330 -1.0687  2.2305
  438MOL0     H57790  -2.676  10.164   3.048 -2.9534  0.1771  1.1306
  438MOL0     H57791  -2.673   9.990   3.063 -0.4403 -0.8387 -1.1201
  438MOL0     H57792  -2.880  10.088   3.131 -0.4108  0.0875  0.0149
  438MOL0     H57793  -2.894   9.969   2.989 -0.4718 -0.5762  1.0133
  438MOL0     H57794  -2.891  10.267   2.933  0.0245  1.3527  2.6056
  438MOL0     H57795  -2.960  10.122   2.848  0.7632  1.8894 -0.0957
  438MOL0     H57796  -3.077  10.242   3.095  1.5172 -0.4011 -0.0960
  438MOL0     H57797  -3.110  10.088   3.021  0.3998 -0.4244 -0.1104
  438MOL0     H57798  -2.045  10.044   2.958  0.1074  0.4056  0.4279
  438MOL0     H57799  -1.805  10.129   2.910  0.6781 -1.1409  0.2308
  438MOL0     H57800  -1.494  10.248   2.572  3.5391 -0.8922 -1.1470
  438MOL0     H57801  -1.259  10.301   2.537 -1.7806 -0.9096 -0.2479
  438MOL0     H57802   0.888  10.132   2.522 -1.8675  0.9137  1.6405
  438MOL0     H57803   1.120  10.191   2.460  0.4459  0.7307  1.2580
  438MOL0     H57804   1.458  10.528   2.448  5.0541 -0.5364  2.4199
  438MOL0     H57805   1.702  10.505   2.381  2.5490  0.8805 -2.7971
  438MOL0     H57806   1.784  10.317   1.989 -3.3665  0.9105  0.8673
  438MOL0     H57807   1.805  10.190   2.108 -2.4676  0.8102  0.9210
  438MOL0     H57808   2.012  10.223   1.984  1.2550  0.0675 -0.2092
  438MOL0     H57809   2.023  10.387   2.048  2.1933 -0.6883 -0.7743
  438MOL0     H57810   2.038  10.125   2.191  0.6648  0.2453 -1.0299
  438MOL0     H57811   2.037  10.271   2.286  2.6056  2.3746 -0.6122
  438MOL0     H57812   2.256  10.201   2.279  0.4368  1.8842 -0.1210
  438MOL0     H57813   2.253  10.139   2.107  1.6224 -1.2503 -0.1094
  438MOL0     H57814   2.373  10.539   2.053  1.7052 -0.0405  1.0525
  438MOL0     H57815   1.573  10.263   2.051 -0.9200 -0.8922  0.4031
  438MOL0     H57816   1.340  10.282   2.125 -3.1898  0.2183  2.6025
  439MOL0     O57817   0.615   7.290   3.462 -0.5273  0.3836  0.2165
  439MOL0     C57818   0.674   7.397   3.484 -0.4478  0.6573  0.5095
  439MOL0     O57819   0.620   7.519   3.482  0.3236  0.2875  0.4244
  439MOL0     C57820   0.509   7.520   3.391 -0.8856 -0.3192 -0.2681
  439MOL0     C57821   0.520   7.593   3.266 -0.1103  0.3803 -0.2071
  439MOL0     C57822   0.406   7.610   3.189 -0.6989  0.2326  0.5884
  439MOL0     C57823   0.282   7.565   3.234  0.6518 -0.5844  0.2257
  439MOL0     O57824   0.187   7.590   3.131 -0.1004  0.0738  0.2298
  439MOL0     C57825   0.050   7.587   3.175 -0.3852  0.5996 -0.6419
  439MOL0     C57826  -0.053   7.611   3.076 -0.5831  0.6885 -0.5193
  439MOL0     C57827  -0.113   7.509   2.973  0.1215 -0.1940 -0.5375
  439MOL0     C57828  -0.192   7.405   3.039  0.2453 -0.1151 -0.5281
  439MOL0     C57829  -0.258   7.312   2.940  0.2036 -0.6436 -0.2580
  439MOL0     C57830  -0.339   7.205   3.003 -0.3202 -0.1541  0.1201
  439MOL0     C57831  -0.386   7.099   2.902 -0.0273  0.5130 -0.2811
  439MOL0     C57832  -0.480   7.003   2.970  0.3971 -0.2467 -0.3074
  439MOL0     N57833  -0.608   7.063   3.025 -0.1454  0.2165 -0.0980
  439MOL0     C57834  -0.734   7.018   2.985  0.0687  0.6623  0.2439
  439MOL0     C57835  -0.826   7.078   3.068 -1.1551 -0.2875 -0.0868
  439MOL0     C57836  -0.976   7.057   3.070 -0.4805  0.2621 -0.1802
  439MOL0     C57837  -1.068   7.167   3.124 -0.4394  0.0506  0.4239
  439MOL0     C57838  -1.214   7.133   3.109  0.5569 -0.6070 -0.0047
  439MOL0     C57839  -1.267   7.027   3.192  0.3323 -1.1014 -0.1970
  439MOL0     O57840  -1.409   7.014   3.168  0.4970  0.2546  0.6224
  439MOL0     C57841  -1.500   6.984   3.264 -0.0326  0.2002 -0.1256
  439MOL0     C57842  -1.466   6.959   3.396  0.6722  0.3603 -0.1494
  439MOL0     C57843  -1.574   6.923   3.486  0.0167  0.1875  0.3764
  439MOL0     C57844  -1.708   6.925   3.448 -0.0904 -0.6663 -0.6945
  439MOL0     C57845  -1.821   6.900   3.538 -0.0571  1.2326 -0.7138
  439MOL0     O57846  -1.788   6.886   3.677  0.2813 -0.3935 -0.1464
  439MOL0     C57847  -1.889   6.884   3.770 -0.9964 -0.0894  0.9082
  439MOL0     C57848  -1.879   6.787   3.874  0.2232 -0.6303 -0.5812
  439MOL0     C57849  -1.981   6.778   3.968 -1.3218  0.0647  1.2457
  439MOL0     C57850  -2.086   6.873   3.957  0.7951  0.2157  0.6035
  439MOL0     O57851  -2.179   6.851   4.061  0.2984 -0.4805  0.8438
  439MOL0     C57852  -2.316   6.869   4.022 -0.4601  0.4047  0.3658
  439MOL0     C57853  -2.402   6.820   4.138  0.4187 -1.2100  0.4340
  439MOL0     C57854  -2.416   6.674   4.134 -0.6055 -0.5053 -0.2900
  439MOL0     C57855  -2.497   6.640   4.262  0.0425 -0.0861  0.2670
  439MOL0     C57856  -2.506   6.492   4.300 -0.1044 -0.5929 -0.7122
  439MOL0     C57857  -2.561   6.458   4.441  0.3851 -0.2894  0.1000
  439MOL0     C57858  -2.584   6.305   4.454  0.1928 -0.4848 -0.5706
  439MOL0     C57859  -2.654   6.258   4.586 -1.3751 -0.7445  0.6200
  439MOL0    Cl57860  -2.797   6.351   4.612 -0.1279  0.1325 -0.1782
  439MOL0     C57861  -2.094   6.973   3.859 -0.5312 -0.2571 -0.5192
  439MOL0     C57862  -1.990   6.974   3.763  0.6623  0.4290  0.0914
  439MOL0     O57863  -1.929   6.870   3.484  0.4444 -1.0625  0.2033
  439MOL0     C57864  -1.732   6.958   3.309 -0.2785  0.3543 -0.9249
  439MOL0     C57865  -1.628   6.985   3.224 -0.1714  0.7962  0.3346
  439MOL0     N57866  -0.749   7.149   3.162  0.7111  0.2607 -0.0021
  439MOL0     N57867  -0.630   7.141   3.131 -0.5259  0.0060 -0.8886
  439MOL0     C57868   0.270   7.498   3.355 -0.1213  0.3008 -0.1147
  439MOL0     C57869   0.381   7.481   3.438 -0.2589  0.1660  0.0758
  439MOL0     C57870   0.808   7.375   3.546  0.3125 -0.1513 -1.1236
  439MOL0     C57871   0.840   7.248   3.591 -0.2300 -0.5160 -0.8264
  439MOL0     C57872   0.977   7.234   3.627  1.0379 -0.4122  0.5923
  439MOL0     C57873   1.064   7.339   3.625 -0.7011 -0.0350 -0.4648
  439MOL0     O57874   1.206   7.320   3.629 -0.1991 -0.6625 -0.5121
  439MOL0     C57875   1.249   7.194   3.587 -0.7659 -0.5757  0.3491
  439MOL0     C57876   1.399   7.171   3.602 -0.2039  0.0124  0.1508
  439MOL0     C57877   1.480   7.269   3.509  0.5120 -0.0768  0.1476
  439MOL0     C57878   1.624   7.234   3.489 -0.1207 -0.8381 -0.2400
  439MOL0     C57879   1.697   7.257   3.614  0.0094 -0.2676  0.4426
  439MOL0     C57880   1.756   7.288   3.712  0.0743 -0.5034  0.0658
  439MOL0     C57881   1.014   7.468   3.607 -1.0995  0.3215 -1.0609
  439MOL0     C57882   0.890   7.482   3.563 -0.1235  0.7100 -0.3387
  439MOL0     H57883   0.619   7.625   3.238 -0.5461  0.5625 -1.6044
  439MOL0     H57884   0.428   7.657   3.094  0.4467 -3.2205 -1.0339
  439MOL0     H57885   0.054   7.666   3.250 -2.7018 -1.4831  1.8849
  439MOL0     H57886   0.029   7.492   3.224 -0.3536  0.5624 -0.6998
  439MOL0     H57887  -0.020   7.701   3.022  2.4368 -0.5008 -0.8583
  439MOL0     H57888  -0.120   7.652   3.152  1.2860  1.1122  0.9732
  439MOL0     H57889  -0.031   7.464   2.916 -0.5065  1.0775 -2.5606
  439MOL0     H57890  -0.183   7.561   2.906 -1.5119 -0.9688  0.5007
  439MOL0     H57891  -0.122   7.343   3.097 -1.8372 -1.7636  0.3952
  439MOL0     H57892  -0.268   7.446   3.106  2.0095  1.5420  0.5586
  439MOL0     H57893  -0.181   7.256   2.885  0.3082  0.8724 -1.7599
  439MOL0     H57894  -0.332   7.356   2.872 -0.3511 -0.2479  0.5913
  439MOL0     H57895  -0.423   7.244   3.062 -0.8247 -0.2179 -0.5365
  439MOL0     H57896  -0.276   7.165   3.083  0.6535  1.8375  0.4017
  439MOL0     H57897  -0.426   7.148   2.812 -0.1898 -0.8845 -1.0123
  439MOL0     H57898  -0.303   7.036   2.869 -1.2990 -0.1544 -2.4406
  439MOL0     H57899  -0.432   6.953   3.055  0.0727  0.1811  0.1302
  439MOL0     H57900  -0.511   6.917   2.911  1.5722 -1.4215  0.6984
  439MOL0     H57901  -0.758   6.933   2.922  1.0632  0.6772 -0.1690
  439MOL0     H57902  -0.991   6.969   3.134  2.4811 -0.2334 -0.0224
  439MOL0     H57903  -1.005   7.034   2.967 -0.3655  4.3257 -1.3033
  439MOL0     H57904  -1.050   7.259   3.068 -1.7940  0.7260  1.0312
  439MOL0     H57905  -1.031   7.177   3.227 -2.0774 -1.8131  1.2672
  439MOL0     H57906  -1.267   7.221   3.145  0.2991 -0.4166 -0.8188
  439MOL0     H57907  -1.239   7.121   3.003  1.6683 -1.8505 -0.1458
  439MOL0     H57908  -1.231   7.041   3.295  3.6869 -2.1170 -1.1105
  439MOL0     H57909  -1.213   6.935   3.166  1.6094 -0.3357 -0.3660
  439MOL0     H57910  -1.370   6.958   3.447 -0.2246 -1.2080  1.6487
  439MOL0     H57911  -1.546   6.893   3.587  0.5167 -0.8599 -0.0467
  439MOL0     H57912  -1.793   6.723   3.887  1.3000  1.0727  1.1614
  439MOL0     H57913  -1.971   6.717   4.057  0.5886 -3.6533 -1.2605
  439MOL0     H57914  -2.336   6.813   3.930  1.4540  0.4330 -0.0999
  439MOL0     H57915  -2.330   6.976   4.006  3.1107  0.9486 -0.0059
  439MOL0     H57916  -2.500   6.869   4.136  1.6046  1.2993 -0.6252
  439MOL0     H57917  -2.347   6.851   4.228  0.4128  1.9201 -0.5093
  439MOL0     H57918  -2.322   6.619   4.149 -1.4111 -2.4063 -1.8469
  439MOL0     H57919  -2.466   6.625   4.050 -1.4980 -0.6092  0.2886
  439MOL0     H57920  -2.464   6.708   4.342  1.0434  3.2506 -2.7445
  439MOL0     H57921  -2.596   6.679   4.234 -0.2157 -0.1163  1.0967
  439MOL0     H57922  -2.404   6.453   4.296  0.6354  0.7848  1.9225
  439MOL0     H57923  -2.550   6.439   4.216  0.7185 -1.3627 -0.6710
  439MOL0     H57924  -2.650   6.519   4.456  0.0741 -0.4712 -0.9101
  439MOL0     H57925  -2.487   6.497   4.511  0.6521  0.8965 -0.8094
  439MOL0     H57926  -2.642   6.271   4.369 -0.1204 -0.0267 -0.5464
  439MOL0     H57927  -2.485   6.259   4.445  0.5365  0.1398 -0.1201
  439MOL0     H57928  -2.583   6.270   4.668  0.1852 -1.1489 -0.6351
  439MOL0     H57929  -2.675   6.151   4.576  1.8760 -1.2529 -2.2197
  439MOL0     H57930  -2.174   7.045   3.847  0.3624  0.6860 -1.0143
  439MOL0     H57931  -2.002   7.036   3.674 -0.3427  2.5838  1.6294
  439MOL0     H57932  -1.828   6.968   3.259 -0.3119  1.1556 -0.7199
  439MOL0     H57933  -1.659   7.009   3.123 -1.8636  0.0433  0.6458
  439MOL0     H57934   0.177   7.447   3.376  0.3261 -0.7993 -0.6917
  439MOL0     H57935   0.373   7.438   3.538 -1.4510  2.3654  1.0132
  439MOL0     H57936   0.770   7.165   3.591 -1.3319  0.3797 -1.3918
  439MOL0     H57937   1.011   7.136   3.658  1.0786 -0.4037  0.5749
  439MOL0     H57938   1.226   7.191   3.480  1.3585 -0.1352 -0.1604
  439MOL0     H57939   1.200   7.116   3.646  0.6257 -1.2618  0.6461
  439MOL0     H57940   1.438   7.186   3.702  1.6900 -1.4496 -0.3204
  439MOL0     H57941   1.419   7.068   3.573  1.0190  0.1143  0.6053
  439MOL0     H57942   1.466   7.370   3.550  0.3014  0.1785 -0.5359
  439MOL0     H57943   1.436   7.255   3.410  0.2421 -2.1462  0.5319
  439MOL0     H57944   1.638   7.133   3.451  0.6800 -1.2898  1.1562
  439MOL0     H57945   1.668   7.297   3.412  1.7104  0.2741  1.5884
  439MOL0     H57946   1.804   7.321   3.802 -0.2585  1.5331 -0.4688
  439MOL0     H57947   1.090   7.545   3.612 -0.6629 -0.1373  2.6944
  439MOL0     H57948   0.863   7.583   3.534  1.5741  1.7403  1.4164
  440MOL0     O57949   5.799   8.074   4.216 -0.2532 -0.1211 -0.6451
  440MOL0     C57950   5.847   8.153   4.301 -0.3006 -0.0314 -0.1056
  440MOL0     O57951   5.774   8.244   4.369 -0.8516  0.3780  0.5073
  440MOL0     C57952   5.647   8.274   4.332 -0.3689  0.6511 -0.7444
  440MOL0     C57953   5.607   8.294   4.198  0.1648  0.3588  0.0781
  440MOL0     C57954   5.477   8.335   4.172 -0.5065  0.0302  0.9355
  440MOL0     C57955   5.381   8.349   4.267 -0.6112 -0.2454 -0.7087
  440MOL0     O57956   5.246   8.370   4.252 -0.5666  0.2111  0.0270
  440MOL0     C57957   5.191   8.344   4.125  0.5106 -0.0831 -0.1520
  440MOL0     C57958   5.053   8.394   4.129  0.7603  0.4375 -0.3717
  440MOL0     C57959   4.977   8.338   4.258  0.1956 -0.4991  0.8042
  440MOL0     C57960   4.842   8.413   4.285  0.6143  0.2627  0.0813
  440MOL0     C57961   4.746   8.403   4.164  0.1639  0.0075 -0.0676
  440MOL0     C57962   4.607   8.449   4.210  0.6149 -0.4142 -0.2671
  440MOL0     C57963   4.497   8.424   4.099 -0.2257 -0.4709 -0.9611
  440MOL0     C57964   4.358   8.468   4.152  0.5376 -0.0579 -0.0366
  440MOL0     N57965   4.250   8.434   4.060 -0.3427 -0.2283  0.0506
  440MOL0     C57966   4.223   8.503   3.947 -0.3424  0.7004  0.0149
  440MOL0     C57967   4.124   8.440   3.882 -0.7059  0.5983  0.1422
  440MOL0     C57968   4.052   8.475   3.756  0.0897  0.6863  0.1740
  440MOL0     C57969   3.912   8.515   3.794  1.4526 -0.2613  0.7501
  440MOL0     C57970   3.834   8.600   3.675  0.2652 -0.6290 -0.0562
  440MOL0     C57971   3.838   8.533   3.529  0.1573  0.0528 -0.3555
  440MOL0     O57972   3.772   8.605   3.430 -0.0639  0.0809 -0.2015
  440MOL0     C57973   3.644   8.643   3.466 -0.4215 -0.4422  0.5008
  440MOL0     C57974   3.620   8.780   3.456  0.3997  0.5976 -0.7776
  440MOL0     C57975   3.490   8.825   3.481 -0.2517  0.2741 -0.9318
  440MOL0     C57976   3.373   8.743   3.498  0.6176  0.2006 -0.0576
  440MOL0     C57977   3.233   8.796   3.522  0.8152  1.0066  0.0787
  440MOL0     O57978   3.142   8.702   3.560 -0.2707  0.2714 -0.0598
  440MOL0     C57979   3.025   8.748   3.621 -0.8559  0.5510 -0.8830
  440MOL0     C57980   3.019   8.834   3.731 -0.0262 -0.7567  0.7952
  440MOL0     C57981   2.899   8.861   3.796  0.3865 -0.1723 -0.3011
  440MOL0     C57982   2.778   8.792   3.765  0.0685  0.0252 -0.2491
  440MOL0     O57983   2.665   8.818   3.833  0.5859  0.2594  0.3581
  440MOL0     C57984   2.548   8.730   3.837 -0.0684  0.1584 -0.8959
  440MOL0     C57985   2.440   8.799   3.922  0.3486  0.7361 -0.5961
  440MOL0     C57986   2.306   8.717   3.922 -0.7988 -0.6528  0.0547
  440MOL0     C57987   2.194   8.789   4.002  0.4506  0.8510  0.6785
  440MOL0     C57988   2.064   8.725   3.954  0.0076  0.5606 -0.0199
  440MOL0     C57989   2.028   8.605   4.051  0.4427  0.2391 -0.1961
  440MOL0     C57990   1.910   8.516   3.991  0.3314 -1.1161 -0.5983
  440MOL0     C57991   1.782   8.586   3.942  0.6554  0.0378 -0.1883
  440MOL0    Cl57992   1.712   8.657   4.091  0.2175 -0.3017  0.3134
  440MOL0     C57993   2.782   8.726   3.647 -0.5426 -0.4517  0.7587
  440MOL0     C57994   2.902   8.700   3.571 -0.2465 -0.1397 -0.6407
  440MOL0     O57995   3.214   8.914   3.515 -0.1769  0.2065  0.4827
  440MOL0     C57996   3.412   8.602   3.519  0.0580 -0.6860  0.4232
  440MOL0     C57997   3.545   8.555   3.495  1.0346  0.3410 -0.7337
  440MOL0     N57998   4.090   8.335   3.967 -0.7624 -0.2251  0.3669
  440MOL0     N57999   4.163   8.329   4.078 -0.2024  0.2918  0.5721
  440MOL0     C58000   5.411   8.320   4.401 -0.6579 -0.0528  0.6027
  440MOL0     C58001   5.546   8.282   4.433  0.1856  0.4652  0.8485
  440MOL0     C58002   5.992   8.153   4.334  0.1304  0.4929 -0.6442
  440MOL0     C58003   6.039   8.261   4.415 -0.2151  0.7680  0.1680
  440MOL0     C58004   6.174   8.274   4.436 -0.1941 -0.0142 -0.5438
  440MOL0     C58005   6.260   8.174   4.390  0.3073  1.0398  0.0164
  440MOL0     O58006   6.390   8.160   4.427 -0.5170  0.0198 -0.2040
  440MOL0     C58007   6.435   8.220   4.553  0.2935 -0.2038  0.3629
  440MOL0     C58008   6.368   8.140   4.664 -0.4695 -0.5944 -0.7644
  440MOL0     C58009   6.445   8.167   4.800  0.3149  0.2351  0.3164
  440MOL0     C58010   6.544   8.058   4.845 -0.5085 -0.1027  0.3990
  440MOL0     C58011   6.676   8.078   4.777  0.3962  0.3455 -0.1785
  440MOL0     C58012   6.776   8.113   4.724 -0.3565  0.0848 -1.4262
  440MOL0     C58013   6.215   8.069   4.300 -0.5693  0.2472 -0.3438
  440MOL0     C58014   6.083   8.057   4.285  1.0085 -0.0512 -0.2839
  440MOL0     H58015   5.675   8.288   4.114 -0.5805  0.3537 -0.5364
  440MOL0     H58016   5.457   8.337   4.065  0.1497 -1.5663  0.7467
  440MOL0     H58017   5.192   8.239   4.094 -1.2707  0.1364 -1.0506
  440MOL0     H58018   5.241   8.404   4.048  0.3858  1.0083  0.5926
  440MOL0     H58019   4.999   8.354   4.042  0.0507 -0.1162  0.3128
  440MOL0     H58020   5.051   8.504   4.126  3.9605  0.5847 -0.1996
  440MOL0     H58021   5.035   8.354   4.350  1.7335 -1.7177  0.0852
  440MOL0     H58022   4.955   8.231   4.247  1.8809 -0.7851 -0.0633
  440MOL0     H58023   4.788   8.366   4.369  1.6439 -2.6965 -0.7794
  440MOL0     H58024   4.853   8.520   4.302 -1.6727  0.8952 -1.8317
  440MOL0     H58025   4.751   8.296   4.139  0.0388  0.3632 -1.7248
  440MOL0     H58026   4.777   8.461   4.077 -3.4007 -0.0630 -1.5536
  440MOL0     H58027   4.602   8.552   4.245 -1.1074 -0.4938 -0.1522
  440MOL0     H58028   4.577   8.398   4.302  1.3799  2.2042  1.5351
  440MOL0     H58029   4.526   8.485   4.013  2.3954 -2.2579 -1.4635
  440MOL0     H58030   4.490   8.317   4.077  0.9593 -1.1602  1.5594
  440MOL0     H58031   4.352   8.577   4.160  2.5793  0.2292 -1.5849
  440MOL0     H58032   4.341   8.424   4.251 -1.3817  0.2023 -0.2080
  440MOL0     H58033   4.275   8.594   3.918  2.0517 -1.0231 -1.4782
  440MOL0     H58034   4.058   8.395   3.683 -0.8956 -1.0114  1.8600
  440MOL0     H58035   4.098   8.558   3.703 -4.3371  3.2764 -0.1533
  440MOL0     H58036   3.900   8.575   3.885  0.9555  0.5122  0.1931
  440MOL0     H58037   3.856   8.422   3.806  0.6999 -0.2058 -1.7302
  440MOL0     H58038   3.729   8.614   3.702 -0.2472 -0.1038 -2.1488
  440MOL0     H58039   3.881   8.698   3.662  1.6197 -1.1477  0.7330
  440MOL0     H58040   3.792   8.434   3.539 -1.1171  0.8180  2.1118
  440MOL0     H58041   3.938   8.519   3.487 -0.6215 -0.5020 -2.1430
  440MOL0     H58042   3.704   8.847   3.439 -0.2241  1.0634 -2.0996
  440MOL0     H58043   3.477   8.930   3.459 -2.3718 -0.2512 -2.5650
  440MOL0     H58044   3.108   8.880   3.775 -2.7841  3.3893  2.7236
  440MOL0     H58045   2.905   8.937   3.874 -3.5616  0.4934 -0.4228
  440MOL0     H58046   2.567   8.638   3.894 -2.2534  0.7862  1.0061
  440MOL0     H58047   2.504   8.706   3.740  3.3969 -0.9338 -2.3567
  440MOL0     H58048   2.425   8.901   3.886 -1.9692  0.3870 -0.7163
  440MOL0     H58049   2.467   8.804   4.028 -0.2004  0.7714 -0.4589
  440MOL0     H58050   2.324   8.617   3.961 -1.8046 -1.2148 -0.8561
  440MOL0     H58051   2.272   8.702   3.819 -3.3943 -4.8026  1.2743
  440MOL0     H58052   2.219   8.764   4.106 -0.5743  0.3018  0.8098
  440MOL0     H58053   2.201   8.896   3.982 -0.0376  1.4958  3.4500
  440MOL0     H58054   2.083   8.692   3.852  0.8001 -0.6509  0.4979
  440MOL0     H58055   1.985   8.801   3.956 -1.3305 -0.7824 -0.1481
  440MOL0     H58056   1.994   8.650   4.144 -1.0427  1.5409 -1.3011
  440MOL0     H58057   2.116   8.547   4.078 -0.9743 -1.2536  1.4839
  440MOL0     H58058   1.953   8.468   3.902 -0.2174  0.2140 -1.6208
  440MOL0     H58059   1.872   8.449   4.068 -1.2792  2.7698  2.3517
  440MOL0     H58060   1.702   8.525   3.900 -1.4957  1.0897  2.1295
  440MOL0     H58061   1.804   8.658   3.862 -2.7240  0.1094 -1.2029
  440MOL0     H58062   2.696   8.671   3.611 -1.4625  0.9801  0.6932
  440MOL0     H58063   2.906   8.639   3.482  1.1682 -1.3402  0.1933
  440MOL0     H58064   3.342   8.525   3.552  0.4278  0.0520  3.2438
  440MOL0     H58065   3.569   8.449   3.496  0.9934  0.3311 -0.7967
  440MOL0     H58066   5.336   8.309   4.478  0.2086  0.5218  1.5632
  440MOL0     H58067   5.571   8.244   4.532  0.2835 -0.2145  0.5683
  440MOL0     H58068   5.970   8.333   4.459 -1.1208 -0.8646  1.5734
  440MOL0     H58069   6.225   8.353   4.490 -0.7564  1.9748 -2.7917
  440MOL0     H58070   6.397   8.321   4.571  1.1905  0.4630 -1.3190
  440MOL0     H58071   6.543   8.216   4.570  0.1869  0.1368  1.1850
  440MOL0     H58072   6.263   8.169   4.671 -0.5430 -0.6817 -1.4508
  440MOL0     H58073   6.366   8.034   4.635 -0.7024 -1.0605  0.8708
  440MOL0     H58074   6.370   8.177   4.879  1.7221 -0.9576  1.9073
  440MOL0     H58075   6.497   8.263   4.804  0.6711  0.0352  0.6209
  440MOL0     H58076   6.562   8.076   4.952 -0.3054  0.7169  0.2364
  440MOL0     H58077   6.502   7.959   4.829  0.0439 -0.3955  0.7086
  440MOL0     H58078   6.860   8.144   4.665 -0.4188  1.0296 -1.0213
  440MOL0     H58079   6.277   7.995   4.251 -0.3931  0.8099 -1.0076
  440MOL0     H58080   6.031   7.983   4.225 -0.1042  1.9668 -1.9424
  441MOL0     O58081   3.930   6.683   3.411  0.1693  0.7247 -0.7036
  441MOL0     C58082   3.982   6.588   3.471  0.5775 -1.1131 -0.6072
  441MOL0     O58083   3.917   6.493   3.541  0.1829  0.2581 -1.0850
  441MOL0     C58084   3.774   6.493   3.552 -0.1976  0.3875  0.2446
  441MOL0     C58085   3.728   6.431   3.664  0.0180 -0.1276 -0.5749
  441MOL0     C58086   3.593   6.419   3.689  0.9625  1.0273 -0.3332
  441MOL0     C58087   3.499   6.461   3.598 -0.3971  0.0676 -0.1039
  441MOL0     O58088   3.364   6.458   3.634 -0.8545 -0.5919  0.2216
  441MOL0     C58089   3.264   6.549   3.578  0.4420 -0.5064 -0.1979
  441MOL0     C58090   3.147   6.586   3.680  0.2144 -0.0015 -0.9016
  441MOL0     C58091   3.037   6.662   3.613  0.9289 -0.5565  0.0577
  441MOL0     C58092   2.924   6.700   3.713  0.0741  0.4671 -0.4621
  441MOL0     C58093   2.796   6.760   3.651  0.3050  0.2928 -0.4047
  441MOL0     C58094   2.695   6.804   3.761  0.0363  0.2161  0.3984
  441MOL0     C58095   2.567   6.882   3.719 -0.7251  0.1603  0.2778
  441MOL0     C58096   2.483   6.806   3.627 -0.4268 -0.5969  1.1943
  441MOL0     N58097   2.342   6.858   3.629  0.1465  0.2085  0.2920
  441MOL0     C58098   2.293   6.960   3.543 -1.2420 -0.2026  0.9041
  441MOL0     C58099   2.169   6.980   3.581 -0.3616  0.3603 -0.8419
  441MOL0     C58100   2.072   7.066   3.508 -0.7515 -1.4032 -0.1130
  441MOL0     C58101   2.058   7.018   3.368  1.0516 -0.3169 -0.7746
  441MOL0     C58102   1.953   7.103   3.297 -0.3140  0.1954 -0.3472
  441MOL0     C58103   1.935   7.062   3.148 -0.2207 -0.7696 -0.8998
  441MOL0     O58104   1.818   7.121   3.100 -0.5917 -0.5796  0.3616
  441MOL0     C58105   1.697   7.087   3.146  1.0904  0.5702 -0.1992
  441MOL0     C58106   1.595   7.183   3.114  0.1625  0.0762  0.0499
  441MOL0     C58107   1.464   7.158   3.154  0.5114  0.7610 -0.3089
  441MOL0     C58108   1.426   7.028   3.205 -0.6080 -0.3060 -0.2056
  441MOL0     C58109   1.284   6.996   3.239  0.0651 -0.1689 -0.4861
  441MOL0     O58110   1.262   6.873   3.303 -0.6597  0.8642  0.1736
  441MOL0     C58111   1.129   6.842   3.322 -0.2721  0.3168  0.3276
  441MOL0     C58112   1.050   6.898   3.427  0.9525 -0.0954  0.2470
  441MOL0     C58113   0.917   6.869   3.440  0.0924  1.0770 -0.1210
  441MOL0     C58114   0.852   6.793   3.344  0.2228  0.4502 -0.0969
  441MOL0     O58115   0.714   6.782   3.351 -0.4083  0.2216  0.6965
  441MOL0     C58116   0.630   6.881   3.411  1.4520  0.2963  0.0757
  441MOL0     C58117   0.484   6.830   3.423 -0.0588 -0.6008 -0.3686
  441MOL0     C58118   0.397   6.931   3.493  1.1926 -0.8799 -0.3991
  441MOL0     C58119   0.247   6.886   3.514 -0.0590 -0.1343  0.5818
  441MOL0     C58120   0.172   6.981   3.614 -0.1494  0.5659  0.3879
  441MOL0     C58121   0.224   6.970   3.761  0.3388  0.5748  0.3888
  441MOL0     C58122   0.120   7.014   3.866 -0.1529 -0.2799 -0.7249
  441MOL0     C58123   0.175   7.108   3.979 -0.0610 -0.3963  0.2583
  441MOL0    Cl58124   0.078   7.073   4.130 -0.0497  0.3511 -0.1319
  441MOL0     C58125   0.927   6.745   3.235  0.1280 -1.0413  0.3460
  441MOL0     C58126   1.067   6.757   3.227 -0.1459  0.5514  0.1509
  441MOL0     O58127   1.195   7.086   3.219 -0.6091 -0.6878 -0.5537
  441MOL0     C58128   1.525   6.930   3.230  0.4189  0.1639 -0.0118
  441MOL0     C58129   1.655   6.956   3.198 -0.1194  0.5053  0.6482
  441MOL0     N58130   2.136   6.895   3.685 -0.0571  1.7704 -1.0693
  441MOL0     N58131   2.237   6.819   3.710 -0.2082  0.0598  0.5238
  441MOL0     C58132   3.546   6.513   3.477  0.4925 -0.0917  0.5574
  441MOL0     C58133   3.678   6.535   3.457 -0.5935 -0.2317 -0.4350
  441MOL0     C58134   4.133   6.561   3.471  0.1576 -0.5923  1.3603
  441MOL0     C58135   4.222   6.670   3.432 -0.1732 -0.0869 -0.6805
  441MOL0     C58136   4.363   6.640   3.432  0.5200  0.0727  0.5156
  441MOL0     C58137   4.410   6.509   3.434 -0.8722  0.5336 -0.2693
  441MOL0     O58138   4.538   6.470   3.425  0.3095  0.0627  0.0617
  441MOL0     C58139   4.626   6.559   3.351 -0.4658 -0.5688 -0.6228
  441MOL0     C58140   4.759   6.487   3.335  1.0818 -0.4499  1.1032
  441MOL0     C58141   4.862   6.552   3.425 -1.1311 -0.2099  0.7231
  441MOL0     C58142   5.001   6.516   3.378 -0.0382 -0.0477  0.6624
  441MOL0     C58143   5.029   6.378   3.419  0.5367 -0.6445  0.2524
  441MOL0     C58144   5.066   6.266   3.460 -0.7053  0.0877  0.1245
  441MOL0     C58145   4.322   6.403   3.470  0.0907  0.0726 -0.5924
  441MOL0     C58146   4.185   6.431   3.488  0.4857  0.7894 -0.3497
  441MOL0     H58147   3.795   6.379   3.733  0.0529  0.9645  0.2357
  441MOL0     H58148   3.554   6.354   3.767  1.6109  2.5675  1.3296
  441MOL0     H58149   3.227   6.498   3.489  0.6606  0.4761 -0.8656
  441MOL0     H58150   3.315   6.642   3.551  0.9121  0.3496  3.1857
  441MOL0     H58151   3.198   6.654   3.749 -1.4378  0.0130  0.3719
  441MOL0     H58152   3.103   6.502   3.736 -1.8989  2.8228  2.0476
  441MOL0     H58153   2.995   6.587   3.545 -1.3736 -0.0277  0.7870
  441MOL0     H58154   3.074   6.747   3.556 -0.0043  1.3400  2.1389
  441MOL0     H58155   2.896   6.615   3.776 -0.8567  1.9619  1.2389
  441MOL0     H58156   2.966   6.770   3.786  4.2071 -0.7731 -1.3952
  441MOL0     H58157   2.745   6.691   3.584  3.3627 -0.7432 -1.8557
  441MOL0     H58158   2.830   6.852   3.603  1.0167 -0.0548 -0.5867
  441MOL0     H58159   2.757   6.867   3.826  0.6183  1.5556 -1.3934
  441MOL0     H58160   2.657   6.717   3.816 -2.9890  2.3092  1.8877
  441MOL0     H58161   2.507   6.892   3.810 -1.0198 -0.3111  0.1404
  441MOL0     H58162   2.585   6.980   3.672  0.8376 -1.1194 -2.0106
  441MOL0     H58163   2.492   6.700   3.654  1.1979 -0.7432  0.2254
  441MOL0     H58164   2.513   6.819   3.522  0.5043  0.3720  1.5724
  441MOL0     H58165   2.356   7.013   3.472 -0.4539 -1.5380  0.5913
  441MOL0     H58166   2.112   7.167   3.511  0.2567 -1.6758 -2.2611
  441MOL0     H58167   1.972   7.050   3.550 -1.5355 -0.8819 -1.7130
  441MOL0     H58168   2.026   6.914   3.358 -0.4704  0.2234 -1.7858
  441MOL0     H58169   2.156   7.017   3.318  0.9450  0.7444 -1.0272
  441MOL0     H58170   1.861   7.088   3.355  0.1524 -2.0096 -0.1056
  441MOL0     H58171   1.994   7.204   3.301  1.0904 -0.3642 -0.1050
  441MOL0     H58172   1.934   6.955   3.127 -0.1377 -1.0610  0.4912
  441MOL0     H58173   2.024   7.104   3.101  0.6679  1.1021  2.1708
  441MOL0     H58174   1.634   7.274   3.069  1.3469 -0.3742  0.1289
  441MOL0     H58175   1.380   7.226   3.145 -1.2377 -0.9839  1.7481
  441MOL0     H58176   1.099   6.955   3.505  1.6368 -0.1256 -0.1532
  441MOL0     H58177   0.867   6.917   3.524  0.3541  1.6006 -0.2614
  441MOL0     H58178   0.629   6.971   3.350 -1.1211  0.0771 -0.3432
  441MOL0     H58179   0.661   6.905   3.513  0.7116  0.8000  0.1926
  441MOL0     H58180   0.479   6.733   3.472 -3.3163  0.7324  2.4385
  441MOL0     H58181   0.443   6.828   3.321 -2.1953  3.0703  0.2058
  441MOL0     H58182   0.406   7.027   3.442 -2.2690 -0.9248 -1.3437
  441MOL0     H58183   0.433   6.947   3.596 -2.6722 -1.2493  1.1746
  441MOL0     H58184   0.189   6.884   3.421 -1.1195 -2.1145  1.2242
  441MOL0     H58185   0.247   6.787   3.562 -1.8229  0.0013  0.9086
  441MOL0     H58186   0.066   6.952   3.612 -0.0314  0.1509 -0.1182
  441MOL0     H58187   0.189   7.082   3.575 -0.2625 -0.5250 -2.7846
  441MOL0     H58188   0.318   7.023   3.781 -0.1320  1.4898  0.2412
  441MOL0     H58189   0.246   6.865   3.783  2.2077  1.1144  1.3450
  441MOL0     H58190   0.031   7.061   3.825 -0.6100  1.6856  2.2010
  441MOL0     H58191   0.082   6.926   3.919 -1.5914  0.6784 -0.1132
  441MOL0     H58192   0.158   7.211   3.946  1.0841  0.9663  3.5032
  441MOL0     H58193   0.282   7.093   3.994 -0.6524 -1.6976  4.4292
  441MOL0     H58194   0.876   6.689   3.157 -0.9799  0.0704  0.2464
  441MOL0     H58195   1.116   6.714   3.141 -0.4978  1.4993 -0.5377
  441MOL0     H58196   1.499   6.830   3.261  0.8553 -0.2552 -0.9591
  441MOL0     H58197   1.732   6.879   3.201 -0.9246 -0.3008  2.4549
  441MOL0     H58198   3.480   6.548   3.398 -0.6369  1.0162  1.9441
  441MOL0     H58199   3.705   6.588   3.367 -0.7058  3.3317  1.4413
  441MOL0     H58200   4.186   6.772   3.431  0.2844  0.1716  1.7841
  441MOL0     H58201   4.434   6.722   3.429  1.8996 -1.1132 -0.6895
  441MOL0     H58202   4.635   6.647   3.415 -2.6011  0.1170 -1.1950
  441MOL0     H58203   4.576   6.587   3.258 -0.5649 -1.8356 -0.9787
  441MOL0     H58204   4.734   6.382   3.354  1.5425 -0.7873 -0.1215
  441MOL0     H58205   4.781   6.497   3.229 -4.2494 -0.3927 -0.2878
  441MOL0     H58206   4.849   6.506   3.524 -0.4897  0.2233  1.0093
  441MOL0     H58207   4.854   6.661   3.427  1.4434  0.0348  1.5249
  441MOL0     H58208   5.002   6.517   3.269  2.9450 -0.3096  0.6133
  441MOL0     H58209   5.080   6.582   3.416  0.8082 -2.0772  2.7060
  441MOL0     H58210   5.096   6.167   3.487 -1.3380  0.0287  0.6513
  441MOL0     H58211   4.369   6.305   3.475 -0.3730 -0.1275  4.0888
  441MOL0     H58212   4.115   6.354   3.520  1.2923  1.0686  2.3380
  442MOL0     O58213   8.380   0.553   6.645  0.7299 -0.0881 -0.1752
  442MOL0     C58214   8.371   0.538   6.765 -0.5368  0.2084  0.5857
  442MOL0     O58215   8.276   0.481   6.831  0.1441  0.0759 -0.0485
  442MOL0     C58216   8.180   0.405   6.771  0.6366 -0.7148  0.5718
  442MOL0     C58217   8.189   0.345   6.641  0.6221  0.2050 -0.4347
  442MOL0     C58218   8.089   0.252   6.607 -0.5148 -0.8114 -0.4841
  442MOL0     C58219   7.979   0.221   6.691  0.5894  0.0459  0.0468
  442MOL0     O58220   7.891   0.129   6.640  0.1250 -0.0012  0.1476
  442MOL0     C58221   7.766   0.092   6.710 -0.2604  0.0181 -0.1423
  442MOL0     C58222   7.648   0.172   6.661  0.4779 -0.8185  0.6267
  442MOL0     C58223   7.518   0.110   6.698 -0.9619  0.2189  0.0340
  442MOL0     C58224   7.388   0.181   6.641 -0.2085 -0.5091 -0.1685
  442MOL0     C58225   7.269   0.110   6.716  0.6566 -1.4395 -0.2011
  442MOL0     C58226   7.137   0.194   6.691  0.5525  0.0222 -0.0218
  442MOL0     C58227   7.011   0.179   6.781 -0.2265  0.8073 -0.4542
  442MOL0     C58228   6.907   0.292   6.754  0.3734 -0.5865  0.2799
  442MOL0     N58229   6.886   0.310   6.613  0.7627 -0.5540  0.5325
  442MOL0     C58230   6.789   0.236   6.535 -0.4450  0.2117  0.1781
  442MOL0     C58231   6.809   0.282   6.409  0.4122 -0.2957  0.3919
  442MOL0     C58232   6.761   0.211   6.286 -0.1606 -0.4004  0.1020
  442MOL0     C58233   6.835   0.078   6.269  0.2035 -0.5316  0.5118
  442MOL0     C58234   6.988   0.091   6.273  0.2595  0.4121  0.4657
  442MOL0     C58235   7.036   0.168   6.156 -0.0787  0.3289 -1.8160
  442MOL0     O58236   7.175   0.138   6.146 -0.1641 -0.2128 -0.0573
  442MOL0     C58237   7.270   0.225   6.189 -0.3131  0.3797 -1.1530
  442MOL0     C58238   7.261   0.327   6.289  0.6951  0.0298 -0.0130
  442MOL0     C58239   7.378   0.390   6.332 -0.3319 -0.3625 -0.3039
  442MOL0     C58240   7.504   0.370   6.267 -0.6757 -0.2198 -0.1780
  442MOL0     C58241   7.618   0.461   6.291  0.4239 -0.2378 -0.2314
  442MOL0     O58242   7.598   0.558   6.396 -0.1031  0.4840  0.5647
  442MOL0     C58243   7.711   0.614   6.454 -0.1083  0.5588  0.3614
  442MOL0     C58244   7.843   0.563   6.480  0.0207  0.1607  0.3541
  442MOL0     C58245   7.952   0.643   6.534 -0.0593 -0.1362  0.0775
  442MOL0     C58246   7.924   0.768   6.578 -0.1015  0.1769  0.2454
  442MOL0     O58247   8.018   0.852   6.632 -0.5405  0.5137  0.1937
  442MOL0     C58248   8.163   0.822   6.624  0.2046  0.3790  0.2961
  442MOL0     C58249   8.243   0.946   6.667 -0.2330 -0.2660 -0.6669
  442MOL0     C58250   8.385   0.902   6.706 -0.3176  0.1845 -0.1151
  442MOL0     C58251   8.476   1.023   6.724  0.4642  0.6820  0.3448
  442MOL0     C58252   8.600   0.992   6.795 -0.2126 -0.0336  0.3509
  442MOL0     C58253   8.692   1.111   6.802 -0.1223  0.4643  1.2645
  442MOL0     C58254   8.816   1.063   6.867  0.8226 -0.3973 -0.1325
  442MOL0     C58255   8.923   1.171   6.836  0.0132 -0.3053 -0.5815
  442MOL0    Cl58256   9.078   1.132   6.930  0.3689  0.2870  0.9587
  442MOL0     C58257   7.798   0.820   6.557 -0.4717  0.3591 -0.1622
  442MOL0     C58258   7.689   0.747   6.500  1.0032  0.4394  0.0994
  442MOL0     O58259   7.724   0.432   6.237 -0.0484  0.1186 -0.8288
  442MOL0     C58260   7.505   0.281   6.168 -0.9161  0.0295  0.8717
  442MOL0     C58261   7.393   0.201   6.136  0.7359 -0.0625 -0.1877
  442MOL0     N58262   6.901   0.386   6.405  0.1424  0.2025  0.6424
  442MOL0     N58263   6.945   0.410   6.530 -0.4275 -0.1169  0.4136
  442MOL0     C58264   7.962   0.289   6.810 -0.1712 -0.1361  0.6021
  442MOL0     C58265   8.072   0.371   6.852 -0.0607  0.4117 -0.2498
  442MOL0     C58266   8.486   0.588   6.859 -0.2462  0.0536  0.7740
  442MOL0     C58267   8.462   0.614   6.993  0.2507 -1.1497 -0.5297
  442MOL0     C58268   8.563   0.678   7.071 -0.0591  0.5470  0.3874
  442MOL0     C58269   8.696   0.695   7.019  0.2786 -0.2156 -0.3127
  442MOL0     O58270   8.794   0.749   7.100 -0.8389 -0.3675 -0.6144
  442MOL0     C58271   8.930   0.706   7.082 -0.4513 -0.1426 -0.7954
  442MOL0     C58272   9.024   0.758   7.190 -0.2594  0.1123  0.7151
  442MOL0     C58273   9.013   0.917   7.183 -0.0263  0.2825  0.3449
  442MOL0     C58274   9.118   0.985   7.283  0.2360  0.0627  0.4051
  442MOL0     C58275   9.257   0.966   7.230 -0.0818 -0.1822 -0.6021
  442MOL0     C58276   9.365   0.961   7.161  0.2605  0.5842  0.4172
  442MOL0     C58277   8.724   0.660   6.889 -0.7001  0.7535 -0.3332
  442MOL0     C58278   8.622   0.608   6.805  0.2444  0.1810  0.2119
  442MOL0     H58279   8.263   0.369   6.565 -3.6530 -1.2264 -5.7371
  442MOL0     H58280   8.094   0.208   6.507  0.1168 -1.4356 -0.1904
  442MOL0     H58281   7.778   0.109   6.817  1.5882  1.1787 -0.5020
  442MOL0     H58282   7.744  -0.014   6.688 -2.9409  0.3838  0.4008
  442MOL0     H58283   7.654   0.178   6.552  2.6278 -1.6351  0.6536
  442MOL0     H58284   7.660   0.270   6.708  2.1238 -0.3673 -0.6585
  442MOL0     H58285   7.516   0.109   6.807  1.4635  1.0232  0.1659
  442MOL0     H58286   7.520   0.005   6.668 -0.1236 -0.5696  2.6112
  442MOL0     H58287   7.390   0.286   6.671  0.4675 -1.3394  3.0608
  442MOL0     H58288   7.380   0.166   6.533  1.0405  0.6814 -0.4553
  442MOL0     H58289   7.288   0.097   6.823 -1.7669 -1.1754  0.3166
  442MOL0     H58290   7.241   0.020   6.661 -1.0858 -0.3014 -1.2958
  442MOL0     H58291   7.104   0.183   6.588 -1.8417 -0.9809  0.7911
  442MOL0     H58292   7.163   0.300   6.699  0.9299  0.0114 -1.0118
  442MOL0     H58293   6.972   0.079   6.758  0.4384  0.5562 -0.5221
  442MOL0     H58294   7.042   0.184   6.886 -2.6953  1.4336  0.2958
  442MOL0     H58295   6.950   0.382   6.800 -0.0757 -1.4994  2.6353
  442MOL0     H58296   6.806   0.270   6.789  0.3362  0.5038  0.9084
  442MOL0     H58297   6.731   0.151   6.572 -0.8998  1.2183  1.8874
  442MOL0     H58298   6.777   0.270   6.196 -0.7625 -2.1448 -1.1926
  442MOL0     H58299   6.655   0.185   6.297  0.1399 -1.0007  2.0927
  442MOL0     H58300   6.806   0.034   6.173  1.0640  2.3323 -1.1964
  442MOL0     H58301   6.809   0.006   6.347  0.3430 -0.3885  0.6917
  442MOL0     H58302   7.014   0.138   6.369  1.3932 -0.3315  0.5381
  442MOL0     H58303   7.031  -0.009   6.273 -1.0060 -0.1518  0.5217
  442MOL0     H58304   7.022   0.273   6.180  1.4557 -0.2327  2.2896
  442MOL0     H58305   6.974   0.142   6.069 -1.0931  0.1458 -1.0547
  442MOL0     H58306   7.168   0.330   6.346 -0.1396 -1.1466 -1.2539
  442MOL0     H58307   7.377   0.461   6.414  3.4424 -1.6949  1.1022
  442MOL0     H58308   7.872   0.462   6.454  0.4559  0.4463 -0.2872
  442MOL0     H58309   8.049   0.597   6.548  0.2821  1.3649  3.9341
  442MOL0     H58310   8.177   0.800   6.518 -0.6283  0.4894  0.1576
  442MOL0     H58311   8.196   0.739   6.688  1.1265  2.0937  2.1379
  442MOL0     H58312   8.193   0.990   6.753 -0.9697 -1.0094 -0.7079
  442MOL0     H58313   8.234   1.027   6.594 -2.7316 -0.3002 -0.4596
  442MOL0     H58314   8.434   0.832   6.638 -0.6576  0.6709 -0.8648
  442MOL0     H58315   8.370   0.857   6.805 -4.2720 -0.7413 -0.9440
  442MOL0     H58316   8.503   1.048   6.621 -1.0558  0.8366 -0.0507
  442MOL0     H58317   8.418   1.105   6.769 -3.0071 -1.2146 -0.3383
  442MOL0     H58318   8.646   0.904   6.749 -0.8248 -1.3220  2.0876
  442MOL0     H58319   8.575   0.962   6.897 -0.5005 -0.0918  0.2627
  442MOL0     H58320   8.644   1.194   6.853  1.3801  3.8768 -2.3436
  442MOL0     H58321   8.711   1.139   6.698 -2.3019  0.3198  0.7970
  442MOL0     H58322   8.795   1.056   6.974 -0.4089 -2.9465 -0.4796
  442MOL0     H58323   8.847   0.967   6.826  0.1889 -0.0810 -1.4189
  442MOL0     H58324   8.884   1.270   6.863  0.7851 -0.5725  1.7337
  442MOL0     H58325   8.945   1.168   6.729 -0.8748  1.7010 -0.8599
  442MOL0     H58326   7.782   0.914   6.609 -0.3991 -0.0816  0.6862
  442MOL0     H58327   7.597   0.801   6.481  0.7297 -0.4267 -1.1577
  442MOL0     H58328   7.597   0.267   6.112 -1.1469  0.2883  0.4166
  442MOL0     H58329   7.399   0.134   6.051  0.5300 -0.7888  0.3628
  442MOL0     H58330   7.877   0.277   6.876  0.5716  1.7919  1.9924
  442MOL0     H58331   8.061   0.397   6.957 -0.4846 -1.3489  0.1894
  442MOL0     H58332   8.366   0.598   7.041  0.3985 -0.1918  0.1216
  442MOL0     H58333   8.542   0.714   7.172  2.3362  1.8717  0.4730
  442MOL0     H58334   8.960   0.747   6.985 -0.3722 -1.6281 -1.4103
  442MOL0     H58335   8.929   0.597   7.082 -1.0676 -0.1548  0.4491
  442MOL0     H58336   9.006   0.716   7.289 -0.9347  0.8688  0.9226
  442MOL0     H58337   9.124   0.733   7.153 -0.1329  0.1998  0.9926
  442MOL0     H58338   8.914   0.942   7.222  0.1715  0.0683  1.0058
  442MOL0     H58339   9.032   0.950   7.081  0.0194  0.9511  0.5579
  442MOL0     H58340   9.101   1.092   7.296 -2.5629 -0.2058 -0.3637
  442MOL0     H58341   9.109   0.937   7.380  2.3658  0.5555  0.9079
  442MOL0     H58342   9.456   0.979   7.108  1.1335 -1.7398  1.0188
  442MOL0     H58343   8.822   0.673   6.845 -0.9754  1.1400 -0.8463
  442MOL0     H58344   8.643   0.619   6.699 -1.3829  1.2968 -0.0333
  443MOL0     O58345   2.369   4.964   5.708  0.0990  0.0290 -0.7089
  443MOL0     C58346   2.428   4.914   5.615  0.2475 -0.4278  0.0089
  443MOL0     O58347   2.369   4.852   5.510 -0.7193 -0.0521  0.5455
  443MOL0     C58348   2.237   4.881   5.479  0.1921  0.3590 -0.5446
  443MOL0     C58349   2.205   5.003   5.426 -0.3825 -0.0730 -0.3163
  443MOL0     C58350   2.073   5.022   5.375  0.1497  0.2074  0.0765
  443MOL0     C58351   1.977   4.915   5.380 -0.0245 -0.5890  0.4004
  443MOL0     O58352   1.846   4.947   5.337  0.8764  0.6851  0.3310
  443MOL0     C58353   1.743   4.848   5.341  0.0443 -0.2425 -0.2583
  443MOL0     C58354   1.613   4.889   5.282  0.4053 -0.0059  0.5418
  443MOL0     C58355   1.547   4.987   5.391  0.6764 -0.4919  0.7836
  443MOL0     C58356   1.432   5.063   5.333  0.1186  0.3140  0.6970
  443MOL0     C58357   1.377   5.155   5.440 -0.0438  0.2795 -0.0699
  443MOL0     C58358   1.248   5.233   5.404  0.4198 -0.0776 -0.8688
  443MOL0     C58359   1.119   5.143   5.412  0.7504 -0.4229 -0.0005
  443MOL0     C58360   1.065   5.108   5.282 -0.7403  0.3735 -0.1248
  443MOL0     N58361   0.952   5.014   5.272  0.2237  0.2726  0.2218
  443MOL0     C58362   0.848   5.020   5.359 -0.1606  0.3465  0.2798
  443MOL0     C58363   0.785   4.899   5.359 -0.5639  0.4185  0.5646
  443MOL0     C58364   0.655   4.864   5.418 -1.0494  0.2524 -0.1659
  443MOL0     C58365   0.642   4.901   5.571 -0.3086 -0.1536  0.1123
  443MOL0     C58366   0.509   4.863   5.627 -0.6253  0.3039 -1.2899
  443MOL0     C58367   0.486   4.893   5.768  0.1890 -0.2017  0.4705
  443MOL0     O58368   0.355   4.844   5.810 -0.7926 -0.6073 -0.1822
  443MOL0     C58369   0.250   4.923   5.833  0.3043  0.3337 -0.1371
  443MOL0     C58370   0.128   4.859   5.846 -1.1947 -0.0992 -0.5036
  443MOL0     C58371   0.011   4.937   5.857 -0.2916  0.5099 -0.5972
  443MOL0     C58372   0.018   5.080   5.870  1.4954  0.1922 -0.5156
  443MOL0     C58373  -0.099   5.156   5.912  0.2099  0.5197 -0.6599
  443MOL0     O58374  -0.220   5.084   5.910 -0.2558  0.2669  0.2381
  443MOL0     C58375  -0.325   5.129   5.968  0.6491  0.1300 -0.9027
  443MOL0     C58376  -0.378   5.058   6.076 -0.3335 -0.0675 -0.4490
  443MOL0     C58377  -0.494   5.105   6.142  0.1398 -0.7657  0.5252
  443MOL0     C58378  -0.556   5.231   6.106 -0.1864  0.5746 -0.2396
  443MOL0     O58379  -0.660   5.284   6.172  0.3637 -0.7301 -0.3538
  443MOL0     C58380  -0.795   5.249   6.120 -0.5568 -0.6442 -0.4613
  443MOL0     C58381  -0.833   5.361   6.012 -0.3608 -0.4771 -0.0501
  443MOL0     C58382  -0.990   5.376   5.996  0.3676 -0.2099 -1.1281
  443MOL0     C58383  -1.033   5.463   5.874 -0.7066  0.5482 -0.2431
  443MOL0     C58384  -1.180   5.440   5.849 -0.1180  0.2555  0.8077
  443MOL0     C58385  -1.233   5.534   5.738 -0.7623 -0.6636 -0.1407
  443MOL0     C58386  -1.189   5.474   5.601  0.2302 -0.5503 -0.3915
  443MOL0     C58387  -1.229   5.570   5.488  0.4186  0.7515 -0.6376
  443MOL0    Cl58388  -1.116   5.707   5.496  0.0498  0.0125  0.5915
  443MOL0     C58389  -0.511   5.298   5.993  0.2768  0.1557 -0.1175
  443MOL0     C58390  -0.397   5.251   5.922 -0.5661  0.7593  0.5260
  443MOL0     O58391  -0.081   5.267   5.949  0.5628  0.2745 -0.0962
  443MOL0     C58392   0.139   5.141   5.854 -0.3195 -0.2431 -0.0338
  443MOL0     C58393   0.251   5.063   5.842  0.8157 -0.1956 -0.5070
  443MOL0     N58394   0.852   4.826   5.258  0.3812  0.1556 -0.1208
  443MOL0     N58395   0.951   4.890   5.210  0.0086 -0.8467  0.0225
  443MOL0     C58396   2.013   4.792   5.423 -0.7498  1.0051  0.5797
  443MOL0     C58397   2.142   4.778   5.487 -0.2536  0.0106  0.1724
  443MOL0     C58398   2.577   4.912   5.619  0.6271 -0.2207 -0.6471
  443MOL0     C58399   2.650   4.860   5.514 -0.3635  0.2116 -1.0456
  443MOL0     C58400   2.793   4.853   5.525  0.3437 -0.1778  1.2032
  443MOL0     C58401   2.862   4.888   5.635  0.8121  0.1234 -0.8370
  443MOL0     O58402   2.995   4.876   5.646 -0.2489  0.5169  0.2256
  443MOL0     C58403   3.064   4.767   5.573 -0.4497 -0.4636  0.1559
  443MOL0     C58404   3.202   4.822   5.568 -0.7076 -0.0693 -0.4007
  443MOL0     C58405   3.223   4.941   5.462  0.0564  0.6005 -1.4038
  443MOL0     C58406   3.260   4.900   5.321 -0.6661  0.2399 -0.1254
  443MOL0     C58407   3.396   4.839   5.323 -0.1426 -1.4014 -0.2481
  443MOL0     C58408   3.514   4.808   5.321  0.3779  1.4863 -0.1234
  443MOL0     C58409   2.785   4.930   5.745  0.0128 -0.1493  0.2604
  443MOL0     C58410   2.646   4.952   5.735 -0.9048 -0.8530  0.3569
  443MOL0     H58411   2.276   5.085   5.429  0.8206 -1.1164  1.3271
  443MOL0     H58412   2.043   5.114   5.326  0.1892 -0.4872 -1.2924
  443MOL0     H58413   1.728   4.811   5.443 -0.2922  0.7829  0.0762
  443MOL0     H58414   1.777   4.769   5.273 -1.7194 -2.0392  0.8412
  443MOL0     H58415   1.560   4.797   5.255  0.1352  0.4096 -0.3850
  443MOL0     H58416   1.628   4.944   5.188  0.7881 -0.3963  0.3740
  443MOL0     H58417   1.622   5.064   5.410  1.5015  0.5132 -4.7256
  443MOL0     H58418   1.517   4.937   5.483 -0.3795 -0.1454  0.6398
  443MOL0     H58419   1.468   5.127   5.252 -0.9204  2.7545  2.0391
  443MOL0     H58420   1.352   5.007   5.285  1.6863  0.3238 -2.1421
  443MOL0     H58421   1.450   5.235   5.451  0.8394 -0.0072 -3.1358
  443MOL0     H58422   1.371   5.099   5.535  4.7780 -0.5807 -0.0394
  443MOL0     H58423   1.269   5.272   5.304  0.5288 -0.5291 -1.0226
  443MOL0     H58424   1.228   5.306   5.484  0.9048 -0.3541 -0.4879
  443MOL0     H58425   1.129   5.045   5.460 -1.4188 -0.1359  1.1972
  443MOL0     H58426   1.046   5.200   5.471  1.5913  1.6516 -0.9032
  443MOL0     H58427   1.150   5.062   5.230 -1.1830  0.0998 -0.6139
  443MOL0     H58428   1.045   5.200   5.225  0.3793  0.8343  0.1902
  443MOL0     H58429   0.814   5.110   5.408 -1.0827 -0.2556  0.7751
  443MOL0     H58430   0.628   4.760   5.397 -2.1045  0.0853  1.7823
  443MOL0     H58431   0.582   4.927   5.366  0.2789  2.2718  0.2874
  443MOL0     H58432   0.646   5.009   5.588  0.8461 -0.3260  1.1084
  443MOL0     H58433   0.728   4.858   5.624  0.4619 -0.4147 -1.3119
  443MOL0     H58434   0.425   4.916   5.582  0.8607  2.5487 -1.6118
  443MOL0     H58435   0.504   4.755   5.611 -0.2141 -0.3269  2.0726
  443MOL0     H58436   0.500   4.999   5.792  0.7119 -0.8503  3.4738
  443MOL0     H58437   0.566   4.845   5.825 -0.2365  2.5095  3.6998
  443MOL0     H58438   0.116   4.752   5.837 -3.9404  0.2960 -3.9874
  443MOL0     H58439  -0.083   4.884   5.868  0.3080 -1.0187 -2.3521
  443MOL0     H58440  -0.328   4.968   6.108  3.0973  1.5642 -0.8344
  443MOL0     H58441  -0.549   5.047   6.216  0.9092 -0.6684  1.1725
  443MOL0     H58442  -0.873   5.243   6.197 -1.4053 -1.5420 -1.3735
  443MOL0     H58443  -0.798   5.151   6.071 -0.4694 -0.7850 -0.1889
  443MOL0     H58444  -0.783   5.350   5.916  1.2018  2.6865  0.2604
  443MOL0     H58445  -0.790   5.453   6.054  0.3156 -0.2681 -1.1744
  443MOL0     H58446  -1.019   5.431   6.086  1.8945  0.8175 -1.2398
  443MOL0     H58447  -1.051   5.285   6.001 -0.9935  0.7389  0.4253
  443MOL0     H58448  -1.008   5.570   5.876 -1.3586  0.7029 -0.1552
  443MOL0     H58449  -0.977   5.416   5.793 -0.6076  1.0270 -0.4588
  443MOL0     H58450  -1.239   5.462   5.939 -2.0638 -2.6550  0.3759
  443MOL0     H58451  -1.192   5.337   5.816 -0.8905  1.1546 -1.9822
  443MOL0     H58452  -1.210   5.639   5.761 -0.6480 -0.9687  1.1973
  443MOL0     H58453  -1.342   5.529   5.738 -0.7902 -0.7287 -1.6856
  443MOL0     H58454  -1.081   5.463   5.614 -0.1541 -0.8939  4.0842
  443MOL0     H58455  -1.231   5.375   5.581 -2.3306  0.8504 -2.6754
  443MOL0     H58456  -1.329   5.613   5.498  1.1394  2.2706  0.5590
  443MOL0     H58457  -1.211   5.519   5.394  0.1990 -2.1698  0.7871
  443MOL0     H58458  -0.558   5.394   5.978 -2.1597 -0.4027  2.8496
  443MOL0     H58459  -0.369   5.311   5.837  1.7906 -1.2944 -0.2568
  443MOL0     H58460   0.144   5.249   5.869 -0.4411  0.1900 -2.6440
  443MOL0     H58461   0.342   5.121   5.840  1.5343 -0.8090  3.9180
  443MOL0     H58462   1.945   4.708   5.420  0.5988 -0.0881 -0.5882
  443MOL0     H58463   2.176   4.684   5.528  2.3221  0.2634 -1.1999
  443MOL0     H58464   2.602   4.829   5.422 -0.8571  2.2153 -1.5069
  443MOL0     H58465   2.835   4.812   5.434 -2.2575 -1.3634  0.4491
  443MOL0     H58466   3.020   4.753   5.474 -0.9109 -2.8384  0.6329
  443MOL0     H58467   3.043   4.678   5.633 -0.5358 -0.7251 -0.2542
  443MOL0     H58468   3.237   4.857   5.665  3.5686  1.2770 -2.1486
  443MOL0     H58469   3.267   4.739   5.537 -0.2515  0.4104 -0.7452
  443MOL0     H58470   3.302   5.009   5.496  0.2123  0.4196 -1.4002
  443MOL0     H58471   3.134   5.004   5.460 -0.7751 -0.4029  0.6640
  443MOL0     H58472   3.195   4.820   5.285  3.9238 -4.6468  1.0971
  443MOL0     H58473   3.261   4.986   5.254 -1.3117  0.8432  0.6289
  443MOL0     H58474   3.618   4.788   5.304 -0.0438 -0.8764 -0.1907
  443MOL0     H58475   2.833   4.952   5.840  1.3956  0.1579 -0.4727
  443MOL0     H58476   2.602   4.995   5.825  1.5140  1.0640  0.7272
  444MOL0     O58477   1.466  10.625   3.758  0.8439 -0.2179 -0.5630
  444MOL0     C58478   1.515  10.644   3.654  0.2145 -0.5197  0.1083
  444MOL0     O58479   1.448  10.656   3.541  0.5648  0.2454  0.5540
  444MOL0     C58480   1.310  10.637   3.547 -0.7652  0.0732  0.8228
  444MOL0     C58481   1.230  10.723   3.604 -0.0882 -0.6987 -0.0730
  444MOL0     C58482   1.093  10.700   3.603  0.4486  0.5485  1.0552
  444MOL0     C58483   1.037  10.586   3.533 -0.5888  0.3659 -0.4143
  444MOL0     O58484   0.907  10.555   3.531  0.2707 -0.3811  0.4664
  444MOL0     C58485   0.821  10.665   3.499  0.0621 -0.1965  0.2867
  444MOL0     C58486   0.681  10.598   3.482  0.2293  0.1804  0.5295
  444MOL0     C58487   0.593  10.666   3.380 -0.6510 -0.6901  0.0227
  444MOL0     C58488   0.483  10.562   3.334  0.2056  0.6695  0.0188
  444MOL0     C58489   0.377  10.617   3.234 -0.8373 -0.1837 -1.3121
  444MOL0     C58490   0.258  10.527   3.200 -0.0629 -0.3562  0.1898
  444MOL0     C58491   0.141  10.602   3.132  0.1635 -0.5348 -0.1239
  444MOL0     C58492   0.032  10.500   3.095 -0.0589  0.2726 -0.3289
  444MOL0     N58493  -0.034  10.434   3.210 -0.0193 -0.2289 -0.6067
  444MOL0     C58494  -0.147  10.488   3.280 -0.3677 -0.1859 -0.0438
  444MOL0     C58495  -0.163  10.401   3.382 -0.0316  0.4637  0.0032
  444MOL0     C58496  -0.270  10.403   3.481  0.9505 -0.6771 -0.1636
  444MOL0     C58497  -0.254  10.520   3.566 -0.4657 -0.5395  0.0006
  444MOL0     C58498  -0.167  10.488   3.691  0.3612  0.2332 -0.0561
  444MOL0     C58499  -0.026  10.452   3.648 -0.3863  0.0389 -0.2989
  444MOL0     O58500   0.064  10.458   3.759 -0.5885  0.4676  0.6536
  444MOL0     C58501   0.188  10.406   3.736  0.0615 -0.5909 -0.3551
  444MOL0     C58502   0.233  10.365   3.609 -0.2335  0.4313  0.5443
  444MOL0     C58503   0.368  10.330   3.587  0.0937  0.3978  0.8616
  444MOL0     C58504   0.459  10.332   3.687 -0.9199  0.1868 -0.3238
  444MOL0     C58505   0.602  10.289   3.686  0.2023 -1.1995 -0.0196
  444MOL0     O58506   0.673  10.287   3.805  0.3250  0.1782 -0.4309
  444MOL0     C58507   0.814  10.278   3.804  0.3522  0.3706 -0.1092
  444MOL0     C58508   0.870  10.271   3.934  0.4780 -0.4894  0.0136
  444MOL0     C58509   1.005  10.261   3.954  0.0284  0.6826 -0.9857
  444MOL0     C58510   1.096  10.254   3.846  0.1150  0.7003 -0.5485
  444MOL0     O58511   1.228  10.229   3.857  0.6453  0.0320 -0.2656
  444MOL0     C58512   1.327  10.286   3.782 -0.8571  0.1378  0.4340
  444MOL0     C58513   1.451  10.191   3.771 -0.5684 -0.0042 -0.2690
  444MOL0     C58514   1.566  10.285   3.733  0.3701 -0.2499  0.5619
  444MOL0     C58515   1.697  10.195   3.703  0.3244 -0.0023  0.4894
  444MOL0     C58516   1.805  10.284   3.652  0.2901  1.1782  0.1856
  444MOL0     C58517   1.938  10.208   3.638  0.0787 -1.0704  0.3424
  444MOL0     C58518   2.053  10.306   3.612  1.4815 -0.4633 -0.2615
  444MOL0     C58519   2.193  10.255   3.588  0.8681  0.3934 -0.3905
  444MOL0    Cl58520   2.189  10.127   3.468 -0.4472  0.3728  0.4976
  444MOL0     C58521   1.041  10.253   3.717 -0.0598  0.5876 -0.5463
  444MOL0     C58522   0.906  10.274   3.697  0.3453  0.9358 -0.0620
  444MOL0     O58523   0.644  10.246   3.578 -0.2844 -0.1070  0.0109
  444MOL0     C58524   0.413  10.377   3.807 -0.1818  0.4638 -0.5277
  444MOL0     C58525   0.286  10.407   3.836  0.2396  0.9368 -0.3090
  444MOL0     N58526  -0.088  10.284   3.355 -0.1467  0.5844 -0.4162
  444MOL0     N58527  -0.015  10.306   3.255 -0.0840 -0.0085  0.0881
  444MOL0     C58528   1.127  10.493   3.475 -1.6473  0.1765 -0.8706
  444MOL0     C58529   1.260  10.520   3.478  0.0760 -0.1063  0.3801
  444MOL0     C58530   1.658  10.646   3.636  0.1772 -0.7009 -0.3742
  444MOL0     C58531   1.717  10.617   3.509  0.4384 -0.3041 -0.2215
  444MOL0     C58532   1.854  10.613   3.491 -0.5994  0.0400 -0.3730
  444MOL0     C58533   1.937  10.655   3.603 -0.0889  0.0935  0.2235
  444MOL0     O58534   2.074  10.664   3.579  0.1114  0.1832  0.5646
  444MOL0     C58535   2.159  10.737   3.662 -0.4013 -0.1115  0.4699
  444MOL0     C58536   2.305  10.719   3.645 -0.1792 -0.2129  0.2848
  444MOL0     C58537   2.359  10.721   3.506  0.1665  0.3272 -0.3001
  444MOL0     C58538   2.509  10.728   3.498  0.6641  0.5834  0.9537
  444MOL0     C58539   2.555  10.862   3.545 -0.3946 -0.0732 -0.4384
  444MOL0     C58540   2.580  10.974   3.583  0.2691  0.5856  0.2219
  444MOL0     C58541   1.881  10.675   3.728 -0.0992  0.8716 -0.4139
  444MOL0     C58542   1.743  10.684   3.742 -0.1405  0.0489  0.0896
  444MOL0     H58543   1.264  10.801   3.672 -1.3661  0.2054 -0.4158
  444MOL0     H58544   1.027  10.778   3.640 -0.4539 -1.4214  3.9938
  444MOL0     H58545   0.858  10.712   3.407  0.9495 -3.0630 -0.9475
  444MOL0     H58546   0.808  10.731   3.585  0.3420 -1.0231  0.9707
  444MOL0     H58547   0.628  10.586   3.577  0.8468 -1.8226  0.6715
  444MOL0     H58548   0.693  10.491   3.463 -0.0773  0.0327  1.1445
  444MOL0     H58549   0.647  10.705   3.294 -0.7602 -0.1328  0.2041
  444MOL0     H58550   0.554  10.755   3.430 -0.0225  0.4146 -1.3826
  444MOL0     H58551   0.530  10.472   3.293  1.1350  1.4440 -0.6924
  444MOL0     H58552   0.419  10.537   3.418  0.7873  3.7796  1.5548
  444MOL0     H58553   0.436  10.617   3.142 -0.4952 -1.2340 -1.1009
  444MOL0     H58554   0.343  10.717   3.264  1.4930  1.2748 -3.1495
  444MOL0     H58555   0.228  10.480   3.294  1.1092 -0.8536  0.3305
  444MOL0     H58556   0.290  10.453   3.126  1.1041 -0.3470  0.6556
  444MOL0     H58557   0.091  10.675   3.197 -3.1365 -2.8355  0.1674
  444MOL0     H58558   0.170  10.656   3.042 -1.7307 -0.4907 -0.7428
  444MOL0     H58559   0.087  10.422   3.041 -1.3560 -0.9055  0.0184
  444MOL0     H58560  -0.043  10.547   3.031 -0.4793 -1.0665 -0.8345
  444MOL0     H58561  -0.188  10.588   3.268 -0.7489 -0.4259 -0.8054
  444MOL0     H58562  -0.261  10.318   3.549  2.9918  2.1111  3.3650
  444MOL0     H58563  -0.364  10.395   3.424  2.1121 -1.3474 -2.0630
  444MOL0     H58564  -0.347  10.564   3.604  0.6879  3.2412 -1.0530
  444MOL0     H58565  -0.208  10.608   3.520 -2.2648  0.4133 -0.0557
  444MOL0     H58566  -0.163  10.574   3.758 -3.8321 -0.3663  1.1969
  444MOL0     H58567  -0.216  10.406   3.743 -4.6082  1.4063 -2.2529
  444MOL0     H58568   0.002  10.531   3.577 -0.3029  3.2047  2.9694
  444MOL0     H58569  -0.023  10.348   3.615 -1.5577 -0.2241  0.3651
  444MOL0     H58570   0.160  10.352   3.529 -0.4880 -0.1376  0.8628
  444MOL0     H58571   0.407  10.301   3.490  0.0384 -0.4310  1.0816
  444MOL0     H58572   0.803  10.255   4.018 -0.2481 -2.5330 -0.8879
  444MOL0     H58573   1.032  10.263   4.059  1.2578  1.3462 -1.2999
  444MOL0     H58574   1.349  10.383   3.828 -0.7338  0.4076 -0.1827
  444MOL0     H58575   1.305  10.314   3.678  0.8759  0.4994  0.1370
  444MOL0     H58576   1.421  10.121   3.692  0.9231 -1.1110  0.1072
  444MOL0     H58577   1.475  10.138   3.863 -1.6504 -1.4332 -0.7699
  444MOL0     H58578   1.598  10.333   3.826  2.4081 -2.5798  1.2006
  444MOL0     H58579   1.536  10.355   3.655  2.0041 -0.9117 -0.7526
  444MOL0     H58580   1.734  10.148   3.794  1.4910 -2.5142 -1.1689
  444MOL0     H58581   1.679  10.122   3.624 -2.3212  0.7028  0.3525
  444MOL0     H58582   1.802  10.369   3.721 -2.8463 -0.6790  2.6102
  444MOL0     H58583   1.774  10.319   3.553 -2.7739 -0.3202  0.4922
  444MOL0     H58584   1.934  10.138   3.554 -2.8333  0.4252 -0.9193
  444MOL0     H58585   1.975  10.153   3.724  2.2387 -1.2979 -0.6481
  444MOL0     H58586   2.035  10.377   3.530  1.7088  1.2817  1.1416
  444MOL0     H58587   2.052  10.376   3.696  0.3433  0.4779 -1.0230
  444MOL0     H58588   2.232  10.206   3.678 -0.5369 -1.1425 -0.5674
  444MOL0     H58589   2.254  10.342   3.561  1.6173 -1.1489 -4.4460
  444MOL0     H58590   1.094  10.237   3.624  0.6440 -1.4756  0.1643
  444MOL0     H58591   0.865  10.279   3.597 -0.2084 -2.8513 -0.2047
  444MOL0     H58592   0.483  10.379   3.890  1.3398  0.3445 -1.7667
  444MOL0     H58593   0.264  10.448   3.933 -0.6448  3.8779 -1.6491
  444MOL0     H58594   1.098  10.405   3.419  0.1386  0.8938 -3.0356
  444MOL0     H58595   1.327  10.448   3.432  0.7124  0.0242  1.0759
  444MOL0     H58596   1.663  10.594   3.418 -2.7909 -0.3230  1.5268
  444MOL0     H58597   1.893  10.582   3.395 -1.6804 -0.2797 -0.7218
  444MOL0     H58598   2.130  10.713   3.764  1.5287 -1.5119  0.7625
  444MOL0     H58599   2.140  10.843   3.643  0.8987  0.7464  3.4800
  444MOL0     H58600   2.350  10.805   3.695  1.4112 -0.6523 -0.3409
  444MOL0     H58601   2.339  10.624   3.689  4.0349  2.3201  3.2288
  444MOL0     H58602   2.315  10.802   3.447  2.0854  2.9281  1.5645
  444MOL0     H58603   2.322  10.627   3.464  0.5756  0.6012 -1.2987
  444MOL0     H58604   2.547  10.644   3.558 -0.1868 -1.4562 -1.2291
  444MOL0     H58605   2.528  10.710   3.392 -2.4702 -2.1053  0.6708
  444MOL0     H58606   2.621  11.068   3.616  1.5966  0.0595  0.1318
  444MOL0     H58607   1.944  10.695   3.813 -0.3850 -0.9799  0.2818
  444MOL0     H58608   1.696  10.698   3.839 -1.9904  1.5454 -0.9545
  445MOL0     O58609   9.696   8.622   8.038 -0.0751  0.5025  0.3797
  445MOL0     C58610   9.690   8.504   8.003 -1.2497 -0.4517 -1.2119
  445MOL0     O58611   9.580   8.417   8.007  0.1588 -0.8607 -0.1320
  445MOL0     C58612   9.458   8.457   8.049 -0.5736 -0.5466 -0.8363
  445MOL0     C58613   9.376   8.495   7.955  0.5783 -0.0843 -0.0709
  445MOL0     C58614   9.233   8.514   7.984  0.0636 -0.5648  0.1261
  445MOL0     C58615   9.186   8.501   8.115 -0.0841 -0.4957 -0.4574
  445MOL0     O58616   9.057   8.502   8.150  0.2225 -0.7340  0.0411
  445MOL0     C58617   8.957   8.519   8.049 -1.0493 -0.1398 -0.4777
  445MOL0     C58618   8.817   8.490   8.106  0.2278 -0.8632  1.0508
  445MOL0     C58619   8.714   8.537   8.003  0.8690  0.3779 -0.0897
  445MOL0     C58620   8.556   8.524   8.055  0.3987  0.3161  0.6697
  445MOL0     C58621   8.517   8.633   8.159  0.3300 -0.0194  0.0651
  445MOL0     C58622   8.362   8.628   8.186  0.2880  0.1632 -0.6868
  445MOL0     C58623   8.329   8.717   8.307 -0.0478  0.4978  0.1459
  445MOL0     C58624   8.174   8.745   8.322  0.6396 -0.1282 -0.1895
  445MOL0     N58625   8.091   8.622   8.332 -0.5981 -0.6339  0.4226
  445MOL0     C58626   7.992   8.587   8.240 -0.0316 -0.1102 -0.0075
  445MOL0     C58627   7.945   8.466   8.287  0.0875  0.3112  1.0135
  445MOL0     C58628   7.836   8.379   8.227  0.7053  0.3221  0.4382
  445MOL0     C58629   7.687   8.440   8.219 -0.1899  1.0063  0.0779
  445MOL0     C58630   7.634   8.518   8.349  0.3277 -0.2709 -0.3272
  445MOL0     C58631   7.476   8.530   8.361 -0.9877  0.1187 -1.5796
  445MOL0     O58632   7.430   8.578   8.238  0.1055  0.2432 -0.1055
  445MOL0     C58633   7.304   8.630   8.237 -0.1032  0.2849  0.2357
  445MOL0     C58634   7.213   8.608   8.336  0.4337 -0.1130 -0.6164
  445MOL0     C58635   7.076   8.640   8.324  0.2260  0.3788 -0.4998
  445MOL0     C58636   7.030   8.710   8.215 -1.0090 -1.0683  0.1231
  445MOL0     C58637   6.894   8.766   8.200 -0.4635 -0.6199 -0.5182
  445MOL0     O58638   6.797   8.683   8.234 -0.3029 -0.5489 -0.0402
  445MOL0     C58639   6.670   8.740   8.242 -0.3520 -0.3040  0.9421
  445MOL0     C58640   6.587   8.695   8.337  0.5802  0.2982 -0.0205
  445MOL0     C58641   6.448   8.732   8.352  0.5547  0.5586  0.7749
  445MOL0     C58642   6.400   8.833   8.267 -0.1506 -0.5995  0.4854
  445MOL0     O58643   6.273   8.884   8.283  0.1779  0.5923 -0.3119
  445MOL0     C58644   6.187   8.878   8.164 -0.3216 -0.0785  0.7198
  445MOL0     C58645   6.038   8.880   8.207 -0.4899  0.9462  0.6373
  445MOL0     C58646   5.956   8.864   8.080 -0.3569 -0.1688 -0.9099
  445MOL0     C58647   5.945   8.987   7.993 -0.4885 -0.5823  0.4480
  445MOL0     C58648   5.839   8.967   7.875 -0.3147 -0.8694 -0.0307
  445MOL0     C58649   5.693   8.954   7.922  0.4635  0.4844 -0.4847
  445MOL0     C58650   5.663   9.051   8.032  0.4071 -0.6138  0.5605
  445MOL0     C58651   5.513   9.080   8.055  0.1563 -0.3850 -0.2780
  445MOL0    Cl58652   5.490   9.208   8.173  0.2673  0.3079 -0.1994
  445MOL0     C58653   6.474   8.863   8.157  0.4519  0.2146  0.4844
  445MOL0     C58654   6.610   8.828   8.152 -0.9478 -0.0765  0.8575
  445MOL0     O58655   6.887   8.891   8.171 -0.2281 -0.2353  0.0487
  445MOL0     C58656   7.126   8.734   8.109 -0.1796 -0.2741  0.3405
  445MOL0     C58657   7.253   8.689   8.120 -0.1645 -0.2293  0.2633
  445MOL0     N58658   8.010   8.429   8.398 -1.1326 -0.2476  0.0089
  445MOL0     N58659   8.097   8.523   8.424  0.2479  0.2392 -0.2794
  445MOL0     C58660   9.276   8.467   8.220  0.3543  0.3297  0.3183
  445MOL0     C58661   9.406   8.438   8.184 -0.1216 -0.6411 -0.9764
  445MOL0     C58662   9.815   8.443   7.949 -0.7325 -1.0773  0.8683
  445MOL0     C58663   9.808   8.319   7.892 -0.9378  0.3799 -0.3562
  445MOL0     C58664   9.922   8.272   7.818  0.1217 -0.2848  0.3206
  445MOL0     C58665  10.032   8.350   7.803 -0.2369  0.7979 -0.1885
  445MOL0     O58666  10.142   8.324   7.722  0.0883  0.2857  0.0537
  445MOL0     C58667  10.116   8.275   7.585 -0.1171 -0.5738 -1.1504
  445MOL0     C58668  10.231   8.185   7.542  0.3891  0.4347  0.6243
  445MOL0     C58669  10.242   8.171   7.387 -0.1783  0.0013 -0.4357
  445MOL0     C58670  10.113   8.152   7.314 -0.1271 -0.6617 -0.6966
  445MOL0     C58671  10.129   8.154   7.165 -0.0852 -0.6828  0.4872
  445MOL0     C58672  10.151   8.132   6.975  0.0593 -0.4365 -0.4434
  445MOL0     C58673  10.036   8.470   7.868 -0.6642 -0.2720  0.1732
  445MOL0     C58674   9.932   8.517   7.936  0.9626  0.8131  0.0983
  445MOL0     H58675   9.398   8.504   7.849 -1.3862 -0.4465 -0.5538
  445MOL0     H58676   9.175   8.539   7.896 -0.3733  0.4251  0.6865
  445MOL0     H58677   8.980   8.452   7.966  0.4554  1.8518 -1.7683
  445MOL0     H58678   8.960   8.625   8.021 -4.5156  1.2932  3.5578
  445MOL0     H58679   8.795   8.539   8.201 -1.7154  0.3197  0.0547
  445MOL0     H58680   8.810   8.383   8.127  4.1254 -1.1732  1.5083
  445MOL0     H58681   8.723   8.480   7.909 -0.9018 -2.7372  1.4688
  445MOL0     H58682   8.723   8.644   7.982  2.1753  0.2344 -0.3466
  445MOL0     H58683   8.498   8.551   7.966  2.0150  2.8486  0.2964
  445MOL0     H58684   8.535   8.421   8.087 -1.1994  0.8351  1.3851
  445MOL0     H58685   8.551   8.734   8.132  0.8392 -0.1338  0.2706
  445MOL0     H58686   8.570   8.615   8.253 -1.1781  1.5129  1.2620
  445MOL0     H58687   8.323   8.529   8.209 -1.6684  1.3464  1.4865
  445MOL0     H58688   8.313   8.658   8.094 -3.4483 -1.3213  0.6423
  445MOL0     H58689   8.372   8.676   8.399  1.9374  0.1270 -0.8841
  445MOL0     H58690   8.373   8.817   8.302 -1.7516  1.2453 -0.8542
  445MOL0     H58691   8.143   8.800   8.232  0.4256  1.2059  0.6721
  445MOL0     H58692   8.155   8.808   8.409  2.6116 -1.1918  1.0776
  445MOL0     H58693   7.969   8.638   8.147  1.1895  1.6861  0.6195
  445MOL0     H58694   7.848   8.288   8.287  1.1215 -0.6259 -1.0286
  445MOL0     H58695   7.853   8.346   8.124 -1.7390  1.3517 -0.3445
  445MOL0     H58696   7.635   8.346   8.203  0.0964  1.0090 -0.9471
  445MOL0     H58697   7.660   8.499   8.131  2.4149  1.3411 -0.6053
  445MOL0     H58698   7.642   8.461   8.442 -0.8132  0.9998  0.6101
  445MOL0     H58699   7.685   8.615   8.354  0.3815 -0.0616 -3.1824
  445MOL0     H58700   7.461   8.603   8.441  1.1447 -0.6621 -0.3842
  445MOL0     H58701   7.435   8.432   8.389  0.0625  0.6703  2.5751
  445MOL0     H58702   7.242   8.546   8.420  0.4384  0.9497  0.1896
  445MOL0     H58703   7.000   8.618   8.398  0.8290 -1.8726 -0.4887
  445MOL0     H58704   6.633   8.630   8.411  0.4686 -0.1157 -0.3129
  445MOL0     H58705   6.382   8.703   8.433  1.7803  1.9127  2.3315
  445MOL0     H58706   6.199   8.786   8.105 -1.3897 -0.8419  1.6502
  445MOL0     H58707   6.204   8.961   8.094  0.3197  1.0717  2.2052
  445MOL0     H58708   6.017   8.970   8.265 -1.4839  0.9109  0.3351
  445MOL0     H58709   6.015   8.787   8.261 -0.6412  1.3987  1.3668
  445MOL0     H58710   5.853   8.836   8.106 -0.3900  0.5899 -0.1821
  445MOL0     H58711   5.988   8.777   8.022 -1.6426 -0.6936 -0.8742
  445MOL0     H58712   5.915   9.072   8.054 -3.3970  0.1120 -1.6911
  445MOL0     H58713   6.041   9.026   7.960 -0.5237  0.6408  1.6997
  445MOL0     H58714   5.868   8.877   7.820  1.2658 -0.0445 -0.6067
  445MOL0     H58715   5.846   9.054   7.809  2.2777 -0.1968  1.0108
  445MOL0     H58716   5.681   8.856   7.968  1.8298 -0.0842 -1.2748
  445MOL0     H58717   5.619   8.964   7.842  0.7020 -1.5276 -1.0169
  445MOL0     H58718   5.705   9.016   8.127 -0.7601 -2.3032  0.4978
  445MOL0     H58719   5.721   9.141   8.008 -0.7138 -0.2715 -0.9988
  445MOL0     H58720   5.461   8.986   8.074 -1.4851 -0.3042 -3.6272
  445MOL0     H58721   5.476   9.121   7.961 -1.0905  0.8895  0.7173
  445MOL0     H58722   6.436   8.930   8.080  1.5360  2.1508  1.5565
  445MOL0     H58723   6.661   8.864   8.063 -0.6582 -0.6653  0.7847
  445MOL0     H58724   7.091   8.776   8.016 -1.2246  0.4996  1.0527
  445MOL0     H58725   7.324   8.691   8.038  1.5218  2.4893  1.6238
  445MOL0     H58726   9.234   8.452   8.319 -0.4753 -2.2095 -0.3484
  445MOL0     H58727   9.480   8.407   8.258  0.8180 -0.8611 -1.9710
  445MOL0     H58728   9.724   8.251   7.886  0.7992 -1.8849 -0.5266
  445MOL0     H58729   9.918   8.173   7.773 -1.6415 -0.6584  1.1982
  445MOL0     H58730  10.097   8.354   7.512 -2.3275  0.5024  0.4707
  445MOL0     H58731  10.028   8.211   7.582 -0.0875 -0.6998  0.0091
  445MOL0     H58732  10.327   8.209   7.588  0.2940  0.1474  0.9794
  445MOL0     H58733  10.217   8.079   7.565  4.1537 -1.1963 -3.2079
  445MOL0     H58734  10.309   8.087   7.368  0.0600  0.8279 -3.8401
  445MOL0     H58735  10.293   8.265   7.365 -0.2931  0.2061  0.1375
  445MOL0     H58736  10.075   8.059   7.356  0.8693  0.9061  4.4521
  445MOL0     H58737  10.049   8.240   7.331  2.5455  1.1909  0.3721
  445MOL0     H58738  10.150   8.112   6.870 -0.7982  0.5481 -0.6342
  445MOL0     H58739  10.131   8.520   7.847  1.4830 -2.9904  2.5542
  445MOL0     H58740   9.952   8.620   7.962  3.8565  0.4686 -0.3824
  446MOL0     O58741   4.064  10.204   3.451 -0.4165  0.5340  0.0752
  446MOL0     C58742   4.083  10.088   3.471 -1.1662  0.7814 -0.5146
  446MOL0     O58743   4.008   9.982   3.442 -0.0651  0.2359  0.2494
  446MOL0     C58744   3.888  10.018   3.386  0.7207 -0.5340 -0.3850
  446MOL0     C58745   3.778  10.068   3.459  0.5761  0.6686  0.1569
  446MOL0     C58746   3.657  10.080   3.396  0.1774  0.6846 -0.4260
  446MOL0     C58747   3.624  10.056   3.260  0.1127 -0.8322 -0.6008
  446MOL0     O58748   3.505  10.077   3.195 -0.4405  0.6226  0.5862
  446MOL0     C58749   3.390  10.068   3.278  0.5267 -0.3441 -0.1924
  446MOL0     C58750   3.259  10.054   3.191 -0.0969 -0.2323 -0.0536
  446MOL0     C58751   3.141  10.017   3.267  0.7146  0.7541  0.0776
  446MOL0     C58752   3.011  10.032   3.180  0.1775  0.1562  0.1592
  446MOL0     C58753   2.896   9.972   3.257 -0.1347  0.3881 -0.4888
  446MOL0     C58754   2.860  10.052   3.380  0.0750  1.2463 -0.2535
  446MOL0     C58755   2.736   9.976   3.447  0.1510 -0.5101 -0.3520
  446MOL0     C58756   2.673  10.063   3.555 -0.4893  0.6883  0.2154
  446MOL0     N58757   2.622  10.188   3.505 -0.6996 -0.0815  0.7602
  446MOL0     C58758   2.520  10.190   3.409 -0.2248  1.3705  0.1858
  446MOL0     C58759   2.497  10.328   3.392 -0.1563  0.1744 -0.8831
  446MOL0     C58760   2.410  10.410   3.308  0.7892  0.2994  0.6497
  446MOL0     C58761   2.409  10.378   3.163  0.2092 -0.4462  0.5802
  446MOL0     C58762   2.532  10.444   3.085 -0.3419 -0.2215 -0.2090
  446MOL0     C58763   2.661  10.467   3.153  0.8567  0.1106 -0.0108
  446MOL0     O58764   2.774  10.466   3.054 -0.2267  0.1959  0.0147
  446MOL0     C58765   2.898  10.471   3.105  0.9551  0.5811  0.4861
  446MOL0     C58766   2.992  10.530   3.025 -0.2630 -0.0765 -0.5496
  446MOL0     C58767   3.124  10.544   3.075  0.1768  0.0177  0.3271
  446MOL0     C58768   3.164  10.482   3.190  0.2892  0.8260  0.0504
  446MOL0     C58769   3.304  10.492   3.235 -0.1613 -0.3364 -0.9033
  446MOL0     O58770   3.335  10.431   3.358 -0.2312 -0.1429  0.9616
  446MOL0     C58771   3.456  10.451   3.418 -0.5341  0.5783  0.2963
  446MOL0     C58772   3.577  10.392   3.373  0.2735 -0.9513 -0.4735
  446MOL0     C58773   3.699  10.439   3.417 -0.9608  0.6152 -0.1514
  446MOL0     C58774   3.706  10.536   3.528 -0.3327 -0.1610  0.5032
  446MOL0     O58775   3.812  10.577   3.598  0.1571 -0.1984 -1.2795
  446MOL0     C58776   3.940  10.555   3.539 -0.5128 -1.0364 -0.6735
  446MOL0     C58777   4.034  10.646   3.624 -0.1790  0.0235  0.1286
  446MOL0     C58778   4.177  10.628   3.582  0.3812  0.2869  0.3034
  446MOL0     C58779   4.285  10.700   3.665 -0.1604  0.5453  1.0913
  446MOL0     C58780   4.437  10.677   3.615 -0.1769 -0.2238  1.1837
  446MOL0     C58781   4.473  10.536   3.584 -0.0555  0.7244  0.2496
  446MOL0     C58782   4.617  10.532   3.540  0.8330 -0.2084  0.5267
  446MOL0     C58783   4.668  10.395   3.521  1.0628  0.2078  0.8258
  446MOL0    Cl58784   4.732  10.323   3.669  0.3315 -0.4411 -0.0192
  446MOL0     C58785   3.588  10.579   3.578 -0.0321  0.1882  0.6132
  446MOL0     C58786   3.463  10.539   3.522  0.3285  0.1510 -0.4302
  446MOL0     O58787   3.385  10.549   3.167 -0.5374 -0.2416  0.3294
  446MOL0     C58788   3.070  10.412   3.272  0.1839 -0.2910 -0.0956
  446MOL0     C58789   2.941  10.415   3.226  0.0315  0.7430 -0.5689
  446MOL0     N58790   2.575  10.398   3.487  1.0543  0.7451 -0.5629
  446MOL0     N58791   2.644  10.309   3.552 -0.5367 -1.0211  0.0225
  446MOL0     C58792   3.731  10.012   3.183 -0.1076  0.2631 -0.2791
  446MOL0     C58793   3.858   9.979   3.249  0.2949 -0.8041  0.5167
  446MOL0     C58794   4.201  10.061   3.553 -0.7882  0.2240 -0.4767
  446MOL0     C58795   4.310  10.145   3.581 -0.7421 -0.3451 -0.1960
  446MOL0     C58796   4.415  10.108   3.656 -0.3470 -0.0098  0.1747
  446MOL0     C58797   4.433   9.984   3.708  0.4205 -0.0141  0.5659
  446MOL0     O58798   4.531   9.933   3.798  0.4978 -0.7720 -0.1931
  446MOL0     C58799   4.656   9.999   3.791  0.6837  0.1729 -0.1873
  446MOL0     C58800   4.773   9.903   3.825 -0.2320 -0.4698  0.1632
  446MOL0     C58801   4.893   9.983   3.863 -0.2954 -1.3594  0.8134
  446MOL0     C58802   5.029   9.906   3.877  0.5326  0.1941  0.2769
  446MOL0     C58803   5.026   9.831   4.000  1.0637 -0.2642  0.7315
  446MOL0     C58804   5.023   9.788   4.116 -0.1496 -0.3095 -0.1633
  446MOL0     C58805   4.321   9.891   3.683 -1.0319  0.1391  0.2386
  446MOL0     C58806   4.209   9.935   3.606 -0.3994 -0.0455  0.0767
  446MOL0     H58807   3.785  10.080   3.567 -1.1110 -1.3940  0.5595
  446MOL0     H58808   3.569  10.116   3.450 -0.8686  0.7699 -2.1145
  446MOL0     H58809   3.380  10.164   3.329  1.7748 -0.2316 -0.1366
  446MOL0     H58810   3.393   9.984   3.348  3.5418  0.2388  0.5348
  446MOL0     H58811   3.275   9.972   3.121 -1.5736 -0.4780 -0.1331
  446MOL0     H58812   3.253  10.147   3.133 -1.2154 -0.0656  0.3062
  446MOL0     H58813   3.140  10.075   3.360  0.1723  0.0678  0.5095
  446MOL0     H58814   3.146   9.910   3.292 -0.1379  0.1851 -1.9714
  446MOL0     H58815   2.989  10.137   3.160 -1.1130  0.4587  2.7892
  446MOL0     H58816   3.020   9.974   3.088 -0.0587  0.8443 -0.3063
  446MOL0     H58817   2.911   9.867   3.284  1.8009  0.8299  0.3328
  446MOL0     H58818   2.810   9.963   3.191 -0.9717 -1.4182  0.7683
  446MOL0     H58819   2.849  10.160   3.363  3.2034  1.4666 -1.5407
  446MOL0     H58820   2.945  10.041   3.448  1.3980 -3.0108 -2.2264
  446MOL0     H58821   2.665   9.958   3.366  0.3433  0.5610 -0.7669
  446MOL0     H58822   2.773   9.881   3.486 -2.5863 -1.6363 -0.2331
  446MOL0     H58823   2.748  10.083   3.632 -1.1786 -0.1380  1.1398
  446MOL0     H58824   2.593  10.003   3.601 -1.0748 -0.1243 -1.7834
  446MOL0     H58825   2.472  10.108   3.357 -0.0071 -0.3087  2.4717
  446MOL0     H58826   2.428  10.517   3.320 -1.5902  0.9929 -1.2577
  446MOL0     H58827   2.305  10.402   3.339  0.3255 -1.0008 -1.1195
  446MOL0     H58828   2.313  10.404   3.118  0.9575 -1.5996 -1.9103
  446MOL0     H58829   2.408  10.270   3.141 -0.8023 -0.2158 -0.6574
  446MOL0     H58830   2.536  10.392   2.989  0.5854 -1.2152  0.3444
  446MOL0     H58831   2.500  10.544   3.054 -0.0196 -0.4123 -1.1951
  446MOL0     H58832   2.673  10.391   3.230 -0.5412  0.0763  0.1990
  446MOL0     H58833   2.652  10.565   3.200 -0.3526 -0.0709  0.1689
  446MOL0     H58834   2.961  10.564   2.927  1.4448 -2.3619 -1.9793
  446MOL0     H58835   3.197  10.607   3.025 -0.4350  1.1211  0.7880
  446MOL0     H58836   3.568  10.323   3.290 -1.9241  0.8724 -1.8956
  446MOL0     H58837   3.795  10.398   3.385 -1.2396  2.3933 -3.6461
  446MOL0     H58838   3.944  10.577   3.432  0.9539  0.7586 -0.2921
  446MOL0     H58839   3.969  10.451   3.558  2.5239 -0.0598  0.5697
  446MOL0     H58840   4.027  10.626   3.732 -2.5845  0.6501  0.1285
  446MOL0     H58841   4.009  10.746   3.589  1.3902  0.4008  0.0137
  446MOL0     H58842   4.187  10.655   3.477 -3.5504  2.6234  0.3354
  446MOL0     H58843   4.202  10.521   3.586  0.7404  0.2752 -1.5601
  446MOL0     H58844   4.256  10.805   3.668 -0.1241  0.9597 -3.8469
  446MOL0     H58845   4.271  10.669   3.769 -0.1420 -0.2991  0.8582
  446MOL0     H58846   4.505  10.713   3.693  1.9337  0.1216 -0.6898
  446MOL0     H58847   4.456  10.746   3.532 -0.9751  0.8470  1.8641
  446MOL0     H58848   4.404  10.494   3.511 -0.2459 -1.8778  1.8138
  446MOL0     H58849   4.458  10.468   3.668 -1.0832 -0.3100 -0.7310
  446MOL0     H58850   4.632  10.589   3.449  4.5693 -2.2583 -0.3593
  446MOL0     H58851   4.672  10.590   3.615 -3.8844 -0.2467  4.5264
  446MOL0     H58852   4.744  10.385   3.444 -1.0402  0.1791 -1.3436
  446MOL0     H58853   4.579  10.340   3.488 -1.0423  4.0701 -0.5071
  446MOL0     H58854   3.573  10.639   3.667  0.1865 -1.5406  1.8697
  446MOL0     H58855   3.366  10.574   3.556  0.0356  0.8448 -1.9081
  446MOL0     H58856   3.094  10.371   3.369  3.2419  2.8235  0.6858
  446MOL0     H58857   2.879  10.376   3.307  2.4121  2.6087  2.3795
  446MOL0     H58858   3.719   9.977   3.081 -0.6020  0.5301 -0.3140
  446MOL0     H58859   3.938   9.933   3.191  1.5734  0.7073  1.0086
  446MOL0     H58860   4.317  10.246   3.542 -0.3762 -0.3671 -0.1919
  446MOL0     H58861   4.485  10.188   3.678  1.2035 -1.3035  0.1725
  446MOL0     H58862   4.651  10.087   3.857 -2.7057 -0.7887  1.0593
  446MOL0     H58863   4.671  10.037   3.690 -1.3948 -0.1842 -0.6738
  446MOL0     H58864   4.733   9.846   3.910 -6.0794  2.2993 -0.2637
  446MOL0     H58865   4.800   9.830   3.748 -2.4036 -2.1573  0.8824
  446MOL0     H58866   4.875  10.029   3.960  0.6033  0.4157  0.1775
  446MOL0     H58867   4.914  10.062   3.790  0.9501 -0.7944  1.7562
  446MOL0     H58868   5.060   9.838   3.798  1.8884 -2.4049  2.8310
  446MOL0     H58869   5.103   9.987   3.872  0.9916 -0.2887 -2.8902
  446MOL0     H58870   5.033   9.764   4.220  1.7569  1.6778  0.1832
  446MOL0     H58871   4.333   9.794   3.729  4.1780  1.4088  2.2533
  446MOL0     H58872   4.135   9.857   3.592 -2.1059  1.2838  1.3389
  447MOL0     O58873   7.176   0.213   7.913  0.8027 -0.7885  0.5964
  447MOL0     C58874   7.141   0.192   8.024  0.8017  0.2223  0.1646
  447MOL0     O58875   7.012   0.213   8.069  0.6083 -0.1896 -0.1560
  447MOL0     C58876   6.916   0.230   7.967  0.2662 -0.6247 -0.1514
  447MOL0     C58877   6.810   0.134   7.945  0.2400  0.6701 -0.0571
  447MOL0     C58878   6.711   0.152   7.843  0.1183  0.1542  0.2901
  447MOL0     C58879   6.713   0.258   7.751 -0.6571  0.2494 -0.4669
  447MOL0     O58880   6.616   0.259   7.653  0.1634 -0.0482 -0.0513
  447MOL0     C58881   6.636   0.370   7.562  0.0991  0.0109 -0.2907
  447MOL0     C58882   6.544   0.350   7.432  0.2113  0.7545  0.9494
  447MOL0     C58883   6.409   0.291   7.471  0.3287 -0.5117  0.0164
  447MOL0     C58884   6.305   0.280   7.361  0.9227  0.2182  0.2595
  447MOL0     C58885   6.168   0.263   7.415 -0.0473 -0.2428 -0.0639
  447MOL0     C58886   6.056   0.296   7.322 -0.3730  1.3025 -0.5369
  447MOL0     C58887   5.916   0.288   7.390 -0.0945  0.0823  0.7873
  447MOL0     C58888   5.794   0.322   7.292  0.0056  0.0777 -0.0902
  447MOL0     N58889   5.668   0.310   7.368  0.8246 -0.0202  0.0725
  447MOL0     C58890   5.611   0.401   7.450  0.3676 -0.3569 -0.0643
  447MOL0     C58891   5.506   0.338   7.499 -0.5114  0.3242  0.1150
  447MOL0     C58892   5.408   0.419   7.577 -0.1063 -0.4982 -0.3431
  447MOL0     C58893   5.276   0.425   7.503  0.9227  0.4069  0.2115
  447MOL0     C58894   5.156   0.460   7.600  0.1628 -0.0988 -0.1290
  447MOL0     C58895   5.164   0.606   7.655  0.2106 -0.3226 -0.8548
  447MOL0     O58896   5.141   0.712   7.564 -0.4250  0.3943 -0.2389
  447MOL0     C58897   5.022   0.744   7.504  0.2631  0.2464  0.7840
  447MOL0     C58898   4.952   0.857   7.546 -0.1576  0.1081 -0.1567
  447MOL0     C58899   4.836   0.908   7.489 -0.4850  0.2474  0.1479
  447MOL0     C58900   4.771   0.831   7.388  0.5320 -0.8339 -0.0586
  447MOL0     C58901   4.633   0.882   7.330 -0.4088  0.2888 -0.1903
  447MOL0     O58902   4.592   1.008   7.362  0.9406 -0.8044 -0.1815
  447MOL0     C58903   4.486   1.073   7.295 -0.5167  0.1451  0.4337
  447MOL0     C58904   4.489   1.091   7.153  0.2365 -0.0245 -0.3252
  447MOL0     C58905   4.387   1.149   7.086  0.6354 -0.0736  0.4302
  447MOL0     C58906   4.273   1.194   7.168 -0.4575  0.2369 -0.8139
  447MOL0     O58907   4.174   1.256   7.094  0.2229  0.0116  0.2675
  447MOL0     C58908   4.048   1.176   7.093  0.4566 -0.6811 -0.0714
  447MOL0     C58909   3.948   1.222   7.189  0.3099  0.0317 -0.5506
  447MOL0     C58910   3.888   1.361   7.159 -0.0156  0.2593  0.2528
  447MOL0     C58911   3.820   1.416   7.284 -0.2418  0.4299 -0.7821
  447MOL0     C58912   3.709   1.521   7.251 -0.1550 -0.0591  0.2523
  447MOL0     C58913   3.611   1.541   7.370  0.3960  0.3627  0.3862
  447MOL0     C58914   3.552   1.677   7.386  0.5719  1.0505 -0.2178
  447MOL0     C58915   3.426   1.681   7.480  0.1611  0.4219 -0.1057
  447MOL0    Cl58916   3.324   1.827   7.463  0.3360  0.1186 -0.0719
  447MOL0     C58917   4.273   1.191   7.316  0.4031 -0.2425  0.7050
  447MOL0     C58918   4.382   1.128   7.369  1.1136  0.7199 -0.3481
  447MOL0     O58919   4.574   0.802   7.258 -0.4778  0.0210 -0.0756
  447MOL0     C58920   4.832   0.708   7.345 -0.8804 -0.3116  0.1797
  447MOL0     C58921   4.961   0.676   7.400  0.9294  0.2744 -0.6079
  447MOL0     N58922   5.494   0.212   7.446 -0.3248 -0.9928  0.0250
  447MOL0     N58923   5.600   0.190   7.368  0.1775 -0.6861  0.0816
  447MOL0     C58924   6.819   0.345   7.774 -0.4720 -0.0288 -0.0900
  447MOL0     C58925   6.918   0.336   7.874  0.2620 -0.3632  0.3935
  447MOL0     C58926   7.237   0.159   8.129 -0.2999  0.6596  0.0470
  447MOL0     C58927   7.362   0.110   8.089  0.4486  1.5303  0.9239
  447MOL0     C58928   7.465   0.099   8.183 -0.3301 -0.1696 -1.2142
  447MOL0     C58929   7.445   0.111   8.319  0.4045 -0.3224 -0.0395
  447MOL0     O58930   7.550   0.086   8.407 -0.8284 -0.2721 -0.0203
  447MOL0     C58931   7.552   0.128   8.546 -0.4766 -0.5442 -0.4005
  447MOL0     C58932   7.549   0.279   8.561  0.7816  0.1693 -0.0235
  447MOL0     C58933   7.565   0.328   8.702  0.0682  0.0613 -1.1673
  447MOL0     C58934   7.606   0.473   8.705  0.5540  0.2081 -1.4202
  447MOL0     C58935   7.607   0.521   8.845 -0.3373 -0.3888 -0.4785
  447MOL0     C58936   7.601   0.555   8.963  0.7000  0.7220  0.1870
  447MOL0     C58937   7.316   0.149   8.362  0.1285  0.7441  0.3362
  447MOL0     C58938   7.214   0.182   8.266  0.1794 -0.2315  0.7943
  447MOL0     H58939   6.805   0.044   8.006 -0.0917 -0.0391 -1.0974
  447MOL0     H58940   6.643   0.070   7.820  1.6268 -1.6652  1.9306
  447MOL0     H58941   6.741   0.380   7.534  0.3974  1.1316  1.1032
  447MOL0     H58942   6.607   0.465   7.608  0.4578 -0.6912  1.4802
  447MOL0     H58943   6.601   0.292   7.359  3.2118  5.2450 -0.7332
  447MOL0     H58944   6.508   0.446   7.395 -1.6174 -0.0715  0.4709
  447MOL0     H58945   6.380   0.352   7.556  3.6050 -1.1385  1.7534
  447MOL0     H58946   6.422   0.197   7.526 -0.9136  0.6348  2.4113
  447MOL0     H58947   6.306   0.370   7.299 -0.4815  1.4038  1.8782
  447MOL0     H58948   6.326   0.188   7.305  0.9256  1.4081 -1.7584
  447MOL0     H58949   6.157   0.333   7.498  3.4427  0.8437 -0.3448
  447MOL0     H58950   6.154   0.162   7.456  1.7478  0.0831  1.5171
  447MOL0     H58951   6.063   0.223   7.241 -1.4014  2.4561 -1.7228
  447MOL0     H58952   6.069   0.393   7.272 -0.4158  0.7596 -1.6300
  447MOL0     H58953   5.903   0.194   7.446  0.7166 -0.2904  0.3609
  447MOL0     H58954   5.921   0.369   7.463 -1.0252  1.3914 -0.5413
  447MOL0     H58955   5.795   0.251   7.209 -0.2894  1.4413 -1.3036
  447MOL0     H58956   5.801   0.425   7.259 -2.0930  1.3747  2.9767
  447MOL0     H58957   5.646   0.504   7.450 -0.2861 -0.1292  0.2188
  447MOL0     H58958   5.448   0.520   7.593  1.4316 -1.0054 -0.8078
  447MOL0     H58959   5.398   0.372   7.675  2.7372 -0.5492  0.0204
  447MOL0     H58960   5.245   0.330   7.457  2.2444  0.2530 -0.4074
  447MOL0     H58961   5.287   0.503   7.427  0.6989  1.3713  1.1513
  447MOL0     H58962   5.060   0.438   7.552 -1.0127 -1.9691  2.7742
  447MOL0     H58963   5.161   0.387   7.681 -0.8776 -1.2257 -1.0314
  447MOL0     H58964   5.255   0.636   7.707 -0.9728  2.7243 -0.3584
  447MOL0     H58965   5.088   0.607   7.733  0.4053 -1.1660 -0.6453
  447MOL0     H58966   4.990   0.921   7.626 -1.2794  0.1482  0.3829
  447MOL0     H58967   4.786   0.989   7.541 -2.0697 -1.6454  1.7205
  447MOL0     H58968   4.586   1.075   7.107  2.9613  1.9586  4.1560
  447MOL0     H58969   4.402   1.174   6.981  0.5025  1.5059  0.7610
  447MOL0     H58970   4.051   1.071   7.123 -2.0084  0.2786  4.4707
  447MOL0     H58971   4.001   1.184   6.994  0.3046  1.4792  0.1331
  447MOL0     H58972   3.991   1.223   7.290 -0.3900 -1.1688 -0.2254
  447MOL0     H58973   3.867   1.150   7.180 -0.4568  0.9348 -1.1419
  447MOL0     H58974   3.814   1.352   7.079 -1.4654  1.8405  1.3383
  447MOL0     H58975   3.968   1.425   7.122 -0.7216  1.0425  0.0309
  447MOL0     H58976   3.782   1.334   7.346  2.1218  0.0246  0.2327
  447MOL0     H58977   3.905   1.458   7.339  1.3020 -2.0774 -1.1178
  447MOL0     H58978   3.651   1.507   7.160 -2.5339  0.2554  1.6303
  447MOL0     H58979   3.768   1.611   7.233 -0.2958 -0.2062 -1.0107
  447MOL0     H58980   3.669   1.510   7.457  1.9194  1.3498 -0.2294
  447MOL0     H58981   3.530   1.469   7.353 -1.4278  2.6953 -1.6305
  447MOL0     H58982   3.621   1.753   7.423 -0.4916  2.4755 -1.0460
  447MOL0     H58983   3.517   1.711   7.288  1.6354 -2.7735 -2.1363
  447MOL0     H58984   3.445   1.672   7.588  0.7091  0.1852 -0.2188
  447MOL0     H58985   3.365   1.597   7.448 -0.8817  1.8312 -2.0708
  447MOL0     H58986   4.197   1.243   7.374  0.6797  0.5586  0.3519
  447MOL0     H58987   4.375   1.122   7.477 -2.2518  0.0226 -0.5073
  447MOL0     H58988   4.790   0.644   7.268  1.7100  0.3991 -1.9504
  447MOL0     H58989   5.021   0.598   7.352  0.3166 -0.2613 -0.5140
  447MOL0     H58990   6.831   0.422   7.699  2.6363  1.2267  1.4891
  447MOL0     H58991   6.992   0.415   7.877  0.4367 -0.4748 -0.6802
  447MOL0     H58992   7.393   0.095   7.986  0.8008 -1.2967  1.3616
  447MOL0     H58993   7.566   0.082   8.147 -0.4999 -1.4003 -1.1631
  447MOL0     H58994   7.634   0.087   8.606 -0.5803 -0.2345 -0.0415
  447MOL0     H58995   7.459   0.094   8.592 -0.4601 -1.2207 -0.8548
  447MOL0     H58996   7.632   0.310   8.497  0.0430 -1.5673 -1.9272
  447MOL0     H58997   7.457   0.314   8.513  1.3134 -1.2242 -2.1851
  447MOL0     H58998   7.643   0.268   8.750  0.5976 -0.1659 -2.2967
  447MOL0     H58999   7.477   0.306   8.764  1.3021 -1.0396  0.2651
  447MOL0     H59000   7.707   0.484   8.665  2.5416  1.1506  3.2388
  447MOL0     H59001   7.534   0.524   8.641 -1.7007 -1.3781 -0.3179
  447MOL0     H59002   7.604   0.580   9.068 -3.5393 -0.9495  0.8873
  447MOL0     H59003   7.290   0.156   8.467  0.4300 -1.9840  0.6576
  447MOL0     H59004   7.121   0.226   8.299 -1.7893 -1.0479 -3.1585
  448MOL0     O59005   8.980   9.811   7.553  0.4734 -0.4779  0.1450
  448MOL0     C59006   8.987   9.845   7.438 -1.2035 -0.1566  0.2444
  448MOL0     O59007   8.888   9.891   7.362  0.0453 -0.6011  0.3805
  448MOL0     C59008   8.765   9.916   7.431  0.3562  0.3376  0.2455
  448MOL0     C59009   8.647   9.900   7.351 -0.4108 -0.0105 -0.2599
  448MOL0     C59010   8.523   9.909   7.396  0.4690  1.1996 -0.3479
  448MOL0     C59011   8.493   9.939   7.534 -0.0325 -0.2139  0.1831
  448MOL0     O59012   8.362   9.951   7.577 -0.4542 -0.3675 -0.0102
  448MOL0     C59013   8.312   9.996   7.702  0.0096 -0.6441  0.2372
  448MOL0     C59014   8.168  10.028   7.704 -0.3757  0.0069 -1.0757
  448MOL0     C59015   8.074   9.905   7.702  0.5795 -0.0650 -0.0070
  448MOL0     C59016   7.923   9.946   7.716  0.1369 -0.0104  0.3446
  448MOL0     C59017   7.833   9.832   7.752 -0.7903  0.0773 -0.5989
  448MOL0     C59018   7.692   9.876   7.794  0.0785 -0.2235  0.4670
  448MOL0     C59019   7.597   9.764   7.833 -0.2359 -0.0224  0.4135
  448MOL0     C59020   7.527   9.694   7.717  0.3509 -0.2910 -0.2870
  448MOL0     N59021   7.456   9.788   7.637 -0.1228 -0.0272  0.5423
  448MOL0     C59022   7.354   9.871   7.670 -0.4409 -1.3143  0.2393
  448MOL0     C59023   7.319   9.927   7.549 -0.4862  1.1553  0.1169
  448MOL0     C59024   7.210  10.022   7.528 -0.9495 -0.1337  0.6881
  448MOL0     C59025   7.091   9.950   7.462  0.0394 -0.8244 -0.4135
  448MOL0     C59026   6.985  10.042   7.411  0.2068 -0.3992 -0.0123
  448MOL0     C59027   6.914  10.126   7.513  0.5189  0.2500  0.0686
  448MOL0     O59028   6.839  10.217   7.435  0.5546 -0.0658 -0.6873
  448MOL0     C59029   6.705  10.195   7.441 -0.4892 -0.6993  0.3417
  448MOL0     C59030   6.640  10.109   7.350 -0.2483  0.4487 -1.0536
  448MOL0     C59031   6.501  10.087   7.353 -0.6846 -0.2152 -0.3611
  448MOL0     C59032   6.422  10.143   7.454  0.2117  0.1989  0.2093
  448MOL0     C59033   6.276  10.123   7.469  0.0426 -0.0661  0.5787
  448MOL0     O59034   6.216  10.139   7.592 -0.5215 -0.0195 -0.5007
  448MOL0     C59035   6.094  10.085   7.594  0.5802  0.0825  0.9230
  448MOL0     C59036   6.063   9.967   7.659  0.0892  1.2371 -0.6588
  448MOL0     C59037   5.941   9.930   7.680 -0.4175 -0.1072 -0.4823
  448MOL0     C59038   5.832  10.003   7.653 -0.1118 -0.0249  0.6163
  448MOL0     O59039   5.710   9.958   7.694  0.2061  0.4463  0.2252
  448MOL0     C59040   5.598  10.036   7.656 -0.0515 -0.2246 -0.1172
  448MOL0     C59041   5.482   9.938   7.627 -0.0194 -0.4061 -0.5906
  448MOL0     C59042   5.351  10.011   7.653  0.9781  0.2234  0.2997
  448MOL0     C59043   5.224   9.926   7.619 -0.2709 -0.1159  0.4566
  448MOL0     C59044   5.093  10.002   7.603  0.3265  0.4823 -0.1977
  448MOL0     C59045   5.097  10.115   7.501  0.4448 -1.1988  0.4903
  448MOL0     C59046   4.946  10.141   7.476  0.7300 -0.5206 -0.6046
  448MOL0     C59047   4.941  10.289   7.430 -0.1935  0.3637  0.5619
  448MOL0    Cl59048   4.905  10.406   7.553  0.0371 -0.1015  0.3215
  448MOL0     C59049   5.855  10.117   7.571 -0.7424 -0.9997  0.8194
  448MOL0     C59050   5.987  10.158   7.547 -0.1827  0.5429 -0.0649
  448MOL0     O59051   6.221  10.080   7.368  1.4074 -0.1484  0.2679
  448MOL0     C59052   6.485  10.234   7.539  0.1617 -1.1380 -0.1854
  448MOL0     C59053   6.628  10.260   7.536  0.2642 -0.4771 -0.1830
  448MOL0     N59054   7.399   9.880   7.450  0.4818 -0.1253 -0.3163
  448MOL0     N59055   7.482   9.801   7.502  0.7322  0.0413 -0.3502
  448MOL0     C59056   8.607   9.952   7.622 -0.2078  0.0436  0.5159
  448MOL0     C59057   8.739   9.946   7.571 -0.5026 -0.5262 -0.3991
  448MOL0     C59058   9.115   9.825   7.376 -1.1976  0.1636  1.1621
  448MOL0     C59059   9.223   9.760   7.438  0.3679  0.0988  0.6875
  448MOL0     C59060   9.332   9.718   7.355 -0.0149 -0.0909 -0.9220
  448MOL0     C59061   9.336   9.744   7.221  0.4185 -0.1717  0.3678
  448MOL0     O59062   9.432   9.692   7.130  0.2148  0.3790 -0.3846
  448MOL0     C59063   9.548   9.615   7.180  0.2885 -0.6569  0.5486
  448MOL0     C59064   9.662   9.714   7.221 -0.9698  0.6652  0.0338
  448MOL0     C59065   9.795   9.635   7.271 -0.2819 -0.1942  1.9154
  448MOL0     C59066   9.923   9.712   7.253 -0.3248 -0.3132 -1.0097
  448MOL0     C59067  10.019   9.672   7.359  0.3970 -0.3732 -0.0231
  448MOL0     C59068  10.098   9.648   7.454 -0.8355  0.3184  0.6902
  448MOL0     C59069   9.231   9.811   7.161  0.4894 -0.3106 -0.0581
  448MOL0     C59070   9.127   9.859   7.238 -0.2851  0.2306 -0.0804
  448MOL0     H59071   8.667   9.872   7.248  0.8869 -1.8652  0.4315
  448MOL0     H59072   8.440   9.895   7.327 -0.0186  1.7790  0.1026
  448MOL0     H59073   8.370  10.076   7.750 -0.2482 -1.1429  1.4074
  448MOL0     H59074   8.335   9.906   7.759  0.9412 -0.6556 -0.1252
  448MOL0     H59075   8.156  10.084   7.610 -0.4412  1.2356 -0.3542
  448MOL0     H59076   8.135  10.085   7.791 -0.4641 -2.8467  0.8766
  448MOL0     H59077   8.103   9.832   7.778 -4.7161 -0.8547  1.6468
  448MOL0     H59078   8.084   9.850   7.609 -1.4514  0.0350 -0.3289
  448MOL0     H59079   7.911  10.025   7.791 -2.5016  0.7158 -0.7133
  448MOL0     H59080   7.899   9.992   7.619 -0.0190 -1.3847 -0.2927
  448MOL0     H59081   7.873   9.781   7.841  2.1171  3.3275  0.1641
  448MOL0     H59082   7.825   9.753   7.677 -2.8485  0.2793 -0.6376
  448MOL0     H59083   7.654   9.939   7.712  2.9995  0.7112 -0.2940
  448MOL0     H59084   7.699   9.947   7.877  0.9241  1.7916 -1.2244
  448MOL0     H59085   7.656   9.685   7.879 -0.9232 -0.7336  0.0908
  448MOL0     H59086   7.533   9.797   7.915 -1.6310 -1.3904 -0.0664
  448MOL0     H59087   7.464   9.607   7.741  1.1360 -0.9368 -0.5090
  448MOL0     H59088   7.614   9.656   7.662  1.9051  2.0325  0.4524
  448MOL0     H59089   7.305   9.893   7.764 -1.9579  2.9062 -1.2707
  448MOL0     H59090   7.244  10.102   7.462 -0.4086 -2.3182 -1.9006
  448MOL0     H59091   7.178  10.058   7.626 -3.4075  1.1100 -0.4995
  448MOL0     H59092   7.053   9.884   7.540  2.5196  1.0277  2.5699
  448MOL0     H59093   7.124   9.885   7.380 -2.1944 -3.2822  0.4731
  448MOL0     H59094   7.030  10.112   7.340 -1.3097 -0.9874 -1.6525
  448MOL0     H59095   6.909   9.990   7.352 -0.1216  0.3932 -0.3058
  448MOL0     H59096   6.993  10.171   7.574 -1.2746  0.1921  2.5716
  448MOL0     H59097   6.858  10.069   7.588 -2.4007  0.5483 -1.7265
  448MOL0     H59098   6.709  10.059   7.284  1.2612 -0.3680  1.0174
  448MOL0     H59099   6.463  10.010   7.286  0.0895  0.5466 -1.7405
  448MOL0     H59100   6.131   9.893   7.699  1.2996  3.0609  0.8465
  448MOL0     H59101   5.930   9.831   7.723  3.8519  0.3373  2.0847
  448MOL0     H59102   5.600  10.096   7.565  2.4477 -0.1216 -0.0713
  448MOL0     H59103   5.566  10.097   7.742  0.9446  0.4547 -0.2081
  448MOL0     H59104   5.492   9.848   7.689  3.3605  0.5283  0.4149
  448MOL0     H59105   5.490   9.901   7.524  0.5391 -0.9070 -0.3730
  448MOL0     H59106   5.349  10.102   7.593  1.6688  0.6346  0.8861
  448MOL0     H59107   5.344  10.052   7.754  1.9042  4.2905 -1.1092
  448MOL0     H59108   5.243   9.870   7.527  0.5886  1.6743 -0.4935
  448MOL0     H59109   5.203   9.841   7.686  1.0741 -2.4919 -1.9161
  448MOL0     H59110   5.064  10.044   7.700  0.4475 -0.4115  0.2390
  448MOL0     H59111   5.021   9.930   7.565  0.1200  1.9790 -2.8395
  448MOL0     H59112   5.151  10.098   7.407 -1.6747 -0.3842 -0.9353
  448MOL0     H59113   5.146  10.207   7.533 -0.3795 -0.5219 -0.1525
  448MOL0     H59114   4.908  10.067   7.405 -2.1506 -1.7809  2.0336
  448MOL0     H59115   4.887  10.132   7.567  0.5566 -0.6279 -0.7276
  448MOL0     H59116   4.876  10.290   7.342 -1.5041 -3.7064  1.2704
  448MOL0     H59117   5.034  10.322   7.383 -0.5584 -1.9487 -1.9992
  448MOL0     H59118   5.775  10.187   7.547  0.5490  1.0988  2.3199
  448MOL0     H59119   5.995  10.249   7.489 -2.0048  0.5599 -0.3469
  448MOL0     H59120   6.420  10.289   7.606  0.7733 -3.3811  2.4557
  448MOL0     H59121   6.681  10.325   7.605 -0.7516 -1.4024  1.5499
  448MOL0     H59122   8.599   9.974   7.728 -0.7520  0.5049  0.3831
  448MOL0     H59123   8.824   9.963   7.636 -1.8526  0.2714  1.2393
  448MOL0     H59124   9.230   9.748   7.545  3.2932  2.2789  0.8897
  448MOL0     H59125   9.407   9.663   7.411  1.3272  1.9362 -0.5905
  448MOL0     H59126   9.586   9.569   7.088  2.7750  0.9062  0.6987
  448MOL0     H59127   9.529   9.540   7.256  1.3447 -0.3508  1.1299
  448MOL0     H59128   9.689   9.767   7.128  1.8073 -0.1611  0.2876
  448MOL0     H59129   9.634   9.788   7.296  0.5352 -0.0949  1.3932
  448MOL0     H59130   9.803   9.537   7.221  0.6435 -0.2201  2.1039
  448MOL0     H59131   9.788   9.604   7.375  3.0874 -2.5005  1.5965
  448MOL0     H59132   9.977   9.679   7.163 -1.4412  1.8161 -2.5568
  448MOL0     H59133   9.895   9.818   7.255 -3.7023 -1.0822  1.5773
  448MOL0     H59134  10.161   9.605   7.528  0.2936 -0.8583 -0.8773
  448MOL0     H59135   9.246   9.833   7.056 -0.3462 -2.7085 -0.7363
  448MOL0     H59136   9.048   9.905   7.180 -2.0695 -2.7477 -0.1986
  449MOL0     O59137   4.071   3.899   8.690 -0.3621  0.5773 -1.1397
  449MOL0     C59138   4.037   3.994   8.758 -0.4304  0.9860  0.2873
  449MOL0     O59139   4.121   4.067   8.842 -0.0333 -0.1868  0.2609
  449MOL0     C59140   4.248   4.025   8.844 -0.3932 -0.0837  0.0410
  449MOL0     C59141   4.337   4.092   8.762  0.3902 -0.3844  0.4071
  449MOL0     C59142   4.475   4.071   8.768 -1.0323  0.6526 -0.5675
  449MOL0     C59143   4.526   3.978   8.864 -0.0858 -0.1847  0.6211
  449MOL0     O59144   4.658   3.935   8.887 -0.4206  0.0667  1.0640
  449MOL0     C59145   4.759   4.020   8.849 -0.6157  0.0546 -0.2918
  449MOL0     C59146   4.869   4.034   8.954 -0.4366  0.6218  0.2126
  449MOL0     C59147   4.963   3.909   8.962 -0.7765 -0.7763 -0.0415
  449MOL0     C59148   5.094   3.960   9.029 -0.6709  0.3453  0.4400
  449MOL0     C59149   5.206   4.016   8.929  0.3731  0.3698 -0.5980
  449MOL0     C59150   5.278   3.907   8.852 -0.3556 -0.1796  0.0473
  449MOL0     C59151   5.351   3.806   8.953 -0.6576 -0.5962 -0.1648
  449MOL0     C59152   5.472   3.733   8.884  0.6390  0.2077 -0.9071
  449MOL0     N59153   5.501   3.611   8.966  0.2261  0.5955  0.1615
  449MOL0     C59154   5.427   3.497   8.979  1.2280 -1.0852 -0.6383
  449MOL0     C59155   5.477   3.421   9.076 -0.1764 -0.2896 -0.2589
  449MOL0     C59156   5.434   3.285   9.127  0.7621  0.5157 -0.4488
  449MOL0     C59157   5.279   3.275   9.122 -0.2379 -0.1526 -0.3673
  449MOL0     C59158   5.210   3.377   9.209 -0.3155  0.3619 -0.1322
  449MOL0     C59159   5.056   3.365   9.191 -0.8857  0.5966 -0.3910
  449MOL0     O59160   5.020   3.411   9.060 -0.5357 -0.1198 -0.3170
  449MOL0     C59161   4.888   3.391   9.023 -0.7683  0.2247 -0.1230
  449MOL0     C59162   4.855   3.260   8.987  0.8721  0.1233 -0.7375
  449MOL0     C59163   4.721   3.224   8.963  0.0791  0.8262 -0.3580
  449MOL0     C59164   4.623   3.326   8.958 -0.2314 -0.3631 -0.1968
  449MOL0     C59165   4.480   3.306   8.931  0.4813 -0.0778 -0.0924
  449MOL0     O59166   4.450   3.181   8.883 -0.8133 -0.0274  0.1402
  449MOL0     C59167   4.326   3.171   8.836  0.3192  0.0400 -0.2653
  449MOL0     C59168   4.295   3.208   8.712 -0.7859  0.4830 -0.6617
  449MOL0     C59169   4.164   3.193   8.669  0.1367 -0.3276  0.6646
  449MOL0     C59170   4.058   3.150   8.753 -0.3532  0.1394 -0.6124
  449MOL0     O59171   3.928   3.142   8.712 -0.3093  0.5495 -0.5451
  449MOL0     C59172   3.907   3.105   8.577  0.2723  0.0005  0.4230
  449MOL0     C59173   3.756   3.076   8.536  0.8017 -0.5130 -0.3899
  449MOL0     C59174   3.696   3.213   8.488 -0.6335 -1.3876  0.0077
  449MOL0     C59175   3.554   3.188   8.449 -0.4729  0.4377  0.7743
  449MOL0     C59176   3.474   3.312   8.409 -0.8888  0.3425 -0.8358
  449MOL0     C59177   3.353   3.267   8.338  1.1510  0.0375  0.0950
  449MOL0     C59178   3.287   3.377   8.260  0.2171  0.5905 -0.6305
  449MOL0     C59179   3.163   3.342   8.182 -0.2519  0.0433 -0.0118
  449MOL0    Cl59180   3.042   3.263   8.284 -0.4157  0.2524 -0.0130
  449MOL0     C59181   4.092   3.107   8.885 -0.4155  0.3702  0.3506
  449MOL0     C59182   4.224   3.126   8.924  0.5034 -1.1183 -0.2126
  449MOL0     O59183   4.406   3.398   8.950 -0.4135 -0.0579  1.0720
  449MOL0     C59184   4.666   3.461   8.988 -0.4964 -0.4627  0.4862
  449MOL0     C59185   4.798   3.495   9.016  0.5181 -0.1257 -0.1843
  449MOL0     N59186   5.580   3.492   9.134 -0.2147 -0.0408 -0.4920
  449MOL0     N59187   5.605   3.596   9.058  0.1178  0.0079  0.0120
  449MOL0     C59188   4.439   3.911   8.945  0.4780  0.3824  0.2241
  449MOL0     C59189   4.302   3.936   8.942 -0.0123  1.0430 -0.4441
  449MOL0     C59190   3.899   4.033   8.762 -0.4908  1.1235 -0.1182
  449MOL0     C59191   3.802   3.962   8.697  0.5015 -0.1728 -0.2608
  449MOL0     C59192   3.670   4.000   8.683  0.0430 -0.0330 -0.7568
  449MOL0     C59193   3.620   4.109   8.762  0.0276 -0.0390  0.3822
  449MOL0     O59194   3.487   4.135   8.752  0.0272  0.1158 -0.1323
  449MOL0     C59195   3.422   4.230   8.829 -0.1980 -0.1778  0.1558
  449MOL0     C59196   3.286   4.265   8.767  0.3592  0.5034 -1.1064
  449MOL0     C59197   3.191   4.305   8.882  0.2684  0.1944  0.0080
  449MOL0     C59198   3.055   4.344   8.825  0.2147 -0.1962  0.9399
  449MOL0     C59199   2.984   4.232   8.761  0.8708  0.1395 -0.2155
  449MOL0     C59200   2.929   4.138   8.711 -0.2089  0.2612  0.4232
  449MOL0     C59201   3.713   4.184   8.832  0.6950  0.1247  0.5658
  449MOL0     C59202   3.850   4.144   8.834  0.2702 -0.3157 -0.3002
  449MOL0     H59203   4.295   4.163   8.691  2.5073  0.3745 -0.1543
  449MOL0     H59204   4.543   4.130   8.706  0.1212  2.1620  1.9772
  449MOL0     H59205   4.717   4.119   8.830 -0.1494  0.4935  0.8904
  449MOL0     H59206   4.807   3.986   8.756 -0.8833  1.1417 -0.8335
  449MOL0     H59207   4.830   4.052   9.055  1.1955  1.4394  0.7270
  449MOL0     H59208   4.926   4.126   8.939 -0.7898  0.7323 -0.4924
  449MOL0     H59209   4.979   3.860   8.865  0.0269 -2.0026  0.6901
  449MOL0     H59210   4.910   3.838   9.025  1.6144 -1.3936  1.3942
  449MOL0     H59211   5.090   4.030   9.112  4.3884  0.1512  1.1887
  449MOL0     H59212   5.127   3.871   9.083  1.6188  0.4963 -0.5888
  449MOL0     H59213   5.267   4.075   8.998  0.5232 -2.5727  2.0038
  449MOL0     H59214   5.165   4.081   8.851 -2.5078  0.0450  0.5271
  449MOL0     H59215   5.356   3.950   8.789  0.6494  0.3657  1.6131
  449MOL0     H59216   5.206   3.850   8.792  0.2597 -2.7896  1.6132
  449MOL0     H59217   5.398   3.869   9.029  0.1241 -0.2299 -0.9324
  449MOL0     H59218   5.290   3.739   9.014  1.1357  0.7127  3.3017
  449MOL0     H59219   5.560   3.797   8.881  0.2720  0.7597 -0.2763
  449MOL0     H59220   5.439   3.701   8.785 -1.6529 -2.2060  0.5090
  449MOL0     H59221   5.346   3.461   8.916  1.3826 -3.4011  0.3663
  449MOL0     H59222   5.479   3.274   9.226  3.2418 -1.0260 -1.6530
  449MOL0     H59223   5.488   3.209   9.071 -1.2440 -1.5469  0.2106
  449MOL0     H59224   5.265   3.176   9.166  0.5397  0.5927  1.6477
  449MOL0     H59225   5.248   3.282   9.017 -0.7081  2.6151 -0.1125
  449MOL0     H59226   5.228   3.352   9.313  0.2212 -2.2734 -0.7958
  449MOL0     H59227   5.254   3.475   9.184 -0.4334  0.4290 -0.0751
  449MOL0     H59228   4.997   3.431   9.255  0.6972  1.1589  0.5417
  449MOL0     H59229   5.036   3.259   9.210  0.2724  0.7889  2.2380
  449MOL0     H59230   4.926   3.178   8.989 -0.8729 -1.4434  1.0802
  449MOL0     H59231   4.697   3.118   8.954  1.4818  0.4520  0.0790
  449MOL0     H59232   4.374   3.250   8.651 -1.5456 -1.8408 -3.4786
  449MOL0     H59233   4.146   3.199   8.562  1.2752  0.1516  0.4849
  449MOL0     H59234   3.957   3.008   8.563  1.7136  1.1507 -3.6388
  449MOL0     H59235   3.950   3.175   8.505  1.9632 -0.5233  0.8775
  449MOL0     H59236   3.700   3.036   8.620  0.4017 -0.1595 -0.4803
  449MOL0     H59237   3.749   3.002   8.456 -1.1074 -2.6995  1.6644
  449MOL0     H59238   3.760   3.253   8.408  2.2714  0.0041  2.7742
  449MOL0     H59239   3.689   3.290   8.566  0.8668 -0.1725 -0.9879
  449MOL0     H59240   3.558   3.117   8.365  3.5782  0.3926  0.7989
  449MOL0     H59241   3.507   3.141   8.535  1.6823 -0.2298  1.6711
  449MOL0     H59242   3.529   3.382   8.345  2.7134 -1.3010  0.1996
  449MOL0     H59243   3.433   3.360   8.499 -0.5066 -2.8844  1.2434
  449MOL0     H59244   3.278   3.227   8.407 -2.0830  0.3313 -2.9844
  449MOL0     H59245   3.378   3.187   8.268  0.8301  1.1139 -1.3129
  449MOL0     H59246   3.248   3.455   8.327  0.6814  0.3114 -0.0286
  449MOL0     H59247   3.356   3.427   8.191  1.4694  2.7549  1.9788
  449MOL0     H59248   3.177   3.267   8.103 -0.1093 -2.0388  1.8908
  449MOL0     H59249   3.130   3.434   8.134 -1.2368  0.3070  1.1385
  449MOL0     H59250   4.021   3.077   8.962  0.9519  1.4896  2.1315
  449MOL0     H59251   4.253   3.108   9.027 -0.8820  1.6760  0.7713
  449MOL0     H59252   4.600   3.546   8.977 -0.6725 -0.5723  0.6746
  449MOL0     H59253   4.827   3.598   9.039 -3.1045  0.6450  1.7608
  449MOL0     H59254   4.470   3.840   9.021 -3.3836 -0.8052  0.9119
  449MOL0     H59255   4.233   3.886   9.009  1.4975 -2.6691 -1.4009
  449MOL0     H59256   3.831   3.869   8.649  0.7157  0.0498 -0.5657
  449MOL0     H59257   3.589   3.950   8.632 -1.2944  1.4652 -0.1780
  449MOL0     H59258   3.478   4.323   8.815 -0.1687 -0.3790 -1.1541
  449MOL0     H59259   3.412   4.197   8.933  2.2412 -1.0793  0.1842
  449MOL0     H59260   3.281   4.342   8.690 -1.7651 -0.6672 -2.2177
  449MOL0     H59261   3.253   4.170   8.725 -1.5531 -0.2075  1.7649
  449MOL0     H59262   3.234   4.392   8.932  0.5947  0.6107 -0.9825
  449MOL0     H59263   3.178   4.217   8.946  1.1497 -0.4855 -0.7218
  449MOL0     H59264   3.006   4.383   8.914  0.5919  2.2170  0.1638
  449MOL0     H59265   3.069   4.430   8.759 -0.7777  0.7955  1.9819
  449MOL0     H59266   2.883   4.049   8.672 -0.3790  0.9423 -0.9802
  449MOL0     H59267   3.673   4.273   8.878  2.6070  0.6970  1.2053
  449MOL0     H59268   3.900   4.221   8.892  0.1227  0.9828 -1.8374
  450MOL0     O59269   2.291   0.702   9.483 -0.2419  0.0200  0.0157
  450MOL0     C59270   2.352   0.783   9.412 -1.3477 -0.2441  0.4011
  450MOL0     O59271   2.292   0.849   9.305 -0.2994  0.1375 -0.2577
  450MOL0     C59272   2.185   0.792   9.243 -0.3658  0.5853  0.3064
  450MOL0     C59273   2.062   0.803   9.303 -0.2235 -0.4037  0.3785
  450MOL0     C59274   1.949   0.749   9.248  0.0521 -0.9067 -0.0252
  450MOL0     C59275   1.958   0.680   9.125  0.2021 -0.0316  0.0771
  450MOL0     O59276   1.858   0.612   9.061  0.3877  0.0907  0.2768
  450MOL0     C59277   1.718   0.613   9.096 -0.2557 -0.2442  0.3633
  450MOL0     C59278   1.632   0.516   9.002 -0.0246 -0.0972  0.7848
  450MOL0     C59279   1.489   0.490   9.065  0.0899  0.1131  0.0977
  450MOL0     C59280   1.394   0.432   8.958  0.2778  0.5276 -0.7537
  450MOL0     C59281   1.259   0.387   9.023  0.0183  0.1944  0.7319
  450MOL0     C59282   1.193   0.298   8.918  0.6839  0.7962 -0.2875
  450MOL0     C59283   1.045   0.252   8.947 -0.1979 -1.0103  0.9022
  450MOL0     C59284   1.030   0.182   9.083  0.5134  0.1838  0.5293
  450MOL0     N59285   0.921   0.088   9.074  0.6590  0.3236  0.6507
  450MOL0     C59286   0.790   0.111   9.057  0.2732 -0.9546  1.4212
  450MOL0     C59287   0.729  -0.009   9.036 -0.7189 -0.6993 -0.0094
  450MOL0     C59288   0.588  -0.027   9.011 -0.0508 -0.3659 -0.1038
  450MOL0     C59289   0.487  -0.033   9.129 -0.1164 -0.0767 -0.2745
  450MOL0     C59290   0.349  -0.060   9.073  0.1030 -0.5358  0.2762
  450MOL0     C59291   0.240  -0.086   9.174  0.4464  1.3405  0.3570
  450MOL0     O59292   0.123  -0.105   9.099  0.0508 -0.3124  0.5821
  450MOL0     C59293   0.006  -0.148   9.154  0.8821 -0.0133 -0.4807
  450MOL0     C59294  -0.093  -0.189   9.062 -0.6210 -0.1511  0.2035
  450MOL0     C59295  -0.217  -0.245   9.099  0.4817 -0.9457 -0.0457
  450MOL0     C59296  -0.247  -0.258   9.244 -0.7284  0.6327  0.5297
  450MOL0     C59297  -0.382  -0.299   9.293  0.0036 -0.0324 -0.7412
  450MOL0     O59298  -0.397  -0.335   9.426 -0.0672 -0.4363  0.2716
  450MOL0     C59299  -0.510  -0.380   9.485  0.6771  0.4956  0.1312
  450MOL0     C59300  -0.635  -0.419   9.428  0.3397 -1.0222  0.3439
  450MOL0     C59301  -0.744  -0.471   9.497 -1.2272  0.5880  0.1053
  450MOL0     C59302  -0.736  -0.471   9.635  0.2972  0.1154 -0.7392
  450MOL0     O59303  -0.846  -0.497   9.713 -0.6026 -0.3547 -0.8763
  450MOL0     C59304  -0.911  -0.616   9.681 -0.8065 -0.3809 -0.7057
  450MOL0     C59305  -0.948  -0.667   9.821 -0.1101  0.2591 -0.1177
  450MOL0     C59306  -0.820  -0.718   9.899 -0.3884  0.2726 -0.4150
  450MOL0     C59307  -0.850  -0.742  10.062  0.7295  0.5535 -0.2661
  450MOL0     C59308  -0.737  -0.806  10.133  0.1750  0.5515 -0.4326
  450MOL0     C59309  -0.737  -0.955  10.118  0.4970 -0.3115 -0.2249
  450MOL0     C59310  -0.643  -1.035  10.212  0.2987  0.1266  0.6443
  450MOL0     C59311  -0.495  -0.998  10.200 -0.0147  1.6792  0.1448
  450MOL0    Cl59312  -0.392  -1.135  10.259  0.1802  0.4355  0.4644
  450MOL0     C59313  -0.614  -0.444   9.695  0.1558 -0.4243  1.2110
  450MOL0     C59314  -0.506  -0.395   9.622 -0.0590 -0.0165  0.8323
  450MOL0     O59315  -0.470  -0.294   9.206 -0.3646 -0.2079  0.4894
  450MOL0     C59316  -0.151  -0.216   9.335 -0.2215 -0.0554  0.2604
  450MOL0     C59317  -0.024  -0.167   9.290  0.0208  0.4361  0.2322
  450MOL0     N59318   0.827  -0.106   9.052 -0.4661  0.1211 -0.8884
  450MOL0     N59319   0.939  -0.042   9.076  0.7292 -0.7118 -0.5477
  450MOL0     C59320   2.083   0.664   9.068 -0.7947  0.6785 -0.0068
  450MOL0     C59321   2.191   0.721   9.121  0.2074  0.9082  0.0549
  450MOL0     C59322   2.487   0.822   9.462  0.0274  0.0600  0.3275
  450MOL0     C59323   2.562   0.739   9.541  0.0018  0.4958  0.4482
  450MOL0     C59324   2.701   0.771   9.572 -0.1352  0.9322  0.0755
  450MOL0     C59325   2.749   0.895   9.537  0.2528 -0.1461 -0.7660
  450MOL0     O59326   2.883   0.935   9.568  0.1459  0.0418  0.3599
  450MOL0     C59327   2.983   0.848   9.625 -0.4264  0.2067  0.1027
  450MOL0     C59328   2.982   0.832   9.777 -1.3166  0.3454  0.5339
  450MOL0     C59329   3.028   0.956   9.855 -0.6422 -0.0227 -0.1033
  450MOL0     C59330   3.180   0.984   9.855 -0.3963 -0.0753  0.4479
  450MOL0     C59331   3.256   0.886   9.926  0.9157  0.1589 -0.3626
  450MOL0     C59332   3.323   0.806   9.996 -0.1373 -0.4040  0.0130
  450MOL0     C59333   2.675   0.984   9.454 -0.3446  0.4563  0.1474
  450MOL0     C59334   2.543   0.942   9.415 -0.3342 -0.2236 -0.0191
  450MOL0     H59335   2.046   0.854   9.398  0.3714 -0.6851  0.6361
  450MOL0     H59336   1.853   0.769   9.294 -0.5273  3.8861 -2.6194
  450MOL0     H59337   1.679   0.715   9.087  0.2268  0.0240  1.2176
  450MOL0     H59338   1.702   0.579   9.199  0.0733 -1.7887 -0.0726
  450MOL0     H59339   1.694   0.429   8.981 -0.0462  0.0874 -0.0940
  450MOL0     H59340   1.619   0.563   8.903 -1.3233  0.6906  1.3022
  450MOL0     H59341   1.454   0.586   9.104  2.0318  1.3930 -1.1173
  450MOL0     H59342   1.507   0.424   9.150  1.1606  1.5815  1.0607
  450MOL0     H59343   1.381   0.497   8.871  0.6902  0.3751 -0.9359
  450MOL0     H59344   1.443   0.346   8.911 -0.5921  0.3346 -1.3248
  450MOL0     H59345   1.198   0.476   9.038 -0.2515  0.0276  0.6250
  450MOL0     H59346   1.274   0.328   9.114 -0.2676 -0.8258  0.1393
  450MOL0     H59347   1.245   0.206   8.892 -1.0899 -0.8852  1.6577
  450MOL0     H59348   1.196   0.360   8.828  0.4328  2.4094  0.7741
  450MOL0     H59349   0.984   0.343   8.951  0.4741 -0.5607  1.2535
  450MOL0     H59350   1.015   0.182   8.869 -1.6490  0.5054  0.0324
  450MOL0     H59351   0.999   0.261   9.152  0.7783 -1.2558  2.3872
  450MOL0     H59352   1.127   0.145   9.117  0.1126 -1.2307  0.2314
  450MOL0     H59353   0.734   0.203   9.066  1.2493 -0.3254  1.2827
  450MOL0     H59354   0.589  -0.121   8.955 -0.6308  0.4743 -1.5803
  450MOL0     H59355   0.561   0.054   8.942  1.6218 -0.4127 -0.8515
  450MOL0     H59356   0.487   0.059   9.188  1.7550 -0.2958  0.1165
  450MOL0     H59357   0.510  -0.106   9.207 -2.4908  0.8681  1.4472
  450MOL0     H59358   0.318   0.028   9.016  0.0213 -0.9950 -0.4080
  450MOL0     H59359   0.345  -0.148   9.008  1.0052 -0.3529 -0.0302
  450MOL0     H59360   0.245  -0.012   9.254  0.3787 -0.0141  1.6534
  450MOL0     H59361   0.270  -0.180   9.222 -0.2867  0.6485 -0.5238
  450MOL0     H59362  -0.065  -0.177   8.958 -0.9864 -2.5283 -0.2186
  450MOL0     H59363  -0.287  -0.270   9.020  1.0341  1.9431 -1.5939
  450MOL0     H59364  -0.633  -0.420   9.319  1.2009 -6.5099  0.1470
  450MOL0     H59365  -0.841  -0.498   9.457 -0.5512 -1.0269 -0.5481
  450MOL0     H59366  -0.846  -0.691   9.634  0.7443 -0.9473  2.1266
  450MOL0     H59367  -1.004  -0.597   9.628 -3.2115 -2.2967  2.4412
  450MOL0     H59368  -1.032  -0.737   9.813 -1.3343  1.7417 -0.8678
  450MOL0     H59369  -0.990  -0.580   9.873  1.4597 -0.0467  1.7325
  450MOL0     H59370  -0.733  -0.652   9.894 -0.3454  0.3394  0.8598
  450MOL0     H59371  -0.792  -0.815   9.855 -0.3254  0.5338 -0.9489
  450MOL0     H59372  -0.872  -0.645  10.108 -0.4939  0.8364 -1.3963
  450MOL0     H59373  -0.947  -0.787  10.084  0.3370  1.2381 -0.5389
  450MOL0     H59374  -0.747  -0.785  10.240  0.3610  0.0774 -0.3207
  450MOL0     H59375  -0.643  -0.772  10.089 -0.6022  0.9233 -1.8597
  450MOL0     H59376  -0.712  -0.970  10.013 -2.0536  2.1631 -1.3041
  450MOL0     H59377  -0.838  -0.990  10.141  0.3377  0.0187 -0.4245
  450MOL0     H59378  -0.669  -1.011  10.315 -0.1900 -1.4933  0.9230
  450MOL0     H59379  -0.662  -1.141  10.198  0.6023 -0.3684  3.4312
  450MOL0     H59380  -0.465  -0.911  10.260  0.1773  0.7597  1.4347
  450MOL0     H59381  -0.467  -0.977  10.097 -1.3314  1.4861 -0.2718
  450MOL0     H59382  -0.606  -0.457   9.802 -0.4405 -3.5774  0.9634
  450MOL0     H59383  -0.418  -0.357   9.673 -1.4865  1.6630  2.1425
  450MOL0     H59384  -0.162  -0.217   9.443  1.2680  1.1170  0.4641
  450MOL0     H59385   0.053  -0.159   9.366 -0.7169 -0.5192  1.1190
  450MOL0     H59386   2.083   0.604   8.978 -1.1129  1.8158 -0.7759
  450MOL0     H59387   2.284   0.693   9.073 -2.0941 -1.9503 -3.2223
  450MOL0     H59388   2.520   0.644   9.573  1.6917 -0.0691  1.1150
  450MOL0     H59389   2.755   0.695   9.628 -1.0330 -0.4700 -0.8720
  450MOL0     H59390   3.081   0.889   9.597  1.3410 -1.9514  2.6208
  450MOL0     H59391   2.993   0.751   9.576 -0.5329 -0.7281  1.8419
  450MOL0     H59392   2.880   0.811   9.810 -0.6029 -1.6560  1.6475
  450MOL0     H59393   3.045   0.749   9.811 -1.0730  1.1269  2.1035
  450MOL0     H59394   3.006   0.941   9.961  2.2345  2.9921  1.0881
  450MOL0     H59395   2.985   1.052   9.824  2.9241  2.2896  1.4789
  450MOL0     H59396   3.220   0.996   9.754  3.6177 -1.0750  1.7493
  450MOL0     H59397   3.202   1.074   9.913 -2.2248  0.2146  0.7624
  450MOL0     H59398   3.363   0.727  10.057 -1.4313 -2.3842 -1.5663
  450MOL0     H59399   2.727   1.069   9.414  1.2190 -0.5326  0.0055
  450MOL0     H59400   2.481   1.000   9.347 -1.6098 -3.5645 -1.9845
  451MOL0     O59401   4.681  11.048   3.380 -0.0096 -0.5818  0.8400
  451MOL0     C59402   4.733  10.957   3.307  0.0017 -0.4386  0.2495
  451MOL0     O59403   4.665  10.910   3.199  0.0921  0.2790 -0.3948
  451MOL0     C59404   4.552  10.984   3.173  0.2497 -0.2692 -1.1442
  451MOL0     C59405   4.566  11.098   3.101  0.1849  0.3598  0.0825
  451MOL0     C59406   4.451  11.164   3.052 -1.0430  0.4331  0.6440
  451MOL0     C59407   4.333  11.124   3.091  0.8442  0.3386 -0.0280
  451MOL0     O59408   4.231  11.211   3.057  0.5480 -0.0826 -0.5883
  451MOL0     C59409   4.103  11.189   3.123 -0.3880 -0.1141  0.3045
  451MOL0     C59410   4.015  11.291   3.054  0.0143 -0.4105  0.3850
  451MOL0     C59411   3.871  11.277   3.097  0.5118  0.6295  0.5640
  451MOL0     C59412   3.794  11.381   3.011  0.5924  0.1413  0.2970
  451MOL0     C59413   3.669  11.431   3.078 -0.0994  0.0738  0.0959
  451MOL0     C59414   3.561  11.325   3.081  0.1662 -0.0264  0.2502
  451MOL0     C59415   3.433  11.397   3.089  0.0062 -0.2940  0.4595
  451MOL0     C59416   3.293  11.326   3.084 -0.2546 -0.8857  0.5926
  451MOL0     N59417   3.282  11.220   2.988  0.2988  0.2428  0.1737
  451MOL0     C59418   3.334  11.096   2.992  0.6141 -0.2488  0.1403
  451MOL0     C59419   3.286  11.033   2.882  0.6750  0.2849 -0.2092
  451MOL0     C59420   3.322  10.899   2.826 -0.3427  0.4490 -0.1840
  451MOL0     C59421   3.404  10.803   2.912 -0.0457  0.4224  0.0950
  451MOL0     C59422   3.549  10.847   2.925 -0.1738 -0.4238  0.0296
  451MOL0     C59423   3.629  10.749   3.009 -0.3035  0.9114  1.0716
  451MOL0     O59424   3.757  10.798   3.042  0.1644 -0.6475  0.2586
  451MOL0     C59425   3.849  10.709   3.088 -0.2845  0.0049  0.0547
  451MOL0     C59426   3.966  10.776   3.142  0.1737  0.0903  0.1581
  451MOL0     C59427   4.082  10.699   3.172 -0.9148  0.3245 -0.4255
  451MOL0     C59428   4.086  10.560   3.165  0.6944 -0.1568 -0.7165
  451MOL0     C59429   4.210  10.472   3.202  0.2296 -1.0817 -0.7930
  451MOL0     O59430   4.192  10.336   3.195 -0.8485  0.0681  0.2863
  451MOL0     C59431   4.290  10.240   3.218 -0.3961  0.4058 -0.0069
  451MOL0     C59432   4.247  10.110   3.181  0.5467 -0.1206 -0.6565
  451MOL0     C59433   4.338  10.005   3.180  0.1529  1.0409 -0.4220
  451MOL0     C59434   4.469  10.019   3.219 -0.2503  0.1973 -0.0262
  451MOL0     O59435   4.566   9.914   3.218  0.2006 -0.3774 -0.5200
  451MOL0     C59436   4.531   9.780   3.196 -0.4221 -0.1215  0.5205
  451MOL0     C59437   4.461   9.713   3.319 -0.5245  0.5138 -0.2227
  451MOL0     C59438   4.556   9.694   3.436 -0.2385  0.9692 -0.3536
  451MOL0     C59439   4.524   9.569   3.521  1.5130 -0.7870  0.4995
  451MOL0     C59440   4.600   9.565   3.651  0.2709 -0.0010 -0.9382
  451MOL0     C59441   4.747   9.552   3.633 -0.4314 -0.0598 -0.1464
  451MOL0     C59442   4.824   9.548   3.766 -0.1637  0.4276  0.2305
  451MOL0     C59443   4.978   9.566   3.744  0.1750 -0.0343 -0.1397
  451MOL0    Cl59444   5.065   9.437   3.667 -0.1022 -0.1363 -0.1299
  451MOL0     C59445   4.506  10.145   3.261 -0.4577 -0.1690  0.2385
  451MOL0     C59446   4.417  10.251   3.262  0.3192 -0.1173  0.3946
  451MOL0     O59447   4.306  10.532   3.246 -0.6076 -0.0372  0.1460
  451MOL0     C59448   3.968  10.496   3.120  0.1290 -0.2391  0.1990
  451MOL0     C59449   3.848  10.569   3.093 -0.5149 -0.3984  0.5652
  451MOL0     N59450   3.205  11.120   2.820 -0.0290  0.3021 -0.6360
  451MOL0     N59451   3.205  11.229   2.884  0.2229  0.1190  0.0476
  451MOL0     C59452   4.317  11.009   3.164 -0.4410 -0.0404  0.3522
  451MOL0     C59453   4.427  10.934   3.209  1.0508  0.5462  0.1594
  451MOL0     C59454   4.850  10.890   3.367  0.0515 -0.3019 -0.1173
  451MOL0     C59455   4.917  10.945   3.475  0.3354  0.6550 -0.2241
  451MOL0     C59456   5.019  10.878   3.538 -0.0147  0.2503 -0.5479
  451MOL0     C59457   5.055  10.752   3.499 -0.2668  1.0511 -0.0244
  451MOL0     O59458   5.171  10.694   3.555 -0.7568  0.4910 -0.1147
  451MOL0     C59459   5.217  10.567   3.503  0.4102  1.0206 -0.0137
  451MOL0     C59460   5.154  10.439   3.561  0.2671 -0.0265 -0.3103
  451MOL0     C59461   5.206  10.423   3.703 -0.2218  0.5048  0.6327
  451MOL0     C59462   5.134  10.315   3.770  0.4829  0.2272 -0.3385
  451MOL0     C59463   5.156  10.298   3.920  0.2102  0.4430  0.3821
  451MOL0     C59464   5.180  10.283   4.045 -0.1744  0.7660  0.1881
  451MOL0     C59465   4.997  10.698   3.387  0.2058  0.9103  0.1795
  451MOL0     C59466   4.891  10.767   3.319 -0.4339 -0.4612  0.2412
  451MOL0     H59467   4.661  11.146   3.078  0.3570  0.3292  0.6999
  451MOL0     H59468   4.466  11.255   2.996  2.8020 -0.1317  0.4871
  451MOL0     H59469   4.103  11.213   3.230 -1.0009  3.0723 -0.2951
  451MOL0     H59470   4.060  11.091   3.103 -0.7938  0.0902  0.1688
  451MOL0     H59471   4.017  11.266   2.947 -0.6079  1.4405 -0.1039
  451MOL0     H59472   4.054  11.390   3.077 -1.2593 -0.2145  1.8126
  451MOL0     H59473   3.858  11.304   3.202  0.2464  0.6969  0.5157
  451MOL0     H59474   3.820  11.181   3.089  1.1737  0.2129  1.1967
  451MOL0     H59475   3.861  11.467   3.003  1.6499 -0.7838 -1.8378
  451MOL0     H59476   3.767  11.352   2.909  1.7643  0.5366 -0.1480
  451MOL0     H59477   3.640  11.524   3.029  2.7194 -0.4413 -2.8664
  451MOL0     H59478   3.688  11.460   3.182  1.9631 -0.9095  0.0455
  451MOL0     H59479   3.564  11.260   3.168  0.2098 -0.6774 -0.2259
  451MOL0     H59480   3.553  11.259   2.994 -0.2395  1.3550 -0.8090
  451MOL0     H59481   3.439  11.454   3.182 -0.7622  3.3890 -1.5512
  451MOL0     H59482   3.428  11.475   3.013  2.2660 -0.1237  0.4053
  451MOL0     H59483   3.211  11.397   3.069  0.9957  0.2236 -1.4627
  451MOL0     H59484   3.283  11.279   3.182  4.4913 -2.2280  0.6969
  451MOL0     H59485   3.390  11.050   3.072  0.1169 -0.5469  0.3230
  451MOL0     H59486   3.366  10.918   2.728  0.7098  0.6129  0.3115
  451MOL0     H59487   3.231  10.847   2.795  0.4614 -0.6177 -0.8124
  451MOL0     H59488   3.406  10.701   2.872  3.1999 -0.5069  2.2495
  451MOL0     H59489   3.357  10.782   3.008 -0.6570  0.8106 -0.1122
  451MOL0     H59490   3.585  10.855   2.822 -0.8245 -1.8985 -0.3412
  451MOL0     H59491   3.560  10.950   2.958  0.9961  0.0262 -1.6267
  451MOL0     H59492   3.643  10.654   2.955  2.1887  2.5575 -1.4352
  451MOL0     H59493   3.566  10.726   3.096 -2.9896  0.9913 -0.7119
  451MOL0     H59494   3.969  10.883   3.159 -2.2419  0.1087  0.7949
  451MOL0     H59495   4.161  10.763   3.211  0.6485 -0.3178 -2.3578
  451MOL0     H59496   4.149  10.110   3.134  0.3753  1.3773 -0.3621
  451MOL0     H59497   4.297   9.905   3.165  0.2018  1.1867 -1.5998
  451MOL0     H59498   4.619   9.724   3.164 -0.4993 -0.0884  0.2454
  451MOL0     H59499   4.461   9.770   3.112  1.4931 -0.6594 -1.0966
  451MOL0     H59500   4.422   9.612   3.303  0.7185 -0.7603  3.6940
  451MOL0     H59501   4.372   9.770   3.347 -0.5613  1.1453 -1.5517
  451MOL0     H59502   4.577   9.790   3.484  2.4484  0.6858 -0.8140
  451MOL0     H59503   4.655   9.668   3.397 -2.4221 -2.4993 -4.2818
  451MOL0     H59504   4.418   9.574   3.549  1.2468  0.4400 -0.6252
  451MOL0     H59505   4.540   9.480   3.460  4.0503  0.6273 -1.0667
  451MOL0     H59506   4.565   9.475   3.703  0.5602  0.2829 -0.2418
  451MOL0     H59507   4.589   9.656   3.712 -0.0321 -0.3977 -0.3890
  451MOL0     H59508   4.795   9.639   3.586  1.0182 -1.2077 -0.9027
  451MOL0     H59509   4.768   9.464   3.571 -1.3827 -2.6964  2.9937
  451MOL0     H59510   4.781   9.621   3.834 -3.6739  0.9214 -2.2561
  451MOL0     H59511   4.806   9.449   3.809  2.0537  0.7611  2.0979
  451MOL0     H59512   5.025   9.595   3.838  4.0861 -1.3978 -1.4634
  451MOL0     H59513   4.993   9.654   3.680  1.4470 -2.4424 -3.4971
  451MOL0     H59514   4.606  10.165   3.298 -1.0099  3.7843  0.0722
  451MOL0     H59515   4.449  10.344   3.309  0.2377 -0.8157  1.9051
  451MOL0     H59516   3.970  10.389   3.102  1.2187 -0.1804 -0.1028
  451MOL0     H59517   3.767  10.518   3.044  1.5978 -0.7171 -2.9553
  451MOL0     H59518   4.211  10.986   3.171 -0.2774 -1.1524 -0.5433
  451MOL0     H59519   4.412  10.834   3.248 -1.9563 -0.5831 -3.3106
  451MOL0     H59520   4.883  11.041   3.513  1.7536  0.7688  0.8605
  451MOL0     H59521   5.085  10.917   3.614  0.9883 -2.8534  0.3438
  451MOL0     H59522   5.322  10.570   3.533  0.0502 -1.0002  1.6783
  451MOL0     H59523   5.219  10.550   3.394 -1.3384 -0.2795  0.1174
  451MOL0     H59524   5.045  10.439   3.554  0.2868  0.7341 -0.8297
  451MOL0     H59525   5.189  10.354   3.502 -3.2264  0.1526 -2.9581
  451MOL0     H59526   5.189  10.523   3.746  1.7331  0.6923  1.0286
  451MOL0     H59527   5.313  10.404   3.704 -0.0589  1.3832  0.6344
  451MOL0     H59528   5.028  10.323   3.745  0.7983  0.9762 -1.4648
  451MOL0     H59529   5.168  10.217   3.736 -0.6604 -1.3183  2.6122
  451MOL0     H59530   5.200  10.275   4.150  1.5848  0.9236 -0.1123
  451MOL0     H59531   5.030  10.611   3.332 -1.7054  1.5614 -2.1860
  451MOL0     H59532   4.838  10.725   3.234 -0.9683 -0.1479  0.4151
  452MOL0     O59533   1.098   9.810   4.730  0.0274 -0.3465  0.0006
  452MOL0     C59534   1.165   9.807   4.835 -0.7414  0.1204  0.1024
  452MOL0     O59535   1.130   9.761   4.955  0.1169 -0.6271  0.1306
  452MOL0     C59536   1.002   9.705   4.968 -0.5273  0.3450 -0.8981
  452MOL0     C59537   0.913   9.742   5.068 -0.7926  0.1186  0.8918
  452MOL0     C59538   0.786   9.695   5.076  0.3578  0.5969  0.5219
  452MOL0     C59539   0.740   9.598   4.987  0.3004  0.2593  0.0249
  452MOL0     O59540   0.606   9.571   4.974  0.1115 -0.2090  1.3302
  452MOL0     C59541   0.541   9.479   5.069 -0.4034  0.4723 -0.1628
  452MOL0     C59542   0.451   9.383   4.998 -0.8114  1.1744  0.1017
  452MOL0     C59543   0.309   9.428   4.989  0.2777 -0.7303  0.6224
  452MOL0     C59544   0.219   9.316   4.933 -0.3497 -0.6921 -0.5454
  452MOL0     C59545   0.080   9.357   4.875  0.1237  0.9948  0.4526
  452MOL0     C59546  -0.022   9.394   4.990  0.0240 -0.7056  0.1600
  452MOL0     C59547  -0.164   9.426   4.924  0.3464 -0.6198  0.5148
  452MOL0     C59548  -0.264   9.515   5.004 -0.9796 -0.6614 -0.4305
  452MOL0     N59549  -0.304   9.439   5.130 -0.2696 -0.1943  0.1509
  452MOL0     C59550  -0.400   9.338   5.131  0.2556 -0.7065 -0.2680
  452MOL0     C59551  -0.401   9.305   5.261 -0.4513  0.3699 -0.0031
  452MOL0     C59552  -0.502   9.224   5.336 -0.2124  0.0470 -0.1319
  452MOL0     C59553  -0.632   9.291   5.368 -0.2696  0.4028  0.4855
  452MOL0     C59554  -0.712   9.218   5.484  0.3135  0.6834 -0.1254
  452MOL0     C59555  -0.864   9.211   5.454 -0.8310 -0.7690  0.0190
  452MOL0     O59556  -0.906   9.350   5.453  0.4262 -0.6260 -0.3007
  452MOL0     C59557  -1.034   9.374   5.418  0.1557 -0.1093  0.1318
  452MOL0     C59558  -1.127   9.273   5.400  0.0500 -0.4315  0.7758
  452MOL0     C59559  -1.260   9.300   5.382 -0.4203 -0.2367  0.1626
  452MOL0     C59560  -1.301   9.437   5.369  0.5409  0.0028  0.0562
  452MOL0     C59561  -1.440   9.472   5.329 -0.0948  0.0598 -0.8674
  452MOL0     O59562  -1.476   9.589   5.281 -0.2195  0.2909 -0.3351
  452MOL0     C59563  -1.607   9.610   5.244 -0.3213  0.2786  0.7004
  452MOL0     C59564  -1.639   9.645   5.111 -0.1907 -0.8035  0.9204
  452MOL0     C59565  -1.774   9.666   5.074 -0.9573  0.0311  0.1021
  452MOL0     C59566  -1.883   9.649   5.163  0.2643 -0.1415 -0.3245
  452MOL0     O59567  -2.004   9.703   5.126 -0.3713  0.2632  0.7267
  452MOL0     C59568  -2.107   9.677   5.220  0.1076 -0.3346  0.5146
  452MOL0     C59569  -2.243   9.721   5.164 -0.1628 -0.4693 -0.4937
  452MOL0     C59570  -2.335   9.600   5.138  0.3545 -0.5230 -0.5527
  452MOL0     C59571  -2.472   9.649   5.072 -0.4827 -0.1461  0.2941
  452MOL0     C59572  -2.574   9.558   5.117 -0.3769  0.9233 -0.7576
  452MOL0     C59573  -2.699   9.546   5.022 -1.2029  0.0512  0.2846
  452MOL0     C59574  -2.766   9.682   5.021  0.0660 -0.1855  0.9688
  452MOL0     C59575  -2.896   9.671   4.938  0.1572 -0.3248  0.1295
  452MOL0    Cl59576  -3.043   9.627   5.054 -0.2608 -0.1015 -0.0038
  452MOL0     C59577  -1.855   9.611   5.302  0.3033  0.5790  0.2116
  452MOL0     C59578  -1.713   9.596   5.332 -0.2277  0.3681  0.1601
  452MOL0     O59579  -1.523   9.381   5.344  0.3275  0.0963 -0.6093
  452MOL0     C59580  -1.206   9.543   5.393  1.0442 -0.2087 -0.6165
  452MOL0     C59581  -1.076   9.509   5.411  0.0026  0.7570 -0.2140
  452MOL0     N59582  -0.307   9.379   5.329  0.2794  0.2992  0.4620
  452MOL0     N59583  -0.256   9.473   5.251  0.5348  0.3832  0.0090
  452MOL0     C59584   0.830   9.553   4.897  0.6206 -0.5240  0.5322
  452MOL0     C59585   0.959   9.606   4.887  0.1981 -0.1448 -0.3569
  452MOL0     C59586   1.297   9.880   4.826 -0.3494  0.9807  0.6488
  452MOL0     C59587   1.394   9.861   4.926  0.2936  1.0411 -0.0065
  452MOL0     C59588   1.523   9.910   4.906  0.1812  0.1463 -0.6507
  452MOL0     C59589   1.548   9.992   4.799  0.0535  0.6770  0.4632
  452MOL0     O59590   1.670  10.062   4.785 -0.4329 -0.0948 -0.0371
  452MOL0     C59591   1.744  10.069   4.912 -0.0112 -0.1578  1.1822
  452MOL0     C59592   1.846  10.167   4.909 -0.8062 -0.3972  0.2580
  452MOL0     C59593   1.938  10.154   4.788  0.0701 -0.9975  0.0630
  452MOL0     C59594   2.038  10.037   4.775 -0.6618  0.4985 -0.8092
  452MOL0     C59595   1.972   9.919   4.709 -0.1641 -0.6484 -0.4352
  452MOL0     C59596   1.910   9.823   4.662 -0.2363  1.1885  0.0511
  452MOL0     C59597   1.452  10.023   4.704 -0.1822  0.6185 -0.2994
  452MOL0     C59598   1.330   9.958   4.709  0.3061  0.1807  0.0688
  452MOL0     H59599   0.943   9.816   5.141  1.1970 -0.5766  0.8350
  452MOL0     H59600   0.706   9.742   5.133 -0.0630  2.2367 -1.2932
  452MOL0     H59601   0.495   9.540   5.147 -0.0173  1.0887 -0.4128
  452MOL0     H59602   0.630   9.437   5.116 -1.0869  0.1721  0.8924
  452MOL0     H59603   0.464   9.287   5.049  1.2105  2.9208  3.1469
  452MOL0     H59604   0.487   9.377   4.895 -1.8360  2.0516 -0.3334
  452MOL0     H59605   0.293   9.518   4.929  1.2598 -0.5253  0.6448
  452MOL0     H59606   0.272   9.457   5.088 -0.3186  2.4161 -0.4065
  452MOL0     H59607   0.275   9.286   4.844  2.2747  1.6049  0.1717
  452MOL0     H59608   0.213   9.233   5.003 -0.8438  1.9038  2.7533
  452MOL0     H59609   0.039   9.267   4.828 -1.0460  0.2029  2.8232
  452MOL0     H59610   0.093   9.443   4.810 -0.7880  0.1936 -0.8364
  452MOL0     H59611   0.013   9.485   5.040 -5.1627  0.9322  1.4370
  452MOL0     H59612  -0.040   9.316   5.063  1.3382 -0.1104  1.1475
  452MOL0     H59613  -0.145   9.481   4.831  1.3587 -0.1348  1.0014
  452MOL0     H59614  -0.215   9.332   4.904 -1.1344 -0.3056  2.4652
  452MOL0     H59615  -0.353   9.526   4.942 -0.7322  0.2659 -0.6382
  452MOL0     H59616  -0.211   9.609   5.021 -0.6966 -0.7294 -0.9314
  452MOL0     H59617  -0.443   9.297   5.040 -1.8101 -0.0509  0.3787
  452MOL0     H59618  -0.454   9.189   5.428  0.1984  4.3425  1.4959
  452MOL0     H59619  -0.521   9.140   5.269  1.3956  0.0219 -0.6033
  452MOL0     H59620  -0.690   9.277   5.276  1.5013  1.0321 -0.7762
  452MOL0     H59621  -0.624   9.398   5.388  2.2392  0.3262  0.2239
  452MOL0     H59622  -0.683   9.116   5.508 -0.8247  0.6073  1.0503
  452MOL0     H59623  -0.698   9.278   5.574  1.8104  1.3613 -0.7657
  452MOL0     H59624  -0.916   9.156   5.532 -0.6562  0.7311  1.2300
  452MOL0     H59625  -0.881   9.165   5.356 -2.0663  1.2959 -0.7962
  452MOL0     H59626  -1.101   9.167   5.395 -1.5515 -0.8386  0.3601
  452MOL0     H59627  -1.334   9.221   5.372 -0.5873  0.0636 -1.1775
  452MOL0     H59628  -1.556   9.661   5.043  0.5197  0.1133  1.9703
  452MOL0     H59629  -1.791   9.696   4.971  2.2815 -2.0588 -1.1677
  452MOL0     H59630  -2.078   9.712   5.319  4.6289 -1.7055 -0.1009
  452MOL0     H59631  -2.108   9.568   5.223  0.4071 -0.3192  1.4404
  452MOL0     H59632  -2.238   9.780   5.072 -1.0240  1.6904  0.7726
  452MOL0     H59633  -2.292   9.783   5.239  0.8232  0.1744 -0.3629
  452MOL0     H59634  -2.358   9.552   5.234 -1.7211 -1.9526 -1.7123
  452MOL0     H59635  -2.276   9.535   5.073  1.1115  1.9324 -2.4964
  452MOL0     H59636  -2.502   9.752   5.091  0.7355  0.9551 -2.9227
  452MOL0     H59637  -2.476   9.645   4.962 -0.2593 -1.0843  0.3100
  452MOL0     H59638  -2.611   9.591   5.215 -1.8990 -0.6183 -0.7633
  452MOL0     H59639  -2.530   9.460   5.136 -2.8087 -0.0890  0.2040
  452MOL0     H59640  -2.764   9.465   5.056 -2.1719  0.4666 -0.5309
  452MOL0     H59641  -2.659   9.517   4.924  0.7100  0.8046  0.7993
  452MOL0     H59642  -2.794   9.728   5.117  2.6832  1.7964  0.8939
  452MOL0     H59643  -2.697   9.757   4.982 -0.2558  0.3002  1.3105
  452MOL0     H59644  -2.891   9.598   4.857 -0.8745 -0.2087 -0.0520
  452MOL0     H59645  -2.913   9.765   4.885 -2.3437 -0.5497  0.3996
  452MOL0     H59646  -1.928   9.595   5.381  0.4571  1.0900  0.4665
  452MOL0     H59647  -1.693   9.581   5.438  1.0354 -2.1034 -0.3580
  452MOL0     H59648  -1.242   9.644   5.379 -1.8513 -1.1980 -1.1758
  452MOL0     H59649  -0.996   9.581   5.427  1.0750 -0.1427 -1.3269
  452MOL0     H59650   0.785   9.497   4.815  2.3007  0.1886 -0.9552
  452MOL0     H59651   1.037   9.584   4.814  3.1184  1.3516  2.0772
  452MOL0     H59652   1.384   9.796   5.012 -0.8987  1.1922 -0.0185
  452MOL0     H59653   1.599   9.888   4.981  1.1862  2.2238 -1.0031
  452MOL0     H59654   1.792   9.975   4.940  1.6134  0.0951 -0.5634
  452MOL0     H59655   1.678  10.111   4.989 -1.2681  1.7159 -0.8037
  452MOL0     H59656   1.797  10.263   4.887  2.1333  0.8747 -1.3938
  452MOL0     H59657   1.904  10.175   5.001 -0.9360  2.9157  0.1750
  452MOL0     H59658   2.008  10.237   4.801 -1.2858  0.0646  0.9019
  452MOL0     H59659   1.885  10.167   4.694  1.1080 -0.1002 -0.4176
  452MOL0     H59660   2.136  10.062   4.733  0.8337 -1.7718  1.0617
  452MOL0     H59661   2.060  10.000   4.876  0.4973 -2.1004 -1.9184
  452MOL0     H59662   1.827   9.763   4.631 -0.1486  1.0886  0.0097
  452MOL0     H59663   1.494  10.096   4.635  0.6547  0.8237  0.4032
  452MOL0     H59664   1.260   9.976   4.628  2.4092 -0.1240 -1.9212
  453MOL0     O59665   0.499   6.229   6.520 -0.1194 -0.8326  0.2844
  453MOL0     C59666   0.583   6.298   6.579 -0.0479 -0.0364  0.0936
  453MOL0     O59667   0.561   6.378   6.685  0.2554  0.4872  0.2297
  453MOL0     C59668   0.432   6.385   6.731  0.2480  0.3267  0.8096
  453MOL0     C59669   0.373   6.510   6.747 -0.9556 -0.0437  0.6540
  453MOL0     C59670   0.251   6.527   6.804  0.0892  0.0228 -0.7913
  453MOL0     C59671   0.184   6.417   6.868  0.3865  0.0129 -0.4978
  453MOL0     O59672   0.056   6.405   6.922 -0.4845 -0.6268  0.7417
  453MOL0     C59673  -0.022   6.524   6.931 -0.0084 -0.1700  0.9803
  453MOL0     C59674  -0.158   6.506   6.994 -0.0174 -0.4314 -0.3594
  453MOL0     C59675  -0.263   6.440   6.905 -0.6657 -0.6735  0.3294
  453MOL0     C59676  -0.406   6.478   6.937  0.4205 -0.0209  0.0537
  453MOL0     C59677  -0.499   6.387   6.846 -0.6741  0.2298 -0.5947
  453MOL0     C59678  -0.641   6.432   6.882  0.2789  1.1677  1.3595
  453MOL0     C59679  -0.746   6.349   6.807 -0.3566  0.0778  0.0250
  453MOL0     C59680  -0.860   6.288   6.884 -0.4468 -0.0284  0.0537
  453MOL0     N59681  -0.962   6.394   6.903 -0.2811 -0.1820  0.7713
  453MOL0     C59682  -1.089   6.374   6.858 -0.7708 -0.5324  0.0773
  453MOL0     C59683  -1.168   6.461   6.934  0.1119 -0.3939 -0.9984
  453MOL0     C59684  -1.317   6.470   6.920  0.3602 -0.3565  0.6291
  453MOL0     C59685  -1.387   6.403   7.035  0.5869  0.3949 -1.3461
  453MOL0     C59686  -1.537   6.409   7.039 -0.2596 -0.0642  0.8108
  453MOL0     C59687  -1.584   6.555   7.022 -1.3842  0.5559 -0.3740
  453MOL0     O59688  -1.696   6.586   7.115  0.2181  0.6322 -0.3283
  453MOL0     C59689  -1.821   6.597   7.054  0.3125  0.5009 -0.0501
  453MOL0     C59690  -1.894   6.711   7.043  0.1005 -0.0820 -0.1029
  453MOL0     C59691  -2.025   6.711   7.002 -0.3438  0.4122  0.2144
  453MOL0     C59692  -2.088   6.591   6.973 -0.2444 -0.2990  0.4873
  453MOL0     C59693  -2.235   6.587   6.949 -0.4698  0.4819 -0.0388
  453MOL0     O59694  -2.280   6.468   6.975  0.2953  0.4657  0.4334
  453MOL0     C59695  -2.417   6.467   6.995 -0.3502  0.1665 -0.3755
  453MOL0     C59696  -2.461   6.457   7.124  0.3002 -0.0514 -0.1428
  453MOL0     C59697  -2.600   6.455   7.151 -0.3353  0.2700 -0.3465
  453MOL0     C59698  -2.693   6.450   7.054 -0.0884  0.0957 -0.9173
  453MOL0     O59699  -2.824   6.427   7.090  0.3604 -0.3176 -0.2164
  453MOL0     C59700  -2.901   6.353   7.002  0.2545 -0.0544  0.4924
  453MOL0     C59701  -3.023   6.310   7.072 -0.4641 -0.1587 -0.0456
  453MOL0     C59702  -3.093   6.417   7.163  0.1767 -0.1030  0.2230
  453MOL0     C59703  -3.225   6.376   7.223 -0.1674  0.4234 -0.1051
  453MOL0     C59704  -3.303   6.492   7.290  0.4208  0.2030  0.7579
  453MOL0     C59705  -3.446   6.460   7.324 -0.2969  0.3612 -0.0760
  453MOL0     C59706  -3.465   6.335   7.410  0.1884  0.8689  0.8551
  453MOL0     C59707  -3.621   6.302   7.417 -0.3821 -0.1096 -0.0979
  453MOL0    Cl59708  -3.715   6.437   7.513  0.2898 -0.2426  0.4235
  453MOL0     C59709  -2.648   6.466   6.915  0.2384  0.8155 -0.5354
  453MOL0     C59710  -2.508   6.472   6.888  0.3755  0.3498 -0.3790
  453MOL0     O59711  -2.293   6.696   6.916  0.1239  0.2884 -0.2679
  453MOL0     C59712  -2.016   6.470   6.975 -0.4421 -0.6924 -1.4854
  453MOL0     C59713  -1.885   6.474   7.021 -0.3073 -0.7048  0.0995
  453MOL0     N59714  -1.075   6.537   7.014 -0.5759 -0.8190 -0.5127
  453MOL0     N59715  -0.953   6.501   6.989  0.1620  0.6533  0.1507
  453MOL0     C59716   0.251   6.297   6.877  0.5716 -0.2097 -0.1230
  453MOL0     C59717   0.364   6.281   6.797 -0.3879 -0.1280  0.6877
  453MOL0     C59718   0.716   6.306   6.510  0.9053 -0.7021  0.1003
  453MOL0     C59719   0.824   6.342   6.579 -0.1071 -0.5716  0.8220
  453MOL0     C59720   0.940   6.372   6.506 -0.5482 -1.7088 -0.0650
  453MOL0     C59721   0.952   6.362   6.367 -0.6603 -0.1336 -0.0530
  453MOL0     O59722   1.078   6.382   6.313 -0.9086 -0.5020  0.2193
  453MOL0     C59723   1.100   6.354   6.174  0.2497 -0.1686  0.3579
  453MOL0     C59724   1.227   6.427   6.131 -0.5934  0.4626 -0.9254
  453MOL0     C59725   1.280   6.375   6.001  0.1778 -0.2205  1.1566
  453MOL0     C59726   1.385   6.470   5.961  0.3409 -0.6996  1.3805
  453MOL0     C59727   1.449   6.441   5.827  0.3641  0.6308 -0.0514
  453MOL0     C59728   1.512   6.413   5.729 -0.1030  0.0066 -0.4846
  453MOL0     C59729   0.832   6.314   6.304 -0.1281  0.2184  0.5644
  453MOL0     C59730   0.716   6.291   6.379 -0.3006 -0.3581 -0.0290
  453MOL0     H59731   0.426   6.595   6.704 -0.6397 -0.1906  0.7517
  453MOL0     H59732   0.207   6.625   6.816 -0.1734 -0.2227  0.3509
  453MOL0     H59733  -0.040   6.556   6.828  1.8465 -1.9541  0.0386
  453MOL0     H59734   0.034   6.606   6.978 -0.5668  0.7026  0.1613
  453MOL0     H59735  -0.200   6.603   7.022  0.9892  0.6165 -2.3053
  453MOL0     H59736  -0.159   6.445   7.085 -0.9029 -0.8215 -0.6140
  453MOL0     H59737  -0.247   6.332   6.911  2.2348 -0.3954 -0.8773
  453MOL0     H59738  -0.235   6.462   6.801 -0.1300 -2.7405 -0.0192
  453MOL0     H59739  -0.426   6.460   7.043 -2.5181 -1.6349 -0.6607
  453MOL0     H59740  -0.427   6.583   6.913 -0.9672 -0.5877 -1.3842
  453MOL0     H59741  -0.484   6.279   6.857 -1.5973  0.2328  1.0064
  453MOL0     H59742  -0.473   6.406   6.741 -0.8181 -0.4928 -0.7719
  453MOL0     H59743  -0.652   6.535   6.846 -1.7533 -0.1000 -2.2175
  453MOL0     H59744  -0.659   6.415   6.988  0.7670 -0.3100  1.2281
  453MOL0     H59745  -0.797   6.405   6.728 -2.1040 -1.5846 -0.0971
  453MOL0     H59746  -0.692   6.263   6.766 -1.7027 -0.8236  0.0984
  453MOL0     H59747  -0.831   6.254   6.984 -3.0578  0.9149  1.2234
  453MOL0     H59748  -0.893   6.198   6.832 -0.9447 -1.4918  2.7380
  453MOL0     H59749  -1.123   6.305   6.782  2.5206 -1.4528 -0.7049
  453MOL0     H59750  -1.356   6.421   6.830 -1.9429  0.3872  1.1612
  453MOL0     H59751  -1.340   6.577   6.923 -1.6642 -0.4405 -3.8588
  453MOL0     H59752  -1.347   6.449   7.126 -1.1699  0.8506 -0.7842
  453MOL0     H59753  -1.365   6.297   7.047  1.1251  0.7547  1.5383
  453MOL0     H59754  -1.579   6.347   6.959 -2.5985 -0.3856  2.2102
  453MOL0     H59755  -1.557   6.365   7.137  1.0091 -2.2921  0.1459
  453MOL0     H59756  -1.606   6.577   6.917 -1.6226  1.8245 -0.0736
  453MOL0     H59757  -1.496   6.614   7.050 -1.3427 -0.1963  1.2193
  453MOL0     H59758  -1.847   6.804   7.073  0.5904  0.0899 -1.3400
  453MOL0     H59759  -2.086   6.799   7.018  1.4432  2.0159 -1.2137
  453MOL0     H59760  -2.393   6.433   7.205  0.8857 -0.6770 -0.8136
  453MOL0     H59761  -2.626   6.440   7.256 -1.4918  0.7723 -0.5439
  453MOL0     H59762  -2.837   6.272   6.964  0.4317  1.3586 -2.5696
  453MOL0     H59763  -2.921   6.415   6.913 -1.4562  3.7428  3.2492
  453MOL0     H59764  -2.996   6.228   7.139 -0.3519  0.2202  0.3853
  453MOL0     H59765  -3.087   6.262   6.998  0.7442 -0.0942 -1.1623
  453MOL0     H59766  -3.118   6.506   7.104  1.1503  2.3915  3.3470
  453MOL0     H59767  -3.028   6.453   7.243  1.1365  1.2183 -1.1037
  453MOL0     H59768  -3.284   6.322   7.148 -1.8592 -1.7996  2.5966
  453MOL0     H59769  -3.208   6.312   7.310 -0.2326 -0.7455 -0.9284
  453MOL0     H59770  -3.312   6.573   7.216 -2.3535  1.1160  1.9507
  453MOL0     H59771  -3.253   6.543   7.373 -1.1027  1.3088  1.0452
  453MOL0     H59772  -3.506   6.458   7.232  2.4053 -1.0840 -1.9393
  453MOL0     H59773  -3.482   6.534   7.396 -0.4432  0.6103 -0.4013
  453MOL0     H59774  -3.401   6.252   7.379  1.9340  1.9691  1.3761
  453MOL0     H59775  -3.435   6.346   7.515  0.4410  0.0590  0.8743
  453MOL0     H59776  -3.631   6.208   7.472 -1.6245 -0.8929 -1.5983
  453MOL0     H59777  -3.665   6.291   7.317  0.8461 -1.9342 -0.4889
  453MOL0     H59778  -2.711   6.465   6.826  0.9928 -2.4996 -1.1699
  453MOL0     H59779  -2.472   6.470   6.786  1.7824 -1.4643  0.0902
  453MOL0     H59780  -2.056   6.375   6.939  0.2999 -1.1097 -1.2224
  453MOL0     H59781  -1.829   6.382   7.034  0.9581 -0.0877 -0.7978
  453MOL0     H59782   0.205   6.211   6.923  2.9076 -2.7286 -2.1299
  453MOL0     H59783   0.413   6.183   6.797 -1.3208 -0.6055  0.5147
  453MOL0     H59784   0.813   6.361   6.685 -1.4161 -0.1214  0.6174
  453MOL0     H59785   1.020   6.420   6.561 -2.0287 -1.3218  1.8622
  453MOL0     H59786   1.020   6.392   6.110 -0.5142 -1.5231  0.4798
  453MOL0     H59787   1.121   6.248   6.158  0.4743  0.2111 -2.4690
  453MOL0     H59788   1.203   6.533   6.130  2.0158  1.1675 -4.0891
  453MOL0     H59789   1.294   6.396   6.213  1.7731 -1.2046 -3.3254
  453MOL0     H59790   1.201   6.370   5.926  0.5304 -0.6840  0.8054
  453MOL0     H59791   1.325   6.276   6.016  1.3957  0.2673  0.8925
  453MOL0     H59792   1.337   6.566   5.936  0.8591 -0.3039  1.8632
  453MOL0     H59793   1.456   6.484   6.043  2.8417  0.5647 -0.8422
  453MOL0     H59794   1.553   6.372   5.639 -4.0927  0.6941 -2.8108
  453MOL0     H59795   0.826   6.282   6.200  0.8867 -0.7470  0.7835
  453MOL0     H59796   0.630   6.253   6.325  2.0398 -2.5253 -2.5330
  454MOL0     O59797   0.863   6.103   6.017  0.2959 -0.0661 -0.1703
  454MOL0     C59798   0.775   6.143   5.950 -0.3092  0.6436  1.0668
  454MOL0     O59799   0.787   6.167   5.815 -0.1031  0.4500 -0.0750
  454MOL0     C59800   0.904   6.127   5.755  0.5437  0.1598 -0.5793
  454MOL0     C59801   0.884   6.043   5.646 -0.0029 -0.4959  0.0666
  454MOL0     C59802   0.985   6.018   5.557 -0.3222  0.8511  0.2520
  454MOL0     C59803   1.111   6.063   5.588 -0.2805 -0.2614  0.5880
  454MOL0     O59804   1.214   6.034   5.498  0.0620 -0.7142 -0.1632
  454MOL0     C59805   1.349   6.083   5.513  0.0499  0.0456  0.0742
  454MOL0     C59806   1.439   6.013   5.413 -0.1709 -0.0660 -0.0129
  454MOL0     C59807   1.404   6.026   5.255 -0.0132  0.0322 -0.0633
  454MOL0     C59808   1.499   5.965   5.158  0.0894 -0.3146  0.0292
  454MOL0     C59809   1.591   6.077   5.099  0.6848  0.3134  0.3406
  454MOL0     C59810   1.700   6.117   5.196 -0.4546  0.2662  0.2118
  454MOL0     C59811   1.825   6.174   5.140  0.8589  0.1221  0.0142
  454MOL0     C59812   1.903   6.242   5.256 -0.6292 -0.2529 -0.6520
  454MOL0     N59813   1.821   6.348   5.321 -0.2089  0.0986 -0.1656
  454MOL0     C59814   1.767   6.455   5.252 -0.6712  0.6720 -0.6026
  454MOL0     C59815   1.728   6.537   5.350 -0.1386  0.1625  0.0725
  454MOL0     C59816   1.659   6.663   5.322  0.0002 -0.4682 -0.5038
  454MOL0     C59817   1.526   6.631   5.250  0.4445  0.7015 -0.6951
  454MOL0     C59818   1.430   6.551   5.344  0.4562 -0.2636  0.5502
  454MOL0     C59819   1.295   6.505   5.277  0.5691 -0.2434  0.4401
  454MOL0     O59820   1.243   6.397   5.348 -0.1535  0.3660 -0.4690
  454MOL0     C59821   1.137   6.430   5.422 -0.5298  0.4554  0.4011
  454MOL0     C59822   1.005   6.429   5.374 -0.1886 -0.0284 -0.6476
  454MOL0     C59823   0.890   6.449   5.443 -0.0477  0.0990  0.6236
  454MOL0     C59824   0.897   6.469   5.579 -0.7441  0.0147  0.5419
  454MOL0     C59825   0.775   6.489   5.662 -0.1176  0.8442  0.7308
  454MOL0     O59826   0.653   6.502   5.602 -0.8169  0.3798  0.1022
  454MOL0     C59827   0.533   6.521   5.678 -0.0398  0.0067 -0.3957
  454MOL0     C59828   0.418   6.448   5.650 -0.4227 -0.3119  0.1424
  454MOL0     C59829   0.299   6.453   5.733  0.0827  0.1829 -0.5028
  454MOL0     C59830   0.295   6.544   5.834  0.3439  0.5462 -0.6618
  454MOL0     O59831   0.189   6.565   5.922 -0.5522 -0.3174  0.0363
  454MOL0     C59832   0.100   6.453   5.930  0.3651  0.5306 -0.3110
  454MOL0     C59833   0.033   6.473   6.065 -0.6134 -0.4836 -0.0007
  454MOL0     C59834  -0.107   6.531   6.062 -0.5959  0.4376  0.6190
  454MOL0     C59835  -0.146   6.553   6.210  1.1516 -0.3033  0.0026
  454MOL0     C59836  -0.300   6.568   6.212  0.6557 -0.1710 -0.2305
  454MOL0     C59837  -0.339   6.591   6.353 -1.0258  0.3549  0.2837
  454MOL0     C59838  -0.485   6.632   6.346  1.0149 -0.2444  0.1231
  454MOL0     C59839  -0.551   6.643   6.479  0.5003 -0.2065  0.0708
  454MOL0    Cl59840  -0.465   6.778   6.581  0.2413 -0.2950 -0.1969
  454MOL0     C59841   0.402   6.638   5.855 -0.0188  0.8474  0.5142
  454MOL0     C59842   0.517   6.622   5.774 -0.4801  0.0924  0.5340
  454MOL0     O59843   0.793   6.507   5.778  0.7986  0.4382  0.3603
  454MOL0     C59844   1.030   6.466   5.637  0.2863 -0.7245  0.5102
  454MOL0     C59845   1.144   6.446   5.559 -0.4843 -0.1184  0.0811
  454MOL0     N59846   1.755   6.477   5.480  0.6916  0.0103  0.7429
  454MOL0     N59847   1.813   6.363   5.454 -0.7092  0.4991 -0.2537
  454MOL0     C59848   1.132   6.141   5.697 -0.2624  0.2461 -0.8311
  454MOL0     C59849   1.026   6.176   5.790 -0.6973 -0.4949  0.4107
  454MOL0     C59850   0.642   6.155   6.013  0.2007 -0.5029  0.4869
  454MOL0     C59851   0.605   6.083   6.129 -0.4774  0.0693  0.3240
  454MOL0     C59852   0.485   6.095   6.192 -0.2136  1.0392  0.1668
  454MOL0     C59853   0.396   6.189   6.138 -0.7390 -1.1900  0.0298
  454MOL0     O59854   0.270   6.221   6.191  0.2896  0.1817 -0.0899
  454MOL0     C59855   0.212   6.142   6.294 -0.5222 -0.3051 -0.5477
  454MOL0     C59856   0.087   6.195   6.351 -0.3186 -0.3282  0.2472
  454MOL0     C59857   0.114   6.339   6.415 -0.6140  0.2574 -0.1626
  454MOL0     C59858   0.050   6.348   6.558  0.5294 -0.5382  0.0485
  454MOL0     C59859  -0.100   6.331   6.541 -0.3270 -0.0618 -0.2719
  454MOL0     C59860  -0.218   6.297   6.524 -0.2612 -0.0798 -0.4651
  454MOL0     C59861   0.432   6.273   6.030 -0.5087  1.1802 -0.5075
  454MOL0     C59862   0.550   6.241   5.959 -0.8933 -0.9578 -0.9138
  454MOL0     H59863   0.782   6.017   5.620  0.5025 -0.2547 -2.4495
  454MOL0     H59864   0.971   5.959   5.467 -1.8035 -0.3077  1.1955
  454MOL0     H59865   1.380   6.063   5.616  0.3441  0.4343  0.0603
  454MOL0     H59866   1.341   6.188   5.485  0.6735 -0.4104 -1.9555
  454MOL0     H59867   1.442   5.905   5.431 -0.3620 -0.1337 -0.3714
  454MOL0     H59868   1.541   6.051   5.424  1.1619 -2.5375 -2.6704
  454MOL0     H59869   1.383   6.129   5.228  2.1566  0.2625 -1.0535
  454MOL0     H59870   1.306   5.976   5.253 -1.4922  2.4123  3.2460
  454MOL0     H59871   1.560   5.887   5.205 -0.4701 -0.1834  1.0051
  454MOL0     H59872   1.436   5.920   5.081 -1.5257 -0.9189  1.6172
  454MOL0     H59873   1.537   6.166   5.065  0.7582  0.1351 -0.2535
  454MOL0     H59874   1.639   6.028   5.014  2.1947 -1.4980  2.1195
  454MOL0     H59875   1.726   6.041   5.271 -0.5430  2.0655  2.1923
  454MOL0     H59876   1.649   6.177   5.273 -3.2832 -2.7177  0.8698
  454MOL0     H59877   1.889   6.101   5.089  0.7743  1.0193 -1.4188
  454MOL0     H59878   1.797   6.262   5.082  1.2149  0.3429  0.1724
  454MOL0     H59879   1.995   6.289   5.222 -1.1373  1.1642 -0.1282
  454MOL0     H59880   1.921   6.161   5.328 -1.6467 -0.2480 -0.3768
  454MOL0     H59881   1.753   6.482   5.148 -1.1186  1.9520 -0.2257
  454MOL0     H59882   1.720   6.734   5.266 -2.5311  0.3604 -2.4486
  454MOL0     H59883   1.634   6.714   5.415  2.7737  1.1458 -0.5427
  454MOL0     H59884   1.557   6.575   5.162  0.8779  1.4707 -1.0375
  454MOL0     H59885   1.471   6.723   5.227 -2.1208 -1.3102 -3.3177
  454MOL0     H59886   1.481   6.459   5.375 -1.6147 -1.7813 -0.3310
  454MOL0     H59887   1.411   6.613   5.432  2.0738  2.0075 -0.5946
  454MOL0     H59888   1.305   6.470   5.174 -2.3270 -1.8236  0.5722
  454MOL0     H59889   1.223   6.586   5.267 -0.6972 -1.2642  0.9587
  454MOL0     H59890   0.995   6.415   5.267 -0.8258  1.5004 -0.8065
  454MOL0     H59891   0.797   6.446   5.388  1.8433  0.2215 -2.8950
  454MOL0     H59892   0.419   6.377   5.568  1.0030 -2.4018  1.8590
  454MOL0     H59893   0.211   6.394   5.711  0.8172 -1.2681  0.3124
  454MOL0     H59894   0.145   6.354   5.919 -2.2820 -1.1377  2.3582
  454MOL0     H59895   0.020   6.467   5.856  1.0227  1.3252 -0.8985
  454MOL0     H59896   0.095   6.545   6.120 -1.8204 -0.1079  0.9132
  454MOL0     H59897   0.031   6.377   6.118 -3.6860  0.0878  1.1225
  454MOL0     H59898  -0.178   6.455   6.027  1.4040 -1.1682 -0.1990
  454MOL0     H59899  -0.109   6.618   5.996  0.5548 -0.4805 -0.7161
  454MOL0     H59900  -0.118   6.470   6.274 -1.6983 -1.9965 -0.7848
  454MOL0     H59901  -0.101   6.649   6.240  0.3006  0.1768 -0.2165
  454MOL0     H59902  -0.352   6.479   6.175  0.6621 -0.0471 -0.5468
  454MOL0     H59903  -0.328   6.655   6.151 -0.1648 -1.2850 -1.5099
  454MOL0     H59904  -0.274   6.671   6.388  1.1932 -0.2236 -2.1690
  454MOL0     H59905  -0.319   6.499   6.409  1.4799 -1.9251 -3.8335
  454MOL0     H59906  -0.492   6.732   6.301  0.2253 -0.6917 -0.7694
  454MOL0     H59907  -0.540   6.566   6.279  1.1351 -1.2092  0.9567
  454MOL0     H59908  -0.557   6.548   6.534 -0.2705 -0.3456 -0.2552
  454MOL0     H59909  -0.655   6.665   6.456  0.7038  0.9296  0.1549
  454MOL0     H59910   0.394   6.710   5.935  0.2544  1.3864  0.0608
  454MOL0     H59911   0.593   6.696   5.797  1.0209 -1.2065  0.0043
  454MOL0     H59912   1.030   6.474   5.746 -1.1090 -3.4012  0.7823
  454MOL0     H59913   1.243   6.435   5.602  0.7599  0.0984 -2.5203
  454MOL0     H59914   1.231   6.181   5.716 -0.8034  0.9603  0.5966
  454MOL0     H59915   1.029   6.247   5.872  0.7035  2.2779 -1.8466
  454MOL0     H59916   0.670   6.003   6.164 -1.8226 -1.6410 -0.8935
  454MOL0     H59917   0.457   6.040   6.281  1.0660  2.0406  1.2181
  454MOL0     H59918   0.278   6.135   6.381 -2.0856  2.2582  0.9676
  454MOL0     H59919   0.185   6.044   6.253 -0.4964 -0.2643 -0.6638
  454MOL0     H59920   0.004   6.202   6.280 -2.8463  3.2872  3.1648
  454MOL0     H59921   0.059   6.135   6.438 -1.9899  1.4316  0.9899
  454MOL0     H59922   0.081   6.422   6.352  0.0956 -0.2544 -1.2265
  454MOL0     H59923   0.222   6.354   6.413 -0.4301 -0.9141 -2.2715
  454MOL0     H59924   0.089   6.276   6.631  0.7919 -0.7897 -0.3333
  454MOL0     H59925   0.071   6.452   6.586  0.3906 -0.6778  0.6849
  454MOL0     H59926  -0.322   6.271   6.528 -0.0662 -0.8856 -0.2834
  454MOL0     H59927   0.355   6.338   5.990  0.0679  1.2237 -1.5978
  454MOL0     H59928   0.576   6.288   5.864  2.2393 -1.2689 -0.3483
  455MOL0     O59929   1.408   4.344   7.465  0.3289  0.6192 -0.7930
  455MOL0     C59930   1.465   4.448   7.437 -1.0643  0.0999  0.6270
  455MOL0     O59931   1.406   4.560   7.390  0.1142  0.5081 -0.0192
  455MOL0     C59932   1.270   4.579   7.406  0.6292  0.4907  0.8242
  455MOL0     C59933   1.174   4.486   7.350 -0.5093  0.0347  0.0119
  455MOL0     C59934   1.042   4.513   7.361 -0.3775 -0.2006  0.6683
  455MOL0     C59935   0.993   4.630   7.409 -0.2071  0.3826 -0.2587
  455MOL0     O59936   0.864   4.665   7.410  0.0995 -0.4819  0.4895
  455MOL0     C59937   0.775   4.611   7.316 -0.0997 -1.0427  0.5232
  455MOL0     C59938   0.649   4.690   7.313 -0.5196 -0.5496  0.5037
  455MOL0     C59939   0.566   4.657   7.437 -0.1912  0.0570  0.3066
  455MOL0     C59940   0.433   4.742   7.437  0.7785  0.3538 -0.1353
  455MOL0     C59941   0.379   4.735   7.577 -0.1861 -0.0583 -0.5245
  455MOL0     C59942   0.236   4.796   7.599 -0.4670 -0.1781 -0.1339
  455MOL0     C59943   0.189   4.755   7.737 -0.1411 -0.4101  0.9258
  455MOL0     C59944   0.047   4.803   7.766 -0.1090  0.1433  0.0243
  455MOL0     N59945  -0.010   4.760   7.893 -0.3742  0.4439 -0.6684
  455MOL0     C59946  -0.054   4.627   7.919 -0.6130 -0.0495 -0.0987
  455MOL0     C59947  -0.086   4.632   8.053 -0.2956  0.3507  0.5668
  455MOL0     C59948  -0.143   4.516   8.128 -0.0783  0.2318  0.4182
  455MOL0     C59949  -0.133   4.530   8.279  0.5070 -0.2691  0.1309
  455MOL0     C59950  -0.195   4.415   8.353  0.6445 -0.0993 -0.4344
  455MOL0     C59951  -0.192   4.454   8.498 -0.2128  0.7669  0.7957
  455MOL0     O59952  -0.235   4.335   8.577  0.7611  0.0531  0.4745
  455MOL0     C59953  -0.369   4.319   8.574 -0.0601 -0.3000  0.2310
  455MOL0     C59954  -0.407   4.195   8.527  0.5643  0.2921  0.3198
  455MOL0     C59955  -0.543   4.171   8.523  0.2141  0.4524 -0.7261
  455MOL0     C59956  -0.638   4.258   8.559 -0.6444 -0.1543 -0.0277
  455MOL0     C59957  -0.781   4.234   8.540  0.6780  0.3031 -0.1123
  455MOL0     O59958  -0.819   4.106   8.508 -0.4070 -0.7558  0.5204
  455MOL0     C59959  -0.938   4.066   8.456  0.8318 -0.4797  0.9956
  455MOL0     C59960  -0.945   3.951   8.381  0.2084 -0.4869 -0.4923
  455MOL0     C59961  -1.066   3.907   8.331 -0.3684  0.7292  0.4954
  455MOL0     C59962  -1.184   3.970   8.375  0.9666  0.7132  0.1875
  455MOL0     O59963  -1.306   3.911   8.339  1.4577 -0.1828 -0.5749
  455MOL0     C59964  -1.319   3.922   8.199 -0.1383  0.1538  0.1145
  455MOL0     C59965  -1.461   3.919   8.146  0.1526 -0.2000  0.0346
  455MOL0     C59966  -1.541   3.789   8.176 -0.4370  0.7757 -0.6999
  455MOL0     C59967  -1.691   3.789   8.139 -0.4115 -0.8327  0.1663
  455MOL0     C59968  -1.733   3.819   7.996 -1.0889 -0.2200 -0.2080
  455MOL0     C59969  -1.889   3.818   7.990  0.3491 -0.2311 -0.7924
  455MOL0     C59970  -1.944   3.854   7.849 -0.0520 -0.0182  0.6299
  455MOL0     C59971  -2.103   3.846   7.845  0.2798 -0.7929  0.5125
  455MOL0    Cl59972  -2.184   3.955   7.963  0.9007  0.0479  0.4835
  455MOL0     C59973  -1.182   4.080   8.456 -0.0036  1.3703  0.2617
  455MOL0     C59974  -1.055   4.130   8.496  0.7968  0.2924  0.0183
  455MOL0     O59975  -0.857   4.329   8.531  0.5668 -0.1014  0.4680
  455MOL0     C59976  -0.599   4.373   8.619  0.2144 -0.5615 -0.4379
  455MOL0     C59977  -0.467   4.407   8.634 -0.4288  1.1248 -0.1266
  455MOL0     N59978  -0.068   4.757   8.095  0.1127 -0.0054 -0.3862
  455MOL0     N59979  -0.015   4.832   8.004  0.0809  0.4261  0.3596
  455MOL0     C59980   1.084   4.720   7.455  0.9434  1.2579  0.6936
  455MOL0     C59981   1.224   4.699   7.455 -0.0433  0.0212 -0.4165
  455MOL0     C59982   1.618   4.452   7.447  0.9070  0.9435 -0.3305
  455MOL0     C59983   1.687   4.334   7.454  0.4345 -0.2457 -0.6216
  455MOL0     C59984   1.825   4.330   7.476  0.8126 -0.1411 -0.0922
  455MOL0     C59985   1.894   4.443   7.508 -0.2946 -0.6317 -0.1024
  455MOL0     O59986   2.026   4.423   7.531  0.6686  0.0349  0.0354
  455MOL0     C59987   2.112   4.546   7.527 -0.0951  0.1348 -0.4681
  455MOL0     C59988   2.239   4.504   7.597  0.4018 -0.0350  0.0745
  455MOL0     C59989   2.321   4.629   7.644  1.2177 -0.2274 -0.0643
  455MOL0     C59990   2.417   4.609   7.765  0.2305 -0.1556 -0.0331
  455MOL0     C59991   2.509   4.487   7.755  0.1759  0.2052 -0.2106
  455MOL0     C59992   2.587   4.391   7.760  0.2305  0.3767 -0.0927
  455MOL0     C59993   1.832   4.572   7.492 -0.0654  0.2149 -0.0971
  455MOL0     C59994   1.689   4.568   7.458  0.6385 -0.1887  0.2631
  455MOL0     H59995   1.219   4.397   7.306  0.5120  0.4122  0.2494
  455MOL0     H59996   0.984   4.431   7.320  1.6390 -1.2934 -0.1338
  455MOL0     H59997   0.750   4.508   7.341 -0.6674 -1.0020  0.1315
  455MOL0     H59998   0.821   4.615   7.217 -2.8752 -4.2838 -1.0631
  455MOL0     H59999   0.590   4.662   7.225 -1.0130 -1.9566  1.2558
  455MOL0     H60000   0.687   4.792   7.303 -1.5659  0.0928  2.5978
  455MOL0     H60001   0.627   4.682   7.524  1.1119  2.5234 -1.1908
  455MOL0     H60002   0.553   4.549   7.442  1.2209 -0.2461 -1.4459
  455MOL0     H60003   0.457   4.844   7.406  1.9379  0.7434  1.8680
  455MOL0     H60004   0.354   4.697   7.376  0.9325 -2.6822  1.6690
  455MOL0     H60005   0.444   4.798   7.639 -2.2335 -1.1592  3.0139
  455MOL0     H60006   0.388   4.631   7.609  1.8050 -0.0096 -0.8055
  455MOL0     H60007   0.166   4.748   7.531 -1.6971 -0.5156  1.3217
  455MOL0     H60008   0.231   4.903   7.578  0.2286 -0.2738 -0.8297
  455MOL0     H60009   0.191   4.647   7.756  1.2365 -0.5932 -0.1392
  455MOL0     H60010   0.246   4.808   7.813 -0.9754  1.2009  0.4759
  455MOL0     H60011  -0.025   4.762   7.695 -1.8686  0.6352  1.4262
  455MOL0     H60012   0.036   4.912   7.763 -0.6666  0.0883 -0.1284
  455MOL0     H60013  -0.060   4.542   7.850 -1.0262 -1.0232  1.1033
  455MOL0     H60014  -0.089   4.422   8.112  0.9320  0.1012  3.7629
  455MOL0     H60015  -0.245   4.496   8.095 -0.7610  2.4385  1.0108
  455MOL0     H60016  -0.183   4.622   8.310  0.4120  0.4464 -2.0301
  455MOL0     H60017  -0.031   4.544   8.315  0.6322  0.6261 -0.5430
  455MOL0     H60018  -0.301   4.412   8.327  0.5987  2.3794 -0.7641
  455MOL0     H60019  -0.145   4.319   8.338 -1.0303 -0.8086 -1.7942
  455MOL0     H60020  -0.253   4.541   8.525 -1.0435  0.2322  0.7052
  455MOL0     H60021  -0.089   4.469   8.529  0.7060  0.2072 -1.7078
  455MOL0     H60022  -0.329   4.126   8.497  0.0796 -0.6337  1.1294
  455MOL0     H60023  -0.579   4.075   8.488  1.6501  0.0904 -1.2879
  455MOL0     H60024  -0.850   3.902   8.367  0.7305 -0.2064  1.7966
  455MOL0     H60025  -1.066   3.820   8.265 -1.6586  0.6363  0.5801
  455MOL0     H60026  -1.258   3.838   8.164 -0.3875 -0.0998  0.2764
  455MOL0     H60027  -1.258   4.006   8.165  2.4502 -0.3876  3.0048
  455MOL0     H60028  -1.462   3.941   8.039  0.3839  1.2426  0.3092
  455MOL0     H60029  -1.511   4.004   8.192 -1.0303  0.1730 -1.8575
  455MOL0     H60030  -1.530   3.765   8.282  1.9517 -0.1076 -1.1016
  455MOL0     H60031  -1.501   3.713   8.107 -0.1752  0.8042 -0.5780
  455MOL0     H60032  -1.743   3.696   8.163 -1.9582 -0.4288 -1.3646
  455MOL0     H60033  -1.741   3.865   8.200 -2.6280  0.5128 -3.0426
  455MOL0     H60034  -1.694   3.742   7.928 -1.4787  0.8576 -1.7121
  455MOL0     H60035  -1.683   3.913   7.972  0.6352 -1.3744 -1.3565
  455MOL0     H60036  -1.930   3.899   8.050  1.1161  1.4811 -2.4652
  455MOL0     H60037  -1.930   3.722   8.022  1.6412 -1.1659 -1.8293
  455MOL0     H60038  -1.919   3.956   7.817  0.6356 -0.4724 -0.3605
  455MOL0     H60039  -1.900   3.779   7.782  1.5511  0.7017  0.8186
  455MOL0     H60040  -2.137   3.745   7.871  1.0144 -0.1853  4.3028
  455MOL0     H60041  -2.147   3.878   7.750 -2.2873 -1.8374  1.2786
  455MOL0     H60042  -1.275   4.120   8.494 -0.5681  0.2212  0.1491
  455MOL0     H60043  -1.064   4.219   8.556 -3.7564  0.6824 -0.8962
  455MOL0     H60044  -0.677   4.438   8.657 -0.6109 -2.9189  2.2474
  455MOL0     H60045  -0.431   4.495   8.688  0.6758 -1.6523  4.2255
  455MOL0     H60046   1.037   4.809   7.495  0.3400  0.5533  1.5797
  455MOL0     H60047   1.295   4.768   7.500 -2.1315  0.5108  2.3539
  455MOL0     H60048   1.634   4.240   7.443 -1.5724  0.9665 -1.9376
  455MOL0     H60049   1.877   4.234   7.476  0.1341 -0.5248  0.8168
  455MOL0     H60050   2.073   4.632   7.583 -0.6075 -0.0436 -0.5462
  455MOL0     H60051   2.127   4.584   7.426 -3.6647 -0.9229 -1.5334
  455MOL0     H60052   2.212   4.442   7.683 -0.9586  1.2002  0.5624
  455MOL0     H60053   2.299   4.438   7.533 -0.1958  1.1904 -1.8402
  455MOL0     H60054   2.255   4.705   7.687  1.6066 -1.2337  2.5218
  455MOL0     H60055   2.368   4.673   7.555  2.0080  3.2944  1.9217
  455MOL0     H60056   2.473   4.701   7.786 -1.8546  1.2122 -0.1134
  455MOL0     H60057   2.348   4.598   7.849 -1.5910  1.3280 -1.2422
  455MOL0     H60058   2.647   4.309   7.794 -3.9065 -2.3834  1.4376
  455MOL0     H60059   1.881   4.667   7.511  1.9508 -1.0306  1.4202
  455MOL0     H60060   1.644   4.666   7.448  0.6578 -0.2793 -0.8412
  456MOL0     O60061   3.365   6.056   1.402 -1.2160 -0.0740  0.3234
  456MOL0     C60062   3.430   6.010   1.498  0.6360 -1.1625  0.1485
  456MOL0     O60063   3.399   5.897   1.567 -0.4150 -0.8544  0.1125
  456MOL0     C60064   3.266   5.855   1.566 -0.6875 -0.3149  1.0748
  456MOL0     C60065   3.255   5.710   1.574 -0.0127 -0.5028 -0.9788
  456MOL0     C60066   3.125   5.655   1.561  0.1643 -0.2499  0.7384
  456MOL0     C60067   3.007   5.736   1.552  0.1533 -0.2371 -0.1337
  456MOL0     O60068   2.878   5.698   1.522  0.1649 -0.8046  0.2603
  456MOL0     C60069   2.847   5.555   1.537  0.2071 -0.2347  0.7054
  456MOL0     C60070   2.708   5.532   1.470 -0.0200  0.8225  0.2469
  456MOL0     C60071   2.610   5.646   1.470 -1.6883  0.2092 -0.4110
  456MOL0     C60072   2.491   5.590   1.396 -0.2892 -0.5121  0.9222
  456MOL0     C60073   2.394   5.702   1.361 -0.0359 -0.0396 -0.1238
  456MOL0     C60074   2.257   5.647   1.314 -0.4919  0.1877 -0.4268
  456MOL0     C60075   2.275   5.601   1.164 -0.4757  0.2861  0.1107
  456MOL0     C60076   2.161   5.537   1.098  0.1777  0.1632 -0.1953
  456MOL0     N60077   2.036   5.619   1.102 -0.3814 -0.9459  0.4967
  456MOL0     C60078   1.940   5.605   1.200  0.2798  0.2633 -0.3368
  456MOL0     C60079   1.857   5.713   1.179 -0.1112  0.8530 -0.1990
  456MOL0     C60080   1.740   5.752   1.261  0.0145  0.5846 -1.2313
  456MOL0     C60081   1.599   5.733   1.198  0.3524  0.2769 -0.3032
  456MOL0     C60082   1.562   5.869   1.116  0.1220  0.4815  0.1716
  456MOL0     C60083   1.416   5.894   1.116 -0.7618 -0.1264 -0.9338
  456MOL0     O60084   1.354   5.796   1.027  0.5562  0.5426  0.0040
  456MOL0     C60085   1.218   5.774   1.044  1.2561  0.3449  0.6375
  456MOL0     C60086   1.136   5.791   1.156  0.4512 -0.3534  0.1472
  456MOL0     C60087   0.999   5.750   1.159  0.1042 -0.6285  0.4528
  456MOL0     C60088   0.940   5.690   1.050 -0.6740 -0.5544  0.1134
  456MOL0     C60089   0.795   5.664   1.041 -0.9609 -0.0757 -0.3605
  456MOL0     O60090   0.711   5.687   1.142  0.4744  0.1382 -0.0022
  456MOL0     C60091   0.571   5.672   1.133 -0.9992  0.5516  0.3174
  456MOL0     C60092   0.497   5.757   1.220  0.2148 -0.1753 -0.0481
  456MOL0     C60093   0.358   5.751   1.215 -0.7263 -0.0281  0.0569
  456MOL0     C60094   0.288   5.677   1.123  0.8063 -0.8638 -0.6853
  456MOL0     O60095   0.150   5.701   1.106  0.0411  0.0384  0.0580
  456MOL0     C60096   0.090   5.641   0.996 -0.1262 -0.4902  0.3422
  456MOL0     C60097  -0.060   5.665   1.000 -0.0904 -0.1053 -0.5754
  456MOL0     C60098  -0.135   5.627   1.131  0.2587  0.5969 -0.5485
  456MOL0     C60099  -0.286   5.658   1.120  0.9205  0.0014  0.8460
  456MOL0     C60100  -0.354   5.600   0.995  0.6310 -0.3089 -0.2441
  456MOL0     C60101  -0.512   5.600   1.018 -0.6119  0.0408  0.4672
  456MOL0     C60102  -0.572   5.734   1.024 -0.6233  0.2480 -0.0308
  456MOL0     C60103  -0.725   5.738   0.992 -0.7443 -0.2385 -0.2446
  456MOL0    Cl60104  -0.827   5.632   1.096  0.2330 -0.3070  0.3116
  456MOL0     C60105   0.363   5.585   1.049  0.0392  0.9597 -0.0580
  456MOL0     C60106   0.506   5.580   1.056 -0.1222  0.6236 -0.4673
  456MOL0     O60107   0.767   5.607   0.932  0.0413  0.2701 -0.0192
  456MOL0     C60108   1.030   5.663   0.944  0.1313  0.5390  0.1121
  456MOL0     C60109   1.160   5.700   0.938  0.0943  0.3839 -0.1370
  456MOL0     N60110   1.906   5.786   1.069 -0.8335  0.2726  0.0380
  456MOL0     N60111   2.019   5.733   1.026 -0.4044 -0.2136 -0.5822
  456MOL0     C60112   3.029   5.874   1.538 -0.5814  0.0845  0.1778
  456MOL0     C60113   3.156   5.929   1.544  0.2224 -0.3290 -0.2224
  456MOL0     C60114   3.569   6.062   1.529  0.0428 -0.2907 -0.0530
  456MOL0     C60115   3.621   6.048   1.664 -0.6629  0.5511  0.1189
  456MOL0     C60116   3.737   6.107   1.707 -0.6618 -0.0384 -0.5850
  456MOL0     C60117   3.809   6.183   1.612 -0.2195  0.3715 -0.1106
  456MOL0     O60118   3.917   6.256   1.654 -0.0641  0.0195 -0.0878
  456MOL0     C60119   4.009   6.308   1.566 -0.5572 -0.8475  0.3436
  456MOL0     C60120   4.109   6.401   1.643 -0.2347  0.3625  0.6666
  456MOL0     C60121   4.190   6.333   1.753  0.2388 -0.0525 -1.0638
  456MOL0     C60122   4.226   6.434   1.861  0.4354 -0.2946 -0.0982
  456MOL0     C60123   4.339   6.522   1.814 -0.5339  0.1959  1.0876
  456MOL0     C60124   4.435   6.593   1.783 -0.5195 -0.9264  0.7384
  456MOL0     C60125   3.759   6.197   1.484 -0.8050 -0.1829 -0.2381
  456MOL0     C60126   3.642   6.147   1.438 -0.1307 -0.1707 -1.1058
  456MOL0     H60127   3.340   5.644   1.586 -0.3376 -0.8071 -0.3243
  456MOL0     H60128   3.115   5.547   1.565  0.9562 -0.2807  2.5178
  456MOL0     H60129   2.851   5.536   1.644  4.6494  1.8674  1.1480
  456MOL0     H60130   2.923   5.494   1.488 -0.5753  1.7851 -3.5013
  456MOL0     H60131   2.668   5.436   1.506  0.7818  0.5302  0.3643
  456MOL0     H60132   2.727   5.522   1.363  0.8232  2.0177  0.2663
  456MOL0     H60133   2.654   5.730   1.416  0.6512 -0.4526  0.3488
  456MOL0     H60134   2.592   5.673   1.575  1.7838  0.6184  0.2067
  456MOL0     H60135   2.504   5.541   1.299 -2.4184  1.9228 -0.7145
  456MOL0     H60136   2.452   5.513   1.464 -0.4017 -1.1977  0.1008
  456MOL0     H60137   2.441   5.773   1.293 -0.9468  0.3681 -0.3498
  456MOL0     H60138   2.366   5.764   1.446 -2.9191 -1.5315  0.1510
  456MOL0     H60139   2.186   5.730   1.314 -2.1640 -1.1601 -1.6771
  456MOL0     H60140   2.225   5.566   1.381  3.0824  1.2103  2.8813
  456MOL0     H60141   2.292   5.690   1.103 -2.4065  0.5976 -0.0266
  456MOL0     H60142   2.366   5.540   1.158  1.7931  3.2285  1.6529
  456MOL0     H60143   2.146   5.442   1.149 -0.5014  0.2460 -0.2240
  456MOL0     H60144   2.188   5.512   0.995 -0.9608 -1.2559 -0.1800
  456MOL0     H60145   1.925   5.523   1.271 -1.9513 -1.8456 -2.9914
  456MOL0     H60146   1.745   5.857   1.292  0.1753  0.0386  0.7053
  456MOL0     H60147   1.744   5.698   1.356  1.2456  0.9530 -1.0549
  456MOL0     H60148   1.526   5.724   1.279  0.3589  1.0675 -0.2014
  456MOL0     H60149   1.605   5.640   1.142  1.9356  0.1815 -0.0092
  456MOL0     H60150   1.594   5.964   1.158 -3.4901  1.5783  0.8038
  456MOL0     H60151   1.594   5.859   1.012 -1.4416 -0.2967 -0.2772
  456MOL0     H60152   1.397   5.990   1.068 -1.6887  0.0451 -0.2490
  456MOL0     H60153   1.380   5.908   1.218  2.4449 -1.7407  0.5660
  456MOL0     H60154   1.183   5.845   1.238  1.3291 -1.4516  0.3829
  456MOL0     H60155   0.958   5.768   1.258 -1.3965  0.0110 -0.2588
  456MOL0     H60156   0.539   5.824   1.295 -1.0388  3.3515 -2.2343
  456MOL0     H60157   0.294   5.812   1.278 -1.0580 -0.4896  0.1717
  456MOL0     H60158   0.100   5.533   1.012 -1.2317 -0.7935 -0.8439
  456MOL0     H60159   0.130   5.684   0.904 -0.8336 -0.0999  0.2123
  456MOL0     H60160  -0.100   5.609   0.915 -0.7617 -0.1196 -0.2542
  456MOL0     H60161  -0.081   5.769   0.973  0.5475 -0.2064 -1.5027
  456MOL0     H60162  -0.104   5.686   1.217  1.1866  0.0766 -0.5206
  456MOL0     H60163  -0.120   5.521   1.154  0.5591  0.6794 -0.3686
  456MOL0     H60164  -0.339   5.625   1.209  0.1084  3.6642  1.9041
  456MOL0     H60165  -0.304   5.766   1.120  2.8163  0.3677  2.1307
  456MOL0     H60166  -0.317   5.498   0.981 -2.6767 -1.9189  1.6883
  456MOL0     H60167  -0.332   5.655   0.903  1.3426  2.2568  1.3646
  456MOL0     H60168  -0.540   5.542   1.107  0.8048 -1.1312  0.1858
  456MOL0     H60169  -0.547   5.547   0.929  1.3470  1.9283 -1.5371
  456MOL0     H60170  -0.563   5.772   1.126 -2.0738 -0.2930  0.3242
  456MOL0     H60171  -0.533   5.811   0.957 -3.3312  1.1147 -0.7539
  456MOL0     H60172  -0.746   5.717   0.887 -4.1258  0.2201  0.2289
  456MOL0     H60173  -0.767   5.839   0.997  0.5694  0.3574 -0.9025
  456MOL0     H60174   0.308   5.515   0.986 -1.8126  0.6757  1.7653
  456MOL0     H60175   0.559   5.498   1.008  0.1412 -0.5382  1.6924
  456MOL0     H60176   0.991   5.617   0.854  1.9996  0.4967 -0.7135
  456MOL0     H60177   1.213   5.679   0.845  1.1400 -3.8109  1.1951
  456MOL0     H60178   2.945   5.939   1.513 -0.6780  0.1341  0.6133
  456MOL0     H60179   3.166   6.036   1.532  1.0384 -0.2711  0.7978
  456MOL0     H60180   3.574   5.979   1.733 -1.5633  1.1461  0.1199
  456MOL0     H60181   3.771   6.108   1.811 -1.4152  0.5259 -0.3392
  456MOL0     H60182   3.959   6.378   1.498  0.9580 -0.1168 -0.0742
  456MOL0     H60183   4.061   6.232   1.507  2.1059  0.3885  0.9315
  456MOL0     H60184   4.179   6.454   1.578 -0.3899 -0.4075 -0.1603
  456MOL0     H60185   4.045   6.480   1.684  1.9463  2.5219  0.1039
  456MOL0     H60186   4.282   6.293   1.709  1.0187  3.3668 -2.8954
  456MOL0     H60187   4.127   6.252   1.791  0.9162 -1.0045 -1.9083
  456MOL0     H60188   4.142   6.502   1.878  0.3486 -0.2847 -0.5623
  456MOL0     H60189   4.240   6.383   1.957 -1.6036 -0.1572  0.3220
  456MOL0     H60190   4.514   6.662   1.759  0.7587 -0.9663  4.2411
  456MOL0     H60191   3.815   6.255   1.411 -1.8002  1.7606  0.4552
  456MOL0     H60192   3.609   6.177   1.339  0.2080  2.7527 -0.4354
  457MOL0     O60193  10.069   5.241   9.308 -0.3564 -0.5737 -1.0195
  457MOL0     C60194  10.105   5.351   9.270 -0.5258 -0.3364 -0.4781
  457MOL0     O60195  10.028   5.450   9.218  0.0931  0.3379  0.1959
  457MOL0     C60196   9.894   5.426   9.193  0.2762  0.2599 -0.3171
  457MOL0     C60197   9.856   5.412   9.059 -0.0463  0.8216 -0.0702
  457MOL0     C60198   9.724   5.386   9.029 -0.8608 -0.5424  0.1286
  457MOL0     C60199   9.624   5.385   9.121 -0.7464 -0.5972 -0.7064
  457MOL0     O60200   9.498   5.359   9.085 -0.5568  0.2536 -0.0708
  457MOL0     C60201   9.421   5.269   9.172  0.6564  0.2668 -0.0523
  457MOL0     C60202   9.281   5.272   9.129  0.3878  1.6823  0.3939
  457MOL0     C60203   9.208   5.185   9.239 -0.9209 -0.3907  0.1206
  457MOL0     C60204   9.062   5.137   9.200  0.6016 -0.3330  0.3797
  457MOL0     C60205   8.996   5.052   9.297  0.2536  1.5779  0.4217
  457MOL0     C60206   8.855   5.033   9.261  0.8224 -0.2646  0.3572
  457MOL0     C60207   8.772   4.996   9.384 -0.4682 -0.3103  0.9655
  457MOL0     C60208   8.618   4.973   9.370  0.2070 -0.6252 -0.1737
  457MOL0     N60209   8.557   4.971   9.508  0.2801  0.4475  0.3969
  457MOL0     C60210   8.506   5.087   9.574 -0.7554  0.5112  0.1923
  457MOL0     C60211   8.462   5.046   9.693 -0.0016  0.3861  0.1053
  457MOL0     C60212   8.377   5.132   9.782 -0.2875 -0.5739 -0.7018
  457MOL0     C60213   8.225   5.133   9.753 -0.3111  0.3742 -0.1892
  457MOL0     C60214   8.155   5.238   9.844  0.2690 -0.4049  0.4088
  457MOL0     C60215   8.007   5.252   9.809  0.3251 -0.2903  0.1351
  457MOL0     O60216   7.939   5.132   9.783  0.7221  0.1405  0.1784
  457MOL0     C60217   7.806   5.143   9.754 -0.3575 -0.6270  0.1296
  457MOL0     C60218   7.740   5.275   9.752 -0.2401  0.1987 -0.5859
  457MOL0     C60219   7.600   5.285   9.726 -0.6083  0.9077  0.2665
  457MOL0     C60220   7.530   5.170   9.697 -0.4281 -0.2012 -0.0447
  457MOL0     C60221   7.384   5.182   9.669 -0.1440  0.2518  0.0152
  457MOL0     O60222   7.326   5.073   9.623 -0.2245 -0.1826 -0.5551
  457MOL0     C60223   7.195   5.061   9.645 -0.1476  0.2352 -0.8432
  457MOL0     C60224   7.102   5.125   9.569 -0.4693  0.6045  0.4639
  457MOL0     C60225   6.967   5.109   9.584 -0.1529 -0.2157 -1.0328
  457MOL0     C60226   6.921   5.015   9.675  0.2195 -0.7341 -0.2928
  457MOL0     O60227   6.788   4.999   9.675 -0.6131 -0.0829 -0.0887
  457MOL0     C60228   6.726   4.907   9.779 -0.0567  0.7122 -1.2927
  457MOL0     C60229   6.577   4.896   9.741 -0.2245  0.0201 -0.0229
  457MOL0     C60230   6.499   5.027   9.723  0.2005  0.2463  1.1524
  457MOL0     C60231   6.372   5.008   9.648 -0.7208  0.3887 -0.0347
  457MOL0     C60232   6.304   5.142   9.644  0.1161  0.3614 -0.7277
  457MOL0     C60233   6.169   5.112   9.574  0.5632 -0.1865 -0.0488
  457MOL0     C60234   6.098   5.242   9.557  0.1819 -0.4539 -0.7537
  457MOL0     C60235   5.985   5.238   9.459  0.3355  0.2668  0.2207
  457MOL0    Cl60236   5.866   5.112   9.502 -0.2875 -0.3815 -0.0970
  457MOL0     C60237   7.014   4.964   9.768 -0.6978  0.2208 -0.4848
  457MOL0     C60238   7.155   4.976   9.749 -0.0122 -0.5800  0.5710
  457MOL0     O60239   7.326   5.282   9.712 -0.5888  0.1193  0.0970
  457MOL0     C60240   7.596   5.041   9.679  1.1364 -0.2464 -0.2978
  457MOL0     C60241   7.729   5.033   9.710 -0.1242 -0.7040  0.4341
  457MOL0     N60242   8.493   4.909   9.700 -0.9167 -0.8072 -0.4447
  457MOL0     N60243   8.558   4.866   9.600  0.3400 -0.2709 -0.1183
  457MOL0     C60244   9.664   5.411   9.254  0.6877 -0.0831 -0.1717
  457MOL0     C60245   9.797   5.440   9.286  0.6517  0.1006 -1.3720
  457MOL0     C60246  10.246   5.386   9.289 -1.1444 -0.0681  0.2252
  457MOL0     C60247  10.301   5.501   9.229 -0.8627 -0.1371 -0.2667
  457MOL0     C60248  10.439   5.529   9.240 -0.1922  0.3907  0.7063
  457MOL0     C60249  10.528   5.450   9.317 -0.0496  0.1775  0.3283
  457MOL0     O60250  10.658   5.488   9.316  0.6683  0.3414 -0.5215
  457MOL0     C60251  10.729   5.445   9.437 -0.4887 -0.2341  1.0075
  457MOL0     C60252  10.855   5.530   9.465  0.6378 -0.8106  0.0415
  457MOL0     C60253  10.945   5.457   9.566  0.3422 -0.6157 -0.0502
  457MOL0     C60254  11.054   5.549   9.613 -0.1522  0.4358 -0.0447
  457MOL0     C60255  11.151   5.470   9.692  0.1960 -0.5789  0.1986
  457MOL0     C60256  11.234   5.413   9.764 -0.7639  0.2014  0.5593
  457MOL0     C60257  10.479   5.333   9.370  0.5158  0.4242  0.4021
  457MOL0     C60258  10.337   5.302   9.358 -1.0060 -0.0655  0.1165
  457MOL0     H60259   9.930   5.386   8.983  1.4143  0.7479  1.3270
  457MOL0     H60260   9.705   5.379   8.922 -2.3363 -1.4472  0.4292
  457MOL0     H60261   9.414   5.295   9.278 -0.2551  0.6114 -0.1861
  457MOL0     H60262   9.453   5.165   9.166  0.6578  0.2611  0.0633
  457MOL0     H60263   9.276   5.224   9.031  0.2435  1.3566  0.5581
  457MOL0     H60264   9.229   5.367   9.113 -0.2908  1.4662  1.2156
  457MOL0     H60265   9.206   5.238   9.334  0.0774 -1.6030  0.8437
  457MOL0     H60266   9.271   5.098   9.258  3.7736  2.7807  0.9256
  457MOL0     H60267   8.996   5.224   9.197 -0.7806 -1.3559 -0.1312
  457MOL0     H60268   9.057   5.081   9.106  2.1259 -1.6393  1.0272
  457MOL0     H60269   9.013   5.098   9.395  4.9938  1.4941 -0.1484
  457MOL0     H60270   9.056   4.961   9.305  0.6704  1.5926 -1.8301
  457MOL0     H60271   8.859   4.960   9.180  1.2436 -1.5584  1.5128
  457MOL0     H60272   8.818   5.133   9.236  1.2731  0.1961  1.4728
  457MOL0     H60273   8.811   4.905   9.430 -0.6345 -0.8215  0.1186
  457MOL0     H60274   8.781   5.075   9.459  0.1856  0.1587  0.4106
  457MOL0     H60275   8.618   4.870   9.333  3.5610 -0.9548  0.3693
  457MOL0     H60276   8.570   5.043   9.302  3.5285  0.9208 -1.1245
  457MOL0     H60277   8.488   5.185   9.531 -1.5049  0.5851  0.6506
  457MOL0     H60278   8.417   5.233   9.786 -1.3165 -0.1581 -0.7367
  457MOL0     H60279   8.379   5.094   9.885  1.7222 -1.7370 -1.1034
  457MOL0     H60280   8.186   5.034   9.778 -0.2072  0.3150 -0.2642
  457MOL0     H60281   8.207   5.145   9.646  0.4086 -0.2066 -0.3817
  457MOL0     H60282   8.154   5.179   9.937  1.5329 -2.6922 -0.9179
  457MOL0     H60283   8.206   5.333   9.863  2.0171 -1.8072  3.5116
  457MOL0     H60284   7.998   5.307   9.714 -0.1462 -3.0504 -1.5251
  457MOL0     H60285   7.965   5.317   9.887  0.7467  1.2546 -0.8626
  457MOL0     H60286   7.790   5.368   9.779  0.8945 -0.8837  1.2915
  457MOL0     H60287   7.555   5.384   9.727  0.4066  1.4465 -1.8464
  457MOL0     H60288   7.134   5.193   9.491 -3.4153 -1.7583 -3.1193
  457MOL0     H60289   6.888   5.153   9.524 -2.6778 -2.0488  0.7788
  457MOL0     H60290   6.727   4.939   9.884 -1.6066  0.8285 -1.2957
  457MOL0     H60291   6.772   4.807   9.777 -0.9635  0.1909  0.8318
  457MOL0     H60292   6.531   4.848   9.828 -0.3260 -0.3581 -0.2830
  457MOL0     H60293   6.569   4.837   9.650 -2.8252  3.0319 -1.9448
  457MOL0     H60294   6.569   5.093   9.671  0.6512 -0.2406  1.1333
  457MOL0     H60295   6.481   5.082   9.815  0.5405  1.6874  0.3932
  457MOL0     H60296   6.404   4.970   9.550 -0.7362 -0.0792  0.1422
  457MOL0     H60297   6.315   4.932   9.701  0.1506 -0.1245  0.1752
  457MOL0     H60298   6.349   5.219   9.580 -1.2287  3.9255  2.2918
  457MOL0     H60299   6.283   5.187   9.741 -4.7584 -1.1413 -0.8272
  457MOL0     H60300   6.107   5.049   9.639  0.5502 -1.0449 -0.8717
  457MOL0     H60301   6.185   5.059   9.480 -1.0983 -0.1208 -0.3979
  457MOL0     H60302   6.061   5.261   9.658  0.4756 -3.5496  0.0496
  457MOL0     H60303   6.167   5.320   9.522  0.0261  0.1934  0.3148
  457MOL0     H60304   6.029   5.226   9.360  1.1422 -0.3957  0.6440
  457MOL0     H60305   5.933   5.334   9.463  1.7867  1.0618  1.6022
  457MOL0     H60306   6.989   4.902   9.854  0.3882  0.8150  0.2879
  457MOL0     H60307   7.223   4.941   9.826  0.0418 -0.8793  0.3889
  457MOL0     H60308   7.542   4.952   9.649 -1.4412  0.2626  2.3212
  457MOL0     H60309   7.771   4.933   9.707 -1.1376 -1.1262 -1.6036
  457MOL0     H60310   9.588   5.432   9.328 -0.4765  1.5008 -1.7359
  457MOL0     H60311   9.826   5.455   9.389  0.1914  0.9269 -1.3557
  457MOL0     H60312  10.243   5.567   9.165  1.2541 -2.0425 -4.5565
  457MOL0     H60313  10.468   5.625   9.200 -0.5613  1.1963  2.2982
  457MOL0     H60314  10.758   5.342   9.416 -0.0184 -0.3031  1.9179
  457MOL0     H60315  10.670   5.453   9.530  0.9701  0.8126  1.8848
  457MOL0     H60316  10.911   5.546   9.372  0.8642 -1.3480  0.0842
  457MOL0     H60317  10.817   5.626   9.501  0.1293 -1.1121  0.3096
  457MOL0     H60318  10.982   5.368   9.514 -1.0552 -1.1870 -0.1211
  457MOL0     H60319  10.882   5.446   9.655  0.4700  3.2170  0.7057
  457MOL0     H60320  11.095   5.598   9.524 -1.4840 -3.0024 -2.8436
  457MOL0     H60321  11.019   5.623   9.685  3.8804 -0.7223  3.5048
  457MOL0     H60322  11.303   5.383   9.840 -1.3664 -0.2675  0.9276
  457MOL0     H60323  10.548   5.259   9.409 -0.2304  0.4806  1.9174
  457MOL0     H60324  10.292   5.208   9.387  0.0972 -0.9246 -0.8894
  458MOL0     O60325   8.371   2.484   1.632  0.3648 -0.0485  0.8806
  458MOL0     C60326   8.422   2.476   1.742 -0.0207  0.9465 -0.5689
  458MOL0     O60327   8.360   2.524   1.850 -0.3665 -0.6716  0.3274
  458MOL0     C60328   8.223   2.543   1.839  0.4496 -0.8250  1.2016
  458MOL0     C60329   8.164   2.671   1.865 -0.2435 -0.8415 -0.4928
  458MOL0     C60330   8.025   2.688   1.872  1.2308 -0.2522  0.2590
  458MOL0     C60331   7.935   2.579   1.849 -0.3082  0.7379 -0.9149
  458MOL0     O60332   7.803   2.589   1.845  0.3111 -0.5002 -0.6328
  458MOL0     C60333   7.729   2.683   1.926  0.8167  0.0909  0.3872
  458MOL0     C60334   7.581   2.645   1.909  0.3232  0.1511 -0.3334
  458MOL0     C60335   7.491   2.712   2.017 -0.0490  0.7785  0.8039
  458MOL0     C60336   7.341   2.718   1.991 -0.0486 -0.0537  0.5628
  458MOL0     C60337   7.292   2.832   2.084  0.4431  0.4584  0.5575
  458MOL0     C60338   7.151   2.859   2.050 -0.3111  0.3495 -0.3405
  458MOL0     C60339   7.065   2.943   2.147 -0.9916 -0.3202  0.5836
  458MOL0     C60340   7.106   3.082   2.192 -0.1975  0.6643 -0.0372
  458MOL0     N60341   7.101   3.179   2.084 -0.0882 -0.3130  0.0311
  458MOL0     C60342   6.991   3.221   2.017 -0.9973  0.2249  0.1981
  458MOL0     C60343   7.043   3.296   1.911  0.0589  0.8066  0.0922
  458MOL0     C60344   6.960   3.358   1.801 -0.8088  0.0688 -0.6039
  458MOL0     C60345   6.847   3.449   1.849 -0.6203 -0.7490  0.9012
  458MOL0     C60346   6.767   3.500   1.728 -0.6896  0.0840  1.0515
  458MOL0     C60347   6.624   3.535   1.770 -0.2222  0.2284  0.1623
  458MOL0     O60348   6.566   3.598   1.654  0.1776  0.0097 -0.9538
  458MOL0     C60349   6.451   3.666   1.687  0.3611 -0.1294 -1.0166
  458MOL0     C60350   6.371   3.647   1.810 -0.3519  0.8942  0.8677
  458MOL0     C60351   6.255   3.724   1.832  0.1504  0.6833 -0.7189
  458MOL0     C60352   6.206   3.812   1.736  0.3997  0.3473  0.6736
  458MOL0     C60353   6.068   3.862   1.746  0.0479  0.2773  0.3089
  458MOL0     O60354   6.018   3.941   1.639  0.1490 -0.2858  0.3464
  458MOL0     C60355   5.891   3.997   1.663 -0.7395  0.8264  0.1375
  458MOL0     C60356   5.873   4.139   1.671  0.2542  0.3551  0.3670
  458MOL0     C60357   5.741   4.189   1.679  0.2768 -0.3138  0.0089
  458MOL0     C60358   5.629   4.108   1.689  0.0905  1.0024 -0.0115
  458MOL0     O60359   5.506   4.161   1.710  0.3267 -0.0410  0.5779
  458MOL0     C60360   5.394   4.087   1.661  0.1188  0.0440 -0.5511
  458MOL0     C60361   5.265   4.176   1.674  0.6314  0.1434  0.6018
  458MOL0     C60362   5.149   4.147   1.578  0.6277  0.1711 -0.1745
  458MOL0     C60363   5.103   4.009   1.610  0.7641  0.6805  0.3547
  458MOL0     C60364   5.026   3.955   1.487 -0.1275 -0.1741 -0.2129
  458MOL0     C60365   4.893   4.029   1.457 -0.0128  0.0441 -0.1783
  458MOL0     C60366   4.811   3.951   1.349 -0.5500 -0.6506  0.4014
  458MOL0     C60367   4.884   3.931   1.216  0.9552  0.0616  0.2077
  458MOL0    Cl60368   4.960   3.775   1.225  0.3621 -0.1676  0.1092
  458MOL0     C60369   5.651   3.971   1.668 -0.4750 -0.4140 -0.2644
  458MOL0     C60370   5.778   3.913   1.653  0.0824 -0.4869 -1.2297
  458MOL0     O60371   6.001   3.819   1.839 -0.5898 -0.0828 -0.5612
  458MOL0     C60372   6.289   3.829   1.616  0.8659 -0.3347 -0.2938
  458MOL0     C60373   6.412   3.762   1.593  0.6514 -0.4204  0.0971
  458MOL0     N60374   7.174   3.295   1.914  0.0802 -0.7594  0.2396
  458MOL0     N60375   7.210   3.217   2.013  0.3808 -0.7456 -0.0480
  458MOL0     C60376   7.994   2.454   1.821 -0.5046 -0.1131  0.0581
  458MOL0     C60377   8.129   2.441   1.831 -0.6811 -0.5563  0.7023
  458MOL0     C60378   8.552   2.413   1.745  0.4701  0.5836  0.2977
  458MOL0     C60379   8.630   2.440   1.860 -0.8235  0.7220 -0.0067
  458MOL0     C60380   8.764   2.394   1.868 -0.1110  0.2030  0.0556
  458MOL0     C60381   8.811   2.305   1.767 -0.1174 -0.6625 -0.1970
  458MOL0     O60382   8.946   2.265   1.787  0.2017 -0.7480  0.4847
  458MOL0     C60383   9.022   2.202   1.678  0.4020  0.2424 -0.2558
  458MOL0     C60384   9.168   2.183   1.732  0.4244 -0.4578  0.1518
  458MOL0     C60385   9.261   2.168   1.617 -0.8442 -1.0150  1.0412
  458MOL0     C60386   9.399   2.137   1.660 -0.4135 -0.2748  0.4110
  458MOL0     C60387   9.420   1.993   1.671 -0.3687  1.0271  0.4852
  458MOL0     C60388   9.460   1.874   1.667  0.6327 -0.2097 -0.1203
  458MOL0     C60389   8.732   2.273   1.659  0.2556 -0.1641  0.1744
  458MOL0     C60390   8.603   2.324   1.648 -0.1414  0.9272  0.2024
  458MOL0     H60391   8.229   2.756   1.885 -0.9554 -0.5374  0.5980
  458MOL0     H60392   7.982   2.786   1.891  1.3044 -0.4725  1.6716
  458MOL0     H60393   7.741   2.783   1.883  2.3464  0.5985  1.8661
  458MOL0     H60394   7.764   2.681   2.030 -0.3316 -1.6950  0.7808
  458MOL0     H60395   7.562   2.538   1.914 -0.8793  0.4048  2.1184
  458MOL0     H60396   7.547   2.675   1.809  0.7974  2.4712  0.1489
  458MOL0     H60397   7.526   2.815   2.032  0.2910  0.6249  1.0573
  458MOL0     H60398   7.497   2.665   2.115 -0.8490 -0.7951  0.1438
  458MOL0     H60399   7.324   2.748   1.887  0.7072 -1.0912  0.1176
  458MOL0     H60400   7.292   2.622   2.011  1.5319 -0.4439  3.0009
  458MOL0     H60401   7.349   2.924   2.076 -0.2100  0.8027 -0.3898
  458MOL0     H60402   7.293   2.794   2.186  2.8161 -2.9980 -0.5602
  458MOL0     H60403   7.096   2.764   2.043 -1.0475  0.5585  1.8484
  458MOL0     H60404   7.146   2.902   1.950 -2.4342  0.7997 -0.0664
  458MOL0     H60405   6.965   2.960   2.105 -0.7138 -1.7727 -0.7207
  458MOL0     H60406   7.050   2.887   2.240  0.4814 -0.7159  0.6139
  458MOL0     H60407   7.212   3.071   2.214 -0.5807 -0.1536  1.6170
  458MOL0     H60408   7.046   3.103   2.281 -0.2236 -1.4956  0.5044
  458MOL0     H60409   6.889   3.192   2.042 -0.6438 -0.0203  1.4164
  458MOL0     H60410   6.923   3.274   1.743 -0.9759  0.7230 -1.4654
  458MOL0     H60411   7.027   3.413   1.734  0.2298  0.4916  0.7185
  458MOL0     H60412   6.893   3.543   1.883 -0.3309  0.2783 -2.0145
  458MOL0     H60413   6.785   3.395   1.922 -1.4633  1.6594  2.0870
  458MOL0     H60414   6.820   3.587   1.690 -0.9863 -0.6676 -1.2426
  458MOL0     H60415   6.778   3.424   1.651  0.2220 -0.5159  1.7563
  458MOL0     H60416   6.630   3.603   1.856  0.6517 -0.2040  0.4540
  458MOL0     H60417   6.572   3.442   1.797 -0.3563 -0.2863 -1.7754
  458MOL0     H60418   6.388   3.569   1.883 -0.9724  0.7182  0.8313
  458MOL0     H60419   6.213   3.713   1.931 -1.0500  1.5549 -1.1116
  458MOL0     H60420   5.951   4.214   1.668  1.0973 -0.4569 -3.0580
  458MOL0     H60421   5.725   4.296   1.678  0.1215 -0.3075  1.2835
  458MOL0     H60422   5.376   3.993   1.713 -3.6704  1.4776  1.1169
  458MOL0     H60423   5.418   4.068   1.556 -0.8922 -1.0065 -0.6152
  458MOL0     H60424   5.284   4.278   1.639 -1.8927  0.4355 -0.0870
  458MOL0     H60425   5.240   4.181   1.780  0.3480 -0.8303  0.5890
  458MOL0     H60426   5.177   4.157   1.473 -1.2228 -2.7698 -1.0686
  458MOL0     H60427   5.062   4.207   1.604  1.1422 -0.4380  3.5375
  458MOL0     H60428   5.184   3.945   1.645  2.3982  2.1154 -0.6470
  458MOL0     H60429   5.035   4.001   1.696 -0.4141  3.8421 -0.1427
  458MOL0     H60430   4.988   3.855   1.511 -0.0894 -0.2266 -0.3740
  458MOL0     H60431   5.094   3.941   1.403  1.1687 -2.2751  1.1045
  458MOL0     H60432   4.905   4.134   1.426  3.4569 -0.2965 -0.3446
  458MOL0     H60433   4.832   4.037   1.548 -0.4929  0.1297 -0.5052
  458MOL0     H60434   4.773   3.857   1.391 -1.0354 -0.2901  0.7828
  458MOL0     H60435   4.727   4.016   1.324 -0.1842 -1.3754 -3.1870
  458MOL0     H60436   4.957   4.011   1.198 -1.1377  1.9900 -0.1866
  458MOL0     H60437   4.802   3.930   1.143 -0.5355  1.2602  1.7731
  458MOL0     H60438   5.564   3.907   1.666 -1.4336  0.8296  0.1009
  458MOL0     H60439   5.789   3.807   1.634  0.9272 -0.9047  1.2404
  458MOL0     H60440   6.249   3.901   1.545  2.1121  1.2623  0.5884
  458MOL0     H60441   6.470   3.773   1.502 -1.9825  0.3912 -1.6133
  458MOL0     H60442   7.920   2.376   1.807 -0.5584  0.0738 -0.7313
  458MOL0     H60443   8.162   2.338   1.824 -1.3425 -0.7060 -0.4996
  458MOL0     H60444   8.596   2.513   1.933 -2.0282  1.3833 -1.1804
  458MOL0     H60445   8.835   2.448   1.929  0.8095  0.0676 -0.8603
  458MOL0     H60446   9.019   2.257   1.584  2.2733 -1.3142 -1.2865
  458MOL0     H60447   8.981   2.104   1.656  2.0251 -0.9081  1.4703
  458MOL0     H60448   9.206   2.271   1.784 -1.0522 -1.4062  3.0173
  458MOL0     H60449   9.163   2.099   1.802  1.8650 -1.2215 -0.6092
  458MOL0     H60450   9.257   2.259   1.557  1.4241 -1.9175 -0.6248
  458MOL0     H60451   9.223   2.091   1.550 -0.7611  0.7865 -1.1873
  458MOL0     H60452   9.475   2.170   1.589 -0.0078  2.8630  2.1432
  458MOL0     H60453   9.425   2.187   1.754  0.2052  1.4334 -0.6263
  458MOL0     H60454   9.476   1.768   1.661  0.1486 -0.3274  0.5194
  458MOL0     H60455   8.778   2.216   1.579  1.0044  2.3753 -1.3150
  458MOL0     H60456   8.547   2.294   1.560  0.1851 -1.2817  0.6762
  459MOL0     O60457   2.560   4.337   5.001  0.4537 -0.1971 -0.5277
  459MOL0     C60458   2.546   4.219   4.981 -0.2107  0.1279 -0.1403
  459MOL0     O60459   2.641   4.131   4.957 -0.4928  0.0616  0.0706
  459MOL0     C60460   2.778   4.163   4.947  0.6105 -0.8395  0.1219
  459MOL0     C60461   2.846   4.129   4.836  0.2396  0.0610  0.2238
  459MOL0     C60462   2.976   4.180   4.808  0.4546  0.1008 -0.5771
  459MOL0     C60463   3.035   4.249   4.915  0.4577  0.0780  0.0625
  459MOL0     O60464   3.169   4.289   4.916  0.5168 -0.0889 -0.2595
  459MOL0     C60465   3.232   4.308   4.787 -0.5983 -0.7938 -0.4895
  459MOL0     C60466   3.377   4.333   4.806 -0.3742 -0.1659  0.9906
  459MOL0     C60467   3.443   4.249   4.915 -0.5228  0.1491  0.7746
  459MOL0     C60468   3.594   4.289   4.930  0.0013  0.5050 -0.1945
  459MOL0     C60469   3.667   4.191   5.027  0.5393 -0.3227 -0.4006
  459MOL0     C60470   3.722   4.060   4.962  0.3003  0.7404  0.4386
  459MOL0     C60471   3.769   3.964   5.076 -0.2815 -0.1095  0.1118
  459MOL0     C60472   3.837   3.833   5.016  0.1982 -0.3621  0.0960
  459MOL0     N60473   3.751   3.767   4.917 -0.6006 -0.3316  0.5024
  459MOL0     C60474   3.621   3.712   4.932  0.3526 -0.4144  0.0235
  459MOL0     C60475   3.568   3.683   4.807 -0.3081 -0.8413  0.3865
  459MOL0     C60476   3.449   3.602   4.773 -0.0055  0.6239  0.2881
  459MOL0     C60477   3.326   3.667   4.849  0.4566  0.5010 -0.1659
  459MOL0     C60478   3.207   3.578   4.820 -0.4819 -0.9594 -0.5686
  459MOL0     C60479   3.079   3.621   4.882  0.5648 -0.2683 -0.4055
  459MOL0     O60480   2.970   3.532   4.843 -0.6342 -0.2838 -0.1662
  459MOL0     C60481   2.850   3.562   4.893 -0.9063  0.2899 -0.1118
  459MOL0     C60482   2.749   3.458   4.879 -0.6000  0.0973  0.4651
  459MOL0     C60483   2.614   3.488   4.916 -0.7103  0.9806 -0.3107
  459MOL0     C60484   2.573   3.606   4.966  0.3544 -0.8971 -0.3944
  459MOL0     C60485   2.433   3.638   4.995  0.0397  0.3505 -0.1247
  459MOL0     O60486   2.348   3.540   4.964 -0.3061  0.1543  0.8630
  459MOL0     C60487   2.221   3.559   5.002 -0.5946 -0.0588 -0.3324
  459MOL0     C60488   2.122   3.572   4.904 -0.5030 -0.1455 -0.0586
  459MOL0     C60489   1.982   3.562   4.925 -0.3286  0.5542 -0.6118
  459MOL0     C60490   1.941   3.584   5.059  0.4966 -0.4882 -0.4930
  459MOL0     O60491   1.809   3.616   5.071 -0.6065 -0.4966  0.2292
  459MOL0     C60492   1.736   3.553   5.171  0.5403  0.5174 -0.9146
  459MOL0     C60493   1.576   3.569   5.139 -0.3800 -0.1243 -0.2462
  459MOL0     C60494   1.481   3.526   5.249 -0.6615  0.3772 -0.0905
  459MOL0     C60495   1.518   3.598   5.380 -0.0254  0.4864  0.0145
  459MOL0     C60496   1.427   3.534   5.493  0.5604  0.6905 -0.4762
  459MOL0     C60497   1.272   3.519   5.472 -0.4974 -0.1779  0.7198
  459MOL0     C60498   1.191   3.643   5.449  0.4662 -0.5842 -0.2718
  459MOL0     C60499   1.045   3.610   5.452  0.1505 -0.0939 -1.0374
  459MOL0    Cl60500   0.990   3.572   5.292  0.1127  0.1518 -0.3621
  459MOL0     C60501   2.034   3.567   5.168  0.7396  0.0730 -0.5122
  459MOL0     C60502   2.175   3.560   5.134 -0.0683  0.4616  0.5977
  459MOL0     O60503   2.407   3.745   5.050  0.3078 -0.1282  0.1743
  459MOL0     C60504   2.669   3.706   4.972 -0.3638 -0.5155 -0.4918
  459MOL0     C60505   2.807   3.684   4.946  0.9920  0.0873  0.3694
  459MOL0     N60506   3.661   3.739   4.721 -0.0010  0.3794 -0.8006
  459MOL0     N60507   3.766   3.779   4.782  0.6094 -0.6514 -0.0319
  459MOL0     C60508   2.970   4.268   5.040 -0.0809 -1.1031  0.3978
  459MOL0     C60509   2.837   4.230   5.056  0.0251 -0.7514  1.0009
  459MOL0     C60510   2.398   4.178   4.970 -0.5791 -0.8780 -0.4430
  459MOL0     C60511   2.365   4.040   4.965  0.0998 -0.7984 -0.2245
  459MOL0     C60512   2.226   4.003   4.952 -0.1333 -0.0776  0.0302
  459MOL0     C60513   2.126   4.101   4.950 -0.2184  1.0755  0.7603
  459MOL0     O60514   1.987   4.077   4.955 -0.5202 -0.0208 -0.2684
  459MOL0     C60515   1.938   3.941   4.940  0.0597 -0.2246 -0.3967
  459MOL0     C60516   1.779   3.939   4.912 -0.6757 -0.4812  0.0618
  459MOL0     C60517   1.696   3.958   5.041 -0.9156 -0.2213  0.7152
  459MOL0     C60518   1.702   4.093   5.110 -0.1127  0.1911 -0.1907
  459MOL0     C60519   1.579   4.130   5.194  0.1212 -0.1472  0.3758
  459MOL0     C60520   1.484   4.158   5.255  0.6159  0.3093  0.7502
  459MOL0     C60521   2.163   4.234   4.958  0.3870 -0.8842  0.5611
  459MOL0     C60522   2.297   4.277   4.971 -0.7057  0.1328  0.6073
  459MOL0     H60523   2.796   4.069   4.762 -0.7586  2.0459 -0.7794
  459MOL0     H60524   3.027   4.152   4.717 -0.6431  1.5650 -1.7007
  459MOL0     H60525   3.183   4.397   4.746 -0.2114  0.6169  1.8994
  459MOL0     H60526   3.223   4.221   4.721  1.0066  0.1517 -2.0182
  459MOL0     H60527   3.386   4.437   4.839  1.1360 -0.8081  2.7657
  459MOL0     H60528   3.427   4.305   4.713 -0.3860 -1.7303  1.4246
  459MOL0     H60529   3.422   4.144   4.897 -1.4480  0.0923  2.0406
  459MOL0     H60530   3.404   4.273   5.014 -0.5801  1.3132  0.4916
  459MOL0     H60531   3.643   4.299   4.832  2.0321  1.6853  0.8789
  459MOL0     H60532   3.597   4.390   4.972 -1.1397  0.7416 -0.6365
  459MOL0     H60533   3.605   4.172   5.115  0.6187 -2.6364 -0.8002
  459MOL0     H60534   3.755   4.248   5.059  0.2217  0.2862 -0.5905
  459MOL0     H60535   3.801   4.077   4.888  0.2437 -0.1331  0.1745
  459MOL0     H60536   3.637   4.019   4.908  1.8819 -1.3737 -0.5619
  459MOL0     H60537   3.849   4.025   5.120 -1.6686  1.4040  0.6500
  459MOL0     H60538   3.690   3.935   5.145 -0.3697  0.8203  0.4128
  459MOL0     H60539   3.874   3.768   5.097  2.8444  0.1616 -0.5921
  459MOL0     H60540   3.924   3.875   4.966 -0.7493 -0.1942 -1.4701
  459MOL0     H60541   3.571   3.690   5.026  0.0218 -0.7061 -0.2169
  459MOL0     H60542   3.466   3.502   4.813  2.8025  0.8253 -0.2094
  459MOL0     H60543   3.445   3.602   4.664  0.5266 -1.3161  0.2257
  459MOL0     H60544   3.305   3.765   4.806 -3.0752 -0.7723 -1.7351
  459MOL0     H60545   3.336   3.657   4.957 -0.9657  0.6267 -0.0043
  459MOL0     H60546   3.193   3.567   4.712 -2.0242 -1.5446 -0.3259
  459MOL0     H60547   3.233   3.485   4.870 -1.0682  0.6365  2.9960
  459MOL0     H60548   3.068   3.720   4.838 -2.3611 -0.8395 -1.2184
  459MOL0     H60549   3.067   3.624   4.991 -1.3685  4.1151 -0.5295
  459MOL0     H60550   2.771   3.365   4.828  3.6535  0.6740  0.8337
  459MOL0     H60551   2.535   3.416   4.902 -1.1258  1.3993 -0.1435
  459MOL0     H60552   2.152   3.564   4.800  0.3267 -0.4924  0.1958
  459MOL0     H60553   1.915   3.566   4.840  0.0804 -1.0439 -1.0383
  459MOL0     H60554   1.759   3.594   5.270 -1.0914 -3.4550  1.3327
  459MOL0     H60555   1.747   3.445   5.179 -0.4682  0.3675 -1.3364
  459MOL0     H60556   1.537   3.514   5.053  0.9676 -0.7283 -0.5036
  459MOL0     H60557   1.571   3.677   5.122 -0.5915 -0.1234 -0.1773
  459MOL0     H60558   1.494   3.417   5.253  0.0670  0.4756  0.5881
  459MOL0     H60559   1.379   3.547   5.216 -2.2168 -0.8011  3.4555
  459MOL0     H60560   1.622   3.594   5.413  0.1815  0.6256 -0.6058
  459MOL0     H60561   1.496   3.704   5.365 -0.2034  0.3589 -0.6765
  459MOL0     H60562   1.434   3.602   5.578 -0.1513  0.2857 -0.0816
  459MOL0     H60563   1.468   3.435   5.514  2.7216  1.5469 -0.4156
  459MOL0     H60564   1.235   3.470   5.562 -0.2630 -0.0406  0.8925
  459MOL0     H60565   1.246   3.447   5.393 -1.4433  1.4251 -0.4837
  459MOL0     H60566   1.207   3.716   5.528 -2.7593  1.9264 -1.7030
  459MOL0     H60567   1.217   3.685   5.351  0.6054  1.6892  0.6830
  459MOL0     H60568   0.988   3.697   5.486  2.0413  0.7185  0.2640
  459MOL0     H60569   1.019   3.531   5.523  4.3829  2.0655  3.4911
  459MOL0     H60570   1.994   3.569   5.269  1.9407 -0.6659 -0.0091
  459MOL0     H60571   2.250   3.563   5.213  1.1848  0.5890 -0.5535
  459MOL0     H60572   2.639   3.805   5.004  0.1667 -0.7047  0.6899
  459MOL0     H60573   2.874   3.769   4.944 -0.2165  1.1050  1.8907
  459MOL0     H60574   3.019   4.307   5.128 -2.1683  2.1377  0.3128
  459MOL0     H60575   2.787   4.252   5.149  0.5325 -0.3673  1.1891
  459MOL0     H60576   2.455   3.979   4.964  1.0690  0.5706  0.5923
  459MOL0     H60577   2.196   3.900   4.936 -1.7023  0.5141 -1.1217
  459MOL0     H60578   1.950   3.887   5.034 -0.3154  0.4101  0.0195
  459MOL0     H60579   1.986   3.887   4.858 -2.0087 -1.1468 -1.0753
  459MOL0     H60580   1.749   4.021   4.845 -1.9105 -2.1205 -1.5095
  459MOL0     H60581   1.747   3.846   4.865  1.0520 -0.8968 -0.3516
  459MOL0     H60582   1.711   3.879   5.116 -1.2308 -0.6460  0.3429
  459MOL0     H60583   1.597   3.933   5.001 -1.1874 -0.5952  1.6020
  459MOL0     H60584   1.791   4.096   5.173 -0.3730  0.7436  0.1683
  459MOL0     H60585   1.719   4.173   5.037 -0.6379  0.5698  0.0937
  459MOL0     H60586   1.402   4.184   5.320  1.4603  3.2260  0.8154
  459MOL0     H60587   2.085   4.310   4.956  1.2741  0.0398 -0.2520
  459MOL0     H60588   2.312   4.384   4.986 -2.1812  0.2371  1.5571
  460MOL0     O60589   3.099  10.227   5.387  0.7253  0.0698  0.3756
  460MOL0     C60590   3.082  10.293   5.490 -0.1911  0.6446 -0.3917
  460MOL0     O60591   2.993  10.396   5.507  0.2885 -0.8397  0.1838
  460MOL0     C60592   2.889  10.428   5.425 -0.2458 -0.5052 -0.0337
  460MOL0     C60593   2.811  10.336   5.355 -0.6050  0.8170  0.3388
  460MOL0     C60594   2.704  10.378   5.269  0.8354 -0.1011  0.6819
  460MOL0     C60595   2.685  10.519   5.250 -0.0797 -0.4904  0.2226
  460MOL0     O60596   2.579  10.556   5.178  0.7600 -0.0293  0.3066
  460MOL0     C60597   2.607  10.664   5.081  0.1165 -0.4013  0.1419
  460MOL0     C60598   2.526  10.645   4.960  0.9883  0.8155 -0.0907
  460MOL0     C60599   2.518  10.767   4.865 -0.5734  0.1527  0.2946
  460MOL0     C60600   2.396  10.857   4.912  0.2778 -0.5126  0.1740
  460MOL0     C60601   2.276  10.863   4.814  0.3080 -0.6213 -0.9118
  460MOL0     C60602   2.193  10.992   4.832  0.2504 -0.5427 -0.0280
  460MOL0     C60603   2.070  10.997   4.732  1.0025  0.3439  0.4883
  460MOL0     C60604   1.982  11.117   4.741 -0.8547  0.3655  0.3188
  460MOL0     N60605   1.870  11.114   4.642 -0.2078  0.6862 -0.7926
  460MOL0     C60606   1.752  11.183   4.654  0.1705  0.3444  0.8589
  460MOL0     C60607   1.695  11.173   4.533 -0.2779  0.2324 -0.3462
  460MOL0     C60608   1.570  11.237   4.490  0.0662  0.2679  0.2610
  460MOL0     C60609   1.478  11.302   4.593  0.6169  0.5534 -0.2086
  460MOL0     C60610   1.335  11.338   4.538 -1.2729 -0.0281 -1.0746
  460MOL0     C60611   1.255  11.427   4.636  0.4209  0.2297  0.1008
  460MOL0     O60612   1.123  11.435   4.574 -0.0753  0.2977 -0.1430
  460MOL0     C60613   1.016  11.474   4.641  1.0030 -0.3825 -0.4895
  460MOL0     C60614   0.991  11.488   4.778  0.1450 -0.1529 -0.1271
  460MOL0     C60615   0.868  11.519   4.829  0.0232  0.3199  0.5116
  460MOL0     C60616   0.759  11.542   4.740  0.4230 -0.2681 -0.2173
  460MOL0     C60617   0.628  11.566   4.801  0.4304  0.2897  0.6929
  460MOL0     O60618   0.630  11.572   4.931  0.2502  0.0330 -0.1558
  460MOL0     C60619   0.510  11.561   4.995  0.8082 -0.3244 -0.1344
  460MOL0     C60620   0.435  11.677   5.035 -0.5709  0.2786  0.2255
  460MOL0     C60621   0.311  11.665   5.106 -0.1178 -0.0047  0.6177
  460MOL0     C60622   0.266  11.538   5.141  1.2947  0.4774  0.2245
  460MOL0     O60623   0.164  11.518   5.232 -0.2292  0.8001  0.0428
  460MOL0     C60624   0.070  11.622   5.261  0.1373 -0.8822  0.4849
  460MOL0     C60625  -0.063  11.575   5.314 -0.2525 -0.0870 -0.0017
  460MOL0     C60626  -0.147  11.706   5.343  0.3023 -0.1880 -0.2743
  460MOL0     C60627  -0.287  11.684   5.387  0.3087 -0.3310 -0.0285
  460MOL0     C60628  -0.379  11.811   5.381  0.0290  0.0659  0.5591
  460MOL0     C60629  -0.341  11.912   5.492  0.0137 -0.8336 -1.1370
  460MOL0     C60630  -0.439  12.029   5.488  0.3143 -0.1054  0.2289
  460MOL0     C60631  -0.406  12.144   5.578  0.5706  0.6071  0.2370
  460MOL0    Cl60632  -0.414  12.096   5.744  0.3002  0.1665  0.3036
  460MOL0     C60633   0.325  11.428   5.094  0.1495  0.4635 -0.0076
  460MOL0     C60634   0.449  11.440   5.025  0.0537  0.0419  0.2711
  460MOL0     O60635   0.527  11.583   4.726  0.3457 -0.1147 -0.0439
  460MOL0     C60636   0.783  11.534   4.607 -0.3387 -0.9484 -0.5771
  460MOL0     C60637   0.911  11.507   4.557  0.2701  0.7074  0.4717
  460MOL0     N60638   1.776  11.088   4.461  0.3068 -0.0329 -0.1792
  460MOL0     N60639   1.880  11.054   4.526 -0.0438  0.0603  0.4854
  460MOL0     C60640   2.772  10.614   5.311 -0.1401 -0.0080 -0.1433
  460MOL0     C60641   2.866  10.563   5.404  0.1961  0.9287 -0.7242
  460MOL0     C60642   3.168  10.270   5.603  0.0257 -0.4440  0.1555
  460MOL0     C60643   3.288  10.189   5.598 -0.0340  0.7922  0.6083
  460MOL0     C60644   3.375  10.176   5.708 -0.4001  0.4957 -1.0070
  460MOL0     C60645   3.337  10.216   5.835 -0.5346 -0.0716  0.3244
  460MOL0     O60646   3.410  10.191   5.949 -0.0185 -1.0008 -0.2129
  460MOL0     C60647   3.545  10.145   5.949  0.1355  0.0981  0.3086
  460MOL0     C60648   3.622  10.173   6.078  0.5051  0.2180 -1.2066
  460MOL0     C60649   3.744  10.092   6.099 -0.2809  0.2313  0.3833
  460MOL0     C60650   3.834  10.146   6.218  0.7590  0.2499 -0.8173
  460MOL0     C60651   3.949  10.065   6.246  0.6777 -0.3598  0.2166
  460MOL0     C60652   4.055  10.001   6.264  0.4801  0.1995  0.4575
  460MOL0     C60653   3.217  10.289   5.842 -0.0543  0.4692 -0.6866
  460MOL0     C60654   3.128  10.302   5.731 -1.2132 -0.5672  0.5328
  460MOL0     H60655   2.827  10.229   5.370 -0.2902  0.8622  0.3297
  460MOL0     H60656   2.645  10.309   5.211 -0.0497  1.0089  0.2323
  460MOL0     H60657   2.710  10.679   5.047  1.0143 -0.7308  2.5025
  460MOL0     H60658   2.567  10.754   5.127  0.2083 -1.2046  1.8911
  460MOL0     H60659   2.427  10.607   4.985  0.0521  2.6615 -0.7926
  460MOL0     H60660   2.581  10.564   4.912 -0.6810 -0.8952  0.7674
  460MOL0     H60661   2.520  10.744   4.759  4.3236 -1.3396  0.4816
  460MOL0     H60662   2.616  10.812   4.887  1.3236 -3.5990  0.3723
  460MOL0     H60663   2.366  10.819   5.010 -2.6394 -2.7023 -1.3867
  460MOL0     H60664   2.441  10.954   4.931  0.3520  0.1824 -2.9624
  460MOL0     H60665   2.217  10.770   4.819 -0.2918 -0.2746 -1.3754
  460MOL0     H60666   2.312  10.861   4.711  0.4729  0.3934 -0.8807
  460MOL0     H60667   2.249  11.084   4.816 -0.3902  0.6918  3.7158
  460MOL0     H60668   2.161  11.001   4.936  1.3954  0.8350  0.2387
  460MOL0     H60669   2.118  10.986   4.634 -0.9268  0.1942 -0.5096
  460MOL0     H60670   2.006  10.909   4.745  0.1038  0.7058 -1.1300
  460MOL0     H60671   2.041  11.203   4.707 -1.0360  0.1329 -0.5928
  460MOL0     H60672   1.946  11.137   4.843  1.2934 -2.5883  1.8292
  460MOL0     H60673   1.710  11.245   4.732 -1.6331  1.3366 -0.7997
  460MOL0     H60674   1.515  11.161   4.434  0.2789  1.2559 -1.3700
  460MOL0     H60675   1.584  11.314   4.413 -1.6528 -0.3871 -0.7679
  460MOL0     H60676   1.522  11.398   4.623 -0.8501  1.1435  0.1248
  460MOL0     H60677   1.465  11.236   4.679 -0.5363 -1.3725 -1.7686
  460MOL0     H60678   1.333  11.383   4.438 -1.3515 -0.0661 -1.0900
  460MOL0     H60679   1.276  11.247   4.526 -0.9460 -0.5945  1.0945
  460MOL0     H60680   1.308  11.523   4.637  2.3725 -0.6909 -2.4020
  460MOL0     H60681   1.245  11.373   4.730 -0.9307 -0.6296 -0.5037
  460MOL0     H60682   1.067  11.440   4.839 -1.0309 -1.3773  0.4499
  460MOL0     H60683   0.857  11.534   4.936 -2.7839  2.3966  0.0551
  460MOL0     H60684   0.477  11.775   5.015  0.3404  0.3794  2.4024
  460MOL0     H60685   0.259  11.746   5.155 -2.1332 -1.5509  1.2061
  460MOL0     H60686   0.051  11.673   5.166  0.4352 -1.9216 -0.1411
  460MOL0     H60687   0.109  11.701   5.327 -1.5116  0.8218 -0.4720
  460MOL0     H60688  -0.060  11.517   5.407  1.5508 -1.4450 -0.8287
  460MOL0     H60689  -0.115  11.516   5.238 -1.3650  0.5670  0.2297
  460MOL0     H60690  -0.150  11.773   5.257  4.1198 -0.3202 -0.7013
  460MOL0     H60691  -0.095  11.776   5.408 -1.5059  0.9036  0.0493
  460MOL0     H60692  -0.337  11.606   5.329  0.5699 -0.7740  0.3339
  460MOL0     H60693  -0.282  11.649   5.491  2.0607 -1.7636 -0.5472
  460MOL0     H60694  -0.479  11.768   5.389  0.3872 -1.3632 -1.6255
  460MOL0     H60695  -0.367  11.859   5.283  0.3857  0.2602  0.6976
  460MOL0     H60696  -0.235  11.935   5.477  0.1804 -1.5070 -1.0290
  460MOL0     H60697  -0.345  11.877   5.596  3.2594  0.6611 -0.3802
  460MOL0     H60698  -0.449  12.063   5.385  1.4244 -1.7193 -0.4497
  460MOL0     H60699  -0.537  11.990   5.518  0.3316 -0.0587  0.3454
  460MOL0     H60700  -0.480  12.224   5.562  1.8229  2.0611  1.4150
  460MOL0     H60701  -0.311  12.185   5.543  0.1923  1.9103  0.6744
  460MOL0     H60702   0.276  11.336   5.120  1.3622 -0.1319  0.2491
  460MOL0     H60703   0.503  11.349   5.003 -2.9719 -2.4244  2.2282
  460MOL0     H60704   0.698  11.545   4.540 -0.8120  0.9018  0.2290
  460MOL0     H60705   0.923  11.486   4.452  0.2868 -0.5373  0.7149
  460MOL0     H60706   2.766  10.720   5.288 -0.9898  0.1658  0.8316
  460MOL0     H60707   2.926  10.635   5.459  0.6862  1.2737 -1.6814
  460MOL0     H60708   3.330  10.153   5.505 -0.1399 -1.0720  1.2509
  460MOL0     H60709   3.465  10.118   5.688 -0.1044  0.7838 -0.5423
  460MOL0     H60710   3.597  10.195   5.867 -1.1677 -0.7961 -1.1064
  460MOL0     H60711   3.546  10.039   5.926  2.7964 -0.0695  0.8702
  460MOL0     H60712   3.644  10.279   6.096 -1.5065  0.4653  0.0872
  460MOL0     H60713   3.557  10.142   6.161  0.4769 -0.2416 -1.3981
  460MOL0     H60714   3.801  10.106   6.007 -0.3999 -2.5037 -0.2060
  460MOL0     H60715   3.716   9.986   6.101  1.0970 -0.1746 -0.5288
  460MOL0     H60716   3.868  10.247   6.191 -2.3621  1.6182 -0.1819
  460MOL0     H60717   3.759  10.149   6.298 -0.4188  0.8064 -1.8854
  460MOL0     H60718   4.154   9.960   6.260  1.2779  2.0936 -2.3713
  460MOL0     H60719   3.184  10.330   5.937 -0.4984 -0.5968 -0.3738
  460MOL0     H60720   3.029  10.347   5.742 -1.7950 -0.8789 -2.3947
  461MOL0     O60721  10.296  10.688   3.035 -0.6171 -0.5407 -0.1254
  461MOL0     C60722  10.362  10.779   3.087  0.0682  0.2373 -0.3343
  461MOL0     O60723  10.475  10.757   3.154  0.0537 -0.2927  0.5520
  461MOL0     C60724  10.546  10.644   3.127  0.1916  0.5724 -1.0759
  461MOL0     C60725  10.683  10.655   3.119 -0.3177 -0.2809  0.7166
  461MOL0     C60726  10.767  10.541   3.097 -0.0672  0.4958  0.0022
  461MOL0     C60727  10.711  10.414   3.087  0.5120  0.6272  0.6887
  461MOL0     O60728  10.793  10.301   3.073  0.6920 -0.4792  0.2119
  461MOL0     C60729  10.746  10.192   3.150  0.0181  0.6081 -0.0765
  461MOL0     C60730  10.866  10.097   3.179 -0.1920 -0.1735 -0.4791
  461MOL0     C60731  10.819   9.982   3.269  0.4473  0.0979  0.8739
  461MOL0     C60732  10.934   9.885   3.308  0.5816  0.3255 -0.7177
  461MOL0     C60733  10.867   9.770   3.397 -0.8180  0.7908 -0.4877
  461MOL0     C60734  10.768   9.681   3.332 -0.3057  0.0266  0.2194
  461MOL0     C60735  10.843   9.595   3.220 -0.1852  0.3355  0.1812
  461MOL0     C60736  10.754   9.554   3.104 -0.6918 -0.3506 -0.4398
  461MOL0     N60737  10.827   9.460   3.009  0.8695  0.4700 -0.6256
  461MOL0     C60738  10.924   9.503   2.928  0.4973  0.8063  0.0142
  461MOL0     C60739  10.937   9.405   2.842  0.5804 -0.5376  0.6050
  461MOL0     C60740  11.018   9.415   2.720  0.7798  0.0605 -0.1138
  461MOL0     C60741  10.998   9.301   2.626  0.1042  0.0930  0.5052
  461MOL0     C60742  11.074   9.313   2.490 -0.2788 -0.3388 -0.1978
  461MOL0     C60743  11.070   9.175   2.434  0.5946 -0.7503  0.2457
  461MOL0     O60744  11.132   9.139   2.313 -0.0162 -0.5414  0.5607
  461MOL0     C60745  11.270   9.126   2.307  0.3177  0.2463 -0.1006
  461MOL0     C60746  11.361   9.104   2.408 -2.3417  0.6698  0.1911
  461MOL0     C60747  11.498   9.087   2.385  0.5273  0.3818  0.2907
  461MOL0     C60748  11.540   9.098   2.255  0.4959 -0.2375 -0.0233
  461MOL0     C60749  11.683   9.090   2.221  0.1536  0.0009  0.6169
  461MOL0     O60750  11.779   9.126   2.318  0.2392 -0.0531  0.2334
  461MOL0     C60751  11.911   9.093   2.287 -0.2203 -0.3527  0.4476
  461MOL0     C60752  11.994   9.179   2.215 -0.5190  0.1548 -0.2126
  461MOL0     C60753  12.134   9.133   2.193  0.3144  0.3087 -0.8111
  461MOL0     C60754  12.175   9.003   2.217  0.1824  0.1620  0.7733
  461MOL0     O60755  12.303   8.965   2.170  0.2800  0.4735 -0.1660
  461MOL0     C60756  12.375   8.875   2.261  0.3385  0.4953  0.2514
  461MOL0     C60757  12.511   8.837   2.191  0.5930 -0.4091  0.3944
  461MOL0     C60758  12.602   8.746   2.276 -0.2687 -0.1877 -0.0036
  461MOL0     C60759  12.737   8.739   2.201  1.2865 -0.0443 -0.1545
  461MOL0     C60760  12.823   8.656   2.291  0.1330  0.8016 -0.2965
  461MOL0     C60761  12.960   8.664   2.225  0.0973 -0.2071  0.3090
  461MOL0     C60762  13.059   8.576   2.291 -0.0137  0.2787  0.1629
  461MOL0     C60763  13.206   8.608   2.247  0.6146 -0.8041  0.0071
  461MOL0    Cl60764  13.221   8.605   2.073  0.1570 -0.6684  0.3153
  461MOL0     C60765  12.087   8.918   2.269 -0.1973 -0.4194  0.0924
  461MOL0     C60766  11.961   8.964   2.317  0.2450  0.2235 -0.2350
  461MOL0     O60767  11.706   9.053   2.111  0.0249 -0.2749 -0.0111
  461MOL0     C60768  11.450   9.101   2.151 -0.0251 -0.3830 -0.4313
  461MOL0     C60769  11.317   9.127   2.178  0.8093 -0.0149  0.7901
  461MOL0     N60770  10.871   9.292   2.890 -0.4956 -0.3400  1.0111
  461MOL0     N60771  10.800   9.328   2.996  0.2247 -0.0918 -0.2409
  461MOL0     C60772  10.568  10.408   3.097  0.2049  0.5238 -1.3444
  461MOL0     C60773  10.491  10.518   3.121 -0.0588  1.1853  0.1920
  461MOL0     C60774  10.313  10.922   3.091 -0.1808  0.0672  0.0221
  461MOL0     C60775  10.184  10.959   3.045  0.7277 -0.4626 -0.3194
  461MOL0     C60776  10.128  11.089   3.072 -1.2760 -0.1789  0.8614
  461MOL0     C60777  10.205  11.182   3.137  0.3315 -0.5084 -1.2015
  461MOL0     O60778  10.152  11.310   3.160 -0.4285 -0.4150 -0.1460
  461MOL0     C60779  10.208  11.407   3.252 -0.3812  0.0302 -0.6106
  461MOL0     C60780  10.099  11.515   3.298  0.3657  1.5617 -0.4294
  461MOL0     C60781  10.163  11.623   3.390  1.3492  0.1956 -0.0675
  461MOL0     C60782  10.065  11.740   3.404  0.6901  0.1027 -0.4131
  461MOL0     C60783  10.125  11.841   3.495  0.0347  0.5804  0.4852
  461MOL0     C60784  10.173  11.932   3.553  0.2890  0.4929  0.4129
  461MOL0     C60785  10.329  11.145   3.189  0.4968  0.3296 -0.1921
  461MOL0     C60786  10.386  11.014   3.168  0.0306  0.2580 -0.1802
  461MOL0     H60787  10.721  10.756   3.132  0.8147 -0.8686  2.2666
  461MOL0     H60788  10.872  10.556   3.074 -0.4099 -0.0109 -2.2037
  461MOL0     H60789  10.671  10.140   3.090  0.0872  2.6739 -2.0735
  461MOL0     H60790  10.703  10.228   3.244  0.1207  1.2669 -0.2773
  461MOL0     H60791  10.942  10.153   3.234 -1.0170  0.1800  0.3306
  461MOL0     H60792  10.905  10.057   3.085 -1.1281 -0.4336 -0.7660
  461MOL0     H60793  10.747   9.928   3.207  1.8678 -0.8388 -0.0301
  461MOL0     H60794  10.763  10.024   3.353  0.5193  0.9298  0.5071
  461MOL0     H60795  10.988   9.852   3.219 -0.9803 -2.8231 -0.6411
  461MOL0     H60796  11.000   9.944   3.372  1.2333  1.0008 -1.9943
  461MOL0     H60797  10.817   9.817   3.482  1.7035  2.0040  0.4152
  461MOL0     H60798  10.946   9.714   3.447 -1.3558  0.3700 -0.0940
  461MOL0     H60799  10.691   9.730   3.272  1.9948  1.8521 -1.4235
  461MOL0     H60800  10.724   9.624   3.415 -0.1833  0.1350  0.3586
  461MOL0     H60801  10.924   9.654   3.176  0.7210 -1.5630 -0.8034
  461MOL0     H60802  10.885   9.507   3.269 -0.1701 -0.1791 -0.7336
  461MOL0     H60803  10.716   9.639   3.047  1.0309 -0.7757 -2.3504
  461MOL0     H60804  10.665   9.503   3.142 -2.1236  2.4566  0.2479
  461MOL0     H60805  10.971   9.601   2.928  2.7402 -0.2149  0.5160
  461MOL0     H60806  11.124   9.419   2.747  0.7228 -0.9405  0.2608
  461MOL0     H60807  10.983   9.511   2.679  0.7292  0.7779  1.5519
  461MOL0     H60808  10.891   9.290   2.605  0.1881  0.1263  0.0647
  461MOL0     H60809  11.033   9.211   2.677  0.1834 -0.3224 -0.2822
  461MOL0     H60810  11.039   9.388   2.419  0.8320 -0.6533 -1.1042
  461MOL0     H60811  11.175   9.342   2.519  0.2962 -1.7741 -0.6455
  461MOL0     H60812  10.964   9.160   2.412  0.3617  0.9342  0.1572
  461MOL0     H60813  11.099   9.102   2.511  0.1200 -0.3706  0.7911
  461MOL0     H60814  11.331   9.101   2.512  0.7507  2.0420  1.2306
  461MOL0     H60815  11.562   9.088   2.473 -1.5406 -0.5398  1.8875
  461MOL0     H60816  11.971   9.283   2.193  1.1160  0.3696 -1.0165
  461MOL0     H60817  12.210   9.189   2.139  3.1808 -0.9883  1.5706
  461MOL0     H60818  12.322   8.785   2.293  1.9702 -1.7499 -2.8149
  461MOL0     H60819  12.408   8.935   2.346  0.3419 -0.2174  0.7593
  461MOL0     H60820  12.557   8.935   2.183 -0.2267  0.0056  0.6949
  461MOL0     H60821  12.487   8.799   2.091  0.9005 -0.5202  0.3629
  461MOL0     H60822  12.570   8.642   2.291 -2.7728  0.2768 -1.4466
  461MOL0     H60823  12.610   8.793   2.374 -0.2289  2.4033 -1.1525
  461MOL0     H60824  12.713   8.692   2.105  0.5235 -1.2838  0.6169
  461MOL0     H60825  12.775   8.841   2.189 -3.1549  1.7619 -0.8263
  461MOL0     H60826  12.793   8.552   2.304  0.2979  1.0580  2.9376
  461MOL0     H60827  12.840   8.689   2.394  1.7938 -0.0056 -0.2779
  461MOL0     H60828  12.992   8.769   2.224 -2.1806  0.5442  0.3938
  461MOL0     H60829  12.947   8.630   2.122  0.2761 -0.6898  0.4410
  461MOL0     H60830  13.061   8.581   2.400 -0.1367 -1.8255  0.3095
  461MOL0     H60831  13.035   8.480   2.244  2.1740 -0.0633 -0.3714
  461MOL0     H60832  13.277   8.532   2.281 -1.2408 -2.5288  0.1998
  461MOL0     H60833  13.237   8.707   2.283  1.7540 -1.1737  0.0888
  461MOL0     H60834  12.113   8.813   2.275  1.0229 -0.2916 -1.9324
  461MOL0     H60835  11.895   8.892   2.364  0.0543 -0.0464 -0.9200
  461MOL0     H60836  11.489   9.098   2.049 -1.2127  0.1467 -0.9160
  461MOL0     H60837  11.245   9.139   2.097  1.9885  1.9936 -0.0193
  461MOL0     H60838  10.512  10.319   3.072  0.1387  0.0890  0.2278
  461MOL0     H60839  10.383  10.505   3.124 -0.4564  1.2353 -5.0115
  461MOL0     H60840  10.119  10.892   2.989  0.7790  0.7986 -1.9686
  461MOL0     H60841  10.033  11.117   3.030 -1.5895 -0.2994  1.4757
  461MOL0     H60842  10.292  11.459   3.206 -2.1065  1.7024 -2.0505
  461MOL0     H60843  10.243  11.348   3.338 -0.4124 -1.8027 -1.8012
  461MOL0     H60844  10.052  11.548   3.204 -0.5787  0.2181 -0.4577
  461MOL0     H60845  10.025  11.454   3.350 -0.3906  0.3548 -2.7603
  461MOL0     H60846  10.264  11.658   3.368  0.8070  1.0769 -1.3070
  461MOL0     H60847  10.177  11.568   3.484 -2.7846 -0.2147  0.5171
  461MOL0     H60848  10.038  11.786   3.309 -1.5731  0.7927  0.4863
  461MOL0     H60849   9.973  11.709   3.454 -0.4730  2.9232 -0.5870
  461MOL0     H60850  10.205  12.016   3.612  3.4779 -0.2568 -0.0410
  461MOL0     H60851  10.384  11.209   3.258 -0.1691 -0.6010  1.2635
  461MOL0     H60852  10.485  10.992   3.207  0.1799  0.7337 -0.2925
  462MOL0     O60853   8.823   4.060  10.704  0.7652  0.0354  0.4139
  462MOL0     C60854   8.874   4.099  10.800 -0.4962 -0.4509 -0.5729
  462MOL0     O60855   8.803   4.156  10.896 -0.3880  0.1958 -0.4253
  462MOL0     C60856   8.664   4.164  10.900 -0.4614  0.2829  1.4946
  462MOL0     C60857   8.596   4.288  10.927  0.4793  0.4952 -0.5755
  462MOL0     C60858   8.453   4.288  10.920 -0.1926 -0.4745 -0.7547
  462MOL0     C60859   8.384   4.168  10.893  0.0204 -0.1342 -0.6885
  462MOL0     O60860   8.251   4.177  10.903  0.4043  0.1547  0.5599
  462MOL0     C60861   8.183   4.051  10.919  0.0701 -0.6077 -0.6097
  462MOL0     C60862   8.030   4.079  10.946  0.0190 -0.1236 -0.1194
  462MOL0     C60863   7.948   3.955  10.990  0.0388  0.0864  0.1216
  462MOL0     C60864   7.810   4.002  11.014  0.6270  1.2059 -1.2916
  462MOL0     C60865   7.722   3.887  11.070 -0.8099 -0.0063  0.7119
  462MOL0     C60866   7.744   3.845  11.214  0.4355  0.4545 -0.1993
  462MOL0     C60867   7.608   3.816  11.290 -0.6333  0.1302 -0.3440
  462MOL0     C60868   7.638   3.756  11.429  0.3171 -0.8814  0.1264
  462MOL0     N60869   7.519   3.716  11.505 -0.4457 -0.0211  0.8020
  462MOL0     C60870   7.438   3.615  11.458  0.3045 -0.3579  0.6319
  462MOL0     C60871   7.356   3.574  11.557 -0.0380  0.0696 -0.1057
  462MOL0     C60872   7.235   3.492  11.553  0.6180  0.4915  0.5391
  462MOL0     C60873   7.180   3.436  11.685 -0.5771 -0.6567 -0.1054
  462MOL0     C60874   7.094   3.540  11.748 -0.4797  0.5383  0.6559
  462MOL0     C60875   7.059   3.486  11.885  1.1359  0.4271  0.1294
  462MOL0     O60876   6.971   3.577  11.943 -0.9769  0.3066 -0.5363
  462MOL0     C60877   6.839   3.555  11.944  0.2263 -0.1259  1.1819
  462MOL0     C60878   6.756   3.606  12.049 -0.0165  0.1043 -0.0792
  462MOL0     C60879   6.615   3.586  12.048 -0.8393  0.1536  0.1129
  462MOL0     C60880   6.554   3.505  11.949 -0.2454  0.5644  0.5666
  462MOL0     C60881   6.411   3.467  11.946  0.6148  0.4137 -0.1274
  462MOL0     O60882   6.360   3.389  11.838  0.3011  0.4982  0.4740
  462MOL0     C60883   6.221   3.375  11.817 -0.7166 -0.5562 -0.0936
  462MOL0     C60884   6.128   3.484  11.824 -0.3061  0.8273  0.1632
  462MOL0     C60885   5.990   3.465  11.790 -0.6418  0.5378 -0.0344
  462MOL0     C60886   5.950   3.328  11.767  0.4563  0.4707 -0.6792
  462MOL0     O60887   5.816   3.303  11.737  0.2908  0.9687 -0.8739
  462MOL0     C60888   5.745   3.194  11.814 -0.1292 -0.6628  0.0625
  462MOL0     C60889   5.601   3.240  11.830  0.4458  0.5975  0.3470
  462MOL0     C60890   5.583   3.352  11.936 -0.4391 -0.7552 -0.0072
  462MOL0     C60891   5.448   3.432  11.920  0.4462  0.1417 -0.5499
  462MOL0     C60892   5.426   3.551  12.027  0.3537  0.9640  0.3916
  462MOL0     C60893   5.286   3.570  12.075 -0.4654  0.2045 -0.2880
  462MOL0     C60894   5.190   3.643  11.974 -0.3116 -0.7364  0.2538
  462MOL0     C60895   5.066   3.700  12.043  0.2963 -0.2554 -1.2481
  462MOL0    Cl60896   4.953   3.566  12.073  0.3008  0.2582 -0.1329
  462MOL0     C60897   6.037   3.218  11.783  0.1107 -0.1217 -0.1784
  462MOL0     C60898   6.180   3.243  11.806  0.0974 -0.6851  0.7559
  462MOL0     O60899   6.341   3.520  12.027 -0.0893  0.1782  0.4388
  462MOL0     C60900   6.642   3.450  11.851 -0.4513  0.7074 -0.0123
  462MOL0     C60901   6.777   3.474  11.845  0.1215  0.1558  0.0672
  462MOL0     N60902   7.381   3.669  11.660 -0.0058  0.4417  0.2883
  462MOL0     N60903   7.482   3.749  11.631  0.1054 -0.2163  1.0496
  462MOL0     C60904   8.459   4.050  10.862  0.7744  0.4699 -0.4350
  462MOL0     C60905   8.599   4.045  10.877  0.0188 -0.7405  0.4551
  462MOL0     C60906   9.025   4.108  10.801 -0.1799  0.3837  0.2722
  462MOL0     C60907   9.112   4.079  10.691  0.4540 -0.4971 -0.6220
  462MOL0     C60908   9.248   4.070  10.707 -0.0220 -0.0167 -0.5810
  462MOL0     C60909   9.312   4.115  10.826 -0.2450  0.1615  0.5572
  462MOL0     O60910   9.447   4.123  10.837 -1.1188 -0.2100 -0.0087
  462MOL0     C60911   9.532   4.125  10.725  0.2193  0.2688 -0.5212
  462MOL0     C60912   9.663   4.205  10.747  0.6530  0.3133 -0.0836
  462MOL0     C60913   9.755   4.174  10.876  0.0103 -0.0394  0.2300
  462MOL0     C60914   9.821   4.042  10.866  0.0597  0.1156 -0.3651
  462MOL0     C60915   9.955   4.045  10.803  0.1135  0.1810 -0.4249
  462MOL0     C60916  10.076   4.054  10.770  0.1310 -0.3274 -0.2675
  462MOL0     C60917   9.230   4.155  10.933 -0.8967 -0.0734  0.6171
  462MOL0     C60918   9.088   4.142  10.917  0.0277 -0.1251 -0.0955
  462MOL0     H60919   8.655   4.377  10.947  1.6401  0.2081 -2.4683
  462MOL0     H60920   8.398   4.374  10.956 -2.0486 -1.3893 -1.2642
  462MOL0     H60921   8.235   3.991  10.995  1.3504 -1.0813 -1.8166
  462MOL0     H60922   8.172   3.994  10.827  0.5620  1.5607 -2.0698
  462MOL0     H60923   7.987   4.095  10.846  0.7286 -3.6309 -1.1019
  462MOL0     H60924   8.015   4.161  11.017 -0.7458 -1.7489  1.6939
  462MOL0     H60925   7.986   3.931  11.089 -1.5729 -0.7950  0.5787
  462MOL0     H60926   7.959   3.877  10.913 -3.1428 -0.3305 -0.0725
  462MOL0     H60927   7.815   4.076  11.095 -1.1278  0.0339 -0.0261
  462MOL0     H60928   7.759   4.040  10.925 -1.0535  1.3624 -0.3236
  462MOL0     H60929   7.741   3.798  11.009 -3.7259 -1.1110  1.2393
  462MOL0     H60930   7.621   3.923  11.050 -0.6343  0.2254  0.2302
  462MOL0     H60931   7.799   3.920  11.272 -0.4053 -0.2730  1.6458
  462MOL0     H60932   7.796   3.749  11.202  3.5147  2.0804 -0.9968
  462MOL0     H60933   7.556   3.912  11.293 -0.7488  0.0694 -0.3732
  462MOL0     H60934   7.543   3.749  11.232  0.3603 -0.9400 -0.2776
  462MOL0     H60935   7.685   3.836  11.487  0.6160 -0.4988 -0.6266
  462MOL0     H60936   7.704   3.670  11.415 -0.8605 -2.0948  1.6883
  462MOL0     H60937   7.435   3.557  11.366 -1.2723 -1.8571  1.5733
  462MOL0     H60938   7.254   3.406  11.488 -0.5109  1.7706 -1.5855
  462MOL0     H60939   7.149   3.544  11.509 -0.0708 -2.3794 -1.8333
  462MOL0     H60940   7.266   3.426  11.753 -1.0907  0.1407  0.6863
  462MOL0     H60941   7.128   3.342  11.668 -0.3252 -0.2563 -3.9514
  462MOL0     H60942   7.164   3.622  11.764 -0.5767  0.8045 -0.2122
  462MOL0     H60943   7.007   3.561  11.685  1.6695  2.7634 -1.7912
  462MOL0     H60944   7.151   3.472  11.942  1.0834  0.9476  0.3383
  462MOL0     H60945   7.010   3.388  11.890  1.3605  0.3663  1.9310
  462MOL0     H60946   6.803   3.672  12.122  4.2995 -2.3913 -0.3009
  462MOL0     H60947   6.554   3.623  12.129 -1.3654 -1.6552  0.6059
  462MOL0     H60948   6.162   3.586  11.840 -2.4234  1.9076 -1.6150
  462MOL0     H60949   5.912   3.540  11.781 -2.7761 -1.4887  0.5962
  462MOL0     H60950   5.791   3.181  11.913  1.2325 -1.4137 -0.6366
  462MOL0     H60951   5.743   3.096  11.765  1.4411 -2.3721  3.0704
  462MOL0     H60952   5.542   3.154  11.865 -0.5880  0.7112 -1.0135
  462MOL0     H60953   5.548   3.270  11.738  1.0096 -0.3625 -0.2987
  462MOL0     H60954   5.663   3.426  11.922 -0.9448  0.4645  2.9750
  462MOL0     H60955   5.602   3.321  12.039 -1.6907 -0.1527  0.4117
  462MOL0     H60956   5.441   3.476  11.820 -3.7138  3.3841  0.8934
  462MOL0     H60957   5.371   3.354  11.930  0.5778  0.3353  3.4225
  462MOL0     H60958   5.468   3.642  11.983 -0.1076  1.3252  0.6809
  462MOL0     H60959   5.486   3.509  12.108 -0.7082 -2.2864 -0.3655
  462MOL0     H60960   5.290   3.623  12.170  2.0313  1.9000 -1.2190
  462MOL0     H60961   5.236   3.474  12.094  3.6630 -2.2521 -0.5920
  462MOL0     H60962   5.242   3.729  11.932 -0.9945 -0.4304  0.0278
  462MOL0     H60963   5.153   3.579  11.893 -2.0147 -0.6591  0.9247
  462MOL0     H60964   5.013   3.783  11.994 -2.1316 -2.0666 -1.8980
  462MOL0     H60965   5.103   3.744  12.136 -1.8830  0.3049 -0.5894
  462MOL0     H60966   6.008   3.114  11.774  0.3910 -0.2656  0.4965
  462MOL0     H60967   6.252   3.162  11.799 -2.3818 -2.9232 -1.0010
  462MOL0     H60968   6.604   3.386  11.771  1.3314 -1.5931  0.8768
  462MOL0     H60969   6.838   3.439  11.762 -2.2903 -0.9709 -1.3467
  462MOL0     H60970   8.417   3.950  10.854  3.3716 -1.1167  3.1669
  462MOL0     H60971   8.655   3.953  10.869  0.5103 -0.3874 -0.2550
  462MOL0     H60972   9.063   4.051  10.598 -3.0142  0.6651  0.7118
  462MOL0     H60973   9.307   4.036  10.623  2.8615 -1.2882  1.7597
  462MOL0     H60974   9.477   4.178  10.647  0.6842  2.6503  0.6546
  462MOL0     H60975   9.557   4.020  10.713  0.6114  0.1270  1.2646
  462MOL0     H60976   9.731   4.205  10.661  1.7264  3.4955  0.6143
  462MOL0     H60977   9.622   4.306  10.756  0.2410  0.0262  1.5580
  462MOL0     H60978   9.689   4.172  10.964  2.7459  2.5846  2.5481
  462MOL0     H60979   9.818   4.258  10.904 -2.0554  1.7489 -0.1666
  462MOL0     H60980   9.836   4.008  10.969 -2.2607  0.5734  0.1806
  462MOL0     H60981   9.761   3.965  10.817 -1.7840  1.0830  0.3096
  462MOL0     H60982  10.178   4.078  10.748 -0.0577 -1.3041 -2.3784
  462MOL0     H60983   9.276   4.191  11.025  2.8961 -2.0613 -0.3351
  462MOL0     H60984   9.029   4.182  10.999  1.3246  0.1162  0.7514
  463MOL0     O60985   2.370   5.381   2.178 -0.7880  0.0289 -0.5798
  463MOL0     C60986   2.433   5.397   2.282  0.1915  0.5532 -0.4118
  463MOL0     O60987   2.387   5.450   2.402 -1.1259 -0.3918  0.7849
  463MOL0     C60988   2.255   5.457   2.430  0.3883 -0.4146  0.0968
  463MOL0     C60989   2.231   5.541   2.541 -0.1259 -0.5826 -0.4373
  463MOL0     C60990   2.107   5.559   2.594  0.3446 -0.2413 -0.5091
  463MOL0     C60991   1.997   5.499   2.536  0.5378  0.0628  0.0728
  463MOL0     O60992   1.869   5.532   2.577 -0.0831  0.7987 -0.4675
  463MOL0     C60993   1.842   5.446   2.685  0.1220  0.0571  0.9028
  463MOL0     C60994   1.710   5.474   2.760  0.7260  0.1090  0.4855
  463MOL0     C60995   1.589   5.461   2.679  0.1620  0.6385 -0.0370
  463MOL0     C60996   1.477   5.385   2.744 -0.0437 -0.0400 -0.8248
  463MOL0     C60997   1.342   5.365   2.674 -0.2353  0.2855  0.4364
  463MOL0     C60998   1.245   5.288   2.761  0.3216  0.1020 -0.0312
  463MOL0     C60999   1.106   5.279   2.685  0.0086 -0.2271  0.4056
  463MOL0     C61000   1.005   5.215   2.780 -0.5516  0.6928  0.1547
  463MOL0     N61001   0.882   5.199   2.703  0.3766 -0.0397  0.0046
  463MOL0     C61002   0.777   5.287   2.706 -0.1108  0.1145  0.3588
  463MOL0     C61003   0.708   5.249   2.599  0.2473  0.2332 -0.0135
  463MOL0     C61004   0.575   5.312   2.558  0.2873 -0.5958 -0.4360
  463MOL0     C61005   0.450   5.296   2.650  0.1489 -0.8049 -0.0904
  463MOL0     C61006   0.438   5.153   2.710  0.1406 -0.4223 -0.3601
  463MOL0     C61007   0.430   5.030   2.619 -0.6141  0.0411 -0.1365
  463MOL0     O61008   0.321   5.052   2.521  0.7558 -0.2430  0.2131
  463MOL0     C61009   0.198   5.020   2.572  0.4277  0.7967  0.2073
  463MOL0     C61010   0.116   5.116   2.641 -0.8779 -0.5683  0.5019
  463MOL0     C61011  -0.011   5.086   2.685  0.1228  0.1211  0.5247
  463MOL0     C61012  -0.064   4.952   2.666 -0.9049 -1.2442  0.0164
  463MOL0     C61013  -0.195   4.910   2.726 -0.0616 -0.6490 -0.7592
  463MOL0     O61014  -0.230   4.778   2.698  1.2971  0.1894 -0.0178
  463MOL0     C61015  -0.362   4.745   2.728  0.1234  0.1259 -0.3814
  463MOL0     C61016  -0.460   4.776   2.634 -0.6312  0.4171 -1.0569
  463MOL0     C61017  -0.597   4.741   2.669  0.4507 -0.4002  0.1928
  463MOL0     C61018  -0.628   4.683   2.796  0.4294 -0.2086 -0.1923
  463MOL0     O61019  -0.745   4.632   2.839 -0.5142 -0.2407 -0.2343
  463MOL0     C61020  -0.858   4.634   2.745 -0.0910  0.4458  0.3485
  463MOL0     C61021  -0.975   4.552   2.791 -0.0201  0.1603  0.0389
  463MOL0     C61022  -1.086   4.533   2.692 -0.7865  0.3627  0.3113
  463MOL0     C61023  -1.175   4.417   2.740  0.4208 -0.3077  0.2850
  463MOL0     C61024  -1.314   4.445   2.675 -0.0802 -0.0410 -0.5025
  463MOL0     C61025  -1.410   4.327   2.674 -0.1020  0.1904 -0.8838
  463MOL0     C61026  -1.539   4.393   2.640  0.9918  0.0707  0.3071
  463MOL0     C61027  -1.609   4.476   2.749 -0.1996 -0.7645 -0.2224
  463MOL0    Cl61028  -1.793   4.460   2.720 -0.2437 -0.2502  0.1077
  463MOL0     C61029  -0.529   4.663   2.890  0.9325 -1.0908 -0.4836
  463MOL0     C61030  -0.399   4.691   2.860 -0.2898 -0.1015 -0.4416
  463MOL0     O61031  -0.260   4.987   2.800  0.2922 -0.6937  0.4469
  463MOL0     C61032   0.022   4.860   2.606 -0.1416 -0.8209 -0.3267
  463MOL0     C61033   0.149   4.898   2.548 -0.0353  0.1100  0.1060
  463MOL0     N61034   0.767   5.141   2.531  0.1731  0.0537 -0.0615
  463MOL0     N61035   0.875   5.123   2.594 -0.4859 -0.3071 -0.6599
  463MOL0     C61036   2.016   5.407   2.435 -0.0381 -0.7771 -0.0706
  463MOL0     C61037   2.150   5.383   2.382  0.1252  0.0816 -0.3620
  463MOL0     C61038   2.581   5.364   2.282 -0.0901 -0.7715 -0.3644
  463MOL0     C61039   2.674   5.432   2.362  0.6426 -0.0274 -0.3917
  463MOL0     C61040   2.801   5.387   2.372 -0.4001 -0.1277  0.5181
  463MOL0     C61041   2.852   5.288   2.297 -0.4809 -0.1004 -0.0144
  463MOL0     O61042   2.984   5.254   2.306 -0.0554  0.0657 -0.3211
  463MOL0     C61043   3.085   5.318   2.383  0.1264 -0.3165 -0.8177
  463MOL0     C61044   3.208   5.232   2.351  0.2487  0.2899  0.0918
  463MOL0     C61045   3.269   5.254   2.207  0.3136 -1.1166 -0.8184
  463MOL0     C61046   3.344   5.130   2.155  0.7033 -0.6972  0.4042
  463MOL0     C61047   3.438   5.090   2.255 -0.2098  0.0027 -0.0966
  463MOL0     C61048   3.522   5.051   2.337 -0.2589  0.2887 -0.2759
  463MOL0     C61049   2.767   5.215   2.214  0.0277  0.1114  0.0925
  463MOL0     C61050   2.630   5.249   2.209 -0.0854  0.3829  0.6553
  463MOL0     H61051   2.315   5.579   2.598  0.2169 -2.6145  0.4812
  463MOL0     H61052   2.100   5.630   2.675 -0.2573  0.3675 -1.0801
  463MOL0     H61053   1.923   5.459   2.757  1.7353  0.0041 -0.8318
  463MOL0     H61054   1.836   5.343   2.647 -1.5317 -0.4891  2.4802
  463MOL0     H61055   1.705   5.574   2.805 -0.6490 -0.1225  0.8999
  463MOL0     H61056   1.713   5.402   2.842 -0.9496  0.8357  1.2316
  463MOL0     H61057   1.623   5.402   2.594  3.4889  1.6483  0.4258
  463MOL0     H61058   1.564   5.557   2.634 -1.3654 -0.4369 -1.6237
  463MOL0     H61059   1.519   5.291   2.779  0.2492 -0.0256 -1.1207
  463MOL0     H61060   1.452   5.435   2.838 -2.0963  1.3977 -2.0564
  463MOL0     H61061   1.358   5.304   2.585  1.4954 -1.3772  1.8086
  463MOL0     H61062   1.316   5.465   2.637 -0.1200 -0.1510 -0.8660
  463MOL0     H61063   1.227   5.338   2.857  0.4219 -1.3510  0.7761
  463MOL0     H61064   1.286   5.187   2.771  3.5815  1.1650 -1.4768
  463MOL0     H61065   1.071   5.377   2.652 -0.8003 -0.5708  0.2130
  463MOL0     H61066   1.117   5.216   2.596  1.4935 -0.4159  0.6962
  463MOL0     H61067   0.987   5.272   2.871  0.2531  1.4023 -0.1230
  463MOL0     H61068   1.035   5.113   2.808 -2.6588  0.2618  1.0775
  463MOL0     H61069   0.759   5.372   2.771 -2.1404  0.3243 -0.4029
  463MOL0     H61070   0.553   5.275   2.457  2.9558  2.5133 -2.3744
  463MOL0     H61071   0.604   5.417   2.547 -0.1060 -0.5620 -1.1920
  463MOL0     H61072   0.359   5.332   2.601 -0.6915  2.1384  3.2643
  463MOL0     H61073   0.455   5.368   2.732 -1.0359 -1.6357  0.7363
  463MOL0     H61074   0.522   5.140   2.779  0.5985  1.8593 -0.4089
  463MOL0     H61075   0.348   5.153   2.772 -1.3724 -1.2972 -2.4535
  463MOL0     H61076   0.401   4.942   2.677  2.4292 -2.1682 -1.6553
  463MOL0     H61077   0.524   5.005   2.567 -0.3796 -1.4591  0.9198
  463MOL0     H61078   0.154   5.218   2.640 -1.1624 -0.4441 -1.2753
  463MOL0     H61079  -0.080   5.158   2.728 -1.0148  0.0766 -1.1408
  463MOL0     H61080  -0.449   4.830   2.541 -0.9383  0.3665 -1.1226
  463MOL0     H61081  -0.679   4.774   2.605  1.2603 -0.4949 -0.9284
  463MOL0     H61082  -0.833   4.587   2.649 -0.2445  0.2340  0.4119
  463MOL0     H61083  -0.888   4.738   2.727  0.3033  0.7711  1.5093
  463MOL0     H61084  -1.022   4.591   2.882 -3.7794 -3.2230 -0.1971
  463MOL0     H61085  -0.930   4.457   2.822  0.9388 -0.2917 -2.4331
  463MOL0     H61086  -1.033   4.500   2.602  0.8967 -2.1286  2.0655
  463MOL0     H61087  -1.136   4.630   2.683  2.8527  2.3316 -0.8298
  463MOL0     H61088  -1.147   4.316   2.708 -0.7381 -0.9825  1.2948
  463MOL0     H61089  -1.191   4.421   2.848 -4.1104  0.1893 -0.2084
  463MOL0     H61090  -1.307   4.472   2.569 -1.5037 -1.3194 -0.9552
  463MOL0     H61091  -1.355   4.532   2.727 -0.2738 -0.0039 -0.7149
  463MOL0     H61092  -1.415   4.277   2.771  0.2769  0.8235 -0.5288
  463MOL0     H61093  -1.371   4.245   2.613  2.3287 -1.0356  2.0813
  463MOL0     H61094  -1.537   4.456   2.550  0.0874  1.9277  1.5229
  463MOL0     H61095  -1.603   4.310   2.608  0.2575 -0.1106  2.1604
  463MOL0     H61096  -1.574   4.580   2.746 -2.0950 -0.0444  0.6326
  463MOL0     H61097  -1.576   4.446   2.849  0.5564  1.8163  0.3702
  463MOL0     H61098  -0.554   4.617   2.985  0.2264 -2.0908 -1.1341
  463MOL0     H61099  -0.318   4.676   2.930 -2.1633  0.4345  1.9690
  463MOL0     H61100  -0.011   4.758   2.593 -1.4745 -0.6464  1.3067
  463MOL0     H61101   0.209   4.824   2.497 -1.1132 -1.1912  0.6499
  463MOL0     H61102   1.929   5.356   2.395 -0.2609  0.0804 -0.7123
  463MOL0     H61103   2.161   5.314   2.298 -2.0799 -2.4996  1.2764
  463MOL0     H61104   2.640   5.509   2.429 -0.0820 -0.7055  0.0374
  463MOL0     H61105   2.873   5.450   2.423  1.2299 -0.4775 -1.2407
  463MOL0     H61106   3.070   5.312   2.491  1.6728  1.2033 -0.4805
  463MOL0     H61107   3.087   5.425   2.359  0.5854  0.6884  3.0094
  463MOL0     H61108   3.287   5.244   2.425 -1.5996 -1.5142  2.5110
  463MOL0     H61109   3.173   5.128   2.354  0.7212 -0.0099 -2.4011
  463MOL0     H61110   3.336   5.341   2.212  1.9741 -2.2910 -1.5113
  463MOL0     H61111   3.189   5.279   2.137  0.8981 -2.0111 -1.8360
  463MOL0     H61112   3.282   5.046   2.121  0.4694 -0.9993  1.5385
  463MOL0     H61113   3.399   5.166   2.068  2.4293 -2.3154  0.7360
  463MOL0     H61114   3.579   4.996   2.409  0.0802 -0.6540 -1.2383
  463MOL0     H61115   2.805   5.124   2.167 -1.6137 -1.0337  0.9001
  463MOL0     H61116   2.561   5.184   2.157 -0.6049  2.3176 -1.2311
  464MOL0     O61117   0.954   3.513   6.247 -0.4733 -0.1610 -0.4301
  464MOL0     C61118   1.009   3.486   6.357  0.2227  0.5049  0.3720
  464MOL0     O61119   0.944   3.462   6.480  0.1337  0.5163  0.8864
  464MOL0     C61120   0.814   3.494   6.490  1.0429  0.1191 -1.2545
  464MOL0     C61121   0.778   3.578   6.599 -0.2722  0.1576  0.3942
  464MOL0     C61122   0.649   3.610   6.632 -0.1382  0.3914 -0.3392
  464MOL0     C61123   0.541   3.536   6.572 -0.4593  0.2380  0.3769
  464MOL0     O61124   0.407   3.554   6.602 -0.4588 -0.0205 -0.8880
  464MOL0     C61125   0.378   3.657   6.704 -1.2260  0.3278 -0.3888
  464MOL0     C61126   0.230   3.676   6.730 -0.2704  0.6497 -0.5762
  464MOL0     C61127   0.151   3.539   6.734  0.1589  0.7086 -0.3972
  464MOL0     C61128   0.015   3.574   6.800  0.1261  0.1826 -0.0948
  464MOL0     C61129  -0.079   3.454   6.773 -0.3702  0.1786  0.2447
  464MOL0     C61130  -0.231   3.484   6.803  0.6490  0.3772  0.1008
  464MOL0     C61131  -0.259   3.589   6.912 -0.3877  0.2019 -0.4282
  464MOL0     C61132  -0.408   3.590   6.949 -0.6579  0.2759  0.0667
  464MOL0     N61133  -0.450   3.472   7.030 -0.4381  0.3225 -0.4208
  464MOL0     C61134  -0.378   3.389   7.111  0.6011 -0.0388  0.4463
  464MOL0     C61135  -0.472   3.313   7.173  0.4412 -0.5257  0.4397
  464MOL0     C61136  -0.458   3.204   7.267  0.7577  0.0460  0.4573
  464MOL0     C61137  -0.378   3.270   7.384 -0.2730 -0.4525  0.1536
  464MOL0     C61138  -0.455   3.390   7.452 -0.8145 -0.4313  0.2225
  464MOL0     C61139  -0.600   3.357   7.486 -0.6335  0.4956  0.6907
  464MOL0     O61140  -0.656   3.478   7.536  0.0405  0.4828  0.4089
  464MOL0     C61141  -0.794   3.488   7.539 -0.9937  0.2050  0.3814
  464MOL0     C61142  -0.844   3.616   7.546  0.5955  0.7760  0.3708
  464MOL0     C61143  -0.977   3.638   7.544  0.2382  0.9689  0.0288
  464MOL0     C61144  -1.077   3.543   7.551 -0.7164 -0.0224 -0.8080
  464MOL0     C61145  -1.227   3.572   7.546  0.5384  0.7247  0.2883
  464MOL0     O61146  -1.298   3.464   7.581 -0.0054  0.2647  0.0264
  464MOL0     C61147  -1.439   3.484   7.593 -0.0128 -0.6127  0.1615
  464MOL0     C61148  -1.507   3.559   7.695 -0.3001  0.5832 -0.3455
  464MOL0     C61149  -1.649   3.540   7.697 -0.0019  0.1546 -0.4841
  464MOL0     C61150  -1.719   3.455   7.611  0.6384  0.1140 -0.4109
  464MOL0     O61151  -1.853   3.432   7.639 -0.8366 -0.3423  0.1953
  464MOL0     C61152  -1.918   3.323   7.579 -1.2098  0.4731  0.4955
  464MOL0     C61153  -2.054   3.278   7.637 -0.0388 -0.6542  0.2898
  464MOL0     C61154  -2.143   3.399   7.662 -0.4822  0.3892 -0.6790
  464MOL0     C61155  -2.286   3.366   7.702 -0.7389 -0.2969  0.2511
  464MOL0     C61156  -2.364   3.490   7.762 -0.5080 -0.5523 -0.6642
  464MOL0     C61157  -2.515   3.472   7.760 -0.7025  0.1306  1.1322
  464MOL0     C61158  -2.586   3.557   7.861 -0.0258 -0.2113  0.1260
  464MOL0     C61159  -2.734   3.532   7.864  0.1189  0.5263  0.0761
  464MOL0    Cl61160  -2.765   3.365   7.907  0.0123 -0.4869  0.0490
  464MOL0     C61161  -1.652   3.388   7.510 -0.1132  0.1964  0.0586
  464MOL0     C61162  -1.517   3.406   7.499 -1.1763  0.1044 -0.9293
  464MOL0     O61163  -1.277   3.684   7.517 -0.7650 -0.2228 -0.1601
  464MOL0     C61164  -1.027   3.415   7.556 -0.3356  0.7084 -0.1029
  464MOL0     C61165  -0.890   3.389   7.543 -0.2868  0.4121 -0.2838
  464MOL0     N61166  -0.600   3.346   7.131 -0.0878  0.0206  0.4583
  464MOL0     N61167  -0.580   3.442   7.047 -0.2018 -0.3935 -0.4122
  464MOL0     C61168   0.578   3.454   6.466  0.4172  0.4698  0.1253
  464MOL0     C61169   0.711   3.428   6.430  0.3053 -0.6224  0.4616
  464MOL0     C61170   1.147   3.486   6.364 -0.5290 -0.1313 -0.1959
  464MOL0     C61171   1.210   3.474   6.490  0.1798  0.8960  0.5525
  464MOL0     C61172   1.348   3.470   6.501  1.0053  0.4457 -0.0008
  464MOL0     C61173   1.429   3.486   6.392 -1.0567 -0.2289  0.3584
  464MOL0     O61174   1.569   3.495   6.413  0.3729  0.3860  0.0717
  464MOL0     C61175   1.659   3.489   6.294 -0.0817 -0.0981 -0.5393
  464MOL0     C61176   1.801   3.499   6.344 -0.1475  0.6169  0.3636
  464MOL0     C61177   1.897   3.435   6.244 -0.0158 -0.3933  0.5287
  464MOL0     C61178   2.032   3.476   6.288 -0.9113 -0.0508  1.4385
  464MOL0     C61179   2.128   3.394   6.215  0.3299  0.0281  1.3449
  464MOL0     C61180   2.214   3.331   6.166  0.1373 -0.9056 -0.1285
  464MOL0     C61181   1.372   3.495   6.263  0.3467 -0.0897  0.0446
  464MOL0     C61182   1.229   3.493   6.243 -0.6877  0.3106  0.0052
  464MOL0     H61183   0.862   3.611   6.660  1.6710  0.9241 -2.4585
  464MOL0     H61184   0.652   3.666   6.725  2.0488 -1.4115  0.7718
  464MOL0     H61185   0.425   3.750   6.671 -0.4587  0.4549  0.9757
  464MOL0     H61186   0.419   3.623   6.799  1.6064 -1.4645 -2.0786
  464MOL0     H61187   0.179   3.722   6.645  1.0588 -1.4341 -2.6104
  464MOL0     H61188   0.204   3.742   6.814 -0.1787  1.7330 -1.3724
  464MOL0     H61189   0.207   3.470   6.797  0.0503  1.6023  0.7089
  464MOL0     H61190   0.142   3.501   6.632  3.3232 -0.6826 -0.2631
  464MOL0     H61191   0.016   3.587   6.908 -2.4672 -2.5147  0.3910
  464MOL0     H61192  -0.020   3.660   6.744 -2.4553 -2.2117 -2.4853
  464MOL0     H61193  -0.036   3.376   6.836  1.9979  0.4024 -0.9785
  464MOL0     H61194  -0.071   3.420   6.669 -4.2930 -1.4533  0.2920
  464MOL0     H61195  -0.283   3.391   6.829  1.4322 -1.2995 -3.7006
  464MOL0     H61196  -0.276   3.517   6.709  0.5999  1.7602  0.5850
  464MOL0     H61197  -0.200   3.574   7.003  1.6555  1.7540 -1.4283
  464MOL0     H61198  -0.232   3.690   6.881 -0.2721  0.0502 -0.8212
  464MOL0     H61199  -0.473   3.599   6.861 -1.7478 -1.5388  0.6348
  464MOL0     H61200  -0.425   3.678   7.011  0.7228  1.1303 -0.7057
  464MOL0     H61201  -0.271   3.390   7.132  0.6668  1.9095  0.2107
  464MOL0     H61202  -0.401   3.129   7.211  0.9120  0.6529 -0.2183
  464MOL0     H61203  -0.551   3.150   7.286  1.8022 -1.1151  2.6225
  464MOL0     H61204  -0.277   3.308   7.364  0.3577 -2.2932 -0.3895
  464MOL0     H61205  -0.371   3.192   7.460 -2.6080  1.1835  2.1898
  464MOL0     H61206  -0.406   3.421   7.545  0.7199 -0.4330 -0.5418
  464MOL0     H61207  -0.456   3.478   7.387 -3.0740  0.1540  0.9960
  464MOL0     H61208  -0.607   3.275   7.557  0.7698 -2.2197 -2.1109
  464MOL0     H61209  -0.652   3.316   7.398  2.4234 -1.1169 -0.4989
  464MOL0     H61210  -0.781   3.704   7.532  0.4350  0.5778 -2.0304
  464MOL0     H61211  -1.005   3.743   7.542  0.0287  1.0667  3.2026
  464MOL0     H61212  -1.460   3.622   7.771  1.6931 -1.6286  0.4140
  464MOL0     H61213  -1.706   3.589   7.775 -2.5460  0.1813 -2.2410
  464MOL0     H61214  -1.860   3.231   7.568 -1.8310  0.2457 -1.0822
  464MOL0     H61215  -1.944   3.355   7.478  2.3747 -2.9495 -1.8049
  464MOL0     H61216  -2.045   3.219   7.729  0.6507 -2.2086 -0.7403
  464MOL0     H61217  -2.101   3.218   7.558  2.3906  0.0985 -1.8685
  464MOL0     H61218  -2.150   3.473   7.581  1.5410  3.4434  1.7075
  464MOL0     H61219  -2.102   3.461   7.742 -5.0079  2.4260  0.3857
  464MOL0     H61220  -2.334   3.332   7.609  2.2549  1.8197 -2.3037
  464MOL0     H61221  -2.277   3.284   7.774 -0.9752 -0.4290  0.1331
  464MOL0     H61222  -2.341   3.580   7.705  1.3290 -0.2049  0.5583
  464MOL0     H61223  -2.333   3.512   7.865 -0.5204  0.6885 -0.9124
  464MOL0     H61224  -2.542   3.370   7.787  0.9541 -1.2766 -2.0687
  464MOL0     H61225  -2.549   3.474   7.656  0.7595 -1.3744  0.5836
  464MOL0     H61226  -2.543   3.548   7.961  0.6799 -0.5098 -0.1983
  464MOL0     H61227  -2.563   3.658   7.826  0.8352 -1.2389 -2.5564
  464MOL0     H61228  -2.779   3.556   7.767  0.0232 -2.6161 -0.7819
  464MOL0     H61229  -2.780   3.579   7.950 -2.7717 -0.8514 -0.6096
  464MOL0     H61230  -1.708   3.318   7.450 -2.1772 -1.6158  3.7296
  464MOL0     H61231  -1.464   3.347   7.425 -2.5026  0.8781 -2.5662
  464MOL0     H61232  -1.095   3.330   7.556 -0.6418  0.9302  1.5190
  464MOL0     H61233  -0.849   3.289   7.554  0.3512  0.7159  0.1471
  464MOL0     H61234   0.495   3.411   6.410  0.5049 -0.6908  0.8537
  464MOL0     H61235   0.722   3.347   6.358  0.0372  0.9700 -1.4521
  464MOL0     H61236   1.150   3.476   6.581  0.9104 -0.6284  1.1059
  464MOL0     H61237   1.399   3.466   6.597  0.3437 -1.1831  0.3075
  464MOL0     H61238   1.642   3.578   6.234  1.1150 -1.5237 -3.1478
  464MOL0     H61239   1.646   3.396   6.238  3.1646 -0.5723 -0.6824
  464MOL0     H61240   1.836   3.601   6.362 -0.6560  1.6999 -3.8002
  464MOL0     H61241   1.790   3.450   6.442 -4.0733 -2.0860 -1.1798
  464MOL0     H61242   1.888   3.464   6.139  1.3027  0.7274  0.6989
  464MOL0     H61243   1.882   3.327   6.244  2.5780 -0.8260  0.4914
  464MOL0     H61244   2.055   3.580   6.263  0.1320 -0.4770  0.5667
  464MOL0     H61245   2.056   3.463   6.394 -0.3115 -3.2329  0.9967
  464MOL0     H61246   2.312   3.302   6.133  1.0186  0.6217  1.0121
  464MOL0     H61247   1.418   3.503   6.165 -2.4968 -1.4783 -1.5260
  464MOL0     H61248   1.188   3.509   6.144 -2.6639  4.7556  1.2997
  465MOL0     O61249   7.781  10.616   6.511  0.2517 -0.4372 -0.7268
  465MOL0     C61250   7.805  10.508   6.559  0.0342  0.3165 -0.1695
  465MOL0     O61251   7.713  10.419   6.604  0.2482 -0.6840 -0.1363
  465MOL0     C61252   7.574  10.423   6.591  0.0031 -1.0685 -0.4680
  465MOL0     C61253   7.502  10.315   6.642  0.9350 -0.3190  0.2073
  465MOL0     C61254   7.356  10.314   6.641 -0.4703  0.0810  0.5130
  465MOL0     C61255   7.285  10.418   6.590 -0.3950 -0.3748 -0.5717
  465MOL0     O61256   7.150  10.401   6.569 -0.3412 -0.1808  0.5848
  465MOL0     C61257   7.071  10.507   6.610  0.7013 -0.2006 -0.0011
  465MOL0     C61258   6.935  10.461   6.647  0.6302 -0.0166 -0.5737
  465MOL0     C61259   6.827  10.575   6.631  0.1003 -0.1952  0.2025
  465MOL0     C61260   6.690  10.536   6.691 -0.2712  1.0672  0.5650
  465MOL0     C61261   6.601  10.656   6.660  0.2145 -0.3869 -0.0460
  465MOL0     C61262   6.451  10.619   6.673  1.2305  0.6426  0.3877
  465MOL0     C61263   6.366  10.738   6.719 -0.5843  0.0322  0.6518
  465MOL0     C61264   6.218  10.703   6.729 -0.5010 -0.1596 -0.2403
  465MOL0     N61265   6.127  10.826   6.743 -0.5518  0.3291 -0.3651
  465MOL0     C61266   6.157  10.945   6.799  0.7608 -0.5656 -0.0793
  465MOL0     C61267   6.052  11.025   6.767 -0.0636 -0.4474  0.9240
  465MOL0     C61268   6.040  11.170   6.806 -0.0545  0.4141  0.6851
  465MOL0     C61269   5.887  11.210   6.827  0.0975  0.0622  0.2202
  465MOL0     C61270   5.875  11.328   6.920  0.2943  0.3610  0.0163
  465MOL0     C61271   5.721  11.351   6.933  0.5193 -0.4099 -0.6275
  465MOL0     O61272   5.678  11.490   6.962 -0.3857 -0.5523 -0.0812
  465MOL0     C61273   5.546  11.513   6.982 -0.8006 -0.0269  0.0660
  465MOL0     C61274   5.433  11.468   6.907 -1.3421  0.3643  1.1834
  465MOL0     C61275   5.307  11.508   6.942 -0.5194  0.1439  0.4007
  465MOL0     C61276   5.281  11.600   7.044  0.4039  0.2922 -0.6283
  465MOL0     C61277   5.139  11.646   7.068 -0.2659 -0.6812 -0.3096
  465MOL0     O61278   5.060  11.645   6.962 -0.3514  0.7453 -0.2224
  465MOL0     C61279   4.938  11.698   6.979  0.1062  0.0558  0.6613
  465MOL0     C61280   4.833  11.629   7.035 -0.2268 -0.1248  0.4036
  465MOL0     C61281   4.705  11.672   7.011  0.3405 -0.2701 -0.3000
  465MOL0     C61282   4.669  11.786   6.936 -1.0579 -0.4845 -1.3704
  465MOL0     O61283   4.534  11.811   6.926  0.4107 -0.4366 -0.1122
  465MOL0     C61284   4.488  11.912   6.829 -0.0793 -0.2683 -1.0395
  465MOL0     C61285   4.338  11.911   6.830  0.6022 -0.4791  0.9153
  465MOL0     C61286   4.281  12.033   6.738  0.3896  0.6509 -0.2465
  465MOL0     C61287   4.134  12.036   6.738 -0.1228 -0.5079  0.5492
  465MOL0     C61288   4.094  12.161   6.655 -0.2613 -0.0500 -0.7098
  465MOL0     C61289   4.107  12.296   6.728 -0.2587  0.1121 -0.5364
  465MOL0     C61290   4.044  12.405   6.641  0.3152 -0.2297  0.0219
  465MOL0     C61291   4.067  12.555   6.689 -0.6329 -0.1490  0.3013
  465MOL0    Cl61292   3.958  12.591   6.824 -0.0339  0.1887 -0.3269
  465MOL0     C61293   4.776  11.862   6.878  0.5051  0.2006  0.1489
  465MOL0     C61294   4.905  11.812   6.904 -0.5373 -0.0761  0.0486
  465MOL0     O61295   5.118  11.702   7.171  0.1564  0.3118 -0.6457
  465MOL0     C61296   5.393  11.650   7.114  0.1186  0.9659  0.7113
  465MOL0     C61297   5.521  11.607   7.083  0.4385 -0.5016 -0.3627
  465MOL0     N61298   5.960  10.950   6.694  0.0792 -0.6860  0.4777
  465MOL0     N61299   6.005  10.830   6.685  0.3527 -0.3423  0.6491
  465MOL0     C61300   7.358  10.519   6.525  0.6050  0.4616  0.3308
  465MOL0     C61301   7.503  10.522   6.521 -0.1975  0.2281  0.0628
  465MOL0     C61302   7.948  10.478   6.583  0.0648 -0.4240  0.2398
  465MOL0     C61303   8.044  10.565   6.549 -0.1130 -1.0381  1.0889
  465MOL0     C61304   8.180  10.542   6.575  0.1515  0.0867  1.2597
  465MOL0     C61305   8.216  10.411   6.628 -0.3039  0.6510  0.0634
  465MOL0     O61306   8.342  10.354   6.667  0.0095 -0.9171  0.1451
  465MOL0     C61307   8.460  10.433   6.631 -0.1220  0.5810 -0.1943
  465MOL0     C61308   8.578  10.347   6.681 -0.5602 -0.2283  0.4303
  465MOL0     C61309   8.717  10.413   6.663  0.2162  0.5246 -0.5236
  465MOL0     C61310   8.724  10.562   6.696  0.0621  0.3966 -0.4557
  465MOL0     C61311   8.847  10.627   6.654 -0.3890  0.7905  0.9341
  465MOL0     C61312   8.958  10.674   6.649 -0.5960  0.1587 -0.0322
  465MOL0     C61313   8.112  10.326   6.661 -0.5009 -0.7459 -0.3239
  465MOL0     C61314   7.981  10.351   6.639  0.3403  0.7890  0.0941
  465MOL0     H61315   7.570  10.239   6.677  1.8997  1.1975  1.7891
  465MOL0     H61316   7.303  10.227   6.679  1.4556 -1.4047 -0.0643
  465MOL0     H61317   7.048  10.589   6.540 -0.2886 -1.5934 -1.3712
  465MOL0     H61318   7.123  10.560   6.691  0.1679 -0.7665  0.7272
  465MOL0     H61319   6.946  10.437   6.753  2.3212  3.7220  0.2843
  465MOL0     H61320   6.905  10.371   6.592  1.9759 -0.7391 -0.1603
  465MOL0     H61321   6.817  10.593   6.524 -0.3179 -2.2305 -0.1474
  465MOL0     H61322   6.857  10.663   6.688 -1.7442 -0.6414  1.9902
  465MOL0     H61323   6.655  10.445   6.642  1.5351 -0.1234  1.3656
  465MOL0     H61324   6.704  10.512   6.796  1.8555  2.5906  0.7087
  465MOL0     H61325   6.610  10.702   6.561  0.6899  0.9271  0.5913
  465MOL0     H61326   6.639  10.734   6.726  1.9964  0.3246 -1.8247
  465MOL0     H61327   6.434  10.527   6.729 -0.2695  0.2573 -0.6379
  465MOL0     H61328   6.413  10.598   6.573 -1.4425 -0.9645  1.6384
  465MOL0     H61329   6.403  10.773   6.816 -0.1547  0.1319  0.4522
  465MOL0     H61330   6.377  10.824   6.653  0.4989  1.2855  2.3834
  465MOL0     H61331   6.197  10.658   6.826 -0.9825  2.7192  1.0974
  465MOL0     H61332   6.188  10.635   6.649 -2.8785 -0.7830  1.1033
  465MOL0     H61333   6.236  10.979   6.865  0.9249 -2.5119  0.7942
  465MOL0     H61334   6.085  11.233   6.728 -1.3294 -0.5791 -0.8953
  465MOL0     H61335   6.096  11.197   6.897  0.1128  3.0671 -0.1171
  465MOL0     H61336   5.840  11.130   6.884  2.4264 -0.8641  0.9740
  465MOL0     H61337   5.830  11.224   6.735  3.1085 -2.4916 -2.2595
  465MOL0     H61338   5.921  11.302   7.015  1.5973 -1.6277 -1.0846
  465MOL0     H61339   5.920  11.413   6.868  0.5495  0.8239  0.9826
  465MOL0     H61340   5.685  11.291   7.018  1.3711  2.0832  1.6338
  465MOL0     H61341   5.683  11.308   6.840  1.4136 -1.6712 -0.4437
  465MOL0     H61342   5.439  11.400   6.823  2.7178 -0.6513  2.0903
  465MOL0     H61343   5.223  11.477   6.881  0.4478  2.4067 -2.2868
  465MOL0     H61344   4.858  11.539   7.090 -1.5805 -0.9444 -0.2772
  465MOL0     H61345   4.620  11.612   7.042  0.2836 -1.5691 -2.7188
  465MOL0     H61346   4.530  11.899   6.729 -1.8335  0.7775 -1.9601
  465MOL0     H61347   4.516  12.015   6.855  2.9657 -1.6542  1.8608
  465MOL0     H61348   4.296  11.908   6.931 -0.5694 -4.5541  0.4940
  465MOL0     H61349   4.308  11.812   6.794 -1.4040 -0.2390  1.8178
  465MOL0     H61350   4.313  12.021   6.634  2.1218  2.3474  0.0284
  465MOL0     H61351   4.324  12.126   6.774 -0.2951  1.2721 -0.9899
  465MOL0     H61352   4.101  11.939   6.700  0.8515 -0.6246 -0.0223
  465MOL0     H61353   4.105  12.040   6.843  0.1315 -4.1872  0.8662
  465MOL0     H61354   3.993  12.154   6.613  0.5764  1.1346 -3.1565
  465MOL0     H61355   4.153  12.168   6.563 -0.5642 -0.8578 -0.9712
  465MOL0     H61356   4.213  12.308   6.753  0.1754 -2.9288 -0.5391
  465MOL0     H61357   4.054  12.294   6.823  0.6399 -0.1897 -0.0305
  465MOL0     H61358   4.086  12.398   6.540 -1.4251  0.5376 -0.7875
  465MOL0     H61359   3.936  12.390   6.640  0.4700 -1.5240  0.4675
  465MOL0     H61360   4.041  12.620   6.604  0.4441 -0.3219 -0.1766
  465MOL0     H61361   4.170  12.575   6.717 -0.6448 -1.4214  1.3418
  465MOL0     H61362   4.757  11.954   6.825 -2.2947 -0.0020  0.6482
  465MOL0     H61363   4.995  11.866   6.876 -1.0357 -0.0184 -1.5471
  465MOL0     H61364   5.370  11.721   7.193 -0.5174  0.6061  0.8567
  465MOL0     H61365   5.602  11.648   7.142 -0.3127  1.8632 -0.8619
  465MOL0     H61366   7.300  10.597   6.477 -0.0326 -1.8359 -2.9534
  465MOL0     H61367   7.547  10.613   6.480  0.2097 -0.0987 -0.2225
  465MOL0     H61368   8.025  10.665   6.510  0.1892 -0.4529  2.3810
  465MOL0     H61369   8.255  10.617   6.554 -0.5419  0.2322 -0.9719
  465MOL0     H61370   8.453  10.531   6.678  0.6400  1.2027 -1.3368
  465MOL0     H61371   8.460  10.448   6.522 -3.7288  0.9244 -0.2924
  465MOL0     H61372   8.570  10.326   6.788 -0.3278 -1.2690  0.2512
  465MOL0     H61373   8.583  10.254   6.624 -1.5763 -0.4195  0.6431
  465MOL0     H61374   8.758  10.390   6.564 -0.9295 -0.5861 -0.7626
  465MOL0     H61375   8.778  10.354   6.732 -2.5162  0.0595  1.6504
  465MOL0     H61376   8.641  10.615   6.648 -0.9238  1.1739  1.9637
  465MOL0     H61377   8.717  10.578   6.804 -0.6942  0.6594 -0.5403
  465MOL0     H61378   9.063  10.699   6.647 -1.0265  2.8994  2.8794
  465MOL0     H61379   8.135  10.228   6.703  0.4558 -0.1581  0.5830
  465MOL0     H61380   7.905  10.281   6.672  0.3259 -0.0020 -1.5451
  466MOL0     O61381   4.305  10.521   4.707  0.5345  0.9016  0.3906
  466MOL0     C61382   4.413  10.475   4.659 -0.1820  0.8644  0.1125
  466MOL0     O61383   4.420  10.359   4.592 -0.0211 -0.4202  0.1379
  466MOL0     C61384   4.301  10.318   4.543 -0.0500 -0.0419  0.4747
  466MOL0     C61385   4.255  10.187   4.568  0.2909 -0.4676  0.4540
  466MOL0     C61386   4.138  10.139   4.518  0.9182 -0.0079 -0.1139
  466MOL0     C61387   4.054  10.219   4.442 -0.0305  0.8598  0.4120
  466MOL0     O61388   3.931  10.166   4.397 -0.8477  0.6563 -0.0624
  466MOL0     C61389   3.884  10.217   4.267  0.2367  0.3540  0.0970
  466MOL0     C61390   3.788  10.111   4.202 -0.0854  0.0360 -0.0288
  466MOL0     C61391   3.651  10.091   4.270 -0.4680 -0.5171  0.0989
  466MOL0     C61392   3.555  10.031   4.174  0.7608  0.9340 -0.1109
  466MOL0     C61393   3.406  10.050   4.214 -0.2394  0.3618  0.3850
  466MOL0     C61394   3.317  10.008   4.094  0.2305  0.3094  0.5674
  466MOL0     C61395   3.161  10.034   4.118 -0.1713 -0.1506  0.0798
  466MOL0     C61396   3.074   9.926   4.044 -1.4351 -0.5699  0.5678
  466MOL0     N61397   2.930   9.955   4.057  1.0142  0.3261 -0.0564
  466MOL0     C61398   2.872  10.068   3.997 -0.0974  0.0015 -0.1620
  466MOL0     C61399   2.750  10.086   4.067 -0.5915  0.2077 -0.8168
  466MOL0     C61400   2.633  10.183   4.044  0.6005  1.2197 -0.2228
  466MOL0     C61401   2.497  10.114   4.023 -0.9565  1.0164 -0.4221
  466MOL0     C61402   2.489  10.028   3.896 -0.3994 -0.9888  0.8012
  466MOL0     C61403   2.356   9.974   3.889 -0.3294 -0.5437  0.3100
  466MOL0     O61404   2.325   9.914   3.761 -0.4322  0.1571  0.2500
  466MOL0     C61405   2.198   9.873   3.724 -0.1910  0.1727  0.0287
  466MOL0     C61406   2.200   9.818   3.601  0.0945  0.3000  0.1350
  466MOL0     C61407   2.078   9.794   3.537  0.1287 -1.1608  0.2424
  466MOL0     C61408   1.962   9.810   3.605  0.3427  0.3131  0.2260
  466MOL0     C61409   1.839   9.776   3.542  0.7311  1.0656 -0.6354
  466MOL0     O61410   1.727   9.854   3.576 -0.2106  0.4912 -0.0439
  466MOL0     C61411   1.607   9.799   3.529  0.1251 -0.1802 -0.1117
  466MOL0     C61412   1.513   9.769   3.627 -0.5509 -0.1697 -0.3681
  466MOL0     C61413   1.385   9.724   3.594 -0.7266  0.9846  0.6750
  466MOL0     C61414   1.343   9.704   3.464  0.1391 -0.2559 -0.3049
  466MOL0     O61415   1.212   9.653   3.451 -0.2082  0.0242 -0.5601
  466MOL0     C61416   1.180   9.586   3.329  0.2670  0.6037 -0.2613
  466MOL0     C61417   1.029   9.582   3.322  0.3320 -0.2003  0.5144
  466MOL0     C61418   0.976   9.485   3.212 -0.2122 -0.3636  0.1075
  466MOL0     C61419   0.838   9.456   3.253 -0.7824  0.6703  0.1961
  466MOL0     C61420   0.767   9.374   3.145 -0.0290  0.7238  0.6737
  466MOL0     C61421   0.620   9.343   3.187 -0.3889  0.1583  0.5833
  466MOL0     C61422   0.567   9.272   3.073  1.0578 -0.1713  0.4749
  466MOL0     C61423   0.415   9.242   3.085  0.3932  1.0987 -0.2168
  466MOL0    Cl61424   0.317   9.377   3.147  0.2290  0.4131  0.1230
  466MOL0     C61425   1.445   9.715   3.366  0.0077 -0.1769 -0.1266
  466MOL0     C61426   1.579   9.767   3.393  0.4112  0.6700 -0.9927
  466MOL0     O61427   1.839   9.678   3.463  0.3547 -0.1898 -0.1902
  466MOL0     C61428   1.963   9.858   3.734 -0.2019 -0.3877  0.0530
  466MOL0     C61429   2.086   9.890   3.795  0.0993 -0.4645  0.0447
  466MOL0     N61430   2.734   9.983   4.156 -0.0267  0.0531 -0.2601
  466MOL0     N61431   2.840   9.903   4.148 -0.3390 -0.0657  0.6489
  466MOL0     C61432   4.096  10.349   4.414  0.3939  1.3946 -0.2398
  466MOL0     C61433   4.219  10.393   4.460 -0.5865 -0.1443 -0.6814
  466MOL0     C61434   4.543  10.524   4.703  0.5742  0.6226 -0.6789
  466MOL0     C61435   4.656  10.441   4.683 -0.3285  0.3843  0.4990
  466MOL0     C61436   4.780  10.475   4.737  0.1167  0.5223 -0.3266
  466MOL0     C61437   4.786  10.593   4.810 -0.1557 -0.3460  0.0765
  466MOL0     O61438   4.896  10.629   4.882  0.7730  0.3660 -0.0972
  466MOL0     C61439   5.016  10.552   4.863 -0.3844  0.1717 -0.2680
  466MOL0     C61440   5.083  10.591   4.728  0.7125 -0.2175  0.1220
  466MOL0     C61441   5.231  10.563   4.715 -1.2198 -0.4174  0.2887
  466MOL0     C61442   5.312  10.653   4.815 -0.4879  0.5975  0.4350
  466MOL0     C61443   5.452  10.669   4.766 -0.1920 -0.3884  0.5586
  466MOL0     C61444   5.558  10.707   4.719  0.1134  0.3427 -0.2413
  466MOL0     C61445   4.674  10.677   4.828 -0.0043 -0.8425 -0.9967
  466MOL0     C61446   4.558  10.640   4.769  0.2549  0.0614  0.1922
  466MOL0     H61447   4.310  10.110   4.621  1.5589 -0.2143 -0.4647
  466MOL0     H61448   4.122  10.033   4.537  0.2563  0.3068  1.2624
  466MOL0     H61449   3.964  10.249   4.200  1.7738  0.7469  2.0222
  466MOL0     H61450   3.829  10.310   4.287  0.0432  0.6723 -1.7862
  466MOL0     H61451   3.844  10.017   4.198 -1.0347 -0.6669  1.8982
  466MOL0     H61452   3.772  10.151   4.101 -3.0742 -0.1130  0.3122
  466MOL0     H61453   3.617  10.193   4.291 -0.7899 -0.7686  0.8227
  466MOL0     H61454   3.646  10.024   4.356  0.4174 -0.5466  0.1389
  466MOL0     H61455   3.562  10.086   4.080 -0.6272  1.0248 -0.1776
  466MOL0     H61456   3.584   9.927   4.157  0.8313  0.8187  0.6733
  466MOL0     H61457   3.388  10.156   4.233  0.0181  0.8225 -1.6730
  466MOL0     H61458   3.377   9.996   4.304  2.1701  1.9029  2.2061
  466MOL0     H61459   3.331   9.903   4.065 -3.4140 -0.3659  0.7558
  466MOL0     H61460   3.350  10.058   4.002 -2.2205 -0.4499 -0.8388
  466MOL0     H61461   3.132  10.033   4.223  1.6828 -0.9341  0.6234
  466MOL0     H61462   3.144  10.131   4.069  0.4505 -1.7427 -3.6241
  466MOL0     H61463   3.090   9.829   4.092  2.2252 -0.4705 -0.1622
  466MOL0     H61464   3.100   9.919   3.938 -1.7028  0.6367  0.4132
  466MOL0     H61465   2.913  10.125   3.914 -0.9504 -1.8997 -2.0030
  466MOL0     H61466   2.645  10.250   3.958 -0.0162  0.7855 -0.6516
  466MOL0     H61467   2.635  10.257   4.125  2.3709  3.4547 -2.1465
  466MOL0     H61468   2.410  10.181   4.026 -2.5836 -0.7902 -3.0032
  466MOL0     H61469   2.481  10.044   4.106 -1.3555  2.4099  0.7288
  466MOL0     H61470   2.511  10.088   3.807 -2.7526  1.0719  1.4842
  466MOL0     H61471   2.566   9.952   3.909  2.1581  1.4348  0.9250
  466MOL0     H61472   2.284  10.055   3.907 -0.9993 -1.0193 -0.1719
  466MOL0     H61473   2.339   9.905   3.972 -0.9135  1.5994  2.1073
  466MOL0     H61474   2.297   9.808   3.553 -1.0982 -0.7131 -2.2187
  466MOL0     H61475   2.079   9.750   3.438  0.0725 -3.9446  1.3820
  466MOL0     H61476   1.544   9.778   3.731 -0.8120 -0.7155 -0.2416
  466MOL0     H61477   1.310   9.713   3.671 -1.2027  2.1659  0.4024
  466MOL0     H61478   1.211   9.481   3.336  1.4248  1.0208  1.4831
  466MOL0     H61479   1.224   9.622   3.236  1.3228  0.1256  0.0379
  466MOL0     H61480   0.998   9.685   3.302  0.1798 -0.4772 -0.7788
  466MOL0     H61481   0.986   9.550   3.417 -1.6305  2.2966  0.5820
  466MOL0     H61482   1.025   9.388   3.224 -1.1265 -0.5746  2.6340
  466MOL0     H61483   0.993   9.515   3.108 -1.7421 -2.0523 -0.6824
  466MOL0     H61484   0.838   9.404   3.349  0.3460  1.3508  0.5756
  466MOL0     H61485   0.778   9.545   3.273 -0.6632  0.8505 -0.2469
  466MOL0     H61486   0.821   9.280   3.132  1.1521  1.2997  1.2586
  466MOL0     H61487   0.769   9.436   3.055  1.7611  0.5083  0.5188
  466MOL0     H61488   0.562   9.432   3.209  1.7805  1.8095  0.0438
  466MOL0     H61489   0.622   9.275   3.273  1.6921 -0.3936  0.1696
  466MOL0     H61490   0.582   9.338   2.987 -2.5426 -0.9417 -0.9263
  466MOL0     H61491   0.623   9.181   3.048 -0.1669 -0.6957 -0.4897
  466MOL0     H61492   0.397   9.157   3.151 -0.8572  1.1515 -0.4489
  466MOL0     H61493   0.374   9.204   2.991 -1.3820 -2.5766  1.8343
  466MOL0     H61494   1.413   9.700   3.263 -3.4415  1.7277  0.5067
  466MOL0     H61495   1.647   9.769   3.309 -2.3896 -2.5997 -3.6517
  466MOL0     H61496   1.874   9.874   3.793  1.1729  0.0225  2.1065
  466MOL0     H61497   2.091   9.947   3.887  0.9977  0.1921 -0.3927
  466MOL0     H61498   4.041  10.428   4.363  1.7826  1.0697 -2.3740
  466MOL0     H61499   4.228  10.501   4.454  1.7712 -0.1183  1.5600
  466MOL0     H61500   4.644  10.345   4.634 -3.8822 -0.0178  1.8439
  466MOL0     H61501   4.864  10.408   4.728  1.7351  2.0404  2.2457
  466MOL0     H61502   5.001  10.445   4.885 -0.5010  0.0846 -0.7513
  466MOL0     H61503   5.086  10.596   4.934  1.2631 -1.1330 -1.0068
  466MOL0     H61504   5.039  10.541   4.642 -1.0321 -1.8317  1.8470
  466MOL0     H61505   5.066  10.697   4.710 -1.2775 -0.4716  0.2791
  466MOL0     H61506   5.261  10.577   4.611 -1.5069 -1.6278  0.0358
  466MOL0     H61507   5.250  10.456   4.726 -3.0687 -0.6597  1.6876
  466MOL0     H61508   5.268  10.753   4.818  1.9980  1.7456  1.7716
  466MOL0     H61509   5.321  10.618   4.918 -2.3683  0.1657  0.4784
  466MOL0     H61510   5.644  10.737   4.661  1.3952  0.5789  1.6877
  466MOL0     H61511   4.680  10.768   4.888 -3.2936 -0.1164 -1.6007
  466MOL0     H61512   4.467  10.698   4.783 -0.6412 -1.3262  0.2156
  467MOL0     O61513   9.218   4.820   2.061  0.0250 -0.3862 -0.3144
  467MOL0     C61514   9.226   4.723   1.990  0.0158  0.6437 -0.1462
  467MOL0     O61515   9.131   4.670   1.912  0.0528  1.2841  0.8125
  467MOL0     C61516   8.998   4.670   1.952  1.2053  0.1565 -0.1934
  467MOL0     C61517   8.946   4.719   2.077  0.4666 -0.5846 -0.2786
  467MOL0     C61518   8.812   4.706   2.109  0.2523 -0.2863  0.1965
  467MOL0     C61519   8.718   4.649   2.016  0.7401  0.7109  0.0472
  467MOL0     O61520   8.583   4.633   2.037 -1.0197  0.4808  0.3150
  467MOL0     C61521   8.537   4.669   2.170  0.2664 -0.1541  0.2404
  467MOL0     C61522   8.386   4.674   2.163  0.2989  0.5921 -0.2318
  467MOL0     C61523   8.309   4.698   2.290 -0.0308 -0.3132 -0.6374
  467MOL0     C61524   8.166   4.724   2.267  0.0094  0.0073  0.7217
  467MOL0     C61525   8.104   4.755   2.400 -0.1244  0.0553 -0.7273
  467MOL0     C61526   7.953   4.792   2.383 -0.3300 -0.6920  0.6063
  467MOL0     C61527   7.888   4.830   2.519 -0.1977  0.6833 -0.0664
  467MOL0     C61528   7.744   4.883   2.493  0.2934  0.1549 -0.2019
  467MOL0     N61529   7.654   4.892   2.608 -0.2741 -0.0604  0.8980
  467MOL0     C61530   7.566   4.795   2.655  0.1733 -0.4412  0.3957
  467MOL0     C61531   7.499   4.863   2.754  0.5704  0.3417 -0.2576
  467MOL0     C61532   7.409   4.795   2.854 -0.5311 -0.0971  0.4346
  467MOL0     C61533   7.265   4.810   2.832  0.8577 -0.6737  0.2771
  467MOL0     C61534   7.204   4.698   2.748  0.2991  0.0305  0.0599
  467MOL0     C61535   7.055   4.699   2.753  0.6810 -0.4085  0.1805
  467MOL0     O61536   7.004   4.821   2.698 -0.4790  0.5666 -0.4764
  467MOL0     C61537   6.875   4.858   2.702 -0.0385  0.4037 -0.4951
  467MOL0     C61538   6.777   4.768   2.751  0.7529 -0.2161  0.0104
  467MOL0     C61539   6.642   4.799   2.739 -0.3495  0.1450 -0.2039
  467MOL0     C61540   6.601   4.930   2.701 -0.8027 -0.9646  0.6742
  467MOL0     C61541   6.461   4.976   2.706  1.0028 -0.6430 -0.7064
  467MOL0     O61542   6.375   4.891   2.767 -0.2622  0.2942 -0.4856
  467MOL0     C61543   6.242   4.932   2.774 -0.5397 -0.4466  0.0346
  467MOL0     C61544   6.206   4.983   2.897  0.3319 -0.7043 -0.2864
  467MOL0     C61545   6.080   5.035   2.914  0.1637 -0.2952  0.4139
  467MOL0     C61546   5.980   5.029   2.814  0.6882 -0.1614  0.4469
  467MOL0     O61547   5.842   5.054   2.835 -0.4295  0.4629  0.1069
  467MOL0     C61548   5.828   5.163   2.928 -0.2527  0.2362  0.2367
  467MOL0     C61549   5.681   5.208   2.919 -0.1623  0.4184 -0.1100
  467MOL0     C61550   5.591   5.097   2.981  0.2752  0.2946 -0.4635
  467MOL0     C61551   5.457   5.152   3.029 -0.0965 -0.4305 -0.0558
  467MOL0     C61552   5.391   5.242   2.930  0.0764  0.3250 -0.2150
  467MOL0     C61553   5.258   5.299   2.988  0.3399 -0.1544 -0.7894
  467MOL0     C61554   5.178   5.399   2.888 -0.5350  1.5895 -0.5856
  467MOL0     C61555   5.133   5.523   2.965  0.1000 -0.5320 -0.1711
  467MOL0    Cl61556   5.021   5.480   3.090  0.0224  0.4232  0.2393
  467MOL0     C61557   6.021   4.982   2.682 -0.4891  0.5962 -0.8242
  467MOL0     C61558   6.148   4.935   2.664 -0.5400 -0.0532 -0.5543
  467MOL0     O61559   6.427   5.083   2.657 -0.6601 -0.5367 -0.0914
  467MOL0     C61560   6.707   5.024   2.657  0.0191  0.1735 -0.1685
  467MOL0     C61561   6.841   4.983   2.660 -0.2255 -0.1926  1.2414
  467MOL0     N61562   7.553   4.988   2.772  0.8249 -0.4587  0.5314
  467MOL0     N61563   7.647   5.002   2.690 -0.9250  0.0324  0.3159
  467MOL0     C61564   8.771   4.602   1.891 -0.2227 -0.1306 -0.3929
  467MOL0     C61565   8.908   4.613   1.858  0.5492 -0.3754 -0.5515
  467MOL0     C61566   9.362   4.682   1.962 -0.1119 -0.0248 -0.0265
  467MOL0     C61567   9.387   4.557   1.901  0.0371  0.1563 -0.0567
  467MOL0     C61568   9.515   4.519   1.861  0.2039  0.4269 -0.8553
  467MOL0     C61569   9.630   4.598   1.893  0.3512 -0.3609  0.6546
  467MOL0     O61570   9.759   4.575   1.850 -0.1840  0.2477  0.0936
  467MOL0     C61571   9.805   4.439   1.832  0.7286  0.5437  0.3148
  467MOL0     C61572   9.942   4.421   1.886  0.1925 -0.6347 -0.2372
  467MOL0     C61573   9.940   4.396   2.039 -0.1918  0.4761 -0.3227
  467MOL0     C61574  10.077   4.357   2.105  0.6143  0.0012 -0.3433
  467MOL0     C61575  10.060   4.312   2.249  0.4183  0.2287  0.1196
  467MOL0     C61576  10.050   4.296   2.371  0.2022 -0.1164  0.3463
  467MOL0     C61577   9.601   4.724   1.948 -0.1852  0.5718  0.1568
  467MOL0     C61578   9.471   4.770   1.979  0.1967 -0.3544  0.2441
  467MOL0     H61579   9.002   4.753   2.164  0.4214  2.1613 -1.2302
  467MOL0     H61580   8.786   4.756   2.202 -3.3414  5.4219 -3.2404
  467MOL0     H61581   8.568   4.768   2.205  0.0753  0.5872 -1.5674
  467MOL0     H61582   8.574   4.594   2.241 -0.6647 -0.6853  0.1902
  467MOL0     H61583   8.353   4.578   2.123  2.8290 -0.6195  0.3950
  467MOL0     H61584   8.353   4.738   2.081  1.2890  1.6257  0.1459
  467MOL0     H61585   8.353   4.782   2.344  1.2667 -1.2234 -0.2157
  467MOL0     H61586   8.329   4.624   2.368 -0.9907  2.0196  1.9886
  467MOL0     H61587   8.158   4.805   2.194  1.3023 -0.8687 -0.4501
  467MOL0     H61588   8.119   4.637   2.219  0.3470  0.1764  0.0724
  467MOL0     H61589   8.151   4.844   2.443  0.9424  0.0976 -1.9369
  467MOL0     H61590   8.120   4.683   2.481  0.5286  3.3160  2.2646
  467MOL0     H61591   7.895   4.710   2.340 -0.2930 -0.1522 -0.5018
  467MOL0     H61592   7.944   4.881   2.320 -0.1156 -0.9158  0.2626
  467MOL0     H61593   7.882   4.740   2.579 -2.0223 -0.4184 -1.7872
  467MOL0     H61594   7.949   4.902   2.575  3.7044 -1.1302 -1.6442
  467MOL0     H61595   7.701   4.807   2.427  2.6392 -1.4463 -0.0355
  467MOL0     H61596   7.740   4.982   2.447 -0.5927 -0.8306 -2.3575
  467MOL0     H61597   7.557   4.689   2.630  0.4296 -0.0770 -1.3803
  467MOL0     H61598   7.423   4.845   2.950 -0.3801 -0.4784  0.6132
  467MOL0     H61599   7.435   4.690   2.871 -0.0705 -0.1259 -0.4453
  467MOL0     H61600   7.231   4.890   2.766 -2.1758 -3.3121 -1.7050
  467MOL0     H61601   7.216   4.823   2.929  1.9140  0.0004  0.7414
  467MOL0     H61602   7.233   4.712   2.644  2.3672 -1.9787  0.2948
  467MOL0     H61603   7.243   4.601   2.782 -1.5245 -0.6538  0.3680
  467MOL0     H61604   7.017   4.689   2.855 -1.9484 -4.9803 -0.9688
  467MOL0     H61605   7.017   4.613   2.696 -0.8349 -1.0802  2.0946
  467MOL0     H61606   6.804   4.674   2.798 -1.1245 -0.8600 -0.1343
  467MOL0     H61607   6.568   4.736   2.788 -0.2333  0.8006  0.8490
  467MOL0     H61608   6.283   4.988   2.973  1.6266  3.3457 -1.5731
  467MOL0     H61609   6.066   5.079   3.013  1.9183  3.9406 -0.9800
  467MOL0     H61610   5.887   5.252   2.902  1.9684 -1.3732 -0.5476
  467MOL0     H61611   5.850   5.136   3.032 -2.1922  1.8422  1.1262
  467MOL0     H61612   5.651   5.211   2.814  1.0476 -2.9373 -0.6833
  467MOL0     H61613   5.676   5.303   2.972  4.0331  0.6078  0.2626
  467MOL0     H61614   5.641   5.045   3.064 -0.8695 -0.0875  0.0063
  467MOL0     H61615   5.566   5.027   2.902 -0.8878  0.2204 -0.0591
  467MOL0     H61616   5.389   5.069   3.054  1.1400 -1.0603  1.3578
  467MOL0     H61617   5.484   5.204   3.121  2.3630 -0.9665 -0.3906
  467MOL0     H61618   5.383   5.181   2.839  0.7396 -0.5789  0.3161
  467MOL0     H61619   5.467   5.319   2.916  1.2028 -1.0754 -2.5089
  467MOL0     H61620   5.285   5.349   3.082  0.8805 -1.5870 -0.1509
  467MOL0     H61621   5.200   5.210   3.014  0.3159  0.5942  2.1363
  467MOL0     H61622   5.243   5.434   2.808  0.6017 -0.8954 -0.8569
  467MOL0     H61623   5.090   5.346   2.851 -0.6732  1.6416 -0.3393
  467MOL0     H61624   5.100   5.606   2.902  2.4677  1.7592  1.3886
  467MOL0     H61625   5.219   5.574   3.009 -2.4234  5.7963 -1.5682
  467MOL0     H61626   5.944   4.976   2.605  0.5349 -0.7141 -1.7753
  467MOL0     H61627   6.175   4.880   2.574 -0.6742  1.8157 -1.7690
  467MOL0     H61628   6.692   5.127   2.627  0.7625  1.7143  4.0892
  467MOL0     H61629   6.916   5.045   2.612 -1.7702  0.1340 -0.8784
  467MOL0     H61630   8.694   4.568   1.822  1.4785 -1.3503 -1.8146
  467MOL0     H61631   8.942   4.588   1.758  1.2120  1.1550 -0.7348
  467MOL0     H61632   9.303   4.490   1.891  0.1835  0.3041 -3.2476
  467MOL0     H61633   9.538   4.422   1.817 -1.8546 -0.5177  0.0055
  467MOL0     H61634   9.793   4.405   1.729  1.8275 -0.0841  0.3797
  467MOL0     H61635   9.734   4.374   1.884  1.2368 -1.6429 -1.5857
  467MOL0     H61636   9.983   4.334   1.834  1.7304 -0.1862  0.1639
  467MOL0     H61637  10.004   4.506   1.855 -2.0905  1.3591  0.3232
  467MOL0     H61638   9.864   4.320   2.056  0.3648 -0.0233 -0.0192
  467MOL0     H61639   9.923   4.487   2.098  1.7225 -0.7283  2.3328
  467MOL0     H61640  10.140   4.283   2.055  1.3539  0.7366 -0.5096
  467MOL0     H61641  10.148   4.439   2.099  1.2883 -0.5411  0.0841
  467MOL0     H61642  10.029   4.261   2.470  0.1304 -1.7223 -0.2044
  467MOL0     H61643   9.672   4.804   1.970  1.6140 -0.0013 -3.0247
  467MOL0     H61644   9.472   4.874   2.009  2.7914  0.5653 -2.5631
  468MOL0     O61645  10.736   6.247   6.018  0.1524 -1.0921 -0.6682
  468MOL0     C61646  10.823   6.196   6.088  0.0537  0.2233  0.1713
  468MOL0     O61647  10.798   6.133   6.205 -0.7309 -0.1313  0.8681
  468MOL0     C61648  10.680   6.150   6.274 -0.5703 -0.8991  0.5526
  468MOL0     C61649  10.549   6.181   6.222 -0.0637  0.3050  0.6488
  468MOL0     C61650  10.435   6.195   6.309 -0.1399  0.7605  0.3661
  468MOL0     C61651  10.446   6.157   6.449 -0.8082  0.3004 -0.0528
  468MOL0     O61652  10.339   6.159   6.544  0.5384  0.3041  0.0267
  468MOL0     C61653  10.227   6.239   6.516 -0.2399 -0.2504  0.0378
  468MOL0     C61654  10.105   6.160   6.459 -0.0772 -0.1465  0.7333
  468MOL0     C61655  10.006   6.103   6.563  0.1593  0.3253  0.6908
  468MOL0     C61656   9.883   6.188   6.575  0.9634  0.3044  0.3253
  468MOL0     C61657   9.772   6.122   6.674  0.0137 -0.1289  0.2633
  468MOL0     C61658   9.658   6.220   6.699  0.7170 -0.9418  0.2770
  468MOL0     C61659   9.550   6.146   6.778  0.1722  0.5222  0.2274
  468MOL0     C61660   9.406   6.202   6.768 -0.1768 -0.3747  0.5328
  468MOL0     N61661   9.315   6.128   6.859 -0.0271 -0.2230  0.0075
  468MOL0     C61662   9.328   6.108   6.997 -0.4911 -1.0621  0.1103
  468MOL0     C61663   9.207   6.067   7.036  0.2239 -0.5471 -0.0213
  468MOL0     C61664   9.176   6.019   7.174 -0.9842 -0.8421  0.1168
  468MOL0     C61665   9.035   6.073   7.218 -0.5506  0.2426  0.0239
  468MOL0     C61666   8.924   5.964   7.173 -0.4002 -0.1606 -0.5268
  468MOL0     C61667   8.790   6.016   7.202 -0.3847 -0.1825 -0.7314
  468MOL0     O61668   8.773   6.007   7.349  0.1563 -0.4280  0.1566
  468MOL0     C61669   8.651   6.051   7.387 -0.7264 -0.1145 -0.1385
  468MOL0     C61670   8.552   6.125   7.310  0.7001  0.0874 -0.8729
  468MOL0     C61671   8.425   6.161   7.362 -0.3690 -0.2920 -0.8546
  468MOL0     C61672   8.388   6.125   7.494 -0.5287 -1.0412 -0.1580
  468MOL0     C61673   8.250   6.154   7.548  1.1089  0.7105  0.5582
  468MOL0     O61674   8.212   6.130   7.677 -0.0758 -0.0578  0.0745
  468MOL0     C61675   8.077   6.133   7.712 -0.0343 -0.5338  0.9226
  468MOL0     C61676   8.031   6.225   7.795 -0.0020 -0.0362 -0.1054
  468MOL0     C61677   7.898   6.222   7.832  0.1370  0.1889 -1.0878
  468MOL0     C61678   7.804   6.135   7.777 -0.0154  0.2068  0.2902
  468MOL0     O61679   7.682   6.128   7.833  1.0823 -0.1148 -0.0412
  468MOL0     C61680   7.625   6.260   7.855  0.4884 -0.5500  0.6836
  468MOL0     C61681   7.476   6.246   7.853  0.6651 -0.0535  0.0701
  468MOL0     C61682   7.403   6.377   7.881  0.8885  0.3283  1.3057
  468MOL0     C61683   7.257   6.356   7.834 -0.1331  0.8278  0.5219
  468MOL0     C61684   7.177   6.476   7.801 -0.1021 -0.9975 -0.3850
  468MOL0     C61685   7.024   6.447   7.793 -1.2930  0.4424 -0.3852
  468MOL0     C61686   6.945   6.572   7.760  1.2045  0.0615  0.4506
  468MOL0     C61687   6.791   6.545   7.748  0.2418  0.8959  1.0191
  468MOL0    Cl61688   6.709   6.546   7.912 -0.1483 -0.0102 -0.1693
  468MOL0     C61689   7.854   6.046   7.674  0.1343  0.6651  0.2769
  468MOL0     C61690   7.990   6.038   7.653  0.3145  0.1950  1.1043
  468MOL0     O61691   8.172   6.205   7.466 -0.2492 -0.5347 -0.4636
  468MOL0     C61692   8.486   6.058   7.564  0.0949  0.1602 -0.0037
  468MOL0     C61693   8.617   6.016   7.514  0.4307  0.0117  0.2896
  468MOL0     N61694   9.127   6.048   6.923 -0.3421  0.0865  0.6014
  468MOL0     N61695   9.191   6.080   6.822  0.1860  0.4419 -0.0992
  468MOL0     C61696  10.574   6.122   6.491  0.4904 -0.7953 -0.1835
  468MOL0     C61697  10.689   6.127   6.411  0.8387 -0.2453 -0.0794
  468MOL0     C61698  10.943   6.160   6.026 -1.2809  0.1680  0.6067
  468MOL0     C61699  10.970   6.189   5.891  0.5326 -0.1577 -0.9242
  468MOL0     C61700  11.092   6.164   5.830 -0.0628 -0.2196  0.6182
  468MOL0     C61701  11.192   6.099   5.897 -0.0652  0.7224  0.3348
  468MOL0     O61702  11.301   6.062   5.819  0.1388 -0.4217 -0.2064
  468MOL0     C61703  11.391   5.966   5.879 -0.2296  0.2046 -0.4122
  468MOL0     C61704  11.496   5.931   5.771  0.1615 -0.1838  0.6344
  468MOL0     C61705  11.584   6.050   5.728 -0.2821 -0.1310  0.6045
  468MOL0     C61706  11.740   6.019   5.703  1.1607  0.1245  0.0649
  468MOL0     C61707  11.747   5.938   5.584 -0.6550  0.1307 -0.0213
  468MOL0     C61708  11.756   5.858   5.494  0.1952 -0.7719 -0.2736
  468MOL0     C61709  11.162   6.061   6.027  1.1410 -0.1263  0.2998
  468MOL0     C61710  11.040   6.082   6.089  0.7552 -1.0722  0.0652
  468MOL0     H61711  10.531   6.214   6.120 -0.9839  1.4380  1.1634
  468MOL0     H61712  10.346   6.234   6.261  1.3682  0.3485 -3.1095
  468MOL0     H61713  10.253   6.326   6.454 -0.1504  0.7216  1.3915
  468MOL0     H61714  10.192   6.281   6.610 -1.3799 -0.1084 -0.4301
  468MOL0     H61715  10.136   6.077   6.396  1.6896 -0.0027  1.3580
  468MOL0     H61716  10.052   6.227   6.391  0.8131 -1.1877 -1.0741
  468MOL0     H61717  10.050   6.096   6.663  2.5298  4.3857  0.1632
  468MOL0     H61718   9.973   6.007   6.523  1.9378 -0.2731  0.5917
  468MOL0     H61719   9.908   6.285   6.621 -1.6693  0.7894  0.8990
  468MOL0     H61720   9.835   6.219   6.482  1.3680  2.8233  0.8853
  468MOL0     H61721   9.827   6.090   6.764 -1.1350 -0.9057  0.7012
  468MOL0     H61722   9.734   6.031   6.629 -0.6239  1.1368 -1.9175
  468MOL0     H61723   9.611   6.239   6.602  1.2221 -0.6675  0.0853
  468MOL0     H61724   9.690   6.312   6.747 -0.1487 -0.0462 -0.8119
  468MOL0     H61725   9.554   6.040   6.748  0.7311  1.3644 -3.0120
  468MOL0     H61726   9.580   6.138   6.883  0.4271  1.3988  0.2233
  468MOL0     H61727   9.384   6.189   6.661  3.1054  1.7259 -0.5393
  468MOL0     H61728   9.400   6.305   6.803 -0.1083  0.5333 -1.8974
  468MOL0     H61729   9.416   6.125   7.057  0.0875  2.7729 -1.5139
  468MOL0     H61730   9.260   6.054   7.233 -0.1186 -1.5255 -0.6786
  468MOL0     H61731   9.172   5.910   7.168 -1.8391 -0.7480 -1.8402
  468MOL0     H61732   9.015   6.174   7.179 -1.0843  1.6069  3.4657
  468MOL0     H61733   9.036   6.071   7.327 -1.3677  1.1240  0.0662
  468MOL0     H61734   8.936   5.943   7.066  1.7239 -2.4724  0.0772
  468MOL0     H61735   8.929   5.864   7.216 -0.0126 -1.1969 -2.8498
  468MOL0     H61736   8.718   5.953   7.148  0.2549  1.0846 -3.1953
  468MOL0     H61737   8.787   6.120   7.170 -1.5772  0.3039  0.8466
  468MOL0     H61738   8.575   6.148   7.207 -0.3661  2.1274 -0.7111
  468MOL0     H61739   8.355   6.222   7.305 -1.3532 -0.6440 -0.0585
  468MOL0     H61740   8.097   6.293   7.848  0.1189 -0.9788  0.9914
  468MOL0     H61741   7.866   6.300   7.900 -2.6492 -0.0811 -1.9515
  468MOL0     H61742   7.644   6.320   7.765 -2.5722  0.7411  0.7728
  468MOL0     H61743   7.666   6.313   7.942  4.6714 -1.0822 -0.7426
  468MOL0     H61744   7.454   6.164   7.921  0.1163 -1.7968 -2.0734
  468MOL0     H61745   7.451   6.205   7.755 -2.9884  1.4679  0.2027
  468MOL0     H61746   7.440   6.455   7.815 -0.7938  0.4934  0.5247
  468MOL0     H61747   7.418   6.414   7.983  1.0067  2.3495  0.5957
  468MOL0     H61748   7.262   6.291   7.746  4.3941 -0.1820  1.2903
  468MOL0     H61749   7.201   6.305   7.913 -1.4615  1.3373 -0.0612
  468MOL0     H61750   7.224   6.516   7.711 -1.5234 -0.8001 -1.0605
  468MOL0     H61751   7.201   6.564   7.862  1.8637 -0.5523 -1.6785
  468MOL0     H61752   6.983   6.406   7.886 -1.4954 -1.5666 -1.3039
  468MOL0     H61753   7.005   6.365   7.723  1.5123 -1.8299  1.2978
  468MOL0     H61754   6.970   6.656   7.824  4.1860  1.3801 -2.1874
  468MOL0     H61755   6.969   6.608   7.659 -0.9778  3.4666  0.9906
  468MOL0     H61756   6.769   6.455   7.689 -0.6974  1.7748 -0.0265
  468MOL0     H61757   6.747   6.629   7.694  2.2315  1.4227  0.1126
  468MOL0     H61758   7.790   5.979   7.617 -1.3005  1.1178  1.2955
  468MOL0     H61759   8.043   5.965   7.593 -0.0786 -0.0024  0.9971
  468MOL0     H61760   8.456   6.016   7.659  0.6270 -0.8021 -0.2543
  468MOL0     H61761   8.694   5.965   7.571  0.9896  0.7165  0.1819
  468MOL0     H61762  10.588   6.105   6.597 -0.3774 -1.5965 -0.1831
  468MOL0     H61763  10.781   6.089   6.454 -0.3253 -3.5375 -0.1544
  468MOL0     H61764  10.896   6.241   5.830  1.4468  2.0957 -0.2120
  468MOL0     H61765  11.093   6.199   5.728  1.2224 -2.5244 -0.2593
  468MOL0     H61766  11.331   5.880   5.910 -2.2818  1.2075 -1.3899
  468MOL0     H61767  11.438   6.025   5.958 -0.7067  1.0915 -0.7738
  468MOL0     H61768  11.557   5.846   5.802  0.5908 -0.5133 -1.0344
  468MOL0     H61769  11.445   5.893   5.682 -0.1419  0.9569  0.3084
  468MOL0     H61770  11.587   6.120   5.812  1.4578  1.2559 -0.5329
  468MOL0     H61771  11.540   6.111   5.648 -1.3291 -2.3343 -0.5941
  468MOL0     H61772  11.792   6.112   5.677 -0.9411  1.4028  0.1697
  468MOL0     H61773  11.790   5.978   5.790  4.3147  1.0719 -1.1472
  468MOL0     H61774  11.749   5.793   5.408 -0.8687 -0.2514 -0.6025
  468MOL0     H61775  11.240   6.010   6.083  1.7681 -1.1676 -1.4477
  468MOL0     H61776  11.032   6.060   6.195 -2.0119  1.4576  0.5217
  469MOL0     O61777   5.397   1.254   7.850  0.3325 -0.3095  0.8597
  469MOL0     C61778   5.444   1.263   7.734  0.2726 -0.8221 -0.5979
  469MOL0     O61779   5.376   1.260   7.619 -0.0138 -0.3849 -0.5365
  469MOL0     C61780   5.240   1.260   7.617  0.4379 -0.4192 -0.6624
  469MOL0     C61781   5.178   1.202   7.510 -0.0551  0.0787  0.1998
  469MOL0     C61782   5.041   1.198   7.490 -0.5073 -1.0640  0.1291
  469MOL0     C61783   4.958   1.267   7.590  0.2476  0.4657  0.4921
  469MOL0     O61784   4.819   1.252   7.582 -0.6560 -0.5923  0.9248
  469MOL0     C61785   4.732   1.348   7.642  0.1880 -0.4357  0.1531
  469MOL0     C61786   4.583   1.311   7.602  0.0020 -0.5783  0.0720
  469MOL0     C61787   4.489   1.417   7.662 -0.0211 -0.8048 -0.4827
  469MOL0     C61788   4.348   1.383   7.649  0.0570  0.2876  0.6973
  469MOL0     C61789   4.247   1.491   7.681  0.6484  0.3736 -0.6389
  469MOL0     C61790   4.108   1.442   7.658  0.9435 -0.0695 -0.3639
  469MOL0     C61791   4.002   1.553   7.658 -0.2506 -0.0394  0.3624
  469MOL0     C61792   3.941   1.578   7.803 -0.3335  0.3159  0.3282
  469MOL0     N61793   3.828   1.676   7.800  0.3443 -0.3480  0.0456
  469MOL0     C61794   3.843   1.814   7.825  0.8498 -0.6543  0.5201
  469MOL0     C61795   3.725   1.863   7.793 -0.0771 -0.5213  0.0518
  469MOL0     C61796   3.689   2.010   7.792 -0.0038 -0.2463 -0.1767
  469MOL0     C61797   3.536   2.010   7.763 -0.7261  0.2795  0.2634
  469MOL0     C61798   3.475   2.148   7.792  0.5848 -0.9193  0.4140
  469MOL0     C61799   3.327   2.174   7.762 -0.6414 -0.4102 -0.1839
  469MOL0     O61800   3.255   2.118   7.869  0.0066  0.3602  0.0996
  469MOL0     C61801   3.119   2.115   7.870  0.1811 -0.9957  0.0412
  469MOL0     C61802   3.061   2.050   7.980 -0.6265  0.0408  0.4092
  469MOL0     C61803   2.918   2.046   7.987 -0.3177 -0.1673 -0.0130
  469MOL0     C61804   2.838   2.104   7.889  1.1366  0.9044 -0.2374
  469MOL0     C61805   2.694   2.118   7.911  0.4002  0.3177 -0.2678
  469MOL0     O61806   2.646   2.117   8.040 -0.0792  0.4559  0.4192
  469MOL0     C61807   2.511   2.143   8.059 -0.7610 -0.1718  0.1178
  469MOL0     C61808   2.431   2.036   8.099 -0.3862 -0.0951  0.1085
  469MOL0     C61809   2.309   2.076   8.160 -0.0940 -0.3103  1.0296
  469MOL0     C61810   2.263   2.211   8.157  0.2351  0.5271 -0.1086
  469MOL0     O61811   2.147   2.250   8.210  0.4309  0.0943 -0.0506
  469MOL0     C61812   2.062   2.146   8.271 -0.1548 -0.0964 -0.5041
  469MOL0     C61813   1.919   2.196   8.290 -0.5023  0.6345  0.1065
  469MOL0     C61814   1.835   2.084   8.361 -0.5964 -0.2533 -0.0324
  469MOL0     C61815   1.698   2.138   8.374  0.5412  0.5496 -0.3969
  469MOL0     C61816   1.599   2.020   8.361 -0.3028  0.3631  0.2704
  469MOL0     C61817   1.458   2.047   8.378 -0.1652 -0.6774  0.8683
  469MOL0     C61818   1.414   2.103   8.511 -0.4286  0.1014 -0.3969
  469MOL0     C61819   1.264   2.108   8.517  0.6650  0.1198  0.4285
  469MOL0    Cl61820   1.181   2.213   8.400 -0.1256 -0.1695  0.3206
  469MOL0     C61821   2.350   2.319   8.124  0.3196 -0.5274  0.0574
  469MOL0     C61822   2.466   2.278   8.070 -0.2992 -0.0138 -0.0639
  469MOL0     O61823   2.624   2.151   7.812  0.4069 -0.5407  0.1125
  469MOL0     C61824   2.900   2.182   7.786  0.3989 -0.3052  0.5672
  469MOL0     C61825   3.037   2.187   7.777 -0.2610  0.0479 -0.3622
  469MOL0     N61826   3.639   1.762   7.746 -0.7772 -0.2224 -0.3016
  469MOL0     N61827   3.702   1.650   7.750 -0.0965 -0.5481 -0.4439
  469MOL0     C61828   5.021   1.317   7.702  0.0968 -0.1969 -0.0324
  469MOL0     C61829   5.156   1.329   7.717 -0.8627 -0.4990  0.4323
  469MOL0     C61830   5.591   1.278   7.726 -0.1457 -0.2465  0.0209
  469MOL0     C61831   5.663   1.310   7.840  0.4255  0.5346 -0.1537
  469MOL0     C61832   5.801   1.313   7.839  0.1013 -1.0548 -0.8777
  469MOL0     C61833   5.870   1.309   7.724  0.6590  0.3639 -0.0539
  469MOL0     O61834   6.003   1.342   7.713  0.5379 -0.0047 -0.2831
  469MOL0     C61835   6.084   1.341   7.833 -1.6434 -0.8547  0.1258
  469MOL0     C61836   6.109   1.196   7.881  0.1794  0.0282  0.0993
  469MOL0     C61837   6.167   1.108   7.766  0.4209  1.0358  0.6416
  469MOL0     C61838   6.288   1.154   7.691 -0.2826  0.3276  0.1737
  469MOL0     C61839   6.365   1.043   7.620 -0.1064 -0.7213  0.2467
  469MOL0     C61840   6.436   0.962   7.569  0.3598  0.0863  1.0485
  469MOL0     C61841   5.800   1.279   7.603 -1.0010  0.4919 -0.5256
  469MOL0     C61842   5.660   1.268   7.598 -1.2203  0.1356 -1.2027
  469MOL0     H61843   5.245   1.174   7.430 -1.0347  1.0330 -0.9853
  469MOL0     H61844   5.008   1.157   7.395  1.4631 -0.6759 -0.7658
  469MOL0     H61845   4.781   1.441   7.611  3.5240 -2.9609 -2.9893
  469MOL0     H61846   4.741   1.336   7.751  1.1645  0.2522  0.1580
  469MOL0     H61847   4.561   1.214   7.646  0.0671 -1.2446 -1.3193
  469MOL0     H61848   4.566   1.300   7.494 -0.7717 -2.7396  0.3777
  469MOL0     H61849   4.512   1.510   7.610  1.9525 -0.7772  0.3682
  469MOL0     H61850   4.512   1.428   7.769 -0.4124  0.1783 -0.4938
  469MOL0     H61851   4.332   1.361   7.543 -0.7751  2.1058  0.4186
  469MOL0     H61852   4.332   1.297   7.715 -0.9775  2.3765  3.3378
  469MOL0     H61853   4.266   1.582   7.623  3.9778  0.4762  0.4048
  469MOL0     H61854   4.253   1.520   7.786 -0.5616  2.6259 -1.1403
  469MOL0     H61855   4.064   1.362   7.718  0.5599  0.1587 -0.3319
  469MOL0     H61856   4.102   1.404   7.556 -0.2567  0.0418 -0.3590
  469MOL0     H61857   4.047   1.648   7.628 -1.6156  0.5352  0.0459
  469MOL0     H61858   3.926   1.519   7.587 -1.6624  1.9283  0.8360
  469MOL0     H61859   4.018   1.619   7.870  2.4028 -2.4235 -0.8806
  469MOL0     H61860   3.912   1.478   7.836  1.2253 -0.8075 -1.5159
  469MOL0     H61861   3.924   1.869   7.871  0.0527  2.2979 -1.3206
  469MOL0     H61862   3.741   2.062   7.711 -0.1203  0.9415  0.4937
  469MOL0     H61863   3.712   2.054   7.889  2.8865 -2.6200  0.3794
  469MOL0     H61864   3.484   1.935   7.823 -0.8834  0.3824  0.2553
  469MOL0     H61865   3.530   1.980   7.658 -0.7801 -1.5363  0.7564
  469MOL0     H61866   3.503   2.175   7.895  0.3082 -0.5824  0.4039
  469MOL0     H61867   3.520   2.226   7.730 -0.4306 -0.4797  0.2149
  469MOL0     H61868   3.303   2.129   7.665  0.1067  2.2637 -1.7043
  469MOL0     H61869   3.317   2.280   7.738 -0.2299 -0.8757 -2.7022
  469MOL0     H61870   3.128   2.000   8.049  1.4757 -1.0046 -2.2377
  469MOL0     H61871   2.876   1.989   8.069  1.7195 -2.4407 -0.3984
  469MOL0     H61872   2.469   1.934   8.093  1.1815  0.5270 -1.6263
  469MOL0     H61873   2.235   2.003   8.193 -1.3140 -0.0708 -1.0321
  469MOL0     H61874   2.107   2.113   8.365 -1.7363  0.5390  0.5157
  469MOL0     H61875   2.050   2.056   8.211 -2.8873 -2.0387  2.5739
  469MOL0     H61876   1.886   2.224   8.189 -1.0094 -3.4631 -1.0384
  469MOL0     H61877   1.920   2.286   8.352 -1.2756  1.2894 -0.7867
  469MOL0     H61878   1.870   2.060   8.462  1.3799  1.6110 -0.2067
  469MOL0     H61879   1.837   1.995   8.297  0.0842  0.1307 -0.5541
  469MOL0     H61880   1.686   2.185   8.472  2.6283 -0.2022  0.2753
  469MOL0     H61881   1.670   2.205   8.292 -2.0784 -1.4150 -1.2324
  469MOL0     H61882   1.612   1.938   8.432 -1.7643 -1.9559 -1.9606
  469MOL0     H61883   1.613   1.967   8.267 -0.1146 -0.2697  0.6460
  469MOL0     H61884   1.399   1.957   8.356  0.7856 -0.7829 -1.5308
  469MOL0     H61885   1.426   2.125   8.307  0.1974 -0.6973  0.6828
  469MOL0     H61886   1.456   2.045   8.595  0.0687  0.1856 -0.5812
  469MOL0     H61887   1.459   2.201   8.525  1.3186 -0.5738 -0.9449
  469MOL0     H61888   1.233   2.138   8.617 -0.1605  0.9159 -0.0487
  469MOL0     H61889   1.216   2.010   8.513 -0.8628  0.8157  0.8917
  469MOL0     H61890   2.306   2.418   8.130  2.0385  0.1934  3.8509
  469MOL0     H61891   2.537   2.354   8.039  1.4534 -0.7517  1.8877
  469MOL0     H61892   2.842   2.231   7.708 -1.2512 -2.6029  0.2580
  469MOL0     H61893   3.085   2.237   7.694  1.3095 -2.1043 -0.8225
  469MOL0     H61894   4.954   1.361   7.775  0.3177  1.9674 -1.0518
  469MOL0     H61895   5.188   1.375   7.810 -4.2407  0.7817  1.0883
  469MOL0     H61896   5.615   1.322   7.937  2.1741  0.8638  0.7224
  469MOL0     H61897   5.858   1.344   7.926  0.3581  0.4503 -1.5372
  469MOL0     H61898   6.049   1.418   7.902  2.2092 -0.5507  1.9771
  469MOL0     H61899   6.184   1.379   7.810 -1.7317  0.9211  2.3536
  469MOL0     H61900   6.188   1.191   7.957 -2.1485 -0.1078  2.6734
  469MOL0     H61901   6.018   1.162   7.933 -0.4134 -2.4019 -2.2755
  469MOL0     H61902   6.088   1.092   7.692 -0.1322  0.6001  1.3176
  469MOL0     H61903   6.185   1.011   7.814 -1.9202 -1.9442 -3.8589
  469MOL0     H61904   6.261   1.218   7.606  1.2653  1.0800  0.2143
  469MOL0     H61905   6.352   1.215   7.756 -1.1735  1.2231  0.2343
  469MOL0     H61906   6.502   0.904   7.507  0.3227  0.8957  0.2367
  469MOL0     H61907   5.853   1.261   7.510  0.8559 -1.7482  0.8525
  469MOL0     H61908   5.599   1.249   7.510 -0.3797  0.2821 -1.8212
  470MOL0     O61909   7.077   7.439   5.947  0.7070 -0.0489  0.0488
  470MOL0     C61910   7.154   7.353   5.898  0.0810 -0.2457  0.1012
  470MOL0     O61911   7.121   7.217   5.871 -0.0087 -0.3822 -0.1359
  470MOL0     C61912   6.991   7.169   5.870  0.7750  0.7030 -0.3562
  470MOL0     C61913   6.900   7.197   5.966 -0.0770 -0.5180 -1.3844
  470MOL0     C61914   6.774   7.143   5.971  0.8226 -0.4926 -0.3371
  470MOL0     C61915   6.727   7.055   5.876 -0.2409  0.0689 -1.4675
  470MOL0     O61916   6.597   7.002   5.875  0.0213 -0.7259  0.5851
  470MOL0     C61917   6.511   7.019   5.990 -0.0788 -0.0123  0.1185
  470MOL0     C61918   6.378   6.942   5.972  0.2725 -0.3920 -0.3077
  470MOL0     C61919   6.269   6.979   6.087  0.1078  0.2517 -0.3531
  470MOL0     C61920   6.131   6.916   6.041  0.3407  0.4799 -0.2455
  470MOL0     C61921   6.018   6.949   6.135 -0.9487 -0.0116 -0.5364
  470MOL0     C61922   5.909   6.844   6.154  0.5855 -0.3143  0.8594
  470MOL0     C61923   5.804   6.896   6.250 -0.7396 -0.0123  0.1552
  470MOL0     C61924   5.706   6.785   6.276 -0.5488 -0.3614  0.5691
  470MOL0     N61925   5.574   6.825   6.309  0.3526  0.4791 -0.7406
  470MOL0     C61926   5.494   6.765   6.402  0.3160  0.1135  0.1888
  470MOL0     C61927   5.375   6.823   6.387 -0.0130  0.8432 -0.3097
  470MOL0     C61928   5.260   6.799   6.472  0.2268 -0.3450 -0.6316
  470MOL0     C61929   5.168   6.921   6.496  0.6052 -0.1461  0.4206
  470MOL0     C61930   5.070   6.965   6.391 -0.5599 -0.1974 -0.9892
  470MOL0     C61931   4.984   6.853   6.344  0.0912  1.0456  0.8104
  470MOL0     O61932   4.913   6.794   6.457 -0.8615  0.1443  0.0178
  470MOL0     C61933   4.792   6.743   6.427 -0.0998  0.0663  0.0909
  470MOL0     C61934   4.727   6.725   6.306 -0.8898 -0.2093  0.1926
  470MOL0     C61935   4.597   6.678   6.291 -0.9620 -0.4045 -0.2141
  470MOL0     C61936   4.519   6.666   6.408  0.1917 -0.3602  0.2066
  470MOL0     C61937   4.384   6.615   6.386 -0.4555  0.1152  0.0956
  470MOL0     O61938   4.325   6.649   6.270 -0.4097 -0.0886 -0.5480
  470MOL0     C61939   4.187   6.627   6.253 -0.4296 -0.4853  0.7515
  470MOL0     C61940   4.140   6.602   6.122  0.0416  0.0489  0.1478
  470MOL0     C61941   4.010   6.586   6.091  0.1686 -0.7164 -0.4187
  470MOL0     C61942   3.907   6.596   6.188 -0.4282  0.3718  0.2790
  470MOL0     O61943   3.775   6.575   6.154  0.1786  1.2051 -0.3118
  470MOL0     C61944   3.669   6.590   6.254 -0.1777 -0.1780 -0.7605
  470MOL0     C61945   3.535   6.538   6.198  0.5374 -0.7428 -0.2792
  470MOL0     C61946   3.419   6.571   6.297 -0.3292 -0.7271  0.2394
  470MOL0     C61947   3.291   6.522   6.230  0.0713  0.4602  0.6122
  470MOL0     C61948   3.172   6.606   6.282 -0.1890  0.0332 -0.2720
  470MOL0     C61949   3.051   6.546   6.230 -0.8392 -0.3371 -0.3561
  470MOL0     C61950   2.935   6.638   6.225  0.1842 -0.4386 -1.2408
  470MOL0     C61951   2.809   6.594   6.307  0.1907  0.7429  0.2169
  470MOL0    Cl61952   2.685   6.714   6.313  0.1110 -0.4401  0.0950
  470MOL0     C61953   3.951   6.635   6.318 -0.6480 -0.8043 -0.4620
  470MOL0     C61954   4.086   6.648   6.346  0.0225 -0.2731  0.1343
  470MOL0     O61955   4.342   6.549   6.479  1.0427  0.1699  0.7435
  470MOL0     C61956   4.582   6.688   6.534  0.5002  0.3765  0.2300
  470MOL0     C61957   4.716   6.731   6.540  0.4507 -0.1245 -0.9001
  470MOL0     N61958   5.384   6.915   6.282 -0.1033 -0.4481  0.1713
  470MOL0     N61959   5.505   6.907   6.226 -0.0690 -0.5712 -0.2332
  470MOL0     C61960   6.829   7.003   5.793 -0.8201 -0.4805  0.9605
  470MOL0     C61961   6.960   7.061   5.784  0.9522  0.7557  0.0787
  470MOL0     C61962   7.290   7.395   5.842 -0.2398  0.4910  1.0754
  470MOL0     C61963   7.388   7.301   5.790 -0.4859  0.2214 -0.1051
  470MOL0     C61964   7.506   7.337   5.736 -0.4502  0.6452  0.3567
  470MOL0     C61965   7.539   7.471   5.725 -0.4642  0.3843 -0.2261
  470MOL0     O61966   7.654   7.523   5.659  0.0082 -0.4330 -0.2416
  470MOL0     C61967   7.748   7.436   5.606 -0.3292 -0.9310  0.3063
  470MOL0     C61968   7.887   7.492   5.651 -0.4852  0.4412  0.6310
  470MOL0     C61969   7.998   7.464   5.558  0.3239  0.0607  0.0030
  470MOL0     C61970   8.032   7.314   5.554 -0.2175 -0.3537  0.4416
  470MOL0     C61971   8.146   7.284   5.473 -0.5325  0.4028  0.6572
  470MOL0     C61972   8.252   7.263   5.412  0.1779  0.3280  0.1590
  470MOL0     C61973   7.445   7.562   5.779  0.2447  0.2666  1.8655
  470MOL0     C61974   7.318   7.531   5.830 -0.8090  0.1669  0.2867
  470MOL0     H61975   6.935   7.263   6.045 -1.8825 -2.1796  0.9613
  470MOL0     H61976   6.720   7.170   6.061  0.7302 -1.5944 -0.0514
  470MOL0     H61977   6.493   7.126   6.004 -0.9032 -0.3313  1.7245
  470MOL0     H61978   6.554   6.989   6.086 -3.2886 -0.1562  1.6501
  470MOL0     H61979   6.396   6.834   5.974 -0.3551 -0.5266 -1.2473
  470MOL0     H61980   6.328   6.971   5.879  0.5639  0.9156 -0.0691
  470MOL0     H61981   6.257   7.087   6.096 -0.7083  0.0239  2.0085
  470MOL0     H61982   6.298   6.928   6.180 -0.2948 -2.0735 -1.4142
  470MOL0     H61983   6.099   6.941   5.940 -0.5152 -0.0170 -0.1094
  470MOL0     H61984   6.153   6.810   6.053  0.5695  0.4355 -1.0220
  470MOL0     H61985   5.979   7.047   6.104  0.7058  0.1187 -2.4128
  470MOL0     H61986   6.067   6.966   6.231  1.2849  1.1219 -1.7837
  470MOL0     H61987   5.949   6.748   6.190  3.1684  0.0504 -0.7138
  470MOL0     H61988   5.869   6.826   6.053  1.9735  0.9885  0.0354
  470MOL0     H61989   5.849   6.939   6.341  2.3490  1.4921 -1.8862
  470MOL0     H61990   5.761   6.982   6.198  0.4506  0.2944 -0.3446
  470MOL0     H61991   5.751   6.705   6.335  1.5635 -0.1408 -0.6546
  470MOL0     H61992   5.702   6.735   6.178  1.2199 -1.1037  0.8443
  470MOL0     H61993   5.513   6.687   6.475  0.9147  0.2779  0.2141
  470MOL0     H61994   5.304   6.776   6.570  1.0611  3.0698 -0.0641
  470MOL0     H61995   5.202   6.711   6.442 -1.0433 -0.3986  1.6568
  470MOL0     H61996   5.235   7.004   6.522 -0.7136  0.6366  1.4541
  470MOL0     H61997   5.109   6.905   6.587 -1.5930  1.5157 -0.6215
  470MOL0     H61998   5.000   7.038   6.433  0.1492 -1.1452  2.0885
  470MOL0     H61999   5.109   7.022   6.306 -3.0519  3.7873  0.2840
  470MOL0     H62000   5.053   6.785   6.294  1.6982  1.8350  1.8824
  470MOL0     H62001   4.912   6.886   6.268 -0.8868 -0.1474  1.1889
  470MOL0     H62002   4.779   6.740   6.211 -2.5382  0.1949 -0.6897
  470MOL0     H62003   4.554   6.656   6.193  0.1101 -0.6639 -0.6475
  470MOL0     H62004   4.213   6.584   6.044  0.0650 -0.7768  0.3497
  470MOL0     H62005   3.997   6.555   5.988  2.2866  3.8890 -2.3637
  470MOL0     H62006   3.656   6.698   6.258 -0.3690 -0.2410  0.9551
  470MOL0     H62007   3.695   6.538   6.347  1.6691  1.2975 -0.4007
  470MOL0     H62008   3.537   6.429   6.195 -0.2190 -0.7526 -0.6657
  470MOL0     H62009   3.507   6.576   6.099 -1.2678 -1.5559 -0.1058
  470MOL0     H62010   3.419   6.680   6.313  1.0236 -0.7407  0.5234
  470MOL0     H62011   3.437   6.529   6.397 -0.5003 -1.1001  0.1136
  470MOL0     H62012   3.290   6.540   6.122 -4.5572  1.6270  0.6344
  470MOL0     H62013   3.276   6.418   6.263  1.0151  0.7953  2.2153
  470MOL0     H62014   3.190   6.710   6.252 -1.2524  0.9428  2.0358
  470MOL0     H62015   3.174   6.613   6.391  2.3245 -1.4136 -0.1637
  470MOL0     H62016   3.031   6.459   6.293  1.7531 -0.6359  0.1336
  470MOL0     H62017   3.081   6.512   6.131  2.8779  0.7980  0.2451
  470MOL0     H62018   2.970   6.737   6.258  0.1765 -0.2228 -1.8618
  470MOL0     H62019   2.915   6.649   6.118  1.1954 -1.3842 -1.5498
  470MOL0     H62020   2.828   6.561   6.410 -2.7411 -1.6839  0.0900
  470MOL0     H62021   2.784   6.506   6.248  1.2059 -0.7671  1.9066
  470MOL0     H62022   3.880   6.658   6.396 -1.8708 -0.4466 -1.6468
  470MOL0     H62023   4.122   6.678   6.444  0.7858  2.1192 -0.8011
  470MOL0     H62024   4.513   6.676   6.617  0.1160  0.2343 -0.1088
  470MOL0     H62025   4.754   6.760   6.637 -0.7300  0.0292 -0.4678
  470MOL0     H62026   6.808   6.923   5.722 -1.5498  1.4239 -1.0816
  470MOL0     H62027   7.030   7.016   5.715 -2.6438 -1.5316 -2.4037
  470MOL0     H62028   7.358   7.197   5.785 -2.8081  0.8092  0.3326
  470MOL0     H62029   7.572   7.260   5.697  0.4193  0.4653  2.1075
  470MOL0     H62030   7.745   7.441   5.497  0.1233 -1.4761  0.2640
  470MOL0     H62031   7.745   7.331   5.636  3.0103 -2.5202 -3.8049
  470MOL0     H62032   7.884   7.600   5.666 -1.1819  0.6667 -1.0263
  470MOL0     H62033   7.911   7.436   5.742 -1.3327  0.4479  0.8654
  470MOL0     H62034   8.081   7.524   5.597  0.3362 -0.2378  0.4419
  470MOL0     H62035   7.977   7.498   5.456  0.8923  2.5827  0.6602
  470MOL0     H62036   8.061   7.271   5.650 -0.1091 -0.6629  0.2726
  470MOL0     H62037   7.940   7.267   5.518 -0.0379 -0.6064  0.3075
  470MOL0     H62038   8.347   7.273   5.363  0.9679  0.5725  1.6944
  470MOL0     H62039   7.473   7.667   5.779 -0.6353  0.5345 -0.0119
  470MOL0     H62040   7.259   7.604   5.885  0.8551  0.9167  1.1307
  471MOL0     O62041   7.675   2.407   5.778 -0.1027 -0.3307  0.2107
  471MOL0     C62042   7.641   2.402   5.659  0.3555 -0.3990 -0.3903
  471MOL0     O62043   7.732   2.414   5.552  0.3747  0.0465  0.3089
  471MOL0     C62044   7.868   2.398   5.575  0.5555 -0.8166 -0.2797
  471MOL0     C62045   7.957   2.494   5.517  0.0611  0.1119 -0.7421
  471MOL0     C62046   8.098   2.487   5.536 -0.0289 -0.3552 -0.2180
  471MOL0     C62047   8.151   2.371   5.603 -0.2644 -0.0987 -0.6202
  471MOL0     O62048   8.290   2.362   5.639  0.9711  0.1135  0.4301
  471MOL0     C62049   8.378   2.425   5.542  0.8687 -0.4744  0.5588
  471MOL0     C62050   8.519   2.383   5.559 -0.2358  0.1247  0.2959
  471MOL0     C62051   8.615   2.450   5.460 -0.5233  0.7123 -0.0872
  471MOL0     C62052   8.752   2.377   5.458 -0.2340  0.0023 -0.2139
  471MOL0     C62053   8.832   2.401   5.588 -0.9729  0.2418  0.1797
  471MOL0     C62054   8.964   2.323   5.576  0.4109  0.6969  0.2121
  471MOL0     C62055   9.067   2.374   5.669  0.8966  0.0874  0.0303
  471MOL0     C62056   9.060   2.308   5.812  0.3065  0.4828 -0.0663
  471MOL0     N62057   9.067   2.163   5.810 -0.4967 -0.3894 -0.0505
  471MOL0     C62058   8.948   2.088   5.817 -0.1476 -0.2911  0.0752
  471MOL0     C62059   8.990   1.963   5.854  0.7499  0.3820  0.4443
  471MOL0     C62060   8.913   1.840   5.875 -0.8295 -0.1076  0.8706
  471MOL0     C62061   8.785   1.857   5.945  0.2967 -0.6029  0.3694
  471MOL0     C62062   8.687   1.965   5.879  0.3309  0.1795 -0.0078
  471MOL0     C62063   8.546   1.942   5.909  0.9904  0.6336 -0.2699
  471MOL0     O62064   8.475   1.869   5.809  0.1656 -0.3542  0.0612
  471MOL0     C62065   8.342   1.861   5.824 -0.1805 -0.0941 -0.0258
  471MOL0     C62066   8.266   1.924   5.920 -0.5674  0.1714  0.3506
  471MOL0     C62067   8.137   1.891   5.931  0.2831 -0.4606 -0.5880
  471MOL0     C62068   8.071   1.794   5.845  0.2048 -0.8446 -0.5391
  471MOL0     C62069   7.924   1.774   5.852  1.6032  0.7389 -0.9857
  471MOL0     O62070   7.864   1.665   5.791 -0.1353 -0.2355 -0.3186
  471MOL0     C62071   7.734   1.642   5.812 -0.3936 -0.4753  0.8832
  471MOL0     C62072   7.682   1.617   5.938  1.4748  0.8560 -0.3450
  471MOL0     C62073   7.539   1.597   5.956 -0.4750  0.3946 -0.0240
  471MOL0     C62074   7.453   1.588   5.843 -0.4347 -0.3118 -0.9565
  471MOL0     O62075   7.314   1.558   5.859 -0.2935  0.4107 -0.0411
  471MOL0     C62076   7.264   1.549   5.995  0.3920  0.3266  0.5483
  471MOL0     C62077   7.121   1.508   5.983  0.4736 -0.6528 -0.4402
  471MOL0     C62078   7.041   1.616   5.901 -0.0958  0.2748  0.0061
  471MOL0     C62079   6.889   1.608   5.920 -0.8789  0.0307 -0.3646
  471MOL0     C62080   6.826   1.491   5.856  0.2220  1.0978  0.4296
  471MOL0     C62081   6.669   1.502   5.870  0.5673  0.1732 -0.5053
  471MOL0     C62082   6.600   1.363   5.860 -0.4132 -0.5651 -0.5083
  471MOL0     C62083   6.564   1.313   6.000 -0.1856 -0.5204  0.5983
  471MOL0    Cl62084   6.417   1.409   6.056 -0.1178 -0.5195 -0.3078
  471MOL0     C62085   7.512   1.598   5.716  0.1166 -0.0037 -0.8802
  471MOL0     C62086   7.649   1.621   5.695  0.5387  0.0042 -0.1986
  471MOL0     O62087   7.862   1.861   5.923  0.6485 -0.5155  0.4038
  471MOL0     C62088   8.146   1.741   5.745 -0.8502 -0.1840  0.2934
  471MOL0     C62089   8.279   1.772   5.736 -0.8124  0.6342  0.4425
  471MOL0     N62090   9.128   1.972   5.871  0.1670 -0.0180  0.5960
  471MOL0     N62091   9.170   2.094   5.854  0.6910  0.8017 -0.5357
  471MOL0     C62092   8.062   2.279   5.653  0.0032 -0.3947 -0.0449
  471MOL0     C62093   7.923   2.286   5.635 -0.0246  0.4298 -0.7384
  471MOL0     C62094   7.501   2.378   5.622 -0.7754  0.3304  0.3689
  471MOL0     C62095   7.449   2.384   5.495 -0.0159 -0.0463 -0.1538
  471MOL0     C62096   7.314   2.376   5.464  0.4321  0.7355  0.0149
  471MOL0     C62097   7.226   2.365   5.567 -0.7220  0.5265 -0.1867
  471MOL0     O62098   7.090   2.357   5.553  0.4639 -0.9037  0.8108
  471MOL0     C62099   7.031   2.384   5.420 -0.3469  0.0412 -0.2041
  471MOL0     C62100   6.889   2.422   5.450 -0.2222  1.2176  0.1756
  471MOL0     C62101   6.803   2.301   5.479 -0.4894 -0.1150 -0.0629
  471MOL0     C62102   6.670   2.349   5.557  0.4306 -0.2112 -0.4051
  471MOL0     C62103   6.571   2.243   5.597  0.0515  0.3563 -0.2785
  471MOL0     C62104   6.501   2.149   5.627 -0.2390  0.3483 -0.6402
  471MOL0     C62105   7.274   2.334   5.695  0.2827  0.4348  0.4453
  471MOL0     C62106   7.414   2.340   5.718 -0.1879  0.2865  0.2890
  471MOL0     H62107   7.907   2.582   5.477  0.7888 -0.2680 -2.5725
  471MOL0     H62108   8.161   2.570   5.507  0.6346 -0.8157 -0.1053
  471MOL0     H62109   8.383   2.534   5.546 -0.1624 -0.3857 -0.2103
  471MOL0     H62110   8.339   2.402   5.443 -0.7459 -0.7793  1.2342
  471MOL0     H62111   8.527   2.274   5.558 -2.4987 -0.0880 -0.6868
  471MOL0     H62112   8.541   2.420   5.660 -1.3155 -0.1440  0.6438
  471MOL0     H62113   8.639   2.551   5.496  0.6956  0.6100 -0.5705
  471MOL0     H62114   8.578   2.449   5.358  1.2986  1.6423 -0.8155
  471MOL0     H62115   8.745   2.269   5.443 -1.4706  0.2851 -2.0025
  471MOL0     H62116   8.795   2.408   5.362  2.0689 -0.7757  0.5003
  471MOL0     H62117   8.771   2.363   5.671 -0.8164 -1.4063 -0.4389
  471MOL0     H62118   8.847   2.509   5.598 -0.5977  0.2170 -0.1423
  471MOL0     H62119   8.993   2.346   5.473  0.6936  0.3751  0.2196
  471MOL0     H62120   8.952   2.214   5.582  2.5993  0.3601 -0.7521
  471MOL0     H62121   9.168   2.354   5.631  1.6550  2.3371  0.6713
  471MOL0     H62122   9.061   2.483   5.666  1.9478  0.1373 -1.1375
  471MOL0     H62123   8.965   2.332   5.859 -1.7979 -1.6383 -2.8943
  471MOL0     H62124   9.150   2.351   5.858  0.9675  2.9042 -3.2615
  471MOL0     H62125   8.853   2.131   5.786  0.1850  1.0102  0.8051
  471MOL0     H62126   8.975   1.771   5.933  3.7443  1.3807 -1.6716
  471MOL0     H62127   8.901   1.785   5.781 -4.3444  0.1424  1.0465
  471MOL0     H62128   8.802   1.877   6.051  0.6150  2.3990 -0.1575
  471MOL0     H62129   8.734   1.761   5.934 -1.6718  0.5246 -1.0284
  471MOL0     H62130   8.710   2.058   5.931  2.3283 -0.2277 -0.0877
  471MOL0     H62131   8.698   1.978   5.771 -0.7309 -0.6008 -0.2271
  471MOL0     H62132   8.499   2.041   5.904 -3.7503 -1.3283  0.1539
  471MOL0     H62133   8.537   1.898   6.009  3.4935 -0.6769 -0.5391
  471MOL0     H62134   8.314   2.009   5.969  0.7752  0.2108 -0.9836
  471MOL0     H62135   8.094   1.950   6.011  0.1715 -0.1304 -0.8906
  471MOL0     H62136   7.745   1.619   6.025  1.1997 -1.5051 -0.0168
  471MOL0     H62137   7.517   1.579   6.060  0.7442 -1.9996 -0.0938
  471MOL0     H62138   7.272   1.640   6.057 -1.8647 -1.9914  4.7464
  471MOL0     H62139   7.306   1.467   6.054 -0.7930 -1.9875 -1.6720
  471MOL0     H62140   7.086   1.492   6.085 -0.8866 -1.6187 -1.0228
  471MOL0     H62141   7.107   1.412   5.932 -1.4205 -0.8788  0.4376
  471MOL0     H62142   7.061   1.599   5.794 -0.7902  1.4887 -0.3278
  471MOL0     H62143   7.075   1.718   5.919 -0.2444  0.3703 -0.2412
  471MOL0     H62144   6.870   1.618   6.027 -0.8117  1.7100 -0.4835
  471MOL0     H62145   6.846   1.700   5.879 -3.9117  0.1008  2.4974
  471MOL0     H62146   6.858   1.398   5.903 -3.4164 -0.2186  0.6031
  471MOL0     H62147   6.856   1.482   5.751 -1.8521 -2.5910 -0.0024
  471MOL0     H62148   6.627   1.568   5.793 -0.1366  0.0684 -0.2174
  471MOL0     H62149   6.636   1.553   5.960  1.6959  0.9797 -0.5297
  471MOL0     H62150   6.503   1.357   5.808 -1.1347  0.7467  0.6251
  471MOL0     H62151   6.662   1.294   5.802 -0.4071  1.5356 -3.1819
  471MOL0     H62152   6.649   1.309   6.069  0.4657 -1.0318 -0.2133
  471MOL0     H62153   6.527   1.211   5.986  1.0943 -0.9546  0.2218
  471MOL0     H62154   7.439   1.586   5.636 -1.0375  0.7237  0.0272
  471MOL0     H62155   7.688   1.622   5.594 -0.3440 -0.0384 -0.5465
  471MOL0     H62156   8.105   1.672   5.672  0.6011  0.1091 -0.8407
  471MOL0     H62157   8.346   1.721   5.668 -0.4061  0.5732  0.8822
  471MOL0     H62158   8.092   2.194   5.714  1.7108 -0.0021 -0.3022
  471MOL0     H62159   7.850   2.212   5.667 -1.7944  1.1616 -2.8325
  471MOL0     H62160   7.526   2.403   5.421  0.3888  2.0396  0.7570
  471MOL0     H62161   7.298   2.403   5.360  2.0539 -0.5824 -0.6206
  471MOL0     H62162   7.031   2.300   5.350  1.4157 -0.3815  0.2475
  471MOL0     H62163   7.073   2.478   5.385  1.6197 -0.2948  1.0890
  471MOL0     H62164   6.900   2.481   5.541  1.3715 -0.8188  1.4004
  471MOL0     H62165   6.845   2.483   5.370 -3.1444  1.2766  1.6677
  471MOL0     H62166   6.856   2.233   5.545 -0.7947 -3.1362 -2.6802
  471MOL0     H62167   6.775   2.243   5.390 -1.2118 -2.0490  1.3785
  471MOL0     H62168   6.706   2.385   5.654  0.5295 -1.6578  0.1193
  471MOL0     H62169   6.624   2.434   5.505  2.1773  2.4525  2.0711
  471MOL0     H62170   6.434   2.073   5.663  0.5007 -0.1879 -0.3617
  471MOL0     H62171   7.196   2.306   5.765  0.0616 -2.7981 -0.9171
  471MOL0     H62172   7.446   2.317   5.819 -0.5575 -0.0483  0.3338
  472MOL0     O62173   1.298   5.979   8.165 -0.0364 -0.6874  0.0905
  472MOL0     C62174   1.279   6.099   8.183  0.8482 -0.3291  0.2320
  472MOL0     O62175   1.370   6.190   8.169 -0.1936 -0.3061  0.2188
  472MOL0     C62176   1.501   6.163   8.128 -0.3865 -0.2620 -0.1263
  472MOL0     C62177   1.596   6.269   8.156 -0.4824  0.2551 -0.4068
  472MOL0     C62178   1.729   6.260   8.119 -0.4506  0.0282 -0.5752
  472MOL0     C62179   1.773   6.149   8.040  0.6299 -0.2523 -0.1081
  472MOL0     O62180   1.903   6.134   8.015  0.4347  0.3053  0.6620
  472MOL0     C62181   1.945   6.090   7.886 -0.2982  1.0387  0.7362
  472MOL0     C62182   2.031   5.968   7.890  0.5385  0.2881 -0.4124
  472MOL0     C62183   2.112   5.956   8.015  0.0315  0.0946  0.3534
  472MOL0     C62184   2.198   5.833   8.010 -0.2663  0.0979  0.5779
  472MOL0     C62185   2.256   5.807   8.148  0.0367  0.1459 -0.4059
  472MOL0     C62186   2.358   5.686   8.139  0.1474 -1.1761 -0.5002
  472MOL0     C62187   2.438   5.668   8.271 -0.3444  0.0943  0.0731
  472MOL0     C62188   2.524   5.535   8.249  0.4495 -0.3716 -0.2766
  472MOL0     N62189   2.449   5.415   8.214  0.2630  0.3554 -0.5108
  472MOL0     C62190   2.352   5.367   8.299  0.1800  0.3150  0.4917
  472MOL0     C62191   2.344   5.229   8.261  0.4833  0.2402  0.3304
  472MOL0     C62192   2.262   5.127   8.336  0.6018  0.5721  0.5494
  472MOL0     C62193   2.119   5.166   8.343  0.5502 -0.5157  0.0361
  472MOL0     C62194   2.053   5.152   8.206 -0.0688  0.0768 -0.2116
  472MOL0     C62195   1.900   5.185   8.221  0.2398  0.0647 -0.0529
  472MOL0     O62196   1.825   5.121   8.113  0.2384  0.1066  0.2545
  472MOL0     C62197   1.697   5.085   8.139 -0.1077  0.6230 -1.0544
  472MOL0     C62198   1.613   5.167   8.211 -0.3481 -0.3565  0.5137
  472MOL0     C62199   1.482   5.120   8.236  0.6531 -0.3194  0.3960
  472MOL0     C62200   1.446   4.989   8.213 -0.4425 -0.1737  0.1497
  472MOL0     C62201   1.316   4.936   8.272 -0.8401 -0.1663  0.0050
  472MOL0     O62202   1.300   4.801   8.281 -0.6070 -0.6188  0.5456
  472MOL0     C62203   1.176   4.748   8.313  0.7904 -0.1704  0.3443
  472MOL0     C62204   1.042   4.799   8.284  0.5481  0.1077  0.2405
  472MOL0     C62205   0.927   4.742   8.340  0.3820  0.2919  0.8882
  472MOL0     C62206   0.932   4.624   8.416 -1.4575 -0.1366  0.6330
  472MOL0     O62207   0.816   4.567   8.467 -0.3117  0.1742  0.2234
  472MOL0     C62208   0.822   4.430   8.508  0.2360  0.7452 -0.1769
  472MOL0     C62209   0.687   4.385   8.566 -0.1630  0.6310  0.6458
  472MOL0     C62210   0.647   4.464   8.699 -0.7866  0.0505  0.2513
  472MOL0     C62211   0.512   4.414   8.737 -0.3011  0.4030 -1.6153
  472MOL0     C62212   0.457   4.479   8.863 -0.1996  1.1693 -0.1685
  472MOL0     C62213   0.338   4.410   8.930  0.0016 -0.3845 -0.5310
  472MOL0     C62214   0.205   4.416   8.854  0.3743 -0.2918  0.1172
  472MOL0     C62215   0.083   4.397   8.936 -0.0831 -0.0527  0.1416
  472MOL0    Cl62216  -0.067   4.399   8.843  0.0204  0.1067 -0.3112
  472MOL0     C62217   1.061   4.570   8.444  0.2442 -0.0676  0.6457
  472MOL0     C62218   1.171   4.636   8.400 -0.4100  0.2433  0.0103
  472MOL0     O62219   1.231   5.019   8.287  0.1577 -1.1985 -0.3329
  472MOL0     C62220   1.528   4.907   8.144  0.3006  0.9309  0.5534
  472MOL0     C62221   1.663   4.951   8.118 -0.4456 -0.4635  0.9226
  472MOL0     N62222   2.420   5.212   8.146 -0.0085  0.7262 -0.0189
  472MOL0     N62223   2.474   5.320   8.118  0.5162  0.1793  0.1654
  472MOL0     C62224   1.682   6.043   8.007 -0.5245 -0.7009 -0.5460
  472MOL0     C62225   1.555   6.050   8.056  0.6924  0.5934 -0.2209
  472MOL0     C62226   1.138   6.144   8.225  0.4863  0.8322  0.8454
  472MOL0     C62227   1.025   6.057   8.207  0.1163 -0.0017  0.2256
  472MOL0     C62228   0.896   6.085   8.254  0.4762  0.0914 -0.0677
  472MOL0     C62229   0.871   6.206   8.323  0.3049 -0.0489  0.1552
  472MOL0     O62230   0.745   6.232   8.366  0.3394  0.0258  0.3490
  472MOL0     C62231   0.704   6.373   8.374  0.2903  0.5945  0.0644
  472MOL0     C62232   0.555   6.400   8.385 -0.1499  0.6459 -0.2245
  472MOL0     C62233   0.473   6.336   8.275 -0.3171 -0.0919 -1.2342
  472MOL0     C62234   0.324   6.359   8.298  0.1406  0.0814 -0.4974
  472MOL0     C62235   0.237   6.260   8.244 -0.9911 -0.2913  0.2401
  472MOL0     C62236   0.171   6.161   8.221  0.1730  0.6284 -0.2663
  472MOL0     C62237   0.976   6.301   8.333  0.0306  0.2384 -0.1575
  472MOL0     C62238   1.113   6.262   8.292 -0.6414  0.1935  0.3457
  472MOL0     H62239   1.551   6.356   8.203  4.0677  2.2707  0.7339
  472MOL0     H62240   1.796   6.336   8.156 -0.1112 -0.3873 -0.3212
  472MOL0     H62241   2.006   6.172   7.847  0.3440 -0.0718 -0.6771
  472MOL0     H62242   1.864   6.073   7.815 -0.2212  1.4132  0.5588
  472MOL0     H62243   2.094   5.955   7.802 -2.2945 -2.3669 -2.2317
  472MOL0     H62244   1.963   5.883   7.889  0.6211  0.0300  2.8495
  472MOL0     H62245   2.032   5.932   8.086  0.3838 -2.5253 -0.0365
  472MOL0     H62246   2.176   6.039   8.044  1.7333 -1.9814  3.0259
  472MOL0     H62247   2.149   5.746   7.964 -0.6961  1.3705 -1.5117
  472MOL0     H62248   2.281   5.839   7.939 -0.3151 -0.5633  0.4574
  472MOL0     H62249   2.169   5.789   8.211  1.1470  1.5087  1.6216
  472MOL0     H62250   2.304   5.896   8.189 -0.5270  1.0955 -1.7221
  472MOL0     H62251   2.423   5.697   8.052  0.9508  0.7498  0.2740
  472MOL0     H62252   2.303   5.593   8.124 -0.4593 -1.7552  3.8896
  472MOL0     H62253   2.493   5.755   8.306  2.9292 -2.6686  2.4465
  472MOL0     H62254   2.366   5.650   8.352  0.4687 -0.9598  0.5941
  472MOL0     H62255   2.569   5.512   8.346 -2.4440  1.0635  1.5424
  472MOL0     H62256   2.595   5.552   8.168 -0.4023  0.9106 -0.7970
  472MOL0     H62257   2.315   5.421   8.386 -1.9660 -0.8981  0.4010
  472MOL0     H62258   2.293   5.123   8.441  0.5596  0.7474  0.5691
  472MOL0     H62259   2.268   5.026   8.294 -1.6982  0.7249 -0.2948
  472MOL0     H62260   2.099   5.268   8.375 -0.6066 -0.7025 -0.0771
  472MOL0     H62261   2.061   5.095   8.403  0.9883 -0.0220  1.0782
  472MOL0     H62262   2.098   5.223   8.137 -0.5595  1.6321  1.0029
  472MOL0     H62263   2.056   5.050   8.166 -0.1615 -0.4130  0.9671
  472MOL0     H62264   1.880   5.293   8.229 -0.0414 -0.0906  2.2561
  472MOL0     H62265   1.867   5.140   8.315  0.3829 -2.2888 -1.0616
  472MOL0     H62266   1.637   5.269   8.239 -0.3534 -0.1067 -0.3371
  472MOL0     H62267   1.418   5.191   8.287 -0.0482 -2.0845  2.1240
  472MOL0     H62268   1.039   4.893   8.230  1.9326  0.8011  1.3184
  472MOL0     H62269   0.834   4.792   8.316  1.9209  2.4569 -0.9591
  472MOL0     H62270   0.894   4.423   8.590  0.3303 -0.4865 -0.3503
  472MOL0     H62271   0.860   4.367   8.427 -0.6933 -0.8909  0.6245
  472MOL0     H62272   0.670   4.277   8.568 -2.4230  0.7873 -2.3823
  472MOL0     H62273   0.615   4.415   8.489 -1.3277 -2.4177  0.4221
  472MOL0     H62274   0.646   4.572   8.685 -2.9360  0.1384  0.8087
  472MOL0     H62275   0.721   4.443   8.776 -1.2489  4.4207  2.1844
  472MOL0     H62276   0.435   4.443   8.665 -0.7923 -0.0956 -1.3019
  472MOL0     H62277   0.503   4.305   8.751 -3.7096  0.9324  2.0104
  472MOL0     H62278   0.429   4.583   8.843 -0.5555  1.1411  0.1534
  472MOL0     H62279   0.544   4.494   8.928  1.0556 -0.7419 -1.3163
  472MOL0     H62280   0.325   4.445   9.033 -4.4755 -1.3593 -0.5816
  472MOL0     H62281   0.355   4.302   8.938 -1.4752 -0.5447  1.1156
  472MOL0     H62282   0.203   4.515   8.806  2.0706  0.7175  1.9860
  472MOL0     H62283   0.199   4.340   8.776 -0.5371 -2.1324  1.8947
  472MOL0     H62284   0.085   4.471   9.016  0.9996  0.2686 -0.1759
  472MOL0     H62285   0.091   4.297   8.981  1.5410  0.2648  0.6330
  472MOL0     H62286   1.072   4.483   8.509  1.6277  0.8241  1.6790
  472MOL0     H62287   1.257   4.577   8.431 -0.8839 -1.1453 -1.2206
  472MOL0     H62288   1.495   4.809   8.113  0.8999  0.4217  1.4728
  472MOL0     H62289   1.733   4.888   8.063 -0.8556 -0.8204  0.8054
  472MOL0     H62290   1.703   5.946   7.963 -0.5797 -1.2648  0.6267
  472MOL0     H62291   1.485   5.974   8.022  3.5979 -2.2991 -0.2044
  472MOL0     H62292   1.043   5.960   8.162  1.4106 -0.1792  1.0909
  472MOL0     H62293   0.816   6.015   8.232  1.4045 -2.0458  2.7292
  472MOL0     H62294   0.732   6.435   8.288 -2.7233  1.3708 -0.4819
  472MOL0     H62295   0.740   6.427   8.461 -0.7197  0.0735  0.8370
  472MOL0     H62296   0.520   6.361   8.481 -0.6790 -2.6778 -1.6190
  472MOL0     H62297   0.547   6.509   8.381  0.9932  0.7674  0.3519
  472MOL0     H62298   0.494   6.229   8.264  0.4410 -0.1281  0.3715
  472MOL0     H62299   0.501   6.393   8.185  0.1475  0.3553 -0.8151
  472MOL0     H62300   0.299   6.364   8.405  1.1807  0.3679 -0.2616
  472MOL0     H62301   0.302   6.456   8.252  1.0745  0.1408 -0.8364
  472MOL0     H62302   0.133   6.062   8.202  0.4676  0.0290  1.9869
  472MOL0     H62303   0.966   6.399   8.379  1.8533  0.6957 -0.6479
  472MOL0     H62304   1.190   6.335   8.315 -1.4776  0.6639  1.7316
  473MOL0     O62305   1.734   3.076   5.927  0.2408  0.4278 -0.1551
  473MOL0     C62306   1.826   3.000   5.901 -0.0206  0.7583 -0.4267
  473MOL0     O62307   1.802   2.863   5.860 -0.0062 -0.4150 -0.4097
  473MOL0     C62308   1.681   2.822   5.909  0.0152  0.1463  0.2922
  473MOL0     C62309   1.586   2.782   5.815  0.0247 -0.3161 -0.3525
  473MOL0     C62310   1.454   2.753   5.858 -0.5259 -0.5476  0.1370
  473MOL0     C62311   1.424   2.754   5.989  0.1551  0.6403 -0.3785
  473MOL0     O62312   1.295   2.721   6.028  0.1541 -0.4817  0.1896
  473MOL0     C62313   1.243   2.726   6.160 -0.5584 -0.2949  0.2226
  473MOL0     C62314   1.263   2.589   6.223 -0.7821  0.4384  0.8730
  473MOL0     C62315   1.160   2.492   6.176  0.0820 -0.4020 -0.0693
  473MOL0     C62316   1.024   2.512   6.229  0.1416  0.0846 -0.7842
  473MOL0     C62317   0.942   2.386   6.218  0.4195 -0.4476 -0.2672
  473MOL0     C62318   0.911   2.340   6.077  0.1534 -0.6648  0.2361
  473MOL0     C62319   0.860   2.436   5.969 -0.5859  0.6698  0.2409
  473MOL0     C62320   0.823   2.370   5.836  0.0958 -0.3629  0.2576
  473MOL0     N62321   0.703   2.286   5.856 -0.4086  0.0061 -0.5765
  473MOL0     C62322   0.578   2.333   5.862  1.0312 -0.0668  0.5884
  473MOL0     C62323   0.496   2.226   5.892 -0.0782  0.4864 -0.0396
  473MOL0     C62324   0.343   2.228   5.918 -0.0171  0.2908 -0.4214
  473MOL0     C62325   0.262   2.249   5.785 -0.6711  0.0059  0.1258
  473MOL0     C62326   0.109   2.224   5.806  0.6333 -0.5519 -0.4359
  473MOL0     C62327   0.047   2.146   5.694 -0.2338  0.3690 -0.6429
  473MOL0     O62328   0.062   2.219   5.572  0.3304  0.3716  0.9490
  473MOL0     C62329  -0.054   2.253   5.506  1.0005 -0.1113 -0.5381
  473MOL0     C62330  -0.085   2.224   5.372 -0.0521  0.5422 -0.3814
  473MOL0     C62331  -0.199   2.279   5.317 -0.3928 -0.0071  0.4772
  473MOL0     C62332  -0.285   2.365   5.393 -1.0151  0.0169 -0.7935
  473MOL0     C62333  -0.391   2.441   5.317  0.2683  1.1379  0.4912
  473MOL0     O62334  -0.431   2.409   5.189 -0.2342 -0.2760 -0.4627
  473MOL0     C62335  -0.517   2.495   5.130 -0.5733  0.7832 -0.4647
  473MOL0     C62336  -0.467   2.611   5.072  0.0212 -0.2316  0.5275
  473MOL0     C62337  -0.552   2.709   5.025  0.2330 -0.3062 -0.2926
  473MOL0     C62338  -0.690   2.675   5.006  0.3310  0.6436 -0.1209
  473MOL0     O62339  -0.788   2.765   4.968 -0.5164  0.0527 -0.1242
  473MOL0     C62340  -0.851   2.725   4.847  0.1873  0.8993 -0.0621
  473MOL0     C62341  -1.002   2.737   4.857 -0.4782 -0.2196  0.8566
  473MOL0     C62342  -1.076   2.688   4.730  0.8570  0.0209 -0.7780
  473MOL0     C62343  -1.038   2.781   4.606  0.1550 -0.1159 -0.6274
  473MOL0     C62344  -1.131   2.765   4.490 -0.2042 -0.1873  0.5730
  473MOL0     C62345  -1.263   2.837   4.506  0.1615  0.0909 -0.3260
  473MOL0     C62346  -1.350   2.848   4.382 -0.0088 -1.2655  0.2377
  473MOL0     C62347  -1.357   2.721   4.312 -0.4823 -0.4533 -0.1210
  473MOL0    Cl62348  -1.510   2.731   4.217 -0.4919  0.3195 -0.3413
  473MOL0     C62349  -0.734   2.541   5.042 -0.2076  0.5549  0.2642
  473MOL0     C62350  -0.645   2.458   5.110 -0.2765  0.3796  0.2735
  473MOL0     O62351  -0.450   2.524   5.384  0.8338 -0.0327  0.1560
  473MOL0     C62352  -0.250   2.398   5.525  0.8022 -0.3164 -0.0583
  473MOL0     C62353  -0.136   2.340   5.582  0.4455  0.1618  0.4494
  473MOL0     N62354   0.576   2.110   5.897  0.5440 -0.4802 -0.2218
  473MOL0     N62355   0.698   2.150   5.871 -0.0719  0.3059  0.4030
  473MOL0     C62356   1.527   2.773   6.081 -0.6702 -0.9289  0.5841
  473MOL0     C62357   1.654   2.810   6.041 -0.2173  0.0730 -0.1501
  473MOL0     C62358   1.960   3.057   5.869 -0.3405  0.2666 -0.4244
  473MOL0     C62359   1.984   3.193   5.871 -0.7198  0.5982  0.0608
  473MOL0     C62360   2.116   3.230   5.862  0.1426  0.0046 -0.2636
  473MOL0     C62361   2.221   3.147   5.821  0.7300 -0.3433  0.3592
  473MOL0     O62362   2.334   3.205   5.777  0.2058 -0.6254 -0.4909
  473MOL0     C62363   2.458   3.128   5.791 -0.1277  0.9179 -0.1641
  473MOL0     C62364   2.561   3.224   5.828 -0.4447  0.9586  0.2738
  473MOL0     C62365   2.679   3.136   5.871  0.1366  0.1319 -0.2890
  473MOL0     C62366   2.806   3.227   5.899 -0.9836  1.1101  0.1766
  473MOL0     C62367   2.792   3.336   6.000  0.1100 -0.9946 -0.9084
  473MOL0     C62368   2.755   3.422   6.074 -0.1638 -0.8732  1.4891
  473MOL0     C62369   2.191   3.007   5.824 -0.6553  0.0597 -0.9170
  473MOL0     C62370   2.059   2.966   5.846 -0.6513  0.2933 -0.5236
  473MOL0     H62371   1.610   2.770   5.710  0.2212 -3.3919 -0.0264
  473MOL0     H62372   1.373   2.740   5.787 -0.6696 -0.2045  0.2376
  473MOL0     H62373   1.136   2.749   6.152 -1.1009 -2.0333  1.8565
  473MOL0     H62374   1.310   2.795   6.212  0.9560 -0.7629 -1.0109
  473MOL0     H62375   1.259   2.594   6.332  3.3998  5.8068  1.2607
  473MOL0     H62376   1.359   2.549   6.189 -1.1320  1.0574 -0.9480
  473MOL0     H62377   1.184   2.390   6.207 -0.2016 -0.3009  0.4886
  473MOL0     H62378   1.153   2.493   6.066  0.9127  0.8657 -0.1302
  473MOL0     H62379   1.031   2.529   6.337 -0.0652 -0.1898 -0.7228
  473MOL0     H62380   0.980   2.600   6.182 -1.5932 -0.1978  0.1870
  473MOL0     H62381   0.851   2.411   6.272  0.7505 -0.7624  0.4519
  473MOL0     H62382   0.992   2.300   6.263 -0.1830  0.3738  2.1298
  473MOL0     H62383   0.843   2.255   6.090  1.5983 -1.8185  0.6601
  473MOL0     H62384   1.003   2.306   6.028 -0.1603  0.2684 -1.0533
  473MOL0     H62385   0.765   2.482   5.999 -0.5746 -1.3008  3.7237
  473MOL0     H62386   0.936   2.511   5.945 -0.5168  0.2259 -1.0435
  473MOL0     H62387   0.912   2.312   5.810 -0.0343 -0.3975 -0.1121
  473MOL0     H62388   0.805   2.437   5.752 -1.5839 -3.3073 -1.9046
  473MOL0     H62389   0.543   2.433   5.840  0.2081  0.0574  2.2516
  473MOL0     H62390   0.326   2.311   5.988  1.2541 -0.6632  1.0835
  473MOL0     H62391   0.310   2.136   5.966  2.5656 -0.1622  0.6426
  473MOL0     H62392   0.290   2.171   5.713  0.7508  0.5492  0.0598
  473MOL0     H62393   0.294   2.337   5.727 -1.4461 -0.5937 -1.2786
  473MOL0     H62394   0.082   2.160   5.890 -2.1898  3.4275  2.0343
  473MOL0     H62395   0.060   2.320   5.823 -0.4652 -1.0885 -0.5193
  473MOL0     H62396  -0.057   2.123   5.718 -0.6906  2.3114 -0.6132
  473MOL0     H62397   0.096   2.049   5.683 -2.3577 -0.9337  0.6573
  473MOL0     H62398  -0.013   2.166   5.316 -2.0417 -3.6768  1.0215
  473MOL0     H62399  -0.222   2.262   5.213  2.1243 -0.5262 -0.0395
  473MOL0     H62400  -0.363   2.640   5.080 -0.4933  1.4571  1.6789
  473MOL0     H62401  -0.522   2.809   4.995 -0.3479 -0.6121 -2.0141
  473MOL0     H62402  -0.829   2.622   4.817 -0.2752  0.7377  0.1465
  473MOL0     H62403  -0.814   2.782   4.761 -1.2753 -1.9999 -2.8128
  473MOL0     H62404  -1.030   2.842   4.866 -0.0197  0.0164 -0.2959
  473MOL0     H62405  -1.032   2.667   4.935  0.5761 -1.1012  0.4921
  473MOL0     H62406  -1.180   2.707   4.758  0.9104  0.4343 -0.8452
  473MOL0     H62407  -1.054   2.585   4.703  0.8808 -0.1886  0.0178
  473MOL0     H62408  -1.027   2.887   4.631 -1.3163 -0.0523 -0.1338
  473MOL0     H62409  -0.940   2.741   4.580  0.6486  1.0288 -0.5841
  473MOL0     H62410  -1.148   2.657   4.488 -0.5197 -0.2731  3.4138
  473MOL0     H62411  -1.091   2.809   4.398  0.6732 -0.3262  0.8836
  473MOL0     H62412  -1.236   2.937   4.541 -0.4459 -0.4344  1.7677
  473MOL0     H62413  -1.329   2.789   4.578 -2.6827  0.7767 -2.3043
  473MOL0     H62414  -1.448   2.882   4.415  0.6359  2.4827 -1.2312
  473MOL0     H62415  -1.313   2.921   4.310 -0.5196  0.1036  1.3307
  473MOL0     H62416  -1.365   2.634   4.377  1.4428 -0.2450  0.4683
  473MOL0     H62417  -1.263   2.715   4.256  2.6947  4.2213  3.8848
  473MOL0     H62418  -0.829   2.490   5.028 -0.5573  1.8635 -3.2763
  473MOL0     H62419  -0.683   2.364   5.150 -2.6129  1.0527 -0.1721
  473MOL0     H62420  -0.305   2.460   5.596  1.1144 -0.0895 -0.0139
  473MOL0     H62421  -0.122   2.368   5.686  0.0657  1.7945  0.0946
  473MOL0     H62422   1.516   2.762   6.189 -1.6489 -0.6447  0.5189
  473MOL0     H62423   1.716   2.849   6.122 -0.7618 -0.3722  0.4815
  473MOL0     H62424   1.907   3.269   5.886 -1.1770  0.4771 -1.5383
  473MOL0     H62425   2.140   3.336   5.865 -1.1683  0.3140  1.8963
  473MOL0     H62426   2.478   3.071   5.700  0.0556 -1.7597  1.4171
  473MOL0     H62427   2.453   3.064   5.881  0.2477  1.0794 -0.0248
  473MOL0     H62428   2.583   3.286   5.741 -2.9294 -0.8750 -1.8038
  473MOL0     H62429   2.527   3.276   5.918 -0.5208  0.8489  0.3088
  473MOL0     H62430   2.712   3.065   5.795  0.2956  0.3133 -0.3895
  473MOL0     H62431   2.660   3.079   5.963 -0.3640 -0.7119 -0.8957
  473MOL0     H62432   2.895   3.171   5.930 -1.7700 -0.3832 -0.1567
  473MOL0     H62433   2.828   3.265   5.799 -0.5794  1.6585  0.4665
  473MOL0     H62434   2.712   3.506   6.125 -0.9936 -0.3383 -0.0411
  473MOL0     H62435   2.272   2.936   5.814 -0.8156 -0.4765  1.1086
  473MOL0     H62436   2.048   2.858   5.852  2.2036 -0.0524 -0.3014
  474MOL0     O62437   7.997   1.487   5.068  0.2973 -0.2049  0.4724
  474MOL0     C62438   8.112   1.530   5.060  0.4667  0.4716 -0.0332
  474MOL0     O62439   8.152   1.652   5.015 -0.5415  0.2524 -0.0202
  474MOL0     C62440   8.056   1.728   4.962 -0.9139  0.3206 -0.7799
  474MOL0     C62441   7.956   1.778   5.050 -0.5681  0.1086  0.6462
  474MOL0     C62442   7.864   1.869   4.998 -0.9563  0.5630  1.4095
  474MOL0     C62443   7.865   1.902   4.857  0.8998  0.2224 -0.1699
  474MOL0     O62444   7.757   1.975   4.805 -1.1029  0.6392 -0.0520
  474MOL0     C62445   7.755   2.017   4.671  0.2190 -0.6381  1.4196
  474MOL0     C62446   7.654   2.134   4.640 -0.1053  0.0591 -0.7579
  474MOL0     C62447   7.516   2.077   4.650  0.2763 -1.0980 -0.9448
  474MOL0     C62448   7.412   2.189   4.634 -0.7153  0.2404 -0.0371
  474MOL0     C62449   7.274   2.128   4.620 -0.2785  0.2624  0.2466
  474MOL0     C62450   7.158   2.212   4.665 -0.3128  0.3488 -0.1084
  474MOL0     C62451   7.145   2.349   4.597  0.7145 -0.1693  0.3653
  474MOL0     C62452   7.008   2.412   4.643  0.8488 -1.0025  0.8860
  474MOL0     N62453   6.886   2.398   4.554 -0.6999  0.6120  0.0298
  474MOL0     C62454   6.814   2.282   4.537 -0.3401 -0.0675  0.1015
  474MOL0     C62455   6.723   2.316   4.441 -0.0739  1.2009  0.0126
  474MOL0     C62456   6.611   2.224   4.392  1.2791 -0.0995 -0.2013
  474MOL0     C62457   6.621   2.192   4.246  0.0770 -0.1041  0.9905
  474MOL0     C62458   6.493   2.157   4.165  0.1899 -0.3618  0.3429
  474MOL0     C62459   6.401   2.282   4.140  0.1986  0.1996 -0.1980
  474MOL0     O62460   6.296   2.244   4.048 -0.0790 -0.2015 -0.2266
  474MOL0     C62461   6.167   2.287   4.080  0.6713 -0.0816  0.5401
  474MOL0     C62462   6.058   2.209   4.026  0.7464  1.0328 -0.3819
  474MOL0     C62463   5.928   2.258   4.044  0.1065 -0.5606  0.1025
  474MOL0     C62464   5.894   2.374   4.126  0.1815  0.7067 -0.0691
  474MOL0     C62465   5.758   2.413   4.160  0.2362 -0.1341  0.6306
  474MOL0     O62466   5.666   2.351   4.076  1.1748 -0.5003 -0.4358
  474MOL0     C62467   5.530   2.371   4.119  0.4111 -0.2776 -0.0705
  474MOL0     C62468   5.456   2.253   4.149 -0.3432 -0.3723 -1.1296
  474MOL0     C62469   5.315   2.267   4.189 -0.3781  0.0424  0.4451
  474MOL0     C62470   5.249   2.391   4.190 -0.3461 -0.0572 -0.4012
  474MOL0     O62471   5.126   2.394   4.246  0.2032  0.2698  0.1401
  474MOL0     C62472   5.047   2.517   4.230  0.0644  0.3707 -0.5514
  474MOL0     C62473   4.934   2.504   4.328 -0.1998  0.2157 -0.8090
  474MOL0     C62474   4.880   2.639   4.368  0.7638 -0.2680 -0.5442
  474MOL0     C62475   4.754   2.641   4.456 -0.1422 -0.9161  0.4607
  474MOL0     C62476   4.716   2.785   4.507 -0.5530 -0.0677 -0.3644
  474MOL0     C62477   4.636   2.766   4.633 -0.0158  0.1049 -0.1089
  474MOL0     C62478   4.522   2.657   4.620 -0.3373 -0.3322  0.8045
  474MOL0     C62479   4.423   2.669   4.739  0.3768 -0.4208 -0.4882
  474MOL0    Cl62480   4.496   2.609   4.891 -0.5740 -0.2106  0.4774
  474MOL0     C62481   5.322   2.503   4.150  1.0866  0.1798  0.5092
  474MOL0     C62482   5.463   2.495   4.122  1.1903 -0.4534  0.8241
  474MOL0     O62483   5.737   2.484   4.262  0.0126  0.3683  0.8447
  474MOL0     C62484   6.002   2.450   4.177 -0.6173 -0.2673 -0.3897
  474MOL0     C62485   6.132   2.408   4.146  0.6881  0.4073 -0.0552
  474MOL0     N62486   6.748   2.442   4.394  0.0507  0.9139 -0.1126
  474MOL0     N62487   6.844   2.494   4.459  0.2533  0.8141 -0.0404
  474MOL0     C62488   7.964   1.852   4.776 -0.1858  0.6195 -0.0737
  474MOL0     C62489   8.058   1.766   4.828  0.2240  0.4735 -0.2188
  474MOL0     C62490   8.220   1.435   5.094 -0.4623 -0.5945 -0.1856
  474MOL0     C62491   8.203   1.310   5.145  0.2478  0.7724  0.6405
  474MOL0     C62492   8.311   1.213   5.160  0.9648  0.4449 -0.5374
  474MOL0     C62493   8.440   1.257   5.145 -0.1376 -0.7487 -0.0227
  474MOL0     O62494   8.542   1.168   5.171 -0.2847  0.7650  0.4209
  474MOL0     C62495   8.662   1.184   5.091  0.3935  0.8879  0.2004
  474MOL0     C62496   8.778   1.249   5.164 -0.4149 -0.4049  0.5361
  474MOL0     C62497   8.904   1.252   5.075  0.2631  0.2551 -0.4499
  474MOL0     C62498   8.992   1.120   5.098  0.2274 -0.4388 -0.1088
  474MOL0     C62499   9.138   1.156   5.068  0.9554 -0.7323 -0.2644
  474MOL0     C62500   9.248   1.208   5.059  0.1418 -0.1928 -0.1853
  474MOL0     C62501   8.459   1.386   5.139 -0.3173 -1.1125  0.7055
  474MOL0     C62502   8.353   1.469   5.093  0.7511 -0.9092  0.1455
  474MOL0     H62503   7.958   1.768   5.158 -2.1309 -2.0542  0.5331
  474MOL0     H62504   7.788   1.912   5.061 -2.0722 -2.2133  2.1145
  474MOL0     H62505   7.748   1.939   4.594  3.4017 -1.0874  1.4217
  474MOL0     H62506   7.853   2.065   4.661  0.6737 -1.8660 -0.8296
  474MOL0     H62507   7.672   2.181   4.543  1.1810 -0.7533 -0.9316
  474MOL0     H62508   7.654   2.214   4.715  1.4299  1.2265 -1.9556
  474MOL0     H62509   7.493   2.048   4.753 -1.4053  1.1124 -0.6400
  474MOL0     H62510   7.490   1.995   4.583 -2.9280 -0.9348 -0.0766
  474MOL0     H62511   7.403   2.259   4.717 -3.1817  0.2234 -0.2328
  474MOL0     H62512   7.439   2.244   4.543  0.5137  0.3704  0.3922
  474MOL0     H62513   7.267   2.033   4.673 -1.8986  0.3750  0.2744
  474MOL0     H62514   7.256   2.111   4.514 -1.6253 -0.1114  0.5111
  474MOL0     H62515   7.180   2.225   4.772  3.0618  1.5045 -0.8432
  474MOL0     H62516   7.068   2.150   4.656  0.1695 -0.3789 -0.0794
  474MOL0     H62517   7.225   2.412   4.637  0.4962 -0.8914  2.0249
  474MOL0     H62518   7.151   2.346   4.488  0.2484 -3.0252  0.3373
  474MOL0     H62519   7.034   2.517   4.662  0.3365 -0.9545  1.3554
  474MOL0     H62520   6.983   2.379   4.744  0.3085 -0.6304  0.8819
  474MOL0     H62521   6.825   2.185   4.584 -2.5212 -0.2124  0.4117
  474MOL0     H62522   6.517   2.277   4.412  1.3040 -0.6514  1.5020
  474MOL0     H62523   6.606   2.128   4.443  0.3003 -1.3193 -2.4588
  474MOL0     H62524   6.686   2.105   4.234  0.0447  0.2767 -3.3021
  474MOL0     H62525   6.668   2.270   4.186 -1.1451  1.6621  2.2247
  474MOL0     H62526   6.530   2.106   4.075  0.9741 -0.9576  0.9888
  474MOL0     H62527   6.436   2.076   4.213 -0.3412 -1.2804 -1.7005
  474MOL0     H62528   6.463   2.366   4.108 -0.7535  0.8606 -0.3438
  474MOL0     H62529   6.363   2.314   4.237  3.2538  3.0029  0.2501
  474MOL0     H62530   6.094   2.127   3.964  0.7016  0.5423  0.2278
  474MOL0     H62531   5.854   2.194   3.998  3.1655 -2.0480 -3.1763
  474MOL0     H62532   5.504   2.156   4.153  2.5012  0.9296 -1.9148
  474MOL0     H62533   5.278   2.174   4.232 -0.1542  0.2156  1.0190
  474MOL0     H62534   5.020   2.528   4.125  0.1901 -0.2920 -0.6555
  474MOL0     H62535   5.103   2.604   4.265 -2.6196  1.8957  0.3114
  474MOL0     H62536   4.981   2.459   4.416  2.2603 -0.9895 -2.6176
  474MOL0     H62537   4.856   2.434   4.297  1.3064 -1.0324 -1.8976
  474MOL0     H62538   4.846   2.680   4.272 -2.0392 -2.1319 -0.4563
  474MOL0     H62539   4.962   2.699   4.409 -0.5694  1.6437 -0.4969
  474MOL0     H62540   4.668   2.600   4.403 -1.2467  1.4873  0.2269
  474MOL0     H62541   4.787   2.589   4.546  1.5359  2.1331  1.7810
  474MOL0     H62542   4.652   2.828   4.429 -1.4657 -1.3604 -0.3589
  474MOL0     H62543   4.794   2.857   4.534 -3.0190  3.5396 -2.0608
  474MOL0     H62544   4.582   2.857   4.659 -0.6139 -1.1621  3.8167
  474MOL0     H62545   4.698   2.737   4.718 -0.1657  1.7382  0.5788
  474MOL0     H62546   4.470   2.659   4.524 -0.2349 -2.2118  0.6735
  474MOL0     H62547   4.573   2.560   4.621  0.5262  0.1096  2.4191
  474MOL0     H62548   4.329   2.616   4.721 -0.5858  0.8795  0.4876
  474MOL0     H62549   4.382   2.769   4.758 -1.0473 -0.7845 -1.4767
  474MOL0     H62550   5.272   2.599   4.141 -0.2511 -0.6014 -0.9720
  474MOL0     H62551   5.523   2.582   4.097  1.1054 -1.1666 -2.4236
  474MOL0     H62552   6.000   2.537   4.241  3.1655  0.4923 -1.0800
  474MOL0     H62553   6.206   2.477   4.185  0.0160  0.8792  0.4094
  474MOL0     H62554   7.960   1.886   4.673  2.3348  1.1423 -0.0680
  474MOL0     H62555   8.129   1.725   4.757 -0.3260  0.4958 -0.7926
  474MOL0     H62556   8.103   1.267   5.156  1.8653 -2.9028  2.7579
  474MOL0     H62557   8.288   1.109   5.182  0.0331  0.6536 -0.4579
  474MOL0     H62558   8.632   1.244   5.005 -2.2846 -1.0655 -0.3555
  474MOL0     H62559   8.694   1.087   5.054 -0.1208  0.3145  1.2175
  474MOL0     H62560   8.741   1.351   5.178 -0.2428 -0.2922  0.1978
  474MOL0     H62561   8.805   1.205   5.260  4.0956  0.2527 -0.2172
  474MOL0     H62562   8.946   1.351   5.096 -2.1103  1.2742 -0.1562
  474MOL0     H62563   8.876   1.274   4.972  1.6465  2.4892 -0.4356
  474MOL0     H62564   8.980   1.084   5.201 -1.5581 -3.0905 -1.1068
  474MOL0     H62565   8.947   1.042   5.034 -1.0847  1.5268 -1.7254
  474MOL0     H62566   9.335   1.270   5.048 -0.1104 -0.1042 -2.0951
  474MOL0     H62567   8.558   1.431   5.146 -1.3372  1.0674  2.4689
  474MOL0     H62568   8.385   1.569   5.068  2.2857 -1.7067 -1.2696
  475MOL0     O62569   8.756   6.583   5.962 -0.0103  0.1038 -0.4538
  475MOL0     C62570   8.708   6.572   6.073  0.8377  0.5292 -0.1261
  475MOL0     O62571   8.782   6.527   6.186 -0.1948  0.2584 -1.2595
  475MOL0     C62572   8.911   6.504   6.170  0.3022 -0.2336  0.3475
  475MOL0     C62573   8.963   6.388   6.103  0.2524 -0.4907  0.2119
  475MOL0     C62574   9.101   6.381   6.070  0.1933 -0.7297  0.0012
  475MOL0     C62575   9.192   6.474   6.111 -0.1299 -1.2270  1.0994
  475MOL0     O62576   9.321   6.450   6.063 -0.4334  0.2132 -0.3620
  475MOL0     C62577   9.416   6.563   6.061  0.6425 -0.0954  0.4281
  475MOL0     C62578   9.402   6.670   5.953  0.7717 -0.3537  0.0824
  475MOL0     C62579   9.389   6.619   5.808 -0.2990 -0.7146  0.0177
  475MOL0     C62580   9.389   6.730   5.699 -0.1087  0.2071 -0.2131
  475MOL0     C62581   9.528   6.801   5.681  0.3095  0.5516 -0.0132
  475MOL0     C62582   9.516   6.941   5.603  1.2993  0.1160 -0.3641
  475MOL0     C62583   9.467   6.920   5.455  0.4101 -0.2598 -0.5706
  475MOL0     C62584   9.449   7.059   5.397 -0.0766  0.1898 -0.0140
  475MOL0     N62585   9.383   7.166   5.470 -0.7163  0.2574 -0.6468
  475MOL0     C62586   9.262   7.157   5.543  0.4512  0.8793  0.6439
  475MOL0     C62587   9.240   7.286   5.586 -0.0324  0.0390 -0.0887
  475MOL0     C62588   9.137   7.331   5.685 -0.2891 -0.0947  0.4760
  475MOL0     C62589   9.011   7.394   5.614 -0.0007  0.2284  0.2682
  475MOL0     C62590   8.917   7.277   5.582 -0.8416 -0.7491  0.4610
  475MOL0     C62591   8.786   7.321   5.526 -0.1124 -0.4353 -0.7564
  475MOL0     O62592   8.703   7.392   5.621 -0.1052 -0.2158 -0.1333
  475MOL0     C62593   8.598   7.330   5.677  0.3342  0.4910 -0.5146
  475MOL0     C62594   8.493   7.414   5.733  0.6428  1.3392 -0.0820
  475MOL0     C62595   8.368   7.359   5.775  0.4738  0.6950 -0.9531
  475MOL0     C62596   8.353   7.220   5.777  0.4612  1.4131 -0.2139
  475MOL0     C62597   8.223   7.166   5.828  0.0633 -1.1496 -0.7177
  475MOL0     O62598   8.125   7.252   5.872  0.3538  0.1247  0.1336
  475MOL0     C62599   7.999   7.200   5.903 -0.2683 -0.2890  0.8216
  475MOL0     C62600   7.936   7.241   6.016 -1.0756  0.3405 -0.2153
  475MOL0     C62601   7.807   7.188   6.045 -0.6580  0.2273 -0.1329
  475MOL0     C62602   7.736   7.102   5.956  0.5083 -0.5573 -0.3047
  475MOL0     O62603   7.610   7.047   5.978 -0.1140  0.3798  0.2165
  475MOL0     C62604   7.537   7.090   6.097  0.3175  0.3869  0.0869
  475MOL0     C62605   7.410   7.022   6.089 -0.8166  0.6820  0.1066
  475MOL0     C62606   7.315   7.086   6.192 -0.7240 -0.1531  0.7996
  475MOL0     C62607   7.193   6.993   6.219 -0.4707 -0.1654 -0.4264
  475MOL0     C62608   7.135   7.016   6.358 -0.6471 -0.0864  0.1246
  475MOL0     C62609   6.995   6.953   6.361  0.0777  0.5269  1.9041
  475MOL0     C62610   6.902   7.068   6.328  0.0896 -0.1082 -0.3138
  475MOL0     C62611   6.767   7.006   6.325  0.7978  0.2904 -0.3213
  475MOL0    Cl62612   6.643   7.122   6.307  0.1068  0.0753  0.5325
  475MOL0     C62613   7.804   7.065   5.842  1.2821  0.4131 -0.6004
  475MOL0     C62614   7.932   7.102   5.819 -0.6959  0.0474  0.0440
  475MOL0     O62615   8.218   7.044   5.833 -0.2106 -0.0576 -0.8527
  475MOL0     C62616   8.470   7.133   5.740  1.0602 -0.0649 -0.2816
  475MOL0     C62617   8.585   7.193   5.692  0.1069  0.2042 -0.3248
  475MOL0     N62618   9.349   7.363   5.547 -0.4137 -0.0310 -0.4044
  475MOL0     N62619   9.435   7.292   5.481 -0.0806  0.1171  0.2365
  475MOL0     C62620   9.139   6.582   6.183  0.0929 -0.6182 -0.3905
  475MOL0     C62621   9.005   6.597   6.218 -0.0099  0.5960  0.0306
  475MOL0     C62622   8.557   6.601   6.084  0.1319 -0.1928  0.4025
  475MOL0     C62623   8.499   6.597   6.208 -0.1407  0.3792 -0.2800
  475MOL0     C62624   8.370   6.640   6.229  0.3264  0.1421 -0.6001
  475MOL0     C62625   8.292   6.696   6.123 -0.4058  0.5097  0.0875
  475MOL0     O62626   8.168   6.743   6.157 -0.0167 -0.2580 -0.5683
  475MOL0     C62627   8.105   6.826   6.063 -0.1646 -0.2218 -0.4692
  475MOL0     C62628   8.010   6.760   5.967 -0.4199  0.0550  0.9684
  475MOL0     C62629   7.896   6.678   6.029  0.3183  0.3997 -0.0125
  475MOL0     C62630   7.755   6.742   6.053  0.0791 -0.2463 -0.0268
  475MOL0     C62631   7.767   6.812   6.181 -0.2388 -0.0569 -0.1887
  475MOL0     C62632   7.774   6.856   6.294  0.1705 -1.2050  0.2481
  475MOL0     C62633   8.345   6.690   5.998 -1.0176 -0.0716 -0.4248
  475MOL0     C62634   8.481   6.650   5.984 -0.7970 -0.7003  0.1528
  475MOL0     H62635   8.906   6.301   6.073 -0.9838 -0.0081  1.0855
  475MOL0     H62636   9.138   6.287   6.032  2.3065 -0.2140  0.6445
  475MOL0     H62637   9.518   6.525   6.054  1.3919  1.9523 -0.5570
  475MOL0     H62638   9.397   6.622   6.151 -2.5765 -1.0341  0.4977
  475MOL0     H62639   9.482   6.745   5.952 -0.7209  1.3269 -1.3120
  475MOL0     H62640   9.311   6.728   5.974 -1.6465 -3.4491 -1.1220
  475MOL0     H62641   9.298   6.562   5.788 -1.9362  2.6929 -3.5069
  475MOL0     H62642   9.467   6.545   5.789 -0.3420 -0.8588  0.3858
  475MOL0     H62643   9.366   6.677   5.606 -1.0173 -0.4590  0.3750
  475MOL0     H62644   9.315   6.806   5.727 -0.5455 -0.6723  1.0879
  475MOL0     H62645   9.597   6.727   5.639 -2.2090 -1.7968 -0.2959
  475MOL0     H62646   9.569   6.818   5.781  0.3395 -2.7138  0.6509
  475MOL0     H62647   9.612   6.993   5.605  0.7288  1.2028  2.0555
  475MOL0     H62648   9.444   7.006   5.654 -0.7036 -0.7096 -2.0081
  475MOL0     H62649   9.540   6.874   5.387  0.4925 -0.2165 -0.5122
  475MOL0     H62650   9.374   6.864   5.453  0.5842 -0.5403 -1.2315
  475MOL0     H62651   9.418   7.041   5.294  2.5729 -2.0130 -0.5442
  475MOL0     H62652   9.550   7.097   5.383 -0.6901  2.0680  0.4286
  475MOL0     H62653   9.190   7.078   5.562 -0.3852  0.5951 -2.9448
  475MOL0     H62654   9.181   7.407   5.750 -0.4275 -2.5012  3.6589
  475MOL0     H62655   9.107   7.256   5.759  0.1756  0.6790  1.4735
  475MOL0     H62656   9.029   7.448   5.520 -0.1212 -0.9628 -0.4598
  475MOL0     H62657   8.955   7.455   5.686  0.1485  2.4061 -1.3349
  475MOL0     H62658   8.970   7.208   5.516 -2.2276  0.3414 -1.9140
  475MOL0     H62659   8.894   7.226   5.676 -0.0595  1.7255  2.0882
  475MOL0     H62660   8.732   7.233   5.492  0.8605 -1.6331  0.7008
  475MOL0     H62661   8.800   7.392   5.444  0.6448 -0.4091 -0.6135
  475MOL0     H62662   8.502   7.522   5.730  0.4605  1.4227  1.3854
  475MOL0     H62663   8.289   7.424   5.812 -0.3263 -2.0419  2.7313
  475MOL0     H62664   7.984   7.310   6.086  0.2732  0.7129 -1.4611
  475MOL0     H62665   7.758   7.229   6.132  1.2818  3.2847 -0.3179
  475MOL0     H62666   7.528   7.197   6.121  0.4501 -0.0650  2.3042
  475MOL0     H62667   7.588   7.040   6.179  1.1882  0.3674 -0.4505
  475MOL0     H62668   7.430   6.918   6.117  1.0351  1.0874  0.4200
  475MOL0     H62669   7.372   7.024   5.987  0.7816 -3.4986 -0.8099
  475MOL0     H62670   7.274   7.171   6.138  1.4563  0.8506  0.5997
  475MOL0     H62671   7.375   7.114   6.279 -1.2213 -1.5855  1.6346
  475MOL0     H62672   7.119   7.016   6.142  0.8043  0.4327 -1.5184
  475MOL0     H62673   7.218   6.887   6.212 -3.2806 -0.9863  0.4577
  475MOL0     H62674   7.154   7.123   6.371  2.7143 -0.6640  1.0828
  475MOL0     H62675   7.188   6.976   6.446  1.6329  1.2060 -0.5719
  475MOL0     H62676   6.972   6.898   6.453  0.6568 -0.1522  1.6515
  475MOL0     H62677   6.980   6.881   6.280 -1.6209  2.6292  0.2082
  475MOL0     H62678   6.923   7.150   6.397 -1.4997  1.3895 -1.4988
  475MOL0     H62679   6.922   7.096   6.224 -1.5960 -0.9365 -0.9005
  475MOL0     H62680   6.750   6.958   6.422 -2.7735  0.4666 -0.7360
  475MOL0     H62681   6.752   6.928   6.250 -1.9248  0.1327  0.2781
  475MOL0     H62682   7.749   7.001   5.774  2.4803 -1.6295  0.2365
  475MOL0     H62683   7.980   7.069   5.727  0.4853  0.9294  0.3171
  475MOL0     H62684   8.468   7.025   5.751  1.8187 -0.0901 -0.3260
  475MOL0     H62685   8.668   7.127   5.672  2.9531  3.4706 -0.1401
  475MOL0     H62686   9.209   6.661   6.210 -1.5315  0.3711  1.1363
  475MOL0     H62687   8.966   6.691   6.256 -2.1003  0.7088 -2.1362
  475MOL0     H62688   8.561   6.581   6.296  1.0514  1.3017 -0.9291
  475MOL0     H62689   8.327   6.650   6.329  0.3228 -0.0236 -0.5851
  475MOL0     H62690   8.179   6.881   6.003  2.1073  0.9505  3.0987
  475MOL0     H62691   8.051   6.906   6.113 -0.1817 -1.1828  1.1166
  475MOL0     H62692   7.959   6.832   5.902 -0.3288 -0.5348  0.2304
  475MOL0     H62693   8.057   6.690   5.897 -2.0405 -0.0381 -0.0656
  475MOL0     H62694   7.925   6.628   6.122  0.0607 -0.0242 -0.1592
  475MOL0     H62695   7.879   6.593   5.963 -1.7605  0.2298  0.6953
  475MOL0     H62696   7.735   6.808   5.968  2.8406 -0.4981 -0.9547
  475MOL0     H62697   7.676   6.666   6.057  0.7821 -0.9772  0.3201
  475MOL0     H62698   7.798   6.903   6.388  1.6253 -1.2386 -0.0776
  475MOL0     H62699   8.288   6.721   5.911 -0.5523 -0.3737 -0.8460
  475MOL0     H62700   8.525   6.645   5.885 -3.1558 -0.7976 -0.9662
  476MOL0     O62701   5.966   3.078   6.615 -0.6125 -0.3348  0.5022
  476MOL0     C62702   5.974   3.201   6.585 -0.1357  0.4587 -0.1164
  476MOL0     O62703   5.867   3.288   6.576  0.0202  0.3555 -0.8863
  476MOL0     C62704   5.750   3.242   6.547  0.4653 -1.0979 -0.2136
  476MOL0     C62705   5.656   3.341   6.573  0.2081  0.1812 -0.8324
  476MOL0     C62706   5.525   3.316   6.535  0.1097 -0.7409  0.9455
  476MOL0     C62707   5.483   3.198   6.476  0.1483  1.2058  0.2807
  476MOL0     O62708   5.346   3.179   6.463 -0.2061  0.6245 -0.1097
  476MOL0     C62709   5.305   3.044   6.470 -0.4164  0.7729  0.4475
  476MOL0     C62710   5.156   3.039   6.468  1.2143 -0.0146  1.0129
  476MOL0     C62711   5.086   3.112   6.356  0.2144  0.2558 -0.1687
  476MOL0     C62712   4.932   3.095   6.373  0.6190  0.3612 -0.5219
  476MOL0     C62713   4.861   3.150   6.245  0.7959  0.4430 -0.3842
  476MOL0     C62714   4.716   3.112   6.252  0.6789 -0.5383  0.3419
  476MOL0     C62715   4.643   3.199   6.148  0.5070  1.0019 -0.1665
  476MOL0     C62716   4.494   3.162   6.129  0.3028 -0.7433 -0.4248
  476MOL0     N62717   4.429   3.226   6.009  0.7653 -0.1023  0.7772
  476MOL0     C62718   4.471   3.237   5.879 -0.5839  0.4125  0.3124
  476MOL0     C62719   4.395   3.321   5.813 -1.0017 -0.2348 -0.2409
  476MOL0     C62720   4.389   3.360   5.671  0.6216  0.3854 -0.1598
  476MOL0     C62721   4.519   3.387   5.598  0.2146 -0.1768  0.0938
  476MOL0     C62722   4.491   3.454   5.457 -0.1166 -0.8473  0.0247
  476MOL0     C62723   4.613   3.508   5.377 -0.0804  0.2633 -1.1089
  476MOL0     O62724   4.579   3.535   5.246  0.4196  0.4107 -0.0538
  476MOL0     C62725   4.499   3.636   5.208 -0.3379 -0.3209 -0.2338
  476MOL0     C62726   4.364   3.614   5.200  1.3083 -0.3146  0.8392
  476MOL0     C62727   4.275   3.719   5.181  0.3650  0.0713  0.2615
  476MOL0     C62728   4.325   3.844   5.148  0.1046 -0.2634 -0.4073
  476MOL0     C62729   4.226   3.957   5.127 -0.3251  0.1755 -0.1492
  476MOL0     O62730   4.268   4.088   5.122 -0.3035  0.2255  0.3242
  476MOL0     C62731   4.180   4.185   5.080 -0.6377 -0.5811 -0.0025
  476MOL0     C62732   4.211   4.318   5.108 -0.2863  0.3548 -0.1876
  476MOL0     C62733   4.113   4.421   5.084  0.2554  0.0233  0.6198
  476MOL0     C62734   4.003   4.386   5.004  0.6336 -0.8197 -0.2098
  476MOL0     O62735   3.913   4.486   4.971  0.7547 -0.5514 -0.9558
  476MOL0     C62736   3.892   4.593   5.071 -0.1653  0.0576  0.0560
  476MOL0     C62737   3.770   4.665   5.029 -0.4446 -0.7293 -0.3335
  476MOL0     C62738   3.760   4.714   4.882 -0.8421  0.2924  0.4260
  476MOL0     C62739   3.658   4.821   4.866 -0.3878 -0.3544 -0.3892
  476MOL0     C62740   3.648   4.883   4.719  0.3312  0.3117  0.4774
  476MOL0     C62741   3.546   4.806   4.635 -0.4929 -0.4609 -0.0202
  476MOL0     C62742   3.558   4.834   4.480 -0.1594  0.1317  0.4293
  476MOL0     C62743   3.471   4.742   4.401  0.1792 -0.4331  0.7995
  476MOL0    Cl62744   3.301   4.741   4.452 -0.2069 -0.2627  0.0168
  476MOL0     C62745   3.990   4.267   4.954 -0.1324  1.4613  0.0402
  476MOL0     C62746   4.078   4.164   4.989  0.0868 -0.8324 -0.7694
  476MOL0     O62747   4.108   3.923   5.125 -0.1163  0.4451  0.2155
  476MOL0     C62748   4.460   3.861   5.131  0.5700  0.4831  0.9511
  476MOL0     C62749   4.553   3.759   5.174 -0.2409  0.8204 -0.8964
  476MOL0     N62750   4.311   3.369   5.913 -0.0318  1.2568 -0.3294
  476MOL0     N62751   4.332   3.323   6.025 -0.7952 -0.1967  0.3087
  476MOL0     C62752   5.584   3.102   6.445  0.0303  0.4700 -0.1767
  476MOL0     C62753   5.715   3.126   6.469 -0.4362 -0.2676 -1.0181
  476MOL0     C62754   6.109   3.260   6.585  0.1516  0.8119  0.5014
  476MOL0     C62755   6.129   3.401   6.586 -0.0568  0.6701 -0.7427
  476MOL0     C62756   6.263   3.441   6.592  0.1673  0.3179 -0.9330
  476MOL0     C62757   6.373   3.360   6.580  0.3124  0.2789  0.7284
  476MOL0     O62758   6.493   3.422   6.574 -0.5767  0.0558 -1.3609
  476MOL0     C62759   6.615   3.342   6.596  0.2644 -0.2570  0.3372
  476MOL0     C62760   6.753   3.417   6.587 -0.4909 -1.0293  0.2048
  476MOL0     C62761   6.867   3.315   6.624 -0.1707 -0.7085 -0.6569
  476MOL0     C62762   7.012   3.378   6.609  0.6392  0.6626 -0.6767
  476MOL0     C62763   7.034   3.400   6.464 -0.7170  0.9091 -0.4180
  476MOL0     C62764   7.066   3.434   6.351  0.0383 -0.3964 -0.1142
  476MOL0     C62765   6.353   3.222   6.581  0.2115 -0.0416 -0.0697
  476MOL0     C62766   6.223   3.169   6.590 -0.4652 -0.1432  0.6511
  476MOL0     H62767   5.683   3.436   6.619 -1.3700  0.9587 -1.4223
  476MOL0     H62768   5.452   3.397   6.538  2.2080  1.2945 -0.0112
  476MOL0     H62769   5.339   2.998   6.563 -0.1189  1.0212  0.4611
  476MOL0     H62770   5.343   2.991   6.382  1.7815  1.2827  1.0338
  476MOL0     H62771   5.114   3.087   6.558  2.4639  1.4848  0.8515
  476MOL0     H62772   5.122   2.937   6.484 -0.3804  0.3364  0.1413
  476MOL0     H62773   5.123   3.072   6.262 -1.7460 -1.4807 -0.2965
  476MOL0     H62774   5.114   3.217   6.362  2.0260 -0.1535 -0.9635
  476MOL0     H62775   4.908   2.988   6.368  1.0275  0.1992  0.6817
  476MOL0     H62776   4.896   3.139   6.466 -1.7593  1.1884 -1.7283
  476MOL0     H62777   4.893   3.096   6.155 -0.0276 -2.4758  0.9448
  476MOL0     H62778   4.866   3.258   6.235  0.4176  0.3013 -2.4742
  476MOL0     H62779   4.678   3.132   6.353  0.9220 -1.4920  0.6257
  476MOL0     H62780   4.704   3.004   6.240  0.8944 -0.4669 -0.5419
  476MOL0     H62781   4.659   3.303   6.177  2.1332  0.7918 -0.2384
  476MOL0     H62782   4.700   3.183   6.056  2.0734  0.1565  0.9161
  476MOL0     H62783   4.442   3.189   6.221  0.4441  0.0726 -0.5825
  476MOL0     H62784   4.485   3.053   6.119 -0.7389 -0.7027 -0.0852
  476MOL0     H62785   4.555   3.192   5.828  0.2021 -0.2620  2.1242
  476MOL0     H62786   4.333   3.454   5.670 -0.0757 -0.0171  0.3784
  476MOL0     H62787   4.321   3.289   5.623  0.0941  0.6593  0.1784
  476MOL0     H62788   4.578   3.295   5.593  0.0629 -0.2343 -1.0829
  476MOL0     H62789   4.574   3.462   5.655  1.8057  1.4060 -3.2037
  476MOL0     H62790   4.431   3.388   5.394 -0.2018 -0.5909 -0.1641
  476MOL0     H62791   4.417   3.534   5.471  2.5227  1.7911 -0.0729
  476MOL0     H62792   4.663   3.411   5.385 -0.8374 -0.0564 -0.1028
  476MOL0     H62793   4.660   3.594   5.425 -0.8264  0.4994 -0.7975
  476MOL0     H62794   4.312   3.523   5.230 -0.8737 -0.8297 -3.7925
  476MOL0     H62795   4.168   3.707   5.198 -0.1211  2.0373 -1.1114
  476MOL0     H62796   4.297   4.342   5.171  0.7420 -5.2278  1.0508
  476MOL0     H62797   4.139   4.523   5.110  0.2016 -0.1343  1.2977
  476MOL0     H62798   3.978   4.660   5.077  1.4459 -1.7548 -1.5765
  476MOL0     H62799   3.867   4.545   5.166 -1.2699  1.5533  0.5658
  476MOL0     H62800   3.764   4.755   5.091  0.7840 -1.6469  1.2063
  476MOL0     H62801   3.679   4.610   5.057 -2.0150 -0.0762 -3.6054
  476MOL0     H62802   3.731   4.625   4.826  2.4385 -1.0593  0.6400
  476MOL0     H62803   3.853   4.751   4.838 -0.7643  1.9371  1.8498
  476MOL0     H62804   3.559   4.781   4.889 -0.4563 -0.4699 -0.8622
  476MOL0     H62805   3.684   4.908   4.927  2.6441 -0.3546 -1.5033
  476MOL0     H62806   3.747   4.894   4.673  0.0207  0.7315 -0.1018
  476MOL0     H62807   3.620   4.988   4.729  2.0134  0.6990  1.4594
  476MOL0     H62808   3.454   4.840   4.683  2.4581  4.0796  3.3037
  476MOL0     H62809   3.558   4.698   4.647 -2.2493 -0.5696  1.0715
  476MOL0     H62810   3.548   4.943   4.469  3.4572  0.3664 -2.7746
  476MOL0     H62811   3.657   4.811   4.439  0.6893  1.7754  1.4568
  476MOL0     H62812   3.508   4.640   4.416  0.3780 -0.3212  1.0931
  476MOL0     H62813   3.479   4.767   4.295  1.0811 -1.1261  0.6949
  476MOL0     H62814   3.918   4.247   4.875  1.0548  1.3450 -1.0381
  476MOL0     H62815   4.063   4.074   4.930 -0.4234 -1.5872  0.4670
  476MOL0     H62816   4.498   3.960   5.108 -1.9608  0.8077 -2.6418
  476MOL0     H62817   4.657   3.782   5.191 -0.2528  1.9406 -2.1636
  476MOL0     H62818   5.553   3.014   6.390  0.5579 -1.0828  1.9159
  476MOL0     H62819   5.797   3.062   6.438  2.1782  2.1038  0.5112
  476MOL0     H62820   6.051   3.476   6.583  0.0490  0.9803  1.7511
  476MOL0     H62821   6.285   3.547   6.599  0.5184  0.1983 -0.1297
  476MOL0     H62822   6.608   3.276   6.508 -0.4896 -0.0883  0.2692
  476MOL0     H62823   6.603   3.287   6.690  1.2893  0.2747  0.7961
  476MOL0     H62824   6.764   3.441   6.481 -0.9572 -1.9560 -0.0638
  476MOL0     H62825   6.762   3.504   6.653 -2.3362 -2.1165  2.0279
  476MOL0     H62826   6.871   3.227   6.560  1.1331 -2.1560  1.3047
  476MOL0     H62827   6.847   3.295   6.730  0.1096  0.6354 -0.3313
  476MOL0     H62828   7.022   3.466   6.673 -0.7625 -0.5551  1.3310
  476MOL0     H62829   7.080   3.299   6.640  0.3579  0.9577  0.7645
  476MOL0     H62830   7.103   3.458   6.254 -1.1414  0.4092 -0.3855
  476MOL0     H62831   6.435   3.152   6.567 -0.5020 -0.6229 -1.5781
  476MOL0     H62832   6.212   3.061   6.590 -4.1722  0.0864 -0.9045
  477MOL0     O62833   1.712   8.344   5.121 -0.1124  0.8668  0.1390
  477MOL0     C62834   1.699   8.454   5.069 -0.5445  1.1055 -0.2378
  477MOL0     O62835   1.582   8.512   5.044 -0.0315  0.1075 -0.5479
  477MOL0     C62836   1.473   8.439   5.013 -0.3366 -0.8034 -0.5589
  477MOL0     C62837   1.347   8.483   5.058 -0.2830  1.0708 -0.1041
  477MOL0     C62838   1.227   8.415   5.021 -1.1060 -0.0860 -0.2217
  477MOL0     C62839   1.235   8.308   4.940  0.4981  0.1858  0.2293
  477MOL0     O62840   1.114   8.270   4.898 -0.6095  0.9674 -0.4434
  477MOL0     C62841   1.111   8.161   4.793 -1.0975  0.4976 -0.9295
  477MOL0     C62842   0.967   8.141   4.737  0.2070  0.1937 -0.8213
  477MOL0     C62843   0.868   8.101   4.851 -0.2311  0.6285 -0.0772
  477MOL0     C62844   0.739   8.042   4.793  0.1970 -0.6951 -0.7417
  477MOL0     C62845   0.648   7.981   4.907 -0.2441  0.0307  0.0097
  477MOL0     C62846   0.518   7.952   4.840 -0.7511  0.4407 -0.4565
  477MOL0     C62847   0.429   8.072   4.823 -0.5846  1.0678 -0.0345
  477MOL0     C62848   0.280   8.030   4.789 -0.3539  0.5679 -0.1464
  477MOL0     N62849   0.220   8.152   4.738  0.0167  0.3050  0.3088
  477MOL0     C62850   0.188   8.153   4.601 -0.5394  0.4640 -0.9634
  477MOL0     C62851   0.150   8.283   4.575 -0.0375 -0.8441 -0.0146
  477MOL0     C62852   0.106   8.350   4.442 -0.3417  0.1851 -0.2697
  477MOL0     C62853  -0.036   8.323   4.415  0.5765  0.3287  0.1703
  477MOL0     C62854  -0.081   8.375   4.276 -0.4529 -0.9534  0.9165
  477MOL0     C62855  -0.237   8.371   4.259  0.0882 -0.3462  0.0671
  477MOL0     O62856  -0.269   8.443   4.138  0.5576 -0.2113 -0.3625
  477MOL0     C62857  -0.382   8.412   4.070  0.0321  0.4208  1.0963
  477MOL0     C62858  -0.486   8.327   4.111  0.4046  0.3681 -0.3483
  477MOL0     C62859  -0.604   8.317   4.038 -0.1455 -0.1701  0.4108
  477MOL0     C62860  -0.629   8.393   3.915 -0.9910  0.3167  0.1028
  477MOL0     C62861  -0.759   8.396   3.854 -0.1528 -0.2686  0.1194
  477MOL0     O62862  -0.844   8.292   3.881  0.0208 -0.2895 -0.6967
  477MOL0     C62863  -0.975   8.281   3.830  0.4560 -0.8935 -0.7263
  477MOL0     C62864  -1.031   8.151   3.832  0.3137 -0.9149 -0.6169
  477MOL0     C62865  -1.161   8.139   3.790  0.8413 -0.5633  0.5313
  477MOL0     C62866  -1.239   8.246   3.744 -0.5576 -0.2860 -0.2599
  477MOL0     O62867  -1.364   8.213   3.698 -0.3873 -0.4663 -0.2480
  477MOL0     C62868  -1.436   8.306   3.627 -0.0842 -0.2336  0.7020
  477MOL0     C62869  -1.579   8.258   3.606  0.0214  0.2591 -0.5476
  477MOL0     C62870  -1.634   8.235   3.748  0.3546  0.0984  0.4908
  477MOL0     C62871  -1.790   8.262   3.744  0.5322 -0.4738  0.0217
  477MOL0     C62872  -1.866   8.136   3.695  0.5791  0.2748 -0.5607
  477MOL0     C62873  -2.017   8.132   3.712  0.2396  0.4088  0.0586
  477MOL0     C62874  -2.045   8.129   3.864  0.2284  0.3808  0.5038
  477MOL0     C62875  -2.187   8.063   3.893  0.7041  0.1642 -0.1992
  477MOL0    Cl62876  -2.319   8.127   3.784 -0.1937  0.7900 -0.2218
  477MOL0     C62877  -1.177   8.380   3.754  0.4551  0.0259 -0.1247
  477MOL0     C62878  -1.045   8.387   3.780 -0.4482 -0.2145  0.3854
  477MOL0     O62879  -0.779   8.480   3.762 -0.2540  0.1840 -0.2961
  477MOL0     C62880  -0.518   8.462   3.872  0.0255 -0.1439  0.2057
  477MOL0     C62881  -0.398   8.470   3.944  0.0770 -0.1629 -0.7694
  477MOL0     N62882   0.157   8.355   4.700  0.6215 -0.0837 -0.3882
  477MOL0     N62883   0.194   8.272   4.797  1.0031  0.1332  0.3651
  477MOL0     C62884   1.359   8.264   4.896 -0.3570  1.0586 -0.4789
  477MOL0     C62885   1.480   8.324   4.931 -0.4144 -0.0358 -0.3062
  477MOL0     C62886   1.824   8.524   5.039 -0.7333  0.4408  0.1719
  477MOL0     C62887   1.951   8.465   5.077 -0.4480 -0.6263 -0.2429
  477MOL0     C62888   2.075   8.527   5.053 -1.1749  0.3550  0.2830
  477MOL0     C62889   2.081   8.649   4.987 -0.1112 -0.0942 -0.9087
  477MOL0     O62890   2.197   8.710   4.946 -1.4148 -0.5514  0.5567
  477MOL0     C62891   2.320   8.684   5.021 -0.1654 -0.4300 -0.6438
  477MOL0     C62892   2.440   8.768   4.969 -0.2178  0.8731  0.1404
  477MOL0     C62893   2.550   8.757   5.071  0.4325 -0.6369  0.1245
  477MOL0     C62894   2.662   8.852   5.027 -0.2190 -0.0805 -0.9020
  477MOL0     C62895   2.621   8.992   5.006 -0.4901 -0.3833 -1.1258
  477MOL0     C62896   2.594   9.107   4.985  0.9588 -0.0397  0.7732
  477MOL0     C62897   1.957   8.703   4.952 -1.1320 -0.0563  0.1835
  477MOL0     C62898   1.831   8.651   4.984 -0.0292 -0.4590  0.1005
  477MOL0     H62899   1.345   8.578   5.110 -0.0866  0.0637  1.8037
  477MOL0     H62900   1.129   8.451   5.052  0.6901  3.5397  1.8953
  477MOL0     H62901   1.155   8.069   4.830  0.4129  1.4835 -0.1634
  477MOL0     H62902   1.181   8.189   4.713  1.2948  0.6929  1.1245
  477MOL0     H62903   0.967   8.066   4.658  2.2017  0.2576 -0.9362
  477MOL0     H62904   0.926   8.236   4.702  1.0162 -0.4302 -3.6651
  477MOL0     H62905   0.848   8.186   4.918 -3.4915 -0.4301  0.4615
  477MOL0     H62906   0.917   8.020   4.906 -1.3527 -2.1109 -2.8714
  477MOL0     H62907   0.684   8.122   4.740 -0.2785  0.6172  1.6037
  477MOL0     H62908   0.762   7.969   4.715  1.5996 -0.2296 -0.7999
  477MOL0     H62909   0.634   8.052   4.989 -5.6221 -0.1419 -0.4151
  477MOL0     H62910   0.701   7.892   4.943 -1.2171 -0.4476  0.2673
  477MOL0     H62911   0.473   7.880   4.910 -1.2389  0.2242 -0.9847
  477MOL0     H62912   0.539   7.905   4.744  0.0971  1.1795 -0.6345
  477MOL0     H62913   0.435   8.123   4.920 -1.1385 -1.5817  1.5065
  477MOL0     H62914   0.468   8.150   4.757 -0.1738 -0.5652 -1.8312
  477MOL0     H62915   0.217   7.991   4.870 -0.4463 -2.6619 -1.6239
  477MOL0     H62916   0.290   7.949   4.716 -0.9952  0.4250 -0.0847
  477MOL0     H62917   0.206   8.070   4.533  0.5880  2.4079 -3.1971
  477MOL0     H62918   0.166   8.307   4.361  0.1788 -1.6452  1.0283
  477MOL0     H62919   0.118   8.458   4.449 -3.0995  0.4939  1.5640
  477MOL0     H62920  -0.101   8.372   4.487  0.2014 -0.2167  0.2017
  477MOL0     H62921  -0.069   8.219   4.411  1.9280 -0.0965 -0.8461
  477MOL0     H62922  -0.042   8.477   4.273 -0.0134 -1.1355  0.2370
  477MOL0     H62923  -0.038   8.324   4.189 -4.4644 -1.7975 -0.8151
  477MOL0     H62924  -0.277   8.426   4.345  2.0529 -1.4196  1.7585
  477MOL0     H62925  -0.279   8.270   4.262 -1.0283  0.0420 -1.2358
  477MOL0     H62926  -0.468   8.269   4.201 -0.4382  2.5117  1.2869
  477MOL0     H62927  -0.681   8.261   4.090  1.1340 -1.7106  0.7223
  477MOL0     H62928  -0.971   8.072   3.876  2.1121  0.1064 -1.1164
  477MOL0     H62929  -1.204   8.039   3.785 -0.6816  0.1048 -0.9923
  477MOL0     H62930  -1.387   8.325   3.531  0.5286  1.8118  1.3632
  477MOL0     H62931  -1.443   8.403   3.677 -1.1206 -0.4017  0.9054
  477MOL0     H62932  -1.569   8.158   3.563 -1.1754  0.5950 -1.6684
  477MOL0     H62933  -1.635   8.331   3.547  1.0923  1.4025 -0.1994
  477MOL0     H62934  -1.592   8.304   3.822 -0.7700  2.1822 -0.6914
  477MOL0     H62935  -1.610   8.132   3.775  1.3161 -0.0827 -0.9741
  477MOL0     H62936  -1.821   8.296   3.843  1.7725 -2.2936  1.0834
  477MOL0     H62937  -1.813   8.347   3.679  0.8410 -0.3433  0.0802
  477MOL0     H62938  -1.820   8.047   3.740  1.4551  0.9640 -0.0306
  477MOL0     H62939  -1.846   8.116   3.590  0.7403 -2.1392 -0.1249
  477MOL0     H62940  -2.054   8.042   3.663 -1.9092 -1.6304  4.7512
  477MOL0     H62941  -2.064   8.223   3.672 -1.6008  0.2042  1.5709
  477MOL0     H62942  -1.964   8.082   3.920  2.1246  1.0670 -1.5196
  477MOL0     H62943  -2.052   8.234   3.894 -3.6942  0.0400  1.2950
  477MOL0     H62944  -2.209   8.080   3.999  1.4554  1.7751 -0.2595
  477MOL0     H62945  -2.181   7.955   3.878 -1.4824  0.0183 -0.3070
  477MOL0     H62946  -1.222   8.474   3.724  0.9772  0.1711 -0.4603
  477MOL0     H62947  -1.003   8.487   3.773  1.1667 -0.9615 -1.4026
  477MOL0     H62948  -0.520   8.531   3.788  2.7272 -0.2059  0.0157
  477MOL0     H62949  -0.308   8.521   3.909  2.4454 -1.8748  2.3249
  477MOL0     H62950   1.369   8.185   4.821 -1.1770 -0.0697  0.5556
  477MOL0     H62951   1.570   8.275   4.893 -1.3142 -0.5588 -1.8408
  477MOL0     H62952   1.958   8.364   5.118 -1.0877 -1.4426 -2.0435
  477MOL0     H62953   2.162   8.469   5.081 -0.7146  0.6096 -0.5733
  477MOL0     H62954   2.355   8.581   5.029  1.0819  0.0925  1.1906
  477MOL0     H62955   2.297   8.716   5.123 -3.4585 -3.8141 -0.1066
  477MOL0     H62956   2.481   8.733   4.874 -0.2818  0.5554  0.2288
  477MOL0     H62957   2.400   8.869   4.957 -2.5812 -0.2361 -2.4883
  477MOL0     H62958   2.598   8.659   5.079 -1.0113 -1.2412  2.2880
  477MOL0     H62959   2.523   8.792   5.171 -0.0101 -0.0191 -0.2098
  477MOL0     H62960   2.745   8.861   5.099 -1.4791 -0.6287  0.6966
  477MOL0     H62961   2.703   8.819   4.932 -1.3130  1.3308 -1.9200
  477MOL0     H62962   2.552   9.203   4.963  0.7652 -0.6538 -2.0396
  477MOL0     H62963   1.961   8.801   4.906 -1.1791 -0.3742 -0.5027
  477MOL0     H62964   1.739   8.700   4.954 -0.5834  0.7531  3.3955
  478MOL0     O62965  10.274   5.375   1.417  0.7141  0.0559 -0.3680
  478MOL0     C62966  10.242   5.279   1.345  0.0620 -0.0120  0.5581
  478MOL0     O62967  10.112   5.230   1.324 -0.3441  0.0300  0.1864
  478MOL0     C62968  10.006   5.261   1.411  0.0735  0.4791  0.5803
  478MOL0     C62969   9.985   5.397   1.440 -0.2976 -0.2878  0.0834
  478MOL0     C62970   9.887   5.436   1.527 -0.0360 -0.3163  0.0143
  478MOL0     C62971   9.799   5.345   1.577  0.0050 -0.6244 -0.5789
  478MOL0     O62972   9.685   5.373   1.661 -0.1263 -0.1209 -0.2645
  478MOL0     C62973   9.658   5.513   1.694 -0.5610  0.3549 -0.2810
  478MOL0     C62974   9.571   5.521   1.819  0.6637  0.3140 -0.7229
  478MOL0     C62975   9.425   5.487   1.772  0.8645  0.6337 -0.0115
  478MOL0     C62976   9.323   5.537   1.878  0.5778  0.3815 -0.3717
  478MOL0     C62977   9.181   5.515   1.846  0.3214  0.3159 -0.2870
  478MOL0     C62978   9.078   5.567   1.947 -0.3690 -0.5231 -0.0710
  478MOL0     C62979   8.940   5.519   1.915  0.0179 -0.1880 -0.7178
  478MOL0     C62980   8.845   5.570   2.026  0.6695  0.3827  0.1238
  478MOL0     N62981   8.713   5.511   1.992 -0.1386  0.0814 -0.8026
  478MOL0     C62982   8.679   5.381   2.001  0.2756  0.3245  0.2541
  478MOL0     C62983   8.545   5.375   1.974 -0.1716  0.1896  0.3781
  478MOL0     C62984   8.469   5.246   1.955  0.8019  0.2761 -0.0513
  478MOL0     C62985   8.314   5.264   1.985 -0.4972 -0.0756 -0.3195
  478MOL0     C62986   8.255   5.122   1.999 -0.2140 -0.7557 -0.1623
  478MOL0     C62987   8.103   5.129   2.032  0.6929  0.0024 -0.6675
  478MOL0     O62988   8.037   4.995   2.030 -0.1768  0.6026  0.2731
  478MOL0     C62989   7.907   4.988   2.078  0.2299  0.0742  0.8030
  478MOL0     C62990   7.832   5.091   2.144  0.6776 -0.4233 -0.0666
  478MOL0     C62991   7.701   5.071   2.186 -0.2316  0.0998 -0.2065
  478MOL0     C62992   7.646   4.951   2.177 -0.6198  0.1150  0.3604
  478MOL0     C62993   7.507   4.923   2.213  0.5586 -0.3840 -1.2433
  478MOL0     O62994   7.445   5.013   2.293  0.2778  0.2652 -1.2426
  478MOL0     C62995   7.317   5.005   2.328 -0.0816 -0.3418  0.3602
  478MOL0     C62996   7.233   5.108   2.287  0.6290  0.2981  0.3185
  478MOL0     C62997   7.094   5.095   2.301  0.7140  0.4577 -0.2575
  478MOL0     C62998   7.037   4.977   2.349 -0.3084 -0.2935 -0.2929
  478MOL0     O62999   6.897   4.961   2.366 -0.0205 -0.2381  0.1747
  478MOL0     C63000   6.809   5.005   2.261 -0.0307 -0.1935  0.4489
  478MOL0     C63001   6.687   5.076   2.321  1.1024 -0.7786 -0.0117
  478MOL0     C63002   6.601   5.138   2.215  0.1752  0.4017 -0.6571
  478MOL0     C63003   6.480   5.229   2.262 -0.8714  0.6893 -0.3138
  478MOL0     C63004   6.367   5.238   2.160  0.3670  0.6240 -0.9030
  478MOL0     C63005   6.387   5.344   2.056 -1.0265  0.0358  1.5842
  478MOL0     C63006   6.264   5.352   1.961  0.6378  0.2754  0.1055
  478MOL0     C63007   6.207   5.486   1.921  0.3685 -0.7492 -0.2345
  478MOL0    Cl63008   6.071   5.464   1.816  0.2119 -0.1656  1.0582
  478MOL0     C63009   7.119   4.874   2.383  0.0817 -0.2606  0.5445
  478MOL0     C63010   7.259   4.887   2.364  0.4407 -0.5624 -1.1589
  478MOL0     O63011   7.450   4.828   2.153  0.9002  0.9005  0.2154
  478MOL0     C63012   7.715   4.847   2.106  0.9264  0.0667  0.1033
  478MOL0     C63013   7.844   4.865   2.055 -0.0886  0.8972  0.2255
  478MOL0     N63014   8.503   5.503   1.949  0.3145 -0.0647 -0.7683
  478MOL0     N63015   8.608   5.580   1.948 -0.0171 -0.4335 -0.9491
  478MOL0     C63016   9.814   5.216   1.549  0.7903  0.1515 -1.1174
  478MOL0     C63017   9.911   5.174   1.463  0.0454  0.3545 -0.5721
  478MOL0     C63018  10.350   5.232   1.255  0.0603  0.4422 -0.8266
  478MOL0     C63019  10.343   5.127   1.168 -0.4329  0.2581  0.4170
  478MOL0     C63020  10.445   5.094   1.075 -1.0585 -0.2898 -0.8779
  478MOL0     C63021  10.565   5.164   1.075  0.8459 -0.7827  0.1029
  478MOL0     O63022  10.656   5.143   0.974  0.2029 -0.6007  0.4898
  478MOL0     C63023  10.742   5.249   0.922  0.6108  0.4652  0.1750
  478MOL0     C63024  10.796   5.199   0.787  0.3638  1.6831  0.3518
  478MOL0     C63025  10.936   5.264   0.743  0.4296 -0.1743 -0.2296
  478MOL0     C63026  11.057   5.170   0.780 -0.3626  1.3617 -0.4545
  478MOL0     C63027  11.116   5.205   0.910  0.4472 -0.0885  0.6171
  478MOL0     C63028  11.172   5.239   1.009  0.4783  0.3790  0.4155
  478MOL0     C63029  10.575   5.270   1.165  0.2280 -0.0341 -1.0670
  478MOL0     C63030  10.477   5.310   1.259  0.4186 -0.7913 -0.6448
  478MOL0     H63031  10.047   5.478   1.405 -0.0891 -0.4340  0.1174
  478MOL0     H63032   9.866   5.540   1.550  0.2341 -0.4611  0.9694
  478MOL0     H63033   9.611   5.561   1.608 -1.3637  0.7454  0.3624
  478MOL0     H63034   9.752   5.565   1.717  0.7732 -0.8332 -2.6239
  478MOL0     H63035   9.565   5.620   1.865 -2.1836 -0.9130  1.8990
  478MOL0     H63036   9.611   5.450   1.892  1.2524 -2.0055 -3.1734
  478MOL0     H63037   9.421   5.380   1.749  0.5000  1.1813 -2.8749
  478MOL0     H63038   9.402   5.534   1.676 -1.7615 -1.7193 -0.6789
  478MOL0     H63039   9.356   5.491   1.971 -0.0615  2.8982  1.1920
  478MOL0     H63040   9.338   5.645   1.883 -0.5505  0.4942  1.0148
  478MOL0     H63041   9.168   5.407   1.834 -1.1226 -0.0174  3.2189
  478MOL0     H63042   9.171   5.548   1.742 -0.2359 -0.8621 -0.6296
  478MOL0     H63043   9.077   5.676   1.943  2.1838 -0.4562 -1.2951
  478MOL0     H63044   9.104   5.539   2.050 -0.8457  0.8249  0.4349
  478MOL0     H63045   8.917   5.557   1.815  0.2788 -1.1859 -1.1786
  478MOL0     H63046   8.947   5.410   1.926  0.3989 -0.2180 -1.2230
  478MOL0     H63047   8.837   5.679   2.018  0.6677  0.2779 -1.7875
  478MOL0     H63048   8.884   5.534   2.122 -0.3142  1.4663  0.9544
  478MOL0     H63049   8.753   5.307   2.030 -0.7317 -0.5842  0.5881
  478MOL0     H63050   8.511   5.169   2.021 -1.7172  1.7580  3.6768
  478MOL0     H63051   8.482   5.216   1.851 -2.9449  1.8748 -1.1380
  478MOL0     H63052   8.263   5.333   1.918  0.3553  1.6528  0.7528
  478MOL0     H63053   8.300   5.305   2.085 -1.8082  1.3838 -1.0784
  478MOL0     H63054   8.269   5.075   1.901 -1.1545 -0.0691 -0.6385
  478MOL0     H63055   8.310   5.067   2.076  0.0091  0.4939  0.5928
  478MOL0     H63056   8.053   5.190   1.956 -0.1733 -1.9389 -1.7235
  478MOL0     H63057   8.094   5.174   2.131  1.3765  0.2751 -0.7272
  478MOL0     H63058   7.872   5.188   2.170 -0.0428  0.0318 -0.6002
  478MOL0     H63059   7.647   5.150   2.238 -3.1465 -1.5896 -0.4744
  478MOL0     H63060   7.275   5.197   2.240  0.6808 -0.6382 -1.4888
  478MOL0     H63061   7.039   5.189   2.290  1.1622  0.5766 -1.6462
  478MOL0     H63062   6.772   4.917   2.208  1.2779 -1.1592  1.0838
  478MOL0     H63063   6.860   5.071   2.189 -1.8197 -0.1694 -0.8662
  478MOL0     H63064   6.714   5.151   2.395 -0.2363  0.6366 -0.8966
  478MOL0     H63065   6.626   5.003   2.376 -2.4183  0.6822 -1.6465
  478MOL0     H63066   6.563   5.056   2.152 -1.8429  1.0411 -0.3433
  478MOL0     H63067   6.660   5.209   2.156 -0.4700 -0.0954 -1.9603
  478MOL0     H63068   6.430   5.192   2.352  1.9583  0.6201  1.3560
  478MOL0     H63069   6.520   5.329   2.285 -3.3016  1.5600  0.4295
  478MOL0     H63070   6.276   5.263   2.215  0.1344 -0.4285 -0.7884
  478MOL0     H63071   6.354   5.141   2.111 -2.3603 -0.1397  1.1363
  478MOL0     H63072   6.476   5.326   1.995 -2.0618  1.4692 -0.4879
  478MOL0     H63073   6.411   5.439   2.105  0.7896  0.0703  0.7136
  478MOL0     H63074   6.287   5.298   1.869  0.4987 -0.8508  0.7139
  478MOL0     H63075   6.177   5.303   2.006  0.0037 -0.7671 -2.1395
  478MOL0     H63076   6.284   5.547   1.874  0.8303 -0.0367  1.3620
  478MOL0     H63077   6.185   5.541   2.013  2.2613  1.3441 -0.9384
  478MOL0     H63078   7.067   4.788   2.424 -3.4080  0.6550 -1.5324
  478MOL0     H63079   7.322   4.802   2.387 -0.3921  0.0485  5.2367
  478MOL0     H63080   7.663   4.753   2.094  1.8656 -0.3645 -0.8499
  478MOL0     H63081   7.879   4.781   1.997  1.7454  2.2173 -0.6787
  478MOL0     H63082   9.740   5.152   1.595  0.7828  2.0599  1.7438
  478MOL0     H63083   9.921   5.068   1.443  0.2082 -0.0797  1.6323
  478MOL0     H63084  10.255   5.068   1.146  0.6642 -1.0289 -0.7289
  478MOL0     H63085  10.433   5.027   0.991  0.8959 -0.2364 -1.2460
  478MOL0     H63086  10.827   5.258   0.991 -0.9338 -2.3053  2.6405
  478MOL0     H63087  10.685   5.342   0.917  0.3469  0.4098  1.8466
  478MOL0     H63088  10.807   5.091   0.772  0.5118  1.7388  0.0283
  478MOL0     H63089  10.715   5.235   0.723 -0.0398  0.9892  0.4634
  478MOL0     H63090  10.949   5.366   0.778  0.2431 -0.6712  1.4013
  478MOL0     H63091  10.919   5.257   0.635  1.7929 -0.1923 -0.4617
  478MOL0     H63092  11.027   5.066   0.773  0.1215  1.3170 -5.0360
  478MOL0     H63093  11.137   5.186   0.707 -0.2903  3.6387  0.0463
  478MOL0     H63094  11.218   5.267   1.102  3.3009  1.1491 -1.0834
  478MOL0     H63095  10.667   5.327   1.165 -0.6883  1.5502 -2.2118
  478MOL0     H63096  10.491   5.400   1.318  3.8323 -1.5225 -0.1396
  479MOL0     O63097   7.794   6.328  10.671 -0.3179  0.0512 -0.5422
  479MOL0     C63098   7.780   6.294  10.789  0.0770 -0.0052 -0.1298
  479MOL0     O63099   7.873   6.259  10.879 -0.6350  0.7268  0.0137
  479MOL0     C63100   8.003   6.281  10.845 -0.2972 -0.9216 -0.7997
  479MOL0     C63101   8.062   6.210  10.744  0.3924 -0.2359 -0.6994
  479MOL0     C63102   8.190   6.233  10.688  0.3988  0.0013  0.0611
  479MOL0     C63103   8.269   6.339  10.739  0.5538 -0.6365  0.7422
  479MOL0     O63104   8.396   6.359  10.697 -0.1980 -0.5440  0.0293
  479MOL0     C63105   8.476   6.473  10.729  0.0210  0.5765  0.2467
  479MOL0     C63106   8.594   6.466  10.631 -0.8597 -0.1507 -0.7507
  479MOL0     C63107   8.717   6.387  10.684 -0.6151 -0.3253  0.4065
  479MOL0     C63108   8.838   6.401  10.579  0.6271 -0.9227 -0.5222
  479MOL0     C63109   8.953   6.315  10.618 -0.6765  0.8362 -0.2170
  479MOL0     C63110   9.081   6.359  10.549  0.3565  0.0406  0.4233
  479MOL0     C63111   9.089   6.318  10.400 -0.7109 -0.2420  0.0610
  479MOL0     C63112   9.220   6.366  10.354  0.8329  0.3709 -0.2908
  479MOL0     N63113   9.233   6.343  10.208 -0.5743  0.1622  0.2455
  479MOL0     C63114   9.225   6.222  10.130 -0.0654 -0.0338 -0.2516
  479MOL0     C63115   9.247   6.271   9.999 -0.8695  0.2970 -0.2668
  479MOL0     C63116   9.267   6.195   9.878  0.0461  0.5849 -0.3277
  479MOL0     C63117   9.144   6.190   9.790  0.7873 -0.6254 -0.3284
  479MOL0     C63118   9.055   6.068   9.820 -0.2919  0.6758 -0.4521
  479MOL0     C63119   8.906   6.085   9.777 -0.2032 -0.3082  0.1339
  479MOL0     O63120   8.848   6.206   9.831  0.0480 -0.4970 -0.0533
  479MOL0     C63121   8.718   6.241   9.801 -0.6318  0.2860  0.3330
  479MOL0     C63122   8.637   6.188   9.696  0.2718  0.2402 -0.3349
  479MOL0     C63123   8.513   6.252   9.673 -0.6704 -0.5183  0.0951
  479MOL0     C63124   8.467   6.354   9.765 -0.0743  1.1163  0.3855
  479MOL0     C63125   8.331   6.411   9.737  0.4333  0.1533 -0.8784
  479MOL0     O63126   8.274   6.393   9.616 -0.1995  0.9835 -0.3669
  479MOL0     C63127   8.162   6.455   9.567  0.6567  0.6195 -0.2892
  479MOL0     C63128   8.098   6.394   9.465 -0.3658 -0.0033 -0.3202
  479MOL0     C63129   7.986   6.458   9.411 -0.4062 -0.5121  1.6971
  479MOL0     C63130   7.941   6.585   9.445 -0.2204 -0.3766 -0.8730
  479MOL0     O63131   7.822   6.624   9.382 -0.0702  0.3125 -0.1198
  479MOL0     C63132   7.763   6.749   9.421  0.0616 -0.3430 -0.4777
  479MOL0     C63133   7.623   6.764   9.369  0.2964  0.1340 -0.0517
  479MOL0     C63134   7.565   6.904   9.408 -0.6487 -0.2552 -0.7489
  479MOL0     C63135   7.441   6.933   9.326  0.8636 -0.1656 -0.4576
  479MOL0     C63136   7.376   7.069   9.371  0.6385  0.2820 -0.6538
  479MOL0     C63137   7.242   7.100   9.301 -0.3737 -0.1289  0.2084
  479MOL0     C63138   7.179   7.230   9.342 -0.4327  0.1584 -0.8387
  479MOL0     C63139   7.050   7.259   9.277  1.3696 -0.1481  0.2709
  479MOL0    Cl63140   6.952   7.355   9.392 -0.0623  0.0868 -0.1952
  479MOL0     C63141   8.007   6.646   9.552  0.5860  0.1193  0.3864
  479MOL0     C63142   8.127   6.582   9.607  0.3464  0.0386 -0.2713
  479MOL0     O63143   8.286   6.484   9.827  0.7993  0.3264  0.1738
  479MOL0     C63144   8.547   6.387   9.873 -1.0521 -0.9965  0.5918
  479MOL0     C63145   8.672   6.336   9.889 -0.6794 -0.1353  1.2349
  479MOL0     N63146   9.266   6.409  10.004  0.0994 -0.0987  0.0811
  479MOL0     N63147   9.239   6.454  10.126 -0.0143 -0.1072 -0.0349
  479MOL0     C63148   8.210   6.414  10.849  0.3909 -0.7261  0.1195
  479MOL0     C63149   8.083   6.387  10.895  0.6629 -0.3871  0.2267
  479MOL0     C63150   7.643   6.281  10.838  0.6082  0.7234 -0.7667
  479MOL0     C63151   7.612   6.226  10.961  1.0271  0.7621 -0.3312
  479MOL0     C63152   7.482   6.215  11.001 -0.2636  0.2458 -0.3537
  479MOL0     C63153   7.374   6.259  10.924 -1.0532 -0.6643 -0.3713
  479MOL0     O63154   7.247   6.235  10.970 -0.8636 -0.4541 -0.7083
  479MOL0     C63155   7.137   6.270  10.889 -0.2737  0.2985 -0.1994
  479MOL0     C63156   7.096   6.413  10.872 -0.0985  0.8607 -0.0086
  479MOL0     C63157   6.990   6.450  10.971 -0.3069 -0.1899 -0.1817
  479MOL0     C63158   6.886   6.533  10.904  0.5152 -0.2022  0.3978
  479MOL0     C63159   6.797   6.459  10.828  0.8910  0.5745  0.4580
  479MOL0     C63160   6.713   6.397  10.762 -0.0487 -0.0609 -0.5435
  479MOL0     C63161   7.406   6.325  10.806 -0.2571 -0.4714  0.3706
  479MOL0     C63162   7.538   6.325  10.758  0.1822  0.7948 -0.4613
  479MOL0     H63163   8.005   6.128  10.699  0.3419  0.2276 -1.4879
  479MOL0     H63164   8.230   6.191  10.596 -1.7535 -0.2805 -0.8167
  479MOL0     H63165   8.501   6.462  10.835 -2.5320 -0.3692  0.8215
  479MOL0     H63166   8.408   6.557  10.716 -1.4261 -0.6151 -0.2099
  479MOL0     H63167   8.632   6.568  10.624  0.0504 -0.2006  2.0383
  479MOL0     H63168   8.560   6.436  10.532 -1.3182 -0.8055 -0.4069
  479MOL0     H63169   8.687   6.282  10.682  1.8027 -1.1547  2.5837
  479MOL0     H63170   8.739   6.405  10.790 -1.3246 -0.6896  0.6256
  479MOL0     H63171   8.803   6.377  10.478  0.9245 -0.0357 -0.8483
  479MOL0     H63172   8.879   6.503  10.579 -0.0097 -0.6395  0.8716
  479MOL0     H63173   8.929   6.212  10.590 -1.4104  0.5067  1.4927
  479MOL0     H63174   8.973   6.310  10.725  0.2837 -0.7388 -0.4343
  479MOL0     H63175   9.165   6.308  10.597 -0.0034 -0.2151  0.7911
  479MOL0     H63176   9.088   6.465  10.572 -0.5826 -0.0555  1.2540
  479MOL0     H63177   9.069   6.214  10.371 -0.2876 -0.5768  0.9228
  479MOL0     H63178   9.021   6.379  10.341  3.0594  1.7472 -2.6580
  479MOL0     H63179   9.307   6.312  10.393  0.3278 -0.3501 -0.1441
  479MOL0     H63180   9.232   6.472  10.379 -0.2644  0.4054  0.1215
  479MOL0     H63181   9.215   6.119  10.162  0.6115 -0.3156 -0.9468
  479MOL0     H63182   9.287   6.089   9.894 -0.2436  0.8277  2.0717
  479MOL0     H63183   9.362   6.225   9.833  0.8482  0.3112  1.1064
  479MOL0     H63184   9.163   6.189   9.682 -1.0227  0.1960 -0.6948
  479MOL0     H63185   9.086   6.281   9.809  0.3971 -0.4331 -2.1984
  479MOL0     H63186   9.100   5.982   9.770  0.7825 -1.0402  3.0725
  479MOL0     H63187   9.058   6.037   9.925 -0.7330  0.8792 -0.3794
  479MOL0     H63188   8.846   5.998   9.803 -1.2327 -0.2640 -1.9135
  479MOL0     H63189   8.915   6.097   9.668 -2.9276  0.9593 -0.0225
  479MOL0     H63190   8.679   6.115   9.627  1.2600  1.5098 -1.1341
  479MOL0     H63191   8.457   6.214   9.588 -1.6382 -1.5128  1.1448
  479MOL0     H63192   8.133   6.299   9.428 -1.1531 -0.8454  1.0334
  479MOL0     H63193   7.937   6.396   9.336 -1.2767  0.0889  1.7513
  479MOL0     H63194   7.835   6.827   9.397 -0.2101 -0.4382 -1.6664
  479MOL0     H63195   7.746   6.751   9.529 -1.2654  2.2534 -0.6467
  479MOL0     H63196   7.557   6.690   9.415  1.8472 -0.8965  0.6182
  479MOL0     H63197   7.626   6.741   9.262 -1.4655 -0.6292  0.0333
  479MOL0     H63198   7.642   6.978   9.385 -0.5699  0.3453  1.3236
  479MOL0     H63199   7.540   6.904   9.514 -1.0824 -1.8834 -0.8237
  479MOL0     H63200   7.466   6.933   9.220 -0.8192  0.2809 -0.8800
  479MOL0     H63201   7.371   6.850   9.339 -0.6867  0.9320 -1.4982
  479MOL0     H63202   7.448   7.144   9.337  0.8550 -1.0917 -3.5656
  479MOL0     H63203   7.365   7.070   9.480  1.2017 -1.5188 -0.5411
  479MOL0     H63204   7.177   7.014   9.315 -2.8256  1.8338  1.7678
  479MOL0     H63205   7.257   7.087   9.193 -1.8117 -1.4580  0.1393
  479MOL0     H63206   7.158   7.211   9.448 -2.0106  0.6849 -1.0298
  479MOL0     H63207   7.241   7.319   9.327 -1.1614  1.4262  2.6743
  479MOL0     H63208   7.001   7.166   9.249  1.0722 -0.7505  2.5763
  479MOL0     H63209   7.054   7.321   9.186 -0.4598  0.3624  0.4932
  479MOL0     H63210   7.961   6.733   9.598 -0.9248 -1.2878  1.6304
  479MOL0     H63211   8.186   6.625   9.688 -1.7723 -0.5079  1.6675
  479MOL0     H63212   8.514   6.464   9.943  0.7779  1.4682 -1.0782
  479MOL0     H63213   8.742   6.372   9.963 -1.1779 -0.6076  1.9498
  479MOL0     H63214   8.258   6.498  10.899 -0.6455 -0.2795  0.4002
  479MOL0     H63215   8.053   6.447  10.981  2.5779  2.6550 -1.0449
  479MOL0     H63216   7.694   6.180  11.016  0.2795  2.4752  2.4139
  479MOL0     H63217   7.455   6.169  11.095  1.5928 -1.1656 -0.4365
  479MOL0     H63218   7.053   6.221  10.939  0.4097 -0.5145  0.1760
  479MOL0     H63219   7.158   6.215  10.797  3.7483 -1.2434  1.4030
  479MOL0     H63220   7.182   6.480  10.875 -0.8269  1.8499 -0.8192
  479MOL0     H63221   7.056   6.435  10.773 -0.0591  2.2587  0.2742
  479MOL0     H63222   7.035   6.504  11.055  1.0895  0.6807 -1.4377
  479MOL0     H63223   6.930   6.370  11.015 -0.1664 -1.6152 -2.4280
  479MOL0     H63224   6.831   6.573  10.990 -0.4550  0.9024 -0.6958
  479MOL0     H63225   6.931   6.620  10.856  1.0187  0.0363  1.2797
  479MOL0     H63226   6.633   6.356  10.705 -0.9755 -1.3063  1.5410
  479MOL0     H63227   7.332   6.369  10.739 -0.4073  0.8235  1.3454
  479MOL0     H63228   7.561   6.370  10.663  0.9448  1.1449 -0.1167
  480MOL0     O63229   2.316   1.242   4.706 -0.2906 -0.8065 -0.3021
  480MOL0     C63230   2.289   1.119   4.700  0.3081 -0.2086  0.0819
  480MOL0     O63231   2.378   1.021   4.654  0.3397  0.2197 -0.6385
  480MOL0     C63232   2.506   1.071   4.630 -0.8928  0.3829 -0.8141
  480MOL0     C63233   2.593   1.097   4.745 -0.2653 -0.7850  0.4300
  480MOL0     C63234   2.718   1.135   4.715  0.3420 -0.1942  0.2875
  480MOL0     C63235   2.766   1.158   4.582 -0.0345  0.2823  0.9878
  480MOL0     O63236   2.892   1.197   4.559 -0.3830 -0.2991 -0.1698
  480MOL0     C63237   2.926   1.338   4.594 -0.1446  0.5259  0.0417
  480MOL0     C63238   3.077   1.336   4.613 -0.0728  0.0555  0.4490
  480MOL0     C63239   3.124   1.239   4.730 -0.2733 -0.5614  0.6107
  480MOL0     C63240   3.278   1.244   4.740 -0.6150 -0.2145 -0.6704
  480MOL0     C63241   3.338   1.193   4.875  0.8341 -0.1602 -0.5645
  480MOL0     C63242   3.343   1.042   4.888 -0.0039  0.0900  0.3552
  480MOL0     C63243   3.379   0.993   5.037 -0.5149  0.0957 -0.5055
  480MOL0     C63244   3.275   1.034   5.135  0.1099 -0.1601 -0.9405
  480MOL0     N63245   3.143   1.006   5.094 -0.5580  0.0688  0.1411
  480MOL0     C63246   3.087   0.883   5.091  0.1732  0.0902  0.3311
  480MOL0     C63247   2.955   0.898   5.046  0.9827 -0.4444  0.0603
  480MOL0     C63248   2.844   0.786   5.030 -0.2925  0.6667 -0.0446
  480MOL0     C63249   2.702   0.836   5.028 -0.6849  0.7681  0.6333
  480MOL0     C63250   2.604   0.716   5.030 -0.3033 -0.3872 -0.4342
  480MOL0     C63251   2.458   0.778   5.021 -0.1862 -0.4676  0.1507
  480MOL0     O63252   2.367   0.671   5.004 -0.3604  0.1932 -0.2264
  480MOL0     C63253   2.237   0.707   5.003  0.5871  0.3082  0.2430
  480MOL0     C63254   2.145   0.600   4.987 -1.6722  0.7075  0.0459
  480MOL0     C63255   2.009   0.617   5.000  0.0294 -1.0311  0.4517
  480MOL0     C63256   1.951   0.754   4.998  0.5854  0.0341 -0.9261
  480MOL0     C63257   1.802   0.766   4.992  1.0416  0.2639  0.2238
  480MOL0     O63258   1.752   0.847   5.089  0.3359 -0.1028 -0.3044
  480MOL0     C63259   1.618   0.863   5.111  0.1587  0.2136  0.2912
  480MOL0     C63260   1.593   0.970   5.205 -0.1671 -0.1947  0.3907
  480MOL0     C63261   1.464   1.023   5.232 -0.9383 -0.1682 -0.5354
  480MOL0     C63262   1.356   0.954   5.177 -0.0076 -0.0552 -0.2740
  480MOL0     O63263   1.225   1.002   5.201 -0.4213  0.1822  0.3439
  480MOL0     C63264   1.110   0.972   5.120  0.4363  0.7865 -0.4943
  480MOL0     C63265   0.989   1.062   5.162 -0.0203 -0.1653 -0.5047
  480MOL0     C63266   1.014   1.210   5.125 -0.3107 -0.7121  0.3892
  480MOL0     C63267   0.898   1.299   5.152 -0.3288 -0.6185 -0.2115
  480MOL0     C63268   0.783   1.268   5.058  0.1099  0.7140  0.3356
  480MOL0     C63269   0.667   1.368   5.040 -0.1027  0.6776  0.3670
  480MOL0     C63270   0.549   1.302   4.955  0.6585 -0.6837 -0.1085
  480MOL0     C63271   0.435   1.413   4.924 -0.7593  0.1281  0.7470
  480MOL0    Cl63272   0.281   1.338   4.852  0.3577  0.1356 -0.2252
  480MOL0     C63273   1.371   0.843   5.087 -0.6571 -0.5533  0.4161
  480MOL0     C63274   1.505   0.798   5.060  0.3078 -0.2403 -0.0846
  480MOL0     O63275   1.735   0.683   4.928  0.1293  0.4786  0.6554
  480MOL0     C63276   2.038   0.860   5.023  0.0886 -0.0617  0.2199
  480MOL0     C63277   2.175   0.832   5.035  0.5097  0.2562 -0.2349
  480MOL0     N63278   2.932   1.035   5.028  0.4838 -0.4111 -0.2744
  480MOL0     N63279   3.045   1.099   5.054  0.1185 -0.0540  1.1881
  480MOL0     C63280   2.678   1.133   4.475  0.0137  0.6542 -0.0684
  480MOL0     C63281   2.552   1.093   4.502 -0.1236  0.3247  0.2036
  480MOL0     C63282   2.149   1.072   4.726  0.8651 -0.3681  0.5914
  480MOL0     C63283   2.061   1.170   4.775 -0.3759 -0.7809  0.1471
  480MOL0     C63284   1.926   1.138   4.789 -0.1125  0.2615  0.1151
  480MOL0     C63285   1.871   1.012   4.752  1.0161 -0.4693 -0.2443
  480MOL0     O63286   1.737   0.975   4.746  0.3679  0.7813  0.4598
  480MOL0     C63287   1.635   1.071   4.781 -0.1202  0.3365 -0.1776
  480MOL0     C63288   1.501   1.028   4.727  0.7499  0.6432 -0.2830
  480MOL0     C63289   1.392   1.134   4.730 -0.0013 -0.2161 -1.0161
  480MOL0     C63290   1.257   1.079   4.696  0.3022  0.9297  0.2404
  480MOL0     C63291   1.164   1.189   4.713  0.2666  1.0039  0.3654
  480MOL0     C63292   1.095   1.281   4.739 -0.3342 -0.2680  0.3947
  480MOL0     C63293   1.965   0.914   4.701  0.2171 -0.9865  0.2629
  480MOL0     C63294   2.100   0.942   4.686  0.1007 -0.1330  0.1277
  480MOL0     H63295   2.562   1.075   4.847  0.2858  0.6787  0.9280
  480MOL0     H63296   2.788   1.152   4.797  0.9583  2.3892 -0.6747
  480MOL0     H63297   2.877   1.373   4.685 -0.0584  0.8367 -0.0321
  480MOL0     H63298   2.896   1.401   4.510 -2.6187 -1.4634 -0.7064
  480MOL0     H63299   3.125   1.433   4.629  0.8134 -0.2501 -0.3143
  480MOL0     H63300   3.114   1.304   4.516  1.6654  1.6699  0.5237
  480MOL0     H63301   3.077   1.140   4.734 -0.4445 -0.5782 -1.0932
  480MOL0     H63302   3.081   1.281   4.822 -1.0061 -0.0187  0.0286
  480MOL0     H63303   3.317   1.187   4.655 -1.6613  2.8393 -3.3926
  480MOL0     H63304   3.309   1.348   4.725  1.3449 -0.6955 -0.2829
  480MOL0     H63305   3.288   1.246   4.956  4.5156 -0.9028  2.4895
  480MOL0     H63306   3.443   1.224   4.875  0.5973  0.6904 -1.7696
  480MOL0     H63307   3.402   0.979   4.821  2.0506 -0.6227  2.6828
  480MOL0     H63308   3.243   1.009   4.857 -0.4368  0.7442  1.0284
  480MOL0     H63309   3.405   0.887   5.042  1.7814  0.5976 -0.3416
  480MOL0     H63310   3.475   1.037   5.067 -0.7405 -1.8187  3.8276
  480MOL0     H63311   3.275   1.138   5.168  0.3923 -1.0610  2.2879
  480MOL0     H63312   3.287   0.971   5.223 -1.0613 -0.4809 -0.9936
  480MOL0     H63313   3.135   0.787   5.109  1.3007  0.3949 -0.9235
  480MOL0     H63314   2.860   0.717   5.114  3.2028 -0.2024 -1.2537
  480MOL0     H63315   2.859   0.723   4.942 -0.8678  2.0186 -1.1534
  480MOL0     H63316   2.689   0.900   4.940  0.2759 -0.0897 -0.1579
  480MOL0     H63317   2.671   0.895   5.115 -0.2404  0.8714  0.7242
  480MOL0     H63318   2.618   0.664   4.935  3.6862 -0.1175 -0.1854
  480MOL0     H63319   2.616   0.655   5.120 -2.8539  2.2025  1.8995
  480MOL0     H63320   2.449   0.848   4.937  1.2009 -1.9149 -1.2681
  480MOL0     H63321   2.442   0.831   5.115  3.6754  1.0080  0.1527
  480MOL0     H63322   2.184   0.499   4.979 -1.2020  0.9837 -1.2606
  480MOL0     H63323   1.953   0.524   4.987  0.5408 -1.1234 -1.5031
  480MOL0     H63324   1.675   1.032   5.239  1.1272 -1.3630 -0.4777
  480MOL0     H63325   1.451   1.106   5.299  1.6778  0.0405 -0.1890
  480MOL0     H63326   1.080   0.867   5.127  0.5083  0.7519 -0.7155
  480MOL0     H63327   1.127   1.001   5.016 -0.9653  0.3179 -0.8823
  480MOL0     H63328   0.980   1.054   5.270  0.9586  4.2967  0.1426
  480MOL0     H63329   0.893   1.027   5.125 -0.0731  0.1831 -0.7092
  480MOL0     H63330   1.044   1.220   5.020  4.2307 -2.2018  1.3172
  480MOL0     H63331   1.095   1.247   5.189 -1.6315  1.9921  0.6295
  480MOL0     H63332   0.868   1.281   5.256  1.5152 -0.8672  0.3056
  480MOL0     H63333   0.919   1.407   5.148 -3.8915  0.2225  0.2854
  480MOL0     H63334   0.743   1.180   5.109  0.5837  1.5108  2.1655
  480MOL0     H63335   0.823   1.246   4.959  2.3681  1.7673  0.9307
  480MOL0     H63336   0.703   1.453   4.982  0.4801  1.5104  1.8944
  480MOL0     H63337   0.632   1.394   5.140  1.3526 -3.6015  2.2237
  480MOL0     H63338   0.586   1.255   4.863  1.5686 -0.7359  0.2743
  480MOL0     H63339   0.502   1.224   5.016 -1.4357  1.8207  1.6584
  480MOL0     H63340   0.485   1.478   4.852  0.2418  0.3444  1.6111
  480MOL0     H63341   0.417   1.466   5.018  0.7914 -0.2855  1.3057
  480MOL0     H63342   1.285   0.794   5.040 -0.6135 -1.8531  1.6310
  480MOL0     H63343   1.501   0.705   5.006 -0.0529  0.1831 -0.8010
  480MOL0     H63344   1.993   0.956   5.045 -1.0089 -0.1980 -1.2310
  480MOL0     H63345   2.236   0.913   5.076 -2.2492  1.8286  1.0715
  480MOL0     H63346   2.706   1.154   4.372  1.0120  2.6284  0.5493
  480MOL0     H63347   2.476   1.065   4.431  0.9322 -0.5234 -0.6365
  480MOL0     H63348   2.102   1.265   4.808  2.3005 -0.2499 -3.9188
  480MOL0     H63349   1.854   1.212   4.822 -1.8720 -1.2443 -0.1754
  480MOL0     H63350   1.669   1.168   4.742 -1.4399  0.1399 -1.9514
  480MOL0     H63351   1.623   1.071   4.889 -1.3306 -3.5831 -0.1663
  480MOL0     H63352   1.510   0.994   4.623  0.5356  2.4183 -0.9122
  480MOL0     H63353   1.471   0.948   4.796 -0.1344  1.1020 -0.1209
  480MOL0     H63354   1.429   1.206   4.656 -0.5320 -0.5752 -1.6458
  480MOL0     H63355   1.383   1.183   4.827 -1.7415 -1.5932 -0.4183
  480MOL0     H63356   1.262   1.034   4.596  3.2002  1.0334  0.2622
  480MOL0     H63357   1.211   1.005   4.762 -0.7174  1.4779  0.1644
  480MOL0     H63358   1.032   1.360   4.776  0.0964  1.2235 -1.8723
  480MOL0     H63359   1.931   0.815   4.672 -2.3376 -0.7437  2.0742
  480MOL0     H63360   2.155   0.871   4.625 -0.9374 -0.5743 -0.3295
  481MOL0     O63361   1.425   3.276   4.925  0.4394 -0.4757  0.6299
  481MOL0     C63362   1.459   3.181   4.999 -0.3898 -0.2294 -0.4586
  481MOL0     O63363   1.378   3.081   5.050  0.4589 -0.1024 -0.9611
  481MOL0     C63364   1.240   3.094   5.052 -0.1450 -0.0765  0.7911
  481MOL0     C63365   1.168   3.191   5.121 -0.0130 -0.7001 -1.1158
  481MOL0     C63366   1.031   3.189   5.126  0.0683  1.7141  0.3687
  481MOL0     C63367   0.958   3.102   5.050 -0.5011 -0.4271 -0.2788
  481MOL0     O63368   0.823   3.088   5.036  0.6908 -1.1510  0.7770
  481MOL0     C63369   0.741   3.161   5.129 -0.7092  0.1694  0.4958
  481MOL0     C63370   0.598   3.144   5.085  1.1306  0.3216  0.2966
  481MOL0     C63371   0.508   3.256   5.147 -1.3592  0.1079  0.1102
  481MOL0     C63372   0.366   3.225   5.117  1.1639 -0.5583 -0.8269
  481MOL0     C63373   0.282   3.353   5.142 -0.2981 -0.7169 -0.1152
  481MOL0     C63374   0.145   3.336   5.097  1.2103  0.6742  1.5809
  481MOL0     C63375   0.070   3.459   5.137  0.3354 -0.5977  0.8921
  481MOL0     C63376  -0.075   3.435   5.091 -0.2877 -0.4590  0.3892
  481MOL0     N63377  -0.163   3.533   5.146  0.5285 -0.9368 -0.3312
  481MOL0     C63378  -0.137   3.663   5.139  0.4061 -0.2374 -0.3321
  481MOL0     C63379  -0.241   3.732   5.189  0.2574  0.6520  0.3458
  481MOL0     C63380  -0.250   3.878   5.192 -0.0465  0.1596 -0.4581
  481MOL0     C63381  -0.384   3.922   5.272 -0.3348  0.0040 -0.5790
  481MOL0     C63382  -0.394   4.077   5.264 -0.8303 -0.1495 -0.4125
  481MOL0     C63383  -0.525   4.124   5.335  0.1278  0.7501  0.5340
  481MOL0     O63384  -0.525   4.265   5.344  0.3275 -0.5340 -0.0181
  481MOL0     C63385  -0.632   4.315   5.409 -0.5904 -1.4416  0.6047
  481MOL0     C63386  -0.746   4.256   5.463  0.1186 -0.1848  0.4156
  481MOL0     C63387  -0.854   4.325   5.524  0.5499 -0.5429 -0.2287
  481MOL0     C63388  -0.837   4.469   5.540  0.5705  0.4644  0.6559
  481MOL0     C63389  -0.946   4.542   5.611 -0.1256 -0.0126 -0.8262
  481MOL0     O63390  -1.028   4.463   5.688  0.4475  0.2580 -0.7662
  481MOL0     C63391  -1.131   4.517   5.761 -0.0069 -0.4027  0.2305
  481MOL0     C63392  -1.227   4.613   5.716 -0.7168 -0.2754  0.1582
  481MOL0     C63393  -1.330   4.663   5.802 -0.5921  0.1918 -0.8713
  481MOL0     C63394  -1.354   4.602   5.929 -0.0140 -0.0708 -0.6780
  481MOL0     O63395  -1.466   4.641   6.004  0.4151  0.1449 -0.0377
  481MOL0     C63396  -1.476   4.785   6.004 -0.3930 -0.5786 -0.6128
  481MOL0     C63397  -1.569   4.830   6.113  0.0948  0.4518  0.2271
  481MOL0     C63398  -1.630   4.968   6.097  0.3087 -0.4292 -0.2006
  481MOL0     C63399  -1.529   5.082   6.052  0.2551 -0.7376  0.2375
  481MOL0     C63400  -1.602   5.215   6.051  0.4319 -0.0328 -0.6043
  481MOL0     C63401  -1.507   5.334   6.036 -0.1839 -0.3238  0.2868
  481MOL0     C63402  -1.567   5.469   6.012  0.0371  0.4349 -0.6905
  481MOL0     C63403  -1.480   5.580   6.060 -0.2043  0.1507 -0.1057
  481MOL0    Cl63404  -1.558   5.730   6.013 -0.1366 -0.2642 -0.1429
  481MOL0     C63405  -1.273   4.504   5.970  0.1887 -0.6494 -0.9140
  481MOL0     C63406  -1.160   4.461   5.889  0.1956  0.7676 -0.5070
  481MOL0     O63407  -0.947   4.663   5.601 -0.2060  0.2897  0.3480
  481MOL0     C63408  -0.722   4.529   5.481 -0.3824 -0.0651 -0.2654
  481MOL0     C63409  -0.624   4.458   5.425 -0.7348 -0.2540  1.3805
  481MOL0     N63410  -0.327   3.635   5.229  0.2932 -1.0504  0.9664
  481MOL0     N63411  -0.282   3.512   5.204  0.6319  0.2714 -0.2571
  481MOL0     C63412   1.029   3.011   4.973  0.3064  0.7260  0.1551
  481MOL0     C63413   1.170   3.006   4.975  0.1946  0.3266  0.2103
  481MOL0     C63414   1.597   3.171   5.036  0.0625  0.2951  0.1057
  481MOL0     C63415   1.697   3.255   4.974  1.2291 -0.2003  0.6743
  481MOL0     C63416   1.833   3.242   4.996  0.2556  0.1286 -0.2679
  481MOL0     C63417   1.879   3.148   5.090  0.3838 -0.1056 -0.0184
  481MOL0     O63418   2.016   3.116   5.119 -0.0189 -0.3393  0.2505
  481MOL0     C63419   2.122   3.190   5.061  0.0862  0.4510  0.3983
  481MOL0     C63420   2.244   3.105   5.057  0.7702 -0.1200  0.5806
  481MOL0     C63421   2.373   3.177   5.015  0.1142 -0.1154 -0.2231
  481MOL0     C63422   2.493   3.078   5.028  1.2696 -0.1733 -0.3543
  481MOL0     C63423   2.574   3.052   4.904 -0.0074  0.3027  0.2886
  481MOL0     C63424   2.638   3.031   4.799 -0.1706 -0.2022 -0.4133
  481MOL0     C63425   1.778   3.076   5.159  0.4277 -0.4665  0.2718
  481MOL0     C63426   1.639   3.085   5.133 -0.4539 -0.5332 -0.6576
  481MOL0     H63427   1.214   3.260   5.191 -1.8474 -0.8973  0.3776
  481MOL0     H63428   0.968   3.257   5.183 -0.2416  1.5204  0.2553
  481MOL0     H63429   0.774   3.265   5.119  0.3353 -0.2575 -0.7556
  481MOL0     H63430   0.767   3.131   5.231  1.0764  1.0148  0.3250
  481MOL0     H63431   0.567   3.046   5.122  1.5704 -0.3220 -0.9771
  481MOL0     H63432   0.597   3.139   4.976  0.7879 -4.6379  0.2903
  481MOL0     H63433   0.541   3.355   5.117 -0.9349  1.8727  5.2871
  481MOL0     H63434   0.530   3.246   5.254  2.3338 -1.2500 -0.6493
  481MOL0     H63435   0.359   3.196   5.011  1.2152  1.4635 -1.4330
  481MOL0     H63436   0.326   3.149   5.184  1.6542  1.3956  1.8220
  481MOL0     H63437   0.329   3.434   5.085  3.0335 -0.9319  2.0488
  481MOL0     H63438   0.286   3.383   5.247  1.4349 -1.3194  0.0248
  481MOL0     H63439   0.101   3.242   5.130 -0.9553  0.7745 -0.6747
  481MOL0     H63440   0.150   3.332   4.988  0.5901 -0.3295  1.5784
  481MOL0     H63441   0.062   3.473   5.245 -2.5799 -1.9922  0.9455
  481MOL0     H63442   0.108   3.548   5.086  0.8532 -1.4135 -0.1746
  481MOL0     H63443  -0.105   3.337   5.129  0.0696 -0.0004  1.9357
  481MOL0     H63444  -0.070   3.445   4.982  2.5963 -0.5273  0.4364
  481MOL0     H63445  -0.054   3.710   5.085  2.6630 -1.9318  1.4387
  481MOL0     H63446  -0.253   3.925   5.094  1.3701  2.2652  0.4344
  481MOL0     H63447  -0.162   3.920   5.241 -0.2584 -0.7215  0.7333
  481MOL0     H63448  -0.374   3.909   5.380 -2.8696  0.5613 -0.2219
  481MOL0     H63449  -0.471   3.864   5.240 -1.9355  2.1730 -0.3971
  481MOL0     H63450  -0.308   4.112   5.323  0.6378 -2.7965 -0.8316
  481MOL0     H63451  -0.386   4.107   5.159 -2.2978 -0.2250 -0.5613
  481MOL0     H63452  -0.527   4.078   5.434 -0.8485 -1.5992 -0.5207
  481MOL0     H63453  -0.618   4.095   5.284  0.4159  1.4049 -0.4046
  481MOL0     H63454  -0.751   4.148   5.452  0.6604 -0.0133 -2.1986
  481MOL0     H63455  -0.939   4.268   5.560  1.6867 -1.5596  0.9659
  481MOL0     H63456  -1.199   4.647   5.616  0.4143 -1.9049 -0.1251
  481MOL0     H63457  -1.396   4.736   5.756 -1.8180 -0.6688 -0.5123
  481MOL0     H63458  -1.508   4.814   5.903  1.0150 -0.1752 -0.9651
  481MOL0     H63459  -1.375   4.825   6.009  0.1852 -1.9863 -0.5786
  481MOL0     H63460  -1.511   4.841   6.205 -0.1695 -1.9211  0.7275
  481MOL0     H63461  -1.651   4.759   6.126 -0.7756  1.2091 -0.8926
  481MOL0     H63462  -1.668   5.005   6.193 -0.8898  2.3589 -1.6360
  481MOL0     H63463  -1.718   4.955   6.033  0.4999 -1.9910 -0.1904
  481MOL0     H63464  -1.440   5.081   6.117 -0.4227 -1.2970  1.1787
  481MOL0     H63465  -1.496   5.062   5.949 -0.7462  0.0728 -0.2577
  481MOL0     H63466  -1.648   5.227   6.149  2.7039 -3.1185  1.0091
  481MOL0     H63467  -1.674   5.214   5.969  0.6465 -0.0878 -0.7957
  481MOL0     H63468  -1.432   5.317   5.958 -1.5267  0.2658 -1.1839
  481MOL0     H63469  -1.442   5.338   6.125  1.0970 -1.3440 -0.5637
  481MOL0     H63470  -1.588   5.484   5.906 -3.6775 -1.9239 -0.4730
  481MOL0     H63471  -1.662   5.473   6.067  0.1924  1.6862 -0.4750
  481MOL0     H63472  -1.383   5.583   6.010 -0.4925  1.4538 -0.6460
  481MOL0     H63473  -1.456   5.577   6.167  1.2509  1.0258 -0.3686
  481MOL0     H63474  -1.282   4.451   6.064 -1.1899 -0.2035 -0.7804
  481MOL0     H63475  -1.084   4.395   5.931 -1.0262  0.7899  1.8763
  481MOL0     H63476  -0.717   4.636   5.498 -2.2312  0.1308 -0.7899
  481MOL0     H63477  -0.546   4.511   5.371 -0.1262 -3.0731 -0.7685
  481MOL0     H63478   0.980   2.941   4.906 -1.3917 -0.1524  2.1962
  481MOL0     H63479   1.216   2.942   4.899 -0.1801  0.4593 -0.1329
  481MOL0     H63480   1.670   3.341   4.913  2.3733 -1.2823 -1.4676
  481MOL0     H63481   1.908   3.308   4.954  1.2077  0.6735  2.1088
  481MOL0     H63482   2.147   3.279   5.119  0.4006  0.9211 -0.4530
  481MOL0     H63483   2.109   3.220   4.957  0.4270 -1.8616 -0.3828
  481MOL0     H63484   2.251   3.044   5.148 -0.1828 -2.5063 -0.8500
  481MOL0     H63485   2.225   3.033   4.977  1.3993 -1.3072  1.4628
  481MOL0     H63486   2.390   3.254   5.092  0.8132 -0.0917 -0.3904
  481MOL0     H63487   2.369   3.226   4.917 -2.2054 -4.9526 -2.8884
  481MOL0     H63488   2.553   3.104   5.115 -0.1935  0.0745  0.6244
  481MOL0     H63489   2.461   2.978   5.056  1.9299 -0.3369 -0.1796
  481MOL0     H63490   2.689   3.029   4.705  0.4605 -0.8024 -0.0658
  481MOL0     H63491   1.813   2.993   5.221  0.4668  0.6842  1.8561
  481MOL0     H63492   1.562   3.026   5.184 -1.8312  1.4786 -0.3100
  482MOL0     O63493   3.392   9.693   8.761 -0.5441  0.0376  0.1771
  482MOL0     C63494   3.494   9.635   8.732  0.2855  0.6056 -0.2746
  482MOL0     O63495   3.494   9.503   8.698 -0.2118  0.5000  0.0522
  482MOL0     C63496   3.381   9.435   8.651 -0.2907 -0.9159  0.0693
  482MOL0     C63497   3.261   9.490   8.593  0.3987  0.0701  0.3828
  482MOL0     C63498   3.157   9.404   8.557  0.5529 -0.5540 -0.0879
  482MOL0     C63499   3.173   9.267   8.568  0.6430  0.1132  1.1686
  482MOL0     O63500   3.078   9.175   8.518 -0.0475 -0.5571  0.1971
  482MOL0     C63501   2.951   9.181   8.576  1.0090  1.2684 -0.2990
  482MOL0     C63502   2.952   9.164   8.728 -0.2434  0.4988  0.4965
  482MOL0     C63503   2.813   9.200   8.784 -0.4679  0.3853  0.2291
  482MOL0     C63504   2.783   9.162   8.931  0.4577  0.0902  0.1861
  482MOL0     C63505   2.650   9.113   8.984 -0.3990 -0.1173 -0.5902
  482MOL0     C63506   2.567   9.237   9.008  0.3889 -0.2955 -0.6093
  482MOL0     C63507   2.421   9.201   9.049 -1.0380 -0.1786  0.4590
  482MOL0     C63508   2.339   9.330   9.070  0.6431  0.7965  0.2461
  482MOL0     N63509   2.200   9.288   9.103  0.0421 -0.1925  0.2458
  482MOL0     C63510   2.089   9.311   9.023 -0.6623 -0.9963  0.6978
  482MOL0     C63511   1.975   9.266   9.091 -0.2994  0.2579  0.2584
  482MOL0     C63512   1.823   9.267   9.061  0.1713  0.3315 -0.2701
  482MOL0     C63513   1.784   9.366   8.954 -0.2061 -0.2613 -0.4281
  482MOL0     C63514   1.638   9.368   8.921  0.7109 -0.6048 -0.3031
  482MOL0     C63515   1.617   9.428   8.780 -0.5797  0.2826  0.6521
  482MOL0     O63516   1.486   9.466   8.740 -0.4020 -0.2881 -0.6959
  482MOL0     C63517   1.385   9.380   8.778 -0.6406 -1.2691  0.2909
  482MOL0     C63518   1.295   9.420   8.877 -0.1251  0.1413  0.0934
  482MOL0     C63519   1.180   9.344   8.909 -0.4583  0.5116  0.0630
  482MOL0     C63520   1.156   9.227   8.833  0.1959  1.2501 -1.5771
  482MOL0     C63521   1.036   9.153   8.857  1.0669  0.5030 -0.0500
  482MOL0     O63522   1.022   9.028   8.805 -0.8935 -0.2602  0.6007
  482MOL0     C63523   0.904   8.971   8.787  0.0081  0.7063 -0.3814
  482MOL0     C63524   0.906   8.835   8.804 -0.0964  0.9309  0.1272
  482MOL0     C63525   0.797   8.758   8.779  0.1278 -0.5895 -0.1681
  482MOL0     C63526   0.676   8.818   8.730 -0.0751  0.1374 -0.7819
  482MOL0     O63527   0.580   8.740   8.665  0.2423  0.7609  0.0957
  482MOL0     C63528   0.558   8.601   8.700 -0.2157 -0.4777 -0.3012
  482MOL0     C63529   0.420   8.557   8.662 -0.0529 -0.3460 -0.4010
  482MOL0     C63530   0.321   8.610   8.771 -0.1958  0.2546 -0.0819
  482MOL0     C63531   0.183   8.600   8.704  0.1141 -0.0886  0.0476
  482MOL0     C63532   0.075   8.669   8.786  0.3683 -0.4046 -0.5399
  482MOL0     C63533  -0.065   8.625   8.740 -0.7026  0.0427  0.3124
  482MOL0     C63534  -0.162   8.736   8.772 -0.5814 -0.1808 -0.0052
  482MOL0     C63535  -0.298   8.724   8.708 -1.6059  0.5610  0.0778
  482MOL0    Cl63536  -0.377   8.565   8.749  0.6274  0.0939  0.0735
  482MOL0     C63537   0.669   8.961   8.723 -0.1136  0.0634 -0.0997
  482MOL0     C63538   0.784   9.036   8.747 -0.7995  0.2750 -0.6850
  482MOL0     O63539   0.949   9.205   8.933  0.5569 -0.0285  0.2038
  482MOL0     C63540   1.252   9.185   8.742 -0.4715  0.2227  0.6990
  482MOL0     C63541   1.361   9.265   8.704 -0.3487  0.0742 -0.4981
  482MOL0     N63542   2.035   9.209   9.208  0.3250  0.0043 -0.9075
  482MOL0     N63543   2.160   9.225   9.218 -0.2781  1.1157  0.8300
  482MOL0     C63544   3.294   9.205   8.610 -0.3743 -0.1443 -0.6895
  482MOL0     C63545   3.398   9.292   8.653 -0.1877  0.5955  0.2896
  482MOL0     C63546   3.624   9.711   8.729  0.8973  0.5929  0.6877
  482MOL0     C63547   3.744   9.639   8.696  0.0585 -0.3266  0.7771
  482MOL0     C63548   3.864   9.716   8.717  0.9145  0.2291 -1.0781
  482MOL0     C63549   3.865   9.850   8.761 -0.0105  0.0702  0.1567
  482MOL0     O63550   3.992   9.899   8.785 -0.2167  0.0555  0.2049
  482MOL0     C63551   3.998  10.035   8.831  0.8370 -0.8190  0.4414
  482MOL0     C63552   4.149  10.065   8.847 -0.4212 -0.3965  0.3397
  482MOL0     C63553   4.170  10.158   8.966 -0.7359  0.0799 -0.3087
  482MOL0     C63554   4.312  10.198   8.996  0.4399 -0.0973 -0.3312
  482MOL0     C63555   4.393  10.250   8.886  0.0602 -1.0666  0.3683
  482MOL0     C63556   4.453  10.290   8.787 -0.3168 -0.4417 -0.6815
  482MOL0     C63557   3.748   9.922   8.774 -0.1576 -0.2147  0.0081
  482MOL0     C63558   3.625   9.847   8.773 -0.0033  0.3932  0.3863
  482MOL0     H63559   3.257   9.594   8.565  0.1569 -0.6648 -2.6727
  482MOL0     H63560   3.067   9.450   8.519  0.5879  0.2150  0.7305
  482MOL0     H63561   2.891   9.098   8.538  0.1096  0.9106  1.7408
  482MOL0     H63562   2.893   9.271   8.554  0.0192  1.1962  1.7995
  482MOL0     H63563   3.014   9.240   8.776 -0.2414 -0.3519  1.9093
  482MOL0     H63564   2.982   9.064   8.760 -4.0953 -0.4092  1.8463
  482MOL0     H63565   2.740   9.144   8.726 -1.6051  0.1697  1.7923
  482MOL0     H63566   2.802   9.307   8.764  2.4557  1.0846  1.7604
  482MOL0     H63567   2.840   9.068   8.928  3.7454  1.8193  2.0055
  482MOL0     H63568   2.831   9.231   9.000  3.8149 -0.2948 -1.5270
  482MOL0     H63569   2.665   9.064   9.081  0.0144  2.1876  0.5669
  482MOL0     H63570   2.606   9.045   8.909  2.6065 -2.5740 -0.3393
  482MOL0     H63571   2.561   9.311   8.928  1.0548  1.0057  0.5144
  482MOL0     H63572   2.624   9.283   9.089  2.8380  1.8959 -3.3310
  482MOL0     H63573   2.383   9.145   8.963  0.5192  2.4399 -2.1284
  482MOL0     H63574   2.432   9.143   9.141  2.5830 -1.1107 -0.4062
  482MOL0     H63575   2.345   9.392   8.980  1.5254  1.9570  1.0549
  482MOL0     H63576   2.381   9.391   9.151  0.3885  1.1661  0.1029
  482MOL0     H63577   2.088   9.358   8.926  4.5266 -0.6617  0.5534
  482MOL0     H63578   1.782   9.289   9.160 -1.6513  1.8909 -1.2981
  482MOL0     H63579   1.783   9.167   9.039 -3.0063  1.5273 -0.5591
  482MOL0     H63580   1.848   9.345   8.867  1.5868  0.9517  0.5426
  482MOL0     H63581   1.808   9.465   8.994  0.9666 -1.0955  1.0034
  482MOL0     H63582   1.594   9.268   8.910 -2.1198  0.6363 -1.2032
  482MOL0     H63583   1.582   9.426   8.995 -0.7616 -1.0767 -1.0025
  482MOL0     H63584   1.651   9.355   8.706 -0.2949  1.1408 -0.0820
  482MOL0     H63585   1.676   9.516   8.751  1.2531 -1.0383  0.1462
  482MOL0     H63586   1.320   9.511   8.931  2.4873  0.2909 -1.2033
  482MOL0     H63587   1.111   9.384   8.982 -0.2684  0.2384  0.3990
  482MOL0     H63588   0.999   8.782   8.824 -1.4084 -1.4647  0.2580
  482MOL0     H63589   0.805   8.650   8.775 -1.3034 -0.7575  0.6912
  482MOL0     H63590   0.561   8.590   8.809 -2.2022 -2.3677 -0.3714
  482MOL0     H63591   0.635   8.534   8.660  0.5624 -0.1146  0.5512
  482MOL0     H63592   0.422   8.448   8.658  2.1883 -0.3383 -3.6248
  482MOL0     H63593   0.397   8.591   8.560 -1.4020 -0.4198 -0.1368
  482MOL0     H63594   0.348   8.713   8.797  0.9742 -0.1280  0.2866
  482MOL0     H63595   0.335   8.551   8.862  0.0546 -0.1800 -0.3992
  482MOL0     H63596   0.179   8.642   8.603 -3.4677 -0.7696 -0.2526
  482MOL0     H63597   0.155   8.494   8.691 -0.0611  0.0806 -1.0962
  482MOL0     H63598   0.091   8.777   8.783  0.8517 -0.3793  1.3879
  482MOL0     H63599   0.077   8.633   8.889 -0.4313  0.3703 -0.2429
  482MOL0     H63600  -0.097   8.531   8.785 -0.3059  0.1426  0.8230
  482MOL0     H63601  -0.066   8.611   8.632 -0.7813  3.3082 -0.2321
  482MOL0     H63602  -0.174   8.756   8.879  2.2147  2.0445 -0.0085
  482MOL0     H63603  -0.117   8.830   8.741  2.4711 -0.1754  3.6710
  482MOL0     H63604  -0.282   8.735   8.601  0.8215  0.4491  0.3545
  482MOL0     H63605  -0.360   8.807   8.741 -0.7489  1.9105 -1.5776
  482MOL0     H63606   0.580   9.019   8.701  0.2627  0.3529 -0.9407
  482MOL0     H63607   0.781   9.142   8.724 -0.2266  0.1357 -1.4582
  482MOL0     H63608   1.241   9.096   8.680  2.5622  0.8065 -0.8604
  482MOL0     H63609   1.426   9.248   8.619  0.7885  2.0295 -0.0798
  482MOL0     H63610   3.314   9.099   8.621  3.5408  0.6612  2.4117
  482MOL0     H63611   3.486   9.248   8.700 -1.3999  0.4579  2.5661
  482MOL0     H63612   3.765   9.535   8.676  0.1006 -1.2173  4.6205
  482MOL0     H63613   3.958   9.663   8.716  1.1352  0.5562  0.4012
  482MOL0     H63614   3.945  10.049   8.926 -2.2106 -2.2874 -0.8911
  482MOL0     H63615   3.941  10.104   8.767 -0.3311  0.0694  2.3494
  482MOL0     H63616   4.203   9.976   8.878 -1.8061 -0.9967  1.0915
  482MOL0     H63617   4.191  10.097   8.751 -0.3399 -0.9198  0.1976
  482MOL0     H63618   4.142  10.106   9.057 -1.4019 -1.3992 -1.3229
  482MOL0     H63619   4.109  10.248   8.957  2.7301  2.5778 -1.0240
  482MOL0     H63620   4.308  10.290   9.055  2.8485  0.4639 -0.9256
  482MOL0     H63621   4.365  10.115   9.044  0.5075 -0.6862 -1.3986
  482MOL0     H63622   4.521  10.338   8.719  1.2210 -2.9082 -1.0344
  482MOL0     H63623   3.736  10.025   8.806 -1.4881 -0.3088 -0.1408
  482MOL0     H63624   3.531   9.898   8.795  1.4533  2.8304  1.3601
  483MOL0     O63625   3.538   7.284   6.088 -0.2340 -0.2915  0.5368
  483MOL0     C63626   3.549   7.167   6.042 -0.6116 -0.4203  0.3533
  483MOL0     O63627   3.449   7.079   6.001  0.4921  0.6042  0.4371
  483MOL0     C63628   3.315   7.083   6.048 -0.9067 -0.4209 -0.8863
  483MOL0     C63629   3.239   7.194   6.118 -0.1362  1.1706  0.6872
  483MOL0     C63630   3.101   7.183   6.139 -0.1800  0.5821 -0.1026
  483MOL0     C63631   3.035   7.058   6.108  0.1621  0.7981 -0.2631
  483MOL0     O63632   2.903   7.026   6.144 -0.3350  0.1455  0.3692
  483MOL0     C63633   2.821   7.136   6.172 -0.1722  0.3014 -0.1523
  483MOL0     C63634   2.675   7.109   6.143 -0.2639  0.3039  0.0029
  483MOL0     C63635   2.656   7.093   6.002 -0.2665  0.6213 -0.0677
  483MOL0     C63636   2.522   7.024   5.969 -1.1060  0.1832  0.0117
  483MOL0     C63637   2.506   6.971   5.822 -0.2879  0.6362  0.3793
  483MOL0     C63638   2.613   6.876   5.754 -0.3515  0.2160  0.9376
  483MOL0     C63639   2.643   6.742   5.835 -0.7482  0.1361 -0.2914
  483MOL0     C63640   2.517   6.655   5.848  0.2055 -0.0572  0.0480
  483MOL0     N63641   2.536   6.521   5.908 -0.5022 -0.9332 -0.1033
  483MOL0     C63642   2.575   6.412   5.836  0.1106  0.2655  0.3608
  483MOL0     C63643   2.543   6.308   5.912 -0.9901 -0.4224 -0.3898
  483MOL0     C63644   2.571   6.168   5.882  0.4552  0.1677  0.2441
  483MOL0     C63645   2.725   6.131   5.870  0.0544  0.7876  0.1598
  483MOL0     C63646   2.788   6.119   6.005 -0.2351  0.2780  0.1439
  483MOL0     C63647   2.932   6.090   5.989 -0.1509  0.2477  0.1594
  483MOL0     O63648   2.992   6.085   6.118 -0.3901  0.3235  0.0601
  483MOL0     C63649   3.135   6.079   6.117  1.1373  0.9297 -0.3440
  483MOL0     C63650   3.217   6.078   6.006  0.1724  1.5435  0.8476
  483MOL0     C63651   3.357   6.068   6.018 -0.7985  0.5382 -0.3018
  483MOL0     C63652   3.414   6.056   6.150 -0.3028  1.7627  0.8261
  483MOL0     C63653   3.558   6.033   6.174  0.5206 -0.0351 -0.0276
  483MOL0     O63654   3.642   6.086   6.076 -0.1621  0.9818  0.0116
  483MOL0     C63655   3.776   6.088   6.122 -0.0565 -0.2288 -0.5803
  483MOL0     C63656   3.854   5.980   6.124 -0.1472 -0.0893 -0.3381
  483MOL0     C63657   3.995   5.986   6.139  0.1377  0.9297  0.4736
  483MOL0     C63658   4.059   6.098   6.191 -0.6721  0.2404  0.1291
  483MOL0     O63659   4.189   6.085   6.224  0.3309  0.5624  0.7794
  483MOL0     C63660   4.264   6.212   6.243 -0.2515  0.8739 -1.0529
  483MOL0     C63661   4.408   6.178   6.264 -0.4588  0.6832  0.2512
  483MOL0     C63662   4.494   6.302   6.238  0.3644 -1.0073 -0.6776
  483MOL0     C63663   4.640   6.250   6.241 -0.5808  0.1983  0.5266
  483MOL0     C63664   4.737   6.365   6.231  0.9233  0.5672  0.3226
  483MOL0     C63665   4.876   6.309   6.243 -1.1638 -0.0204 -0.3650
  483MOL0     C63666   4.978   6.424   6.228 -0.1981 -0.0991 -0.8792
  483MOL0     C63667   5.131   6.395   6.210  0.5776  0.0442  0.3428
  483MOL0    Cl63668   5.209   6.550   6.160  0.4336  0.3035 -0.1302
  483MOL0     C63669   3.978   6.213   6.200 -0.5484 -0.3524  0.4382
  483MOL0     C63670   3.844   6.209   6.163  0.6723  1.1267  0.0545
  483MOL0     O63671   3.595   5.976   6.280 -0.1899  0.1468  0.6092
  483MOL0     C63672   3.325   6.053   6.264 -0.1224  0.3218 -1.2098
  483MOL0     C63673   3.188   6.070   6.243  0.5075  0.0526 -0.1251
  483MOL0     N63674   2.482   6.350   6.028 -0.1400  0.7317 -0.2702
  483MOL0     N63675   2.477   6.478   6.018 -0.4001 -0.3584 -0.6810
  483MOL0     C63676   3.116   6.950   6.055  0.5053  0.2197  0.2559
  483MOL0     C63677   3.254   6.964   6.031 -0.3239 -0.4351 -0.1996
  483MOL0     C63678   3.690   7.124   6.013  0.0512  0.0966 -0.5750
  483MOL0     C63679   3.704   6.998   5.961 -0.1081 -0.2203 -0.0156
  483MOL0     C63680   3.837   6.955   5.947  0.1602  0.2099  1.1046
  483MOL0     C63681   3.944   7.031   5.976 -0.5494 -0.4279  0.5691
  483MOL0     O63682   4.065   6.981   5.943  0.1963  0.2758 -0.2235
  483MOL0     C63683   4.176   7.023   6.019 -0.7722  0.5381  0.0720
  483MOL0     C63684   4.185   6.987   6.169 -0.6051 -0.5219 -0.1818
  483MOL0     C63685   4.315   6.994   6.242 -0.3266 -0.2960 -1.3561
  483MOL0     C63686   4.386   7.132   6.258  0.0857  1.0076 -0.5848
  483MOL0     C63687   4.520   7.111   6.310 -0.2844  0.6833 -0.1738
  483MOL0     C63688   4.628   7.094   6.355  0.2866  0.4264  1.1467
  483MOL0     C63689   3.931   7.162   6.025  0.9109  0.0877 -0.4935
  483MOL0     C63690   3.802   7.211   6.036  0.5321  0.4309 -0.4662
  483MOL0     H63691   3.276   7.294   6.141  1.7295  1.3929 -2.7013
  483MOL0     H63692   3.049   7.264   6.187 -0.5028  0.6769 -0.6011
  483MOL0     H63693   2.845   7.222   6.109 -1.9081 -0.7674 -2.4194
  483MOL0     H63694   2.820   7.155   6.280 -3.1885  0.5033 -0.1385
  483MOL0     H63695   2.608   7.185   6.183 -1.1123  0.6653 -2.0268
  483MOL0     H63696   2.648   7.014   6.190  2.1781 -0.9154 -0.8673
  483MOL0     H63697   2.737   7.027   5.969 -1.3930 -0.9280  0.1631
  483MOL0     H63698   2.661   7.185   5.942  0.4749  0.1185 -0.7957
  483MOL0     H63699   2.523   6.934   6.030  1.6874 -0.6902 -1.1294
  483MOL0     H63700   2.444   7.093   6.002 -0.1736  0.5357  1.6015
  483MOL0     H63701   2.498   7.053   5.751  1.8148  1.3358  0.8949
  483MOL0     H63702   2.408   6.923   5.816 -0.2386 -0.1020  3.4566
  483MOL0     H63703   2.704   6.933   5.733  2.0752 -3.9567 -1.2602
  483MOL0     H63704   2.564   6.852   5.660 -0.3648 -0.2341  1.0559
  483MOL0     H63705   2.716   6.680   5.782 -0.8305 -0.1303 -0.0915
  483MOL0     H63706   2.681   6.776   5.932  1.0663  4.1234 -2.1621
  483MOL0     H63707   2.482   6.634   5.747  0.4032 -0.8025  0.1322
  483MOL0     H63708   2.432   6.703   5.897  0.0724  0.5636 -0.7601
  483MOL0     H63709   2.617   6.415   5.736  1.0974  0.1815  0.7616
  483MOL0     H63710   2.514   6.150   5.790 -0.5927 -0.0237  0.9140
  483MOL0     H63711   2.532   6.107   5.963 -1.3641 -1.0475 -1.4445
  483MOL0     H63712   2.784   6.199   5.808  1.1753  0.1869  0.5375
  483MOL0     H63713   2.726   6.033   5.821 -0.2532  0.1852  1.3117
  483MOL0     H63714   2.769   6.206   6.068 -0.5546  3.2332 -3.6472
  483MOL0     H63715   2.739   6.035   6.054 -0.4481  0.2484 -0.1205
  483MOL0     H63716   2.976   6.175   5.936 -0.1615 -1.3514 -2.6169
  483MOL0     H63717   2.948   5.999   5.930 -0.6964  1.6821 -2.3593
  483MOL0     H63718   3.177   6.073   5.905 -1.0300  2.5866  1.2396
  483MOL0     H63719   3.429   6.058   5.938  1.0246 -0.6508  1.3979
  483MOL0     H63720   3.799   5.890   6.097  0.5053 -0.3147 -0.9552
  483MOL0     H63721   4.043   5.890   6.125 -0.7702  0.2139  2.0297
  483MOL0     H63722   4.217   6.265   6.326 -1.1316  1.2672 -1.7941
  483MOL0     H63723   4.245   6.276   6.157 -0.7595  2.1947  0.0076
  483MOL0     H63724   4.444   6.097   6.200  0.9864  0.7496  0.9400
  483MOL0     H63725   4.434   6.148   6.366 -1.7648 -0.1525  0.3667
  483MOL0     H63726   4.475   6.371   6.321  1.9286  2.3468 -2.9101
  483MOL0     H63727   4.470   6.351   6.143  1.0439  1.9164  0.5432
  483MOL0     H63728   4.659   6.208   6.340 -1.9296 -0.3372  0.5693
  483MOL0     H63729   4.649   6.176   6.160 -0.2476 -1.4489  1.9976
  483MOL0     H63730   4.719   6.427   6.320 -1.8980  0.4877 -0.1143
  483MOL0     H63731   4.734   6.417   6.135  1.6580  3.6103  1.7930
  483MOL0     H63732   4.911   6.231   6.174  1.0108 -1.0630  1.7892
  483MOL0     H63733   4.888   6.269   6.344 -1.4557 -0.7218 -0.6019
  483MOL0     H63734   4.941   6.490   6.149 -0.8814  2.6355  1.5885
  483MOL0     H63735   4.967   6.478   6.322 -1.9073  1.4216 -1.8833
  483MOL0     H63736   5.138   6.318   6.133 -0.9258  0.3446 -0.1289
  483MOL0     H63737   5.182   6.362   6.301 -0.7731  3.0458  2.3787
  483MOL0     H63738   4.015   6.313   6.221 -0.3714 -0.3998  0.3595
  483MOL0     H63739   3.785   6.300   6.170  1.0914  1.3307  1.0465
  483MOL0     H63740   3.365   6.025   6.361 -0.0540 -0.2860 -1.4051
  483MOL0     H63741   3.119   6.064   6.326  1.5050  4.3564  1.2875
  483MOL0     H63742   3.085   6.848   6.034  4.6372 -1.5386  1.7602
  483MOL0     H63743   3.319   6.886   5.992 -0.8612 -0.7609 -0.4500
  483MOL0     H63744   3.624   6.926   5.942 -0.4974 -0.0598  0.9778
  483MOL0     H63745   3.863   6.855   5.913 -0.6283 -0.0328  1.1756
  483MOL0     H63746   4.200   7.127   5.995  1.8935  0.0977  0.4742
  483MOL0     H63747   4.254   6.958   5.978 -3.8932 -2.7885 -1.1028
  483MOL0     H63748   4.110   7.045   6.224 -1.0970  0.3568 -1.7191
  483MOL0     H63749   4.147   6.884   6.168 -0.2884 -0.6425 -0.0147
  483MOL0     H63750   4.384   6.934   6.182  0.6233  0.1109 -0.6790
  483MOL0     H63751   4.305   6.947   6.341  1.3198  2.1782  0.0781
  483MOL0     H63752   4.408   7.174   6.160  3.8884 -2.0664 -1.2814
  483MOL0     H63753   4.330   7.194   6.329 -1.3359 -1.4968  0.6714
  483MOL0     H63754   4.726   7.075   6.394  1.7564  1.0736 -1.9643
  483MOL0     H63755   4.018   7.227   6.038  1.2636 -0.7686  1.9889
  483MOL0     H63756   3.781   7.314   6.064 -0.3220  0.6718 -1.9347
  484MOL0     O63757   0.689   7.569   0.627 -0.4461 -0.2271 -0.0621
  484MOL0     C63758   0.779   7.585   0.546 -1.3687 -1.6341  0.1590
  484MOL0     O63759   0.763   7.623   0.411 -0.8258  0.0113 -0.2775
  484MOL0     C63760   0.637   7.620   0.352 -0.7465  0.1594 -0.4713
  484MOL0     C63761   0.529   7.698   0.399 -0.3345 -0.2828 -0.2918
  484MOL0     C63762   0.404   7.682   0.351  0.1232 -0.4142  0.8393
  484MOL0     C63763   0.371   7.592   0.242  0.4885 -0.8856 -0.2019
  484MOL0     O63764   0.256   7.587   0.173  0.3136 -0.1663 -0.5845
  484MOL0     C63765   0.147   7.648   0.241  0.7102 -0.0448 -0.4887
  484MOL0     C63766   0.085   7.563   0.353  0.6082 -0.4717  0.8376
  484MOL0     C63767  -0.045   7.629   0.414 -0.8349  0.3107 -0.0374
  484MOL0     C63768  -0.160   7.599   0.311  0.5558  0.0016  0.8944
  484MOL0     C63769  -0.289   7.642   0.377  0.3020 -0.5283 -0.3400
  484MOL0     C63770  -0.416   7.603   0.295  1.0370  0.3368 -0.8119
  484MOL0     C63771  -0.553   7.578   0.377 -0.3260  0.1786 -0.0498
  484MOL0     C63772  -0.604   7.705   0.454  0.6648 -0.4299 -0.4285
  484MOL0     N63773  -0.754   7.732   0.438 -0.7450  0.3183  0.0823
  484MOL0     C63774  -0.814   7.775   0.326  0.0553 -0.0364  0.0989
  484MOL0     C63775  -0.949   7.786   0.363 -0.8900 -0.2247 -0.3966
  484MOL0     C63776  -1.066   7.852   0.290  0.1239  1.4042  0.4884
  484MOL0     C63777  -1.172   7.749   0.241 -0.3553  1.1148  0.6850
  484MOL0     C63778  -1.232   7.660   0.357 -0.0603  1.0869  0.5374
  484MOL0     C63779  -1.343   7.573   0.298 -0.5281  0.0640  0.6866
  484MOL0     O63780  -1.468   7.635   0.301  0.5141  0.3027 -0.1835
  484MOL0     C63781  -1.552   7.601   0.199 -1.1045  0.5037  0.9075
  484MOL0     C63782  -1.619   7.486   0.210  1.3702  0.5824 -0.0927
  484MOL0     C63783  -1.723   7.447   0.120 -0.8285  0.2308 -0.1373
  484MOL0     C63784  -1.761   7.530   0.019 -0.3497 -0.5306  0.1442
  484MOL0     C63785  -1.892   7.518  -0.044  0.2661  0.2477 -0.3369
  484MOL0     O63786  -1.972   7.416  -0.008 -0.3990  0.0089  0.0237
  484MOL0     C63787  -2.102   7.406  -0.063 -0.9964  0.1259 -0.7286
  484MOL0     C63788  -2.193   7.514  -0.065  0.2441 -0.0289 -0.4078
  484MOL0     C63789  -2.319   7.505  -0.111 -0.6719  0.4149  0.3838
  484MOL0     C63790  -2.368   7.382  -0.152  0.2581 -0.2732  1.0597
  484MOL0     O63791  -2.497   7.388  -0.203 -0.3498  0.4758  0.4254
  484MOL0     C63792  -2.556   7.271  -0.263  0.5217 -1.0149  0.5106
  484MOL0     C63793  -2.702   7.303  -0.271  0.5251 -0.2610 -0.6806
  484MOL0     C63794  -2.755   7.183  -0.343 -0.2667  0.1926  0.1260
  484MOL0     C63795  -2.906   7.207  -0.351  0.9012 -0.2375  0.6645
  484MOL0     C63796  -2.968   7.093  -0.439  0.1246  0.1356 -0.2768
  484MOL0     C63797  -3.104   7.137  -0.493  0.4716  0.2087 -0.0807
  484MOL0     C63798  -3.219   7.086  -0.398  0.2223 -0.7335  0.5142
  484MOL0     C63799  -3.356   7.110  -0.482 -0.8778  0.6197  0.6318
  484MOL0    Cl63800  -3.492   7.123  -0.361  0.4720 -0.1114  0.4002
  484MOL0     C63801  -2.289   7.271  -0.131  0.4758  0.7208  0.1684
  484MOL0     C63802  -2.160   7.282  -0.085  0.0499  0.0659 -0.4846
  484MOL0     O63803  -1.930   7.602  -0.123 -0.2771 -0.6137  0.3904
  484MOL0     C63804  -1.693   7.654   0.010  0.1479 -0.7136  0.2359
  484MOL0     C63805  -1.590   7.684   0.097 -0.1860  0.3484 -0.1039
  484MOL0     N63806  -0.963   7.749   0.496  0.1231  1.2531  0.2891
  484MOL0     N63807  -0.847   7.709   0.539 -0.0028  0.3794 -0.0600
  484MOL0     C63808   0.484   7.522   0.187  0.4717 -0.2171  0.2591
  484MOL0     C63809   0.610   7.533   0.247  0.4705 -0.1913 -0.2392
  484MOL0     C63810   0.922   7.606   0.605  0.1007 -0.0333 -0.0044
  484MOL0     C63811   0.937   7.600   0.745 -0.5175  0.6604  0.2774
  484MOL0     C63812   1.067   7.596   0.797  0.1222 -0.2126 -0.0047
  484MOL0     C63813   1.171   7.611   0.712 -1.0682  0.0690  0.3652
  484MOL0     O63814   1.287   7.640   0.776 -0.4650  0.1458  0.1778
  484MOL0     C63815   1.356   7.764   0.754 -0.0889 -0.0094  0.4125
  484MOL0     C63816   1.498   7.738   0.699 -0.4066 -0.0964  0.2018
  484MOL0     C63817   1.580   7.637   0.779  0.1162  0.3232  0.1859
  484MOL0     C63818   1.629   7.695   0.920 -0.3386 -0.6488  0.1726
  484MOL0     C63819   1.699   7.595   0.998  0.1171 -0.7358  0.1356
  484MOL0     C63820   1.759   7.508   1.061  0.2877  0.2318  0.9707
  484MOL0     C63821   1.160   7.615   0.575  0.0147 -0.0529 -0.8690
  484MOL0     C63822   1.038   7.614   0.520  0.1408  0.1945  0.0228
  484MOL0     H63823   0.552   7.775   0.472  0.2480  0.2064 -0.9811
  484MOL0     H63824   0.330   7.743   0.401  1.3582  0.7230  1.3558
  484MOL0     H63825   0.071   7.669   0.166  1.8887 -1.1774 -2.0854
  484MOL0     H63826   0.167   7.748   0.282  0.2741  0.6204 -1.8406
  484MOL0     H63827   0.160   7.541   0.430  0.5441 -1.7992  0.5446
  484MOL0     H63828   0.058   7.464   0.317  1.1636 -1.1244  2.1357
  484MOL0     H63829  -0.018   7.735   0.425  2.4937 -0.5758  1.8236
  484MOL0     H63830  -0.061   7.601   0.518  1.4320 -1.7134 -0.1575
  484MOL0     H63831  -0.149   7.653   0.217 -0.7231  1.3224  1.4602
  484MOL0     H63832  -0.167   7.491   0.294 -1.0860  0.5262 -2.5462
  484MOL0     H63833  -0.278   7.751   0.389  2.4402 -0.8406  1.0845
  484MOL0     H63834  -0.294   7.598   0.477  2.1222  1.5333  0.7598
  484MOL0     H63835  -0.385   7.511   0.244 -1.2320 -1.2624  0.5245
  484MOL0     H63836  -0.429   7.677   0.214 -3.3841  0.6607 -0.0394
  484MOL0     H63837  -0.633   7.548   0.308  1.3075  0.9246 -2.3939
  484MOL0     H63838  -0.532   7.491   0.439  1.7289  1.8811  1.8476
  484MOL0     H63839  -0.541   7.792   0.431  0.1882  0.3628  1.0977
  484MOL0     H63840  -0.578   7.693   0.560  2.6558  1.6546 -0.6084
  484MOL0     H63841  -0.769   7.801   0.230  3.8380  1.6456  2.1295
  484MOL0     H63842  -1.023   7.901   0.202  3.2523 -0.8313  0.6038
  484MOL0     H63843  -1.100   7.933   0.355 -1.3764 -0.4585  2.1545
  484MOL0     H63844  -1.122   7.685   0.167  0.6333  2.5846  0.0461
  484MOL0     H63845  -1.256   7.804   0.199 -1.4452  0.7010  2.2419
  484MOL0     H63846  -1.152   7.597   0.396 -0.0425  0.9253  0.2466
  484MOL0     H63847  -1.269   7.713   0.445  0.3944  0.8829  0.8523
  484MOL0     H63848  -1.347   7.481   0.356 -0.3170 -0.9950 -0.9066
  484MOL0     H63849  -1.309   7.550   0.196  0.2159 -0.4823  1.0475
  484MOL0     H63850  -1.602   7.418   0.293 -0.0359  0.1338 -0.1504
  484MOL0     H63851  -1.775   7.353   0.137  0.4162 -0.0974  2.2607
  484MOL0     H63852  -2.165   7.611  -0.025 -0.5763  0.4318 -0.9240
  484MOL0     H63853  -2.385   7.590  -0.119 -2.6094 -0.3944  4.8270
  484MOL0     H63854  -2.534   7.186  -0.199  1.8977  0.5095  2.1900
  484MOL0     H63855  -2.513   7.267  -0.363 -0.5471  1.3560 -0.1255
  484MOL0     H63856  -2.708   7.399  -0.323  2.1347  2.1110  3.1078
  484MOL0     H63857  -2.754   7.303  -0.175  0.2120 -2.1028 -0.8073
  484MOL0     H63858  -2.728   7.089  -0.293  0.2105  0.4821  0.4257
  484MOL0     H63859  -2.712   7.168  -0.442 -1.8420  2.3053 -0.9335
  484MOL0     H63860  -2.955   7.196  -0.253 -0.0483 -0.1299  0.2142
  484MOL0     H63861  -2.929   7.298  -0.407  3.5725 -1.1246 -2.1167
  484MOL0     H63862  -2.974   7.004  -0.376  0.9369  0.7503  0.7144
  484MOL0     H63863  -2.900   7.077  -0.522  0.7106  0.0479  0.2135
  484MOL0     H63864  -3.124   7.087  -0.588  0.2249 -1.2544  0.7219
  484MOL0     H63865  -3.104   7.245  -0.513  1.4404  0.5063  1.3696
  484MOL0     H63866  -3.214   6.978  -0.386  2.8684 -0.7382 -0.0926
  484MOL0     H63867  -3.218   7.139  -0.302  1.8228 -1.2670  0.8169
  484MOL0     H63868  -3.366   7.017  -0.538 -1.1770  0.0246  1.6425
  484MOL0     H63869  -3.356   7.203  -0.541 -3.7900  1.1363  1.3150
  484MOL0     H63870  -2.330   7.171  -0.133  1.1355  0.3528  2.4407
  484MOL0     H63871  -2.097   7.199  -0.053 -1.1132 -0.3662  0.7725
  484MOL0     H63872  -1.733   7.736  -0.048  3.2149 -0.3756 -1.5989
  484MOL0     H63873  -1.558   7.788   0.102  0.8691  0.0169  0.2867
  484MOL0     H63874   0.461   7.453   0.106 -2.7655 -0.1570  1.0107
  484MOL0     H63875   0.690   7.488   0.189  0.4083  0.6051 -0.9674
  484MOL0     H63876   0.851   7.591   0.810  0.1358  0.0438  1.0721
  484MOL0     H63877   1.078   7.598   0.905  0.3233 -2.4729  0.0656
  484MOL0     H63878   1.373   7.826   0.842  0.0223  2.1033 -1.0102
  484MOL0     H63879   1.294   7.824   0.686  0.7515 -3.0344 -3.4413
  484MOL0     H63880   1.475   7.695   0.601  1.1524 -0.8012  0.1163
  484MOL0     H63881   1.558   7.829   0.688  0.1139 -0.5563 -0.9005
  484MOL0     H63882   1.663   7.601   0.718 -0.1367 -1.1587  0.6698
  484MOL0     H63883   1.525   7.543   0.788  5.3073 -3.0934  1.3401
  484MOL0     H63884   1.696   7.775   0.888  0.3257 -1.5718 -0.8114
  484MOL0     H63885   1.539   7.742   0.962  0.4729 -0.5019  1.8058
  484MOL0     H63886   1.801   7.423   1.111 -0.2118  0.2850  1.4930
  484MOL0     H63887   1.245   7.614   0.507 -0.0875 -1.6960 -1.0285
  484MOL0     H63888   1.013   7.606   0.414 -0.3676 -4.8689  0.2409
  485MOL0     O63889   6.281   2.139   0.627 -0.2597 -0.1525 -0.3699
  485MOL0     C63890   6.265   2.246   0.566 -0.2499 -0.2704  0.2194
  485MOL0     O63891   6.154   2.290   0.509  0.0667  0.0016  0.0891
  485MOL0     C63892   6.039   2.212   0.515  0.3069  1.0076 -0.7167
  485MOL0     C63893   6.010   2.116   0.417 -0.5215 -0.5734 -0.2118
  485MOL0     C63894   5.877   2.065   0.423  0.1813 -0.0463 -0.4250
  485MOL0     C63895   5.796   2.067   0.534  0.3609 -0.1696 -0.0091
  485MOL0     O63896   5.674   2.003   0.512  0.4126  0.7766  0.1541
  485MOL0     C63897   5.603   1.959   0.630  0.1606 -0.1976 -0.4063
  485MOL0     C63898   5.492   1.859   0.585 -0.0781  0.2627  0.3964
  485MOL0     C63899   5.391   1.936   0.501 -0.1201  0.3866 -0.3658
  485MOL0     C63900   5.274   1.847   0.472 -0.3428  0.1608 -0.5068
  485MOL0     C63901   5.169   1.913   0.385 -0.0939 -0.6603  0.4882
  485MOL0     C63902   5.060   1.824   0.334  0.5121  0.4236 -0.7089
  485MOL0     C63903   4.974   1.905   0.233 -0.5149  0.0760 -0.3266
  485MOL0     C63904   4.833   1.853   0.229  0.4102  0.6016 -0.3135
  485MOL0     N63905   4.765   1.901   0.105 -0.0364 -0.2713 -0.0760
  485MOL0     C63906   4.670   2.003   0.104  0.2091 -0.1429  0.8936
  485MOL0     C63907   4.640   2.022  -0.025  0.3852  0.0304 -0.4449
  485MOL0     C63908   4.567   2.137  -0.091 -0.5311 -1.1631 -0.3190
  485MOL0     C63909   4.410   2.143  -0.066 -0.5516 -0.4416 -0.2447
  485MOL0     C63910   4.353   2.242  -0.170  0.5025 -0.0463  0.4490
  485MOL0     C63911   4.201   2.232  -0.182 -0.4621  0.8702  0.2085
  485MOL0     O63912   4.144   2.253  -0.055 -0.2252  0.3809 -0.2069
  485MOL0     C63913   4.010   2.244  -0.042 -0.6670  0.9814  0.0828
  485MOL0     C63914   3.953   2.288   0.078 -0.8927  0.3731  0.6259
  485MOL0     C63915   3.812   2.268   0.104 -0.5141 -0.9698  0.7297
  485MOL0     C63916   3.734   2.220   0.004  0.8257  0.2524  0.5461
  485MOL0     C63917   3.588   2.190   0.019  0.1703  0.3648 -0.2978
  485MOL0     O63918   3.518   2.138  -0.086 -0.5535 -0.2333 -0.4186
  485MOL0     C63919   3.392   2.170  -0.105  0.6832  0.1318  0.2243
  485MOL0     C63920   3.306   2.062  -0.065  0.0471  0.2159 -0.0772
  485MOL0     C63921   3.169   2.077  -0.074  0.6714 -0.2178  0.2431
  485MOL0     C63922   3.109   2.185  -0.129  0.4859 -0.0983 -0.1067
  485MOL0     O63923   2.971   2.191  -0.138 -0.4369 -0.3337  0.2434
  485MOL0     C63924   2.911   2.312  -0.174  0.5535  0.4304  0.0304
  485MOL0     C63925   2.754   2.297  -0.172  0.3676  0.1922  0.3407
  485MOL0     C63926   2.689   2.298  -0.035 -0.7285 -0.6098 -0.2800
  485MOL0     C63927   2.534   2.283  -0.027  0.0080  0.2517  0.3866
  485MOL0     C63928   2.471   2.417  -0.030 -0.4420 -0.7974 -0.7985
  485MOL0     C63929   2.330   2.424  -0.083 -0.0419  0.1777  0.2489
  485MOL0     C63930   2.266   2.566  -0.069  0.2008  0.2362 -0.2428
  485MOL0     C63931   2.157   2.618  -0.163 -0.3441 -0.1543 -0.9360
  485MOL0    Cl63932   2.008   2.528  -0.114  0.1606 -0.0119 -0.0156
  485MOL0     C63933   3.194   2.285  -0.174  0.2918  0.0954 -0.1891
  485MOL0     C63934   3.338   2.282  -0.167  0.4086  0.2903  0.3053
  485MOL0     O63935   3.539   2.216   0.127  0.1280  0.0178 -0.0257
  485MOL0     C63936   3.787   2.189  -0.121 -0.1793 -0.2832 -0.1957
  485MOL0     C63937   3.923   2.198  -0.145 -0.4774  1.7758 -0.1439
  485MOL0     N63938   4.708   1.924  -0.100  0.0960 -0.7453  0.5799
  485MOL0     N63939   4.774   1.843  -0.014 -0.4404 -0.4706 -0.4178
  485MOL0     C63940   5.839   2.139   0.649  0.5931 -0.0043  0.4603
  485MOL0     C63941   5.956   2.215   0.634  0.6600 -0.4371 -0.2841
  485MOL0     C63942   6.391   2.319   0.543 -0.1763 -0.2543 -0.1372
  485MOL0     C63943   6.514   2.257   0.557 -0.0760  0.1596  0.0670
  485MOL0     C63944   6.622   2.337   0.542  0.4978  0.1647 -0.4838
  485MOL0     C63945   6.620   2.472   0.519 -0.4948  0.5222 -0.6476
  485MOL0     O63946   6.738   2.538   0.496  0.4659 -0.2096 -0.1004
  485MOL0     C63947   6.737   2.673   0.536 -0.8418  0.1278  0.0933
  485MOL0     C63948   6.739   2.690   0.691 -0.0549 -0.1043 -0.5090
  485MOL0     C63949   6.862   2.607   0.757  0.1613 -0.8141 -0.5211
  485MOL0     C63950   6.998   2.665   0.707  0.6344 -0.5193 -0.4880
  485MOL0     C63951   7.100   2.578   0.768 -0.3814  0.0247 -0.1283
  485MOL0     C63952   7.191   2.517   0.815  0.2149 -0.0743 -0.2866
  485MOL0     C63953   6.495   2.531   0.508 -0.5161 -0.6290 -0.2857
  485MOL0     C63954   6.377   2.453   0.524  0.7207 -0.0364 -0.3830
  485MOL0     H63955   6.069   2.111   0.326 -3.0239 -0.2474 -1.9804
  485MOL0     H63956   5.856   2.001   0.338 -0.8369  0.9260 -0.9204
  485MOL0     H63957   5.550   2.043   0.676  1.4327  1.8550 -2.4408
  485MOL0     H63958   5.666   1.908   0.704 -0.4751 -0.6495 -0.1702
  485MOL0     H63959   5.447   1.821   0.677  0.4517  4.1945  2.5439
  485MOL0     H63960   5.538   1.775   0.532  2.2099  1.9860 -0.5456
  485MOL0     H63961   5.432   1.965   0.404 -3.1832  3.3392 -0.9857
  485MOL0     H63962   5.355   2.024   0.555 -2.3100 -0.9844  0.5729
  485MOL0     H63963   5.312   1.760   0.418  0.7394 -0.1484  0.6952
  485MOL0     H63964   5.234   1.809   0.566  0.3331  2.4548  0.7754
  485MOL0     H63965   5.215   1.977   0.309 -0.4229 -1.4458 -0.3924
  485MOL0     H63966   5.118   1.992   0.442  1.4565  0.6009  0.2168
  485MOL0     H63967   5.008   1.785   0.422  3.9390 -2.9238  0.0904
  485MOL0     H63968   5.092   1.738   0.275 -4.3986 -1.7789 -0.6923
  485MOL0     H63969   4.965   2.010   0.260 -5.4018 -0.6752  1.9840
  485MOL0     H63970   5.022   1.887   0.136 -0.6523  0.7541 -0.5266
  485MOL0     H63971   4.768   1.890   0.308  0.7260 -0.9894  0.7479
  485MOL0     H63972   4.827   1.744   0.227 -2.2011  0.6981 -0.2249
  485MOL0     H63973   4.631   2.051   0.193  1.3357 -0.7897  1.7690
  485MOL0     H63974   4.589   2.119  -0.197 -0.4775 -2.3261 -0.1152
  485MOL0     H63975   4.610   2.234  -0.064 -0.6329 -0.6568 -1.8301
  485MOL0     H63976   4.386   2.173   0.036 -0.2192  0.0732 -0.3175
  485MOL0     H63977   4.357   2.048  -0.080 -3.9947  1.2703  0.0782
  485MOL0     H63978   4.385   2.344  -0.146  0.1806  0.3708 -0.8266
  485MOL0     H63979   4.396   2.227  -0.270  1.3860  2.3345  0.4035
  485MOL0     H63980   4.177   2.131  -0.215 -0.6848  0.8296  0.4871
  485MOL0     H63981   4.159   2.305  -0.252 -0.1991 -0.9577 -1.9435
  485MOL0     H63982   4.024   2.321   0.152 -0.2342 -2.9149  1.6338
  485MOL0     H63983   3.767   2.307   0.194 -1.4991  2.6713 -1.1473
  485MOL0     H63984   3.352   1.966  -0.042 -2.0678 -1.1304 -1.1726
  485MOL0     H63985   3.109   1.988  -0.061  1.9870 -1.3025 -0.8018
  485MOL0     H63986   2.934   2.339  -0.277 -0.1063 -1.1522 -0.5620
  485MOL0     H63987   2.944   2.383  -0.097 -1.8693  0.6711  0.9524
  485MOL0     H63988   2.734   2.197  -0.213  1.4970  0.2395 -0.3687
  485MOL0     H63989   2.714   2.376  -0.237 -2.1929  0.9154  2.6292
  485MOL0     H63990   2.715   2.396   0.006 -2.5074 -1.1725  2.5416
  485MOL0     H63991   2.747   2.224   0.022 -1.3949 -0.8651  0.0831
  485MOL0     H63992   2.503   2.222  -0.112  2.1267  1.1567 -1.1198
  485MOL0     H63993   2.504   2.242   0.070  0.2873  1.5956  1.0767
  485MOL0     H63994   2.535   2.490  -0.082  0.1723 -1.6772 -1.2986
  485MOL0     H63995   2.467   2.454   0.073  0.4357  2.8309 -1.8891
  485MOL0     H63996   2.257   2.357  -0.036 -1.0864  2.0987  1.5158
  485MOL0     H63997   2.330   2.411  -0.192  2.7362  0.3219  0.1751
  485MOL0     H63998   2.223   2.564   0.031  0.4766 -2.6245 -0.0841
  485MOL0     H63999   2.342   2.644  -0.059  1.3512 -0.7065 -1.1922
  485MOL0     H64000   2.176   2.604  -0.270  2.7218  2.5248 -0.9159
  485MOL0     H64001   2.143   2.725  -0.144 -1.7210 -0.6583  1.2584
  485MOL0     H64002   3.142   2.370  -0.218 -0.1715 -0.3682 -0.5539
  485MOL0     H64003   3.405   2.360  -0.201 -0.3972  1.6786  1.7455
  485MOL0     H64004   3.730   2.146  -0.203 -0.8452  0.2552 -0.0208
  485MOL0     H64005   3.958   2.185  -0.247 -2.0071  0.6129 -0.5638
  485MOL0     H64006   5.774   2.146   0.736 -4.1501 -0.9283 -2.6693
  485MOL0     H64007   5.982   2.282   0.715  2.0824 -2.7555  1.3052
  485MOL0     H64008   6.527   2.151   0.574  1.1853  0.1166 -0.9846
  485MOL0     H64009   6.719   2.289   0.552 -0.5099 -1.8508  0.0587
  485MOL0     H64010   6.658   2.732   0.488  1.7471  2.1148 -2.0844
  485MOL0     H64011   6.826   2.715   0.487 -0.7333 -0.9298 -0.6435
  485MOL0     H64012   6.740   2.792   0.729 -2.9693  0.5543 -1.8886
  485MOL0     H64013   6.648   2.638   0.723  2.3764 -5.7772 -1.4712
  485MOL0     H64014   6.866   2.504   0.719  3.7791 -1.0794  0.1337
  485MOL0     H64015   6.857   2.593   0.866 -0.4957  0.4981 -0.3655
  485MOL0     H64016   6.994   2.658   0.598 -1.4034 -1.6923 -0.4005
  485MOL0     H64017   7.031   2.764   0.738  0.8368 -1.3726  2.2688
  485MOL0     H64018   7.276   2.466   0.856  1.8150  1.6011 -1.3919
  485MOL0     H64019   6.482   2.636   0.486 -0.1340 -0.8035 -1.4178
  485MOL0     H64020   6.281   2.504   0.518 -0.6838 -2.5324 -0.5035
  486MOL0     O64021   4.463   9.208   0.426 -0.1996  0.0115 -0.3856
  486MOL0     C64022   4.525   9.152   0.340  0.0852 -0.2797 -0.8727
  486MOL0     O64023   4.475   9.059   0.264  0.1095 -0.0878 -0.1627
  486MOL0     C64024   4.346   9.020   0.258 -0.0042 -0.5378 -1.1529
  486MOL0     C64025   4.329   8.895   0.199 -0.0354  0.2761 -0.5432
  486MOL0     C64026   4.201   8.838   0.179 -0.5813 -1.8505 -0.9151
  486MOL0     C64027   4.086   8.904   0.230 -0.0039  0.6185  0.1614
  486MOL0     O64028   3.957   8.846   0.232 -0.1486 -0.2680 -0.3565
  486MOL0     C64029   3.929   8.724   0.303  0.2504  0.2411 -0.1837
  486MOL0     C64030   3.793   8.721   0.355  0.5670 -0.6812 -0.4991
  486MOL0     C64031   3.685   8.729   0.239  0.8147  0.7894  0.4778
  486MOL0     C64032   3.542   8.701   0.286 -0.3727 -0.2041  0.4553
  486MOL0     C64033   3.453   8.779   0.192  1.5415  0.4133 -0.3833
  486MOL0     C64034   3.302   8.744   0.203  0.5092  0.1012 -0.0571
  486MOL0     C64035   3.213   8.826   0.108  0.1271  0.1992  0.0465
  486MOL0     C64036   3.221   8.977   0.128 -0.2153  0.3092  0.1608
  486MOL0     N64037   3.110   9.050   0.070  0.9170 -0.4310 -0.1008
  486MOL0     C64038   2.980   9.060   0.118 -0.0405  0.8173  0.6069
  486MOL0     C64039   2.920   9.137   0.023 -0.2549 -0.0382  0.7230
  486MOL0     C64040   2.770   9.147   0.014  0.0575  1.2130  0.4603
  486MOL0     C64041   2.716   9.268   0.099 -0.1073 -0.4023  1.2106
  486MOL0     C64042   2.719   9.397   0.016 -0.0031 -1.2727 -0.3245
  486MOL0     C64043   2.596   9.427  -0.063  0.1856  0.6228  0.6108
  486MOL0     O64044   2.474   9.436   0.014  0.4657 -0.1073 -0.2190
  486MOL0     C64045   2.355   9.394  -0.040  0.2339 -0.6330  0.2659
  486MOL0     C64046   2.254   9.330   0.028 -0.3317  0.4706  0.3642
  486MOL0     C64047   2.136   9.298  -0.035  0.5818  0.2367 -0.1425
  486MOL0     C64048   2.112   9.337  -0.170  0.6216  0.0746  0.1466
  486MOL0     C64049   1.989   9.304  -0.238  0.6650 -0.0487  0.3059
  486MOL0     O64050   1.908   9.221  -0.171  0.1737  0.1333  0.4197
  486MOL0     C64051   1.784   9.190  -0.218  0.0479 -0.5489 -0.3625
  486MOL0     C64052   1.735   9.068  -0.181 -1.0634  0.5019 -0.7520
  486MOL0     C64053   1.600   9.044  -0.186 -0.2431 -0.1961  0.2664
  486MOL0     C64054   1.514   9.139  -0.244  0.2390  0.9041  0.2845
  486MOL0     O64055   1.382   9.097  -0.230  0.1336  0.6574  1.3426
  486MOL0     C64056   1.280   9.167  -0.304 -0.1942 -0.4734 -0.0979
  486MOL0     C64057   1.161   9.076  -0.312  0.5117 -0.7404  0.2369
  486MOL0     C64058   1.101   9.042  -0.177  0.6962 -0.5660 -0.0586
  486MOL0     C64059   0.970   8.957  -0.192 -0.7828 -0.4855  0.6822
  486MOL0     C64060   0.888   8.967  -0.064  0.1379  0.4201 -0.5264
  486MOL0     C64061   0.745   8.935  -0.092 -0.0588  0.2299  1.1103
  486MOL0     C64062   0.666   8.925   0.041  0.1959  0.3336 -0.5813
  486MOL0     C64063   0.529   8.869   0.009  0.7732  0.3692  0.1695
  486MOL0    Cl64064   0.419   8.866   0.151 -0.3985  0.0471  0.6890
  486MOL0     C64065   1.559   9.262  -0.298  0.7556 -0.3810  0.1427
  486MOL0     C64066   1.697   9.285  -0.273  0.5107  0.3379  0.6078
  486MOL0     O64067   1.975   9.335  -0.354 -0.6836 -0.2710 -0.0585
  486MOL0     C64068   2.220   9.397  -0.239  0.4115 -0.2482 -0.1289
  486MOL0     C64069   2.333   9.426  -0.170 -0.1099 -0.1574  0.0077
  486MOL0     N64070   3.013   9.182  -0.074 -0.0315  0.4891 -0.0756
  486MOL0     N64071   3.125   9.127  -0.038 -0.5415  0.1274 -0.7377
  486MOL0     C64072   4.095   9.025   0.298 -0.2801 -0.5034 -0.1948
  486MOL0     C64073   4.224   9.079   0.314 -0.6453 -0.3054 -0.4617
  486MOL0     C64074   4.656   9.199   0.317 -0.3014  0.3951  0.9234
  486MOL0     C64075   4.689   9.332   0.346  0.7190 -0.0081 -0.4309
  486MOL0     C64076   4.810   9.386   0.331 -0.3250 -0.2877  0.4753
  486MOL0     C64077   4.907   9.308   0.275  0.2573  0.2137 -0.3701
  486MOL0     O64078   5.042   9.348   0.271 -0.0175  0.6696 -0.0274
  486MOL0     C64079   5.085   9.461   0.344 -0.6619  0.2498 -0.0753
  486MOL0     C64080   5.235   9.451   0.344 -0.3465 -0.6842 -0.9648
  486MOL0     C64081   5.284   9.532   0.471 -0.6132 -0.0245  0.0423
  486MOL0     C64082   5.440   9.552   0.470 -0.0392 -0.1426  0.6003
  486MOL0     C64083   5.517   9.424   0.469 -0.0309 -0.0439 -0.7215
  486MOL0     C64084   5.579   9.322   0.465  0.0385 -0.1223  0.0474
  486MOL0     C64085   4.875   9.179   0.232 -0.7824  0.3352 -0.1391
  486MOL0     C64086   4.752   9.125   0.243  0.9939 -1.1991 -0.9183
  486MOL0     H64087   4.419   8.844   0.165 -0.4541  0.4127 -1.9492
  486MOL0     H64088   4.190   8.738   0.138  0.1130 -2.4880  0.4082
  486MOL0     H64089   4.005   8.710   0.380  1.6538 -3.0564 -1.9588
  486MOL0     H64090   3.944   8.641   0.234  0.3297  1.5472 -1.8004
  486MOL0     H64091   3.786   8.813   0.415  2.3675  0.2340 -1.5946
  486MOL0     H64092   3.773   8.634   0.418  0.9514 -0.3529  0.0849
  486MOL0     H64093   3.708   8.651   0.166 -1.1901 -1.1844  1.8341
  486MOL0     H64094   3.695   8.828   0.194  2.1125  0.5475  0.2013
  486MOL0     H64095   3.503   8.599   0.284  3.2400 -1.9454  4.0427
  486MOL0     H64096   3.529   8.735   0.389 -1.5134  1.4407 -0.1875
  486MOL0     H64097   3.482   8.755   0.090  1.3787  2.8495 -1.0440
  486MOL0     H64098   3.476   8.882   0.219 -0.8710  1.8188 -3.1665
  486MOL0     H64099   3.263   8.738   0.305  2.3764  0.1563  0.6864
  486MOL0     H64100   3.291   8.641   0.167  1.6418  0.7560 -2.5295
  486MOL0     H64101   3.244   8.805   0.006 -1.2352  0.0413 -0.3541
  486MOL0     H64102   3.108   8.796   0.120  0.4300 -0.6562  0.6625
  486MOL0     H64103   3.313   9.009   0.078 -0.8116 -2.7224 -3.3113
  486MOL0     H64104   3.220   9.001   0.235 -0.9310  0.6666  0.0730
  486MOL0     H64105   2.924   9.003   0.192  2.6233 -2.6229  0.2237
  486MOL0     H64106   2.720   9.055   0.046 -0.1783  0.6185 -1.4709
  486MOL0     H64107   2.739   9.155  -0.090  0.7743 -1.4501 -0.0169
  486MOL0     H64108   2.761   9.266   0.199  3.0623  3.0732  0.0845
  486MOL0     H64109   2.615   9.241   0.129  0.3796 -2.2423  1.3027
  486MOL0     H64110   2.734   9.484   0.081  2.1913 -2.4517  0.8757
  486MOL0     H64111   2.810   9.395  -0.045  2.0200  3.0509  2.0314
  486MOL0     H64112   2.593   9.347  -0.137  1.6918 -0.9506  2.1574
  486MOL0     H64113   2.613   9.524  -0.112  3.0495  0.3471  0.8946
  486MOL0     H64114   2.262   9.309   0.134 -0.0971  2.1436  0.7099
  486MOL0     H64115   2.061   9.250   0.027  0.0892 -0.5556 -1.3171
  486MOL0     H64116   1.797   8.989  -0.140  0.3780  0.1639 -3.3422
  486MOL0     H64117   1.555   8.947  -0.167  1.1028 -0.8856 -0.0112
  486MOL0     H64118   1.315   9.186  -0.406  2.2466  0.0946  0.7833
  486MOL0     H64119   1.251   9.257  -0.249 -0.9254 -0.7118 -0.0910
  486MOL0     H64120   1.197   8.988  -0.366  0.1988 -1.1930  0.7391
  486MOL0     H64121   1.081   9.119  -0.373  1.3774  2.0236  0.9209
  486MOL0     H64122   1.066   9.132  -0.127  2.4023  0.0096  0.1598
  486MOL0     H64123   1.169   8.991  -0.108  0.2705 -0.5844  0.3499
  486MOL0     H64124   0.915   8.999  -0.277  1.6654  0.4342 -0.5420
  486MOL0     H64125   1.012   8.862  -0.223 -1.3186 -0.7099  0.6387
  486MOL0     H64126   0.879   9.072  -0.036 -1.0598  0.2965 -0.3724
  486MOL0     H64127   0.929   8.900   0.012 -1.7731 -0.1599  0.0599
  486MOL0     H64128   0.728   8.840  -0.142 -1.3714  0.2020  1.5812
  486MOL0     H64129   0.696   9.019  -0.142  0.7188  0.0119 -0.0510
  486MOL0     H64130   0.721   8.861   0.110  0.8942  0.6183 -0.8690
  486MOL0     H64131   0.655   9.024   0.085  0.0191 -0.7107  1.9105
  486MOL0     H64132   0.532   8.764  -0.023  1.1947  0.8552 -1.4308
  486MOL0     H64133   0.475   8.932  -0.062  1.4523 -0.9928 -1.6252
  486MOL0     H64134   1.496   9.342  -0.334 -0.7755 -0.4465  2.4458
  486MOL0     H64135   1.730   9.382  -0.307 -0.6124  1.0182  1.4031
  486MOL0     H64136   2.211   9.429  -0.343 -1.9336 -0.5625 -0.0717
  486MOL0     H64137   2.423   9.468  -0.214  1.4296 -0.4580  2.6735
  486MOL0     H64138   4.007   9.073   0.338  0.2475 -1.0995  1.7810
  486MOL0     H64139   4.237   9.173   0.367  0.9046  0.5988 -2.3340
  486MOL0     H64140   4.614   9.396   0.391 -0.3340 -1.0541 -0.6595
  486MOL0     H64141   4.815   9.489   0.365  1.5489  0.3141 -1.3483
  486MOL0     H64142   5.034   9.466   0.441 -3.7142  0.1302 -1.5743
  486MOL0     H64143   5.057   9.554   0.294 -0.5916 -0.4718 -1.5153
  486MOL0     H64144   5.264   9.346   0.360  0.8285 -0.3653 -0.8869
  486MOL0     H64145   5.273   9.480   0.246 -0.6437  1.4701 -0.4951
  486MOL0     H64146   5.274   9.476   0.564 -0.5469 -0.0970  0.0066
  486MOL0     H64147   5.234   9.629   0.475 -0.1315  0.3384 -1.5956
  486MOL0     H64148   5.464   9.628   0.395 -2.9869  1.3774  1.0303
  486MOL0     H64149   5.459   9.603   0.565 -0.9979  1.2189  0.1012
  486MOL0     H64150   5.628   9.227   0.471 -0.0842 -0.2819 -1.1711
  486MOL0     H64151   4.955   9.129   0.178 -1.3497 -0.7706  0.0098
  486MOL0     H64152   4.733   9.026   0.205 -5.2035 -0.5780 -0.4185
  487MOL0     O64153   5.854   0.779   6.643  0.0622 -0.7910  0.6600
  487MOL0     C64154   5.824   0.681   6.713  0.1596 -0.5171 -0.1543
  487MOL0     O64155   5.702   0.643   6.760  0.1455 -0.9932  0.7585
  487MOL0     C64156   5.588   0.723   6.728 -0.4252  0.3004  0.7143
  487MOL0     C64157   5.486   0.720   6.816 -0.4558 -0.1022 -0.4015
  487MOL0     C64158   5.358   0.762   6.784  0.7963  0.4098 -0.7658
  487MOL0     C64159   5.328   0.792   6.653 -0.2752 -0.0603 -0.8128
  487MOL0     O64160   5.197   0.822   6.626  0.3727  0.0588  0.2887
  487MOL0     C64161   5.141   0.845   6.491  0.2463 -0.0825  0.8270
  487MOL0     C64162   4.999   0.783   6.496 -1.0799 -0.1074 -0.4812
  487MOL0     C64163   4.888   0.864   6.563 -0.1646  0.1713  0.1126
  487MOL0     C64164   4.757   0.784   6.559 -0.3443  0.2969 -0.0049
  487MOL0     C64165   4.684   0.796   6.419  0.0004 -0.4376  0.1202
  487MOL0     C64166   4.563   0.883   6.425  0.2730  1.5257  1.6180
  487MOL0     C64167   4.479   0.852   6.295 -0.0063  0.4237  0.7471
  487MOL0     C64168   4.353   0.940   6.283 -0.6227 -0.1063 -0.3291
  487MOL0     N64169   4.241   0.878   6.212  0.2651  0.8031  0.4365
  487MOL0     C64170   4.239   0.833   6.085  0.8507  0.6896  0.5851
  487MOL0     C64171   4.112   0.797   6.050  0.6120  0.9881  0.1595
  487MOL0     C64172   4.059   0.757   5.917  0.9964 -0.6672  0.0897
  487MOL0     C64173   4.068   0.613   5.890  0.3561 -0.3887 -0.1661
  487MOL0     C64174   4.020   0.526   6.007 -0.2737 -0.1919  0.1617
  487MOL0     C64175   3.873   0.543   6.042  0.0043  0.5115  0.3739
  487MOL0     O64176   3.777   0.546   5.933 -0.4951 -0.6075  0.3897
  487MOL0     C64177   3.640   0.538   5.961  0.4314 -0.1142 -0.1641
  487MOL0     C64178   3.584   0.533   6.094  0.5224  0.7647 -0.6905
  487MOL0     C64179   3.447   0.531   6.115  0.2363 -0.8118  0.0358
  487MOL0     C64180   3.355   0.542   6.006 -0.7451  0.6207 -0.3214
  487MOL0     C64181   3.211   0.557   6.037 -0.3812 -0.0221 -0.4032
  487MOL0     O64182   3.172   0.567   6.166 -0.0830  0.4989 -0.5767
  487MOL0     C64183   3.035   0.567   6.206 -0.1918 -0.8108  0.6181
  487MOL0     C64184   2.942   0.681   6.189  0.1810 -0.6167 -0.2630
  487MOL0     C64185   2.817   0.675   6.239  0.4995 -0.1595  0.2557
  487MOL0     C64186   2.760   0.558   6.293  0.2538  1.0376 -0.1032
  487MOL0     O64187   2.626   0.533   6.331 -0.1890 -0.0345  0.2632
  487MOL0     C64188   2.527   0.603   6.251 -0.7038  0.4892 -0.4753
  487MOL0     C64189   2.386   0.593   6.286 -0.1169 -0.4318 -1.0856
  487MOL0     C64190   2.295   0.671   6.182 -0.2677  0.4755 -0.6720
  487MOL0     C64191   2.163   0.692   6.251  0.1310 -0.0049  0.0155
  487MOL0     C64192   2.045   0.718   6.157 -0.3347  1.0548  0.3809
  487MOL0     C64193   1.922   0.725   6.238  0.2541  0.6563  0.0389
  487MOL0     C64194   1.805   0.760   6.152 -0.0306 -0.2862  0.1262
  487MOL0     C64195   1.678   0.776   6.240 -0.6339  0.1157  0.6211
  487MOL0    Cl64196   1.677   0.923   6.333  0.0384  0.0551  0.3780
  487MOL0     C64197   2.844   0.453   6.294 -0.3358 -0.6170 -0.9620
  487MOL0     C64198   2.981   0.451   6.269 -0.2717 -0.0307 -0.2812
  487MOL0     O64199   3.135   0.561   5.941  0.3714 -0.0934 -0.6411
  487MOL0     C64200   3.412   0.541   5.875 -1.2155  0.1141  0.3425
  487MOL0     C64201   3.552   0.533   5.856  0.8373  0.1364  0.1891
  487MOL0     N64202   4.037   0.809   6.168  0.3636 -0.1361  0.7034
  487MOL0     N64203   4.114   0.854   6.260 -0.3561 -0.1045 -0.1013
  487MOL0     C64204   5.434   0.802   6.553 -0.2649  0.3716  0.1752
  487MOL0     C64205   5.563   0.764   6.591 -0.3023  0.8373 -0.0461
  487MOL0     C64206   5.941   0.602   6.751 -0.3385  0.3545  0.3815
  487MOL0     C64207   5.924   0.497   6.844 -0.1303 -0.2861 -0.0251
  487MOL0     C64208   6.027   0.413   6.891  0.3451 -0.1506  0.4152
  487MOL0     C64209   6.153   0.432   6.835 -0.5411  0.5397 -0.0381
  487MOL0     O64210   6.264   0.357   6.865  0.7052 -0.7668  0.7910
  487MOL0     C64211   6.244   0.249   6.955 -0.3322 -0.5429 -0.3790
  487MOL0     C64212   6.378   0.177   6.976  0.4203  0.5031  0.4335
  487MOL0     C64213   6.499   0.260   7.036  0.2375  0.8749  0.3052
  487MOL0     C64214   6.617   0.170   7.095  0.0400 -0.2901 -0.0386
  487MOL0     C64215   6.750   0.234   7.107  0.5242 -0.3091 -0.1047
  487MOL0     C64216   6.857   0.291   7.111  0.0568  0.8397  0.3813
  487MOL0     C64217   6.173   0.525   6.734 -0.8002  0.9147  0.3015
  487MOL0     C64218   6.068   0.608   6.692 -0.2760 -0.1219  0.6530
  487MOL0     H64219   5.502   0.690   6.920  3.5852 -0.0454 -0.8763
  487MOL0     H64220   5.285   0.771   6.863  0.7415  1.2904 -0.9122
  487MOL0     H64221   5.195   0.787   6.415 -0.2915  1.0430 -0.4558
  487MOL0     H64222   5.143   0.953   6.471  0.2021  0.2897  2.6906
  487MOL0     H64223   5.010   0.688   6.548 -2.2674  0.4148  0.7925
  487MOL0     H64224   4.976   0.765   6.390 -1.5631  0.4720 -0.4786
  487MOL0     H64225   4.884   0.961   6.513 -0.1553 -0.6734 -1.5843
  487MOL0     H64226   4.913   0.869   6.670 -3.0529  0.9867  0.8519
  487MOL0     H64227   4.780   0.680   6.586 -0.0914  1.5736  5.8960
  487MOL0     H64228   4.688   0.825   6.633 -2.2356 -0.5556 -1.2108
  487MOL0     H64229   4.656   0.700   6.375  0.1250  0.3457 -1.7358
  487MOL0     H64230   4.749   0.823   6.336  0.8476  1.9037  1.4435
  487MOL0     H64231   4.578   0.991   6.435 -1.7054  1.7935  2.1764
  487MOL0     H64232   4.497   0.850   6.506 -2.0510 -1.2670 -1.1508
  487MOL0     H64233   4.535   0.878   6.205  1.1977  1.5060  1.7754
  487MOL0     H64234   4.447   0.747   6.286 -2.2757  1.2200 -1.6660
  487MOL0     H64235   4.384   1.032   6.234 -0.7247 -0.9173 -1.9904
  487MOL0     H64236   4.324   0.970   6.384 -2.0661 -1.8032 -0.1904
  487MOL0     H64237   4.325   0.838   6.019 -0.7364 -0.1554 -1.7013
  487MOL0     H64238   4.113   0.809   5.837 -0.1039 -0.1902 -0.3649
  487MOL0     H64239   3.954   0.783   5.902  0.9103 -0.9219  0.2583
  487MOL0     H64240   4.169   0.576   5.871 -0.0527 -0.5296 -2.2433
  487MOL0     H64241   4.003   0.587   5.807 -1.8680  1.4735  0.8814
  487MOL0     H64242   4.027   0.419   5.986 -0.1762 -0.0012 -0.8502
  487MOL0     H64243   4.090   0.535   6.091 -0.7289  0.7049  0.4536
  487MOL0     H64244   3.866   0.634   6.102  0.5777  1.6697 -1.2597
  487MOL0     H64245   3.860   0.449   6.097  4.3065 -1.5974 -1.7197
  487MOL0     H64246   3.639   0.531   6.187 -1.1588  1.0664  0.3608
  487MOL0     H64247   3.421   0.515   6.219  1.5961  0.2007  0.5639
  487MOL0     H64248   2.977   0.773   6.144 -0.1873 -0.5519 -0.4238
  487MOL0     H64249   2.767   0.770   6.251 -3.0935 -2.0186  1.7047
  487MOL0     H64250   2.539   0.587   6.144  1.6527  3.1279 -0.7310
  487MOL0     H64251   2.554   0.709   6.257 -1.7934  0.7388  0.5197
  487MOL0     H64252   2.392   0.641   6.385  2.0281  0.3723 -1.5457
  487MOL0     H64253   2.349   0.490   6.289  1.6448 -1.0770 -0.3811
  487MOL0     H64254   2.283   0.606   6.094 -1.2691 -2.1047  1.2348
  487MOL0     H64255   2.336   0.770   6.160  0.2903  0.4333  0.1222
  487MOL0     H64256   2.139   0.597   6.301 -0.3290  1.0782  1.9646
  487MOL0     H64257   2.168   0.771   6.326  1.7498  0.1720 -0.2335
  487MOL0     H64258   2.035   0.648   6.074  3.5404  1.1508 -0.3504
  487MOL0     H64259   2.063   0.813   6.106  1.2895  1.8198  2.2257
  487MOL0     H64260   1.930   0.810   6.308 -2.4386  1.5951 -0.6659
  487MOL0     H64261   1.900   0.630   6.287  0.0974  0.2347 -0.8413
  487MOL0     H64262   1.827   0.844   6.084 -1.6354  0.0367 -0.0385
  487MOL0     H64263   1.788   0.677   6.083  1.8732  1.5503 -2.7611
  487MOL0     H64264   1.674   0.694   6.312  0.5961 -1.7624 -1.3038
  487MOL0     H64265   1.590   0.785   6.176 -0.2551  1.7444  0.2726
  487MOL0     H64266   2.810   0.357   6.331  3.0562 -1.8693 -0.7458
  487MOL0     H64267   3.042   0.361   6.274 -0.0288  0.1912  2.6815
  487MOL0     H64268   3.343   0.532   5.793 -1.6292 -0.3403  0.7336
  487MOL0     H64269   3.585   0.526   5.752 -0.3866 -0.2715 -0.1927
  487MOL0     H64270   5.414   0.841   6.454 -0.7634 -1.5037 -0.4951
  487MOL0     H64271   5.642   0.770   6.518  0.7741  0.0439  1.0024
  487MOL0     H64272   5.825   0.488   6.887 -1.1569 -0.0282 -2.1822
  487MOL0     H64273   6.014   0.336   6.966 -0.7012  1.5921  2.0966
  487MOL0     H64274   6.173   0.177   6.913  0.1789 -0.6041 -1.1597
  487MOL0     H64275   6.214   0.284   7.055 -0.2876 -0.6396 -0.3325
  487MOL0     H64276   6.354   0.094   7.042  2.6845  0.1347  0.8923
  487MOL0     H64277   6.407   0.131   6.881 -2.1797 -1.0587  0.3138
  487MOL0     H64278   6.470   0.338   7.106  2.0778  1.7683  0.1100
  487MOL0     H64279   6.540   0.307   6.946  1.2014  0.6859  0.6359
  487MOL0     H64280   6.587   0.155   7.199  0.4874  0.1295  0.1552
  487MOL0     H64281   6.627   0.075   7.041 -1.2239  0.0447 -0.9009
  487MOL0     H64282   6.960   0.319   7.115  0.5172 -0.5677 -0.8279
  487MOL0     H64283   6.270   0.523   6.685 -0.3680 -1.2329  1.1266
  487MOL0     H64284   6.083   0.677   6.609  0.6056  1.0212  1.7253
  488MOL0     O64285   5.249   5.244   5.266 -0.2250  0.1255  0.2977
  488MOL0     C64286   5.324   5.298   5.188 -0.2159  0.5099  0.1398
  488MOL0     O64287   5.277   5.353   5.070 -0.8881  0.2554  0.3629
  488MOL0     C64288   5.148   5.330   5.033  0.2292 -0.0615  0.2670
  488MOL0     C64289   5.091   5.205   5.015  0.5318 -0.1334 -0.8764
  488MOL0     C64290   4.960   5.194   4.979 -0.9994  0.5763 -0.1191
  488MOL0     C64291   4.880   5.306   4.967  0.1505  0.2439  0.4549
  488MOL0     O64292   4.753   5.289   4.921 -0.0792 -0.6054  0.1116
  488MOL0     C64293   4.687   5.405   4.863 -1.2493  0.4800 -0.6452
  488MOL0     C64294   4.553   5.374   4.805  0.8510 -0.8606  0.5834
  488MOL0     C64295   4.485   5.476   4.711  0.4779 -0.2837 -0.3896
  488MOL0     C64296   4.555   5.456   4.568  1.0522  0.5063 -0.2885
  488MOL0     C64297   4.470   5.525   4.459 -0.4326 -0.2744  0.0706
  488MOL0     C64298   4.354   5.441   4.393 -0.4702 -0.2349 -1.0479
  488MOL0     C64299   4.274   5.527   4.305  0.8607 -0.3017  0.9282
  488MOL0     C64300   4.126   5.483   4.297  0.0140  0.8310 -0.2343
  488MOL0     N64301   4.044   5.528   4.410  0.6736 -0.7061  0.1742
  488MOL0     C64302   3.941   5.626   4.394 -0.0483  0.8169 -0.2005
  488MOL0     C64303   3.893   5.640   4.524 -0.3739  0.7740  0.5963
  488MOL0     C64304   3.806   5.745   4.587  0.3962  0.1831 -0.4875
  488MOL0     C64305   3.708   5.794   4.481 -0.3234  0.0255 -0.1217
  488MOL0     C64306   3.606   5.899   4.537  0.0392  0.2885 -0.4176
  488MOL0     C64307   3.509   5.836   4.644 -0.1127 -0.0927 -0.0984
  488MOL0     O64308   3.456   5.715   4.582  0.2959 -0.2250  0.6862
  488MOL0     C64309   3.317   5.699   4.573 -0.4417 -0.6395 -0.5955
  488MOL0     C64310   3.251   5.634   4.676  0.3332 -0.5308  0.8155
  488MOL0     C64311   3.110   5.622   4.683 -0.8058  0.6634  0.1530
  488MOL0     C64312   3.028   5.676   4.581  0.1455  0.0734 -0.6371
  488MOL0     C64313   2.882   5.674   4.597 -0.0478 -0.9986 -0.0648
  488MOL0     O64314   2.814   5.734   4.490 -0.1592  0.7326  0.1658
  488MOL0     C64315   2.682   5.707   4.462  0.1729 -0.0023  0.0694
  488MOL0     C64316   2.579   5.698   4.564 -0.4590  0.3754 -0.2399
  488MOL0     C64317   2.447   5.673   4.527 -0.5512  0.9606 -0.1009
  488MOL0     C64318   2.398   5.668   4.398 -0.8262  0.0742 -0.1949
  488MOL0     O64319   2.267   5.650   4.376  0.0056 -0.2699 -0.4212
  488MOL0     C64320   2.230   5.542   4.293  0.5236  0.8716  0.1818
  488MOL0     C64321   2.085   5.518   4.303 -0.4735 -0.0534 -0.5028
  488MOL0     C64322   1.995   5.648   4.277 -0.7730  0.4594 -0.2336
  488MOL0     C64323   1.848   5.620   4.302  0.1497  0.0772 -0.3103
  488MOL0     C64324   1.764   5.743   4.272  0.6930  0.7148 -0.5232
  488MOL0     C64325   1.617   5.719   4.297 -0.1081  0.7262 -0.8690
  488MOL0     C64326   1.540   5.843   4.274  0.3215 -0.1094 -0.0341
  488MOL0     C64327   1.532   5.888   4.128 -0.3579 -0.3409  0.3010
  488MOL0    Cl64328   1.450   5.761   4.029  0.0923 -0.5378 -0.0500
  488MOL0     C64329   2.500   5.693   4.292  0.3588  0.3888 -0.4941
  488MOL0     C64330   2.635   5.719   4.326  0.2941  0.0318  0.0102
  488MOL0     O64331   2.832   5.601   4.675 -0.1277  0.1849  0.2427
  488MOL0     C64332   3.088   5.739   4.472  0.5182  0.2573  0.2433
  488MOL0     C64333   3.232   5.740   4.464  0.2647 -0.3998 -0.3488
  488MOL0     N64334   3.954   5.544   4.608 -0.3645  0.1346 -0.1655
  488MOL0     N64335   4.047   5.483   4.536 -0.3331  0.5887 -0.1425
  488MOL0     C64336   4.932   5.432   5.002  0.0695 -1.1862 -0.6568
  488MOL0     C64337   5.071   5.442   5.031  0.6419  0.0050 -1.2644
  488MOL0     C64338   5.464   5.315   5.222 -0.3556 -0.1036 -0.1648
  488MOL0     C64339   5.546   5.366   5.118 -0.5300  0.0769 -0.2343
  488MOL0     C64340   5.677   5.398   5.145 -0.7900 -0.4799 -0.5583
  488MOL0     C64341   5.737   5.371   5.266 -0.4481  0.2545 -0.5463
  488MOL0     O64342   5.874   5.380   5.285 -0.5121  0.0391 -0.2438
  488MOL0     C64343   5.956   5.450   5.196 -0.9415  1.1010 -0.2147
  488MOL0     C64344   6.085   5.486   5.253  0.0720 -0.2156  0.9050
  488MOL0     C64345   6.182   5.370   5.290 -0.0350  0.0161  0.2508
  488MOL0     C64346   6.297   5.331   5.194 -0.1175  0.5611  0.6332
  488MOL0     C64347   6.379   5.442   5.161  0.2157  0.5283 -0.0272
  488MOL0     C64348   6.469   5.527   5.171  0.8383 -0.5302 -0.1393
  488MOL0     C64349   5.665   5.303   5.360 -0.0216 -0.7002 -0.0843
  488MOL0     C64350   5.531   5.272   5.337 -0.1580  0.2160 -0.3681
  488MOL0     H64351   5.157   5.119   5.020  0.0094 -0.8739 -4.3164
  488MOL0     H64352   4.907   5.100   4.968 -1.8433  1.0225  0.0495
  488MOL0     H64353   4.747   5.449   4.783 -0.3502  0.0706 -0.2100
  488MOL0     H64354   4.679   5.480   4.942  1.0410  0.0274  0.1013
  488MOL0     H64355   4.481   5.372   4.887  2.3957  1.8209  2.1786
  488MOL0     H64356   4.547   5.273   4.765 -0.1441 -0.9477  0.9270
  488MOL0     H64357   4.488   5.575   4.758  0.5010 -0.5326  0.1483
  488MOL0     H64358   4.381   5.444   4.703  0.5073 -1.9024  3.5194
  488MOL0     H64359   4.658   5.493   4.566  1.0152  0.8710 -4.7226
  488MOL0     H64360   4.557   5.349   4.547 -1.0153  0.2833  0.3693
  488MOL0     H64361   4.544   5.552   4.383  0.0246  0.3828  0.7447
  488MOL0     H64362   4.442   5.627   4.489 -2.1573 -0.2010 -1.5850
  488MOL0     H64363   4.303   5.418   4.487  2.9153  0.3153  1.0941
  488MOL0     H64364   4.394   5.349   4.349 -2.1802 -1.7534  0.4031
  488MOL0     H64365   4.272   5.634   4.328  2.5920 -0.2871  1.0986
  488MOL0     H64366   4.306   5.528   4.200 -2.6475  1.7285 -0.2759
  488MOL0     H64367   4.116   5.374   4.299  0.1876  0.8205  0.4107
  488MOL0     H64368   4.076   5.521   4.207 -1.1901  0.0353  0.0754
  488MOL0     H64369   3.916   5.693   4.313  0.3282 -0.3199 -1.2785
  488MOL0     H64370   3.871   5.821   4.632 -0.3160  0.8842 -0.6347
  488MOL0     H64371   3.745   5.694   4.662 -2.1660 -0.0397 -2.6061
  488MOL0     H64372   3.660   5.707   4.437  1.1012 -0.4349 -0.8279
  488MOL0     H64373   3.769   5.845   4.406  0.6818 -0.6625  0.2136
  488MOL0     H64374   3.666   5.972   4.592 -1.6259  1.0631  0.4376
  488MOL0     H64375   3.540   5.946   4.463 -0.0636  2.2650  0.8474
  488MOL0     H64376   3.426   5.903   4.668  1.1742  0.5642  2.8934
  488MOL0     H64377   3.565   5.821   4.736  0.3871  3.9636  0.4483
  488MOL0     H64378   3.319   5.590   4.748  2.2533 -0.0486 -0.5969
  488MOL0     H64379   3.065   5.577   4.771  1.1447  0.9897  1.3699
  488MOL0     H64380   2.592   5.699   4.672 -2.4607 -1.9712  0.1016
  488MOL0     H64381   2.374   5.659   4.606 -0.7177  0.7745 -0.2886
  488MOL0     H64382   2.281   5.454   4.335  0.7604  0.4821 -0.8923
  488MOL0     H64383   2.259   5.560   4.189 -1.6847 -0.4894 -0.7453
  488MOL0     H64384   2.069   5.482   4.405  1.9257 -0.2907 -0.1556
  488MOL0     H64385   2.059   5.443   4.228 -2.0143 -1.2492  1.1533
  488MOL0     H64386   2.010   5.686   4.175  0.4379  0.3999 -0.0996
  488MOL0     H64387   2.027   5.731   4.340  3.9841 -1.3684  0.2410
  488MOL0     H64388   1.816   5.540   4.235 -1.3200  1.5758 -1.5018
  488MOL0     H64389   1.822   5.595   4.405 -1.9926 -0.1767 -0.8565
  488MOL0     H64390   1.791   5.782   4.173  0.8021 -0.9195 -1.1588
  488MOL0     H64391   1.794   5.823   4.341  3.0263  0.0292 -0.6756
  488MOL0     H64392   1.606   5.682   4.400 -1.6900 -0.4600 -1.4239
  488MOL0     H64393   1.572   5.636   4.241 -1.5318 -0.0316  1.2652
  488MOL0     H64394   1.438   5.824   4.306 -0.4041 -1.6355 -2.9494
  488MOL0     H64395   1.576   5.930   4.329  1.6438 -0.5648 -0.1179
  488MOL0     H64396   1.629   5.905   4.081 -1.4140  2.6129 -1.0828
  488MOL0     H64397   1.486   5.987   4.125  0.5487  0.0691 -1.6044
  488MOL0     H64398   2.475   5.702   4.186 -2.1150 -1.6610 -0.2009
  488MOL0     H64399   2.703   5.748   4.247  0.7632 -3.1107 -0.8794
  488MOL0     H64400   3.032   5.776   4.388 -1.4852 -1.0557  0.9306
  488MOL0     H64401   3.283   5.782   4.377 -1.4978  0.1007 -1.1831
  488MOL0     H64402   4.876   5.525   4.996  1.1917 -0.5404 -1.4089
  488MOL0     H64403   5.116   5.536   5.062 -2.2522  0.0523  4.0660
  488MOL0     H64404   5.512   5.392   5.018 -2.4804 -1.7409 -0.1062
  488MOL0     H64405   5.732   5.438   5.061  0.6754  0.4942  0.8099
  488MOL0     H64406   5.900   5.537   5.162 -3.0410 -0.0479  0.1142
  488MOL0     H64407   5.981   5.385   5.111  1.8998 -1.4279  2.2953
  488MOL0     H64408   6.133   5.537   5.169  1.6571  1.9502  2.9859
  488MOL0     H64409   6.068   5.556   5.335 -0.5879 -0.7083  1.2034
  488MOL0     H64410   6.125   5.284   5.326  1.1242 -1.1443 -0.5747
  488MOL0     H64411   6.225   5.403   5.385  1.7492 -0.2080 -0.4477
  488MOL0     H64412   6.360   5.259   5.247  0.6261  0.1145 -0.8161
  488MOL0     H64413   6.256   5.288   5.103  1.6540 -0.6327  0.3495
  488MOL0     H64414   6.547   5.599   5.155  0.5674  0.0975  1.2231
  488MOL0     H64415   5.698   5.282   5.461  0.9707  1.9231  0.2174
  488MOL0     H64416   5.478   5.236   5.425  0.1283  1.6893  0.4400
  489MOL0     O64417   0.129  11.117   9.605  0.0306 -0.3824 -0.0112
  489MOL0     C64418   0.233  11.058   9.613 -0.3201 -0.3191 -0.1896
  489MOL0     O64419   0.248  10.923   9.600  0.1272  0.5535 -0.4047
  489MOL0     C64420   0.146  10.828   9.576  0.4980 -0.8237  0.5331
  489MOL0     C64421   0.194  10.697   9.546  0.5853  0.2534 -0.0188
  489MOL0     C64422   0.101  10.598   9.513 -0.7035  0.1867  0.0146
  489MOL0     C64423  -0.038  10.615   9.506  0.3056  0.3115 -0.0953
  489MOL0     O64424  -0.114  10.507   9.462  0.4088 -0.4317 -0.3863
  489MOL0     C64425  -0.252  10.532   9.476 -0.0694  0.3755  0.3461
  489MOL0     C64426  -0.337  10.411   9.444 -0.3341 -0.1814  0.2960
  489MOL0     C64427  -0.359  10.366   9.303  0.2649 -0.2476 -0.2511
  489MOL0     C64428  -0.464  10.248   9.303 -0.2518 -0.0555 -0.4146
  489MOL0     C64429  -0.466  10.182   9.168 -0.0570 -0.5704  0.5534
  489MOL0     C64430  -0.479  10.032   9.183  0.1435  0.8777 -0.1558
  489MOL0     C64431  -0.473   9.960   9.047  0.2449  0.6976 -0.7643
  489MOL0     C64432  -0.460   9.807   9.065  0.3851  0.2049  0.1429
  489MOL0     N64433  -0.561   9.756   9.160 -0.7569 -0.4385 -0.8167
  489MOL0     C64434  -0.695   9.758   9.141 -0.1657 -0.5838  1.1273
  489MOL0     C64435  -0.747   9.722   9.262  0.4762  0.0194  0.8887
  489MOL0     C64436  -0.887   9.664   9.278 -0.2141 -0.4760 -0.5921
  489MOL0     C64437  -0.994   9.761   9.269 -0.4384 -0.7261 -0.3434
  489MOL0     C64438  -0.995   9.853   9.390 -0.7648 -0.1331 -0.0952
  489MOL0     C64439  -1.099   9.973   9.371 -0.6479 -0.1791  0.1041
  489MOL0     O64440  -1.216   9.940   9.296  0.0773 -0.0806  0.6290
  489MOL0     C64441  -1.343   9.955   9.345 -0.7396  0.2085 -0.1217
  489MOL0     C64442  -1.375   9.978   9.475 -0.1171 -0.2960 -0.0770
  489MOL0     C64443  -1.510   9.995   9.520 -0.3303 -0.0856 -1.1294
  489MOL0     C64444  -1.612   9.971   9.426  0.9744  0.4775  0.2278
  489MOL0     C64445  -1.756   9.992   9.459  0.0045  0.5091  0.4972
  489MOL0     O64446  -1.791  10.059   9.572  0.3004  0.0415 -0.2602
  489MOL0     C64447  -1.916  10.069   9.619 -0.8712 -0.0988  0.3701
  489MOL0     C64448  -1.972  10.188   9.660  0.5758 -0.5465 -0.7200
  489MOL0     C64449  -2.103  10.193   9.723 -0.0935  1.0406 -0.1525
  489MOL0     C64450  -2.172  10.076   9.738  0.4564  0.0398  0.5566
  489MOL0     O64451  -2.305  10.078   9.776  0.4547  0.0083 -0.1274
  489MOL0     C64452  -2.390   9.965   9.796 -0.6406  0.1861 -0.6564
  489MOL0     C64453  -2.524  10.032   9.835  0.0689  0.0740  0.5390
  489MOL0     C64454  -2.637   9.932   9.823  0.6563 -0.4025  0.1334
  489MOL0     C64455  -2.773   9.996   9.802  1.2555 -0.3914  0.0726
  489MOL0     C64456  -2.889   9.895   9.764 -0.2235 -0.5829  0.0234
  489MOL0     C64457  -2.920   9.808   9.885  0.6531  0.3948 -0.1053
  489MOL0     C64458  -3.013   9.686   9.856 -0.3884 -0.5336 -0.7214
  489MOL0     C64459  -3.163   9.708   9.847 -0.6418  0.5669  0.3017
  489MOL0    Cl64460  -3.241   9.785   9.989  0.2664  0.2645 -0.5645
  489MOL0     C64461  -2.119   9.957   9.696  0.2071  0.8055 -0.2991
  489MOL0     C64462  -1.989   9.949   9.647 -0.9991  0.0789 -0.5923
  489MOL0     O64463  -1.839   9.957   9.376  0.1704  0.1890 -0.0569
  489MOL0     C64464  -1.583   9.942   9.291 -0.3422 -0.2193 -0.3113
  489MOL0     C64465  -1.443   9.931   9.256  0.1593 -0.5698  0.0546
  489MOL0     N64466  -0.647   9.702   9.356 -0.3991  0.3872 -0.2928
  489MOL0     N64467  -0.537   9.726   9.290 -0.6676  0.6067 -0.0145
  489MOL0     C64468  -0.088  10.740   9.543 -0.1949 -0.2925 -0.6172
  489MOL0     C64469   0.006  10.844   9.578 -0.0372  0.3814 -0.4336
  489MOL0     C64470   0.367  11.128   9.618  0.3679 -1.0811 -0.2240
  489MOL0     C64471   0.378  11.249   9.686  0.9908  1.1255 -0.3928
  489MOL0     C64472   0.505  11.300   9.692  0.6206  0.4579 -0.5765
  489MOL0     C64473   0.623  11.246   9.629 -0.7158  0.0937 -0.2397
  489MOL0     O64474   0.744  11.308   9.641 -0.3242  0.0627 -0.1492
  489MOL0     C64475   0.826  11.318   9.521 -0.3604  0.6846 -0.6133
  489MOL0     C64476   0.924  11.437   9.542  0.5064 -0.1123 -0.4493
  489MOL0     C64477   1.050  11.385   9.617  0.0218 -0.6505  1.0226
  489MOL0     C64478   1.166  11.361   9.521 -0.3448 -0.2534 -0.4803
  489MOL0     C64479   1.218  11.481   9.465  0.9675 -0.3074  0.5190
  489MOL0     C64480   1.254  11.579   9.416  0.3052  0.4891 -0.6366
  489MOL0     C64481   0.610  11.121   9.568  0.6898  0.2540 -0.0779
  489MOL0     C64482   0.480  11.061   9.559 -0.0948  0.3028  0.7180
  489MOL0     H64483   0.299  10.671   9.557  0.8306 -0.4216 -3.0965
  489MOL0     H64484   0.123  10.495   9.487 -1.9268 -0.0451 -0.1406
  489MOL0     H64485  -0.285  10.602   9.398  0.4132 -0.5543 -0.7300
  489MOL0     H64486  -0.277  10.571   9.575  0.5476  3.8275 -0.7170
  489MOL0     H64487  -0.434  10.428   9.491  0.1296 -2.2112  2.1412
  489MOL0     H64488  -0.282  10.331   9.493  0.9027  0.0975 -0.5733
  489MOL0     H64489  -0.265  10.332   9.259  1.4856  1.8769  0.6167
  489MOL0     H64490  -0.408  10.447   9.249  1.6608  1.1240  0.4896
  489MOL0     H64491  -0.424  10.178   9.377  1.4719  1.1045 -0.1863
  489MOL0     H64492  -0.565  10.282   9.324 -0.7468 -1.6043 -0.1757
  489MOL0     H64493  -0.375  10.208   9.113  0.4132  0.4388  1.7633
  489MOL0     H64494  -0.554  10.221   9.115 -0.5435 -1.3499  0.7791
  489MOL0     H64495  -0.571  10.001   9.233  0.3404  1.6858  0.7451
  489MOL0     H64496  -0.396   9.989   9.242 -2.5023  0.6546  3.7914
  489MOL0     H64497  -0.569   9.979   9.000 -1.2726  0.1349  1.9312
  489MOL0     H64498  -0.384   9.979   8.986  1.2991 -0.2187  0.4185
  489MOL0     H64499  -0.360   9.776   9.094 -0.8859 -3.0622  1.4622
  489MOL0     H64500  -0.483   9.759   8.969 -0.0821 -2.8426  1.6717
  489MOL0     H64501  -0.749   9.764   9.046  1.0014  0.1426  0.4897
  489MOL0     H64502  -0.897   9.605   9.369 -1.2451 -0.1821 -0.5058
  489MOL0     H64503  -0.902   9.595   9.194  0.0332 -2.0796  0.6428
  489MOL0     H64504  -1.090   9.709   9.269 -1.0792  0.2329  2.5023
  489MOL0     H64505  -0.994   9.810   9.172 -2.0711  1.9246  0.8693
  489MOL0     H64506  -1.031   9.794   9.476 -1.2568  0.6000  0.2129
  489MOL0     H64507  -0.897   9.893   9.415  1.1649 -3.6078 -1.4250
  489MOL0     H64508  -1.049  10.056   9.320 -1.0613 -0.3671 -0.6204
  489MOL0     H64509  -1.126  10.014   9.469 -1.8278 -0.0713 -0.2555
  489MOL0     H64510  -1.296   9.987   9.549  0.9513  0.5652 -1.2577
  489MOL0     H64511  -1.520  10.012   9.626  2.9882 -3.4012 -0.0464
  489MOL0     H64512  -1.930  10.287   9.645  2.6791 -1.0256  1.4729
  489MOL0     H64513  -2.147  10.288   9.751  0.3484  2.1864 -2.9824
  489MOL0     H64514  -2.348   9.899   9.873  0.2313 -0.0749 -1.3312
  489MOL0     H64515  -2.395   9.909   9.702  0.8526  0.6050 -1.0138
  489MOL0     H64516  -2.530  10.118   9.767  1.5514  2.1633  2.9018
  489MOL0     H64517  -2.527  10.072   9.937 -0.7309  0.8875  0.2171
  489MOL0     H64518  -2.634   9.864   9.908  1.6667  1.6701  1.8491
  489MOL0     H64519  -2.615   9.867   9.738  1.8237  2.2015 -1.6909
  489MOL0     H64520  -2.801  10.042   9.898 -0.3630 -0.0796 -0.5219
  489MOL0     H64521  -2.769  10.077   9.728  0.4296 -1.5948 -1.3344
  489MOL0     H64522  -2.865   9.833   9.678 -0.4126  1.3181 -1.4773
  489MOL0     H64523  -2.978   9.956   9.744  0.5021  0.0117 -1.5111
  489MOL0     H64524  -2.955   9.865   9.972  1.2646 -1.3937  1.3899
  489MOL0     H64525  -2.825   9.762   9.915 -0.7128 -3.1587 -0.6571
  489MOL0     H64526  -2.965   9.647   9.766 -1.6176 -0.5537 -1.3845
  489MOL0     H64527  -2.989   9.614   9.935  3.1112  0.2822 -0.8579
  489MOL0     H64528  -3.203   9.607   9.831 -2.2738  1.5326 -2.5538
  489MOL0     H64529  -3.193   9.761   9.755  1.6968  0.3079 -0.6713
  489MOL0     H64530  -2.174   9.864   9.707  0.2199  0.6381 -1.5966
  489MOL0     H64531  -1.933   9.859   9.624 -2.7406 -1.5571  1.2000
  489MOL0     H64532  -1.659   9.931   9.214 -1.1205 -3.2345  0.7665
  489MOL0     H64533  -1.421   9.897   9.156 -1.0463 -2.3121  0.3330
  489MOL0     H64534  -0.195  10.758   9.541 -0.2759 -0.8019 -1.2886
  489MOL0     H64535  -0.027  10.944   9.603 -0.5662 -0.0703  0.7601
  489MOL0     H64536   0.293  11.303   9.725  0.4361  1.6540 -2.2279
  489MOL0     H64537   0.513  11.398   9.738 -1.1290  0.4065 -0.0807
  489MOL0     H64538   0.767  11.335   9.430  1.8767  0.7443 -2.1507
  489MOL0     H64539   0.886  11.230   9.494 -0.0151  0.7696 -0.1425
  489MOL0     H64540   0.949  11.478   9.443 -1.8388 -0.7847 -1.3801
  489MOL0     H64541   0.876  11.524   9.588  1.8636  1.1500 -1.3153
  489MOL0     H64542   1.025  11.294   9.673  1.3310 -0.9544  1.1385
  489MOL0     H64543   1.091  11.465   9.679 -1.4632  1.9406 -1.1139
  489MOL0     H64544   1.243  11.304   9.574  1.1973 -0.0723 -2.4020
  489MOL0     H64545   1.137  11.305   9.432 -0.5336 -1.9742  0.6225
  489MOL0     H64546   1.296  11.668   9.374 -3.6984  2.8325 -0.2704
  489MOL0     H64547   0.694  11.065   9.529 -0.0337 -0.6850 -0.3296
  489MOL0     H64548   0.463  10.971   9.502 -0.7693  1.1689 -0.4887
  490MOL0     O64549  10.469   6.127   8.973 -0.4317 -0.5013  0.6760
  490MOL0     C64550  10.491   6.236   8.919 -0.1142  0.1940  0.2717
  490MOL0     O64551  10.401   6.331   8.886  0.3381 -0.3284 -0.6461
  490MOL0     C64552  10.282   6.315   8.944 -0.1309 -0.8580 -0.1278
  490MOL0     C64553  10.251   6.404   9.051  0.5680  0.0348  0.3850
  490MOL0     C64554  10.125   6.399   9.108  0.4064  0.1047 -1.3116
  490MOL0     C64555  10.027   6.306   9.061 -0.5025 -0.5282 -0.6996
  490MOL0     O64556   9.906   6.321   9.132  0.4810 -0.5146  0.5036
  490MOL0     C64557   9.834   6.198   9.137  0.9621 -0.6062 -0.6479
  490MOL0     C64558   9.718   6.224   9.247 -0.1215  0.5661  0.0641
  490MOL0     C64559   9.650   6.091   9.292  0.2459 -0.2383  1.0338
  490MOL0     C64560   9.567   6.106   9.414 -0.5413 -0.1698 -1.0420
  490MOL0     C64561   9.449   6.203   9.407 -0.6045  0.0657  0.0120
  490MOL0     C64562   9.333   6.134   9.335  1.2682  0.7315  0.2108
  490MOL0     C64563   9.209   6.233   9.346 -0.3118  0.9430  0.5522
  490MOL0     C64564   9.077   6.182   9.289  0.0659 -0.9492 -0.0671
  490MOL0     N64565   8.966   6.247   9.346 -0.3392 -0.4552 -0.1835
  490MOL0     C64566   8.957   6.377   9.402 -0.5326  0.4928  0.2593
  490MOL0     C64567   8.826   6.386   9.445  0.4204  0.5535  1.0048
  490MOL0     C64568   8.753   6.489   9.536 -0.9967  0.0778  1.1898
  490MOL0     C64569   8.611   6.530   9.482  0.2486 -0.1427 -1.0661
  490MOL0     C64570   8.548   6.649   9.558 -0.3557  0.7188 -0.4211
  490MOL0     C64571   8.438   6.707   9.481 -0.4996 -0.1132 -0.5338
  490MOL0     O64572   8.381   6.800   9.581 -0.5028  0.1447  0.0620
  490MOL0     C64573   8.276   6.878   9.532  0.1927 -0.9483 -0.1711
  490MOL0     C64574   8.206   6.875   9.408 -0.4863  0.7044  0.7987
  490MOL0     C64575   8.094   6.947   9.387  0.7282  0.4663 -0.4279
  490MOL0     C64576   8.045   7.034   9.488 -0.1651  0.6916 -0.9591
  490MOL0     C64577   7.922   7.117   9.476  0.0914 -0.2409  0.1777
  490MOL0     O64578   7.891   7.204   9.573 -0.2784  0.2929 -0.7669
  490MOL0     C64579   7.779   7.283   9.550  0.4442  0.2153  0.0860
  490MOL0     C64580   7.652   7.242   9.597  0.6981 -0.7787 -0.6801
  490MOL0     C64581   7.541   7.318   9.572 -0.3354  0.3182  0.4644
  490MOL0     C64582   7.551   7.446   9.506 -0.0932 -0.3828 -0.1460
  490MOL0     O64583   7.442   7.531   9.508 -0.0205  0.0795 -0.2475
  490MOL0     C64584   7.395   7.602   9.390 -0.4667 -0.3423 -0.3557
  490MOL0     C64585   7.419   7.752   9.407  0.0132 -0.6827  0.4206
  490MOL0     C64586   7.380   7.839   9.289  0.0133 -0.3613 -0.4792
  490MOL0     C64587   7.231   7.843   9.251 -0.9463  0.6883 -0.1496
  490MOL0     C64588   7.131   7.888   9.359  0.2584 -0.0148  0.0292
  490MOL0     C64589   6.991   7.909   9.293 -0.4820  0.2819  0.2077
  490MOL0     C64590   6.875   7.942   9.395  0.3765  0.0336  0.0667
  490MOL0     C64591   6.748   7.962   9.306  0.0140 -0.2832 -0.5558
  490MOL0    Cl64592   6.642   8.081   9.380 -0.0420  0.0365 -0.1386
  490MOL0     C64593   7.674   7.482   9.443 -0.0486  0.0553  0.3507
  490MOL0     C64594   7.786   7.405   9.478 -0.5465 -0.2983 -0.0597
  490MOL0     O64595   7.859   7.110   9.370  0.6413  0.0888 -0.1844
  490MOL0     C64596   8.114   7.043   9.610 -0.1782  0.0762  1.0552
  490MOL0     C64597   8.227   6.960   9.628  0.7189 -0.1082  0.1778
  490MOL0     N64598   8.762   6.272   9.397  0.0578  0.2589  0.0399
  490MOL0     N64599   8.843   6.195   9.337  0.7489 -0.1018 -0.3072
  490MOL0     C64600  10.054   6.231   8.947 -0.0235 -0.2768  0.1069
  490MOL0     C64601  10.180   6.238   8.891 -0.2978  0.3637  0.2509
  490MOL0     C64602  10.632   6.253   8.873 -0.5153  0.3331 -0.8009
  490MOL0     C64603  10.724   6.145   8.904  0.1091  0.4437 -0.0507
  490MOL0     C64604  10.861   6.160   8.864  0.0205 -0.7659 -0.1114
  490MOL0     C64605  10.910   6.278   8.804  0.9999  0.6512 -0.6920
  490MOL0     O64606  11.039   6.312   8.786  0.5547 -0.3392  0.2005
  490MOL0     C64607  11.135   6.248   8.868 -0.5701 -0.8728  0.3954
  490MOL0     C64608  11.278   6.280   8.824  0.1818  0.6380  0.1377
  490MOL0     C64609  11.371   6.184   8.894 -0.8804  0.0835  0.3415
  490MOL0     C64610  11.515   6.226   8.883  0.2400 -0.6319 -0.9054
  490MOL0     C64611  11.614   6.127   8.939  0.3794  0.0744  0.0673
  490MOL0     C64612  11.698   6.042   8.975  0.1430 -0.4961 -1.1793
  490MOL0     C64613  10.817   6.373   8.767 -0.2048  0.7910  0.2974
  490MOL0     C64614  10.682   6.369   8.808  0.0572 -0.3542 -0.1838
  490MOL0     H64615  10.336   6.457   9.090 -0.1785  0.5207  1.3935
  490MOL0     H64616  10.087   6.447   9.198  0.2357 -2.4667  0.0860
  490MOL0     H64617   9.907   6.127   9.177  0.8512  0.5908  1.8738
  490MOL0     H64618   9.795   6.170   9.039  0.5735  0.9203 -0.9525
  490MOL0     H64619   9.637   6.289   9.213 -0.5681 -0.6817 -1.3838
  490MOL0     H64620   9.774   6.259   9.334  0.4605 -1.0391  0.3633
  490MOL0     H64621   9.726   6.014   9.304 -1.1568 -1.8067  0.1894
  490MOL0     H64622   9.585   6.065   9.208  0.0670  1.5080  0.5741
  490MOL0     H64623   9.521   6.009   9.434  0.0273 -0.9054 -3.1030
  490MOL0     H64624   9.623   6.143   9.500  0.9248 -3.4559 -0.4693
  490MOL0     H64625   9.471   6.293   9.349 -0.5115  0.0963  0.0952
  490MOL0     H64626   9.422   6.232   9.509  4.4496  1.9563  1.1145
  490MOL0     H64627   9.308   6.037   9.379  0.5136 -0.9938 -3.6153
  490MOL0     H64628   9.350   6.098   9.233  1.0956 -3.5579  1.4941
  490MOL0     H64629   9.192   6.269   9.448 -0.2999  1.0101  0.5305
  490MOL0     H64630   9.229   6.322   9.286 -4.4530  2.4546  1.1331
  490MOL0     H64631   9.065   6.079   9.324  0.8480 -1.0465 -0.0758
  490MOL0     H64632   9.071   6.203   9.182 -3.0328  1.0037  0.3459
  490MOL0     H64633   9.035   6.448   9.426 -0.8621  1.5670 -1.6678
  490MOL0     H64634   8.816   6.578   9.538  0.3109 -0.8008  0.3675
  490MOL0     H64635   8.733   6.454   9.638 -3.9273  0.8140  0.9598
  490MOL0     H64636   8.545   6.444   9.481 -0.1773  0.1210  0.9435
  490MOL0     H64637   8.631   6.560   9.378  1.0936  2.5570 -0.2209
  490MOL0     H64638   8.515   6.620   9.658  2.0415  0.3596  0.3297
  490MOL0     H64639   8.624   6.728   9.563 -1.4638  1.7967 -0.1046
  490MOL0     H64640   8.367   6.627   9.457  1.3218 -1.9703 -0.0303
  490MOL0     H64641   8.465   6.755   9.387 -0.6876  1.6545  0.2702
  490MOL0     H64642   8.246   6.804   9.337  0.0077  1.0842  0.6912
  490MOL0     H64643   8.038   6.933   9.295  2.3651 -2.1866 -1.1430
  490MOL0     H64644   7.649   7.150   9.655  0.4346 -0.9294 -0.9294
  490MOL0     H64645   7.439   7.294   9.601 -0.4863  0.1920 -0.1500
  490MOL0     H64646   7.287   7.589   9.383 -1.4402  5.1148 -0.0707
  490MOL0     H64647   7.444   7.554   9.305  1.1555  1.8479 -0.7388
  490MOL0     H64648   7.527   7.759   9.423  0.0712  1.3211 -0.5992
  490MOL0     H64649   7.362   7.781   9.495  0.5405  0.7582  0.3146
  490MOL0     H64650   7.433   7.799   9.201 -2.5728 -1.8939 -1.4893
  490MOL0     H64651   7.398   7.940   9.326 -1.8460 -1.5101  4.2820
  490MOL0     H64652   7.217   7.903   9.161  0.6701 -0.8477 -1.5026
  490MOL0     H64653   7.214   7.740   9.216 -0.1868  0.5720 -0.1790
  490MOL0     H64654   7.162   7.985   9.400  1.4664  0.2578 -1.4746
  490MOL0     H64655   7.138   7.820   9.445  0.0850 -0.3525 -0.2237
  490MOL0     H64656   6.961   7.816   9.245 -0.6145  0.6980 -0.5247
  490MOL0     H64657   6.994   7.987   9.216  0.2338 -0.3946 -0.4587
  490MOL0     H64658   6.854   7.869   9.474 -2.1821  0.4768 -0.1168
  490MOL0     H64659   6.908   8.035   9.441  1.3145 -1.6849  3.1665
  490MOL0     H64660   6.698   7.866   9.289 -2.1978  0.5497  0.9139
  490MOL0     H64661   6.778   8.011   9.213  1.3664 -0.9609 -0.5093
  490MOL0     H64662   7.678   7.567   9.377 -0.2340 -0.6312 -0.5538
  490MOL0     H64663   7.885   7.427   9.437 -1.4541  1.5889 -1.3744
  490MOL0     H64664   8.092   7.117   9.685  0.0348  1.8250 -0.5198
  490MOL0     H64665   8.280   6.966   9.722  1.1841 -1.1044 -0.0094
  490MOL0     H64666   9.985   6.161   8.900 -1.6385 -1.9543  4.4602
  490MOL0     H64667  10.204   6.177   8.805  0.8333  1.1403 -0.0133
  490MOL0     H64668  10.697   6.052   8.953  1.9660  0.1090  0.4148
  490MOL0     H64669  10.926   6.083   8.903  1.6673  1.6668  2.2446
  490MOL0     H64670  11.122   6.139   8.865  1.1256 -1.0989  0.7518
  490MOL0     H64671  11.132   6.271   8.975  1.4318 -0.6545  0.4410
  490MOL0     H64672  11.293   6.276   8.716 -0.3116 -4.4638  0.0255
  490MOL0     H64673  11.304   6.379   8.863  4.1253 -0.1943 -0.0211
  490MOL0     H64674  11.352   6.082   8.860  1.0131 -0.2227  0.0438
  490MOL0     H64675  11.354   6.188   9.002  4.2386  3.1169  1.4134
  490MOL0     H64676  11.540   6.233   8.777 -0.1786  0.6115 -0.9435
  490MOL0     H64677  11.528   6.325   8.928 -4.2527 -0.5339  0.6789
  490MOL0     H64678  11.774   5.974   9.008 -0.6522 -1.5193 -1.4147
  490MOL0     H64679  10.846   6.462   8.712 -0.4533  1.7183  1.6165
  490MOL0     H64680  10.624   6.457   8.781 -0.8888 -1.0744 -0.5405
  491MOL0     O64681   7.955   2.042  10.558  0.4682  0.3851  0.5143
  491MOL0     C64682   8.051   1.970  10.596 -0.3366 -0.4134  0.6256
  491MOL0     O64683   8.054   1.832  10.603  0.5945 -0.0951  0.7237
  491MOL0     C64684   7.955   1.770  10.535 -1.0379 -0.0936  0.0421
  491MOL0     C64685   7.830   1.740  10.596 -0.5300  0.5979  0.7517
  491MOL0     C64686   7.743   1.666  10.511 -0.2003 -0.3770 -1.0581
  491MOL0     C64687   7.775   1.618  10.381 -0.2673  1.0148 -0.6523
  491MOL0     O64688   7.684   1.536  10.318  0.0575 -0.6335  0.7122
  491MOL0     C64689   7.718   1.496  10.181  0.2471  0.9611 -0.0260
  491MOL0     C64690   7.595   1.399  10.139 -0.6010  0.0154  0.1098
  491MOL0     C64691   7.584   1.279  10.232  0.1414 -0.9562  0.3010
  491MOL0     C64692   7.508   1.169  10.165 -0.2843  0.3982  0.3369
  491MOL0     C64693   7.584   1.113  10.040  0.8409 -0.2057 -0.2034
  491MOL0     C64694   7.560   0.968  10.013 -0.2128  0.2153 -0.1077
  491MOL0     C64695   7.617   0.916   9.885 -0.7417  0.1757 -0.0939
  491MOL0     C64696   7.582   0.780   9.856 -0.5259  0.4561  0.0724
  491MOL0     N64697   7.444   0.760   9.816  0.0488  0.2689 -0.2844
  491MOL0     C64698   7.376   0.824   9.713 -0.3203  0.3574 -0.4573
  491MOL0     C64699   7.279   0.735   9.679 -0.5382  0.5428  0.5205
  491MOL0     C64700   7.203   0.736   9.554  0.3287 -0.1057 -0.6596
  491MOL0     C64701   7.067   0.806   9.571 -0.1818  0.1717  0.2357
  491MOL0     C64702   6.970   0.766   9.461 -0.6972  0.5916 -0.8576
  491MOL0     C64703   6.829   0.790   9.508  0.3163 -0.1243  0.0516
  491MOL0     O64704   6.733   0.717   9.429  0.1770  0.1764 -0.6371
  491MOL0     C64705   6.601   0.731   9.473  0.7362  0.5735  0.1877
  491MOL0     C64706   6.564   0.789   9.592  0.0787  0.3215  0.6153
  491MOL0     C64707   6.435   0.792   9.632  0.6778 -0.4665  0.0482
  491MOL0     C64708   6.327   0.747   9.559 -0.1374  0.4974  0.4089
  491MOL0     C64709   6.190   0.733   9.614 -0.1851  0.6064  0.8145
  491MOL0     O64710   6.097   0.665   9.529 -0.5611 -0.8190 -0.1040
  491MOL0     C64711   5.961   0.665   9.548  0.6625 -0.0235  0.5986
  491MOL0     C64712   5.893   0.750   9.635  0.7549 -0.2089  0.2504
  491MOL0     C64713   5.757   0.738   9.648  0.0524  0.3912 -0.1151
  491MOL0     C64714   5.680   0.663   9.560  0.4810 -0.9293  0.0552
  491MOL0     O64715   5.545   0.628   9.572 -0.2884 -0.1224 -0.0468
  491MOL0     C64716   5.478   0.678   9.685  0.3898  0.6760  0.0060
  491MOL0     C64717   5.344   0.597   9.717  1.2508  0.0284 -0.5488
  491MOL0     C64718   5.301   0.625   9.863 -0.4951 -0.3095  0.6957
  491MOL0     C64719   5.169   0.558   9.887  0.4701 -0.2816 -1.3124
  491MOL0     C64720   5.059   0.641   9.833 -0.0935  0.5487 -0.3772
  491MOL0     C64721   4.936   0.582   9.885 -1.0141 -0.5153 -0.6531
  491MOL0     C64722   4.814   0.647   9.820 -0.8041 -0.1847  0.0726
  491MOL0     C64723   4.691   0.556   9.844 -0.6229 -0.3505 -0.2891
  491MOL0    Cl64724   4.657   0.474   9.691 -0.2918 -0.0790  0.0513
  491MOL0     C64725   5.747   0.585   9.476 -0.7520  0.3001  0.1078
  491MOL0     C64726   5.886   0.587   9.463  0.0517 -0.2531  0.0213
  491MOL0     O64727   6.167   0.762   9.731  0.3650  0.1013 -0.1323
  491MOL0     C64728   6.366   0.710   9.428  0.3364  0.4726  1.1311
  491MOL0     C64729   6.502   0.689   9.391 -0.7274 -0.2664 -1.3562
  491MOL0     N64730   7.282   0.625   9.764 -0.8619 -0.5177 -0.4445
  491MOL0     N64731   7.378   0.644   9.847  0.5254 -0.4718  0.1551
  491MOL0     C64732   7.891   1.667  10.326 -0.1414 -0.4676 -0.0814
  491MOL0     C64733   7.978   1.741  10.400  0.1740  0.2321 -0.0654
  491MOL0     C64734   8.181   2.040  10.619 -0.1043  0.5691  0.1056
  491MOL0     C64735   8.294   1.966  10.653 -0.6439 -0.0608  0.1531
  491MOL0     C64736   8.418   2.023  10.674 -0.2143 -0.5906 -0.7773
  491MOL0     C64737   8.443   2.156  10.665  0.2959 -0.0735 -0.2879
  491MOL0     O64738   8.572   2.209  10.671  0.1794  0.0845 -0.3095
  491MOL0     C64739   8.615   2.329  10.620 -0.0908 -0.4073  0.4447
  491MOL0     C64740   8.596   2.345  10.466 -0.1937 -0.2802 -0.1995
  491MOL0     C64741   8.603   2.500  10.411  0.5418 -0.6501 -0.3133
  491MOL0     C64742   8.580   2.475  10.261  0.1991  0.0386  0.0719
  491MOL0     C64743   8.627   2.593  10.187 -0.1615  0.0760 -0.1791
  491MOL0     C64744   8.669   2.693  10.127 -0.0182 -0.2782  0.2025
  491MOL0     C64745   8.326   2.235  10.644 -0.0705  0.8308 -0.3976
  491MOL0     C64746   8.203   2.173  10.624 -0.6960 -0.5593  0.2578
  491MOL0     H64747   7.809   1.769  10.699 -2.0169  0.7822  0.4091
  491MOL0     H64748   7.647   1.640  10.553  2.0085 -0.1808  4.9941
  491MOL0     H64749   7.817   1.451  10.177 -0.2375 -0.2320  0.8931
  491MOL0     H64750   7.714   1.578  10.109 -1.3673  0.7352 -0.2258
  491MOL0     H64751   7.611   1.367  10.035 -0.2519 -1.2441  0.5274
  491MOL0     H64752   7.499   1.450  10.146  0.5387  2.0454  3.6583
  491MOL0     H64753   7.529   1.307  10.322 -1.5255  2.0476 -1.4575
  491MOL0     H64754   7.685   1.248  10.261  0.7735  0.9746  0.3190
  491MOL0     H64755   7.506   1.098  10.248 -2.2709  1.4480  1.2530
  491MOL0     H64756   7.403   1.192  10.146 -0.2697 -0.5045 -0.9987
  491MOL0     H64757   7.688   1.138  10.061  1.1664  1.2815 -3.0254
  491MOL0     H64758   7.549   1.169   9.952 -0.8741 -3.4700 -1.7855
  491MOL0     H64759   7.451   0.965  10.003 -0.3685  1.3870  0.9276
  491MOL0     H64760   7.599   0.901  10.090  2.9498  1.3051 -0.5920
  491MOL0     H64761   7.596   0.984   9.802 -2.2048 -0.0945  0.0237
  491MOL0     H64762   7.723   0.910   9.912 -1.2556 -1.4563  1.8115
  491MOL0     H64763   7.607   0.711   9.938 -1.6466 -0.5317 -0.3908
  491MOL0     H64764   7.631   0.739   9.767 -1.2145 -0.8469  0.2728
  491MOL0     H64765   7.408   0.919   9.670 -4.2470  1.1691 -2.0074
  491MOL0     H64766   7.192   0.635   9.512 -2.8847 -0.5367  0.8456
  491MOL0     H64767   7.251   0.786   9.470 -0.7950  2.4020  0.1167
  491MOL0     H64768   7.075   0.914   9.553 -0.3185 -0.3299 -3.5894
  491MOL0     H64769   7.031   0.779   9.671 -3.6876  2.8482 -0.1156
  491MOL0     H64770   7.002   0.822   9.373  2.0793 -2.7650 -2.2373
  491MOL0     H64771   6.972   0.658   9.441 -2.4660  0.8097 -2.4626
  491MOL0     H64772   6.811   0.898   9.502  1.0551 -0.0658 -1.6330
  491MOL0     H64773   6.824   0.746   9.608 -0.3043  0.8038  0.4462
  491MOL0     H64774   6.636   0.836   9.659  0.8985  1.1870 -0.8310
  491MOL0     H64775   6.412   0.828   9.732 -0.0205 -1.9301  0.4348
  491MOL0     H64776   5.927   0.830   9.700 -0.7242  0.5868  0.0768
  491MOL0     H64777   5.702   0.790   9.726 -0.0592 -1.6115  1.2085
  491MOL0     H64778   5.453   0.785   9.679  0.9088  0.7600 -0.9586
  491MOL0     H64779   5.544   0.665   9.771 -0.7908  0.3062  0.8785
  491MOL0     H64780   5.354   0.488   9.719 -1.0057 -0.2073 -0.1693
  491MOL0     H64781   5.275   0.632   9.641  0.5330  3.7726  1.5867
  491MOL0     H64782   5.301   0.733   9.883 -3.6249 -0.1511  0.3174
  491MOL0     H64783   5.361   0.576   9.940 -2.3923 -0.9158  1.8345
  491MOL0     H64784   5.156   0.452   9.863 -1.2653 -0.8467  1.5745
  491MOL0     H64785   5.159   0.554   9.996  0.8333  1.6872 -1.1705
  491MOL0     H64786   5.058   0.618   9.726 -1.6823  0.2444 -0.3235
  491MOL0     H64787   5.067   0.747   9.859  1.8729  0.1161  1.0472
  491MOL0     H64788   4.927   0.587   9.994  1.0494  1.3036 -0.4915
  491MOL0     H64789   4.929   0.476   9.859  0.7880 -1.5303  2.4925
  491MOL0     H64790   4.793   0.736   9.880  0.7369 -1.3233  2.5040
  491MOL0     H64791   4.829   0.680   9.717 -0.3263  2.1276  0.8159
  491MOL0     H64792   4.614   0.621   9.887 -0.5311 -0.6593  0.3399
  491MOL0     H64793   4.710   0.481   9.920 -0.3315 -0.3547 -0.3653
  491MOL0     H64794   5.690   0.524   9.407  0.0762 -2.3514  1.6072
  491MOL0     H64795   5.942   0.544   9.381 -0.9388 -0.3201 -0.6469
  491MOL0     H64796   6.294   0.673   9.357  2.7111 -0.7521 -0.8070
  491MOL0     H64797   6.520   0.630   9.301 -2.6630  0.2338 -2.1050
  491MOL0     H64798   7.910   1.662  10.219 -0.1766 -1.1574 -0.0614
  491MOL0     H64799   8.063   1.779  10.343  1.2332  2.2300  2.6158
  491MOL0     H64800   8.310   1.859  10.661 -0.2213 -0.1413 -1.4438
  491MOL0     H64801   8.498   1.960  10.714 -0.7669 -0.5681  0.4085
  491MOL0     H64802   8.720   2.350  10.643  0.2985 -1.4130 -0.3516
  491MOL0     H64803   8.565   2.411  10.672  2.1129  0.6162  1.0747
  491MOL0     H64804   8.669   2.288  10.409  0.4701  0.3488  0.0024
  491MOL0     H64805   8.496   2.307  10.442 -0.4254  0.7437 -0.9523
  491MOL0     H64806   8.700   2.547  10.427 -0.6525  2.3755 -1.2747
  491MOL0     H64807   8.528   2.566  10.456  0.2888 -0.6687 -0.7088
  491MOL0     H64808   8.644   2.392  10.228 -0.2509 -1.0663  1.8649
  491MOL0     H64809   8.476   2.451  10.240 -0.2604  0.7161  1.4417
  491MOL0     H64810   8.697   2.784  10.077 -1.2295 -0.3143 -0.5832
  491MOL0     H64811   8.347   2.341  10.634  1.8203  0.3164 -2.5276
  491MOL0     H64812   8.115   2.235  10.607 -2.3454 -3.1833 -1.6690
  492MOL0     O64813   1.902   4.240   2.968  0.0885 -0.5568 -0.3596
  492MOL0     C64814   1.928   4.232   3.091 -0.8077  0.1560  0.8918
  492MOL0     O64815   1.836   4.209   3.189  0.0273  0.4102 -0.4774
  492MOL0     C64816   1.704   4.166   3.170  0.2035 -0.2510  0.6838
  492MOL0     C64817   1.625   4.174   3.052  0.0036 -0.4644 -0.0778
  492MOL0     C64818   1.483   4.132   3.068  0.2563 -0.3782 -0.7341
  492MOL0     C64819   1.431   4.088   3.189 -0.5367 -0.7215 -0.5837
  492MOL0     O64820   1.305   4.053   3.211  0.0203 -0.7523  0.2137
  492MOL0     C64821   1.223   4.025   3.098  0.4990  0.3242  1.1396
  492MOL0     C64822   1.115   3.932   3.166 -0.3882  0.1344 -1.1312
  492MOL0     C64823   1.002   3.906   3.068 -0.7249  0.2948  0.2404
  492MOL0     C64824   0.899   3.815   3.127  0.0847 -0.2738 -0.4169
  492MOL0     C64825   0.788   3.787   3.020  0.2281 -0.0713 -0.6891
  492MOL0     C64826   0.685   3.906   3.019  0.5736 -0.1662  0.1673
  492MOL0     C64827   0.598   3.890   2.888 -0.7307 -0.1819 -0.0688
  492MOL0     C64828   0.509   4.007   2.853 -0.0817  0.4840  0.3304
  492MOL0     N64829   0.410   4.036   2.957 -0.2523 -0.0554  0.3958
  492MOL0     C64830   0.303   3.967   3.011 -0.0922  1.9920 -0.1008
  492MOL0     C64831   0.243   4.051   3.100  0.8743 -0.4821  0.0460
  492MOL0     C64832   0.119   4.017   3.172  0.2950 -0.0988  0.8242
  492MOL0     C64833  -0.011   4.014   3.086 -0.1016 -0.4893  0.6578
  492MOL0     C64834  -0.134   3.974   3.177  0.7925  0.2935 -0.0218
  492MOL0     C64835  -0.271   3.958   3.096 -0.5981 -0.1159  0.6578
  492MOL0     O64836  -0.330   4.085   3.097 -0.3749 -0.6794 -0.7543
  492MOL0     C64837  -0.449   4.083   3.168  0.0425 -1.0569  0.3197
  492MOL0     C64838  -0.472   4.046   3.296 -0.3690  0.2741  0.5585
  492MOL0     C64839  -0.595   4.033   3.360 -1.0908 -0.4163 -0.4938
  492MOL0     C64840  -0.713   4.042   3.283 -0.0943 -0.2027  0.6339
  492MOL0     C64841  -0.854   4.024   3.343  0.4379  0.0903  0.4205
  492MOL0     O64842  -0.947   4.026   3.253  0.7480 -0.0508 -0.4888
  492MOL0     C64843  -1.077   3.998   3.283  1.1353 -0.4048  0.3765
  492MOL0     C64844  -1.115   3.873   3.330 -0.1332  0.3035  0.6195
  492MOL0     C64845  -1.242   3.843   3.372  0.0637 -0.3067 -0.1376
  492MOL0     C64846  -1.340   3.937   3.351  0.6359  0.2027 -0.2349
  492MOL0     O64847  -1.470   3.925   3.404 -0.4745 -0.6492  0.6206
  492MOL0     C64848  -1.526   3.797   3.439 -0.5578  0.0056  0.6294
  492MOL0     C64849  -1.673   3.823   3.481 -0.3112  0.7225 -0.1384
  492MOL0     C64850  -1.758   3.873   3.365 -0.5444  0.3116  0.9973
  492MOL0     C64851  -1.906   3.847   3.401 -0.4409  0.0747  0.2254
  492MOL0     C64852  -1.995   3.887   3.282 -1.4341  0.3900 -1.0731
  492MOL0     C64853  -2.003   3.781   3.171  0.2259 -0.1614  0.5955
  492MOL0     C64854  -2.122   3.817   3.076 -0.4104  0.0775  0.1332
  492MOL0     C64855  -2.134   3.725   2.966 -0.4262 -0.0594  0.4328
  492MOL0    Cl64856  -2.302   3.750   2.899 -0.4842 -0.3663 -0.5994
  492MOL0     C64857  -1.318   4.048   3.286 -0.2792 -0.1476  0.0008
  492MOL0     C64858  -1.186   4.085   3.251  0.0205  0.0278 -0.4953
  492MOL0     O64859  -0.871   3.998   3.467  0.3865  0.1237  0.5947
  492MOL0     C64860  -0.691   4.093   3.153 -0.8912 -1.1886  0.2837
  492MOL0     C64861  -0.561   4.122   3.100 -0.2181 -0.3042  0.6811
  492MOL0     N64862   0.322   4.165   3.114 -0.1754  0.3338 -0.4792
  492MOL0     N64863   0.422   4.151   3.035  0.2705  0.2253  0.7582
  492MOL0     C64864   1.514   4.091   3.299  0.2035 -0.6253  0.6147
  492MOL0     C64865   1.646   4.127   3.288 -0.5362 -0.5469  0.8774
  492MOL0     C64866   2.065   4.259   3.142 -0.0128  0.9402 -0.5432
  492MOL0     C64867   2.086   4.241   3.281  0.8342  0.4566 -0.1223
  492MOL0     C64868   2.211   4.271   3.330 -0.3260  0.0138 -0.0509
  492MOL0     C64869   2.316   4.311   3.251  0.2250  0.1836 -0.2056
  492MOL0     O64870   2.437   4.318   3.312 -0.3633 -0.3809  0.7136
  492MOL0     C64871   2.549   4.363   3.234 -0.0865 -0.5634  0.6171
  492MOL0     C64872   2.668   4.319   3.318  0.3401  0.0060 -0.2761
  492MOL0     C64873   2.802   4.350   3.254 -0.0618 -0.2124 -0.4664
  492MOL0     C64874   2.914   4.287   3.340 -1.2032  0.9021 -0.2888
  492MOL0     C64875   3.045   4.319   3.282  0.8770 -0.0869  0.8352
  492MOL0     C64876   3.151   4.350   3.229  0.4776  0.2187 -0.7727
  492MOL0     C64877   2.286   4.337   3.126 -0.3602 -0.3446 -0.1277
  492MOL0     C64878   2.167   4.312   3.062 -0.8327 -0.1554  0.0163
  492MOL0     H64879   1.651   4.199   2.949 -2.2325 -0.2149 -0.6318
  492MOL0     H64880   1.412   4.138   2.986 -0.0018  0.0642 -0.4851
  492MOL0     H64881   1.273   3.965   3.022  1.6982 -0.0422  2.1761
  492MOL0     H64882   1.189   4.119   3.053 -2.1825 -2.0465 -2.3323
  492MOL0     H64883   1.085   3.982   3.259 -0.7981  1.3465 -1.8930
  492MOL0     H64884   1.171   3.844   3.200  0.1247  1.0099  0.4160
  492MOL0     H64885   1.049   3.873   2.975  0.5446  1.8736  0.2756
  492MOL0     H64886   0.956   4.000   3.035  0.1016  0.4858 -0.4184
  492MOL0     H64887   0.954   3.724   3.153  1.4829  0.9841  1.2784
  492MOL0     H64888   0.870   3.869   3.218 -0.4921  0.5470 -1.0811
  492MOL0     H64889   0.735   3.696   3.049 -1.5038  1.5103  1.5306
  492MOL0     H64890   0.825   3.764   2.920 -3.0104  1.1227 -2.2996
  492MOL0     H64891   0.745   3.996   3.006  2.0409 -1.2739 -1.1555
  492MOL0     H64892   0.627   3.909   3.112 -3.0314  1.5024 -1.8701
  492MOL0     H64893   0.670   3.880   2.807 -0.9090  1.4060 -0.4563
  492MOL0     H64894   0.535   3.801   2.901  0.8125 -1.2980 -0.0192
  492MOL0     H64895   0.456   3.995   2.758  0.0789 -0.6543  0.3722
  492MOL0     H64896   0.573   4.096   2.852 -0.9441  1.1204  0.1137
  492MOL0     H64897   0.272   3.866   2.991 -2.4318  2.9681 -1.8702
  492MOL0     H64898   0.105   4.088   3.254  1.8662  0.6829  0.4686
  492MOL0     H64899   0.139   3.925   3.227  2.0854 -0.1705  0.1270
  492MOL0     H64900  -0.001   3.928   3.019  3.0475  1.1420 -1.2370
  492MOL0     H64901  -0.027   4.113   3.043  1.6437  0.2675  1.6432
  492MOL0     H64902  -0.118   3.877   3.224  0.6241  0.4061  0.2744
  492MOL0     H64903  -0.153   4.051   3.253 -1.0347 -0.0864 -0.0553
  492MOL0     H64904  -0.339   3.883   3.138 -1.9395 -0.0244 -1.2381
  492MOL0     H64905  -0.245   3.919   2.997  3.5072 -0.8103  1.7960
  492MOL0     H64906  -0.382   4.030   3.354  3.6475  1.8439 -4.4806
  492MOL0     H64907  -0.589   4.020   3.468 -2.0182 -1.8127 -0.5904
  492MOL0     H64908  -1.038   3.801   3.360  0.4558  0.7354  0.1762
  492MOL0     H64909  -1.274   3.750   3.420 -1.9070  0.9295  1.1038
  492MOL0     H64910  -1.473   3.745   3.520 -2.0108 -2.5708  0.0594
  492MOL0     H64911  -1.527   3.733   3.350  1.1414  1.8395 -0.8046
  492MOL0     H64912  -1.683   3.893   3.565 -0.7268 -0.7607  1.0945
  492MOL0     H64913  -1.706   3.722   3.508 -0.8732  0.9243 -0.0588
  492MOL0     H64914  -1.734   3.817   3.274  2.3804  1.3374  1.0353
  492MOL0     H64915  -1.741   3.974   3.328 -0.1505  0.2179  0.9104
  492MOL0     H64916  -1.925   3.743   3.429 -1.6353  0.2982  0.3104
  492MOL0     H64917  -1.922   3.912   3.488  0.8190 -1.9475  2.0781
  492MOL0     H64918  -1.959   3.983   3.244 -0.7133  0.4862 -0.1921
  492MOL0     H64919  -2.097   3.905   3.317 -1.1593  0.2919 -0.1923
  492MOL0     H64920  -2.024   3.686   3.220  0.9176 -0.0631  1.0982
  492MOL0     H64921  -1.907   3.768   3.121 -0.3195 -0.3996 -0.4076
  492MOL0     H64922  -2.212   3.822   3.138 -0.1439  1.9004  0.4268
  492MOL0     H64923  -2.110   3.919   3.039  0.7999 -0.5122 -1.2117
  492MOL0     H64924  -2.124   3.623   3.004 -0.8923 -0.2977 -0.0928
  492MOL0     H64925  -2.059   3.738   2.888  0.7800 -6.2637  0.0833
  492MOL0     H64926  -1.402   4.106   3.250 -0.6429  0.6350  1.9717
  492MOL0     H64927  -1.171   4.168   3.182 -0.0445  1.6736  1.4043
  492MOL0     H64928  -0.779   4.109   3.091 -0.6000 -0.6572  0.0018
  492MOL0     H64929  -0.547   4.150   2.996  1.5118 -0.4191  0.8465
  492MOL0     H64930   1.478   4.055   3.395 -0.9778  0.0764  0.4566
  492MOL0     H64931   1.713   4.122   3.374  1.1620 -0.6149 -0.4067
  492MOL0     H64932   2.000   4.214   3.341  0.8645  2.5482  0.9711
  492MOL0     H64933   2.242   4.254   3.432 -1.3164 -1.5789  0.0178
  492MOL0     H64934   2.544   4.472   3.222 -2.7831 -0.8483 -2.3092
  492MOL0     H64935   2.552   4.310   3.139  0.5735  0.9521 -0.2477
  492MOL0     H64936   2.658   4.375   3.411  1.5593  0.4887 -0.4220
  492MOL0     H64937   2.662   4.212   3.342 -2.0098  0.4361  1.4016
  492MOL0     H64938   2.821   4.458   3.262 -1.6180  0.3207 -2.7713
  492MOL0     H64939   2.810   4.325   3.147  1.2409 -1.0367 -0.1982
  492MOL0     H64940   2.914   4.317   3.446 -0.1505 -1.8822  0.5761
  492MOL0     H64941   2.898   4.180   3.351 -0.7759  1.0993  3.7676
  492MOL0     H64942   3.242   4.380   3.182  0.2067  3.0541  0.3233
  492MOL0     H64943   2.361   4.380   3.060 -0.3658 -0.3325 -0.1262
  492MOL0     H64944   2.158   4.329   2.955 -2.3222  0.6855  0.2347
  493MOL0     O64945   1.273   2.357   6.583  0.0706  0.2842  0.2673
  493MOL0     C64946   1.260   2.461   6.652 -0.8118  0.2196 -0.1937
  493MOL0     O64947   1.143   2.522   6.690  0.5441  0.2629 -0.3755
  493MOL0     C64948   1.017   2.480   6.653 -0.2916  0.2338  0.6277
  493MOL0     C64949   0.923   2.552   6.716  0.0504  0.1752 -0.3843
  493MOL0     C64950   0.789   2.518   6.705 -0.7215 -0.6487 -0.5211
  493MOL0     C64951   0.740   2.408   6.633 -0.1608  0.0144  1.7334
  493MOL0     O64952   0.607   2.373   6.630 -0.4734 -0.5248  0.2984
  493MOL0     C64953   0.510   2.451   6.706  0.8044 -0.2903 -0.1929
  493MOL0     C64954   0.376   2.376   6.705  0.6697  0.6139  0.1251
  493MOL0     C64955   0.277   2.448   6.805  0.5454 -0.5245 -0.0037
  493MOL0     C64956   0.136   2.400   6.787  0.5306 -0.7821 -0.5914
  493MOL0     C64957   0.049   2.489   6.882 -0.5773 -0.1841 -0.2916
  493MOL0     C64958  -0.091   2.442   6.882 -0.6242 -0.5528 -1.0154
  493MOL0     C64959  -0.179   2.561   6.957 -0.3918 -0.0020  1.0644
  493MOL0     C64960  -0.325   2.517   6.960  0.1531 -0.2668 -0.7120
  493MOL0     N64961  -0.408   2.625   7.022 -0.2895 -0.6661  0.1982
  493MOL0     C64962  -0.422   2.744   6.954 -0.1563  0.1214  0.8804
  493MOL0     C64963  -0.544   2.789   6.994 -0.5673  0.7839 -0.4327
  493MOL0     C64964  -0.611   2.920   6.954 -0.1157  0.7837 -0.4304
  493MOL0     C64965  -0.757   2.936   6.945  0.0112  0.7555 -0.7896
  493MOL0     C64966  -0.816   2.963   7.088  0.1899 -0.4146 -0.3861
  493MOL0     C64967  -0.966   2.948   7.083 -0.0028  0.0460  0.2988
  493MOL0     O64968  -1.002   2.966   7.221 -0.2219 -0.1114  0.0343
  493MOL0     C64969  -1.133   2.976   7.244 -0.7471 -0.2102  0.3233
  493MOL0     C64970  -1.234   2.920   7.162  0.0113 -0.4955 -0.2272
  493MOL0     C64971  -1.367   2.938   7.205 -0.9246  0.5943  0.3032
  493MOL0     C64972  -1.402   3.015   7.316 -1.3417 -0.5814 -0.3841
  493MOL0     C64973  -1.552   3.018   7.342 -0.1527 -0.3562 -0.0254
  493MOL0     O64974  -1.630   2.949   7.255 -0.7704  0.1512  0.6148
  493MOL0     C64975  -1.766   2.945   7.272  0.5642 -0.2050  0.2507
  493MOL0     C64976  -1.834   2.828   7.256  0.3082  1.1231 -0.2986
  493MOL0     C64977  -1.976   2.826   7.266 -0.5159 -0.0543 -0.0744
  493MOL0     C64978  -2.051   2.940   7.287 -0.4255 -0.4217 -0.2068
  493MOL0     O64979  -2.188   2.944   7.311 -0.1308 -0.0281  0.0543
  493MOL0     C64980  -2.247   2.823   7.354  0.0267  0.5204  0.1530
  493MOL0     C64981  -2.394   2.854   7.369 -0.2822  0.4716 -0.4340
  493MOL0     C64982  -2.428   2.965   7.472  0.4824 -0.2972  0.2023
  493MOL0     C64983  -2.582   3.000   7.483  0.7942  0.7384 -0.2656
  493MOL0     C64984  -2.585   3.128   7.569 -0.0156  0.7995  0.6437
  493MOL0     C64985  -2.726   3.161   7.606 -0.3772  0.2860 -0.5959
  493MOL0     C64986  -2.827   3.182   7.495 -0.4527 -0.0491  1.2818
  493MOL0     C64987  -2.966   3.210   7.542  0.9372  0.3259  0.4449
  493MOL0    Cl64988  -2.992   3.330   7.675  0.1708  0.1705 -0.0790
  493MOL0     C64989  -1.984   3.064   7.294  1.1626  0.2274  0.2388
  493MOL0     C64990  -1.846   3.064   7.290 -0.9152  0.1566 -0.2029
  493MOL0     O64991  -1.595   3.083   7.435 -0.2612 -0.9077 -0.0222
  493MOL0     C64992  -1.302   3.063   7.397  0.3075  0.0307 -0.0313
  493MOL0     C64993  -1.167   3.044   7.356 -0.2987 -0.3781 -0.0295
  493MOL0     N64994  -0.601   2.696   7.079 -0.9013 -0.3323 -0.4007
  493MOL0     N64995  -0.512   2.605   7.103 -0.3445 -0.0396 -0.0362
  493MOL0     C64996   0.836   2.335   6.561 -0.8568  0.5619  0.7265
  493MOL0     C64997   0.974   2.364   6.569 -0.0833 -0.0850 -0.5076
  493MOL0     C64998   1.385   2.511   6.713  0.8150  0.0088 -0.2816
  493MOL0     C64999   1.493   2.425   6.734 -0.3654 -0.4958 -0.1000
  493MOL0     C65000   1.613   2.464   6.803 -0.3119  1.0677  0.1744
  493MOL0     C65001   1.626   2.601   6.830  0.6805  0.4311 -0.3828
  493MOL0     O65002   1.741   2.633   6.901  0.9572  0.5107 -0.0163
  493MOL0     C65003   1.741   2.750   6.986 -0.1027 -0.3971  0.5052
  493MOL0     C65004   1.878   2.800   7.026 -0.1806 -0.5137  0.7108
  493MOL0     C65005   1.969   2.800   6.907  0.0560  0.1480 -0.0796
  493MOL0     C65006   2.087   2.885   6.924 -0.6144  0.3393 -0.3470
  493MOL0     C65007   2.191   2.874   6.823 -0.4091  0.1340 -0.0196
  493MOL0     C65008   2.277   2.866   6.746 -0.3240  0.4444 -0.2500
  493MOL0     C65009   1.518   2.686   6.808  0.6014 -0.4539 -0.0642
  493MOL0     C65010   1.402   2.640   6.748 -0.4444 -0.7406 -0.4284
  493MOL0     H65011   0.946   2.634   6.783  1.3558 -1.6871  1.5693
  493MOL0     H65012   0.726   2.573   6.774 -3.0936 -1.7451 -1.7223
  493MOL0     H65013   0.496   2.552   6.667 -0.2697 -1.0125 -1.7827
  493MOL0     H65014   0.529   2.449   6.814 -1.3104 -0.6585  0.2167
  493MOL0     H65015   0.386   2.272   6.740 -0.5307  1.2025  2.4255
  493MOL0     H65016   0.331   2.374   6.605 -3.0646 -0.1032  1.6284
  493MOL0     H65017   0.274   2.553   6.773 -0.3534 -0.5742 -0.1156
  493MOL0     H65018   0.308   2.434   6.909 -1.0046  1.8441  0.8739
  493MOL0     H65019   0.107   2.410   6.682 -2.2113  0.3823  0.1661
  493MOL0     H65020   0.135   2.297   6.823  5.6512 -0.6798  0.5327
  493MOL0     H65021   0.057   2.593   6.851  3.1745 -1.0675 -2.9348
  493MOL0     H65022   0.094   2.477   6.981  1.1444 -0.6750 -1.0998
  493MOL0     H65023  -0.098   2.341   6.924 -0.5536 -0.4051 -0.6432
  493MOL0     H65024  -0.122   2.432   6.777  1.5353  0.9118 -1.8609
  493MOL0     H65025  -0.145   2.576   7.060 -0.8303 -0.6974  1.3171
  493MOL0     H65026  -0.181   2.654   6.899 -0.0613 -1.6721 -1.8547
  493MOL0     H65027  -0.331   2.435   7.032  1.8832  0.8217  0.7405
  493MOL0     H65028  -0.374   2.501   6.863  0.9124  0.9992 -1.3192
  493MOL0     H65029  -0.362   2.786   6.874 -1.9679  0.7606 -0.1860
  493MOL0     H65030  -0.580   2.934   6.850 -0.6683 -2.6451 -1.1625
  493MOL0     H65031  -0.584   3.002   7.022 -2.9341  1.0706  0.4817
  493MOL0     H65032  -0.797   2.842   6.907  1.3223 -1.0911  2.0415
  493MOL0     H65033  -0.784   3.022   6.883  0.1170 -0.0276 -1.9460
  493MOL0     H65034  -0.777   2.908   7.174  1.9740 -0.2641 -1.0517
  493MOL0     H65035  -0.791   3.068   7.111  2.3288 -0.4711 -2.1412
  493MOL0     H65036  -0.989   2.852   7.038  1.2001 -0.6975  1.1975
  493MOL0     H65037  -1.013   3.023   7.019  0.8721 -2.2752 -3.3619
  493MOL0     H65038  -1.200   2.860   7.078  2.8687  1.0167 -0.2783
  493MOL0     H65039  -1.434   2.874   7.148  1.0776 -2.1856  0.8430
  493MOL0     H65040  -1.784   2.732   7.243 -0.3371  0.7775 -0.2968
  493MOL0     H65041  -2.024   2.728   7.259  0.1331 -0.2979 -1.5829
  493MOL0     H65042  -2.200   2.781   7.444  3.6283 -1.1090 -2.2227
  493MOL0     H65043  -2.234   2.756   7.268 -1.3112  2.9079 -2.0500
  493MOL0     H65044  -2.445   2.761   7.396 -1.2242  1.6316  2.0491
  493MOL0     H65045  -2.441   2.889   7.276 -0.7047  0.9325 -0.0576
  493MOL0     H65046  -2.385   3.063   7.449  0.3193  0.4826  2.9044
  493MOL0     H65047  -2.377   2.930   7.562  1.7334  0.5459 -0.1492
  493MOL0     H65048  -2.627   3.016   7.385 -0.5982 -0.2382  0.1916
  493MOL0     H65049  -2.639   2.923   7.535 -1.5718  1.4340 -1.6923
  493MOL0     H65050  -2.534   3.207   7.514 -0.4052 -1.7621 -3.8805
  493MOL0     H65051  -2.540   3.106   7.666 -1.4098 -0.1169  1.1187
  493MOL0     H65052  -2.727   3.252   7.667  1.8397 -0.0388  0.0067
  493MOL0     H65053  -2.762   3.091   7.681 -0.5923  0.6053 -0.3988
  493MOL0     H65054  -2.796   3.266   7.433  0.4482 -1.9511 -0.9802
  493MOL0     H65055  -2.830   3.098   7.425 -0.2976  0.0353  1.1749
  493MOL0     H65056  -3.003   3.111   7.572 -0.3695  1.0851  1.4767
  493MOL0     H65057  -3.022   3.258   7.461  2.6387  0.4165 -0.7119
  493MOL0     H65058  -2.036   3.159   7.290  0.1089 -0.3703 -0.7565
  493MOL0     H65059  -1.810   3.167   7.286 -4.5982  1.8236  2.9997
  493MOL0     H65060  -1.310   3.110   7.494  0.1649  0.0844 -0.0701
  493MOL0     H65061  -1.090   3.090   7.416 -1.2993  0.9346  0.2951
  493MOL0     H65062   0.795   2.248   6.511 -2.1670  1.0352  0.9224
  493MOL0     H65063   1.042   2.302   6.512 -1.6631  0.0544 -2.6877
  493MOL0     H65064   1.485   2.320   6.708  1.6021 -0.9504  0.8888
  493MOL0     H65065   1.689   2.389   6.822 -2.3113 -1.2050 -0.3596
  493MOL0     H65066   1.683   2.733   7.077  1.5355  3.9831  2.6475
  493MOL0     H65067   1.701   2.837   6.933  0.9427  0.2148  0.6813
  493MOL0     H65068   1.874   2.898   7.074 -1.0599 -0.7845  1.2273
  493MOL0     H65069   1.928   2.726   7.089 -1.7007 -0.4598  2.0642
  493MOL0     H65070   1.911   2.851   6.830 -0.1405  0.6757  0.4071
  493MOL0     H65071   2.004   2.699   6.885 -1.7115 -0.4021 -0.5655
  493MOL0     H65072   2.056   2.989   6.940  4.9387  2.2631  0.1146
  493MOL0     H65073   2.137   2.850   7.015  2.8390 -0.1996 -2.3146
  493MOL0     H65074   2.370   2.866   6.692  0.7391  4.6444  1.1667
  493MOL0     H65075   1.528   2.794   6.807 -1.7613 -0.1651  0.7928
  493MOL0     H65076   1.322   2.712   6.736 -0.8556 -1.3810 -1.8039
  494MOL0     O65077   3.764   1.430   1.831 -0.3325 -0.2200  0.3241
  494MOL0     C65078   3.693   1.528   1.811 -0.3556  0.2476  0.1348
  494MOL0     O65079   3.721   1.657   1.826 -0.3915 -0.3142  0.4201
  494MOL0     C65080   3.852   1.705   1.858 -0.3114  0.3546  0.6221
  494MOL0     C65081   3.849   1.821   1.940 -0.2192 -0.4626 -0.2627
  494MOL0     C65082   3.970   1.873   1.992  0.6904 -0.4224  0.8915
  494MOL0     C65083   4.093   1.819   1.951  0.0400 -0.1148 -0.0900
  494MOL0     O65084   4.189   1.897   1.998  0.1605 -0.0490 -0.7199
  494MOL0     C65085   4.319   1.836   2.016  0.1772  0.0649 -0.2518
  494MOL0     C65086   4.412   1.939   2.075 -0.0668  0.0833  0.2697
  494MOL0     C65087   4.546   1.940   1.995  0.5311 -0.1649  0.4219
  494MOL0     C65088   4.632   1.819   2.029 -0.5047 -0.0217 -0.0519
  494MOL0     C65089   4.780   1.816   1.974  0.5095 -0.4541  0.4841
  494MOL0     C65090   4.875   1.914   2.046  0.3311 -0.6147 -0.2783
  494MOL0     C65091   5.014   1.932   1.987  0.8314 -0.3574 -0.2053
  494MOL0     C65092   5.130   1.866   2.053 -0.1391 -0.3427  0.3054
  494MOL0     N65093   5.263   1.905   1.998 -1.0047 -0.0767  0.2233
  494MOL0     C65094   5.344   2.011   2.034  0.0139  0.3228 -0.1540
  494MOL0     C65095   5.454   2.005   1.957 -0.4482 -0.7440 -0.8616
  494MOL0     C65096   5.570   2.106   1.952 -0.7564 -0.0861  0.8436
  494MOL0     C65097   5.680   2.068   2.056 -0.2176  0.7040  0.4297
  494MOL0     C65098   5.771   1.948   2.020  0.4900 -1.3470  0.8617
  494MOL0     C65099   5.921   1.986   2.022  0.1565  0.0066  0.0628
  494MOL0     O65100   5.994   1.871   1.979 -0.0715  0.0520  0.1578
  494MOL0     C65101   6.130   1.869   1.968  0.0193 -0.9469 -0.0218
  494MOL0     C65102   6.208   1.972   2.019 -0.1378  0.2443  0.5033
  494MOL0     C65103   6.349   1.969   2.025 -0.0976  0.1582  0.2717
  494MOL0     C65104   6.410   1.857   1.978  0.3167  1.0219 -0.0674
  494MOL0     C65105   6.564   1.845   1.963  0.3606  0.2171  0.3555
  494MOL0     O65106   6.617   1.755   1.870 -0.1397 -0.1829 -0.1932
  494MOL0     C65107   6.756   1.746   1.872  0.3669  0.1543 -0.3334
  494MOL0     C65108   6.837   1.706   1.979  0.0220  0.3682 -0.3457
  494MOL0     C65109   6.972   1.707   1.967 -0.1306 -0.2521 -0.1646
  494MOL0     C65110   7.027   1.750   1.848 -0.8384 -0.4409 -0.1782
  494MOL0     O65111   7.162   1.774   1.825 -0.7704 -0.1476 -0.1014
  494MOL0     C65112   7.246   1.819   1.932  0.1838 -0.0895  0.0866
  494MOL0     C65113   7.369   1.875   1.870 -0.3068 -0.8751  0.9239
  494MOL0     C65114   7.459   1.765   1.813  0.3528  0.0186  0.4609
  494MOL0     C65115   7.569   1.736   1.911 -0.4790  0.5917 -0.5871
  494MOL0     C65116   7.646   1.601   1.896  0.4551  0.0113  1.0366
  494MOL0     C65117   7.751   1.579   2.006 -0.6875 -0.0374  0.3621
  494MOL0     C65118   7.801   1.433   2.015 -0.5712  0.7795 -0.8333
  494MOL0     C65119   7.928   1.434   2.108 -0.7919 -0.1888  0.2686
  494MOL0    Cl65120   8.059   1.519   2.018  0.0389 -0.3227  0.4616
  494MOL0     C65121   6.947   1.762   1.734 -0.0329  0.4265  0.1867
  494MOL0     C65122   6.809   1.766   1.750  0.2830  0.1444  0.7874
  494MOL0     O65123   6.627   1.911   2.044 -0.3468 -0.2689  0.9152
  494MOL0     C65124   6.334   1.744   1.929 -0.9571 -1.4671  0.0203
  494MOL0     C65125   6.194   1.756   1.921 -0.2191 -0.2350  0.2382
  494MOL0     N65126   5.445   1.887   1.885 -0.7787 -0.0527  0.2476
  494MOL0     N65127   5.337   1.822   1.914  0.2972  0.2583 -0.3291
  494MOL0     C65128   4.095   1.712   1.863  0.2809  0.0748  0.6183
  494MOL0     C65129   3.976   1.659   1.811 -0.2596  1.0524 -0.2309
  494MOL0     C65130   3.556   1.501   1.767 -0.3613 -0.1016  0.1008
  494MOL0     C65131   3.514   1.377   1.715 -0.0372 -0.2373 -0.3172
  494MOL0     C65132   3.376   1.356   1.687  0.0746 -0.3558  0.4564
  494MOL0     C65133   3.283   1.466   1.687 -0.3314  0.5375  0.0083
  494MOL0     O65134   3.149   1.441   1.673 -0.2860 -0.3156  0.3068
  494MOL0     C65135   3.056   1.550   1.659  0.2061  0.0318  0.3401
  494MOL0     C65136   2.919   1.491   1.613  1.4738  0.6076  0.0569
  494MOL0     C65137   2.930   1.414   1.480 -0.0302  0.3381  0.1888
  494MOL0     C65138   2.798   1.397   1.406  0.1785  0.2988 -0.1656
  494MOL0     C65139   2.696   1.321   1.484 -0.6961  0.0087  0.8004
  494MOL0     C65140   2.613   1.248   1.527  0.3074  0.3730 -0.8242
  494MOL0     C65141   3.337   1.593   1.703  0.2023  0.2552  0.2125
  494MOL0     C65142   3.472   1.613   1.746 -0.0916  0.6232 -0.0086
  494MOL0     H65143   3.757   1.862   1.979  0.4563  0.6313  0.2265
  494MOL0     H65144   3.956   1.953   2.064 -0.7728 -1.7019  2.1044
  494MOL0     H65145   4.359   1.798   1.922  2.2702 -0.7422  0.8897
  494MOL0     H65146   4.317   1.749   2.082  0.0979  1.4143  1.6026
  494MOL0     H65147   4.445   1.906   2.174  2.3062  0.0535 -0.4608
  494MOL0     H65148   4.375   2.042   2.077  3.1011  1.3532  1.1104
  494MOL0     H65149   4.604   2.029   2.023 -0.1830  0.6020 -0.4880
  494MOL0     H65150   4.526   1.951   1.888  2.4432 -0.8189 -0.0579
  494MOL0     H65151   4.633   1.805   2.138 -1.7642  2.6129  0.3939
  494MOL0     H65152   4.581   1.734   1.983 -1.2574  0.9246 -1.0121
  494MOL0     H65153   4.774   1.860   1.874  0.1633  4.0400  2.2065
  494MOL0     H65154   4.822   1.716   1.979 -0.4992 -0.9612 -0.6750
  494MOL0     H65155   4.892   1.882   2.149  1.3250  0.4534 -0.0812
  494MOL0     H65156   4.824   2.011   2.049  0.2894 -0.6488  0.1613
  494MOL0     H65157   5.016   1.922   1.878  1.7933 -1.3623 -0.1071
  494MOL0     H65158   5.031   2.039   2.008 -1.1609 -0.3817  1.9402
  494MOL0     H65159   5.117   1.757   2.050 -0.6486 -0.2804  0.1344
  494MOL0     H65160   5.130   1.900   2.157  1.1210  2.3686 -0.5007
  494MOL0     H65161   5.316   2.084   2.110  0.9214  2.9826 -2.2368
  494MOL0     H65162   5.525   2.205   1.968  0.0709  0.5318 -0.5046
  494MOL0     H65163   5.619   2.111   1.855  1.1684 -2.1500  1.6043
  494MOL0     H65164   5.648   2.049   2.159 -0.2802  3.3543  0.9815
  494MOL0     H65165   5.745   2.156   2.059 -0.8038  1.5379 -3.9799
  494MOL0     H65166   5.759   1.869   2.095 -2.0235 -0.2149  1.7518
  494MOL0     H65167   5.738   1.921   1.919  1.1746 -0.1753  0.3099
  494MOL0     H65168   5.943   2.011   2.126  1.6517 -1.6939  0.2031
  494MOL0     H65169   5.935   2.071   1.955 -0.2893  1.4440  1.7420
  494MOL0     H65170   6.169   2.057   2.075 -0.6474 -0.2012  0.8406
  494MOL0     H65171   6.415   2.046   2.064 -0.8964  1.5991 -1.0955
  494MOL0     H65172   6.786   1.695   2.075  0.1636 -2.9473 -0.5291
  494MOL0     H65173   7.037   1.692   2.053 -0.4030 -0.8810 -0.0609
  494MOL0     H65174   7.283   1.740   1.997  0.0292  1.6666  2.4286
  494MOL0     H65175   7.196   1.902   1.983  0.7579  0.9157 -0.9420
  494MOL0     H65176   7.412   1.932   1.952 -0.5297 -1.8929  1.7723
  494MOL0     H65177   7.349   1.946   1.789 -0.0493  1.0216  2.4821
  494MOL0     H65178   7.503   1.797   1.718  2.5160  0.4585  1.5545
  494MOL0     H65179   7.403   1.673   1.794 -0.8846  0.2834  2.5240
  494MOL0     H65180   7.636   1.823   1.914  1.4693 -0.8354 -0.7680
  494MOL0     H65181   7.523   1.731   2.010 -3.5018  0.2418 -1.9170
  494MOL0     H65182   7.695   1.599   1.798  3.3251  1.3242  2.3188
  494MOL0     H65183   7.572   1.521   1.909 -0.4342  0.6771  0.2467
  494MOL0     H65184   7.718   1.618   2.103 -3.1244  1.2295 -0.8813
  494MOL0     H65185   7.834   1.644   1.976  0.0563 -1.0493  0.1587
  494MOL0     H65186   7.721   1.371   2.058  0.0318 -1.7530 -3.0543
  494MOL0     H65187   7.828   1.398   1.915 -1.2179  0.9887 -1.0873
  494MOL0     H65188   7.968   1.333   2.122 -1.0081 -0.5598 -1.5732
  494MOL0     H65189   7.897   1.474   2.205 -4.2536 -3.0419  0.5527
  494MOL0     H65190   6.984   1.788   1.636 -2.5888  2.9313 -0.2639
  494MOL0     H65191   6.752   1.784   1.660 -3.1008  0.5463  2.8156
  494MOL0     H65192   6.387   1.653   1.906 -0.6300 -0.8708 -1.7061
  494MOL0     H65193   6.142   1.670   1.880  1.0522 -0.7146 -0.4271
  494MOL0     H65194   4.194   1.676   1.837  1.8986  0.6452  4.9961
  494MOL0     H65195   3.977   1.571   1.747 -2.0508  2.4262 -2.2898
  494MOL0     H65196   3.588   1.297   1.712 -0.3683 -0.5296 -3.7720
  494MOL0     H65197   3.337   1.257   1.667 -2.0801  0.7818 -1.4060
  494MOL0     H65198   3.096   1.616   1.582  0.8363  0.2147  0.8260
  494MOL0     H65199   3.035   1.606   1.750 -0.6701  0.3610 -0.0548
  494MOL0     H65200   2.886   1.416   1.686  0.5671 -0.8304 -1.7591
  494MOL0     H65201   2.840   1.566   1.606  0.4956 -0.2903  1.0160
  494MOL0     H65202   2.976   1.317   1.502 -0.2836  0.3138  0.6075
  494MOL0     H65203   3.006   1.456   1.412  1.9226 -2.2799  0.5877
  494MOL0     H65204   2.753   1.488   1.365 -2.6658 -0.7052  0.4825
  494MOL0     H65205   2.813   1.341   1.314 -2.5738  1.1825 -1.2624
  494MOL0     H65206   2.550   1.168   1.560  2.9351 -1.5041  0.0480
  494MOL0     H65207   3.277   1.682   1.718  0.3865  0.7181 -1.6375
  494MOL0     H65208   3.494   1.712   1.783  0.8119  0.7339 -0.8187
  495MOL0     O65209  11.047   1.386   7.720  0.7627 -0.0942 -0.2459
  495MOL0     C65210  11.109   1.279   7.721  0.7506  0.3062 -0.3505
  495MOL0     O65211  11.053   1.158   7.715  0.1800 -0.0801  0.0499
  495MOL0     C65212  10.918   1.145   7.729  0.0816  0.6368 -0.2126
  495MOL0     C65213  10.852   1.053   7.632  0.1791 -0.6903 -0.1851
  495MOL0     C65214  10.719   1.047   7.632  0.7794 -0.2585 -0.0844
  495MOL0     C65215  10.634   1.121   7.721 -0.3810 -0.1261 -1.1107
  495MOL0     O65216  10.497   1.089   7.721 -0.6550 -0.2799  0.2060
  495MOL0     C65217  10.404   1.175   7.788 -0.1590 -0.6975 -0.1572
  495MOL0     C65218  10.250   1.123   7.786  0.0374 -0.2581 -0.1210
  495MOL0     C65219  10.196   1.112   7.646  0.1578  1.1605  0.3005
  495MOL0     C65220  10.049   1.078   7.646 -0.1889  0.6867  0.4420
  495MOL0     C65221   9.994   1.101   7.505 -0.3255  0.2073  0.0989
  495MOL0     C65222   9.879   0.999   7.481  0.3062  0.0026  0.6334
  495MOL0     C65223   9.772   1.057   7.390  0.1506  0.3722 -0.0314
  495MOL0     C65224   9.815   1.096   7.245 -0.1813 -0.1322  0.0300
  495MOL0     N65225   9.836   0.981   7.163 -0.3717 -0.0508 -0.6245
  495MOL0     C65226   9.962   0.924   7.141  0.4704  0.4896  0.7665
  495MOL0     C65227   9.936   0.807   7.081  0.1962 -0.6732  0.4271
  495MOL0     C65228  10.035   0.698   7.035  0.1674  0.3993 -0.3462
  495MOL0     C65229  10.086   0.619   7.156 -0.0282  0.0428 -0.2591
  495MOL0     C65230  10.136   0.481   7.109  0.7618  1.0319  0.0512
  495MOL0     C65231  10.232   0.420   7.210  1.2159  0.9187  0.2880
  495MOL0     O65232  10.350   0.496   7.245 -0.4932  0.0310  0.4068
  495MOL0     C65233  10.457   0.509   7.168 -0.1001 -0.0815 -0.0281
  495MOL0     C65234  10.465   0.480   7.037  0.1529 -0.5247  0.2798
  495MOL0     C65235  10.583   0.489   6.971 -0.2885 -0.3205 -0.4641
  495MOL0     C65236  10.698   0.546   7.033 -0.6920 -0.2848  0.1868
  495MOL0     C65237  10.826   0.570   6.954 -0.2100 -0.2486  0.2123
  495MOL0     O65238  10.933   0.618   7.025  0.1971 -0.6233  0.1624
  495MOL0     C65239  11.050   0.632   6.973 -0.2600  0.1384 -0.3034
  495MOL0     C65240  11.113   0.545   6.878 -0.7205 -0.6647 -0.3740
  495MOL0     C65241  11.256   0.565   6.845  0.8290 -0.0667  0.9163
  495MOL0     C65242  11.329   0.670   6.898  0.7652 -0.1960  0.5586
  495MOL0     O65243  11.450   0.702   6.855 -0.0462 -0.1211 -0.2371
  495MOL0     C65244  11.514   0.614   6.756  0.8464 -0.1617  0.2359
  495MOL0     C65245  11.663   0.648   6.743  0.3218  0.1248 -0.1301
  495MOL0     C65246  11.748   0.608   6.870 -0.1570 -0.2589  0.3868
  495MOL0     C65247  11.909   0.615   6.836  0.2717 -0.6974 -0.2887
  495MOL0     C65248  11.969   0.747   6.776 -0.2082  0.3022 -0.7774
  495MOL0     C65249  12.125   0.752   6.793 -0.2017 -0.0803 -0.0704
  495MOL0     C65250  12.212   0.633   6.735 -0.0185  0.9459 -0.1700
  495MOL0     C65251  12.350   0.695   6.691  0.3910 -0.2828  0.5486
  495MOL0    Cl65252  12.341   0.751   6.528 -0.0668 -0.3635  0.1903
  495MOL0     C65253  11.265   0.745   6.996 -0.2105  0.1202  0.3729
  495MOL0     C65254  11.127   0.739   7.024 -0.7412  0.0545 -0.5661
  495MOL0     O65255  10.819   0.543   6.836  0.0451 -0.6444  0.0889
  495MOL0     C65256  10.692   0.586   7.169 -0.9893 -0.4766 -0.1016
  495MOL0     C65257  10.566   0.565   7.236  0.2077  0.6688  0.5730
  495MOL0     N65258   9.798   0.792   7.070 -0.0431 -0.4427 -0.0308
  495MOL0     N65259   9.742   0.896   7.125  0.1326  0.4182  0.3661
  495MOL0     C65260  10.702   1.199   7.815 -0.3194 -1.0600  0.2979
  495MOL0     C65261  10.841   1.214   7.822 -0.4811 -0.3761  0.5559
  495MOL0     C65262  11.255   1.277   7.705 -0.2637 -0.3570 -0.1917
  495MOL0     C65263  11.327   1.403   7.713  0.4526  0.7509  0.4555
  495MOL0     C65264  11.467   1.403   7.713  0.0370  0.8362 -0.4400
  495MOL0     C65265  11.543   1.288   7.720 -0.7409  0.2642  0.0518
  495MOL0     O65266  11.677   1.306   7.739 -0.1112  0.1688  1.0854
  495MOL0     C65267  11.772   1.201   7.696 -0.0298  0.1921 -0.3074
  495MOL0     C65268  11.880   1.278   7.621 -1.8606 -0.3816 -0.3289
  495MOL0     C65269  11.954   1.384   7.707 -0.0693  0.4370 -0.5576
  495MOL0     C65270  12.086   1.423   7.642 -0.3255 -0.0332  0.0432
  495MOL0     C65271  12.170   1.503   7.731  0.8360 -0.5788  0.0053
  495MOL0     C65272  12.245   1.580   7.795 -0.1200 -0.8123 -0.2986
  495MOL0     C65273  11.472   1.162   7.699  1.0081 -0.5654  0.4356
  495MOL0     C65274  11.330   1.161   7.689 -0.4585 -0.3389  0.4563
  495MOL0     H65275  10.926   0.990   7.584  1.2735  0.6512 -0.3207
  495MOL0     H65276  10.659   0.991   7.561 -0.9321  1.5934 -0.1887
  495MOL0     H65277  10.400   1.270   7.734  0.1299 -1.8333 -2.2939
  495MOL0     H65278  10.422   1.198   7.893  0.7936  1.1638 -0.6913
  495MOL0     H65279  10.182   1.187   7.844  1.5673  1.0042  0.3544
  495MOL0     H65280  10.238   1.025   7.833 -2.2001 -0.5373 -1.1780
  495MOL0     H65281  10.247   1.031   7.593  0.1721  1.3185  0.0706
  495MOL0     H65282  10.213   1.207   7.595 -3.3697  1.5158 -0.3989
  495MOL0     H65283  10.043   0.972   7.671  2.3977 -0.4459 -2.9380
  495MOL0     H65284   9.983   1.135   7.712 -1.1100  4.1081 -3.1065
  495MOL0     H65285  10.071   1.082   7.430 -0.7860 -0.7387 -0.1505
  495MOL0     H65286   9.953   1.202   7.498 -1.4512 -0.1233  1.4670
  495MOL0     H65287   9.838   0.986   7.582 -1.8241  1.8504  0.0937
  495MOL0     H65288   9.927   0.911   7.439 -2.2230  0.0681 -2.8640
  495MOL0     H65289   9.684   0.993   7.382 -2.1079  3.2212  0.1330
  495MOL0     H65290   9.735   1.150   7.435  2.5283  1.1173  0.5514
  495MOL0     H65291   9.900   1.164   7.245 -0.5038  0.2818  0.4330
  495MOL0     H65292   9.735   1.145   7.188  1.2051  2.0269 -0.1825
  495MOL0     H65293  10.062   0.955   7.171 -0.5703  2.7508  2.1983
  495MOL0     H65294  10.118   0.742   6.979  1.5167 -1.8972 -0.2575
  495MOL0     H65295   9.978   0.631   6.971 -0.8126  1.3464 -0.4935
  495MOL0     H65296  10.004   0.612   7.227  0.0065  1.5116 -0.0391
  495MOL0     H65297  10.169   0.675   7.200 -0.3093  1.1657 -1.1226
  495MOL0     H65298  10.052   0.413   7.091  2.7516 -0.9642 -2.5099
  495MOL0     H65299  10.182   0.498   7.012  0.4570  0.2503 -0.2420
  495MOL0     H65300  10.256   0.322   7.169 -0.3944  1.5731 -2.4559
  495MOL0     H65301  10.173   0.404   7.301 -2.0389  3.6025 -1.1427
  495MOL0     H65302  10.383   0.454   6.970  1.7995  2.1052 -3.0012
  495MOL0     H65303  10.598   0.461   6.868  3.1991  0.2285 -0.2201
  495MOL0     H65304  11.053   0.469   6.829 -1.6149  0.0236 -0.3678
  495MOL0     H65305  11.291   0.483   6.784 -0.9775 -2.0282  2.3573
  495MOL0     H65306  11.466   0.621   6.658  0.5765 -1.5763  0.2494
  495MOL0     H65307  11.519   0.509   6.783 -0.0004 -0.1476  0.4683
  495MOL0     H65308  11.671   0.754   6.717 -4.1133  0.7943  0.3551
  495MOL0     H65309  11.708   0.591   6.661 -2.5550 -1.8892 -0.4672
  495MOL0     H65310  11.718   0.504   6.890 -0.0474 -0.2399  0.6531
  495MOL0     H65311  11.713   0.676   6.948 -1.1320  2.0113 -1.9143
  495MOL0     H65312  11.962   0.573   6.922 -2.4342 -2.7689  0.4985
  495MOL0     H65313  11.919   0.545   6.753  2.3173  0.8450 -1.4373
  495MOL0     H65314  11.923   0.830   6.830  1.6957  0.9717 -0.1082
  495MOL0     H65315  11.932   0.765   6.674 -0.3039  1.3780 -0.5619
  495MOL0     H65316  12.159   0.762   6.896 -1.0626  2.3395  0.0622
  495MOL0     H65317  12.153   0.846   6.743 -0.7500 -1.2101 -2.6857
  495MOL0     H65318  12.232   0.573   6.825 -0.6036 -0.2911 -0.8439
  495MOL0     H65319  12.168   0.579   6.651  1.8955 -0.3988 -0.3836
  495MOL0     H65320  12.432   0.622   6.698  0.0085 -1.1404 -2.2694
  495MOL0     H65321  12.377   0.777   6.758 -2.4455 -0.1896  1.7098
  495MOL0     H65322  11.327   0.825   7.035  0.5272  0.8483 -2.0604
  495MOL0     H65323  11.070   0.796   7.097  0.4782 -0.9730  1.2670
  495MOL0     H65324  10.778   0.630   7.218 -2.3368  1.9307  0.2380
  495MOL0     H65325  10.552   0.597   7.338  2.1140  2.0837  0.4500
  495MOL0     H65326  10.648   1.251   7.893 -0.1696  1.8491 -1.3956
  495MOL0     H65327  10.879   1.294   7.885 -0.6985 -0.1670  0.4254
  495MOL0     H65328  11.274   1.497   7.701 -1.4010 -0.5538 -4.1698
  495MOL0     H65329  11.529   1.492   7.714  2.3112 -0.6229 -2.2811
  495MOL0     H65330  11.717   1.140   7.624 -1.4756  3.6997 -2.3880
  495MOL0     H65331  11.811   1.147   7.783 -2.5294 -1.4265 -0.0891
  495MOL0     H65332  11.950   1.197   7.596 -2.7486 -1.3482  0.2657
  495MOL0     H65333  11.846   1.318   7.525 -2.1395  1.5172  0.5126
  495MOL0     H65334  11.971   1.331   7.801  1.6700  1.8246 -0.0195
  495MOL0     H65335  11.892   1.471   7.731  2.3355  1.9944  0.4143
  495MOL0     H65336  12.140   1.329   7.629 -0.8175 -0.0397 -2.4866
  495MOL0     H65337  12.070   1.477   7.547  1.7019  1.3788  0.4321
  495MOL0     H65338  12.310   1.639   7.856 -2.6481  1.8855  0.0704
  495MOL0     H65339  11.527   1.068   7.689  1.2917 -0.2550 -1.1015
  495MOL0     H65340  11.282   1.064   7.683 -3.8303  1.2717 -1.6685
  496MOL0     O65341   5.958   9.203   5.021 -0.1897  0.4771 -0.8647
  496MOL0     C65342   5.968   9.301   5.091  0.8171  0.2412  0.0669
  496MOL0     O65343   6.068   9.394   5.076 -0.2446  0.3744  0.3070
  496MOL0     C65344   6.148   9.374   4.973 -0.0553 -0.6679  0.7139
  496MOL0     C65345   6.289   9.364   4.993 -0.1162  0.1047 -0.3080
  496MOL0     C65346   6.376   9.341   4.885 -0.4088  0.0089 -0.0667
  496MOL0     C65347   6.332   9.347   4.752  0.3224  0.4885  0.2002
  496MOL0     O65348   6.410   9.331   4.638  0.0348  0.1420  0.4362
  496MOL0     C65349   6.533   9.275   4.650 -0.2003 -0.4109 -0.3485
  496MOL0     C65350   6.596   9.249   4.510  0.1780  0.4606 -0.2217
  496MOL0     C65351   6.720   9.157   4.517 -0.6713 -0.1535  0.0892
  496MOL0     C65352   6.690   9.013   4.551 -0.0676 -0.0436  0.2048
  496MOL0     C65353   6.811   8.921   4.580  1.0999  0.5619 -0.1312
  496MOL0     C65354   6.772   8.770   4.584 -0.4168  0.2292  0.0091
  496MOL0     C65355   6.666   8.742   4.685 -0.2826 -0.0551 -0.2387
  496MOL0     C65356   6.643   8.591   4.712 -0.7337 -0.1710 -0.0201
  496MOL0     N65357   6.519   8.564   4.789  0.3658 -0.4814  0.0683
  496MOL0     C65358   6.503   8.568   4.926  0.1891  0.2274 -0.3533
  496MOL0     C65359   6.371   8.560   4.956 -0.9480 -0.5368  0.8137
  496MOL0     C65360   6.297   8.547   5.090  0.5364  0.4063  0.0072
  496MOL0     C65361   6.156   8.624   5.087  0.0597 -0.4950 -0.1619
  496MOL0     C65362   6.162   8.769   5.065  0.6339 -0.3600 -0.2468
  496MOL0     C65363   6.024   8.843   5.066  0.7419 -0.0849  0.1228
  496MOL0     O65364   5.926   8.780   5.155 -0.1512  0.3086  0.3315
  496MOL0     C65365   5.796   8.802   5.136  0.3170 -0.1268  0.5624
  496MOL0     C65366   5.738   8.873   5.022  0.8215 -0.0929 -0.6770
  496MOL0     C65367   5.601   8.882   5.018 -0.4792 -0.4285  0.0465
  496MOL0     C65368   5.511   8.840   5.121 -0.0755 -0.2835  0.0029
  496MOL0     C65369   5.362   8.838   5.100 -0.2970 -0.2127  0.7075
  496MOL0     O65370   5.283   8.788   5.202  0.2183  0.0927 -0.3525
  496MOL0     C65371   5.150   8.758   5.183 -0.7222 -0.1454  0.6756
  496MOL0     C65372   5.104   8.629   5.166  0.0819  0.2608  0.1280
  496MOL0     C65373   4.969   8.609   5.149  0.2967  0.2064  0.7073
  496MOL0     C65374   4.882   8.711   5.147  0.3945 -1.1739 -1.1777
  496MOL0     O65375   4.752   8.681   5.137 -0.1731 -0.3567 -0.3692
  496MOL0     C65376   4.689   8.708   5.011 -0.0834  0.1062 -0.2424
  496MOL0     C65377   4.540   8.686   5.003  0.0199  0.9960  0.0917
  496MOL0     C65378   4.460   8.765   5.106 -0.5963 -0.7405  0.1866
  496MOL0     C65379   4.309   8.711   5.113  0.9129 -0.9725  0.0452
  496MOL0     C65380   4.222   8.796   5.205 -0.5118 -0.5930 -0.0026
  496MOL0     C65381   4.214   8.933   5.156 -0.5181 -0.2890  0.0787
  496MOL0     C65382   4.102   9.008   5.235  0.1811  0.8247 -1.1325
  496MOL0     C65383   4.118   9.156   5.226  0.0243  0.5736  0.0566
  496MOL0    Cl65384   4.282   9.216   5.276  0.2985  0.3262 -0.0560
  496MOL0     C65385   4.926   8.838   5.164 -0.3081  0.6009 -0.6333
  496MOL0     C65386   5.057   8.863   5.189  0.4034  0.8134  0.7087
  496MOL0     O65387   5.314   8.882   4.998  0.1293 -0.4170  0.3020
  496MOL0     C65388   5.569   8.776   5.235 -0.9562  0.4377 -0.5292
  496MOL0     C65389   5.712   8.751   5.237 -0.0387 -0.0483  0.6565
  496MOL0     N65390   6.306   8.539   4.839 -0.4080 -0.1204  0.5744
  496MOL0     N65391   6.391   8.550   4.739 -0.0909 -0.0925  0.3059
  496MOL0     C65392   6.194   9.370   4.739 -0.2988  0.2445 -0.4689
  496MOL0     C65393   6.103   9.380   4.844  0.2397  0.5326  0.5250
  496MOL0     C65394   5.863   9.333   5.187  0.5070  0.5968  0.3676
  496MOL0     C65395   5.872   9.455   5.258 -0.0439 -0.2656 -0.5991
  496MOL0     C65396   5.779   9.479   5.360  0.1026 -0.7124  0.4742
  496MOL0     C65397   5.671   9.395   5.376 -0.2816 -0.5549  0.6098
  496MOL0     O65398   5.586   9.445   5.469 -0.5953 -0.1008  0.4340
  496MOL0     C65399   5.455   9.382   5.482 -0.4053 -0.0278  0.6046
  496MOL0     C65400   5.360   9.461   5.567  0.5675  0.0548  0.3324
  496MOL0     C65401   5.208   9.410   5.557  0.3261  0.9605  0.0232
  496MOL0     C65402   5.102   9.481   5.637  1.2168 -1.0295  0.0639
  496MOL0     C65403   5.081   9.616   5.578 -0.1755 -0.0425 -0.0403
  496MOL0     C65404   5.061   9.722   5.520 -0.3089  0.1903  0.6620
  496MOL0     C65405   5.651   9.282   5.296  1.1974 -0.5862  0.3498
  496MOL0     C65406   5.751   9.250   5.204 -0.9881 -0.0649 -0.1154
  496MOL0     H65407   6.326   9.361   5.095 -0.1638  1.4347 -0.2402
  496MOL0     H65408   6.483   9.327   4.895 -0.1191  0.6438 -1.9714
  496MOL0     H65409   6.515   9.179   4.700 -3.9957 -0.0801 -0.7814
  496MOL0     H65410   6.608   9.340   4.696  1.3466 -1.5807 -1.1172
  496MOL0     H65411   6.608   9.348   4.464  3.5205 -0.5674 -1.8844
  496MOL0     H65412   6.530   9.194   4.443  1.2456 -1.7703  0.4531
  496MOL0     H65413   6.793   9.204   4.584 -1.1849 -2.0816  2.1465
  496MOL0     H65414   6.765   9.162   4.418  0.5637 -0.5489  0.6123
  496MOL0     H65415   6.621   9.008   4.635  1.9415 -1.3740  1.8598
  496MOL0     H65416   6.638   8.978   4.461  1.2769  0.1840 -0.6967
  496MOL0     H65417   6.845   8.956   4.678 -2.5592  0.7894  1.2234
  496MOL0     H65418   6.894   8.937   4.510  1.3880 -3.9531 -1.1565
  496MOL0     H65419   6.866   8.720   4.610 -0.9116 -0.8567 -0.2332
  496MOL0     H65420   6.737   8.737   4.486 -2.1285  0.7528  0.4196
  496MOL0     H65421   6.698   8.788   4.779 -0.6811 -0.2629  0.0005
  496MOL0     H65422   6.570   8.785   4.657 -0.0336  1.4825  1.1115
  496MOL0     H65423   6.729   8.550   4.765 -1.1822  1.0757  1.7503
  496MOL0     H65424   6.635   8.538   4.616  0.3993 -1.4460  0.5625
  496MOL0     H65425   6.585   8.561   4.997 -0.0325 -2.5408 -0.2564
  496MOL0     H65426   6.359   8.573   5.176 -2.0700  0.8093  1.8814
  496MOL0     H65427   6.272   8.441   5.099 -0.7253  0.7452  0.6905
  496MOL0     H65428   6.103   8.598   5.180  1.7711 -0.8090  0.7659
  496MOL0     H65429   6.096   8.583   5.006 -0.6577 -0.4953  0.3543
  496MOL0     H65430   6.231   8.804   5.142 -0.5198  2.7134 -0.4467
  496MOL0     H65431   6.210   8.790   4.969 -1.6779 -2.0693 -1.9103
  496MOL0     H65432   5.990   8.846   4.962  0.2457  0.1281  0.2900
  496MOL0     H65433   6.017   8.945   5.105 -2.9971 -0.6929  1.4271
  496MOL0     H65434   5.806   8.908   4.944  2.5870 -0.4641  0.6438
  496MOL0     H65435   5.556   8.939   4.937  3.5508  1.5410 -1.1155
  496MOL0     H65436   5.169   8.544   5.151  3.5290  2.9256 -1.2225
  496MOL0     H65437   4.928   8.510   5.131 -2.0866  1.1850  0.2957
  496MOL0     H65438   4.748   8.641   4.947  0.3567 -0.2314  0.5039
  496MOL0     H65439   4.704   8.810   4.977  3.3939 -0.5072 -0.9269
  496MOL0     H65440   4.525   8.579   5.023 -0.0461  1.0984  0.6182
  496MOL0     H65441   4.512   8.709   4.900 -1.3523 -1.6648 -0.2190
  496MOL0     H65442   4.460   8.871   5.078 -2.5668 -0.2084  1.9404
  496MOL0     H65443   4.512   8.758   5.202 -0.5065 -2.8526  0.0405
  496MOL0     H65444   4.276   8.725   5.010 -0.0414  0.2527  0.4880
  496MOL0     H65445   4.308   8.607   5.146 -0.9546 -1.3617 -1.0635
  496MOL0     H65446   4.252   8.789   5.310  1.3158  2.6188 -0.1956
  496MOL0     H65447   4.119   8.765   5.189 -1.3704  1.8482  0.4733
  496MOL0     H65448   4.183   8.936   5.051 -0.8701  1.0611  0.2004
  496MOL0     H65449   4.310   8.983   5.176 -1.0492  0.0044  2.2179
  496MOL0     H65450   4.011   8.976   5.185  0.6173 -0.7575 -0.9909
  496MOL0     H65451   4.102   8.998   5.344  0.3202  1.4506 -1.0726
  496MOL0     H65452   4.042   9.198   5.292 -1.6178 -2.0871 -0.0168
  496MOL0     H65453   4.096   9.172   5.120  1.6770 -0.8613 -0.5464
  496MOL0     H65454   4.859   8.924   5.166 -2.7554 -1.0987 -2.8218
  496MOL0     H65455   5.068   8.970   5.204 -1.5331  1.4565 -1.7840
  496MOL0     H65456   5.524   8.742   5.327  0.4924  0.0186  0.0484
  496MOL0     H65457   5.747   8.693   5.322  0.0027  1.6265  1.8421
  496MOL0     H65458   6.146   9.382   4.642 -3.6615 -0.3316  0.9823
  496MOL0     H65459   5.998   9.383   4.819  0.3146 -0.0367  0.1141
  496MOL0     H65460   5.955   9.524   5.242  0.0831 -0.2237  0.2212
  496MOL0     H65461   5.793   9.566   5.423 -0.8304  0.0229 -0.2960
  496MOL0     H65462   5.467   9.282   5.525 -0.9504 -0.0244  0.7681
  496MOL0     H65463   5.410   9.372   5.382  0.3952  0.1390  0.2144
  496MOL0     H65464   5.386   9.454   5.673 -0.2271 -0.8492  0.4781
  496MOL0     H65465   5.367   9.566   5.535  3.2662 -0.1491  0.0194
  496MOL0     H65466   5.204   9.304   5.583 -0.0083  1.1616  0.7981
  496MOL0     H65467   5.171   9.419   5.454  1.6505 -4.5823 -1.2369
  496MOL0     H65468   5.008   9.426   5.639  0.9329 -0.5425  0.6941
  496MOL0     H65469   5.132   9.487   5.742 -0.7811 -1.4941  0.7223
  496MOL0     H65470   5.047   9.813   5.466  0.4452  0.8485  1.5273
  496MOL0     H65471   5.564   9.217   5.300  0.3431  0.5806  1.6462
  496MOL0     H65472   5.749   9.167   5.134  0.5604 -1.3034  1.2496
  497MOL0     O65473   8.912   3.879   6.878  0.4965 -0.3975 -0.1460
  497MOL0     C65474   8.923   3.862   6.756 -0.7623 -0.4149  0.7119
  497MOL0     O65475   8.825   3.836   6.655 -0.2862 -0.0465 -0.3302
  497MOL0     C65476   8.705   3.781   6.692  0.2458 -0.9614 -1.2119
  497MOL0     C65477   8.594   3.806   6.617 -0.4084  0.2749  0.7852
  497MOL0     C65478   8.461   3.772   6.660 -0.3583  0.2357 -0.1311
  497MOL0     C65479   8.451   3.701   6.781  0.2205 -0.2513 -0.4398
  497MOL0     O65480   8.339   3.662   6.832 -0.8850 -0.5372 -0.5548
  497MOL0     C65481   8.322   3.518   6.816  0.1199  0.8985 -0.3032
  497MOL0     C65482   8.274   3.458   6.949 -0.0049 -0.5216  0.7584
  497MOL0     C65483   8.139   3.504   7.004 -0.1068  0.5860  0.3994
  497MOL0     C65484   8.121   3.448   7.144 -0.1703  0.3831 -0.6102
  497MOL0     C65485   7.993   3.516   7.200 -0.3138 -0.3734  0.9065
  497MOL0     C65486   7.974   3.477   7.351 -0.8065  0.3770  0.1495
  497MOL0     C65487   7.839   3.511   7.430 -0.9933  1.5691  0.2064
  497MOL0     C65488   7.875   3.471   7.573 -0.2593 -0.3035 -0.2325
  497MOL0     N65489   7.763   3.478   7.673 -0.5219 -0.1093  0.0567
  497MOL0     C65490   7.658   3.394   7.666  0.2432 -0.3750  0.0904
  497MOL0     C65491   7.599   3.413   7.791  0.4179 -1.4131  0.4673
  497MOL0     C65492   7.482   3.344   7.866 -0.8901 -0.8156 -0.1351
  497MOL0     C65493   7.350   3.433   7.885  0.1869 -0.5850  0.0619
  497MOL0     C65494   7.298   3.490   7.755 -0.1019  0.0277 -0.4234
  497MOL0     C65495   7.160   3.554   7.776 -0.5899  0.6814 -0.0291
  497MOL0     O65496   7.053   3.480   7.844 -0.4072 -1.0366  0.2971
  497MOL0     C65497   6.924   3.518   7.811 -0.4742  0.1175 -0.3388
  497MOL0     C65498   6.825   3.442   7.871  0.5816 -0.1300 -0.0438
  497MOL0     C65499   6.684   3.467   7.855  0.1727 -0.0442 -0.0675
  497MOL0     C65500   6.644   3.583   7.787 -0.1743 -0.8289  1.2092
  497MOL0     C65501   6.502   3.618   7.776 -0.6017  0.2510 -0.6398
  497MOL0     O65502   6.424   3.536   7.844  0.5572 -0.2322 -0.1060
  497MOL0     C65503   6.286   3.531   7.819  0.1787 -0.0725 -0.3814
  497MOL0     C65504   6.225   3.407   7.802  0.4042  0.3425 -0.0157
  497MOL0     C65505   6.082   3.396   7.797  0.2459 -0.1180  0.6049
  497MOL0     C65506   5.999   3.508   7.803  0.1649  0.0134  0.6037
  497MOL0     O65507   5.866   3.484   7.788  0.0827 -0.2212  0.5409
  497MOL0     C65508   5.778   3.594   7.764 -0.8938 -0.4938  0.0920
  497MOL0     C65509   5.639   3.533   7.765  0.9969 -0.2286  0.8800
  497MOL0     C65510   5.519   3.629   7.753 -0.4431 -0.6386 -0.4534
  497MOL0     C65511   5.461   3.686   7.887  0.4134 -0.0049 -0.0894
  497MOL0     C65512   5.319   3.744   7.861  0.0244  0.0316 -0.5243
  497MOL0     C65513   5.271   3.820   7.991  0.3004  0.4563 -0.6646
  497MOL0     C65514   5.141   3.907   7.970 -0.7496  1.1831 -0.4084
  497MOL0     C65515   5.124   3.993   8.097 -0.3199  0.0064 -0.2637
  497MOL0    Cl65516   5.004   4.115   8.083 -0.0204  0.2372  0.1621
  497MOL0     C65517   6.066   3.629   7.826  0.2407 -0.0701  0.6041
  497MOL0     C65518   6.206   3.637   7.837  0.3717  0.1349 -0.8025
  497MOL0     O65519   6.469   3.701   7.692  0.3123  0.9818  0.2360
  497MOL0     C65520   6.747   3.663   7.725 -0.3847  0.1010 -0.7959
  497MOL0     C65521   6.884   3.636   7.739 -0.1518  0.2326  0.3211
  497MOL0     N65522   7.668   3.506   7.867  0.8895 -0.6804  0.1810
  497MOL0     N65523   7.770   3.549   7.790  0.1642  0.8099  0.2826
  497MOL0     C65524   8.562   3.665   6.859 -0.6316 -0.1195 -0.2901
  497MOL0     C65525   8.687   3.709   6.813 -0.5022 -0.4447  0.3791
  497MOL0     C65526   9.059   3.876   6.701  0.5981 -0.0021 -0.6373
  497MOL0     C65527   9.092   3.821   6.573 -0.4117 -0.2990 -0.4640
  497MOL0     C65528   9.223   3.806   6.535 -0.0278 -0.8333 -0.1021
  497MOL0     C65529   9.324   3.869   6.616  0.8096 -0.0251 -0.5567
  497MOL0     O65530   9.452   3.876   6.577  0.1243 -0.7221 -0.0803
  497MOL0     C65531   9.528   3.755   6.627 -0.1209  0.0699  0.0175
  497MOL0     C65532   9.682   3.772   6.617  0.0063  0.9468  0.1272
  497MOL0     C65533   9.728   3.792   6.469 -0.0582  0.2277  0.5536
  497MOL0     C65534   9.875   3.760   6.461 -0.5182 -0.1401  0.4424
  497MOL0     C65535   9.923   3.766   6.325  0.1882  0.0133 -0.8395
  497MOL0     C65536   9.965   3.769   6.214 -0.6660  0.1164  1.0364
  497MOL0     C65537   9.293   3.935   6.729  0.0242 -0.1222 -0.1104
  497MOL0     C65538   9.164   3.928   6.772  0.0252 -0.8634  1.0136
  497MOL0     H65539   8.610   3.853   6.521 -3.7108  0.2143  0.0897
  497MOL0     H65540   8.371   3.813   6.616 -1.0557 -0.0061  1.0336
  497MOL0     H65541   8.408   3.459   6.785 -3.5273 -3.7650 -2.6393
  497MOL0     H65542   8.250   3.489   6.740 -0.5068 -3.1186  1.5782
  497MOL0     H65543   8.354   3.478   7.021 -1.6966  2.8907  1.8862
  497MOL0     H65544   8.279   3.350   6.934  0.2808 -0.1773 -2.1512
  497MOL0     H65545   8.063   3.459   6.940 -0.0640 -0.5889  1.1465
  497MOL0     H65546   8.134   3.613   7.014 -0.8125  0.3591  3.1626
  497MOL0     H65547   8.120   3.339   7.136  0.3270  0.5175 -2.9722
  497MOL0     H65548   8.206   3.468   7.209  1.0064  0.4291 -2.1232
  497MOL0     H65549   7.900   3.479   7.155 -1.5861  2.0201  1.3757
  497MOL0     H65550   7.997   3.624   7.184 -1.3715 -0.3131  0.9864
  497MOL0     H65551   8.055   3.536   7.396 -0.0872  0.3479 -1.0452
  497MOL0     H65552   8.007   3.374   7.369 -2.7608 -0.0208  1.8096
  497MOL0     H65553   7.825   3.619   7.418  2.0607  1.8882 -1.3926
  497MOL0     H65554   7.767   3.443   7.384  0.6252 -0.9526  1.2134
  497MOL0     H65555   7.957   3.537   7.602  0.7045 -1.3485 -0.5587
  497MOL0     H65556   7.912   3.369   7.581  0.8558 -0.0222 -1.5779
  497MOL0     H65557   7.623   3.325   7.590  0.2020  0.9315 -1.1200
  497MOL0     H65558   7.530   3.331   7.963 -0.1987 -0.4666 -0.4270
  497MOL0     H65559   7.459   3.250   7.814 -3.2054  0.0564 -0.8274
  497MOL0     H65560   7.367   3.520   7.950  0.3157 -0.1828 -0.5029
  497MOL0     H65561   7.283   3.362   7.934 -1.5823 -1.2725 -3.1033
  497MOL0     H65562   7.376   3.560   7.726  0.5933 -1.4121 -2.2111
  497MOL0     H65563   7.304   3.406   7.686  3.8779 -0.1441 -0.0712
  497MOL0     H65564   7.133   3.584   7.675  0.6609 -0.8151 -0.8467
  497MOL0     H65565   7.169   3.644   7.838  1.9916  0.7999 -0.4894
  497MOL0     H65566   6.862   3.357   7.927 -1.0643 -0.8354  0.0199
  497MOL0     H65567   6.612   3.407   7.909  1.1450 -0.0961  1.2306
  497MOL0     H65568   6.278   3.312   7.799  1.4727  0.9387 -0.3782
  497MOL0     H65569   6.045   3.294   7.794 -0.7152  0.1878  1.5911
  497MOL0     H65570   5.808   3.648   7.674  0.1916  1.2092  1.4190
  497MOL0     H65571   5.779   3.658   7.853  0.0237 -1.8235  1.0669
  497MOL0     H65572   5.634   3.463   7.848  1.5217 -1.0978  0.2004
  497MOL0     H65573   5.635   3.470   7.676  4.1793  0.4072  0.1673
  497MOL0     H65574   5.446   3.571   7.697 -2.7675  0.0725  1.6705
  497MOL0     H65575   5.536   3.719   7.693 -2.6922  0.8402  0.9640
  497MOL0     H65576   5.466   3.614   7.969 -3.7004 -0.0393  0.3541
  497MOL0     H65577   5.516   3.772   7.924  0.4788 -1.0976  2.6100
  497MOL0     H65578   5.249   3.668   7.825  0.2466 -0.6215  0.3608
  497MOL0     H65579   5.326   3.824   7.787  0.4512  1.3810  0.9101
  497MOL0     H65580   5.355   3.878   8.030  0.1407  0.5409 -0.4418
  497MOL0     H65581   5.243   3.755   8.075 -1.5711  4.6515  2.3146
  497MOL0     H65582   5.151   3.983   7.891 -2.5124  1.8504 -0.0352
  497MOL0     H65583   5.051   3.844   7.962 -0.2983 -0.1139  3.1074
  497MOL0     H65584   5.212   4.051   8.126 -1.9746  0.9825  3.3259
  497MOL0     H65585   5.096   3.936   8.186 -1.6515  1.4416  0.2870
  497MOL0     H65586   6.002   3.715   7.840 -1.2772 -0.6551 -2.0909
  497MOL0     H65587   6.264   3.725   7.861  2.6892 -1.2743 -0.9549
  497MOL0     H65588   6.723   3.746   7.659 -1.0501 -0.0935 -0.8066
  497MOL0     H65589   6.956   3.698   7.687 -1.0939  1.9890  1.0167
  497MOL0     H65590   8.548   3.605   6.948 -1.7422  1.2900  0.5323
  497MOL0     H65591   8.773   3.685   6.876 -0.2058  3.3675  1.7108
  497MOL0     H65592   9.027   3.762   6.510 -0.6906  0.0549 -0.5116
  497MOL0     H65593   9.259   3.776   6.438 -0.0454 -0.0917 -0.3464
  497MOL0     H65594   9.494   3.671   6.565  0.5400  0.5105 -0.9647
  497MOL0     H65595   9.508   3.737   6.733 -0.0715  1.1853  0.2296
  497MOL0     H65596   9.704   3.854   6.685 -1.5843  0.7552  0.9265
  497MOL0     H65597   9.731   3.678   6.644 -0.4920  0.3568 -0.9481
  497MOL0     H65598   9.723   3.894   6.429  1.6500  0.2072  0.2215
  497MOL0     H65599   9.662   3.730   6.408  0.0677 -1.9689  2.4970
  497MOL0     H65600   9.935   3.829   6.522  3.2961 -3.6576  1.0784
  497MOL0     H65601   9.901   3.662   6.502 -3.0467 -0.1070  2.3801
  497MOL0     H65602   9.995   3.768   6.111 -3.4705  1.1100  0.1079
  497MOL0     H65603   9.370   3.983   6.788  0.6550 -1.7120  0.4407
  497MOL0     H65604   9.141   3.979   6.864  0.8261 -0.8745  1.2250
  498MOL0     O65605   0.910   2.264   2.334 -0.2030 -0.2816  0.0410
  498MOL0     C65606   0.973   2.245   2.237 -0.1365  0.1013  0.0063
  498MOL0     O65607   0.941   2.281   2.108  0.1672  0.0777 -0.6280
  498MOL0     C65608   0.819   2.337   2.082  0.6074 -0.2226  0.6503
  498MOL0     C65609   0.699   2.298   2.145 -0.7646 -0.6549 -0.6404
  498MOL0     C65610   0.586   2.378   2.124  0.4934 -0.0466  0.3130
  498MOL0     C65611   0.583   2.485   2.033  0.3519  0.1854 -0.0246
  498MOL0     O65612   0.457   2.540   2.033  0.1624 -0.6081  0.2334
  498MOL0     C65613   0.465   2.652   1.955  0.1310  0.4661 -0.2561
  498MOL0     C65614   0.323   2.710   1.950 -0.5040 -0.1157 -1.0888
  498MOL0     C65615   0.236   2.625   1.856 -0.1433 -0.2224 -0.0215
  498MOL0     C65616   0.081   2.656   1.888  0.0975  0.5889 -0.1713
  498MOL0     C65617  -0.008   2.568   1.787  0.8895  0.3366  0.4212
  498MOL0     C65618  -0.158   2.599   1.808 -0.5130 -0.9245  0.0628
  498MOL0     C65619  -0.204   2.738   1.758  0.1715  0.3753 -0.1389
  498MOL0     C65620  -0.204   2.736   1.606 -0.5611 -0.2738  0.8343
  498MOL0     N65621  -0.273   2.853   1.555  0.2127  0.8817 -0.4316
  498MOL0     C65622  -0.393   2.839   1.491  0.3411  0.0866 -0.3089
  498MOL0     C65623  -0.408   2.949   1.422  0.5440 -0.4452  0.2521
  498MOL0     C65624  -0.536   2.974   1.342 -0.3910 -0.3654 -0.3606
  498MOL0     C65625  -0.574   2.856   1.253 -0.1592  0.0645 -0.2735
  498MOL0     C65626  -0.694   2.881   1.155 -0.7476 -0.0512  0.2048
  498MOL0     C65627  -0.819   2.932   1.222  0.0506  0.1878 -1.0627
  498MOL0     O65628  -0.918   2.910   1.125 -0.7026  0.0657 -0.0242
  498MOL0     C65629  -1.034   2.988   1.113 -0.7704 -0.5609 -0.4562
  498MOL0     C65630  -1.115   2.979   1.004 -0.1591 -0.6609  1.0220
  498MOL0     C65631  -1.230   3.052   0.990 -0.3932 -0.2581  0.0890
  498MOL0     C65632  -1.272   3.142   1.096  0.3393  0.8252 -0.3705
  498MOL0     C65633  -1.404   3.206   1.094 -0.1017  0.4688 -0.1058
  498MOL0     O65634  -1.503   3.156   1.011  0.5133 -0.4837  0.0732
  498MOL0     C65635  -1.619   3.219   1.009 -0.5372  0.1804 -1.1329
  498MOL0     C65636  -1.722   3.179   1.096 -0.7417  0.8584 -0.3950
  498MOL0     C65637  -1.841   3.249   1.090  0.7655 -0.3298 -0.1757
  498MOL0     C65638  -1.866   3.353   0.998 -0.2238  0.8395  0.0271
  498MOL0     O65639  -1.987   3.412   0.976 -0.2731 -0.3260 -0.9300
  498MOL0     C65640  -2.019   3.451   0.842 -0.1246 -0.9470  0.3231
  498MOL0     C65641  -2.173   3.486   0.845 -0.3052 -0.1902  0.2161
  498MOL0     C65642  -2.261   3.363   0.827 -0.5260  0.3428  1.0121
  498MOL0     C65643  -2.411   3.402   0.797 -0.7694  0.1709 -0.1327
  498MOL0     C65644  -2.489   3.276   0.741 -0.0021 -0.4981  0.0445
  498MOL0     C65645  -2.636   3.312   0.712  0.3440 -0.3715  0.1190
  498MOL0     C65646  -2.718   3.374   0.831 -0.0090 -0.4338 -0.2788
  498MOL0     C65647  -2.871   3.362   0.821 -0.2248 -0.6729 -0.8194
  498MOL0    Cl65648  -2.944   3.421   0.973  0.0952  0.1000 -0.2429
  498MOL0     C65649  -1.754   3.401   0.927 -0.2959  0.7805  0.9027
  498MOL0     C65650  -1.631   3.330   0.934 -0.5318  0.8080 -0.1087
  498MOL0     O65651  -1.418   3.308   1.162  0.2964 -0.2921  0.5554
  498MOL0     C65652  -1.201   3.138   1.217 -1.3990  0.2368 -1.0593
  498MOL0     C65653  -1.084   3.061   1.231 -0.1591 -0.9462  0.8747
  498MOL0     N65654  -0.296   3.023   1.421 -0.5273  0.5722 -0.4688
  498MOL0     N65655  -0.213   2.960   1.497  0.2481 -0.1949  0.3120
  498MOL0     C65656   0.708   2.519   1.978  0.5060 -0.2698 -0.2221
  498MOL0     C65657   0.818   2.444   2.000 -0.6190 -0.4572  1.3016
  498MOL0     C65658   1.106   2.174   2.255  0.8377 -0.2020 -1.0972
  498MOL0     C65659   1.171   2.143   2.380  0.4952 -0.1406  0.0870
  498MOL0     C65660   1.291   2.069   2.393  0.1767  0.1658 -0.3983
  498MOL0     C65661   1.352   2.031   2.274  0.9722 -0.1843 -0.5338
  498MOL0     O65662   1.469   1.967   2.297  0.0027 -0.3247 -0.6306
  498MOL0     C65663   1.538   1.891   2.200 -0.0475 -0.2128  0.5971
  498MOL0     C65664   1.682   1.940   2.182 -0.4369  0.9846 -0.0766
  498MOL0     C65665   1.694   2.087   2.145  0.7944  0.3985  0.2680
  498MOL0     C65666   1.837   2.144   2.171  0.1677 -0.7594 -0.1867
  498MOL0     C65667   1.883   2.117   2.313 -0.0149 -0.1491  0.3507
  498MOL0     C65668   1.929   2.109   2.429  0.0413  0.1414 -0.0922
  498MOL0     C65669   1.299   2.067   2.151 -0.2552  0.0777 -0.6521
  498MOL0     C65670   1.178   2.134   2.141 -0.5035  0.2019  0.6086
  498MOL0     H65671   0.688   2.219   2.218 -2.1455  0.9876  1.0328
  498MOL0     H65672   0.494   2.353   2.176  0.2629 -4.5451 -1.7837
  498MOL0     H65673   0.502   2.635   1.853  0.4750  3.2712 -0.6912
  498MOL0     H65674   0.537   2.721   2.000  1.3156 -0.7986 -0.1325
  498MOL0     H65675   0.323   2.818   1.934  0.3804  0.3907  1.7144
  498MOL0     H65676   0.284   2.710   2.053  1.1630  0.2446 -0.4180
  498MOL0     H65677   0.253   2.518   1.874 -1.0064 -0.3179  0.2674
  498MOL0     H65678   0.272   2.651   1.756  1.6598 -0.0267  0.6521
  498MOL0     H65679   0.071   2.611   1.988 -1.1792 -1.7493 -1.2518
  498MOL0     H65680   0.054   2.761   1.898 -1.2124  0.0752  2.8388
  498MOL0     H65681   0.004   2.459   1.794 -2.0501 -0.1513 -0.5243
  498MOL0     H65682   0.023   2.593   1.686 -0.3354 -0.6131 -0.2303
  498MOL0     H65683  -0.192   2.592   1.912 -2.3308  1.3377 -0.2868
  498MOL0     H65684  -0.212   2.518   1.757  0.3944 -1.5317  0.0464
  498MOL0     H65685  -0.306   2.757   1.792  0.9996  3.0442  1.1596
  498MOL0     H65686  -0.139   2.814   1.803  1.5105 -1.2167  0.7486
  498MOL0     H65687  -0.254   2.651   1.557  0.7494  0.0017 -1.1126
  498MOL0     H65688  -0.101   2.727   1.569 -0.1130 -1.4659  2.2857
  498MOL0     H65689  -0.468   2.764   1.514 -1.2739  2.1362  1.4617
  498MOL0     H65690  -0.518   3.056   1.271  0.7371 -1.0893 -0.9479
  498MOL0     H65691  -0.624   2.993   1.403 -0.8201 -0.8517 -0.8181
  498MOL0     H65692  -0.592   2.766   1.312  0.6935 -0.0012 -0.1099
  498MOL0     H65693  -0.486   2.842   1.190 -0.3999  1.3391 -0.9488
  498MOL0     H65694  -0.678   2.954   1.076  0.8442  1.8499  2.1708
  498MOL0     H65695  -0.715   2.793   1.094 -0.1309 -0.1835  0.1703
  498MOL0     H65696  -0.809   3.040   1.236 -1.4493 -0.0517  3.5042
  498MOL0     H65697  -0.831   2.895   1.324 -1.2777  1.6062 -0.6681
  498MOL0     H65698  -1.081   2.927   0.915 -2.7544 -0.1357 -0.3522
  498MOL0     H65699  -1.287   3.034   0.900  0.1346 -3.9590  0.3350
  498MOL0     H65700  -1.724   3.096   1.165  0.7582 -1.2820 -2.7542
  498MOL0     H65701  -1.925   3.222   1.154  0.6977  0.6246  0.1441
  498MOL0     H65702  -1.990   3.379   0.765  0.0290 -0.1561 -0.3732
  498MOL0     H65703  -1.974   3.547   0.814 -1.2551 -0.2184  0.9318
  498MOL0     H65704  -2.195   3.558   0.766 -0.0690  0.6852  0.9317
  498MOL0     H65705  -2.199   3.541   0.936  2.4527 -0.5311  1.2968
  498MOL0     H65706  -2.263   3.300   0.916 -0.2309  0.6536  1.2402
  498MOL0     H65707  -2.226   3.312   0.736  1.8234  4.3879 -0.6341
  498MOL0     H65708  -2.453   3.441   0.890 -4.1697 -1.4563 -0.8181
  498MOL0     H65709  -2.411   3.477   0.717 -2.5847 -2.1259 -2.4573
  498MOL0     H65710  -2.499   3.200   0.819 -2.0418 -0.8226 -0.4684
  498MOL0     H65711  -2.446   3.245   0.645  0.3746 -0.8556  0.3313
  498MOL0     H65712  -2.685   3.221   0.675  1.0469  0.2419 -2.5201
  498MOL0     H65713  -2.646   3.371   0.621 -1.6640 -0.6073  0.1322
  498MOL0     H65714  -2.694   3.326   0.926  0.3751  0.8591  0.3038
  498MOL0     H65715  -2.698   3.481   0.839 -1.9487 -0.0046 -0.6988
  498MOL0     H65716  -2.889   3.257   0.796 -0.4348 -0.2182 -2.7417
  498MOL0     H65717  -2.913   3.423   0.741  1.2062  1.3037 -0.1198
  498MOL0     H65718  -1.758   3.491   0.867 -1.4399 -1.2963 -2.4145
  498MOL0     H65719  -1.551   3.370   0.872 -2.4161  3.4331 -1.0306
  498MOL0     H65720  -1.252   3.195   1.294 -1.9072 -2.3771  0.7024
  498MOL0     H65721  -1.026   3.055   1.323  1.1460 -0.9783  0.0707
  498MOL0     H65722   0.708   2.613   1.922 -1.7776 -0.2230 -0.2519
  498MOL0     H65723   0.917   2.463   1.960 -0.6437 -1.4846  0.7180
  498MOL0     H65724   1.112   2.169   2.467 -1.7225 -2.0806 -0.7165
  498MOL0     H65725   1.334   2.055   2.491 -0.1136  1.5569 -0.0554
  498MOL0     H65726   1.502   1.894   2.097  0.1546 -0.7744  0.5072
  498MOL0     H65727   1.528   1.787   2.231 -2.9532  0.1286  1.1627
  498MOL0     H65728   1.727   1.915   2.279  0.4197 -0.2476 -0.7566
  498MOL0     H65729   1.735   1.879   2.108 -1.7736 -0.8196  0.3955
  498MOL0     H65730   1.622   2.142   2.205 -0.3648  0.1998 -0.8967
  498MOL0     H65731   1.669   2.100   2.039  0.1883  2.5928  0.6344
  498MOL0     H65732   1.905   2.088   2.106  2.6709 -0.8659  2.3463
  498MOL0     H65733   1.834   2.252   2.152 -2.5017 -0.4644  1.3969
  498MOL0     H65734   1.977   2.109   2.525 -1.4354  0.6424  0.6648
  498MOL0     H65735   1.356   2.038   2.063  1.4985 -1.6551  0.9774
  498MOL0     H65736   1.144   2.171   2.044  1.7237 -1.3385 -0.8647
  499MOL0     O65737   8.218   8.399   9.713 -0.2684  0.3988  0.1847
  499MOL0     C65738   8.203   8.285   9.661  0.2055  0.0533 -0.1358
  499MOL0     O65739   8.079   8.226   9.645  0.5989  0.0513 -0.1841
  499MOL0     C65740   7.976   8.307   9.616 -0.1022 -0.1253  0.0583
  499MOL0     C65741   7.856   8.263   9.660  0.8437 -0.9362  0.1078
  499MOL0     C65742   7.738   8.326   9.620 -0.0650 -0.4096  0.5980
  499MOL0     C65743   7.737   8.439   9.541 -0.4020  0.3438 -0.1208
  499MOL0     O65744   7.612   8.504   9.525 -0.5749  0.1009 -0.2726
  499MOL0     C65745   7.611   8.638   9.469  0.3285  0.9062 -0.2012
  499MOL0     C65746   7.480   8.717   9.501  0.6258 -0.8049 -0.4063
  499MOL0     C65747   7.362   8.615   9.482 -0.7832  0.3642  0.3186
  499MOL0     C65748   7.236   8.688   9.519  0.2820 -0.2159 -0.0538
  499MOL0     C65749   7.105   8.616   9.498 -0.0794  0.1760  0.1450
  499MOL0     C65750   6.984   8.708   9.506 -0.6059  1.0334 -1.3888
  499MOL0     C65751   7.006   8.843   9.436 -0.2600  0.3558  0.6849
  499MOL0     C65752   6.878   8.928   9.433  0.1572 -0.4023 -0.7104
  499MOL0     N65753   6.863   9.007   9.556 -0.6496  0.8117 -0.0383
  499MOL0     C65754   6.742   9.046   9.609  0.2167  0.0740 -0.3705
  499MOL0     C65755   6.764   9.149   9.700 -0.2692 -0.3840  0.5461
  499MOL0     C65756   6.667   9.237   9.765 -0.2074  0.2210 -0.2031
  499MOL0     C65757   6.697   9.379   9.727  0.1318 -0.2728 -0.8051
  499MOL0     C65758   6.614   9.474   9.820  0.2763 -0.7276  0.8733
  499MOL0     C65759   6.467   9.466   9.827  0.0037 -0.1099  0.2766
  499MOL0     O65760   6.405   9.553   9.925 -0.2824  0.4413  0.3909
  499MOL0     C65761   6.265   9.547   9.919 -0.3557 -0.2665  0.8400
  499MOL0     C65762   6.200   9.649   9.996 -0.2750  0.4088 -0.6866
  499MOL0     C65763   6.066   9.661   9.994 -0.5148 -0.8853  0.7370
  499MOL0     C65764   5.982   9.567   9.926 -0.1702 -0.3636  0.5290
  499MOL0     C65765   5.833   9.574   9.927  0.0701  0.1584 -0.7114
  499MOL0     O65766   5.774   9.679   9.991  0.3725 -0.1568 -0.1777
  499MOL0     C65767   5.636   9.696   9.982 -0.1096 -0.0073 -0.5357
  499MOL0     C65768   5.545   9.609  10.038  0.0818 -0.0191  0.5662
  499MOL0     C65769   5.406   9.631  10.034  0.0337  0.1115  0.1194
  499MOL0     C65770   5.353   9.742   9.962  0.4240 -0.1224 -0.4102
  499MOL0     O65771   5.220   9.768   9.942 -0.1108  0.3019  0.1828
  499MOL0     C65772   5.135   9.646   9.933 -0.4681 -0.2348  0.3081
  499MOL0     C65773   5.009   9.675   9.845  0.3626  0.2224  0.2890
  499MOL0     C65774   4.897   9.571   9.851  0.6501  0.6352  0.1891
  499MOL0     C65775   4.778   9.623   9.771  0.6580 -0.0862 -0.1676
  499MOL0     C65776   4.675   9.700   9.852  0.6631  0.0650  0.2585
  499MOL0     C65777   4.542   9.713   9.771 -0.3810 -0.8279 -0.1650
  499MOL0     C65778   4.565   9.814   9.655 -0.1937  0.6359  0.2581
  499MOL0     C65779   4.434   9.883   9.623  0.3728  0.5948 -0.3772
  499MOL0    Cl65780   4.301   9.806   9.537 -0.1520  0.1222  0.0437
  499MOL0     C65781   5.446   9.816   9.889  0.0166 -0.8851  0.3452
  499MOL0     C65782   5.587   9.797   9.900 -0.1383 -0.1114 -0.9566
  499MOL0     O65783   5.778   9.478   9.877  0.0653 -0.2092  0.5875
  499MOL0     C65784   6.046   9.458   9.861 -0.2976  0.1455 -0.2417
  499MOL0     C65785   6.188   9.460   9.843 -0.0516  0.3061 -0.4629
  499MOL0     N65786   6.903   9.163   9.710 -0.0378  0.0202 -0.2149
  499MOL0     N65787   6.959   9.085   9.617  0.2986 -0.9110  0.2446
  499MOL0     C65788   7.859   8.482   9.486 -0.4789 -0.1109 -0.1357
  499MOL0     C65789   7.983   8.423   9.538 -0.2209 -1.1101  0.1662
  499MOL0     C65790   8.327   8.209   9.615 -0.0669  0.4213  0.3972
  499MOL0     C65791   8.464   8.258   9.632  0.6277 -0.5347 -0.0992
  499MOL0     C65792   8.570   8.174   9.585 -0.4062 -0.3247  0.1563
  499MOL0     C65793   8.550   8.051   9.525  0.1137  0.8632 -0.9883
  499MOL0     O65794   8.654   7.962   9.495  0.4913 -0.2045 -0.3210
  499MOL0     C65795   8.792   8.005   9.514 -0.4948 -0.9813  0.3476
  499MOL0     C65796   8.881   7.880   9.519  0.8930 -0.2342  0.0253
  499MOL0     C65797   8.813   7.790   9.634 -0.3497  0.3420  0.1448
  499MOL0     C65798   8.906   7.676   9.683  0.1949 -0.1543  0.0279
  499MOL0     C65799   8.953   7.578   9.580  0.2574  0.0586 -0.7980
  499MOL0     C65800   8.979   7.491   9.501  0.3126  0.7978 -0.2238
  499MOL0     C65801   8.420   8.001   9.511  0.5283  0.7359 -0.0003
  499MOL0     C65802   8.308   8.077   9.550 -0.7681 -0.2047  0.3916
  499MOL0     H65803   7.853   8.171   9.719  2.4759 -0.9644  0.1849
  499MOL0     H65804   7.637   8.291   9.640 -0.3431  1.1979  2.2916
  499MOL0     H65805   7.613   8.619   9.361  0.5999 -0.6087  0.0473
  499MOL0     H65806   7.704   8.690   9.494  1.2092 -1.0507  0.8264
  499MOL0     H65807   7.467   8.797   9.428 -2.1809  0.6427  1.5036
  499MOL0     H65808   7.474   8.763   9.600 -0.2246 -1.8980  0.0805
  499MOL0     H65809   7.377   8.521   9.536 -0.0930 -1.3867 -2.6997
  499MOL0     H65810   7.350   8.570   9.383 -0.7616 -0.3412  0.6287
  499MOL0     H65811   7.253   8.705   9.626  1.7148 -2.0247  0.0369
  499MOL0     H65812   7.239   8.781   9.462  0.3324  0.0097  0.3069
  499MOL0     H65813   7.096   8.540   9.576 -0.2303 -0.8502 -0.8592
  499MOL0     H65814   7.104   8.560   9.404 -0.6580 -1.4069  1.0512
  499MOL0     H65815   6.958   8.719   9.611  1.2019 -1.9857 -0.4935
  499MOL0     H65816   6.898   8.663   9.454 -0.9772  2.5628 -2.1694
  499MOL0     H65817   7.082   8.907   9.481  0.2701  0.1773  0.0531
  499MOL0     H65818   7.031   8.823   9.331 -1.3473  1.1500  0.2637
  499MOL0     H65819   6.786   8.871   9.416 -0.7496  0.7804  0.0876
  499MOL0     H65820   6.898   9.012   9.367  1.9651  0.4010  0.7584
  499MOL0     H65821   6.647   8.999   9.585  0.0558  1.3026 -2.4620
  499MOL0     H65822   6.673   9.224   9.874 -3.9479  0.3596  0.1418
  499MOL0     H65823   6.573   9.203   9.723 -0.4438  0.3354  0.2239
  499MOL0     H65824   6.669   9.392   9.622  2.0050 -1.8929 -1.5695
  499MOL0     H65825   6.802   9.408   9.734  0.4921 -1.7174  0.2043
  499MOL0     H65826   6.661   9.477   9.919  1.6325  3.2680  0.2931
  499MOL0     H65827   6.646   9.573   9.786 -2.0070 -1.5032 -4.5896
  499MOL0     H65828   6.454   9.363   9.861 -0.3705  0.6211  2.5417
  499MOL0     H65829   6.417   9.489   9.733 -2.0806  2.4138  1.8512
  499MOL0     H65830   6.260   9.727  10.043  1.0782 -0.9758 -0.0417
  499MOL0     H65831   6.017   9.743  10.047 -0.4304 -0.5475  0.3006
  499MOL0     H65832   5.582   9.527  10.099  0.1225  0.7351  1.5693
  499MOL0     H65833   5.347   9.559  10.090  1.8392 -0.3814  1.4510
  499MOL0     H65834   5.097   9.636  10.035  1.7262  1.4764  1.3825
  499MOL0     H65835   5.181   9.553   9.899 -0.0014 -0.4988  1.6091
  499MOL0     H65836   5.049   9.681   9.743  0.2632 -1.9876  0.0749
  499MOL0     H65837   4.962   9.771   9.868 -1.4316 -0.3888 -0.6123
  499MOL0     H65838   4.867   9.548   9.954 -2.2463 -1.9136 -1.0395
  499MOL0     H65839   4.931   9.481   9.799  0.2580 -0.1412  1.2308
  499MOL0     H65840   4.809   9.684   9.686  0.3091  0.4149  0.0616
  499MOL0     H65841   4.734   9.535   9.723 -0.4639  1.6319 -2.4664
  499MOL0     H65842   4.723   9.795   9.876  2.6651 -1.1345  1.3201
  499MOL0     H65843   4.635   9.643   9.937 -0.4289 -0.8159 -0.8110
  499MOL0     H65844   4.470   9.756   9.842  1.2310  1.6461  0.0968
  499MOL0     H65845   4.502   9.620   9.732 -1.5321  0.2397 -1.6373
  499MOL0     H65846   4.636   9.891   9.687 -1.7353  2.2184 -0.0072
  499MOL0     H65847   4.605   9.758   9.570  0.0343 -0.6882  1.1898
  499MOL0     H65848   4.459   9.961   9.550  0.3239 -0.7869 -1.9049
  499MOL0     H65849   4.392   9.934   9.710 -0.7032 -0.0875 -0.4882
  499MOL0     H65850   5.407   9.894   9.824  0.7496 -0.1219  0.8040
  499MOL0     H65851   5.663   9.861   9.856  0.5138 -0.1213  0.1056
  499MOL0     H65852   5.983   9.377   9.823 -1.7464  1.6482 -1.2131
  499MOL0     H65853   6.224   9.379   9.781  1.1898 -0.4280  1.1429
  499MOL0     H65854   7.858   8.571   9.424 -2.0823 -0.5504 -0.7940
  499MOL0     H65855   8.084   8.454   9.515 -0.0242 -3.5741 -2.9342
  499MOL0     H65856   8.480   8.353   9.683  2.9250 -2.2003  2.5771
  499MOL0     H65857   8.668   8.211   9.613 -1.4693  2.7865  0.0987
  499MOL0     H65858   8.820   8.042   9.614  1.5648  0.1986 -0.5858
  499MOL0     H65859   8.824   8.059   9.425 -1.4534 -0.4532  0.3209
  499MOL0     H65860   8.883   7.825   9.425 -2.0057 -2.6837  1.2075
  499MOL0     H65861   8.987   7.903   9.534  0.8487  0.6701 -0.9518
  499MOL0     H65862   8.722   7.744   9.595  0.4204 -1.2869  0.1729
  499MOL0     H65863   8.779   7.853   9.716 -1.4360  1.0857 -0.8446
  499MOL0     H65864   8.999   7.721   9.720 -0.1987  0.8345 -0.1577
  499MOL0     H65865   8.854   7.634   9.770 -0.9263  2.8542  0.9751
  499MOL0     H65866   9.005   7.422   9.423 -0.4935 -0.4892  0.6134
  499MOL0     H65867   8.402   7.900   9.474  1.3384  0.2465  0.8833
  499MOL0     H65868   8.210   8.042   9.522  0.5401 -3.1414 -0.9799
  500MOL0     O65869  11.011   6.189   7.870 -0.0600  0.3199  0.2428
  500MOL0     C65870  11.003   6.312   7.874  0.1183 -0.0808  0.1698
  500MOL0     O65871  10.892   6.382   7.896 -0.2183  0.0538 -0.2892
  500MOL0     C65872  10.766   6.324   7.912 -0.3809  0.2712 -0.4309
  500MOL0     C65873  10.678   6.400   7.993  0.5092  0.9234 -0.6984
  500MOL0     C65874  10.548   6.363   8.013 -1.0085 -0.3155 -1.2224
  500MOL0     C65875  10.499   6.250   7.947 -0.3538  0.0055 -1.1036
  500MOL0     O65876  10.372   6.213   7.949  0.3471  0.1894 -0.4680
  500MOL0     C65877  10.271   6.312   7.961  0.1932  0.4703  0.1930
  500MOL0     C65878  10.147   6.225   7.966 -0.4540 -0.3286  0.1407
  500MOL0     C65879  10.013   6.293   7.987  0.2175 -0.7285 -0.4277
  500MOL0     C65880   9.909   6.189   7.940  0.0558 -0.2291  0.1615
  500MOL0     C65881   9.764   6.238   7.954 -0.5656 -0.5373 -0.3503
  500MOL0     C65882   9.658   6.158   7.876  0.6936  0.1763  0.0868
  500MOL0     C65883   9.504   6.172   7.910 -0.2209 -0.6533 -0.2882
  500MOL0     C65884   9.461   6.079   8.026 -0.4482 -0.1705  0.6085
  500MOL0     N65885   9.329   6.104   8.071 -0.0031  0.6929  0.0691
  500MOL0     C65886   9.299   6.176   8.183  0.0327 -0.8569  0.2730
  500MOL0     C65887   9.165   6.191   8.173 -0.1565  0.7507 -0.3138
  500MOL0     C65888   9.087   6.273   8.267 -0.8211 -0.3391  0.4013
  500MOL0     C65889   8.942   6.211   8.279  0.4035  0.1777 -1.2481
  500MOL0     C65890   8.861   6.258   8.399 -0.1110 -0.7052  0.2196
  500MOL0     C65891   8.715   6.202   8.392  0.0051 -0.1872 -0.6214
  500MOL0     O65892   8.655   6.251   8.515  0.4614  0.1177 -0.6946
  500MOL0     C65893   8.524   6.206   8.539 -0.4813 -0.2811 -0.3892
  500MOL0     C65894   8.471   6.228   8.667 -0.2882  0.3893  0.4184
  500MOL0     C65895   8.336   6.188   8.694 -0.6446 -0.9626 -1.0006
  500MOL0     C65896   8.254   6.132   8.594  0.1848  0.0622  0.3941
  500MOL0     C65897   8.113   6.095   8.623 -0.0860 -0.6150 -0.2049
  500MOL0     O65898   8.038   6.042   8.527 -0.0484 -0.0128  0.1682
  500MOL0     C65899   7.898   6.021   8.568 -0.4806 -0.2321  0.5612
  500MOL0     C65900   7.854   5.889   8.583 -0.1529  0.4897 -0.3434
  500MOL0     C65901   7.719   5.863   8.604 -0.2833  0.8687 -0.6340
  500MOL0     C65902   7.627   5.970   8.610  0.3532 -1.0764 -0.2997
  500MOL0     O65903   7.493   5.936   8.618  0.0684 -0.3315 -0.2196
  500MOL0     C65904   7.397   6.046   8.623  0.4810  0.1301  0.5348
  500MOL0     C65905   7.263   5.975   8.650  0.8318 -0.4880  0.0657
  500MOL0     C65906   7.136   6.063   8.641 -0.8939  0.0857  0.5207
  500MOL0     C65907   7.022   5.985   8.711  0.4077  0.2431  0.2822
  500MOL0     C65908   6.899   6.057   8.666  0.5173  1.1934  0.7492
  500MOL0     C65909   6.770   5.983   8.722 -0.6655  0.3660 -0.2127
  500MOL0     C65910   6.648   6.046   8.675  0.6830 -0.3337  0.5204
  500MOL0     C65911   6.527   5.981   8.745  0.1188 -0.6911  0.3926
  500MOL0    Cl65912   6.389   6.069   8.683 -0.5052  0.0828  0.1588
  500MOL0     C65913   7.673   6.098   8.601 -0.2428 -0.1678 -0.5551
  500MOL0     C65914   7.811   6.123   8.584 -0.4539 -0.4392  0.1683
  500MOL0     O65915   8.065   6.130   8.729  0.0392  0.3251  0.3362
  500MOL0     C65916   8.315   6.109   8.474  0.1542 -0.0109  0.0219
  500MOL0     C65917   8.444   6.140   8.439 -0.6581 -0.7596  0.3621
  500MOL0     N65918   9.118   6.120   8.065  0.1117 -0.2240  0.2895
  500MOL0     N65919   9.217   6.059   8.000 -0.5964  0.3217 -0.1853
  500MOL0     C65920  10.585   6.163   7.878  0.7095 -0.7288 -0.2260
  500MOL0     C65921  10.720   6.204   7.852 -0.2615  0.4147 -0.2434
  500MOL0     C65922  11.133   6.382   7.868 -0.1281 -0.6773 -0.2515
  500MOL0     C65923  11.259   6.314   7.885 -0.0608  0.4414 -0.5950
  500MOL0     C65924  11.383   6.384   7.876  0.3690 -0.1827  0.5148
  500MOL0     C65925  11.384   6.520   7.852 -0.3597  0.0336  1.1398
  500MOL0     O65926  11.506   6.578   7.846  0.2499  0.7273 -0.8877
  500MOL0     C65927  11.542   6.612   7.712  0.3881  0.3992  0.7784
  500MOL0     C65928  11.662   6.711   7.699  0.3117 -0.5249 -0.5360
  500MOL0     C65929  11.794   6.648   7.752  0.1346  0.4747  0.1562
  500MOL0     C65930  11.892   6.627   7.628 -0.6388  0.0552 -0.0960
  500MOL0     C65931  11.834   6.558   7.515  0.3127 -0.3525 -0.7931
  500MOL0     C65932  11.789   6.514   7.410  0.3934  0.1638 -0.1517
  500MOL0     C65933  11.264   6.594   7.831  0.2609  0.6394  0.3230
  500MOL0     C65934  11.144   6.528   7.845  0.3115  0.1358 -0.6286
  500MOL0     H65935  10.716   6.496   8.028  0.2535  1.6051 -2.2188
  500MOL0     H65936  10.481   6.433   8.062 -1.3438 -0.7804 -1.0046
  500MOL0     H65937  10.268   6.376   7.871  1.4406 -0.1593 -0.3206
  500MOL0     H65938  10.282   6.369   8.053  4.0761  2.3065 -1.1852
  500MOL0     H65939  10.165   6.151   8.044 -0.4183 -0.3249  0.1355
  500MOL0     H65940  10.147   6.171   7.871  0.6148 -0.4667  0.2056
  500MOL0     H65941  10.024   6.387   7.932  1.7893 -1.4218 -1.3281
  500MOL0     H65942  10.010   6.320   8.093  3.7814  0.5751 -0.5183
  500MOL0     H65943   9.923   6.173   7.833 -3.6240 -0.4682 -0.4191
  500MOL0     H65944   9.931   6.094   7.991  4.7792  0.2210 -0.6604
  500MOL0     H65945   9.766   6.340   7.915 -0.3615 -0.1561  0.6217
  500MOL0     H65946   9.745   6.236   8.062  0.5792 -1.7518 -0.1447
  500MOL0     H65947   9.674   6.050   7.880 -4.3002 -0.7462  0.9423
  500MOL0     H65948   9.671   6.176   7.769 -1.7501 -0.0215 -0.2905
  500MOL0     H65949   9.475   6.275   7.932 -1.2367 -0.7343 -1.1254
  500MOL0     H65950   9.441   6.133   7.829 -0.5447  0.4953 -0.6047
  500MOL0     H65951   9.536   6.090   8.105  1.7007 -2.7634 -0.8937
  500MOL0     H65952   9.470   5.977   7.987 -3.2073 -1.0754  2.0998
  500MOL0     H65953   9.364   6.216   8.260  0.9856 -1.5074 -0.1794
  500MOL0     H65954   9.076   6.374   8.227  1.8963 -0.5307 -1.0972
  500MOL0     H65955   9.130   6.277   8.367  1.4841 -2.3367 -0.4144
  500MOL0     H65956   8.955   6.103   8.294 -0.5877 -0.1975 -2.8696
  500MOL0     H65957   8.893   6.233   8.184 -2.1445  3.4570  0.6287
  500MOL0     H65958   8.900   6.218   8.493  1.5265 -1.4715 -0.7442
  500MOL0     H65959   8.869   6.367   8.405 -0.0745 -0.7418  0.9553
  500MOL0     H65960   8.719   6.093   8.387  2.1116 -0.3022  1.6754
  500MOL0     H65961   8.673   6.243   8.300  2.5863  0.4093 -1.6364
  500MOL0     H65962   8.542   6.274   8.735  0.8652  0.5238 -0.8340
  500MOL0     H65963   8.292   6.210   8.791  0.0592 -0.4605 -0.7845
  500MOL0     H65964   7.928   5.812   8.567  0.3308  1.2716 -2.0265
  500MOL0     H65965   7.683   5.760   8.601 -0.3447  0.8405  0.4511
  500MOL0     H65966   7.404   6.090   8.524  1.6252  0.5693  0.7910
  500MOL0     H65967   7.416   6.127   8.695  0.7167  0.3058  0.2734
  500MOL0     H65968   7.274   5.937   8.752  2.4026  1.3565  0.6518
  500MOL0     H65969   7.247   5.885   8.590 -0.3170 -1.3266  1.5658
  500MOL0     H65970   7.110   6.077   8.536  3.3808  1.3334 -0.5573
  500MOL0     H65971   7.152   6.161   8.685  5.3687  0.9970 -2.6300
  500MOL0     H65972   7.004   5.888   8.665 -1.7141  1.0065 -0.6315
  500MOL0     H65973   7.048   5.989   8.817  2.8695  1.2281 -0.2803
  500MOL0     H65974   6.900   6.063   8.557  0.4439 -0.5080  0.6239
  500MOL0     H65975   6.892   6.155   8.714 -2.5802  1.4244  0.0371
  500MOL0     H65976   6.772   5.992   8.831  1.0139  1.8289 -0.3186
  500MOL0     H65977   6.774   5.877   8.696 -1.8399  0.3251 -0.2810
  500MOL0     H65978   6.644   6.153   8.699 -1.5377  0.0570 -1.2912
  500MOL0     H65979   6.641   6.044   8.566 -0.8319 -0.9142  0.5887
  500MOL0     H65980   6.544   5.982   8.853 -1.1864  1.8390  0.6664
  500MOL0     H65981   6.516   5.879   8.708 -0.2036 -1.3810  2.3107
  500MOL0     H65982   7.607   6.184   8.605 -0.3308 -0.2251 -0.7711
  500MOL0     H65983   7.851   6.221   8.560  4.1585 -2.0296  0.3395
  500MOL0     H65984   8.246   6.066   8.403  0.6601 -1.3341  0.3046
  500MOL0     H65985   8.478   6.116   8.339 -2.8649 -0.7446 -0.4443
  500MOL0     H65986  10.543   6.077   7.827  1.7432 -1.5170  0.2103
  500MOL0     H65987  10.789   6.146   7.791  0.3105  0.3342  0.4759
  500MOL0     H65988  11.263   6.208   7.906 -2.0775  0.5380  0.4536
  500MOL0     H65989  11.471   6.326   7.899 -0.2773 -0.1028  3.6087
  500MOL0     H65990  11.453   6.649   7.660 -1.0631  0.6244  3.2393
  500MOL0     H65991  11.583   6.526   7.658 -0.4045  1.0733 -0.9670
  500MOL0     H65992  11.659   6.731   7.591  3.1866 -1.1338 -0.8160
  500MOL0     H65993  11.632   6.799   7.757  1.6233 -0.3589 -0.0650
  500MOL0     H65994  11.778   6.553   7.803  2.6419 -0.9747 -1.5515
  500MOL0     H65995  11.841   6.713   7.828  1.4595  2.0207 -1.8737
  500MOL0     H65996  11.934   6.721   7.591  1.6711 -0.1639  1.7549
  500MOL0     H65997  11.977   6.567   7.660 -1.4173 -0.1857  1.6114
  500MOL0     H65998  11.761   6.485   7.310  0.5974  0.8584 -0.4158
  500MOL0     H65999  11.263   6.702   7.827 -0.9971  0.6069 -1.2740
  500MOL0     H66000  11.052   6.585   7.849 -0.8530 -1.6952 -0.1541
  501MOL0     O66001   0.452   1.165   6.298 -0.3375 -0.7562  0.3174
  501MOL0     C66002   0.468   1.094   6.193  0.3439  0.0366  0.3593
  501MOL0     O66003   0.373   1.013   6.135  0.1391 -0.0913 -0.4183
  501MOL0     C66004   0.262   0.985   6.207 -0.4010 -0.4378 -0.0094
  501MOL0     C66005   0.142   1.054   6.191  0.1679  0.0006 -0.3928
  501MOL0     C66006   0.030   1.020   6.271 -0.3638  0.2422  0.0433
  501MOL0     C66007   0.044   0.931   6.382  0.5493 -0.6787  0.1034
  501MOL0     O66008  -0.059   0.917   6.473  0.1899 -0.4159  0.6896
  501MOL0     C66009  -0.026   0.873   6.606 -0.1290  0.9835 -0.2027
  501MOL0     C66010  -0.142   0.911   6.695 -0.9446 -0.4399  0.5999
  501MOL0     C66011  -0.272   0.866   6.642 -0.0988 -0.1402 -0.5942
  501MOL0     C66012  -0.398   0.874   6.745  0.1779 -0.3023  0.3222
  501MOL0     C66013  -0.532   0.945   6.695 -0.5798 -1.1647  0.2941
  501MOL0     C66014  -0.647   0.940   6.798  0.7112  0.9508  0.2959
  501MOL0     C66015  -0.690   0.794   6.819  0.9304 -0.4401 -0.4490
  501MOL0     C66016  -0.822   0.783   6.887  0.6472 -1.0141  0.0962
  501MOL0     N66017  -0.934   0.852   6.813 -0.4309  0.7192  0.0544
  501MOL0     C66018  -1.000   0.786   6.711  0.5751 -0.8685 -0.3747
  501MOL0     C66019  -1.106   0.875   6.690 -0.5869  0.1496 -0.0532
  501MOL0     C66020  -1.214   0.852   6.586 -0.5069 -0.0226 -0.6304
  501MOL0     C66021  -1.178   0.768   6.466  0.3543 -0.5200  0.4987
  501MOL0     C66022  -1.279   0.788   6.347 -0.2671 -0.3378 -0.2073
  501MOL0     C66023  -1.268   0.686   6.228 -0.0986  0.4045 -0.2668
  501MOL0     O66024  -1.346   0.736   6.110  0.1274  0.1166  0.4122
  501MOL0     C66025  -1.483   0.741   6.110  0.5074  0.4132  0.0479
  501MOL0     C66026  -1.557   0.695   6.222  0.2528  0.1345 -0.5126
  501MOL0     C66027  -1.699   0.701   6.215 -0.0248 -0.1121 -0.2863
  501MOL0     C66028  -1.768   0.755   6.106  0.2824  0.4737 -0.4586
  501MOL0     C66029  -1.906   0.770   6.110  0.1050 -0.3818  1.4628
  501MOL0     O66030  -1.964   0.798   5.985 -0.1150  0.6314  0.4071
  501MOL0     C66031  -2.104   0.774   5.986  0.4699  0.8613  0.1028
  501MOL0     C66032  -2.164   0.644   5.987 -0.3834  1.5419  0.0986
  501MOL0     C66033  -2.305   0.623   5.982  0.1189  0.4807  0.3420
  501MOL0     C66034  -2.397   0.735   5.966 -0.4286  0.2717 -0.0926
  501MOL0     O66035  -2.538   0.731   5.944  0.0826 -0.0680 -0.6975
  501MOL0     C66036  -2.598   0.654   6.046 -0.2567 -0.0229  0.0823
  501MOL0     C66037  -2.747   0.676   6.055  0.3886  0.1296 -0.3282
  501MOL0     C66038  -2.813   0.586   5.947 -0.7173 -0.5308 -0.3198
  501MOL0     C66039  -2.960   0.598   5.971  0.3452 -0.4650  0.6369
  501MOL0     C66040  -3.036   0.513   5.876  0.5491  0.3025  0.0388
  501MOL0     C66041  -3.192   0.526   5.888 -0.2192 -0.5868  0.0422
  501MOL0     C66042  -3.266   0.444   5.776 -0.4085 -0.4113  0.2171
  501MOL0     C66043  -3.418   0.460   5.797  0.1393  0.3142 -0.1965
  501MOL0    Cl66044  -3.483   0.368   5.674 -0.1275 -0.0270 -0.2898
  501MOL0     C66045  -2.341   0.864   5.967 -0.6121 -0.0766 -0.1929
  501MOL0     C66046  -2.196   0.883   5.974  0.9835  0.3810 -0.4438
  501MOL0     O66047  -1.967   0.755   6.217  0.4467 -0.1719  0.4011
  501MOL0     C66048  -1.690   0.810   6.004  0.2397 -0.0267 -0.4763
  501MOL0     C66049  -1.550   0.806   6.001  0.6414 -0.3702  0.0070
  501MOL0     N66050  -1.081   0.984   6.774 -0.1431  0.1946 -0.2465
  501MOL0     N66051  -0.976   0.977   6.838 -0.6269  0.3153 -0.1710
  501MOL0     C66052   0.167   0.858   6.393  0.2476 -0.6479 -0.1017
  501MOL0     C66053   0.273   0.885   6.302  0.2959  0.5585 -0.1180
  501MOL0     C66054   0.595   1.109   6.109 -0.5087 -1.0249 -0.4827
  501MOL0     C66055   0.697   1.207   6.136 -0.3631  0.0633 -0.4083
  501MOL0     C66056   0.822   1.199   6.076  0.1717  0.0706 -0.8180
  501MOL0     C66057   0.841   1.109   5.967 -0.3649 -0.5549 -0.0911
  501MOL0     O66058   0.965   1.107   5.909 -0.9961  0.1681  0.3564
  501MOL0     C66059   0.975   1.092   5.769 -0.4236  0.0311 -0.0319
  501MOL0     C66060   1.125   1.106   5.722 -0.2173  0.5765 -0.3866
  501MOL0     C66061   1.146   1.051   5.581  0.7134  0.2905  0.2502
  501MOL0     C66062   1.291   1.043   5.537 -0.2060  0.0251 -0.2446
  501MOL0     C66063   1.375   0.966   5.637 -0.4033  0.3315  0.0347
  501MOL0     C66064   1.447   0.908   5.709  0.1779  0.1877  0.1219
  501MOL0     C66065   0.747   1.019   5.935  0.4284  0.3976 -0.0565
  501MOL0     C66066   0.627   1.013   6.007 -0.0514  0.0108  0.1531
  501MOL0     H66067   0.133   1.124   6.108  0.8492  0.4766 -0.0743
  501MOL0     H66068  -0.063   1.073   6.253 -0.4273 -0.8241 -3.7258
  501MOL0     H66069   0.064   0.917   6.651 -0.2152  0.4603  0.5090
  501MOL0     H66070  -0.010   0.765   6.610 -0.2110  0.8834 -1.9503
  501MOL0     H66071  -0.147   1.020   6.700 -0.4898 -0.3346 -0.8528
  501MOL0     H66072  -0.123   0.873   6.795 -1.0500  0.2129  0.8744
  501MOL0     H66073  -0.265   0.764   6.602  2.0881  0.1134 -0.9894
  501MOL0     H66074  -0.309   0.933   6.565  0.0975 -0.7967 -1.2683
  501MOL0     H66075  -0.435   0.772   6.758  1.8870 -0.8559  1.0460
  501MOL0     H66076  -0.376   0.927   6.838 -0.1336  0.6366 -0.1284
  501MOL0     H66077  -0.559   0.900   6.599  1.2065  0.2693 -0.9495
  501MOL0     H66078  -0.514   1.048   6.663  0.1634 -0.7860  1.8512
  501MOL0     H66079  -0.727   0.997   6.749  0.7182  3.3435  2.8302
  501MOL0     H66080  -0.619   0.987   6.892  2.7025  1.9503 -0.7210
  501MOL0     H66081  -0.688   0.725   6.734 -0.5733  1.0291 -1.7228
  501MOL0     H66082  -0.612   0.761   6.889  0.6415  0.9829  0.5884
  501MOL0     H66083  -0.822   0.825   6.988  1.1156 -1.0155  0.0975
  501MOL0     H66084  -0.856   0.680   6.893 -1.4947 -0.4293 -0.9404
  501MOL0     H66085  -0.985   0.685   6.674 -1.4475 -1.7018  0.9016
  501MOL0     H66086  -1.232   0.956   6.557  3.5676  0.8282 -0.6721
  501MOL0     H66087  -1.306   0.804   6.621 -0.3286 -0.1764 -0.3753
  501MOL0     H66088  -1.178   0.667   6.507  0.4020 -0.0643  1.6627
  501MOL0     H66089  -1.079   0.799   6.431  0.3055  1.5867  2.0408
  501MOL0     H66090  -1.376   0.773   6.395 -0.1659 -2.4243 -0.5535
  501MOL0     H66091  -1.268   0.888   6.305  0.6986  0.0355  0.8946
  501MOL0     H66092  -1.317   0.592   6.252  1.5907 -0.7437 -1.0601
  501MOL0     H66093  -1.164   0.664   6.200  0.5370  1.2268  1.2925
  501MOL0     H66094  -1.506   0.659   6.311  1.2996  1.5586 -0.5044
  501MOL0     H66095  -1.749   0.663   6.304 -2.3131  0.2382 -1.3304
  501MOL0     H66096  -2.099   0.557   5.991  0.0339  1.8258 -0.4097
  501MOL0     H66097  -2.341   0.520   5.982 -0.8092  0.7914  0.4804
  501MOL0     H66098  -2.548   0.660   6.143  3.6219  1.7624 -1.7973
  501MOL0     H66099  -2.577   0.554   6.008  0.8127 -0.2610  1.2523
  501MOL0     H66100  -2.773   0.780   6.033 -1.8876 -0.3183 -0.0094
  501MOL0     H66101  -2.775   0.646   6.156  0.5227  5.2983  1.5785
  501MOL0     H66102  -2.778   0.483   5.940  2.5966  0.5812 -2.6261
  501MOL0     H66103  -2.793   0.636   5.851 -1.9395 -0.4409 -0.5445
  501MOL0     H66104  -3.000   0.574   6.070 -2.9836 -0.8268 -0.6710
  501MOL0     H66105  -2.986   0.702   5.950  0.6248 -0.1563  1.7902
  501MOL0     H66106  -3.001   0.411   5.897  1.7915  1.2194  2.7665
  501MOL0     H66107  -3.019   0.554   5.776 -1.3082  2.6253  0.5795
  501MOL0     H66108  -3.223   0.631   5.882 -0.1982 -0.6704 -2.0182
  501MOL0     H66109  -3.213   0.484   5.987 -0.3669 -0.3708  0.1022
  501MOL0     H66110  -3.231   0.492   5.684 -1.0552  2.1506  1.2054
  501MOL0     H66111  -3.242   0.338   5.776 -0.0577 -0.3434  1.1416
  501MOL0     H66112  -3.443   0.566   5.791  1.1506  0.7469  1.9977
  501MOL0     H66113  -3.443   0.410   5.891 -0.2650 -0.7987 -0.8790
  501MOL0     H66114  -2.410   0.948   5.959 -1.2838 -0.7335 -1.5369
  501MOL0     H66115  -2.156   0.983   5.963  0.8646  0.4196 -0.5179
  501MOL0     H66116  -1.741   0.849   5.917 -0.8317  0.0926  0.1874
  501MOL0     H66117  -1.500   0.843   5.912  1.7851 -2.4177 -0.2587
  501MOL0     H66118   0.177   0.784   6.473  0.6952  1.4896  1.9355
  501MOL0     H66119   0.364   0.830   6.321  0.2050  1.2447  2.8401
  501MOL0     H66120   0.693   1.270   6.224 -1.7793  1.3622 -1.3453
  501MOL0     H66121   0.903   1.268   6.097  0.5305 -0.1325 -1.5221
  501MOL0     H66122   0.914   1.162   5.712 -0.1451  0.3472  0.0528
  501MOL0     H66123   0.942   0.989   5.752 -1.7057  0.7272 -2.1482
  501MOL0     H66124   1.135   1.215   5.727 -1.8308  0.8017 -1.3572
  501MOL0     H66125   1.199   1.055   5.784 -2.2388 -2.5051 -0.2801
  501MOL0     H66126   1.096   1.108   5.502  1.3831 -0.1223 -0.4827
  501MOL0     H66127   1.094   0.955   5.578 -1.0240  1.1812  0.5211
  501MOL0     H66128   1.295   1.002   5.436  0.0711 -0.1751 -0.1540
  501MOL0     H66129   1.325   1.147   5.533 -2.5869  0.9716  1.5734
  501MOL0     H66130   1.517   0.857   5.771  1.6300  0.9557 -0.8205
  501MOL0     H66131   0.773   0.933   5.874  1.5084  0.4720  0.2866
  501MOL0     H66132   0.566   0.925   5.991 -0.5422  0.2745  0.5269
  502MOL0     O66133   3.284   8.862   1.560  0.5807 -0.8042  0.3302
  502MOL0     C66134   3.298   8.741   1.537 -0.0066  0.5127 -0.0851
  502MOL0     O66135   3.237   8.663   1.441 -0.3001 -0.1631  0.0654
  502MOL0     C66136   3.140   8.716   1.364 -0.2963 -0.3946  0.2384
  502MOL0     C66137   3.169   8.702   1.226 -0.1292 -0.3827  1.0306
  502MOL0     C66138   3.061   8.743   1.144 -0.3872  0.9517 -0.4825
  502MOL0     C66139   2.938   8.787   1.190  0.5741 -1.3565 -0.7786
  502MOL0     O66140   2.843   8.810   1.098 -0.2956  0.0260 -0.8354
  502MOL0     C66141   2.747   8.923   1.097  0.3420 -0.5775 -0.5877
  502MOL0     C66142   2.608   8.865   1.055 -0.7346  0.8548  0.4302
  502MOL0     C66143   2.492   8.945   1.084  0.6525  0.2650  0.1864
  502MOL0     C66144   2.470   9.059   0.985 -0.5027 -0.2379 -0.7023
  502MOL0     C66145   2.333   9.129   1.021 -0.3912 -0.5177  0.0463
  502MOL0     C66146   2.316   9.187   1.161 -0.9752  0.4305  0.1351
  502MOL0     C66147   2.201   9.286   1.174  0.1938 -0.5709  0.4831
  502MOL0     C66148   2.064   9.209   1.162 -0.1840 -0.9049  0.4854
  502MOL0     N66149   1.943   9.296   1.180 -0.1192 -0.3601 -0.8813
  502MOL0     C66150   1.851   9.341   1.088 -0.0212  0.5335  0.6860
  502MOL0     C66151   1.743   9.399   1.158 -0.2834 -0.2716  0.6939
  502MOL0     C66152   1.630   9.482   1.098  0.0284  0.0343  0.6948
  502MOL0     C66153   1.603   9.623   1.161 -0.6038  1.1684  0.0997
  502MOL0     C66154   1.514   9.614   1.293 -0.3004 -0.3030 -0.3592
  502MOL0     C66155   1.485   9.750   1.365  0.4465  0.8707 -0.6195
  502MOL0     O66156   1.420   9.725   1.495 -0.3150 -0.2307 -0.3533
  502MOL0     C66157   1.293   9.674   1.500  0.0379 -0.7952  0.2048
  502MOL0     C66158   1.245   9.651   1.631 -0.0105  0.9077  0.1489
  502MOL0     C66159   1.112   9.612   1.653  0.8271  0.2677  0.3776
  502MOL0     C66160   1.023   9.606   1.540 -0.1573  0.3967 -1.0300
  502MOL0     C66161   0.876   9.571   1.556 -0.4147 -0.0928 -0.0845
  502MOL0     O66162   0.829   9.554   1.689 -0.0034  0.7268 -0.2627
  502MOL0     C66163   0.701   9.520   1.721 -0.1695 -0.4945  0.4983
  502MOL0     C66164   0.672   9.428   1.822  0.2127 -0.2183 -0.0652
  502MOL0     C66165   0.538   9.385   1.840  0.0255 -0.1437  0.2250
  502MOL0     C66166   0.437   9.440   1.761 -0.1051  0.0871  0.2441
  502MOL0     O66167   0.308   9.406   1.796 -0.6391  0.5368 -0.1795
  502MOL0     C66168   0.212   9.506   1.794 -0.3574  0.4456  0.1051
  502MOL0     C66169   0.129   9.475   1.923  0.4981 -0.1712 -0.4626
  502MOL0     C66170   0.034   9.362   1.889  0.6117 -0.6232  0.4774
  502MOL0     C66171  -0.102   9.391   1.944 -0.4683 -0.2348  1.0399
  502MOL0     C66172  -0.214   9.305   1.881 -0.4063  0.9154  0.7611
  502MOL0     C66173  -0.341   9.303   1.965 -1.0017  0.2167 -0.8153
  502MOL0     C66174  -0.321   9.221   2.092 -0.4348  0.3336  0.4641
  502MOL0     C66175  -0.334   9.072   2.063 -1.0204  0.8183  0.0425
  502MOL0    Cl66176  -0.404   8.993   2.213  0.3882 -0.1137  0.0163
  502MOL0     C66177   0.466   9.533   1.655 -0.7689  0.3073 -0.1165
  502MOL0     C66178   0.600   9.584   1.647  0.2213  0.0403  0.4576
  502MOL0     O66179   0.813   9.562   1.450 -0.1201  0.0699 -0.3094
  502MOL0     C66180   1.073   9.627   1.416 -0.7787  0.2517  0.7246
  502MOL0     C66181   1.206   9.659   1.393 -1.3898  0.2876 -0.2487
  502MOL0     N66182   1.767   9.390   1.296 -0.8093  0.3734  0.6685
  502MOL0     N66183   1.883   9.325   1.312  0.0228  0.5861 -0.2542
  502MOL0     C66184   2.922   8.812   1.327 -0.2859 -0.2199 -0.8290
  502MOL0     C66185   3.022   8.780   1.422  0.4980 -0.4749 -0.8435
  502MOL0     C66186   3.403   8.666   1.621  0.4400 -0.8256  0.0902
  502MOL0     C66187   3.433   8.529   1.598 -1.0427 -0.0153  0.3457
  502MOL0     C66188   3.529   8.463   1.674 -0.1182  0.3189 -0.2864
  502MOL0     C66189   3.603   8.541   1.771  0.4220 -0.2589  0.0557
  502MOL0     O66190   3.709   8.480   1.837 -0.6750 -0.3291 -0.2479
  502MOL0     C66191   3.787   8.561   1.934  0.4570 -0.0180 -0.2210
  502MOL0     C66192   3.860   8.459   2.009  0.1776 -0.1255 -0.7940
  502MOL0     C66193   3.982   8.425   1.922  0.6723 -0.5398 -1.1281
  502MOL0     C66194   4.090   8.355   2.005 -0.0202 -0.5763 -0.3770
  502MOL0     C66195   4.204   8.333   1.918  0.2936  0.7630  0.3445
  502MOL0     C66196   4.298   8.312   1.840 -0.1949 -0.6532 -0.4175
  502MOL0     C66197   3.563   8.676   1.796  0.2846  0.1483  1.2016
  502MOL0     C66198   3.461   8.740   1.723 -0.8251  0.1265  0.4402
  502MOL0     H66199   3.269   8.673   1.196  0.5191  1.5744  1.1584
  502MOL0     H66200   3.068   8.723   1.037  0.4983 -0.3897 -0.2021
  502MOL0     H66201   2.765   8.992   1.015  0.3640 -0.8453 -0.8082
  502MOL0     H66202   2.750   8.979   1.192 -1.6777  0.4810 -1.0956
  502MOL0     H66203   2.593   8.769   1.104  1.3908  0.3620  0.2370
  502MOL0     H66204   2.623   8.838   0.950 -0.0877  1.5079  0.3442
  502MOL0     H66205   2.489   8.985   1.186 -2.7163 -0.0269  0.3149
  502MOL0     H66206   2.407   8.879   1.068  0.1206  1.2800 -1.3072
  502MOL0     H66207   2.555   9.123   1.009 -1.0188 -0.5450  2.3999
  502MOL0     H66208   2.466   9.020   0.883 -2.7836  2.2333 -1.6747
  502MOL0     H66209   2.255   9.053   1.004  0.4900 -1.3297 -0.4571
  502MOL0     H66210   2.316   9.207   0.947  0.7513  0.2481  0.5671
  502MOL0     H66211   2.412   9.235   1.185  0.6799 -2.1457 -0.8151
  502MOL0     H66212   2.299   9.109   1.235  0.4853  0.4663  0.5486
  502MOL0     H66213   2.207   9.331   1.273 -1.3271  0.7289  0.0133
  502MOL0     H66214   2.207   9.362   1.096 -1.4099 -0.6259  0.2777
  502MOL0     H66215   2.065   9.140   1.247  1.5284 -0.3119  0.9720
  502MOL0     H66216   2.059   9.158   1.065 -2.3498  2.1440 -1.1720
  502MOL0     H66217   1.863   9.339   0.980  0.5360  3.0485  0.6497
  502MOL0     H66218   1.549   9.409   1.104  0.5570 -0.4090  3.1492
  502MOL0     H66219   1.655   9.494   0.992  1.7452  1.9471  1.2489
  502MOL0     H66220   1.561   9.695   1.090  0.2593  2.8329  1.2298
  502MOL0     H66221   1.700   9.660   1.196 -0.9606  2.1122  0.1132
  502MOL0     H66222   1.422   9.562   1.263 -0.0902 -0.2578 -1.1216
  502MOL0     H66223   1.567   9.554   1.368 -0.6894 -0.6947 -0.3887
  502MOL0     H66224   1.420   9.813   1.303 -1.7712 -0.0224  0.6556
  502MOL0     H66225   1.575   9.806   1.391 -0.0609  1.8979 -1.0106
  502MOL0     H66226   1.305   9.654   1.722  1.8294 -2.3469 -0.7809
  502MOL0     H66227   1.083   9.587   1.754 -0.0041  0.4439  0.1861
  502MOL0     H66228   0.756   9.390   1.880  0.8319 -2.1207 -2.0958
  502MOL0     H66229   0.513   9.316   1.920 -0.7817 -0.9668 -0.7139
  502MOL0     H66230   0.149   9.506   1.704  0.4823 -0.8364 -0.5171
  502MOL0     H66231   0.259   9.604   1.791 -0.4422  0.4742 -0.7679
  502MOL0     H66232   0.077   9.567   1.953 -2.0329 -0.2457 -3.9038
  502MOL0     H66233   0.202   9.444   1.997  1.1783 -0.0353 -1.0674
  502MOL0     H66234   0.075   9.273   1.936  2.2770  0.2850  0.7987
  502MOL0     H66235   0.024   9.342   1.782 -1.1375 -0.0331  0.4873
  502MOL0     H66236  -0.106   9.384   2.053 -0.8540  1.2139  1.1292
  502MOL0     H66237  -0.124   9.494   1.916 -0.9573 -0.5794  0.0653
  502MOL0     H66238  -0.174   9.205   1.861  2.8175  2.0768  0.8305
  502MOL0     H66239  -0.238   9.354   1.787 -0.5700  1.5699  1.1378
  502MOL0     H66240  -0.433   9.269   1.917 -0.9577 -1.5455  0.2510
  502MOL0     H66241  -0.350   9.409   1.988  1.3365  0.0473  1.4404
  502MOL0     H66242  -0.221   9.246   2.127 -0.1134  1.2189 -0.9815
  502MOL0     H66243  -0.398   9.246   2.166  0.2859  0.6194  1.1208
  502MOL0     H66244  -0.232   9.034   2.048 -1.2628  0.9683 -2.3216
  502MOL0     H66245  -0.395   9.049   1.975 -1.8394  1.8737  0.3152
  502MOL0     H66246   0.396   9.566   1.579 -0.5019  1.8989  0.2909
  502MOL0     H66247   0.633   9.653   1.569 -0.2685  0.5687  0.7057
  502MOL0     H66248   1.017   9.611   1.325 -0.0972  0.7318  0.2118
  502MOL0     H66249   1.238   9.674   1.291 -0.4211 -0.5641 -0.0879
  502MOL0     H66250   2.833   8.841   1.383  1.3950 -0.4085  2.1411
  502MOL0     H66251   3.011   8.775   1.530 -0.5407 -2.3908 -0.9891
  502MOL0     H66252   3.397   8.481   1.507  2.6691 -0.3456 -1.1240
  502MOL0     H66253   3.567   8.368   1.638 -1.5370  0.1710 -1.5009
  502MOL0     H66254   3.719   8.612   2.003 -0.5065 -1.3542 -0.1503
  502MOL0     H66255   3.850   8.637   1.886  3.2685 -1.5561  0.8111
  502MOL0     H66256   3.891   8.516   2.098  0.9605  2.2171 -2.4620
  502MOL0     H66257   3.803   8.369   2.032  2.3229 -1.2536  0.3779
  502MOL0     H66258   4.025   8.515   1.877 -0.4163 -0.3670 -1.8824
  502MOL0     H66259   3.946   8.350   1.851 -2.0414 -0.3674 -0.0875
  502MOL0     H66260   4.106   8.408   2.100 -3.0427 -1.9794  1.0411
  502MOL0     H66261   4.047   8.261   2.040 -3.4786  0.3033 -1.8689
  502MOL0     H66262   4.380   8.298   1.773 -1.5919  3.3533 -3.4190
  502MOL0     H66263   3.618   8.743   1.862 -0.9453  3.3523 -0.8129
  502MOL0     H66264   3.445   8.846   1.738 -2.8008 -0.1623  0.6557
  503MOL0     O66265   2.623   7.229   3.439 -0.0539 -0.3757 -0.1974
  503MOL0     C66266   2.678   7.327   3.380 -0.1566 -0.1674  0.0056
  503MOL0     O66267   2.611   7.426   3.312 -0.3728  0.1998 -1.0831
  503MOL0     C66268   2.475   7.429   3.316 -0.3423  0.6202  1.2264
  503MOL0     C66269   2.396   7.400   3.425 -0.4208  0.3389 -0.1445
  503MOL0     C66270   2.258   7.423   3.419  0.2224  0.4746 -0.0367
  503MOL0     C66271   2.196   7.489   3.312 -0.2602  1.1112 -0.0976
  503MOL0     O66272   2.056   7.506   3.306  0.1863 -0.5154 -0.1031
  503MOL0     C66273   2.000   7.627   3.247  0.1559  0.9226  0.0533
  503MOL0     C66274   1.917   7.612   3.116  0.0499  0.8946 -1.0956
  503MOL0     C66275   1.785   7.537   3.140  0.8729 -0.0921 -0.7705
  503MOL0     C66276   1.697   7.610   3.242 -0.2146  0.5312  0.2113
  503MOL0     C66277   1.562   7.542   3.243 -0.3919  0.3849  0.3137
  503MOL0     C66278   1.469   7.597   3.356  0.0866  0.8270  0.8293
  503MOL0     C66279   1.330   7.545   3.357  0.9888 -1.0274 -0.6395
  503MOL0     C66280   1.237   7.643   3.278  0.4709 -0.4080  0.5426
  503MOL0     N66281   1.105   7.587   3.273  0.4369 -0.1090 -0.0848
  503MOL0     C66282   1.059   7.452   3.248  0.1712 -0.3237  0.3573
  503MOL0     C66283   0.929   7.458   3.230  0.4819 -0.8397 -0.0133
  503MOL0     C66284   0.835   7.360   3.165  0.7437 -0.0768  0.3640
  503MOL0     C66285   0.882   7.214   3.164  0.5145 -0.1735 -0.2203
  503MOL0     C66286   0.761   7.123   3.150  1.2607 -0.1444  0.0379
  503MOL0     C66287   0.677   7.145   3.025 -0.1388  0.0394 -0.3572
  503MOL0     O66288   0.578   7.049   3.014  0.1200 -0.6853  0.8904
  503MOL0     C66289   0.467   7.048   3.086 -0.2793 -0.9046 -0.2732
  503MOL0     C66290   0.381   6.938   3.085  0.1642 -0.2814  0.0995
  503MOL0     C66291   0.247   6.939   3.122 -0.4024 -0.2809 -1.1533
  503MOL0     C66292   0.199   7.060   3.185  0.5399 -0.9354  1.0179
  503MOL0     C66293   0.061   7.060   3.230 -0.7389 -0.5843 -0.6680
  503MOL0     O66294  -0.012   6.938   3.205  0.2710  0.0199  0.2668
  503MOL0     C66295  -0.135   6.906   3.253  0.3645  0.4412 -0.0973
  503MOL0     C66296  -0.227   6.981   3.329 -0.1328  0.0374  0.6325
  503MOL0     C66297  -0.360   6.943   3.337  0.5620 -0.1003 -0.0638
  503MOL0     C66298  -0.412   6.823   3.280 -0.5984  0.2313 -0.7883
  503MOL0     O66299  -0.538   6.769   3.285 -0.1679 -0.3455  0.4095
  503MOL0     C66300  -0.639   6.845   3.355 -0.1475  0.2546 -0.2767
  503MOL0     C66301  -0.771   6.774   3.352 -0.0450 -0.0662  0.2435
  503MOL0     C66302  -0.885   6.832   3.438 -0.2583 -0.0280  0.6241
  503MOL0     C66303  -0.968   6.714   3.501  0.4872  0.1457 -0.8710
  503MOL0     C66304  -1.105   6.756   3.554 -0.6658  0.3698  0.2507
  503MOL0     C66305  -1.192   6.637   3.604  0.0466  0.1773 -0.4401
  503MOL0     C66306  -1.335   6.686   3.635 -0.3773 -0.4616  0.4179
  503MOL0     C66307  -1.436   6.576   3.690 -0.5746 -0.8973 -0.0594
  503MOL0    Cl66308  -1.594   6.658   3.708  0.2775 -0.0339  0.3672
  503MOL0     C66309  -0.315   6.736   3.231  0.0276  0.4891 -0.2593
  503MOL0     C66310  -0.183   6.784   3.214  0.8981  0.0692  0.3222
  503MOL0     O66311   0.012   7.162   3.284  0.1184  0.6656  0.3102
  503MOL0     C66312   0.282   7.172   3.189  0.2048 -0.3228  0.2471
  503MOL0     C66313   0.418   7.174   3.143  0.4576  0.4461  0.5301
  503MOL0     N66314   0.886   7.584   3.257 -0.2074 -0.2707 -0.8810
  503MOL0     N66315   0.992   7.657   3.286  0.3205  0.3353 -0.0630
  503MOL0     C66316   2.282   7.527   3.208 -0.3120  0.2947 -0.5675
  503MOL0     C66317   2.421   7.491   3.204  0.0963  0.1044  0.1817
  503MOL0     C66318   2.827   7.332   3.390 -0.0785  0.3033 -0.4591
  503MOL0     C66319   2.903   7.235   3.461  0.0310  0.5543  0.3582
  503MOL0     C66320   3.047   7.236   3.458  0.1520  0.3029  1.0567
  503MOL0     C66321   3.109   7.337   3.377  0.3117  0.3570  0.8872
  503MOL0     O66322   3.242   7.358   3.366 -0.2501 -0.2219  0.2436
  503MOL0     C66323   3.333   7.254   3.415 -0.8345  0.7614  0.3653
  503MOL0     C66324   3.383   7.283   3.558 -0.0751 -0.6243 -0.0923
  503MOL0     C66325   3.445   7.415   3.577 -0.4562 -0.5667 -0.3273
  503MOL0     C66326   3.374   7.501   3.683 -0.0930  0.3983  0.5847
  503MOL0     C66327   3.464   7.612   3.702 -0.8243  0.0696 -0.2192
  503MOL0     C66328   3.557   7.698   3.707  0.7617 -1.0558  0.3928
  503MOL0     C66329   3.035   7.435   3.307 -0.1419 -0.2857 -0.3700
  503MOL0     C66330   2.895   7.435   3.317 -0.6663  0.8319  0.2761
  503MOL0     H66331   2.441   7.361   3.516  1.0194 -0.5765 -1.2025
  503MOL0     H66332   2.186   7.388   3.492  0.1606  1.3810  0.3505
  503MOL0     H66333   2.082   7.695   3.222 -1.4581  2.8640 -0.3032
  503MOL0     H66334   1.940   7.683   3.320  1.8899 -0.3116  2.5908
  503MOL0     H66335   1.985   7.564   3.046  0.6313  1.3204 -0.8289
  503MOL0     H66336   1.885   7.709   3.079  1.4535  1.6456 -0.4328
  503MOL0     H66337   1.808   7.434   3.170  2.0888  0.2878 -0.3106
  503MOL0     H66338   1.732   7.540   3.044  0.1611  0.1722 -0.3739
  503MOL0     H66339   1.729   7.596   3.346 -0.1292 -0.9892  0.0012
  503MOL0     H66340   1.683   7.711   3.202 -0.4576  0.7639  0.8636
  503MOL0     H66341   1.575   7.434   3.252 -1.3131  0.2865  0.5852
  503MOL0     H66342   1.517   7.570   3.147 -1.3758 -0.7605  0.4210
  503MOL0     H66343   1.471   7.707   3.362  0.2978  0.7595  3.1400
  503MOL0     H66344   1.519   7.572   3.450  0.5467  0.9805  0.6291
  503MOL0     H66345   1.314   7.441   3.327 -2.6208 -1.2540  1.4572
  503MOL0     H66346   1.295   7.550   3.460  1.1948  3.3832 -0.5955
  503MOL0     H66347   1.280   7.642   3.177  2.8074  0.1581  1.4649
  503MOL0     H66348   1.239   7.745   3.318  1.8192  0.1595 -0.8533
  503MOL0     H66349   1.115   7.366   3.211 -2.0741 -1.2757 -1.0263
  503MOL0     H66350   0.814   7.407   3.068  0.1350 -2.4979 -0.7408
  503MOL0     H66351   0.738   7.358   3.215  0.4332 -1.5665 -0.2282
  503MOL0     H66352   0.923   7.188   3.262 -1.6506 -0.0406  0.7905
  503MOL0     H66353   0.955   7.188   3.087  2.6584  0.0767  1.6333
  503MOL0     H66354   0.799   7.021   3.150 -3.0944 -2.0307  0.8763
  503MOL0     H66355   0.691   7.128   3.234 -1.0542 -0.8702 -1.7097
  503MOL0     H66356   0.752   7.134   2.946 -0.5895  0.5120 -0.8537
  503MOL0     H66357   0.654   7.246   2.989  1.4939  0.3060 -0.7835
  503MOL0     H66358   0.408   6.848   3.030  0.4088 -0.2703  0.2004
  503MOL0     H66359   0.190   6.847   3.115 -1.0366  0.2252 -3.3389
  503MOL0     H66360  -0.191   7.076   3.368  1.1807 -1.7245  4.2037
  503MOL0     H66361  -0.426   7.006   3.396  0.1738 -2.7169  2.5592
  503MOL0     H66362  -0.646   6.944   3.310 -2.5630  0.4055  0.3106
  503MOL0     H66363  -0.613   6.846   3.461  1.3011 -1.7933 -0.5536
  503MOL0     H66364  -0.745   6.672   3.379  0.7832 -0.5471 -2.0977
  503MOL0     H66365  -0.819   6.769   3.254  0.5614 -0.3120 -0.0463
  503MOL0     H66366  -0.955   6.896   3.383 -0.0864  0.5178  1.0220
  503MOL0     H66367  -0.842   6.888   3.522 -0.6234  0.7582  0.3010
  503MOL0     H66368  -0.976   6.644   3.417 -0.9278 -2.2838  1.1411
  503MOL0     H66369  -0.914   6.661   3.580 -2.6685 -0.4004  1.1051
  503MOL0     H66370  -1.155   6.785   3.461  1.4446 -3.0131 -2.1681
  503MOL0     H66371  -1.096   6.846   3.615  0.7040 -0.2563  1.0341
  503MOL0     H66372  -1.147   6.583   3.688 -0.7880 -3.1160 -1.9552
  503MOL0     H66373  -1.201   6.568   3.520  2.1680  1.0530 -1.4766
  503MOL0     H66374  -1.322   6.771   3.702  4.5738 -0.0911 -0.6477
  503MOL0     H66375  -1.381   6.733   3.548 -1.7451  0.7642  1.7469
  503MOL0     H66376  -1.398   6.544   3.787  2.2299 -1.6337 -1.3007
  503MOL0     H66377  -1.436   6.488   3.625  0.3818 -0.3830 -0.7798
  503MOL0     H66378  -0.357   6.640   3.202  1.3588 -0.1599 -0.0848
  503MOL0     H66379  -0.113   6.719   3.162  0.0109  1.0633 -2.2744
  503MOL0     H66380   0.249   7.266   3.233 -4.8377 -2.6108  2.1645
  503MOL0     H66381   0.477   7.265   3.135 -0.0874  0.7594 -0.0394
  503MOL0     H66382   2.245   7.576   3.119  1.6939  1.1280 -1.0083
  503MOL0     H66383   2.472   7.517   3.112  0.0057 -1.2620 -0.2817
  503MOL0     H66384   2.848   7.160   3.517 -0.2980 -0.9110 -1.8076
  503MOL0     H66385   3.105   7.155   3.500  0.2882 -0.3594 -0.3483
  503MOL0     H66386   3.415   7.241   3.344  0.1658 -0.8199  1.7527
  503MOL0     H66387   3.281   7.158   3.419 -3.6194  2.1573  0.2316
  503MOL0     H66388   3.305   7.255   3.629  0.4902  0.2071  0.8912
  503MOL0     H66389   3.470   7.219   3.573  1.2174  0.6095 -1.9273
  503MOL0     H66390   3.451   7.461   3.478  0.9323  1.8700  0.8086
  503MOL0     H66391   3.550   7.401   3.605 -0.5292  0.3084  0.4418
  503MOL0     H66392   3.279   7.535   3.641  0.0100 -0.6462 -0.5494
  503MOL0     H66393   3.364   7.452   3.780  0.5740 -0.1352  0.3889
  503MOL0     H66394   3.630   7.776   3.715  1.3341 -1.3872 -1.2121
  503MOL0     H66395   3.083   7.507   3.242 -1.1837  0.4772 -0.3052
  503MOL0     H66396   2.840   7.510   3.262 -3.0141 -2.7496 -2.7876
  504MOL0     O66397   7.173   7.185   0.818  0.0042 -0.1349 -0.4216
  504MOL0     C66398   7.199   7.258   0.909 -0.7981  0.1293  0.5968
  504MOL0     O66399   7.108   7.331   0.978  0.1455 -0.2265 -0.3797
  504MOL0     C66400   6.975   7.347   0.950 -0.6966 -0.4575  0.8029
  504MOL0     C66401   6.933   7.475   0.958 -0.2370 -0.6065  0.0338
  504MOL0     C66402   6.812   7.516   0.915  0.0483 -0.2995 -0.0998
  504MOL0     C66403   6.723   7.420   0.858 -0.1411  0.4154  0.6690
  504MOL0     O66404   6.598   7.453   0.808  0.1265 -0.5053  0.6854
  504MOL0     C66405   6.493   7.432   0.896 -0.3044  0.2195 -0.6064
  504MOL0     C66406   6.391   7.357   0.824 -0.5988  0.3976 -0.4065
  504MOL0     C66407   6.272   7.334   0.926 -0.8245  0.0366  0.4300
  504MOL0     C66408   6.172   7.234   0.867  0.5860  0.5627  0.3093
  504MOL0     C66409   6.045   7.219   0.944 -0.1831  0.0637 -0.6889
  504MOL0     C66410   5.962   7.092   0.906  0.1013 -0.5219 -0.3875
  504MOL0     C66411   5.826   7.084   0.970  0.8451 -0.0048 -0.2175
  504MOL0     C66412   5.723   6.990   0.899  0.5442 -1.5653 -0.9242
  504MOL0     N66413   5.600   6.995   0.981 -0.3574  0.1786  0.1256
  504MOL0     C66414   5.504   7.092   0.975 -0.1520  0.0852 -0.0586
  504MOL0     C66415   5.392   7.038   1.011  0.4056 -0.1363  0.1674
  504MOL0     C66416   5.251   7.092   1.015 -0.4458  0.1994 -0.2500
  504MOL0     C66417   5.144   6.988   1.055 -0.0815 -0.6570  0.1536
  504MOL0     C66418   5.006   7.053   1.036  0.6489 -0.1651 -0.1804
  504MOL0     C66419   4.901   6.957   1.102 -0.3590 -0.3691  0.0353
  504MOL0     O66420   4.893   6.831   1.040 -0.2515 -1.0745  0.0467
  504MOL0     C66421   4.768   6.787   1.000  0.8294 -0.2839  0.3333
  504MOL0     C66422   4.640   6.830   1.041 -0.3792 -1.1461  0.4879
  504MOL0     C66423   4.526   6.779   0.989  0.0133  0.2520  0.1282
  504MOL0     C66424   4.520   6.679   0.893 -0.4236  0.1874  0.7268
  504MOL0     C66425   4.391   6.619   0.857 -0.5377  0.1407  0.1166
  504MOL0     O66426   4.396   6.513   0.762 -0.8960 -0.6147 -0.3423
  504MOL0     C66427   4.278   6.450   0.720 -0.1905  0.3319 -0.5216
  504MOL0     C66428   4.178   6.532   0.665 -0.3532 -0.0174  0.7703
  504MOL0     C66429   4.060   6.463   0.635  0.5322 -0.2372 -0.5085
  504MOL0     C66430   4.043   6.324   0.647 -0.3937 -0.0804 -0.3544
  504MOL0     O66431   3.922   6.274   0.611 -0.7021  0.4700  0.1478
  504MOL0     C66432   3.876   6.149   0.661  0.5428 -0.9419  0.1597
  504MOL0     C66433   3.726   6.130   0.630  0.4385  0.0661  0.3490
  504MOL0     C66434   3.686   5.988   0.688  0.0167 -0.3816  0.3776
  504MOL0     C66435   3.537   5.954   0.655  0.1571 -0.9762  0.6863
  504MOL0     C66436   3.488   5.806   0.691  0.2396  0.1949  0.7657
  504MOL0     C66437   3.365   5.779   0.603 -0.7237  0.3206 -0.0579
  504MOL0     C66438   3.286   5.662   0.645  0.7783 -0.6272 -0.4857
  504MOL0     C66439   3.366   5.537   0.605 -0.1621  0.2874 -0.0289
  504MOL0    Cl66440   3.297   5.391   0.678 -0.4383  0.5106  0.1042
  504MOL0     C66441   4.145   6.246   0.708  0.0567 -0.3245 -0.2023
  504MOL0     C66442   4.256   6.311   0.744 -0.2662  0.1078  0.0681
  504MOL0     O66443   4.287   6.667   0.915 -1.0503 -0.5495 -0.5973
  504MOL0     C66444   4.644   6.629   0.850 -0.3713 -0.5648 -0.5320
  504MOL0     C66445   4.769   6.688   0.897 -0.4018  0.5093 -0.0437
  504MOL0     N66446   5.415   6.898   1.030  0.5165  0.2642 -0.4315
  504MOL0     N66447   5.537   6.870   1.006  0.0842 -0.3382 -0.9686
  504MOL0     C66448   6.761   7.285   0.862  0.0435 -0.3278  0.2615
  504MOL0     C66449   6.890   7.248   0.896  0.5869 -0.3620 -0.1645
  504MOL0     C66450   7.339   7.256   0.958  0.7685 -0.0587 -0.9921
  504MOL0     C66451   7.391   7.355   1.048 -0.0134  0.6027  0.5300
  504MOL0     C66452   7.527   7.348   1.085  0.0249 -0.6089 -0.1699
  504MOL0     C66453   7.611   7.254   1.025 -0.8943 -1.0696 -0.1804
  504MOL0     O66454   7.746   7.244   1.044 -0.6473  0.0045 -0.2367
  504MOL0     C66455   7.804   7.328   1.149 -0.7946  0.7871  0.7890
  504MOL0     C66456   7.952   7.305   1.160  0.0166  0.0887 -0.5903
  504MOL0     C66457   8.021   7.352   1.288  0.2637 -0.3007 -0.2437
  504MOL0     C66458   8.170   7.363   1.272 -0.5775 -0.2554  0.6318
  504MOL0     C66459   8.230   7.385   1.401 -0.2049  0.6748 -0.4080
  504MOL0     C66460   8.282   7.400   1.513  0.2367  0.3955 -0.4834
  504MOL0     C66461   7.567   7.165   0.927 -0.4033 -0.0452  0.4557
  504MOL0     C66462   7.429   7.162   0.899 -0.7149  0.1832 -0.7802
  504MOL0     H66463   7.007   7.549   0.989  0.4858 -1.3793  0.2196
  504MOL0     H66464   6.790   7.622   0.917  3.1839  0.4455 -0.6065
  504MOL0     H66465   6.460   7.534   0.921  1.0553  0.7398 -0.8220
  504MOL0     H66466   6.528   7.386   0.989 -0.4230  1.8224  0.2656
  504MOL0     H66467   6.423   7.257   0.793 -1.4160  0.5341 -1.8123
  504MOL0     H66468   6.368   7.416   0.734  1.9457  0.0352 -1.3776
  504MOL0     H66469   6.229   7.432   0.949 -2.5870 -0.7125  0.5285
  504MOL0     H66470   6.312   7.285   1.015  0.8164 -1.6512 -1.1487
  504MOL0     H66471   6.159   7.252   0.760  2.1416  0.2672  0.0469
  504MOL0     H66472   6.219   7.135   0.865 -0.0699  0.2414 -2.3393
  504MOL0     H66473   5.995   7.316   0.932 -1.1314 -0.5705 -2.2942
  504MOL0     H66474   6.076   7.217   1.048  0.4780 -2.2448 -0.8830
  504MOL0     H66475   6.009   6.997   0.933 -1.5804 -0.5658  2.8184
  504MOL0     H66476   5.952   7.091   0.797  1.9690 -0.3760 -0.6045
  504MOL0     H66477   5.847   7.043   1.070  2.3518  2.1526  0.4224
  504MOL0     H66478   5.796   7.188   0.981 -1.0485 -0.4399 -0.9691
  504MOL0     H66479   5.767   6.890   0.896  2.1058 -0.9541  0.3039
  504MOL0     H66480   5.710   7.027   0.796  0.6938  2.4548  0.2980
  504MOL0     H66481   5.517   7.196   0.943  1.2103 -0.6153 -2.0028
  504MOL0     H66482   5.229   7.124   0.912  1.9951  0.0836 -0.8753
  504MOL0     H66483   5.240   7.188   1.066  0.8820  0.9891 -1.3696
  504MOL0     H66484   5.144   6.967   1.163  1.1688  1.3569  0.5982
  504MOL0     H66485   5.157   6.897   0.996 -0.8789  0.3899 -1.7255
  504MOL0     H66486   5.001   7.157   1.069  0.2217  0.1578 -1.2079
  504MOL0     H66487   4.994   7.051   0.927  1.4461 -1.2449 -0.2676
  504MOL0     H66488   4.806   7.011   1.104  0.5502  1.2567  0.8322
  504MOL0     H66489   4.935   6.927   1.202 -0.8037 -0.4206  0.1722
  504MOL0     H66490   4.632   6.905   1.119  0.5050  1.1333 -1.4855
  504MOL0     H66491   4.432   6.821   1.024 -0.4515 -0.7154  0.0814
  504MOL0     H66492   4.191   6.639   0.655 -0.1953 -0.1463 -0.5704
  504MOL0     H66493   3.973   6.508   0.587  1.2457  1.0112 -0.6711
  504MOL0     H66494   3.896   6.159   0.768 -0.9613  0.0139  0.3787
  504MOL0     H66495   3.932   6.063   0.624  3.7294  0.9213  0.2571
  504MOL0     H66496   3.711   6.135   0.522  0.6812 -1.9433  0.1679
  504MOL0     H66497   3.659   6.204   0.676 -1.1965 -0.5168 -0.9832
  504MOL0     H66498   3.700   5.968   0.795 -2.8230 -3.3779  0.3490
  504MOL0     H66499   3.744   5.921   0.625 -0.6098 -0.8176  0.2505
  504MOL0     H66500   3.470   6.030   0.697 -1.3610 -2.2583  0.6907
  504MOL0     H66501   3.533   5.957   0.546  1.0323 -1.0265  0.6455
  504MOL0     H66502   3.467   5.800   0.798  0.6721  2.2259  1.0041
  504MOL0     H66503   3.565   5.733   0.666 -0.3453 -0.4017  0.6677
  504MOL0     H66504   3.399   5.775   0.499  0.1776  3.6012 -0.0160
  504MOL0     H66505   3.300   5.864   0.626 -2.1261 -1.5462  3.6936
  504MOL0     H66506   3.264   5.659   0.752 -2.1038  1.7873 -0.8930
  504MOL0     H66507   3.189   5.663   0.594  1.7485  0.7557 -2.4237
  504MOL0     H66508   3.466   5.528   0.650 -0.5054  2.1728  1.2141
  504MOL0     H66509   3.379   5.523   0.497  0.5939 -4.3367  0.4609
  504MOL0     H66510   4.129   6.140   0.719  1.4972 -0.5721 -0.2887
  504MOL0     H66511   4.340   6.258   0.788  1.1900  0.9005 -1.6364
  504MOL0     H66512   4.641   6.559   0.767 -3.1618  0.6252 -1.5722
  504MOL0     H66513   4.869   6.675   0.857 -0.8753 -0.7100 -0.8978
  504MOL0     H66514   6.693   7.212   0.818 -1.7528  1.1459  0.4496
  504MOL0     H66515   6.918   7.146   0.871 -0.0059  0.2075 -3.5732
  504MOL0     H66516   7.338   7.439   1.091 -1.6038  0.9008 -1.8047
  504MOL0     H66517   7.561   7.409   1.169 -0.6624  2.2810 -1.8523
  504MOL0     H66518   7.751   7.314   1.244  0.2159 -0.6581  1.1743
  504MOL0     H66519   7.778   7.433   1.136 -2.2578  0.4200  0.5029
  504MOL0     H66520   7.970   7.197   1.167  2.6546  0.4272 -1.2255
  504MOL0     H66521   8.006   7.342   1.072  2.0191 -1.1879  0.0233
  504MOL0     H66522   8.004   7.280   1.368  0.0378  0.2356  0.1914
  504MOL0     H66523   7.980   7.445   1.328  2.6992 -0.0395  1.9210
  504MOL0     H66524   8.208   7.265   1.242  0.5482  0.3187  0.0981
  504MOL0     H66525   8.196   7.446   1.205  0.7636  1.5694  3.2330
  504MOL0     H66526   8.314   7.401   1.615 -0.3707 -4.7323  0.0183
  504MOL0     H66527   7.643   7.107   0.877  1.3054 -0.1717  3.0188
  504MOL0     H66528   7.386   7.096   0.825 -3.6762 -1.4989  2.1845
  505MOL0     O66529   8.080   4.906   6.701  0.7595 -0.2297  0.0390
  505MOL0     C66530   8.120   4.842   6.603  0.4485  1.0250 -0.3798
  505MOL0     O66531   8.040   4.792   6.506  0.3230 -0.3235  0.3928
  505MOL0     C66532   7.906   4.808   6.514 -0.6810  0.3169  0.2141
  505MOL0     C66533   7.838   4.889   6.422 -0.9271 -1.5202  0.1115
  505MOL0     C66534   7.697   4.889   6.423  0.4850 -0.6046  0.3977
  505MOL0     C66535   7.631   4.805   6.514  0.0631  0.8675  0.4247
  505MOL0     O66536   7.496   4.778   6.516  0.1002 -0.9398  0.3585
  505MOL0     C66537   7.407   4.898   6.500 -0.4213  0.9434  0.1302
  505MOL0     C66538   7.263   4.859   6.536  0.4421 -0.5346 -0.1512
  505MOL0     C66539   7.154   4.968   6.515  0.2421  0.3418 -0.0823
  505MOL0     C66540   7.015   4.912   6.559 -0.2596  0.8571  0.3740
  505MOL0     C66541   6.903   5.015   6.533 -0.2492 -0.2201 -0.0856
  505MOL0     C66542   6.774   4.973   6.598 -0.1832  0.1876  0.6009
  505MOL0     C66543   6.660   4.955   6.495 -0.4979  0.1130  0.3250
  505MOL0     C66544   6.590   5.081   6.447  0.3777 -0.4529  0.4531
  505MOL0     N66545   6.533   5.063   6.311  0.0222 -0.3701 -1.1745
  505MOL0     C66546   6.611   5.070   6.194 -0.5371  0.5069 -0.2224
  505MOL0     C66547   6.520   5.050   6.094 -0.5998 -0.4296  0.1281
  505MOL0     C66548   6.539   5.066   5.945  0.9108  0.3996 -0.4897
  505MOL0     C66549   6.423   5.144   5.872 -0.1261 -0.5689  0.2476
  505MOL0     C66550   6.306   5.046   5.835 -0.5283  0.0582  0.6706
  505MOL0     C66551   6.181   5.134   5.821 -0.6301  0.2317 -0.9650
  505MOL0     O66552   6.194   5.260   5.739 -0.5551  0.0422  0.0199
  505MOL0     C66553   6.083   5.333   5.723  1.4934 -0.3798 -0.7362
  505MOL0     C66554   6.090   5.457   5.656  0.9249 -1.0048 -0.5093
  505MOL0     C66555   5.966   5.518   5.609  0.7426 -0.8112  0.2236
  505MOL0     C66556   5.841   5.468   5.656  0.4970  0.7046 -0.1554
  505MOL0     C66557   5.715   5.541   5.636 -0.3424  0.2941  0.2053
  505MOL0     O66558   5.597   5.479   5.673 -0.3441  0.5238  0.0242
  505MOL0     C66559   5.481   5.524   5.630  0.3635 -0.8189 -0.1995
  505MOL0     C66560   5.388   5.566   5.726  0.0121  0.2794  0.2043
  505MOL0     C66561   5.267   5.618   5.690  0.0052 -0.0314 -0.7554
  505MOL0     C66562   5.239   5.643   5.559  0.8220  0.1116 -0.1968
  505MOL0     O66563   5.124   5.716   5.533 -0.2446  0.3289 -0.0123
  505MOL0     C66564   5.003   5.645   5.551  0.3547  0.5248  0.6159
  505MOL0     C66565   4.873   5.725   5.540  0.2470  0.5562 -0.2296
  505MOL0     C66566   4.744   5.630   5.558  0.0821 -0.4494  0.2383
  505MOL0     C66567   4.656   5.676   5.685 -0.2074 -0.1893 -0.0338
  505MOL0     C66568   4.534   5.575   5.697 -0.0139  0.0652 -0.3040
  505MOL0     C66569   4.420   5.636   5.614 -0.6763  0.4938  0.2242
  505MOL0     C66570   4.290   5.536   5.616  0.2466 -0.3992  0.1160
  505MOL0     C66571   4.243   5.499   5.759  0.0997 -0.0961 -0.6581
  505MOL0    Cl66572   4.093   5.409   5.756 -0.5033 -0.3389  0.6219
  505MOL0     C66573   5.330   5.614   5.458 -0.2382 -0.3320 -0.5595
  505MOL0     C66574   5.454   5.549   5.491 -0.6005  0.6873  0.0962
  505MOL0     O66575   5.732   5.649   5.583  0.4074 -0.1163 -0.0331
  505MOL0     C66576   5.839   5.344   5.728 -0.5520  0.5154 -0.6688
  505MOL0     C66577   5.961   5.287   5.763 -0.4377  1.0501  0.1276
  505MOL0     N66578   6.402   5.020   6.149 -0.0111 -0.7584  0.3388
  505MOL0     N66579   6.404   5.042   6.274 -0.2357  0.0056  0.2524
  505MOL0     C66580   7.699   4.729   6.607  0.5747 -0.3215  0.0425
  505MOL0     C66581   7.840   4.738   6.614  0.2431 -0.1948 -0.3488
  505MOL0     C66582   8.262   4.835   6.590  0.3436  0.3079  0.6292
  505MOL0     C66583   8.348   4.869   6.697 -0.8404 -1.5240  0.0448
  505MOL0     C66584   8.492   4.863   6.680 -0.2803 -0.1467  0.0858
  505MOL0     C66585   8.539   4.829   6.554 -0.8280  0.3050  0.5988
  505MOL0     O66586   8.676   4.831   6.529 -0.1647 -0.3043  0.4497
  505MOL0     C66587   8.721   4.829   6.388  0.4742  0.5854 -0.4330
  505MOL0     C66588   8.872   4.854   6.380 -0.0413 -0.0430  0.1294
  505MOL0     C66589   8.912   4.976   6.460  0.1062  0.1518  0.1269
  505MOL0     C66590   8.875   5.104   6.395 -0.6232 -0.7314 -0.5734
  505MOL0     C66591   8.740   5.140   6.430 -0.2689 -0.1512  0.2259
  505MOL0     C66592   8.621   5.140   6.474 -0.2440 -0.0444 -0.5604
  505MOL0     C66593   8.451   4.798   6.450  0.1680  0.1252 -0.0497
  505MOL0     C66594   8.316   4.803   6.464 -0.3114  0.0009 -0.4042
  505MOL0     H66595   7.894   4.934   6.340 -1.8436 -2.4673 -1.0739
  505MOL0     H66596   7.636   4.939   6.348 -1.2932 -1.8642  0.9414
  505MOL0     H66597   7.412   4.931   6.396  1.3370 -1.2405 -0.5549
  505MOL0     H66598   7.438   4.974   6.572 -0.9815  0.3605  1.0128
  505MOL0     H66599   7.256   4.832   6.641 -1.0699  0.1407 -0.0521
  505MOL0     H66600   7.235   4.767   6.484 -1.1530  0.3556 -0.9605
  505MOL0     H66601   7.138   5.012   6.416 -3.0307  0.4646  0.3788
  505MOL0     H66602   7.176   5.053   6.580 -1.5011  0.5269  0.3287
  505MOL0     H66603   6.989   4.824   6.499  0.4380 -0.8257  2.4116
  505MOL0     H66604   7.014   4.886   6.665  0.9551 -4.7575 -0.6841
  505MOL0     H66605   6.895   5.048   6.429  1.3833  1.0758  0.1556
  505MOL0     H66606   6.927   5.110   6.581 -2.3179  1.9658 -2.9633
  505MOL0     H66607   6.739   5.048   6.670  2.0397 -0.1709  2.1501
  505MOL0     H66608   6.785   4.884   6.661 -0.4413  1.9023  3.2500
  505MOL0     H66609   6.696   4.908   6.404  2.4996  0.5351  1.1862
  505MOL0     H66610   6.578   4.889   6.527  0.2673 -1.3214 -0.5898
  505MOL0     H66611   6.659   5.163   6.427 -2.9712  1.9048 -2.8909
  505MOL0     H66612   6.515   5.121   6.515 -0.7813  0.7211 -1.4169
  505MOL0     H66613   6.717   5.092   6.190  0.2182 -1.5627  3.5505
  505MOL0     H66614   6.563   4.969   5.901 -1.3095  0.2592 -1.4945
  505MOL0     H66615   6.626   5.133   5.937  1.5264  0.0357  2.2974
  505MOL0     H66616   6.450   5.193   5.779 -3.6527 -2.0606 -1.7385
  505MOL0     H66617   6.391   5.228   5.934 -0.3771  0.5694 -1.3657
  505MOL0     H66618   6.340   4.986   5.750  1.4756 -2.4190  3.0266
  505MOL0     H66619   6.301   4.980   5.923 -1.4883  0.7059  1.1323
  505MOL0     H66620   6.137   5.160   5.917  0.2641  0.8998 -0.7162
  505MOL0     H66621   6.116   5.071   5.760 -0.6273  1.0250 -1.8089
  505MOL0     H66622   6.189   5.485   5.622  0.8240 -0.3286 -0.2747
  505MOL0     H66623   5.965   5.610   5.550  0.7240 -2.4646 -2.5270
  505MOL0     H66624   5.408   5.551   5.832  4.0890 -1.9479 -0.6608
  505MOL0     H66625   5.203   5.648   5.773  1.0166  1.3657 -0.4450
  505MOL0     H66626   5.001   5.609   5.654  1.5399  1.2741  0.9139
  505MOL0     H66627   5.001   5.568   5.473  2.3765  2.7001 -1.7405
  505MOL0     H66628   4.873   5.770   5.440 -0.6324 -0.0040 -0.4905
  505MOL0     H66629   4.874   5.805   5.615  0.5980  0.6984 -0.3819
  505MOL0     H66630   4.779   5.528   5.579  1.2317  0.1928  1.6596
  505MOL0     H66631   4.687   5.635   5.466 -1.0301 -4.4535  0.5321
  505MOL0     H66632   4.723   5.665   5.771 -0.8041 -1.0521  0.3320
  505MOL0     H66633   4.631   5.783   5.684  1.5621  0.2552  0.3938
  505MOL0     H66634   4.500   5.578   5.801 -2.5773 -2.3314 -0.9761
  505MOL0     H66635   4.565   5.479   5.655 -0.9386  0.1230 -1.1682
  505MOL0     H66636   4.469   5.646   5.517  0.3822  0.9599  0.7853
  505MOL0     H66637   4.394   5.734   5.654  0.5836 -0.6586  4.3717
  505MOL0     H66638   4.208   5.594   5.574  0.6789 -0.2037 -0.4691
  505MOL0     H66639   4.317   5.446   5.561  0.2181 -0.8451  0.8242
  505MOL0     H66640   4.243   5.586   5.825  3.2487 -0.7923  0.4155
  505MOL0     H66641   4.318   5.430   5.799  0.1540 -0.0553 -0.6915
  505MOL0     H66642   5.311   5.646   5.356 -1.7065  0.6773 -0.0071
  505MOL0     H66643   5.526   5.521   5.415 -1.4712  2.4923 -1.4892
  505MOL0     H66644   5.744   5.301   5.758 -0.8130  1.2498 -0.4221
  505MOL0     H66645   5.946   5.183   5.792  1.0251  0.6459 -0.4743
  505MOL0     H66646   7.648   4.668   6.681 -0.0778  0.2743  0.1013
  505MOL0     H66647   7.900   4.678   6.681  0.3280  0.3965  0.1096
  505MOL0     H66648   8.313   4.904   6.794  0.8919 -1.2802  0.6174
  505MOL0     H66649   8.568   4.877   6.756  2.7098 -0.9696 -2.5395
  505MOL0     H66650   8.682   4.908   6.323  0.5312 -0.2120 -1.4582
  505MOL0     H66651   8.704   4.730   6.344  0.4757  0.1971  0.4235
  505MOL0     H66652   8.922   4.770   6.429 -0.0778 -0.9445 -1.3318
  505MOL0     H66653   8.901   4.870   6.276 -0.4436 -3.3959 -0.5958
  505MOL0     H66654   9.021   4.980   6.469  0.1651 -1.7249  0.7429
  505MOL0     H66655   8.885   4.986   6.566  1.6306  2.0764  0.4078
  505MOL0     H66656   8.941   5.182   6.433 -1.2793 -1.1923  1.6308
  505MOL0     H66657   8.885   5.089   6.287  1.2127  1.6424 -0.8118
  505MOL0     H66658   8.524   5.121   6.513  0.7248 -5.2749 -0.0284
  505MOL0     H66659   8.485   4.767   6.352 -0.5401 -0.9473  0.0295
  505MOL0     H66660   8.257   4.775   6.377  0.9781 -0.1656 -1.2549
  506MOL0     O66661  10.576   0.260   1.278  0.0778  0.5311 -0.5905
  506MOL0     C66662  10.639   0.363   1.296 -0.0187  0.3683 -0.0763
  506MOL0     O66663  10.591   0.472   1.355 -0.4458 -0.5100 -0.0828
  506MOL0     C66664  10.482   0.480   1.434  0.0060  0.3501  0.3048
  506MOL0     C66665  10.449   0.611   1.476  0.6622 -0.0237 -0.1528
  506MOL0     C66666  10.346   0.626   1.573 -0.1296  1.0204 -0.0405
  506MOL0     C66667  10.266   0.524   1.622  0.6722  0.8969  0.0607
  506MOL0     O66668  10.163   0.550   1.704 -0.0460  0.3624  0.0011
  506MOL0     C66669  10.054   0.629   1.659 -0.7223 -0.5038  0.2822
  506MOL0     C66670  10.032   0.744   1.754 -0.1427 -0.3552 -0.2377
  506MOL0     C66671   9.925   0.829   1.690  0.2086 -0.3628 -0.7952
  506MOL0     C66672   9.916   0.968   1.770  0.2080  0.2755  0.3963
  506MOL0     C66673   9.798   1.049   1.719 -0.7003  0.5617  0.0017
  506MOL0     C66674   9.807   1.188   1.791 -0.3519  0.4757 -0.5580
  506MOL0     C66675   9.679   1.255   1.758 -0.0849  0.1150  0.0038
  506MOL0     C66676   9.687   1.396   1.811  0.3979  0.9112 -0.4398
  506MOL0     N66677   9.556   1.455   1.809 -0.1292  0.7905  0.6088
  506MOL0     C66678   9.484   1.479   1.705  0.6862  0.1124 -0.1965
  506MOL0     C66679   9.374   1.541   1.743 -0.0464 -0.1236 -0.0683
  506MOL0     C66680   9.254   1.570   1.659  0.2408  0.4376  0.2004
  506MOL0     C66681   9.159   1.671   1.727 -0.2706  0.1448 -0.5121
  506MOL0     C66682   9.053   1.733   1.642  0.1479 -0.3396  0.1100
  506MOL0     C66683   8.934   1.782   1.720  0.9669 -0.7962  0.0683
  506MOL0     O66684   8.849   1.848   1.622 -0.2297  0.3744 -0.2929
  506MOL0     C66685   8.739   1.913   1.669 -0.2936 -0.7263 -0.5075
  506MOL0     C66686   8.713   1.972   1.801 -0.5514 -0.0745 -0.3350
  506MOL0     C66687   8.587   2.018   1.837 -0.6857  0.3026 -0.3438
  506MOL0     C66688   8.483   2.018   1.747  0.6212 -0.9532 -0.5665
  506MOL0     C66689   8.348   2.086   1.781 -0.1378  0.9773  0.1800
  506MOL0     O66690   8.245   2.031   1.712  0.6074 -0.6349  0.2138
  506MOL0     C66691   8.104   2.057   1.739 -0.9505 -0.0048 -0.3211
  506MOL0     C66692   8.057   2.055   1.869 -0.3933  0.7959  0.6090
  506MOL0     C66693   7.927   2.090   1.895 -0.4338 -0.6906 -0.2950
  506MOL0     C66694   7.833   2.111   1.792 -1.3636  0.2195 -0.1132
  506MOL0     O66695   7.704   2.149   1.791 -0.5653 -0.7121 -0.0091
  506MOL0     C66696   7.649   2.190   1.919 -0.3658  0.8201  0.5724
  506MOL0     C66697   7.512   2.244   1.891 -0.0259 -0.4819 -0.2188
  506MOL0     C66698   7.441   2.292   2.021  0.2262 -0.2214 -0.1647
  506MOL0     C66699   7.297   2.333   1.993  0.4453  0.2511  0.4733
  506MOL0     C66700   7.211   2.216   1.972  0.2164 -0.0669 -0.0721
  506MOL0     C66701   7.060   2.243   1.974  0.2897  0.1301  0.2077
  506MOL0     C66702   6.991   2.121   1.901  0.1430 -0.1442 -0.4767
  506MOL0     C66703   6.840   2.146   1.875 -0.0745 -0.3026 -0.5632
  506MOL0    Cl66704   6.745   2.223   2.008  0.0562  0.3989 -0.4863
  506MOL0     C66705   7.882   2.100   1.660 -0.5574  0.4085  0.0241
  506MOL0     C66706   8.017   2.068   1.631  0.0957 -0.3936 -0.2275
  506MOL0     O66707   8.339   2.162   1.871 -0.6901 -0.1010  1.2700
  506MOL0     C66708   8.507   1.975   1.618 -0.5995 -0.3633 -0.1650
  506MOL0     C66709   8.632   1.923   1.578  0.0848  0.0920 -0.8648
  506MOL0     N66710   9.380   1.548   1.885  0.3047 -0.9952  0.3355
  506MOL0     N66711   9.489   1.500   1.921  0.7087 -0.5754  0.4403
  506MOL0     C66712  10.305   0.400   1.581 -0.2120  0.3204 -0.3877
  506MOL0     C66713  10.406   0.370   1.485 -0.1521 -0.0561  0.1843
  506MOL0     C66714  10.773   0.387   1.243 -0.2469 -0.7860 -0.1369
  506MOL0     C66715  10.827   0.318   1.133  0.0074 -1.0907  0.5180
  506MOL0     C66716  10.953   0.354   1.084 -0.1601 -1.2955  0.0941
  506MOL0     C66717  11.032   0.448   1.145 -0.4120  0.2726  0.7196
  506MOL0     O66718  11.163   0.452   1.100  0.3035  0.1951  0.5640
  506MOL0     C66719  11.233   0.571   1.106  0.5078 -0.6265 -0.1090
  506MOL0     C66720  11.339   0.586   0.996 -0.0690 -0.4299 -0.4479
  506MOL0     C66721  11.412   0.459   0.973  0.0214  0.8783  0.4652
  506MOL0     C66722  11.498   0.469   0.844  0.4603 -0.4249  1.0401
  506MOL0     C66723  11.581   0.350   0.830 -0.7021 -0.1419 -0.4373
  506MOL0     C66724  11.638   0.248   0.796 -0.0312  0.4023  0.2429
  506MOL0     C66725  10.989   0.511   1.258  0.0554  0.2078 -0.3936
  506MOL0     C66726  10.862   0.487   1.308 -0.6865  0.8976  0.0571
  506MOL0     H66727  10.501   0.699   1.440  1.9504  0.0463  1.7527
  506MOL0     H66728  10.323   0.728   1.602 -1.4484  0.2388  1.8721
  506MOL0     H66729   9.959   0.576   1.650 -1.3910  0.6442  0.3448
  506MOL0     H66730  10.079   0.681   1.566 -0.9661 -0.0684  0.4587
  506MOL0     H66731  10.122   0.806   1.752 -0.7754  0.6926  1.6114
  506MOL0     H66732  10.016   0.712   1.857  1.5133  0.7307  0.4027
  506MOL0     H66733   9.826   0.785   1.700 -0.9874  2.2999  0.0848
  506MOL0     H66734   9.940   0.852   1.584  0.2097  0.1833 -0.6778
  506MOL0     H66735   9.909   0.950   1.877 -0.4832  2.0341  0.6872
  506MOL0     H66736   9.996   1.039   1.745 -1.9486  2.5203 -0.5358
  506MOL0     H66737   9.707   0.994   1.743 -0.6419 -0.2502 -1.5445
  506MOL0     H66738   9.802   1.077   1.613  1.2794  3.1195  0.6313
  506MOL0     H66739   9.892   1.249   1.760 -1.7718  1.7101 -2.1578
  506MOL0     H66740   9.820   1.180   1.900  0.7627  0.1152 -0.7000
  506MOL0     H66741   9.662   1.263   1.650  2.6849  2.6535 -0.3776
  506MOL0     H66742   9.596   1.216   1.819  0.1512  0.7015  0.7145
  506MOL0     H66743   9.777   1.437   1.764  0.2149  2.3045  0.3813
  506MOL0     H66744   9.724   1.397   1.914  3.1810  0.2956 -1.3453
  506MOL0     H66745   9.517   1.453   1.605  2.2519  1.4672 -0.0859
  506MOL0     H66746   9.206   1.474   1.638  1.5327 -0.1555 -0.1568
  506MOL0     H66747   9.279   1.613   1.561  2.5108 -5.0391 -2.0232
  506MOL0     H66748   9.221   1.754   1.766 -1.3723 -0.0604  1.8560
  506MOL0     H66749   9.108   1.621   1.810  0.8252 -0.1745 -0.0120
  506MOL0     H66750   9.098   1.816   1.587  1.8896 -2.7915 -2.4688
  506MOL0     H66751   9.023   1.658   1.568 -2.7343 -0.6064  1.3800
  506MOL0     H66752   8.960   1.843   1.806  1.4753 -2.3330  1.0476
  506MOL0     H66753   8.869   1.705   1.762 -1.7218  2.5074  2.5206
  506MOL0     H66754   8.786   1.983   1.880  2.1885  0.0888 -2.7022
  506MOL0     H66755   8.573   2.052   1.939 -3.1201  1.1340 -0.8774
  506MOL0     H66756   8.111   2.016   1.955 -0.5293  0.4858  0.5579
  506MOL0     H66757   7.900   2.095   2.000 -0.4126  0.7944 -0.3282
  506MOL0     H66758   7.710   2.261   1.975 -0.3331  1.4459 -0.2481
  506MOL0     H66759   7.640   2.109   1.993  0.2344 -0.1171 -0.3522
  506MOL0     H66760   7.455   2.162   1.847 -0.5780  0.3752 -1.1342
  506MOL0     H66761   7.527   2.319   1.813 -1.1088  0.9619  0.9078
  506MOL0     H66762   7.488   2.389   2.038 -1.6079  1.0471 -1.9167
  506MOL0     H66763   7.458   2.229   2.109  1.4818 -0.2972 -0.4447
  506MOL0     H66764   7.263   2.392   2.078 -1.7613  1.5218 -1.2138
  506MOL0     H66765   7.294   2.404   1.910  0.1385  2.5363  2.3430
  506MOL0     H66766   7.215   2.137   2.048 -0.9108  0.9720  1.1220
  506MOL0     H66767   7.228   2.178   1.871 -0.9287  2.8387 -1.4451
  506MOL0     H66768   7.045   2.333   1.913  1.8997  0.0452 -0.3673
  506MOL0     H66769   7.026   2.268   2.075 -1.7856  0.9577 -0.6350
  506MOL0     H66770   7.035   2.088   1.806 -1.1264 -0.1695 -1.0782
  506MOL0     H66771   6.997   2.034   1.967  1.9479 -0.0021 -0.4062
  506MOL0     H66772   6.791   2.054   1.841  1.8975 -1.5462 -0.2241
  506MOL0     H66773   6.839   2.215   1.790  1.4752  0.7659  0.2404
  506MOL0     H66774   7.812   2.123   1.580 -2.3795  1.1287  1.7459
  506MOL0     H66775   8.053   2.057   1.530  0.4243  0.2691 -0.1869
  506MOL0     H66776   8.423   1.978   1.549 -1.8162 -2.3773  1.1288
  506MOL0     H66777   8.664   1.881   1.483  1.0074 -1.2477  0.0130
  506MOL0     H66778  10.243   0.319   1.616  0.6774 -0.2685 -0.1365
  506MOL0     H66779  10.409   0.266   1.455 -0.1418 -0.6917  2.2851
  506MOL0     H66780  10.773   0.241   1.079  1.0140  0.0053 -2.2512
  506MOL0     H66781  10.989   0.296   0.999 -1.9017  0.6983 -2.1190
  506MOL0     H66782  11.285   0.593   1.200  2.0037  1.3609 -1.3269
  506MOL0     H66783  11.164   0.653   1.087  1.2417  0.4660  1.6986
  506MOL0     H66784  11.286   0.615   0.904 -0.1160  0.6767 -0.0885
  506MOL0     H66785  11.414   0.664   1.013  0.5072 -1.3375  1.4212
  506MOL0     H66786  11.338   0.379   0.960  0.0984  0.5215  2.0502
  506MOL0     H66787  11.473   0.438   1.061  1.3927 -1.4555 -0.9112
  506MOL0     H66788  11.430   0.482   0.759  0.0676  0.2137  1.4437
  506MOL0     H66789  11.559   0.560   0.838  0.2234 -0.2830  0.6956
  506MOL0     H66790  11.693   0.159   0.775  0.6564  0.3222  2.1259
  506MOL0     H66791  11.051   0.576   1.319 -1.0707 -0.5322  1.6397
  506MOL0     H66792  10.822   0.547   1.389 -1.2825  1.5511 -0.7058
  507MOL0     O66793   0.311   8.297   9.381  0.3138 -0.2217  0.4414
  507MOL0     C66794   0.345   8.407   9.433 -0.4391 -0.5900  0.3244
  507MOL0     O66795   0.478   8.438   9.447  0.4076  0.0363  0.2125
  507MOL0     C66796   0.573   8.355   9.394  0.4022  0.6454 -0.3910
  507MOL0     C66797   0.675   8.435   9.345  0.0073  0.0850  0.2282
  507MOL0     C66798   0.780   8.374   9.270 -0.2681  0.3077 -0.4210
  507MOL0     C66799   0.776   8.233   9.246 -0.1052 -0.5589 -1.0377
  507MOL0     O66800   0.871   8.156   9.182 -0.1230 -0.1435  0.3671
  507MOL0     C66801   0.987   8.214   9.121  0.0669  0.2948 -0.0306
  507MOL0     C66802   1.055   8.108   9.030  0.0077  0.5677  0.0332
  507MOL0     C66803   1.162   8.040   9.106 -0.4446  0.4605 -1.0299
  507MOL0     C66804   1.210   7.910   9.028 -0.2916 -0.1620  1.0332
  507MOL0     C66805   1.351   7.863   9.069  0.4431  0.2165 -0.2622
  507MOL0     C66806   1.367   7.706   9.058  0.2607  0.4635  0.2391
  507MOL0     C66807   1.514   7.671   9.063  0.8224  0.4569 -0.5065
  507MOL0     C66808   1.531   7.521   9.059  0.3284 -0.3644  0.7472
  507MOL0     N66809   1.508   7.465   8.922 -0.4687 -0.3008  1.0068
  507MOL0     C66810   1.563   7.508   8.796  0.3567 -0.3336 -0.1910
  507MOL0     C66811   1.521   7.419   8.703  0.4740 -0.4110  0.3378
  507MOL0     C66812   1.537   7.439   8.556  0.1038 -0.9300 -0.2459
  507MOL0     C66813   1.415   7.521   8.510  0.9584 -0.6484 -0.7414
  507MOL0     C66814   1.400   7.520   8.350  0.2891  0.3830  0.0274
  507MOL0     C66815   1.532   7.549   8.282 -0.2518  0.4490 -0.4394
  507MOL0     O66816   1.543   7.696   8.290  0.2808  0.0866  0.4115
  507MOL0     C66817   1.634   7.765   8.209  0.4834 -0.5099 -0.0972
  507MOL0     C66818   1.644   7.903   8.213 -0.3685 -0.3720  0.1546
  507MOL0     C66819   1.727   7.973   8.122 -0.4111 -0.5013 -0.4527
  507MOL0     C66820   1.801   7.901   8.033 -0.5763  1.0475  0.3904
  507MOL0     C66821   1.903   7.966   7.941 -0.5245  0.2948  0.1878
  507MOL0     O66822   2.011   7.886   7.928 -0.1731 -0.3014 -0.4435
  507MOL0     C66823   2.134   7.940   7.896  0.3572  0.1262  0.2534
  507MOL0     C66824   2.176   8.076   7.913 -0.1784 -0.3339 -0.8227
  507MOL0     C66825   2.307   8.113   7.883  0.4877  0.2187  0.3112
  507MOL0     C66826   2.399   8.021   7.834 -0.5199  0.4036 -0.2189
  507MOL0     O66827   2.525   8.071   7.813  0.5223  0.1688 -0.2475
  507MOL0     C66828   2.622   7.988   7.749  0.0693 -0.3905  0.8088
  507MOL0     C66829   2.743   8.065   7.702 -0.1884  0.4588  0.3563
  507MOL0     C66830   2.835   7.973   7.640  0.0641  0.6047  1.2937
  507MOL0     C66831   2.976   8.032   7.623 -0.9484 -0.0754 -0.0630
  507MOL0     C66832   3.057   7.928   7.542 -0.5617  0.2220 -0.5233
  507MOL0     C66833   3.179   7.983   7.469 -0.2212 -0.1744  0.3396
  507MOL0     C66834   3.227   7.899   7.355 -0.6493 -0.3590  0.6271
  507MOL0     C66835   3.287   7.771   7.407 -0.3698  1.1953 -0.2822
  507MOL0    Cl66836   3.413   7.715   7.297  0.0024  0.0361 -0.3507
  507MOL0     C66837   2.354   7.885   7.815  0.5874 -0.2888  1.1577
  507MOL0     C66838   2.227   7.845   7.851 -0.0237 -0.6191 -0.4671
  507MOL0     O66839   1.898   8.089   7.914  0.5180  0.2526  0.2932
  507MOL0     C66840   1.794   7.761   8.021  1.0159  0.6998  0.2062
  507MOL0     C66841   1.719   7.697   8.119 -0.0348  0.1095  0.1577
  507MOL0     N66842   1.446   7.321   8.765 -0.6580 -0.4282 -0.2554
  507MOL0     N66843   1.437   7.350   8.896  0.0000  0.0981  0.3809
  507MOL0     C66844   0.671   8.156   9.305  0.5719 -0.9898 -0.5979
  507MOL0     C66845   0.570   8.217   9.381  0.2708  0.4654 -0.0917
  507MOL0     C66846   0.245   8.514   9.440 -0.2239 -0.5981 -0.1856
  507MOL0     C66847   0.291   8.643   9.472 -0.0366  0.4677  0.4528
  507MOL0     C66848   0.204   8.746   9.495 -0.0115 -0.1469  0.2858
  507MOL0     C66849   0.065   8.724   9.488 -0.2886 -0.2082 -0.0292
  507MOL0     O66850  -0.039   8.821   9.510 -0.3978  0.2324 -0.3869
  507MOL0     C66851   0.006   8.946   9.571  0.2432  0.0972  0.8919
  507MOL0     C66852  -0.121   9.038   9.592  0.2674  0.1203 -0.1690
  507MOL0     C66853  -0.083   9.165   9.678  0.1606  0.3583 -0.1176
  507MOL0     C66854  -0.198   9.236   9.739  0.6322  0.4691  0.1752
  507MOL0     C66855  -0.164   9.366   9.811 -0.3727 -0.4976  0.3637
  507MOL0     C66856  -0.110   9.466   9.858 -0.5812  0.1871 -0.0725
  507MOL0     C66857   0.029   8.598   9.468 -0.5373 -0.1915 -0.4911
  507MOL0     C66858   0.113   8.491   9.443 -0.1119 -0.1129  0.1238
  507MOL0     H66859   0.675   8.542   9.361 -0.8624  0.2039 -0.4719
  507MOL0     H66860   0.859   8.430   9.220  2.3206 -0.7771  2.1816
  507MOL0     H66861   1.052   8.248   9.203  1.9639 -0.1911 -1.2855
  507MOL0     H66862   0.960   8.301   9.061  2.1346 -0.9447 -2.9497
  507MOL0     H66863   1.109   8.158   8.950  0.9454  3.0733  2.1003
  507MOL0     H66864   0.983   8.040   8.982  0.8037 -1.7871  1.9444
  507MOL0     H66865   1.118   7.999   9.197 -2.9238  2.5828 -1.1321
  507MOL0     H66866   1.244   8.107   9.132  0.0849 -0.0850 -1.2832
  507MOL0     H66867   1.148   7.821   9.044 -0.3636  0.1439  2.5654
  507MOL0     H66868   1.213   7.931   8.921  3.3285 -1.4480  0.7513
  507MOL0     H66869   1.380   7.898   9.169  0.8379  0.8876 -0.6105
  507MOL0     H66870   1.423   7.908   9.001 -1.7608 -1.0187 -3.6611
  507MOL0     H66871   1.325   7.676   8.962  3.2074 -1.7088 -0.4753
  507MOL0     H66872   1.299   7.666   9.135 -4.8590  1.4940 -3.2314
  507MOL0     H66873   1.579   7.713   8.986 -0.0472 -1.5609 -2.4720
  507MOL0     H66874   1.550   7.706   9.159 -0.8079 -1.4862  0.9132
  507MOL0     H66875   1.472   7.476   9.139  2.5844 -2.3448  1.4190
  507MOL0     H66876   1.632   7.495   9.090  0.7481  3.4240  3.1851
  507MOL0     H66877   1.617   7.599   8.771 -0.5071  0.4207  0.6409
  507MOL0     H66878   1.552   7.348   8.497  0.5548  0.4300 -2.3350
  507MOL0     H66879   1.620   7.509   8.545 -0.5672 -0.1995 -0.7828
  507MOL0     H66880   1.420   7.624   8.545  2.1735 -1.2230  0.8458
  507MOL0     H66881   1.330   7.474   8.559 -0.9688  0.8807 -2.4254
  507MOL0     H66882   1.373   7.416   8.327  1.5549  0.1568 -0.5160
  507MOL0     H66883   1.323   7.591   8.319 -1.6847 -0.2990  2.8878
  507MOL0     H66884   1.512   7.519   8.179 -1.0672 -0.9570  0.0951
  507MOL0     H66885   1.620   7.494   8.317  0.1775  1.1056 -0.4777
  507MOL0     H66886   1.589   7.947   8.296 -0.1843 -2.0900  1.2396
  507MOL0     H66887   1.727   8.081   8.138  1.3501 -0.1797 -2.1762
  507MOL0     H66888   2.113   8.154   7.951  0.5709  1.1000 -2.3983
  507MOL0     H66889   2.343   8.216   7.880 -3.0006  1.5469 -1.1583
  507MOL0     H66890   2.569   7.961   7.657 -0.5587 -0.5662  1.2181
  507MOL0     H66891   2.649   7.896   7.802  0.0835 -0.3604  0.8543
  507MOL0     H66892   2.797   8.110   7.786  1.9299 -0.7813 -0.2725
  507MOL0     H66893   2.711   8.141   7.629  0.2739  0.3972  0.0865
  507MOL0     H66894   2.786   7.946   7.546  0.4266  2.8189  0.3941
  507MOL0     H66895   2.835   7.875   7.688  3.7971 -0.7497 -1.0186
  507MOL0     H66896   2.977   8.131   7.576  3.1795  0.1412  0.1148
  507MOL0     H66897   3.027   8.047   7.719 -0.5408  0.1824 -0.3137
  507MOL0     H66898   2.992   7.870   7.476 -1.7811 -0.6925  1.3985
  507MOL0     H66899   3.089   7.853   7.614  1.5905  1.2540 -0.3248
  507MOL0     H66900   3.253   8.005   7.546 -1.5126 -1.1446  1.9499
  507MOL0     H66901   3.153   8.075   7.417  3.2209  0.5391 -0.3577
  507MOL0     H66902   3.146   7.881   7.284 -1.5296  1.6454  1.0479
  507MOL0     H66903   3.304   7.955   7.300 -0.4667 -2.5286 -1.4867
  507MOL0     H66904   3.207   7.698   7.420 -0.6051  1.1323 -1.8938
  507MOL0     H66905   3.336   7.788   7.504  2.0698  0.3028 -1.2788
  507MOL0     H66906   2.410   7.806   7.765  0.4833  1.6154 -2.1923
  507MOL0     H66907   2.194   7.742   7.848  1.9202 -1.4164  1.9729
  507MOL0     H66908   1.853   7.698   7.956  1.8582 -2.1800  3.4586
  507MOL0     H66909   1.723   7.588   8.119  0.0516  0.1127 -0.2699
  507MOL0     H66910   0.675   8.049   9.289 -0.9069 -0.5868 -5.3860
  507MOL0     H66911   0.479   8.170   9.418 -2.0001  4.5366  0.0105
  507MOL0     H66912   0.397   8.665   9.482  0.0070  0.3162  0.3398
  507MOL0     H66913   0.246   8.846   9.502 -2.3775  0.9796 -0.6041
  507MOL0     H66914   0.068   8.988   9.491 -1.2746 -1.8576 -1.4491
  507MOL0     H66915   0.066   8.939   9.662  1.3122  0.0246  0.2057
  507MOL0     H66916  -0.167   9.058   9.495 -0.3998  0.4849  0.2149
  507MOL0     H66917  -0.197   8.985   9.650 -2.3471  2.4754 -1.2816
  507MOL0     H66918  -0.013   9.229   9.624  3.2549 -1.1146  1.8907
  507MOL0     H66919  -0.034   9.143   9.773 -0.2066  3.6352  0.9646
  507MOL0     H66920  -0.263   9.256   9.653  1.2123  3.2065  0.2590
  507MOL0     H66921  -0.247   9.167   9.808 -1.1057 -0.5308 -1.9577
  507MOL0     H66922  -0.072   9.548   9.916  0.0865 -1.3915  1.8083
  507MOL0     H66923  -0.079   8.588   9.454 -0.1665 -1.1691 -3.3067
  507MOL0     H66924   0.068   8.393   9.428  1.0035 -1.3408  3.7822
  508MOL0     O66925   2.693   0.648   3.090 -0.2462  0.5309  0.1204
  508MOL0     C66926   2.692   0.593   2.979  0.0925 -0.3244 -0.1328
  508MOL0     O66927   2.616   0.481   2.946 -0.4203  0.5150  0.5600
  508MOL0     C66928   2.529   0.418   3.027  1.1013 -0.2218 -0.2002
  508MOL0     C66929   2.523   0.280   3.025 -0.8303 -0.3879 -0.1128
  508MOL0     C66930   2.421   0.217   3.097  0.2773 -0.1567  0.7582
  508MOL0     C66931   2.319   0.288   3.159 -1.0871 -1.5017 -0.1255
  508MOL0     O66932   2.213   0.221   3.214 -0.6121 -0.1228 -0.0591
  508MOL0     C66933   2.081   0.284   3.235 -0.6841 -0.1157  0.4374
  508MOL0     C66934   1.974   0.178   3.203 -0.8650 -0.2144  0.0878
  508MOL0     C66935   1.834   0.218   3.238  0.4401  0.9573 -0.1787
  508MOL0     C66936   1.747   0.090   3.228 -0.4462 -0.3018  0.0809
  508MOL0     C66937   1.601   0.116   3.236  0.0893 -0.2155  0.2262
  508MOL0     C66938   1.570   0.212   3.344 -0.1838 -0.7878  0.0150
  508MOL0     C66939   1.419   0.217   3.354  0.1073 -0.1459  0.2336
  508MOL0     C66940   1.342   0.280   3.234 -1.0895 -0.7572 -0.2790
  508MOL0     N66941   1.198   0.269   3.242 -0.3796 -0.1112 -0.1390
  508MOL0     C66942   1.127   0.153   3.227  0.4771  0.2735 -0.6466
  508MOL0     C66943   0.997   0.187   3.239  0.1141  0.1826 -0.2286
  508MOL0     C66944   0.873   0.097   3.243 -0.1151  0.1788 -0.4116
  508MOL0     C66945   0.754   0.171   3.169  0.3762 -0.0366 -0.0234
  508MOL0     C66946   0.609   0.115   3.204  0.0598 -0.4711 -0.2830
  508MOL0     C66947   0.514   0.186   3.109  0.2354 -0.4274  0.1396
  508MOL0     O66948   0.371   0.152   3.127 -0.0899  0.0149 -0.0836
  508MOL0     C66949   0.314   0.201   3.244  0.5336  1.3698 -0.3964
  508MOL0     C66950   0.363   0.305   3.340  0.2664  0.2388  0.5122
  508MOL0     C66951   0.282   0.338   3.448 -0.3551 -0.8575  0.0991
  508MOL0     C66952   0.160   0.278   3.473  0.8417 -0.3580 -0.2572
  508MOL0     C66953   0.072   0.314   3.583  0.8225  0.1904 -0.1386
  508MOL0     O66954  -0.039   0.236   3.612  0.0790 -0.6242  0.2461
  508MOL0     C66955  -0.130   0.250   3.714 -0.1354 -0.5986 -0.2395
  508MOL0     C66956  -0.134   0.365   3.801 -0.0372  0.4706 -0.7137
  508MOL0     C66957  -0.250   0.369   3.895 -0.7316  0.0863 -0.1893
  508MOL0     C66958  -0.356   0.282   3.889  0.4225 -0.3765  0.0050
  508MOL0     O66959  -0.461   0.285   3.969 -0.2050  0.2926 -0.0182
  508MOL0     C66960  -0.529   0.411   3.993  0.3033  0.5695 -0.0996
  508MOL0     C66961  -0.665   0.369   4.063  0.1316  0.8466 -0.7781
  508MOL0     C66962  -0.734   0.489   4.137 -0.0732 -0.6425  0.5209
  508MOL0     C66963  -0.655   0.560   4.250  0.1739 -0.9044 -0.4852
  508MOL0     C66964  -0.741   0.649   4.338  0.5986  1.2200 -0.1198
  508MOL0     C66965  -0.796   0.771   4.270 -0.6904  0.1333  0.7257
  508MOL0     C66966  -0.865   0.858   4.369 -0.4553  0.0739 -0.3362
  508MOL0     C66967  -1.004   0.797   4.396  0.1731 -0.0314 -0.2015
  508MOL0    Cl66968  -1.100   0.921   4.484 -0.4342  0.0955  0.4110
  508MOL0     C66969  -0.351   0.182   3.793  0.7810  0.0644  0.4265
  508MOL0     C66970  -0.238   0.171   3.707  0.1026 -0.4017 -0.0555
  508MOL0     O66971   0.102   0.412   3.653  0.2319 -0.7949 -0.3527
  508MOL0     C66972   0.112   0.181   3.376 -0.2095 -0.7112  0.0955
  508MOL0     C66973   0.187   0.148   3.263  0.0510  0.2127 -0.1835
  508MOL0     N66974   0.996   0.326   3.264  0.6852  0.3903 -0.8824
  508MOL0     N66975   1.114   0.371   3.268 -0.1029  1.0076  0.3429
  508MOL0     C66976   2.344   0.427   3.182  0.5850  0.8897 -0.2339
  508MOL0     C66977   2.450   0.491   3.117 -0.1429 -0.6248 -0.2886
  508MOL0     C66978   2.794   0.641   2.884 -0.0648 -0.7043 -0.2578
  508MOL0     C66979   2.791   0.593   2.753 -0.3998 -0.7591 -0.2318
  508MOL0     C66980   2.892   0.633   2.669 -0.4804  0.0926  0.4731
  508MOL0     C66981   3.006   0.709   2.713  0.6437 -0.5644  0.0758
  508MOL0     O66982   3.105   0.745   2.630 -0.3958 -0.0329  0.4300
  508MOL0     C66983   3.234   0.711   2.669 -0.3392 -0.2863 -0.5442
  508MOL0     C66984   3.249   0.564   2.678  0.2288  0.6242  0.4454
  508MOL0     C66985   3.398   0.514   2.678 -1.3191  1.0429  0.4713
  508MOL0     C66986   3.428   0.436   2.800  0.1367  0.7066  0.0421
  508MOL0     C66987   3.439   0.527   2.918  0.4175  0.1270 -0.3065
  508MOL0     C66988   3.446   0.610   3.006  0.5843 -0.0671 -0.3121
  508MOL0     C66989   3.004   0.759   2.845  0.2297  0.8311  0.4682
  508MOL0     C66990   2.898   0.729   2.927  0.6203  0.9181  0.2418
  508MOL0     H66991   2.584   0.215   2.963 -0.0911 -1.4237  1.6222
  508MOL0     H66992   2.425   0.109   3.111  1.4775  0.0535  2.3235
  508MOL0     H66993   2.076   0.368   3.166  0.4131 -0.2290  0.2042
  508MOL0     H66994   2.075   0.319   3.339 -0.9610  2.2624 -0.3181
  508MOL0     H66995   2.011   0.102   3.272  0.1721  0.5754  0.4199
  508MOL0     H66996   1.982   0.135   3.103 -1.3133 -1.8833  0.7423
  508MOL0     H66997   1.798   0.289   3.164  2.0103  1.7077 -0.2722
  508MOL0     H66998   1.831   0.261   3.339 -0.0455 -0.5811  0.4793
  508MOL0     H66999   1.763   0.026   3.141 -1.3106 -0.9386  0.3697
  508MOL0     H67000   1.767   0.035   3.321 -0.5979  1.5905  1.3059
  508MOL0     H67001   1.546   0.023   3.252  0.6617 -0.5985  0.0008
  508MOL0     H67002   1.572   0.157   3.139  0.4653  0.0965  0.2447
  508MOL0     H67003   1.605   0.311   3.315  3.1873 -2.3344 -1.7560
  508MOL0     H67004   1.602   0.173   3.441 -2.3228 -0.9645  0.7103
  508MOL0     H67005   1.383   0.114   3.366 -0.4879 -0.1086 -1.0826
  508MOL0     H67006   1.384   0.278   3.438  2.1775  0.3227  0.8119
  508MOL0     H67007   1.371   0.232   3.140  2.2869 -2.7960  1.5890
  508MOL0     H67008   1.371   0.385   3.228 -0.3320 -0.9721 -0.5330
  508MOL0     H67009   1.171   0.058   3.201  2.4730  0.3885  1.8824
  508MOL0     H67010   0.845   0.080   3.347  0.2619  1.1809 -0.1318
  508MOL0     H67011   0.888  -0.002   3.200 -2.0057  0.6487 -2.3302
  508MOL0     H67012   0.771   0.174   3.061  0.0047 -1.8805 -0.1611
  508MOL0     H67013   0.755   0.275   3.203 -0.6241 -0.7025  2.2560
  508MOL0     H67014   0.599   0.008   3.187 -3.5950 -0.2017 -0.6700
  508MOL0     H67015   0.584   0.134   3.309  1.1912  3.2819 -0.5186
  508MOL0     H67016   0.543   0.171   3.005 -0.3923 -1.9376  0.1468
  508MOL0     H67017   0.516   0.294   3.129 -2.8690 -0.1632 -0.4644
  508MOL0     H67018   0.455   0.360   3.322 -0.3239  0.2841 -3.2204
  508MOL0     H67019   0.309   0.418   3.516 -1.2997 -1.3570  1.0950
  508MOL0     H67020  -0.062   0.446   3.806 -0.0439  0.4461  3.9705
  508MOL0     H67021  -0.253   0.442   3.974 -3.1748 -0.0678 -0.0837
  508MOL0     H67022  -0.543   0.470   3.902  0.3688  0.3383 -0.2604
  508MOL0     H67023  -0.455   0.462   4.055  1.5265  1.2249 -2.0339
  508MOL0     H67024  -0.648   0.286   4.132  0.0051  0.8002 -0.8025
  508MOL0     H67025  -0.734   0.331   3.987 -0.9956  0.0259  0.6060
  508MOL0     H67026  -0.823   0.446   4.185 -0.9790  0.2747 -0.3022
  508MOL0     H67027  -0.770   0.569   4.072  1.5763  1.1047  1.6561
  508MOL0     H67028  -0.608   0.485   4.314 -0.1564 -2.6303 -2.1866
  508MOL0     H67029  -0.575   0.627   4.218 -0.8416  0.8676  0.5217
  508MOL0     H67030  -0.686   0.665   4.431  0.3724 -1.0712  0.4451
  508MOL0     H67031  -0.818   0.584   4.380  2.1429 -0.2622  0.5109
  508MOL0     H67032  -0.860   0.729   4.192 -0.3717 -1.8858  1.4968
  508MOL0     H67033  -0.710   0.824   4.227 -0.8602 -1.6961 -2.1509
  508MOL0     H67034  -0.811   0.874   4.463 -1.8403  0.7527  0.3842
  508MOL0     H67035  -0.877   0.961   4.336  0.0802 -0.3104 -1.8022
  508MOL0     H67036  -0.986   0.709   4.458 -0.5659 -0.0181  0.0452
  508MOL0     H67037  -1.062   0.754   4.314 -0.6434  0.4900  0.0852
  508MOL0     H67038  -0.433   0.112   3.802  0.6218  0.5226  4.7652
  508MOL0     H67039  -0.226   0.095   3.630 -1.4517 -1.1672  0.4109
  508MOL0     H67040   0.014   0.136   3.387 -0.3089 -0.5826 -0.2667
  508MOL0     H67041   0.147   0.090   3.181 -2.1051  1.9953 -0.4824
  508MOL0     H67042   2.268   0.482   3.237 -0.5641 -1.5307  0.7498
  508MOL0     H67043   2.456   0.596   3.143 -4.8305 -0.4136  0.9099
  508MOL0     H67044   2.716   0.521   2.720  1.6604 -2.6788 -0.9266
  508MOL0     H67045   2.891   0.598   2.567 -0.2923 -0.3387  0.6179
  508MOL0     H67046   3.254   0.753   2.768 -0.6622 -0.0006 -0.5954
  508MOL0     H67047   3.303   0.747   2.592 -0.4816  2.8500  0.6401
  508MOL0     H67048   3.201   0.523   2.768  1.9534 -2.1879  0.2178
  508MOL0     H67049   3.202   0.508   2.597 -2.9953 -0.0957  2.6288
  508MOL0     H67050   3.468   0.598   2.676  1.4078 -1.1117 -0.9183
  508MOL0     H67051   3.427   0.457   2.589 -1.4327  1.0451  0.4316
  508MOL0     H67052   3.342   0.370   2.818  1.4374 -0.5269  2.0735
  508MOL0     H67053   3.510   0.364   2.791 -0.4470  0.0263 -0.0001
  508MOL0     H67054   3.455   0.687   3.079  0.2933  1.4800 -1.8556
  508MOL0     H67055   3.091   0.814   2.878 -0.9971  2.1043  1.6681
  508MOL0     H67056   2.897   0.746   3.034  1.0310  0.4454  0.3293
  509MOL0     O67057   2.798   1.752   8.287 -0.4568  0.1703 -0.1021
  509MOL0     C67058   2.823   1.632   8.307 -0.4183 -0.7668 -0.1307
  509MOL0     O67059   2.731   1.543   8.336 -0.1901  0.1103  0.3953
  509MOL0     C67060   2.603   1.582   8.327 -0.7267  0.1130 -1.1287
  509MOL0     C67061   2.519   1.509   8.247  0.8700 -0.5498  0.1547
  509MOL0     C67062   2.384   1.548   8.231 -1.1529 -0.3648 -0.6039
  509MOL0     C67063   2.333   1.662   8.307 -0.6863 -0.0379 -0.5407
  509MOL0     O67064   2.208   1.716   8.279  0.4351  0.6498  0.5371
  509MOL0     C67065   2.104   1.634   8.212  0.0305  0.0329 -0.8855
  509MOL0     C67066   1.974   1.703   8.249 -0.6250 -0.4336  0.4196
  509MOL0     C67067   1.857   1.616   8.208 -0.4234  0.3652  0.1574
  509MOL0     C67068   1.731   1.694   8.248  0.0566  0.1519  0.4189
  509MOL0     C67069   1.605   1.631   8.195  0.4332  0.4705 -0.1772
  509MOL0     C67070   1.478   1.688   8.261  0.0120  0.6756  1.2835
  509MOL0     C67071   1.363   1.585   8.253 -0.2074  0.2582  0.1222
  509MOL0     C67072   1.328   1.525   8.115  0.1971  0.1678 -0.0933
  509MOL0     N67073   1.208   1.444   8.118 -0.8342  0.2278 -0.3134
  509MOL0     C67074   1.079   1.485   8.094 -0.4326 -0.5420  0.2430
  509MOL0     C67075   1.004   1.378   8.112 -0.7200  0.5978  0.5503
  509MOL0     C67076   0.855   1.381   8.111  0.2323  0.4867  0.5743
  509MOL0     C67077   0.788   1.241   8.101  0.3955 -0.9188 -0.6542
  509MOL0     C67078   0.768   1.174   8.239  1.2146 -1.0456  0.3385
  509MOL0     C67079   0.651   1.077   8.234  0.7954 -0.1416  0.4846
  509MOL0     O67080   0.706   0.951   8.184  0.0239  0.1543  0.2800
  509MOL0     C67081   0.616   0.851   8.168 -0.4875 -0.1703  0.9051
  509MOL0     C67082   0.669   0.747   8.076  0.1850 -0.3947 -0.3568
  509MOL0     C67083   0.583   0.641   8.043 -0.5350 -0.3535 -0.1793
  509MOL0     C67084   0.448   0.642   8.091  0.6866  0.0385  0.2759
  509MOL0     C67085   0.354   0.537   8.034  0.1736 -0.0730 -0.3842
  509MOL0     O67086   0.215   0.560   8.044 -0.1171 -0.1500  0.1634
  509MOL0     C67087   0.114   0.468   8.006 -0.4312  0.7615 -0.8740
  509MOL0     C67088  -0.012   0.525   8.034 -0.1988  0.3871 -0.1916
  509MOL0     C67089  -0.131   0.459   8.006 -0.4597  0.9561  0.0151
  509MOL0     C67090  -0.118   0.329   7.959 -0.3288 -0.8117 -0.3959
  509MOL0     O67091  -0.233   0.263   7.957 -0.0189  0.1922 -0.1873
  509MOL0     C67092  -0.246   0.163   7.853  0.5991 -0.6514 -1.2128
  509MOL0     C67093  -0.389   0.110   7.849  0.3248 -0.3222 -0.5075
  509MOL0     C67094  -0.422  -0.003   7.753 -0.0082  0.1244  1.1015
  509MOL0     C67095  -0.579  -0.023   7.754 -1.0512 -0.6458 -0.2520
  509MOL0     C67096  -0.620  -0.147   7.680 -1.1265  0.4056 -0.3661
  509MOL0     C67097  -0.770  -0.172   7.709 -1.0357  0.9749 -0.9950
  509MOL0     C67098  -0.817  -0.301   7.642 -0.3253 -0.0379  0.1619
  509MOL0     C67099  -0.971  -0.310   7.645 -0.0275  0.4364  0.3622
  509MOL0    Cl67100  -1.033  -0.444   7.536  0.2283 -0.1261  0.0789
  509MOL0     C67101   0.004   0.279   7.918 -0.4136 -0.0958 -0.1531
  509MOL0     C67102   0.122   0.342   7.947 -0.3806  0.2240  0.2387
  509MOL0     O67103   0.404   0.433   7.982 -0.3642 -0.0221  0.1331
  509MOL0     C67104   0.405   0.743   8.171 -0.3564  0.8028 -0.4314
  509MOL0     C67105   0.487   0.847   8.216 -0.1523  0.1911  0.0616
  509MOL0     N67106   1.087   1.272   8.141 -0.0451  0.5305  0.2572
  509MOL0     N67107   1.203   1.314   8.151 -0.8596 -0.2254  1.2624
  509MOL0     C67108   2.420   1.738   8.388  0.3621 -0.5038  0.2918
  509MOL0     C67109   2.554   1.691   8.399 -0.7438 -0.1215 -0.6096
  509MOL0     C67110   2.958   1.584   8.299 -0.7887  0.0392 -0.0359
  509MOL0     C67111   3.061   1.664   8.252  0.1979  0.1472 -1.1435
  509MOL0     C67112   3.194   1.617   8.253  0.1931 -0.3855 -0.4085
  509MOL0     C67113   3.218   1.490   8.291 -0.9773  0.4608 -0.0354
  509MOL0     O67114   3.350   1.456   8.262 -0.9186 -0.6462  0.7692
  509MOL0     C67115   3.368   1.320   8.226  0.1120  0.0062  0.6080
  509MOL0     C67116   3.450   1.242   8.329 -0.3138 -0.2995  0.2651
  509MOL0     C67117   3.597   1.267   8.320 -0.0251 -1.2972 -0.0326
  509MOL0     C67118   3.666   1.173   8.416  0.1367 -0.3441 -1.0211
  509MOL0     C67119   3.809   1.213   8.437  0.1835  0.0068  0.4306
  509MOL0     C67120   3.928   1.247   8.443 -0.2895 -0.6203 -0.4769
  509MOL0     C67121   3.119   1.410   8.354 -0.2357  0.5919 -0.3163
  509MOL0     C67122   2.990   1.461   8.367 -0.5510  0.4153  0.4429
  509MOL0     H67123   2.555   1.427   8.186 -1.6539 -1.5910 -0.0641
  509MOL0     H67124   2.329   1.498   8.152 -2.9312 -0.1014  0.4136
  509MOL0     H67125   2.114   1.530   8.247  1.1869  0.6925  0.8683
  509MOL0     H67126   2.111   1.626   8.103  0.2898  3.0293 -1.1508
  509MOL0     H67127   1.969   1.795   8.191 -1.0074  0.1722  1.3823
  509MOL0     H67128   1.976   1.736   8.353  2.1759  0.1115  0.2514
  509MOL0     H67129   1.867   1.520   8.259 -0.7491 -1.2252 -2.5547
  509MOL0     H67130   1.866   1.585   8.104  1.6436 -0.0554  0.4048
  509MOL0     H67131   1.708   1.708   8.354 -0.0389  1.4151  0.2501
  509MOL0     H67132   1.747   1.800   8.224  0.2031  0.6047  2.3709
  509MOL0     H67133   1.610   1.522   8.208 -1.3417  0.2422 -1.0790
  509MOL0     H67134   1.593   1.652   8.088 -1.4911  0.4760 -0.0097
  509MOL0     H67135   1.447   1.787   8.225 -3.2979 -0.3554  1.0284
  509MOL0     H67136   1.502   1.708   8.366  0.3572  0.3892  1.2603
  509MOL0     H67137   1.377   1.503   8.323  1.5258  0.1525 -0.2935
  509MOL0     H67138   1.275   1.634   8.297  1.9511  1.5886  3.2973
  509MOL0     H67139   1.417   1.469   8.086  0.9227  1.6848 -0.9270
  509MOL0     H67140   1.317   1.610   8.046  1.3961  0.4796  0.0780
  509MOL0     H67141   1.038   1.584   8.076  0.3195  0.1629  2.1500
  509MOL0     H67142   0.831   1.448   8.027  0.1648 -0.4063 -0.1280
  509MOL0     H67143   0.814   1.431   8.200 -2.2104  2.4751 -1.5214
  509MOL0     H67144   0.855   1.177   8.043  1.6842 -0.3124  0.1279
  509MOL0     H67145   0.698   1.252   8.040  0.2237 -1.8100 -0.5761
  509MOL0     H67146   0.852   1.111   8.269  0.1515 -0.8002  4.2918
  509MOL0     H67147   0.744   1.249   8.315 -1.2008  1.5595 -2.7046
  509MOL0     H67148   0.575   1.118   8.167  0.0296 -0.7552  0.9708
  509MOL0     H67149   0.601   1.065   8.330 -4.7637  0.7901 -1.9309
  509MOL0     H67150   0.772   0.751   8.042  0.3461 -0.2236  0.1413
  509MOL0     H67151   0.622   0.566   7.975  1.7759  0.3760  0.2710
  509MOL0     H67152  -0.026   0.630   8.057  0.9344  0.7190 -0.9191
  509MOL0     H67153  -0.230   0.504   8.011 -1.3197 -1.0068  2.5778
  509MOL0     H67154  -0.186   0.072   7.865 -0.5075 -1.4802 -1.8073
  509MOL0     H67155  -0.218   0.207   7.757  1.2850  0.0979 -0.6809
  509MOL0     H67156  -0.451   0.198   7.829 -0.7110 -0.8481  0.2904
  509MOL0     H67157  -0.422   0.074   7.947 -2.4069  0.0322 -1.2080
  509MOL0     H67158  -0.378  -0.097   7.789 -0.2381  0.0573  1.2042
  509MOL0     H67159  -0.390   0.018   7.650 -0.9204 -0.4568  0.6856
  509MOL0     H67160  -0.614  -0.036   7.857 -0.1595 -1.3169 -0.0157
  509MOL0     H67161  -0.630   0.064   7.712  1.8453  0.4020 -1.8609
  509MOL0     H67162  -0.570  -0.236   7.719 -0.5748  1.8526  2.5259
  509MOL0     H67163  -0.596  -0.129   7.575  0.9523 -2.2155 -0.4379
  509MOL0     H67164  -0.827  -0.092   7.660  0.8442  1.1635 -3.0626
  509MOL0     H67165  -0.780  -0.174   7.817 -0.9141 -1.4565 -0.9787
  509MOL0     H67166  -0.776  -0.298   7.541 -3.1410 -2.9938 -1.2368
  509MOL0     H67167  -0.774  -0.388   7.692  0.6337 -0.1384 -0.8187
  509MOL0     H67168  -1.000  -0.216   7.599  0.9834  0.6295  0.0823
  509MOL0     H67169  -1.012  -0.327   7.745 -2.2400 -1.3640 -0.7562
  509MOL0     H67170   0.017   0.178   7.882  1.3199  0.5005 -1.3837
  509MOL0     H67171   0.213   0.290   7.918  0.6974  3.2677 -2.4651
  509MOL0     H67172   0.303   0.753   8.208  0.2095  0.2670  1.3964
  509MOL0     H67173   0.435   0.930   8.263 -1.5256  0.6540 -2.1111
  509MOL0     H67174   2.383   1.827   8.438  0.7046 -0.6471  0.8067
  509MOL0     H67175   2.609   1.753   8.469 -1.4049 -0.9244  0.6484
  509MOL0     H67176   3.039   1.766   8.220  0.0976  0.5442  0.1525
  509MOL0     H67177   3.276   1.672   8.207  0.0330  0.4289  0.2643
  509MOL0     H67178   3.408   1.319   8.124 -1.4996  1.4455 -0.0908
  509MOL0     H67179   3.274   1.264   8.214 -0.6455  1.5462 -1.2165
  509MOL0     H67180   3.421   1.278   8.429 -1.6817  0.1536 -0.2663
  509MOL0     H67181   3.424   1.136   8.322  0.2382 -0.3508 -4.9799
  509MOL0     H67182   3.624   1.373   8.327 -2.1176 -0.6484 -0.9243
  509MOL0     H67183   3.631   1.240   8.219 -0.3827 -0.0319 -0.5120
  509MOL0     H67184   3.616   1.181   8.513  2.4352 -0.6045  0.2493
  509MOL0     H67185   3.656   1.071   8.377 -0.3618 -0.9299  0.5519
  509MOL0     H67186   4.030   1.278   8.443 -0.5125  0.2867 -2.4233
  509MOL0     H67187   3.155   1.322   8.408  0.1435  0.9533  0.0266
  509MOL0     H67188   2.904   1.418   8.417 -2.5624  0.6460 -2.5118
  510MOL0     O67189   8.526   5.077   6.941  0.0258  0.5980 -0.3961
  510MOL0     C67190   8.632   5.031   6.985 -0.8661  0.6325 -0.5849
  510MOL0     O67191   8.648   4.953   7.095  0.0790  0.3559 -0.1225
  510MOL0     C67192   8.540   4.905   7.157  0.2892  0.1314 -0.4605
  510MOL0     C67193   8.566   4.868   7.293  0.7685 -0.4084  0.3770
  510MOL0     C67194   8.461   4.815   7.380  0.0529 -0.5154 -0.3131
  510MOL0     C67195   8.334   4.795   7.330 -0.1895  0.0204 -0.8510
  510MOL0     O67196   8.247   4.729   7.411  0.0553  0.1179  0.2300
  510MOL0     C67197   8.108   4.734   7.376  0.6265  0.4753  0.7050
  510MOL0     C67198   8.032   4.695   7.496 -0.3538  0.7647  0.2818
  510MOL0     C67199   7.893   4.764   7.506  0.1508 -0.1117 -0.8542
  510MOL0     C67200   7.828   4.757   7.649  0.7050  0.1291 -0.0145
  510MOL0     C67201   7.680   4.805   7.652  0.1737 -0.2240  0.3799
  510MOL0     C67202   7.606   4.726   7.769 -0.0814 -0.5063  0.4663
  510MOL0     C67203   7.464   4.785   7.794  0.8578  0.5874  0.2873
  510MOL0     C67204   7.459   4.927   7.842  0.4809 -0.5814 -0.0917
  510MOL0     N67205   7.485   4.922   7.984 -0.3853  0.1710 -0.3724
  510MOL0     C67206   7.388   4.927   8.083 -0.3691  0.1911 -0.9711
  510MOL0     C67207   7.458   4.950   8.201  0.2096 -0.6108  0.7912
  510MOL0     C67208   7.404   4.969   8.337  0.8353 -0.3108 -0.4075
  510MOL0     C67209   7.295   4.868   8.364 -0.2662  0.2594 -0.4433
  510MOL0     C67210   7.299   4.822   8.513 -0.4247 -0.2159  0.7732
  510MOL0     C67211   7.164   4.812   8.572 -0.3953  0.1567  0.3754
  510MOL0     O67212   7.097   4.940   8.556  0.0861 -0.0654 -0.1638
  510MOL0     C67213   6.968   4.936   8.592  0.2248 -0.6768  0.6261
  510MOL0     C67214   6.889   4.830   8.619  0.1109  0.2949  0.7798
  510MOL0     C67215   6.748   4.854   8.655 -0.1999 -0.2201  1.0866
  510MOL0     C67216   6.696   4.981   8.653 -0.6947 -0.1675 -0.6248
  510MOL0     C67217   6.553   5.008   8.669 -0.1606  0.1411  0.0777
  510MOL0     O67218   6.504   5.108   8.593  0.2334 -0.0251  0.1076
  510MOL0     C67219   6.371   5.151   8.625 -0.9328 -0.0191 -0.3104
  510MOL0     C67220   6.280   5.115   8.530 -0.2895 -0.3681  0.2621
  510MOL0     C67221   6.145   5.146   8.534  0.2439 -0.4433  0.5044
  510MOL0     C67222   6.093   5.199   8.653  0.0565  0.1781  0.1586
  510MOL0     O67223   5.958   5.229   8.653 -0.1693 -0.9258 -0.2890
  510MOL0     C67224   5.900   5.338   8.727 -0.3366 -0.0386 -0.2400
  510MOL0     C67225   5.932   5.471   8.642  0.3275 -0.0676  0.0510
  510MOL0     C67226   5.883   5.598   8.700  0.6407  0.2230  0.6341
  510MOL0     C67227   5.733   5.606   8.704 -0.1130  0.5815  0.6610
  510MOL0     C67228   5.693   5.720   8.790  0.7473  0.4865  0.1487
  510MOL0     C67229   5.541   5.719   8.804  0.5648 -1.3559  0.3940
  510MOL0     C67230   5.494   5.861   8.852  0.2141 -0.1730  0.1217
  510MOL0     C67231   5.342   5.858   8.868 -0.2970  0.4446 -0.0092
  510MOL0    Cl67232   5.286   5.867   8.696 -0.1460  0.4301 -0.4099
  510MOL0     C67233   6.184   5.227   8.757 -0.0297 -0.5859 -0.0953
  510MOL0     C67234   6.326   5.214   8.745  0.1037 -0.1386 -0.3401
  510MOL0     O67235   6.488   4.943   8.756 -0.4777 -0.6564 -0.8778
  510MOL0     C67236   6.784   5.093   8.631  0.0201 -0.1094 -0.3654
  510MOL0     C67237   6.918   5.068   8.605 -0.9776  0.1209  0.7054
  510MOL0     N67238   7.597   4.944   8.173 -0.6561 -0.5697  0.0578
  510MOL0     N67239   7.604   4.933   8.043  0.2557 -0.1241  0.5242
  510MOL0     C67240   8.310   4.836   7.194  0.0234  0.6143 -0.1818
  510MOL0     C67241   8.408   4.888   7.108 -0.3278  0.4394  0.6926
  510MOL0     C67242   8.762   5.072   6.923 -0.3054 -0.7888  0.1062
  510MOL0     C67243   8.880   4.996   6.924  0.1607 -0.0563 -0.1142
  510MOL0     C67244   9.000   5.032   6.860  0.2754 -0.5692 -0.0207
  510MOL0     C67245   8.999   5.147   6.784 -0.5149 -0.1437 -0.1443
  510MOL0     O67246   9.104   5.199   6.706 -0.3657  0.4149 -0.4390
  510MOL0     C67247   9.204   5.097   6.673  0.6786 -0.8881  0.1912
  510MOL0     C67248   9.297   5.161   6.576 -0.6624 -0.7273 -0.3747
  510MOL0     C67249   9.384   5.279   6.624  0.0995 -0.7496  0.4261
  510MOL0     C67250   9.479   5.337   6.521 -0.1223 -1.3482  0.7211
  510MOL0     C67251   9.562   5.229   6.462  0.0090  0.7410 -0.2673
  510MOL0     C67252   9.614   5.119   6.428  0.6701 -0.1901  0.3104
  510MOL0     C67253   8.882   5.221   6.776 -0.3193  0.0132 -0.5116
  510MOL0     C67254   8.755   5.181   6.834  0.0159 -0.2166 -0.5867
  510MOL0     H67255   8.661   4.885   7.343  1.2324  1.1924 -0.9614
  510MOL0     H67256   8.489   4.793   7.483  0.4062  1.2876  0.0193
  510MOL0     H67257   8.086   4.666   7.293 -2.3807  2.1159 -0.0033
  510MOL0     H67258   8.080   4.831   7.334 -0.4264 -0.5504 -1.0871
  510MOL0     H67259   8.092   4.726   7.583  1.0414  1.2534 -0.8218
  510MOL0     H67260   8.023   4.587   7.486  2.1644  0.5919 -0.8454
  510MOL0     H67261   7.828   4.717   7.432 -2.7710  1.1842  0.7058
  510MOL0     H67262   7.905   4.870   7.484 -1.2769  0.3764  0.4953
  510MOL0     H67263   7.826   4.654   7.684 -0.7522 -0.0962 -0.6835
  510MOL0     H67264   7.891   4.807   7.724 -1.1840  0.7519  1.2426
  510MOL0     H67265   7.620   4.780   7.564  0.7140  1.3066 -0.4520
  510MOL0     H67266   7.678   4.914   7.656 -0.0742 -0.1410 -1.3098
  510MOL0     H67267   7.675   4.732   7.854  0.6870  1.6850 -0.2474
  510MOL0     H67268   7.596   4.624   7.730 -1.7002 -0.5819  0.9832
  510MOL0     H67269   7.407   4.800   7.702  0.1838  0.4357  0.6780
  510MOL0     H67270   7.408   4.722   7.863 -0.3971  0.8544 -0.4641
  510MOL0     H67271   7.359   4.972   7.839  0.5346 -0.4506 -2.5361
  510MOL0     H67272   7.529   5.001   7.802 -0.1413 -0.2243 -0.5384
  510MOL0     H67273   7.283   4.909   8.064  0.1071 -2.8130 -1.2520
  510MOL0     H67274   7.366   5.071   8.344  1.4881 -0.1343  0.7704
  510MOL0     H67275   7.492   4.968   8.400  1.4619  0.3660 -1.2462
  510MOL0     H67276   7.302   4.787   8.292 -0.2737 -1.0079  0.9268
  510MOL0     H67277   7.199   4.921   8.354  0.1377  1.5024  1.5502
  510MOL0     H67278   7.344   4.723   8.514  1.9357  0.7710  2.4586
  510MOL0     H67279   7.353   4.895   8.574 -1.1669  2.6359 -1.7146
  510MOL0     H67280   7.171   4.777   8.676 -0.8819 -1.1974 -0.0272
  510MOL0     H67281   7.113   4.732   8.517 -2.7107  2.5848 -1.2410
  510MOL0     H67282   6.927   4.728   8.620  0.4198  0.3963  0.0280
  510MOL0     H67283   6.679   4.773   8.676  0.7023 -1.1727  0.4699
  510MOL0     H67284   6.308   5.054   8.446 -0.6256  0.0661 -0.1752
  510MOL0     H67285   6.076   5.126   8.452 -0.3778 -0.5765  1.0506
  510MOL0     H67286   5.957   5.358   8.818  0.4492  1.7766 -1.0763
  510MOL0     H67287   5.793   5.334   8.749 -0.3548 -0.2703 -0.3684
  510MOL0     H67288   5.894   5.446   8.543 -0.9695 -0.1293  0.5411
  510MOL0     H67289   6.041   5.476   8.644  0.3428 -0.3046 -0.0835
  510MOL0     H67290   5.911   5.681   8.634  1.8882 -2.0992 -1.9502
  510MOL0     H67291   5.932   5.620   8.795  0.7265  3.5407 -0.0545
  510MOL0     H67292   5.689   5.611   8.603  1.1136  3.3612  0.1968
  510MOL0     H67293   5.698   5.524   8.768  0.3041  0.3666  0.6177
  510MOL0     H67294   5.742   5.804   8.739  0.6360 -0.7767 -2.2000
  510MOL0     H67295   5.741   5.707   8.887  3.4530  1.6852 -0.9176
  510MOL0     H67296   5.509   5.630   8.860  1.7217 -2.1098 -0.1033
  510MOL0     H67297   5.479   5.711   8.714 -1.7112  3.9581  1.1120
  510MOL0     H67298   5.552   5.894   8.939 -0.5058 -0.9414  0.9103
  510MOL0     H67299   5.516   5.932   8.772 -1.2299 -1.7696 -1.8012
  510MOL0     H67300   5.323   5.950   8.925  3.0430  0.5176  1.2050
  510MOL0     H67301   5.313   5.766   8.919  2.3852 -0.8666 -0.6687
  510MOL0     H67302   6.145   5.263   8.852 -3.0271 -0.8218 -1.1345
  510MOL0     H67303   6.390   5.224   8.831 -2.0329 -0.3689  1.3755
  510MOL0     H67304   6.752   5.197   8.625 -1.3333 -0.4307  0.8081
  510MOL0     H67305   6.994   5.145   8.595  1.7879 -1.9770  3.5611
  510MOL0     H67306   8.212   4.821   7.150  1.3305 -1.6764 -2.6256
  510MOL0     H67307   8.372   4.933   7.016 -1.8457  2.2967  2.1049
  510MOL0     H67308   8.883   4.903   6.981 -1.6112  1.2619  2.3603
  510MOL0     H67309   9.089   4.973   6.879  0.6748  0.4537  1.5367
  510MOL0     H67310   9.158   5.005   6.637 -0.6545 -1.3499  2.8506
  510MOL0     H67311   9.249   5.073   6.769  1.4613  2.4835  0.8027
  510MOL0     H67312   9.363   5.075   6.558 -1.0070 -0.4583 -3.4099
  510MOL0     H67313   9.243   5.186   6.485  1.0410 -0.7719 -1.4435
  510MOL0     H67314   9.437   5.256   6.717  0.4210  1.8747  0.9766
  510MOL0     H67315   9.311   5.355   6.654  2.6231  1.7133  0.7577
  510MOL0     H67316   9.432   5.380   6.433  1.4498  1.4762  1.1509
  510MOL0     H67317   9.534   5.422   6.561 -0.6283 -1.3773  1.5012
  510MOL0     H67318   9.647   5.019   6.407 -0.3395 -0.9314  2.0099
  510MOL0     H67319   8.879   5.316   6.725  0.7625 -0.5588 -1.7027
  510MOL0     H67320   8.664   5.233   6.807  0.3343 -0.3080 -1.9075
  511MOL0     O67321   1.684   7.982   5.315 -0.1153  0.2476 -0.2073
  511MOL0     C67322   1.714   8.083   5.380 -0.6530 -0.3062 -0.3097
  511MOL0     O67323   1.629   8.157   5.458 -0.2761  0.1347 -0.1417
  511MOL0     C67324   1.497   8.111   5.446 -0.1540 -0.1333  0.0790
  511MOL0     C67325   1.441   8.066   5.565  0.7743  0.0302  0.0464
  511MOL0     C67326   1.311   8.028   5.579  0.5599  0.5326 -0.4280
  511MOL0     C67327   1.226   8.039   5.469 -0.8662  0.0188 -0.1214
  511MOL0     O67328   1.099   7.989   5.485  0.5093 -0.8738  0.6650
  511MOL0     C67329   1.006   8.010   5.370 -0.5227  0.0262  0.3600
  511MOL0     C67330   0.873   7.978   5.440 -0.2416  0.1063  0.7248
  511MOL0     C67331   0.770   7.992   5.328 -0.4768 -0.1639 -0.1191
  511MOL0     C67332   0.633   8.012   5.391 -0.3556 -0.2244 -0.5726
  511MOL0     C67333   0.534   8.030   5.278  0.4147 -0.9367 -0.4515
  511MOL0     C67334   0.395   8.039   5.332 -0.2004 -1.5663 -0.3824
  511MOL0     C67335   0.285   8.058   5.225 -1.1657  0.9749 -0.0077
  511MOL0     C67336   0.142   8.026   5.268 -0.6828 -0.3413  0.1085
  511MOL0     N67337   0.061   8.003   5.153 -0.1456  0.1787 -0.0425
  511MOL0     C67338  -0.038   8.073   5.101 -0.0764 -0.3579 -1.2282
  511MOL0     C67339  -0.081   8.016   4.989 -0.5075  0.2738  0.6665
  511MOL0     C67340  -0.178   8.084   4.895  0.1931  0.3915 -0.2420
  511MOL0     C67341  -0.328   8.075   4.936 -0.1294 -0.4657  0.4456
  511MOL0     C67342  -0.368   7.926   4.957  0.3626  0.5373  0.5521
  511MOL0     C67343  -0.514   7.902   4.966  0.3798 -0.3887 -0.0670
  511MOL0     O67344  -0.573   7.961   4.849  0.0488 -0.9442  0.4135
  511MOL0     C67345  -0.704   7.924   4.818  0.0270  0.9238 -0.2379
  511MOL0     C67346  -0.813   7.941   4.900 -0.8706  0.9475  0.4554
  511MOL0     C67347  -0.947   7.907   4.872 -1.0741 -0.2671  0.1767
  511MOL0     C67348  -0.968   7.846   4.752  0.0598  0.1966  0.2015
  511MOL0     C67349  -1.100   7.805   4.710  0.4001  0.6694 -0.0516
  511MOL0     O67350  -1.117   7.795   4.571 -0.5109 -0.0337  0.1019
  511MOL0     C67351  -1.230   7.755   4.512  0.8173  0.0018 -0.1124
  511MOL0     C67352  -1.367   7.797   4.550  0.4446  1.1745  0.6281
  511MOL0     C67353  -1.468   7.744   4.471  0.5406 -0.5882 -0.5884
  511MOL0     C67354  -1.436   7.689   4.349  0.9600  0.4982  0.5393
  511MOL0     O67355  -1.529   7.646   4.262 -0.2877  0.5118 -0.4926
  511MOL0     C67356  -1.580   7.513   4.293 -0.9537 -0.0841  0.8522
  511MOL0     C67357  -1.678   7.499   4.412  0.1921  0.2802 -0.1304
  511MOL0     C67358  -1.797   7.592   4.415 -0.7572  0.3189 -0.0030
  511MOL0     C67359  -1.871   7.578   4.544  0.3223 -0.0480  0.5385
  511MOL0     C67360  -1.954   7.449   4.542  0.2878 -0.3024 -0.2909
  511MOL0     C67361  -1.889   7.321   4.600  0.4887  0.7193  0.1099
  511MOL0     C67362  -1.995   7.215   4.620 -0.2357  0.0504  0.1083
  511MOL0     C67363  -1.939   7.082   4.665 -0.6620  0.7285 -0.3586
  511MOL0    Cl67364  -1.862   6.974   4.550  0.4412 -0.0022  0.1759
  511MOL0     C67365  -1.312   7.664   4.305  0.4127 -0.1260 -0.0022
  511MOL0     C67366  -1.214   7.688   4.390 -0.5859 -0.1189 -0.3119
  511MOL0     O67367  -1.186   7.789   4.791  0.3166  0.1826  0.2857
  511MOL0     C67368  -0.860   7.810   4.669 -0.3728 -0.4498 -0.4666
  511MOL0     C67369  -0.724   7.848   4.707  0.2218 -0.4598  0.6448
  511MOL0     N67370  -0.013   7.893   4.976 -0.7152 -0.5873 -0.2231
  511MOL0     N67371   0.079   7.894   5.071 -0.1425  0.3276 -0.0312
  511MOL0     C67372   1.285   8.079   5.341  0.4568 -0.8806  0.0313
  511MOL0     C67373   1.416   8.120   5.333 -0.0924  0.7699  0.5463
  511MOL0     C67374   1.857   8.125   5.374 -0.1513 -0.9321  0.0284
  511MOL0     C67375   1.903   8.236   5.442 -0.2609  0.7832  0.0392
  511MOL0     C67376   2.033   8.287   5.432 -0.0289 -0.1221 -0.3334
  511MOL0     C67377   2.123   8.227   5.342 -0.2737  1.2459  0.5859
  511MOL0     O67378   2.259   8.251   5.321  0.0372  0.0559 -0.8126
  511MOL0     C67379   2.315   8.361   5.395 -0.6085  0.3733  0.5900
  511MOL0     C67380   2.461   8.368   5.353 -0.2051 -0.0529 -0.3397
  511MOL0     C67381   2.531   8.488   5.422  0.6708  0.4486 -0.7860
  511MOL0     C67382   2.661   8.522   5.347  0.9992  0.3154 -0.3046
  511MOL0     C67383   2.761   8.412   5.356  0.3232 -0.3265  0.3875
  511MOL0     C67384   2.826   8.310   5.343 -0.7981 -0.1944  0.1905
  511MOL0     C67385   2.074   8.116   5.268 -0.3164 -0.5186 -0.3290
  511MOL0     C67386   1.951   8.065   5.295  0.6172  0.3775  0.7851
  511MOL0     H67387   1.503   8.059   5.654  3.2440  5.2105 -0.8337
  511MOL0     H67388   1.271   7.991   5.674 -2.4348  0.8469 -1.4470
  511MOL0     H67389   1.016   7.942   5.285 -3.8087 -0.6952  0.4346
  511MOL0     H67390   1.003   8.114   5.336  1.9706  0.0993  0.1521
  511MOL0     H67391   0.855   8.053   5.516  1.0779 -0.4917  1.6663
  511MOL0     H67392   0.872   7.880   5.490  0.2795  0.4361  1.3880
  511MOL0     H67393   0.776   7.902   5.266 -1.0368 -1.7296  1.9819
  511MOL0     H67394   0.785   8.085   5.274 -1.6387  0.6672  0.9153
  511MOL0     H67395   0.608   7.917   5.440 -1.3467 -0.8593 -2.2191
  511MOL0     H67396   0.632   8.095   5.463 -2.1129 -0.3842 -0.3592
  511MOL0     H67397   0.532   7.941   5.214 -1.9772 -2.0715  1.0761
  511MOL0     H67398   0.574   8.115   5.222  2.6579 -2.9713 -2.1544
  511MOL0     H67399   0.388   8.121   5.404  0.1600 -4.5888  3.4558
  511MOL0     H67400   0.371   7.943   5.379 -3.3386 -0.4369  0.5694
  511MOL0     H67401   0.300   8.155   5.177  0.9349 -0.0239 -1.5242
  511MOL0     H67402   0.320   7.993   5.144  0.3618  1.0212  0.5919
  511MOL0     H67403   0.100   8.115   5.316  3.0594  3.4132 -2.7946
  511MOL0     H67404   0.144   7.936   5.330  0.5408  1.6758  3.3056
  511MOL0     H67405  -0.069   8.167   5.146  0.0707 -0.3367 -1.1697
  511MOL0     H67406  -0.169   8.050   4.792  2.0451  2.3282 -0.8080
  511MOL0     H67407  -0.142   8.187   4.891  1.7562 -0.1457 -1.0872
  511MOL0     H67408  -0.375   8.128   4.853  1.6597  0.4849 -0.0284
  511MOL0     H67409  -0.340   8.129   5.031  2.4695  0.9118  0.0788
  511MOL0     H67410  -0.333   7.867   4.871 -0.5324  0.3729  0.2949
  511MOL0     H67411  -0.312   7.884   5.040  0.3818  0.8122  0.6806
  511MOL0     H67412  -0.563   7.947   5.053 -0.1647  3.4428 -2.1625
  511MOL0     H67413  -0.530   7.794   4.951  1.9627 -0.2296 -3.9790
  511MOL0     H67414  -0.795   7.986   4.997  1.1831 -0.2966  0.7087
  511MOL0     H67415  -1.035   7.926   4.932 -0.3959  1.2884  0.7476
  511MOL0     H67416  -1.391   7.855   4.639 -0.8173 -1.1886  1.9243
  511MOL0     H67417  -1.570   7.761   4.505 -0.3781  1.3285 -3.8128
  511MOL0     H67418  -1.494   7.445   4.297 -0.3674  0.4471 -1.2430
  511MOL0     H67419  -1.638   7.482   4.206  0.5664  0.8506 -0.5582
  511MOL0     H67420  -1.622   7.509   4.505  0.0789 -0.5058  0.0276
  511MOL0     H67421  -1.708   7.395   4.399 -0.7561 -0.2297  4.4103
  511MOL0     H67422  -1.857   7.574   4.326 -0.4887 -0.5279 -0.0288
  511MOL0     H67423  -1.747   7.689   4.414  1.1510 -0.6132 -1.2849
  511MOL0     H67424  -1.804   7.585   4.631 -1.5087  1.0992  1.9529
  511MOL0     H67425  -1.939   7.662   4.557 -0.4436 -0.7598  1.2798
  511MOL0     H67426  -1.984   7.424   4.440  1.4275 -1.7158 -0.3177
  511MOL0     H67427  -2.038   7.471   4.608  0.7847  0.3853  0.1276
  511MOL0     H67428  -1.846   7.343   4.698  0.5585  2.4058 -0.2721
  511MOL0     H67429  -1.810   7.282   4.535  1.9684 -0.3492  2.4339
  511MOL0     H67430  -2.056   7.248   4.705 -0.1987 -0.6835  0.4263
  511MOL0     H67431  -2.057   7.195   4.532  0.2799 -1.7474  0.1096
  511MOL0     H67432  -2.022   7.024   4.705 -0.3473  1.2356  1.0846
  511MOL0     H67433  -1.867   7.099   4.745 -1.2182  1.3775  0.0183
  511MOL0     H67434  -1.306   7.617   4.208  2.2753  0.1944 -0.0862
  511MOL0     H67435  -1.113   7.669   4.355 -0.2672  2.8525 -1.2965
  511MOL0     H67436  -0.880   7.751   4.580  2.6956 -1.9068 -0.3055
  511MOL0     H67437  -0.646   7.834   4.633  1.5068  3.6127  0.9939
  511MOL0     H67438   1.232   8.071   5.246  0.3691  0.7565 -0.0799
  511MOL0     H67439   1.454   8.145   5.235 -0.2125  0.2830  0.3698
  511MOL0     H67440   1.826   8.287   5.499 -2.4115  0.2305 -2.2173
  511MOL0     H67441   2.074   8.365   5.496 -0.4660  0.7009 -1.0305
  511MOL0     H67442   2.307   8.329   5.499  0.6204  0.3123  0.6847
  511MOL0     H67443   2.252   8.447   5.372  2.4879  2.6334 -0.0945
  511MOL0     H67444   2.513   8.275   5.378 -1.1187 -1.2700 -2.6885
  511MOL0     H67445   2.470   8.377   5.244  0.3571 -0.4624 -0.3294
  511MOL0     H67446   2.535   8.461   5.528 -2.1151  0.1697 -0.6850
  511MOL0     H67447   2.463   8.574   5.421 -2.0778 -1.4573  2.1287
  511MOL0     H67448   2.637   8.541   5.242 -1.9517 -1.1409 -0.0044
  511MOL0     H67449   2.698   8.614   5.393 -1.6426  0.4183  1.9312
  511MOL0     H67450   2.882   8.219   5.333 -0.4574 -0.0302  0.5886
  511MOL0     H67451   2.137   8.067   5.195  1.3209  0.5770  0.2978
  511MOL0     H67452   1.918   7.980   5.236  1.5073  0.1653  0.5807
  512MOL0     O67453   8.416   9.501   6.221  0.0039 -0.1028  0.0045
  512MOL0     C67454   8.459   9.615   6.241  0.0008  0.2744 -0.5177
  512MOL0     O67455   8.384   9.726   6.234 -1.0100  0.2179  0.4524
  512MOL0     C67456   8.255   9.720   6.192 -0.1815 -0.9235  0.1408
  512MOL0     C67457   8.225   9.830   6.114  0.7405  0.8325  0.3454
  512MOL0     C67458   8.087   9.854   6.097  0.0235  0.3468 -1.2294
  512MOL0     C67459   7.995   9.751   6.125 -0.2626 -0.3509 -1.0585
  512MOL0     O67460   7.870   9.779   6.074  0.3549 -0.0817  0.3510
  512MOL0     C67461   7.765   9.675   6.065 -0.2324 -0.1045  0.0759
  512MOL0     C67462   7.670   9.671   6.189 -0.1949  0.3758  0.6369
  512MOL0     C67463   7.617   9.809   6.234  0.1087 -0.9073 -0.0249
  512MOL0     C67464   7.527   9.817   6.363  0.0081 -0.3046 -0.5044
  512MOL0     C67465   7.382   9.790   6.325  0.2063 -0.7126 -0.8336
  512MOL0     C67466   7.354   9.657   6.252  0.7793  0.6491 -0.3385
  512MOL0     C67467   7.213   9.601   6.257 -0.4017  0.0266 -0.1832
  512MOL0     C67468   7.196   9.449   6.215  0.1692  0.4682  0.3564
  512MOL0     N67469   7.207   9.441   6.067 -0.6878  0.3378 -0.1740
  512MOL0     C67470   7.323   9.433   5.988 -0.5708  0.2261 -0.2712
  512MOL0     C67471   7.286   9.482   5.870 -0.5587 -1.3886  0.0214
  512MOL0     C67472   7.364   9.494   5.742  0.7411  0.0340 -0.0348
  512MOL0     C67473   7.514   9.515   5.753  1.2576  0.1351 -0.2955
  512MOL0     C67474   7.576   9.574   5.624  0.1001 -0.8009  1.2215
  512MOL0     C67475   7.728   9.611   5.647  0.3631  0.3066 -0.3555
  512MOL0     O67476   7.803   9.510   5.699  0.3668  0.1137  0.5375
  512MOL0     C67477   7.920   9.529   5.769  1.2628 -0.1863 -0.6221
  512MOL0     C67478   7.985   9.650   5.784  0.0798  0.0704  0.5550
  512MOL0     C67479   8.121   9.652   5.824 -0.2321  0.0468 -0.0320
  512MOL0     C67480   8.195   9.534   5.829  1.2484 -0.4036  0.9698
  512MOL0     C67481   8.338   9.540   5.841  0.5143  0.1886 -0.0490
  512MOL0     O67482   8.392   9.662   5.818 -0.0301  0.4953 -0.5674
  512MOL0     C67483   8.514   9.698   5.866 -0.7030 -0.3730  0.3555
  512MOL0     C67484   8.523   9.837   5.890  0.3489  0.5542  0.2646
  512MOL0     C67485   8.644   9.887   5.957 -0.1236 -0.4977  0.6085
  512MOL0     C67486   8.755   9.808   5.972 -0.6111  0.5887 -0.0179
  512MOL0     O67487   8.869   9.867   6.029  0.2624  0.3828 -0.3486
  512MOL0     C67488   8.990   9.852   5.941  0.6270  0.1164 -0.2659
  512MOL0     C67489   9.112   9.864   6.023  0.1842  0.7016 -0.6649
  512MOL0     C67490   9.229   9.856   5.932  0.1254  0.7206  0.3745
  512MOL0     C67491   9.344   9.931   6.008  0.0393 -0.3483  0.4012
  512MOL0     C67492   9.473   9.886   5.945 -0.2061 -0.9655 -0.0326
  512MOL0     C67493   9.601   9.950   6.015 -0.0496 -0.0098 -0.1932
  512MOL0     C67494   9.730   9.883   5.963  0.9267 -0.4343  0.4821
  512MOL0     C67495   9.863   9.928   6.016 -0.4733 -0.4404  0.8413
  512MOL0    Cl67496  10.009   9.843   5.946 -0.1399 -0.2743 -0.1065
  512MOL0     C67497   8.744   9.672   5.936 -0.7791  0.0866 -0.1394
  512MOL0     C67498   8.625   9.620   5.891 -0.2539  1.0896 -0.3019
  512MOL0     O67499   8.395   9.449   5.892 -0.7875 -0.1554 -0.4409
  512MOL0     C67500   8.123   9.415   5.830 -0.0497  0.2589  0.3881
  512MOL0     C67501   7.985   9.412   5.794  0.1808  0.4281  0.0895
  512MOL0     N67502   7.150   9.502   5.868 -0.1593  0.4391 -0.3763
  512MOL0     N67503   7.103   9.478   5.985  0.4818 -0.3547 -0.9269
  512MOL0     C67504   8.032   9.629   6.194 -0.5645 -0.1024 -0.0114
  512MOL0     C67505   8.166   9.624   6.238  0.5355  0.7495  0.5203
  512MOL0     C67506   8.607   9.607   6.266 -0.1298  0.8833  0.4157
  512MOL0     C67507   8.685   9.496   6.244 -1.3156 -0.0424 -0.5076
  512MOL0     C67508   8.829   9.502   6.269 -0.0301  0.2780 -0.3723
  512MOL0     C67509   8.894   9.625   6.300 -0.9182 -0.2090  0.3629
  512MOL0     O67510   9.024   9.635   6.329  0.0599  0.9247 -0.6643
  512MOL0     C67511   9.108   9.518   6.339  0.5391  0.5146  0.3653
  512MOL0     C67512   9.250   9.564   6.377 -0.7235  0.0133 -0.0079
  512MOL0     C67513   9.354   9.448   6.390 -0.7518  0.7202  0.0201
  512MOL0     C67514   9.488   9.487   6.433 -1.2855  0.6150 -0.5037
  512MOL0     C67515   9.549   9.607   6.372  0.1504  0.4730  1.0265
  512MOL0     C67516   9.616   9.698   6.326 -0.1349  0.2272 -0.0004
  512MOL0     C67517   8.813   9.731   6.332  0.0354 -0.2259  0.2161
  512MOL0     C67518   8.672   9.718   6.319  0.0963 -0.2672  0.3718
  512MOL0     H67519   8.294   9.902   6.072  1.1174  0.0451 -0.4063
  512MOL0     H67520   8.056   9.941   6.040  0.0326  0.1058 -1.6060
  512MOL0     H67521   7.812   9.581   6.039 -1.2792 -0.1225 -1.9388
  512MOL0     H67522   7.709   9.684   5.972  1.4188 -1.7633 -1.1407
  512MOL0     H67523   7.718   9.636   6.281 -0.0280 -1.4393 -0.0888
  512MOL0     H67524   7.584   9.610   6.159 -1.1680  1.9314  0.1721
  512MOL0     H67525   7.556   9.849   6.152  1.4061 -0.3912 -0.7710
  512MOL0     H67526   7.699   9.879   6.253  0.6094 -1.7626  1.0652
  512MOL0     H67527   7.561   9.748   6.441 -0.9230 -0.9147 -0.6172
  512MOL0     H67528   7.526   9.918   6.404 -1.8820 -1.1968  1.9570
  512MOL0     H67529   7.341   9.872   6.265 -0.3599 -1.3671 -1.3529
  512MOL0     H67530   7.326   9.799   6.419 -2.3132  0.6147 -2.3526
  512MOL0     H67531   7.409   9.567   6.284 -0.5359  0.1913  0.7051
  512MOL0     H67532   7.372   9.676   6.146 -2.2805 -0.5442 -1.1711
  512MOL0     H67533   7.162   9.617   6.353 -1.2895  1.8296 -0.9141
  512MOL0     H67534   7.155   9.661   6.187  2.2951  1.4182 -1.3398
  512MOL0     H67535   7.095   9.423   6.248  0.8010  1.7240  3.6953
  512MOL0     H67536   7.267   9.384   6.268 -1.5559 -0.0075  2.1752
  512MOL0     H67537   7.421   9.402   6.024 -1.4268 -1.8857  0.3990
  512MOL0     H67538   7.318   9.570   5.678  1.2448  2.5062  2.3503
  512MOL0     H67539   7.347   9.399   5.690 -0.2257  0.2061 -0.0546
  512MOL0     H67540   7.556   9.416   5.769 -1.4175 -0.9377  0.6936
  512MOL0     H67541   7.532   9.586   5.834 -2.3357 -2.2061  2.9040
  512MOL0     H67542   7.561   9.500   5.545  1.9834  0.5918 -0.5464
  512MOL0     H67543   7.524   9.667   5.601  0.1489 -1.4887 -2.0753
  512MOL0     H67544   7.740   9.696   5.715 -1.6419 -1.2563  2.1153
  512MOL0     H67545   7.775   9.645   5.554 -0.6186  0.8246 -0.6733
  512MOL0     H67546   7.931   9.744   5.772 -0.8291 -0.6560 -1.3185
  512MOL0     H67547   8.164   9.752   5.832 -4.1204  1.9269  0.0174
  512MOL0     H67548   8.446   9.905   5.856 -0.8783 -1.2735 -0.8048
  512MOL0     H67549   8.644   9.991   5.989  2.3213 -0.2428 -0.0330
  512MOL0     H67550   8.986   9.926   5.861 -0.9118  2.4999  1.8512
  512MOL0     H67551   8.995   9.753   5.894  3.7610 -0.2641  0.5889
  512MOL0     H67552   9.119   9.793   6.106  0.7814  0.6933 -0.7134
  512MOL0     H67553   9.096   9.961   6.073 -1.0110  0.5602 -0.7434
  512MOL0     H67554   9.219   9.903   5.833 -0.4930  1.5128  0.7952
  512MOL0     H67555   9.244   9.749   5.919 -2.6836  0.1798  0.9338
  512MOL0     H67556   9.340  10.040   5.998  1.5790 -0.2876  0.1879
  512MOL0     H67557   9.347   9.901   6.114  0.9236  0.9493  0.7705
  512MOL0     H67558   9.479   9.904   5.837  0.9065 -3.0278 -0.3572
  512MOL0     H67559   9.481   9.778   5.952  2.4523 -1.2983 -4.3849
  512MOL0     H67560   9.585   9.931   6.122 -0.7027  1.2093 -0.0600
  512MOL0     H67561   9.605  10.057   5.993 -1.8861  0.2611  0.6034
  512MOL0     H67562   9.724   9.777   5.991  0.4725 -0.8247 -0.9897
  512MOL0     H67563   9.738   9.897   5.854 -0.8780  0.5627  0.4519
  512MOL0     H67564   9.852   9.909   6.124 -1.9320  1.3414  1.0513
  512MOL0     H67565   9.874  10.036   6.000  1.3031 -0.8914 -1.4828
  512MOL0     H67566   8.825   9.601   5.945 -0.1872  0.8538  0.7708
  512MOL0     H67567   8.634   9.514   5.872 -0.9438  1.2290 -1.5935
  512MOL0     H67568   8.180   9.323   5.844 -0.1707  0.2831  1.0848
  512MOL0     H67569   7.945   9.312   5.778 -1.9212  0.7876  2.3807
  512MOL0     H67570   7.959   9.550   6.204 -0.8945 -0.0538 -1.7306
  512MOL0     H67571   8.205   9.542   6.298 -1.1274  0.3425  1.1085
  512MOL0     H67572   8.640   9.401   6.216 -0.6315 -1.0085  1.4655
  512MOL0     H67573   8.888   9.411   6.258 -1.3784 -0.6495 -0.0952
  512MOL0     H67574   9.107   9.458   6.247 -0.1879  2.3546 -0.8870
  512MOL0     H67575   9.076   9.451   6.420  3.6344 -1.9011 -0.1902
  512MOL0     H67576   9.294   9.622   6.295 -0.7803  0.1439  0.0535
  512MOL0     H67577   9.260   9.627   6.465  1.9774  1.6931 -1.4018
  512MOL0     H67578   9.365   9.400   6.292  0.3680  1.1766 -0.0901
  512MOL0     H67579   9.309   9.379   6.462 -1.4532  0.7120 -0.4125
  512MOL0     H67580   9.474   9.508   6.539  1.4472  1.5803 -0.2376
  512MOL0     H67581   9.555   9.401   6.433 -2.2224 -0.2596  2.8532
  512MOL0     H67582   9.672   9.777   6.279  2.3897 -0.6847  1.2730
  512MOL0     H67583   8.859   9.822   6.368  0.7381  0.1277 -1.5054
  512MOL0     H67584   8.609   9.803   6.341 -0.8956 -0.8992  0.0190
  513MOL0     O67585   7.710   5.362  10.442 -0.7907 -0.3557 -0.6145
  513MOL0     C67586   7.719   5.240  10.465  0.0149  0.4287 -0.5688
  513MOL0     O67587   7.612   5.154  10.486  0.8172  0.3381  0.0752
  513MOL0     C67588   7.488   5.212  10.507 -0.0538 -0.6684 -0.8286
  513MOL0     C67589   7.449   5.239  10.637  0.2416 -0.4416 -0.2144
  513MOL0     C67590   7.333   5.300  10.673  0.9818 -0.0126  0.5786
  513MOL0     C67591   7.247   5.336  10.569 -0.0861 -0.1034 -0.5898
  513MOL0     O67592   7.130   5.400  10.611 -0.8526 -0.1746  0.0029
  513MOL0     C67593   7.075   5.503  10.525 -0.1534  1.1788  0.0446
  513MOL0     C67594   6.948   5.443  10.462 -1.1712 -0.5376  0.0383
  513MOL0     C67595   6.859   5.559  10.399  1.2190 -0.5143  0.3335
  513MOL0     C67596   6.732   5.506  10.332  0.7044 -0.6048 -0.5365
  513MOL0     C67597   6.629   5.602  10.270 -0.8787  0.3720 -0.0520
  513MOL0     C67598   6.556   5.709  10.357 -0.3268 -0.3305 -0.0227
  513MOL0     C67599   6.416   5.731  10.294  0.1277 -0.2240  0.1243
  513MOL0     C67600   6.426   5.785  10.152 -0.6521  0.2209 -0.4231
  513MOL0     N67601   6.285   5.820  10.102  0.0914  0.2097  0.0265
  513MOL0     C67602   6.240   5.828   9.971  0.0081 -0.1214 -0.3152
  513MOL0     C67603   6.116   5.889   9.970 -0.1064 -0.2839 -1.1690
  513MOL0     C67604   6.047   5.903   9.842  0.3415 -0.0571 -0.2042
  513MOL0     C67605   5.894   5.935   9.859 -1.0931  0.2345  0.3913
  513MOL0     C67606   5.818   5.806   9.893 -0.2430 -0.8934  0.5218
  513MOL0     C67607   5.666   5.838   9.911  0.6058  0.5119 -0.6016
  513MOL0     O67608   5.615   5.897   9.786 -0.3920 -0.1125 -0.3754
  513MOL0     C67609   5.481   5.945   9.789 -0.1831  0.9430  1.0121
  513MOL0     C67610   5.398   5.966   9.894 -0.3717 -0.3044 -0.1101
  513MOL0     C67611   5.263   6.015   9.877 -0.0121 -0.5276  0.9749
  513MOL0     C67612   5.208   6.033   9.747  0.1864 -0.5169 -1.2105
  513MOL0     C67613   5.073   6.100   9.734 -0.4159  0.2091 -0.4140
  513MOL0     O67614   5.045   6.150   9.612  0.1124 -0.0584  0.1742
  513MOL0     C67615   4.932   6.233   9.608 -0.2235  0.8662  0.8843
  513MOL0     C67616   4.819   6.191   9.546  0.2800 -0.1126 -0.6015
  513MOL0     C67617   4.710   6.273   9.517  1.1846 -0.5597  0.6359
  513MOL0     C67618   4.716   6.409   9.543  0.3161  0.4291 -0.9555
  513MOL0     O67619   4.623   6.501   9.514  0.0222  0.1052 -0.9653
  513MOL0     C67620   4.503   6.453   9.454  0.6074  0.3054 -0.2638
  513MOL0     C67621   4.418   6.564   9.404  0.5279  0.2893 -0.0019
  513MOL0     C67622   4.290   6.511   9.342  0.0388  0.2599  0.5865
  513MOL0     C67623   4.199   6.613   9.275 -0.3790  0.9052  0.7024
  513MOL0     C67624   4.099   6.549   9.167  0.7024  0.3328 -0.6089
  513MOL0     C67625   4.166   6.500   9.032 -0.1813 -0.6178 -0.8084
  513MOL0     C67626   4.218   6.610   8.936  0.1138 -0.7497 -0.2916
  513MOL0     C67627   4.247   6.555   8.790 -0.0701 -0.2501  0.4892
  513MOL0    Cl67628   4.096   6.481   8.729 -0.2730 -0.2606  0.3730
  513MOL0     C67629   4.840   6.457   9.589 -0.2492 -0.0397  0.4432
  513MOL0     C67630   4.947   6.371   9.625  0.4131  1.0012 -0.1752
  513MOL0     O67631   5.003   6.106   9.835  0.2691  0.9175  0.1649
  513MOL0     C67632   5.286   5.992   9.635 -0.3998  0.4771 -0.4908
  513MOL0     C67633   5.426   5.961   9.660  0.5383  0.6686 -0.2366
  513MOL0     N67634   6.088   5.927  10.103 -0.2687 -0.6349  0.3251
  513MOL0     N67635   6.188   5.881  10.173 -0.0070 -0.0326 -0.7041
  513MOL0     C67636   7.279   5.306  10.437 -0.3426 -0.1594  0.1938
  513MOL0     C67637   7.406   5.254  10.410  0.8203  0.1088 -0.0095
  513MOL0     C67638   7.854   5.177  10.464 -1.3430  0.0789 -0.2216
  513MOL0     C67639   7.970   5.244  10.480 -0.2768  0.6549  0.6016
  513MOL0     C67640   8.100   5.173  10.471  0.1565 -0.2857 -0.1434
  513MOL0     C67641   8.101   5.034  10.461 -0.4145 -0.1551 -0.2735
  513MOL0     O67642   8.224   4.974  10.460  0.4056  0.3697  0.3344
  513MOL0     C67643   8.234   4.838  10.510  0.3705  0.3814 -0.8667
  513MOL0     C67644   8.364   4.802  10.572 -0.8523 -0.2980  1.4271
  513MOL0     C67645   8.484   4.773  10.479 -0.1415  0.9054 -0.7858
  513MOL0     C67646   8.486   4.637  10.426 -1.0376  1.1813  0.2913
  513MOL0     C67647   8.539   4.553  10.533 -0.0573  0.1613 -0.6604
  513MOL0     C67648   8.587   4.489  10.622  0.2941  0.1420 -0.0055
  513MOL0     C67649   7.979   4.960  10.456 -1.4527  1.0077 -0.5083
  513MOL0     C67650   7.859   5.035  10.451  0.1329  0.1745 -0.0455
  513MOL0     H67651   7.525   5.218  10.711  0.9396  1.5231 -0.3031
  513MOL0     H67652   7.306   5.321  10.776 -0.7063 -1.5272  0.4960
  513MOL0     H67653   7.144   5.537  10.447  1.3738  0.3503  0.9930
  513MOL0     H67654   7.052   5.585  10.594  0.8233  2.1083 -0.7100
  513MOL0     H67655   6.882   5.392  10.533 -2.7521  0.4517 -0.6577
  513MOL0     H67656   6.987   5.376  10.385  0.6596 -0.3497  0.7652
  513MOL0     H67657   6.912   5.625  10.329  0.4362  1.8607  1.8703
  513MOL0     H67658   6.824   5.626  10.478  0.3685 -2.0830  1.3335
  513MOL0     H67659   6.771   5.440  10.254  1.2362  0.2667 -1.0219
  513MOL0     H67660   6.679   5.443  10.404  0.5619  1.2437  1.0548
  513MOL0     H67661   6.548   5.540  10.232 -1.7614  1.8051 -0.6034
  513MOL0     H67662   6.677   5.642  10.180  1.5630 -3.3214 -0.5994
  513MOL0     H67663   6.603   5.807  10.369 -1.2674 -0.1902  4.1252
  513MOL0     H67664   6.543   5.680  10.462 -5.9842 -2.3159 -0.9200
  513MOL0     H67665   6.342   5.651  10.298 -0.0110 -0.2623 -1.9789
  513MOL0     H67666   6.379   5.817  10.351 -0.3093  0.5408 -1.2542
  513MOL0     H67667   6.478   5.719  10.083  1.5428  2.5565 -1.1743
  513MOL0     H67668   6.489   5.874  10.161  0.8106 -0.9211  1.2474
  513MOL0     H67669   6.301   5.811   9.883 -1.3938 -3.2297 -0.8165
  513MOL0     H67670   6.053   5.815   9.778  1.4278  1.1529 -1.8480
  513MOL0     H67671   6.102   5.983   9.791  3.2223 -2.2839 -0.7828
  513MOL0     H67672   5.858   5.982   9.767  0.8173  3.6847  1.2325
  513MOL0     H67673   5.879   6.009   9.939  2.2767  1.2646  0.2278
  513MOL0     H67674   5.826   5.731   9.813 -3.5264 -0.9312  0.0781
  513MOL0     H67675   5.855   5.765   9.987  0.2228 -1.1123  0.2512
  513MOL0     H67676   5.660   5.911   9.993  2.2989 -0.0653  0.0717
  513MOL0     H67677   5.608   5.753   9.949 -3.1278  2.4014 -1.6128
  513MOL0     H67678   5.428   5.956   9.998 -2.6373 -1.4678  0.4941
  513MOL0     H67679   5.194   6.029   9.960 -0.9123  0.9727  0.0178
  513MOL0     H67680   4.811   6.085   9.525  0.3713  0.3263 -3.1324
  513MOL0     H67681   4.635   6.223   9.456  1.9909 -3.6273  1.9778
  513MOL0     H67682   4.452   6.398   9.534  1.7629 -1.7801 -0.8794
  513MOL0     H67683   4.520   6.383   9.371 -0.6986 -3.8446  2.6211
  513MOL0     H67684   4.470   6.614   9.321 -0.4186 -3.2947 -3.0402
  513MOL0     H67685   4.404   6.629   9.490 -1.8521 -1.8641  1.3909
  513MOL0     H67686   4.226   6.454   9.411 -0.6093  0.2576 -0.0119
  513MOL0     H67687   4.320   6.437   9.267  2.2213  3.0671 -1.5045
  513MOL0     H67688   4.135   6.665   9.347 -2.5929 -1.1518  0.3382
  513MOL0     H67689   4.256   6.689   9.221 -1.0192  0.3935 -0.7746
  513MOL0     H67690   4.033   6.630   9.136 -0.0872  1.2347  2.9545
  513MOL0     H67691   4.040   6.464   9.202 -0.8026 -0.3630 -4.4098
  513MOL0     H67692   4.087   6.442   8.984 -0.7690 -1.0640  0.6415
  513MOL0     H67693   4.249   6.433   9.055  0.7670  0.1180 -1.9730
  513MOL0     H67694   4.141   6.686   8.923 -0.9812 -1.8419 -0.3777
  513MOL0     H67695   4.312   6.645   8.980 -0.4909  1.5990 -0.7302
  513MOL0     H67696   4.316   6.472   8.806 -1.9750 -2.1966 -0.9260
  513MOL0     H67697   4.302   6.620   8.720  0.8672  0.4277  1.8144
  513MOL0     H67698   4.853   6.565   9.596 -1.1123  0.0704  0.5654
  513MOL0     H67699   5.040   6.412   9.660  1.6302 -1.7612  0.0813
  513MOL0     H67700   5.238   5.975   9.539  0.0792 -1.9558 -0.3559
  513MOL0     H67701   5.492   5.944   9.576 -2.2775 -2.0590 -2.1011
  513MOL0     H67702   7.219   5.331  10.350  2.1072  1.2237 -1.2064
  513MOL0     H67703   7.431   5.229  10.308 -2.0288  0.7698 -0.9567
  513MOL0     H67704   7.974   5.348  10.512 -0.5048  0.7567  0.3141
  513MOL0     H67705   8.193   5.223  10.498 -0.6960  1.4523 -0.2726
  513MOL0     H67706   8.203   4.769  10.431  0.3844 -0.7578  0.0994
  513MOL0     H67707   8.167   4.830  10.596  0.6883 -0.3223 -0.6813
  513MOL0     H67708   8.396   4.876  10.646  1.3269  3.3719 -2.7814
  513MOL0     H67709   8.343   4.714  10.634 -1.6327 -0.9116  0.3128
  513MOL0     H67710   8.577   4.803  10.528 -1.2049  2.1265  0.5797
  513MOL0     H67711   8.469   4.829  10.386 -2.1093 -0.0821 -1.1046
  513MOL0     H67712   8.390   4.604  10.387  0.5712  0.6654 -3.7507
  513MOL0     H67713   8.561   4.630  10.346 -1.1955  0.0147  0.2350
  513MOL0     H67714   8.639   4.453  10.709  1.5089  0.1135 -0.7218
  513MOL0     H67715   7.978   4.852  10.442 -0.6016  0.9371 -0.0706
  513MOL0     H67716   7.764   4.983  10.447  0.0642  0.2542  0.4143
  514MOL0     O67717   5.692  11.085   8.206 -0.1297 -0.4069  0.0217
  514MOL0     C67718   5.758  11.024   8.129  0.4715  0.2524  0.9491
  514MOL0     O67719   5.720  10.918   8.051 -1.0510  0.0011 -0.1297
  514MOL0     C67720   5.594  10.865   8.049  0.5584  0.4696 -0.1350
  514MOL0     C67721   5.519  10.860   8.167  0.1198 -0.2745  0.2438
  514MOL0     C67722   5.386  10.820   8.159  0.2255  0.1469  0.4370
  514MOL0     C67723   5.319  10.787   8.038 -0.3961  0.8293  0.9967
  514MOL0     O67724   5.186  10.745   8.043 -0.6552  0.0480 -0.5961
  514MOL0     C67725   5.105  10.784   7.935 -0.0872 -0.5167  0.3824
  514MOL0     C67726   4.956  10.763   7.973 -0.5669 -0.8152 -0.6901
  514MOL0     C67727   4.853  10.797   7.866 -0.0300  0.5441  0.3015
  514MOL0     C67728   4.733  10.860   7.939  0.4695 -0.3566  0.4443
  514MOL0     C67729   4.608  10.886   7.852 -0.1222 -0.3107 -0.3630
  514MOL0     C67730   4.478  10.877   7.923  0.0518  0.3787  0.1483
  514MOL0     C67731   4.348  10.862   7.840  0.4369  0.1085  0.0390
  514MOL0     C67732   4.317  11.007   7.778  0.0316 -0.3412 -0.3200
  514MOL0     N67733   4.176  11.020   7.753  0.5817  0.1671 -0.0000
  514MOL0     C67734   4.088  11.019   7.860  0.0368 -0.4843 -0.1868
  514MOL0     C67735   3.966  10.997   7.801 -0.3237  0.0749  0.3784
  514MOL0     C67736   3.840  10.996   7.879 -0.3106  0.0592 -0.1513
  514MOL0     C67737   3.721  11.017   7.791 -1.1496  0.3599  0.6536
  514MOL0     C67738   3.596  11.020   7.878 -0.6376  0.0545 -0.0325
  514MOL0     C67739   3.483  11.061   7.791 -0.7932  0.0517  0.2612
  514MOL0     O67740   3.366  11.057   7.862  0.3875 -0.2284  0.0643
  514MOL0     C67741   3.251  11.105   7.799  0.2881 -0.2133 -0.1415
  514MOL0     C67742   3.255  11.198   7.694  0.4217  0.0445  0.8193
  514MOL0     C67743   3.135  11.227   7.636 -0.2779  0.2201 -0.0514
  514MOL0     C67744   3.012  11.171   7.683 -0.0898 -0.1746 -0.5338
  514MOL0     C67745   2.879  11.202   7.625  0.4977 -0.8317 -0.9759
  514MOL0     O67746   2.766  11.131   7.667  0.8891  0.6091 -0.1375
  514MOL0     C67747   2.644  11.166   7.611 -0.2385 -0.1619  0.3109
  514MOL0     C67748   2.620  11.186   7.474 -0.5211 -0.6221 -0.0207
  514MOL0     C67749   2.490  11.224   7.434  0.8207 -0.2753  0.8840
  514MOL0     C67750   2.383  11.235   7.525 -0.2444  0.0074 -0.2911
  514MOL0     O67751   2.259  11.279   7.490 -0.6272  0.3572  0.5945
  514MOL0     C67752   2.153  11.313   7.576  0.4784  0.5513  0.2109
  514MOL0     C67753   2.027  11.330   7.483  0.6842  0.3566  0.4479
  514MOL0     C67754   2.017  11.233   7.365 -0.1243  1.5134 -0.4968
  514MOL0     C67755   1.897  11.237   7.265 -0.6850  0.1120 -0.2103
  514MOL0     C67756   1.772  11.205   7.336  0.3107 -0.8705 -0.5617
  514MOL0     C67757   1.661  11.150   7.250  0.8923 -0.5289  0.6253
  514MOL0     C67758   1.523  11.145   7.320  0.0587  0.3879  0.0053
  514MOL0     C67759   1.468  11.287   7.341 -0.0174  0.7714  0.1811
  514MOL0    Cl67760   1.297  11.279   7.407 -0.2037  0.0361  0.3211
  514MOL0     C67761   2.408  11.224   7.663 -0.4195 -0.4442 -0.6613
  514MOL0     C67762   2.548  11.198   7.700  0.0531  0.3418 -0.4498
  514MOL0     O67763   2.882  11.303   7.555  0.3405 -0.6350 -0.8747
  514MOL0     C67764   3.014  11.089   7.793  0.4795  0.2169  0.1637
  514MOL0     C67765   3.135  11.057   7.845  0.5192 -0.3773  0.0701
  514MOL0     N67766   3.986  10.982   7.664 -0.2164  0.3181  0.1461
  514MOL0     N67767   4.114  10.987   7.635  0.9789 -0.1558 -0.2290
  514MOL0     C67768   5.400  10.791   7.915  0.6681  0.0242  0.3501
  514MOL0     C67769   5.534  10.830   7.929 -0.7662 -0.6256 -0.0781
  514MOL0     C67770   5.900  11.049   8.115  0.5548 -1.1137 -0.9416
  514MOL0     C67771   5.982  10.980   8.019  0.2851 -0.5993  0.0435
  514MOL0     C67772   6.117  10.996   8.021  0.4184 -0.1053  0.5172
  514MOL0     C67773   6.178  11.091   8.105 -0.6618  0.3461  0.0233
  514MOL0     O67774   6.317  11.109   8.114 -0.5181  0.2268 -0.2850
  514MOL0     C67775   6.376  11.141   7.984 -0.6002 -0.3623 -0.1123
  514MOL0     C67776   6.361  11.283   7.942  0.1518  0.0074  0.4508
  514MOL0     C67777   6.223  11.331   7.899  0.4352  0.2052  0.3975
  514MOL0     C67778   6.224  11.453   7.813  0.5706  0.9586 -0.6552
  514MOL0     C67779   6.089  11.514   7.830  0.6239 -0.0498 -0.1991
  514MOL0     C67780   5.984  11.570   7.843  0.3992 -0.0933  0.1122
  514MOL0     C67781   6.102  11.161   8.197  0.2079  0.1959  0.1810
  514MOL0     C67782   5.965  11.141   8.204 -0.8110 -0.2295 -0.4938
  514MOL0     H67783   5.550  10.884   8.268 -4.0449  0.7025  1.5258
  514MOL0     H67784   5.333  10.807   8.252  1.0330 -1.9543  0.6613
  514MOL0     H67785   5.115  10.733   7.839 -2.0478 -0.6449  0.2105
  514MOL0     H67786   5.117  10.892   7.927  0.2920 -0.5684  0.2415
  514MOL0     H67787   4.930  10.823   8.060  1.6990 -0.2413 -0.3565
  514MOL0     H67788   4.942  10.664   8.017  0.9039 -0.1421  1.4529
  514MOL0     H67789   4.832  10.707   7.809  2.4338 -0.5626  1.0336
  514MOL0     H67790   4.894  10.872   7.798 -0.0907 -0.1872 -0.5503
  514MOL0     H67791   4.701  10.791   8.017 -0.6632 -0.9958 -0.5487
  514MOL0     H67792   4.751  10.959   7.983 -0.1874 -0.2736  0.5346
  514MOL0     H67793   4.600  10.794   7.793  1.1613 -2.2046  2.1958
  514MOL0     H67794   4.615  10.976   7.790 -1.5156  1.3602  1.7657
  514MOL0     H67795   4.472  10.970   7.982  1.9346  0.9479 -0.5150
  514MOL0     H67796   4.487  10.783   7.978  0.3116 -1.2781 -2.5646
  514MOL0     H67797   4.366  10.784   7.766  1.9978 -0.5117  1.0250
  514MOL0     H67798   4.261  10.822   7.894  0.9151 -0.3542  0.4710
  514MOL0     H67799   4.368  11.015   7.682  0.9336 -2.0720 -0.0143
  514MOL0     H67800   4.355  11.089   7.840 -0.3889  0.0826 -0.6097
  514MOL0     H67801   4.095  11.023   7.968  1.0933 -2.5648 -0.1327
  514MOL0     H67802   3.853  11.072   7.956 -0.3045 -2.2000  2.2510
  514MOL0     H67803   3.817  10.899   7.926  1.2700 -0.0993  0.3824
  514MOL0     H67804   3.723  10.943   7.711  0.4211  1.3441 -0.2753
  514MOL0     H67805   3.740  11.108   7.733 -1.2667 -0.4500 -0.6918
  514MOL0     H67806   3.570  10.921   7.917  1.9959 -0.3408  0.9228
  514MOL0     H67807   3.599  11.098   7.955 -3.2553 -1.6101  1.9408
  514MOL0     H67808   3.476  10.990   7.708 -4.0915 -0.5112  0.9122
  514MOL0     H67809   3.508  11.160   7.750 -0.0516 -1.3901 -3.1587
  514MOL0     H67810   3.346  11.240   7.652  1.6994 -3.1466  0.0725
  514MOL0     H67811   3.135  11.304   7.560 -0.3773 -0.4545 -0.7521
  514MOL0     H67812   2.701  11.177   7.403 -0.5889  0.6884 -0.2966
  514MOL0     H67813   2.457  11.251   7.335 -1.5099 -0.4147  1.5648
  514MOL0     H67814   2.173  11.405   7.630 -0.2259  0.5660  0.4523
  514MOL0     H67815   2.131  11.233   7.647 -2.6435  1.8096  0.8380
  514MOL0     H67816   2.027  11.432   7.443 -0.6467 -0.4361 -1.7564
  514MOL0     H67817   1.941  11.321   7.551  2.8584  1.9127  3.6565
  514MOL0     H67818   2.032  11.131   7.400 -2.1062 -0.0999 -3.8237
  514MOL0     H67819   2.106  11.248   7.303  0.2456  0.1653 -0.3263
  514MOL0     H67820   1.892  11.341   7.231  0.9788  0.7012  1.1946
  514MOL0     H67821   1.904  11.173   7.177 -3.9198 -0.9377  0.1744
  514MOL0     H67822   1.742  11.305   7.370 -0.7171 -0.5315 -2.3690
  514MOL0     H67823   1.789  11.130   7.414  1.2928  1.3853  1.5312
  514MOL0     H67824   1.678  11.051   7.207 -2.0905 -0.4075 -1.1146
  514MOL0     H67825   1.646  11.215   7.163  2.9733  0.2567  0.7842
  514MOL0     H67826   1.455  11.096   7.250  1.6692 -0.4405 -1.0317
  514MOL0     H67827   1.535  11.096   7.417 -0.3795 -0.1826 -0.2220
  514MOL0     H67828   1.470  11.339   7.244  3.1961  0.8930  0.2029
  514MOL0     H67829   1.529  11.333   7.419 -0.1483  0.1095  0.6856
  514MOL0     H67830   2.335  11.254   7.738 -3.4495 -0.6848 -3.3018
  514MOL0     H67831   2.566  11.220   7.805  1.8513  2.5680 -1.1511
  514MOL0     H67832   2.933  11.039   7.845  0.5048 -3.0060 -2.5679
  514MOL0     H67833   3.126  10.988   7.928 -2.1777 -0.7529 -0.4640
  514MOL0     H67834   5.364  10.765   7.816 -0.9242 -0.8706  1.1338
  514MOL0     H67835   5.595  10.828   7.839 -0.2260  0.9352  0.2227
  514MOL0     H67836   5.944  10.914   7.942  0.9944  0.0962 -0.9270
  514MOL0     H67837   6.177  10.937   7.953  1.6701  1.1344  0.4989
  514MOL0     H67838   6.358  11.071   7.902  3.7750  0.2308 -1.8568
  514MOL0     H67839   6.483  11.136   8.006 -0.5629  1.0276  0.1182
  514MOL0     H67840   6.404  11.345   8.021 -0.9678  0.7264  0.5171
  514MOL0     H67841   6.424  11.311   7.857 -0.8178  2.1133  0.3577
  514MOL0     H67842   6.178  11.334   7.998  2.4010  2.8672  1.3157
  514MOL0     H67843   6.164  11.254   7.848  1.0679  0.1851 -0.3328
  514MOL0     H67844   6.305  11.525   7.826  0.3594  1.5892 -2.5471
  514MOL0     H67845   6.235  11.431   7.707 -1.2614  0.9634 -0.8780
  514MOL0     H67846   5.902  11.637   7.861  0.7826  0.0031  1.6854
  514MOL0     H67847   6.148  11.226   8.270  3.2376 -0.1622 -1.2596
  514MOL0     H67848   5.911  11.198   8.280  0.8417 -0.4780  0.9461
  515MOL0     O67849   7.466   4.084   9.940 -0.5978 -0.0307  0.3878
  515MOL0     C67850   7.347   4.076   9.937 -0.3994  1.1962 -0.6642
  515MOL0     O67851   7.263   4.123  10.035 -0.3677  0.5260  0.1098
  515MOL0     C67852   7.313   4.142  10.157 -0.3863  0.8464  0.0143
  515MOL0     C67853   7.392   4.044  10.225  1.2712  0.2998 -0.2316
  515MOL0     C67854   7.430   4.069  10.358 -0.2771 -0.1904 -0.1409
  515MOL0     C67855   7.408   4.187  10.428  0.4142 -0.0165 -0.1437
  515MOL0     O67856   7.459   4.203  10.557  0.5436 -0.4335  0.6374
  515MOL0     C67857   7.422   4.317  10.634 -0.1384  0.2619 -0.6537
  515MOL0     C67858   7.504   4.326  10.766  0.0985  0.3100  0.4972
  515MOL0     C67859   7.646   4.353  10.729  0.7148  0.2966 -0.8749
  515MOL0     C67860   7.717   4.394  10.862  0.1897  1.2367  0.0423
  515MOL0     C67861   7.862   4.435  10.833  0.2352  0.3753  0.6542
  515MOL0     C67862   7.914   4.496  10.960  0.4225 -0.4576  0.1527
  515MOL0     C67863   8.068   4.513  10.953  1.4422 -0.1605  0.0578
  515MOL0     C67864   8.116   4.624  10.854 -0.1852 -0.3039 -0.7550
  515MOL0     N67865   8.116   4.586  10.713  0.3607  0.1157 -0.1720
  515MOL0     C67866   8.201   4.485  10.661  0.1350  0.2522 -0.0279
  515MOL0     C67867   8.148   4.469  10.530  0.0741 -0.5536 -0.1904
  515MOL0     C67868   8.201   4.380  10.426  0.8007 -0.1910  1.1189
  515MOL0     C67869   8.134   4.240  10.431  0.7156 -0.2256  0.4093
  515MOL0     C67870   7.997   4.227  10.498  0.2201 -0.1769 -0.3555
  515MOL0     C67871   7.934   4.093  10.464 -0.5680  0.5103 -0.7753
  515MOL0     O67872   7.804   4.075  10.524 -0.6375  0.6530 -0.0549
  515MOL0     C67873   7.737   3.960  10.532 -0.0754  0.8889 -0.3034
  515MOL0     C67874   7.766   3.843  10.462  0.7860 -0.0888  0.3301
  515MOL0     C67875   7.713   3.722  10.498  0.5938  0.5910 -0.0924
  515MOL0     C67876   7.608   3.717  10.589 -0.4228  0.5440  0.6729
  515MOL0     C67877   7.544   3.584  10.621 -0.1331  0.1573  0.8458
  515MOL0     O67878   7.567   3.486  10.527 -0.2292 -0.6944 -0.3675
  515MOL0     C67879   7.507   3.368  10.517 -0.4673  0.9519  0.0132
  515MOL0     C67880   7.552   3.280  10.418  0.4084 -0.1330  0.3297
  515MOL0     C67881   7.485   3.165  10.379 -0.8706  0.1791  0.7065
  515MOL0     C67882   7.374   3.130  10.446  1.3211 -0.8179  0.9005
  515MOL0     O67883   7.311   3.016  10.407  0.0454  0.0441 -0.5807
  515MOL0     C67884   7.170   3.006  10.429 -0.0248  0.0606  0.3160
  515MOL0     C67885   7.120   2.899  10.340 -0.1046 -0.3433 -0.8029
  515MOL0     C67886   6.979   2.891  10.323  0.7053  0.1737 -0.0600
  515MOL0     C67887   6.910   2.802  10.428 -0.1959 -0.0082 -1.0213
  515MOL0     C67888   6.761   2.810  10.413 -0.9836 -0.1804 -0.3522
  515MOL0     C67889   6.680   2.693  10.474  0.1311  0.3567  0.5750
  515MOL0     C67890   6.525   2.727  10.475  0.7144 -0.2129  0.0320
  515MOL0     C67891   6.436   2.618  10.532  0.5601  0.0049 -0.4576
  515MOL0    Cl67892   6.271   2.624  10.457  0.1781  0.0324  0.1145
  515MOL0     C67893   7.317   3.214  10.543  0.3692 -0.8389 -0.6941
  515MOL0     C67894   7.387   3.329  10.587  0.0866  0.7418 -0.1346
  515MOL0     O67895   7.466   3.581  10.717  0.5894 -0.3229  0.3596
  515MOL0     C67896   7.572   3.830  10.654 -0.3107 -0.3701 -0.0662
  515MOL0     C67897   7.632   3.952  10.625 -1.2286 -0.4085 -0.6162
  515MOL0     N67898   8.037   4.557  10.520 -0.8219 -0.4812 -0.0212
  515MOL0     N67899   8.028   4.635  10.625 -0.0277 -0.0742  0.5692
  515MOL0     C67900   7.351   4.283  10.357 -0.1392 -0.3074  0.3033
  515MOL0     C67901   7.298   4.266  10.226 -0.0622  0.3813  0.4318
  515MOL0     C67902   7.302   4.017   9.803  0.2391  0.0386 -1.3430
  515MOL0     C67903   7.172   3.950   9.790 -0.8187  0.5996 -0.0841
  515MOL0     C67904   7.130   3.893   9.665  0.1310 -0.6016 -1.1129
  515MOL0     C67905   7.215   3.879   9.550  0.2404 -0.2254 -0.2323
  515MOL0     O67906   7.162   3.835   9.428  0.2363  0.3589  0.1350
  515MOL0     C67907   7.248   3.829   9.313 -0.4248 -0.7797  0.2054
  515MOL0     C67908   7.177   3.739   9.216 -0.3706  0.5686 -0.2140
  515MOL0     C67909   7.184   3.591   9.267 -0.2439  0.3689  0.5701
  515MOL0     C67910   7.104   3.486   9.190  0.1430 -0.6674  0.6788
  515MOL0     C67911   6.965   3.510   9.213 -0.4292 -0.1184 -0.0087
  515MOL0     C67912   6.853   3.536   9.248 -0.8004 -0.7575 -1.2328
  515MOL0     C67913   7.338   3.939   9.571  0.5728 -0.2415 -0.3770
  515MOL0     C67914   7.382   4.001   9.687 -0.6788  0.1408 -0.7615
  515MOL0     H67915   7.405   3.945  10.183  0.7538  0.7407 -1.4944
  515MOL0     H67916   7.477   3.987  10.411  1.1415  0.3100 -0.5758
  515MOL0     H67917   7.315   4.315  10.661  0.4301  0.0205  1.8707
  515MOL0     H67918   7.439   4.412  10.583  4.7061  0.0435  0.1189
  515MOL0     H67919   7.494   4.232  10.822 -3.9425 -0.2027 -0.7662
  515MOL0     H67920   7.468   4.409  10.826 -0.2560  0.6712 -0.2067
  515MOL0     H67921   7.633   4.439  10.663 -1.2119  1.4202  0.8193
  515MOL0     H67922   7.691   4.267  10.679  1.4370  0.8612 -1.2140
  515MOL0     H67923   7.673   4.484  10.906 -1.6506 -0.3078  1.5492
  515MOL0     H67924   7.710   4.316  10.939  1.5029  0.5231 -0.5249
  515MOL0     H67925   7.854   4.506  10.751  1.2156 -2.2920 -1.9344
  515MOL0     H67926   7.918   4.351  10.790 -1.0256  0.3968 -1.1544
  515MOL0     H67927   7.881   4.427  11.038 -2.1863 -1.5040 -1.7280
  515MOL0     H67928   7.869   4.593  10.981  0.0162 -0.7354  0.5608
  515MOL0     H67929   8.100   4.542  11.054  1.3202 -0.9938  0.3452
  515MOL0     H67930   8.118   4.416  10.946  0.5036 -0.5287 -2.9336
  515MOL0     H67931   8.214   4.659  10.889  0.2535 -2.8250  0.8187
  515MOL0     H67932   8.059   4.716  10.868 -1.1559 -1.2542  2.3438
  515MOL0     H67933   8.292   4.452  10.710  1.1038 -0.9173 -2.4961
  515MOL0     H67934   8.310   4.374  10.424  0.7998 -0.0276  0.6307
  515MOL0     H67935   8.156   4.421  10.335 -1.8703 -0.0927  2.3774
  515MOL0     H67936   8.205   4.183  10.491  2.7508  0.7425 -0.9737
  515MOL0     H67937   8.129   4.193  10.332  0.4072  1.1588 -0.2590
  515MOL0     H67938   8.009   4.230  10.607  2.1058 -0.5019 -0.5169
  515MOL0     H67939   7.929   4.306  10.464  0.8314  0.0575 -1.0561
  515MOL0     H67940   7.994   4.011  10.504 -0.0818  0.7498 -1.0090
  515MOL0     H67941   7.922   4.091  10.355 -1.3318  1.8899 -0.7380
  515MOL0     H67942   7.842   3.844  10.385  1.4948 -0.9047  0.9975
  515MOL0     H67943   7.757   3.643  10.437  0.3395 -0.7477  1.3725
  515MOL0     H67944   7.642   3.312  10.367 -0.7938  3.5767  0.2286
  515MOL0     H67945   7.516   3.098  10.300 -1.4033 -0.3890  0.9695
  515MOL0     H67946   7.120   3.102  10.412 -0.4377  0.2575  2.3281
  515MOL0     H67947   7.144   2.979  10.532 -1.3340  2.4438  0.7024
  515MOL0     H67948   7.154   2.800  10.373  0.3484  0.1358  0.2336
  515MOL0     H67949   7.168   2.906  10.242 -0.2714 -3.0393 -1.1601
  515MOL0     H67950   6.966   2.848  10.223  1.9688  0.5151 -0.3855
  515MOL0     H67951   6.931   2.989  10.326  0.0490 -0.1442  0.1101
  515MOL0     H67952   6.941   2.700  10.404 -0.2595 -0.3849  0.3841
  515MOL0     H67953   6.937   2.809  10.534  1.1689 -3.4808 -1.0080
  515MOL0     H67954   6.728   2.825  10.310  1.0056 -0.1244 -1.0318
  515MOL0     H67955   6.748   2.910  10.457  3.4369  1.8630 -2.9966
  515MOL0     H67956   6.724   2.661  10.569 -1.0036  0.3050  1.1009
  515MOL0     H67957   6.701   2.609  10.407 -0.5432  0.3381  0.3797
  515MOL0     H67958   6.504   2.823  10.522  2.9676  0.5619 -0.3976
  515MOL0     H67959   6.494   2.736  10.370  1.3629  2.4542 -0.0141
  515MOL0     H67960   6.436   2.628  10.641  0.3393  1.2095 -0.5462
  515MOL0     H67961   6.473   2.520  10.501  0.7336 -0.7311  1.8643
  515MOL0     H67962   7.225   3.193  10.596 -0.0966 -0.6090 -1.3961
  515MOL0     H67963   7.336   3.393  10.658 -0.5836 -0.8556  0.8779
  515MOL0     H67964   7.497   3.828  10.732 -1.2806  4.2978 -0.5903
  515MOL0     H67965   7.614   4.040  10.685 -3.1686 -1.9488  1.1942
  515MOL0     H67966   7.335   4.384  10.393  0.5435  0.3226 -1.0783
  515MOL0     H67967   7.238   4.346  10.185 -1.2333  1.3782  3.7714
  515MOL0     H67968   7.105   3.942   9.874 -0.8287  1.3977 -0.0093
  515MOL0     H67969   7.025   3.864   9.660 -0.2206  0.4084 -0.1022
  515MOL0     H67970   7.343   3.788   9.348 -0.9764 -2.4289 -0.1778
  515MOL0     H67971   7.272   3.927   9.269 -0.3937 -1.4115 -1.2460
  515MOL0     H67972   7.077   3.771   9.185 -0.7577  0.5828  1.0087
  515MOL0     H67973   7.244   3.726   9.130  0.3626 -0.3897  0.4793
  515MOL0     H67974   7.142   3.588   9.368 -0.8219  2.4827  0.4482
  515MOL0     H67975   7.291   3.569   9.272 -0.5403 -0.8998  3.1266
  515MOL0     H67976   7.134   3.485   9.085 -1.1224  0.2951  0.2765
  515MOL0     H67977   7.112   3.387   9.234  1.9983 -0.1350  1.6390
  515MOL0     H67978   6.761   3.559   9.297  0.1238  2.4856 -0.7475
  515MOL0     H67979   7.408   3.945   9.487 -0.6204  0.0138 -1.3881
  515MOL0     H67980   7.486   4.031   9.687 -0.6100  0.0210  1.1887
  516MOL0     O67981  10.999   9.888   1.049 -0.4997 -0.0220  0.0746
  516MOL0     C67982  11.050   9.995   1.067 -0.0070  0.0615 -0.0398
  516MOL0     O67983  10.992  10.112   1.112  0.0117 -0.2663 -0.6481
  516MOL0     C67984  10.852  10.122   1.108 -0.4330  0.1434  0.2076
  516MOL0     C67985  10.798  10.245   1.157 -0.6668  0.2709  0.2976
  516MOL0     C67986  10.663  10.263   1.175  0.3422  0.3396  0.0757
  516MOL0     C67987  10.572  10.168   1.122  0.2327 -0.9661 -0.0750
  516MOL0     O67988  10.434  10.177   1.124  0.7912 -0.2773  0.2474
  516MOL0     C67989  10.368  10.277   1.207  0.6876  0.1917  0.7377
  516MOL0     C67990  10.232  10.205   1.243 -0.8734 -0.9574  0.4505
  516MOL0     C67991  10.125  10.306   1.303 -1.2585  0.0616 -0.2544
  516MOL0     C67992   9.988  10.225   1.311  0.3170  0.2658  0.8735
  516MOL0     C67993   9.868  10.314   1.323 -0.5196  0.4608  0.2849
  516MOL0     C67994   9.825  10.366   1.190  0.3832  0.1637  0.3849
  516MOL0     C67995   9.707  10.457   1.207 -0.7139  0.5093  0.5856
  516MOL0     C67996   9.656  10.503   1.074 -0.5260  0.5014 -0.5181
  516MOL0     N67997   9.545  10.593   1.094  0.9393  0.3895  0.6650
  516MOL0     C67998   9.431  10.558   1.163  0.7979  0.5691 -0.3492
  516MOL0     C67999   9.343  10.648   1.107  0.2541 -0.7352 -0.1918
  516MOL0     C68000   9.190  10.660   1.130  0.0532 -0.0225 -0.6689
  516MOL0     C68001   9.107  10.538   1.089 -0.1227 -0.1282  0.1282
  516MOL0     C68002   9.149  10.482   0.955 -0.8212 -0.4657  0.6607
  516MOL0     C68003   9.102  10.338   0.933 -0.3266 -0.1440  0.3621
  516MOL0     O68004   9.182  10.244   1.015 -0.2607  0.4094  0.6132
  516MOL0     C68005   9.306  10.192   0.994 -0.3315 -0.0165  0.2027
  516MOL0     C68006   9.343  10.094   1.089 -0.3683  0.1678 -0.5835
  516MOL0     C68007   9.476  10.042   1.079 -0.1986  0.0686 -0.7758
  516MOL0     C68008   9.566  10.090   0.983 -0.5214 -0.3312 -0.7020
  516MOL0     C68009   9.707  10.046   0.989 -0.6441 -0.2213 -0.0356
  516MOL0     O68010   9.739   9.960   1.096 -0.3862  0.4168 -0.0977
  516MOL0     C68011   9.865   9.917   1.137  0.3105  0.5443  0.7623
  516MOL0     C68012   9.978   9.904   1.049 -0.4164 -1.2319  0.8270
  516MOL0     C68013  10.097   9.849   1.097  0.0439  0.2104  0.2340
  516MOL0     C68014  10.113   9.824   1.235  0.2080 -0.7992  0.9930
  516MOL0     O68015  10.225   9.772   1.293  0.0099  0.1142  0.0622
  516MOL0     C68016  10.354   9.795   1.220 -0.8934 -0.3657 -0.2275
  516MOL0     C68017  10.462   9.720   1.298 -0.0122 -0.5322 -0.2063
  516MOL0     C68018  10.601   9.741   1.235  0.3223 -0.0411  0.0778
  516MOL0     C68019  10.716   9.710   1.337 -0.0607  0.0874  0.0193
  516MOL0     C68020  10.858   9.715   1.269  0.0734 -0.7680  0.4553
  516MOL0     C68021  10.976   9.679   1.358 -0.5228  0.0316 -0.4318
  516MOL0     C68022  11.104   9.717   1.285  0.1203 -0.2372  0.5153
  516MOL0     C68023  11.227   9.640   1.336  0.0518  0.7553 -0.1070
  516MOL0    Cl68024  11.293   9.714   1.487 -0.2264  0.0452 -0.4090
  516MOL0     C68025  10.007   9.847   1.323  0.0723  0.3789  0.1019
  516MOL0     C68026   9.883   9.883   1.272  0.9496 -0.2542  0.8647
  516MOL0     O68027   9.796  10.096   0.915 -0.0870  0.2811  0.0692
  516MOL0     C68028   9.525  10.182   0.884  0.7394  0.2011 -0.2403
  516MOL0     C68029   9.394  10.229   0.889  0.0386  0.3426  0.3599
  516MOL0     N68030   9.397  10.735   1.021  0.6833 -0.0501 -0.3737
  516MOL0     N68031   9.520  10.697   1.010 -0.0706 -0.8872 -0.0070
  516MOL0     C68032  10.626  10.059   1.054 -0.3747 -0.0042  0.3380
  516MOL0     C68033  10.760  10.030   1.044  0.7525 -0.2328  0.1469
  516MOL0     C68034  11.197  10.004   1.040 -0.2320 -0.3428  0.5496
  516MOL0     C68035  11.246  10.126   1.026  0.3165  0.4586 -0.0049
  516MOL0     C68036  11.381  10.139   0.993  0.1041  0.4442 -0.5538
  516MOL0     C68037  11.469  10.032   0.968  0.2384 -0.4415 -0.2227
  516MOL0     O68038  11.595  10.065   0.917 -0.4912 -0.3220  0.4140
  516MOL0     C68039  11.686   9.961   0.875 -0.2344  0.0466 -0.2699
  516MOL0     C68040  11.784   9.920   0.984 -0.0592  0.2203 -0.1923
  516MOL0     C68041  11.736   9.812   1.080  0.3109  0.4539 -0.4022
  516MOL0     C68042  11.853   9.752   1.161  0.2028  0.3022  0.2506
  516MOL0     C68043  11.924   9.644   1.099 -0.5848  0.0117 -0.0897
  516MOL0     C68044  11.987   9.559   1.042 -0.6343  0.3426  0.4828
  516MOL0     C68045  11.406   9.906   0.969  0.1867 -0.6659 -0.7182
  516MOL0     C68046  11.277   9.890   1.007  0.2479 -0.6706 -0.5272
  516MOL0     H68047  10.867  10.317   1.201 -0.7624  0.6010 -0.0924
  516MOL0     H68048  10.630  10.353   1.227  0.6186 -0.7442  2.2150
  516MOL0     H68049  10.359  10.365   1.142 -2.7631 -1.9394 -2.0058
  516MOL0     H68050  10.420  10.303   1.300 -0.5405 -2.0076  2.1377
  516MOL0     H68051  10.256  10.120   1.307  3.9738 -1.1192 -1.2471
  516MOL0     H68052  10.212  10.153   1.149 -0.0492  2.2530 -1.6824
  516MOL0     H68053  10.118  10.389   1.232  2.5520 -0.0837 -0.9970
  516MOL0     H68054  10.147  10.341   1.404  0.6270  1.5223 -1.1194
  516MOL0     H68055   9.977  10.149   1.232  0.5191 -1.5268  2.4961
  516MOL0     H68056   9.979  10.162   1.400 -1.8629 -0.0302  0.5088
  516MOL0     H68057   9.880  10.396   1.394 -0.5538  0.7065  0.0086
  516MOL0     H68058   9.781  10.257   1.358 -1.5507  2.1006  0.4905
  516MOL0     H68059   9.790  10.279   1.133  3.4467 -2.1207  1.6970
  516MOL0     H68060   9.903  10.407   1.126 -0.9404  1.5348 -0.4359
  516MOL0     H68061   9.633  10.409   1.272 -1.1935  1.0232  0.4276
  516MOL0     H68062   9.737  10.548   1.261 -0.6955  0.0333  1.3891
  516MOL0     H68063   9.629  10.413   1.018  1.8290  0.6882 -2.0769
  516MOL0     H68064   9.737  10.553   1.020  0.0551 -2.7560 -2.9507
  516MOL0     H68065   9.404  10.471   1.223  1.7941  0.5847  0.1528
  516MOL0     H68066   9.156  10.745   1.070 -1.1830 -2.1610 -3.1966
  516MOL0     H68067   9.166  10.683   1.234  1.2888  1.7079 -0.7302
  516MOL0     H68068   9.004  10.574   1.080  0.2323  0.5877 -1.4232
  516MOL0     H68069   9.112  10.463   1.169 -0.0841 -1.4225 -1.0485
  516MOL0     H68070   9.108  10.553   0.883 -0.0101 -0.3704  0.2837
  516MOL0     H68071   9.256  10.493   0.934 -0.9047 -0.2519  0.3305
  516MOL0     H68072   9.105  10.315   0.826 -3.1617 -0.0356  0.1737
  516MOL0     H68073   8.999  10.338   0.970 -0.2681  2.4124  0.7306
  516MOL0     H68074   9.288  10.063   1.177 -2.1520  1.3104 -1.2303
  516MOL0     H68075   9.512   9.971   1.153  0.4371 -0.3195 -1.4505
  516MOL0     H68076   9.971   9.925   0.943 -1.8658  0.9495  1.2983
  516MOL0     H68077  10.163   9.808   1.021 -1.9542 -4.0211  0.5244
  516MOL0     H68078  10.371   9.903   1.218  1.0915 -0.6604 -1.7315
  516MOL0     H68079  10.363   9.756   1.119  2.2845 -2.7171  0.8127
  516MOL0     H68080  10.461   9.611   1.293  3.5933 -0.6307 -1.8223
  516MOL0     H68081  10.465   9.758   1.400 -1.4117  0.1214 -0.3882
  516MOL0     H68082  10.611   9.844   1.202  0.8640 -1.3303 -4.4868
  516MOL0     H68083  10.616   9.681   1.144  0.1611 -0.0396  0.0501
  516MOL0     H68084  10.708   9.775   1.425 -1.5498 -1.1246  0.8121
  516MOL0     H68085  10.714   9.610   1.381 -0.5261  0.0082 -0.1812
  516MOL0     H68086  10.869   9.820   1.241 -1.8586 -0.7380 -0.3462
  516MOL0     H68087  10.865   9.654   1.178 -0.1589 -0.1055 -0.0090
  516MOL0     H68088  10.982   9.570   1.366  0.1560  0.0445 -0.6703
  516MOL0     H68089  10.978   9.728   1.456 -2.1778 -0.0266 -0.3473
  516MOL0     H68090  11.088   9.710   1.178  1.6239  4.4403 -0.2609
  516MOL0     H68091  11.131   9.822   1.304  4.5910 -0.6985 -1.9361
  516MOL0     H68092  11.313   9.642   1.268  0.4366  1.9808  0.4022
  516MOL0     H68093  11.202   9.536   1.360  1.8467  0.6606  1.6134
  516MOL0     H68094  10.029   9.830   1.428  1.2404  0.9966 -0.0241
  516MOL0     H68095   9.798   9.897   1.339 -1.1224 -3.4505 -0.8442
  516MOL0     H68096   9.600  10.211   0.811 -2.0332 -1.0071 -3.8112
  516MOL0     H68097   9.358  10.288   0.806  3.9083  1.7496 -0.5714
  516MOL0     H68098  10.563   9.986   1.005  1.1578 -1.4589  0.4099
  516MOL0     H68099  10.789   9.944   0.985  1.6160 -0.0762  0.3293
  516MOL0     H68100  11.186  10.216   1.024 -0.1498  0.1540  0.1519
  516MOL0     H68101  11.420  10.241   0.986  0.3542  0.6663  2.4867
  516MOL0     H68102  11.732   9.996   0.783 -1.0061  2.5979  0.2467
  516MOL0     H68103  11.627   9.872   0.849 -1.0845 -0.3709  2.6571
  516MOL0     H68104  11.870   9.886   0.925 -0.4816 -0.9167 -0.1770
  516MOL0     H68105  11.810  10.005   1.047 -0.9652 -0.0246  0.5406
  516MOL0     H68106  11.676   9.737   1.027 -2.3786  1.8281  0.5206
  516MOL0     H68107  11.663   9.853   1.150 -0.3065 -0.4400 -0.4973
  516MOL0     H68108  11.919   9.837   1.184  0.1482  0.5251 -0.3937
  516MOL0     H68109  11.811   9.707   1.252 -2.3777  1.0953 -0.4670
  516MOL0     H68110  12.026   9.483   0.977 -2.2084 -0.7710  0.7792
  516MOL0     H68111  11.452   9.816   0.931 -0.6119 -1.6233  0.5051
  516MOL0     H68112  11.236   9.789   1.004  0.5499 -0.7753 -1.5923
  517MOL0     O68113   9.509   3.581   2.341  0.0940 -0.4502 -0.0301
  517MOL0     C68114   9.531   3.699   2.367  0.2890 -0.6195  0.4431
  517MOL0     O68115   9.433   3.801   2.379  0.1112  0.0054 -0.3691
  517MOL0     C68116   9.303   3.757   2.401 -0.4891 -0.0177 -0.2329
  517MOL0     C68117   9.200   3.831   2.336  0.8381  0.4937 -0.2588
  517MOL0     C68118   9.066   3.815   2.368  0.4191 -0.6994 -0.0540
  517MOL0     C68119   9.024   3.718   2.470 -0.5743 -0.2909  0.8861
  517MOL0     O68120   8.897   3.695   2.514  0.2942 -0.6432  0.1233
  517MOL0     C68121   8.788   3.764   2.453  0.7883 -0.3551  0.1841
  517MOL0     C68122   8.649   3.729   2.504 -0.0631  0.0558 -0.2957
  517MOL0     C68123   8.626   3.779   2.644 -0.1223 -0.3082 -0.0485
  517MOL0     C68124   8.629   3.932   2.652  0.4583  0.3885  0.4311
  517MOL0     C68125   8.569   3.995   2.786  0.8220 -0.2161  0.0646
  517MOL0     C68126   8.667   3.983   2.902  0.2036  0.4711  0.4645
  517MOL0     C68127   8.621   4.062   3.022 -0.1898 -0.2970  0.1011
  517MOL0     C68128   8.526   3.982   3.105 -0.3039 -0.1633  0.2494
  517MOL0     N68129   8.470   4.056   3.217 -0.1537 -0.8062 -1.4758
  517MOL0     C68130   8.539   4.097   3.333 -0.4519 -0.9573  0.5131
  517MOL0     C68131   8.450   4.169   3.403 -0.1570  0.4451 -1.1615
  517MOL0     C68132   8.477   4.225   3.540 -0.0436  0.1666  0.4002
  517MOL0     C68133   8.436   4.121   3.647 -0.0382 -0.2425 -0.1060
  517MOL0     C68134   8.411   4.192   3.788 -0.7410 -0.1179 -0.5996
  517MOL0     C68135   8.547   4.233   3.847  0.5608 -0.3620 -0.0537
  517MOL0     O68136   8.637   4.125   3.865  0.4105  0.4390 -0.4323
  517MOL0     C68137   8.771   4.148   3.896  0.4965  0.2189  0.0359
  517MOL0     C68138   8.820   4.275   3.938  0.0307  0.1143 -0.0330
  517MOL0     C68139   8.961   4.296   3.955  0.3788 -0.5635 -0.9678
  517MOL0     C68140   9.052   4.195   3.920 -0.2167  0.4594 -0.3286
  517MOL0     C68141   9.202   4.224   3.916  0.1139 -0.0926 -0.2040
  517MOL0     O68142   9.287   4.123   3.881  0.8261  0.6586  0.3266
  517MOL0     C68143   9.412   4.144   3.833  0.3380  0.2084  0.0243
  517MOL0     C68144   9.432   4.141   3.692  0.0053 -0.3123  0.2666
  517MOL0     C68145   9.562   4.158   3.641  0.4831 -0.4682  0.1030
  517MOL0     C68146   9.661   4.203   3.722  0.6708  0.5504 -0.1490
  517MOL0     O68147   9.788   4.229   3.690 -0.3813 -0.3098 -0.0613
  517MOL0     C68148   9.854   4.120   3.629 -0.1592  0.7394  0.4567
  517MOL0     C68149  10.002   4.152   3.655  0.4576  0.5302  0.3019
  517MOL0     C68150  10.048   4.298   3.621 -0.3660  0.1234  0.1249
  517MOL0     C68151  10.194   4.316   3.640 -0.4906  0.5679 -0.5731
  517MOL0     C68152  10.241   4.324   3.785  0.3814  0.0752 -0.0460
  517MOL0     C68153  10.394   4.352   3.778  0.3131  0.2759 -0.2282
  517MOL0     C68154  10.463   4.375   3.910 -0.7875 -0.1791 -1.1613
  517MOL0     C68155  10.393   4.462   4.013  0.1914  0.2627 -0.0908
  517MOL0    Cl68156  10.526   4.535   4.105  0.0602 -0.2764 -0.4162
  517MOL0     C68157   9.643   4.203   3.860 -0.6063 -0.3105 -0.3567
  517MOL0     C68158   9.518   4.168   3.918  0.4001  0.0792 -0.7216
  517MOL0     O68159   9.240   4.336   3.940 -0.0670 -0.3498 -1.1372
  517MOL0     C68160   8.998   4.066   3.899 -0.2018 -0.9030 -0.2636
  517MOL0     C68161   8.858   4.041   3.891 -0.0543 -0.1072 -0.0179
  517MOL0     N68162   8.328   4.167   3.334 -1.0623  0.0666 -0.5064
  517MOL0     N68163   8.339   4.105   3.231 -0.7666 -0.2219 -0.5737
  517MOL0     C68164   9.126   3.642   2.533 -0.1604  0.8106  1.3661
  517MOL0     C68165   9.262   3.657   2.497 -0.0641 -0.4212 -0.2929
  517MOL0     C68166   9.664   3.745   2.399 -0.1152  0.2717 -0.3828
  517MOL0     C68167   9.764   3.650   2.410 -0.4274  0.9466  0.1425
  517MOL0     C68168   9.896   3.685   2.450  0.7676 -0.0977 -0.5032
  517MOL0     C68169   9.925   3.820   2.480 -0.2383 -0.0357 -1.0521
  517MOL0     O68170  10.050   3.846   2.528  0.0076 -0.2902 -0.2261
  517MOL0     C68171  10.087   3.976   2.568  0.5141 -0.3445  0.6600
  517MOL0     C68172  10.219   3.963   2.633 -0.0759  0.8557 -0.5574
  517MOL0     C68173  10.273   4.094   2.675 -0.0380 -0.0339 -0.1838
  517MOL0     C68174  10.419   4.074   2.709  0.9767  0.8642 -0.3070
  517MOL0     C68175  10.471   4.193   2.768  0.5849  0.5055  0.0046
  517MOL0     C68176  10.520   4.290   2.822  0.0405 -0.4417  0.4673
  517MOL0     C68177   9.828   3.914   2.473 -0.4564 -0.1940 -0.4387
  517MOL0     C68178   9.699   3.876   2.429  0.3191 -0.2345  0.7270
  517MOL0     H68179   9.234   3.902   2.262  0.2285  0.1027 -0.9238
  517MOL0     H68180   8.991   3.869   2.313  1.0932  0.9091  0.5486
  517MOL0     H68181   8.789   3.739   2.346  3.3412  0.8951 -0.1514
  517MOL0     H68182   8.806   3.871   2.461  2.2753 -0.3454 -2.1090
  517MOL0     H68183   8.623   3.623   2.506 -1.7905  0.4703  0.5467
  517MOL0     H68184   8.581   3.782   2.438 -0.2558 -0.7484 -0.7539
  517MOL0     H68185   8.705   3.734   2.705  0.9598 -0.2360 -1.3690
  517MOL0     H68186   8.524   3.759   2.679 -0.9360  0.1301 -2.0270
  517MOL0     H68187   8.729   3.976   2.647  0.2857  0.7480  0.1592
  517MOL0     H68188   8.571   3.963   2.565  0.8926  2.7508  0.9267
  517MOL0     H68189   8.474   3.943   2.799 -0.9328  1.2618 -4.6101
  517MOL0     H68190   8.541   4.100   2.769 -0.6197 -0.8581 -1.9352
  517MOL0     H68191   8.756   4.036   2.867  1.1336 -1.9315 -1.1454
  517MOL0     H68192   8.709   3.882   2.910  0.5111  0.0790 -3.8440
  517MOL0     H68193   8.702   4.092   3.090 -0.1299 -1.2840  0.4900
  517MOL0     H68194   8.563   4.151   2.998 -0.8041 -0.1486  1.9355
  517MOL0     H68195   8.583   3.894   3.138  0.1861 -0.6739 -1.8465
  517MOL0     H68196   8.450   3.954   3.031 -0.2261  3.2302 -1.2952
  517MOL0     H68197   8.646   4.094   3.353 -0.1152  1.0842 -0.6845
  517MOL0     H68198   8.427   4.321   3.559 -0.2899  0.0638  0.2791
  517MOL0     H68199   8.584   4.244   3.551  0.2008 -1.8968  2.1042
  517MOL0     H68200   8.512   4.042   3.655 -0.3899 -0.4516  1.3082
  517MOL0     H68201   8.342   4.071   3.621  0.0651 -0.0886 -0.7960
  517MOL0     H68202   8.354   4.283   3.770 -0.0676 -0.2420 -4.2424
  517MOL0     H68203   8.362   4.127   3.861  3.1993 -0.3715  2.1234
  517MOL0     H68204   8.520   4.278   3.943 -3.8854 -0.3945 -1.0654
  517MOL0     H68205   8.597   4.312   3.791  1.0675  1.3066  2.5684
  517MOL0     H68206   8.755   4.358   3.962  1.3003  0.7288  1.3826
  517MOL0     H68207   8.993   4.395   3.984  0.4361 -1.5433  2.7145
  517MOL0     H68208   9.352   4.110   3.625  0.6923  1.1955 -1.3037
  517MOL0     H68209   9.584   4.160   3.535  0.6082 -0.9272  0.1175
  517MOL0     H68210   9.826   4.115   3.523  1.6487 -0.4779 -0.0042
  517MOL0     H68211   9.833   4.024   3.676  0.4483  0.5729  0.3935
  517MOL0     H68212  10.062   4.080   3.598 -1.7568 -1.0672 -0.1251
  517MOL0     H68213  10.014   4.135   3.762  0.8308  1.6145  0.4476
  517MOL0     H68214  10.002   4.372   3.687  2.1112 -1.6724  4.2513
  517MOL0     H68215  10.032   4.301   3.512 -0.0850  2.6069  0.0941
  517MOL0     H68216  10.244   4.234   3.589  2.1020  1.2668  0.6659
  517MOL0     H68217  10.231   4.411   3.599 -0.7983  1.3789  0.9610
  517MOL0     H68218  10.226   4.227   3.834 -1.9216  1.0652  1.3944
  517MOL0     H68219  10.185   4.401   3.840  0.9434 -0.7195  1.6998
  517MOL0     H68220  10.413   4.443   3.721 -0.4464  0.0021 -0.9367
  517MOL0     H68221  10.440   4.275   3.716  2.7922 -0.7277  2.5921
  517MOL0     H68222  10.479   4.276   3.955 -0.4270  0.7559  0.9041
  517MOL0     H68223  10.559   4.421   3.885 -0.3825 -1.5034 -2.1108
  517MOL0     H68224  10.317   4.402   4.064 -0.7334  2.1912  0.8863
  517MOL0     H68225  10.338   4.549   3.976 -1.5533 -1.1879 -1.0930
  517MOL0     H68226   9.725   4.225   3.926  3.5228 -4.1981 -3.5606
  517MOL0     H68227   9.503   4.167   4.026 -2.8625 -0.3592 -1.0929
  517MOL0     H68228   9.068   3.985   3.877 -1.1960 -1.2806 -2.2542
  517MOL0     H68229   8.830   3.940   3.860 -0.3823  0.3494 -1.2933
  517MOL0     H68230   9.107   3.554   2.593 -4.0515 -1.1909 -2.2704
  517MOL0     H68231   9.341   3.609   2.554  0.3894 -1.0419 -1.4161
  517MOL0     H68232   9.753   3.542   2.406  1.6234  0.6842  0.2173
  517MOL0     H68233   9.965   3.602   2.452 -1.8727 -2.4414  0.0009
  517MOL0     H68234  10.014   4.031   2.629  0.8071  2.3340 -1.2363
  517MOL0     H68235  10.106   4.037   2.479  0.6907  2.6231  2.6032
  517MOL0     H68236  10.211   3.898   2.721 -0.5627 -0.9353 -1.8800
  517MOL0     H68237  10.288   3.915   2.563 -0.6966 -0.4785 -0.2825
  517MOL0     H68238  10.216   4.130   2.761  0.8280  0.5408  0.1604
  517MOL0     H68239  10.274   4.167   2.594 -0.6618  0.4288  0.2185
  517MOL0     H68240  10.420   3.989   2.778 -2.5843  0.8532 -0.0914
  517MOL0     H68241  10.472   4.046   2.617 -4.3346 -0.9141 -3.2384
  517MOL0     H68242  10.580   4.361   2.874  1.3082 -0.3701 -1.0323
  517MOL0     H68243   9.834   4.021   2.492 -4.4109  0.0536  0.4331
  517MOL0     H68244   9.623   3.953   2.438  2.7854  2.3247  1.4816
  518MOL0     O68245   9.987   5.447   2.517 -0.3872  1.0627 -0.0105
  518MOL0     C68246  10.004   5.337   2.575 -1.0027  1.0102 -0.5802
  518MOL0     O68247   9.906   5.267   2.642 -0.3501 -0.0013 -0.2185
  518MOL0     C68248   9.766   5.292   2.625 -0.6971 -0.4652  1.0592
  518MOL0     C68249   9.705   5.388   2.539  0.2098 -0.5268 -1.1695
  518MOL0     C68250   9.571   5.383   2.518  0.5210  0.5151 -0.7004
  518MOL0     C68251   9.492   5.279   2.571 -0.0918 -1.2220  0.1776
  518MOL0     O68252   9.364   5.265   2.536  0.0833 -0.1424 -0.3639
  518MOL0     C68253   9.271   5.208   2.631 -0.3445  0.5073  0.8224
  518MOL0     C68254   9.129   5.237   2.588  1.0534  0.5040 -0.4648
  518MOL0     C68255   9.030   5.154   2.686 -0.0371  0.3614  1.0010
  518MOL0     C68256   8.884   5.208   2.665 -0.8023  0.4367 -0.2689
  518MOL0     C68257   8.794   5.167   2.779  0.4755 -0.5159 -0.7865
  518MOL0     C68258   8.662   5.253   2.811  0.6668 -0.7605  0.3955
  518MOL0     C68259   8.567   5.274   2.695  0.1088 -0.8120  0.8244
  518MOL0     C68260   8.455   5.366   2.740 -0.5094 -0.9731 -0.3791
  518MOL0     N68261   8.345   5.286   2.798 -0.3929  0.2322 -0.0602
  518MOL0     C68262   8.259   5.212   2.723  0.4113  0.1939 -0.1523
  518MOL0     C68263   8.153   5.187   2.811 -0.4038 -0.6946  0.2113
  518MOL0     C68264   8.023   5.122   2.777 -0.3234  0.9426  0.0447
  518MOL0     C68265   8.010   4.989   2.863  0.2528 -0.2087  0.3618
  518MOL0     C68266   7.896   4.978   2.972 -0.2179  0.1780 -0.0632
  518MOL0     C68267   7.913   5.087   3.079  0.0270  0.4116 -0.8534
  518MOL0     O68268   7.840   5.055   3.189  0.7110  0.1540 -0.2456
  518MOL0     C68269   7.704   5.069   3.186  1.1674  0.5861  0.3959
  518MOL0     C68270   7.633   5.144   3.090  0.4206  0.0042 -0.2389
  518MOL0     C68271   7.497   5.124   3.076 -0.5906  0.6944  0.0461
  518MOL0     C68272   7.424   5.023   3.156  0.2950 -0.5795  0.0980
  518MOL0     C68273   7.278   5.020   3.145 -1.1386 -0.6553 -0.1272
  518MOL0     O68274   7.221   5.127   3.074 -0.3606 -0.1997  0.1494
  518MOL0     C68275   7.087   5.126   3.083 -0.8831 -0.5317  0.6164
  518MOL0     C68276   7.012   5.058   2.991  0.2015  0.4239  1.1373
  518MOL0     C68277   6.873   5.050   2.996 -0.6289  0.7826  0.0412
  518MOL0     C68278   6.812   5.130   3.094  0.0765  0.4603 -0.4946
  518MOL0     O68279   6.673   5.133   3.086 -0.1345 -0.5759 -0.4794
  518MOL0     C68280   6.596   5.214   3.170 -0.3335  0.1645 -0.2361
  518MOL0     C68281   6.446   5.193   3.128 -0.2411 -0.1606 -0.4472
  518MOL0     C68282   6.363   5.309   3.190 -0.4881 -0.3111  1.0871
  518MOL0     C68283   6.224   5.315   3.123 -0.4207  0.5380  0.8369
  518MOL0     C68284   6.132   5.412   3.177 -0.3730  0.2752 -0.4365
  518MOL0     C68285   5.983   5.406   3.127 -0.1383 -0.2806 -0.1331
  518MOL0     C68286   5.904   5.509   3.210 -0.3789  0.0194 -0.0446
  518MOL0     C68287   5.763   5.487   3.193 -0.0288 -0.2082  0.3020
  518MOL0    Cl68288   5.724   5.331   3.278 -0.0526 -0.7372  0.0031
  518MOL0     C68289   6.892   5.195   3.193  0.3455  0.1907 -0.4936
  518MOL0     C68290   7.028   5.194   3.187 -0.1252 -0.2855 -0.2645
  518MOL0     O68291   7.223   4.931   3.207  0.5000  0.2475 -0.5652
  518MOL0     C68292   7.497   4.952   3.250  0.4498  1.1206 -0.2433
  518MOL0     C68293   7.635   4.976   3.269 -0.3271  0.3514 -0.0689
  518MOL0     N68294   8.195   5.232   2.935  0.0177  0.7547 -0.4566
  518MOL0     N68295   8.304   5.290   2.923 -0.2291 -1.3387 -0.3777
  518MOL0     C68296   9.552   5.194   2.661  0.3226  0.3534  0.0999
  518MOL0     C68297   9.685   5.196   2.681  1.4683  0.2304  0.1311
  518MOL0     C68298  10.141   5.268   2.561  0.7874  0.1184 -0.1999
  518MOL0     C68299  10.251   5.349   2.523 -0.7761  0.4195 -0.3381
  518MOL0     C68300  10.375   5.294   2.514  0.4900  0.7745 -1.1558
  518MOL0     C68301  10.391   5.153   2.544 -0.2964 -1.6869 -0.3837
  518MOL0     O68302  10.504   5.072   2.522  0.1764 -0.3471 -0.7024
  518MOL0     C68303  10.631   5.133   2.491 -0.5009 -0.1231 -0.1749
  518MOL0     C68304  10.703   5.177   2.626 -0.5654  0.5614  1.0631
  518MOL0     C68305  10.848   5.199   2.606  0.0035 -0.3273 -0.7556
  518MOL0     C68306  10.892   5.319   2.517  0.0504  0.3925  0.8213
  518MOL0     C68307  11.034   5.329   2.495  0.0191  0.6909  0.5729
  518MOL0     C68308  11.152   5.315   2.482 -0.2339 -0.2171  0.3527
  518MOL0     C68309  10.284   5.079   2.585 -0.0663  0.2243  0.3904
  518MOL0     C68310  10.160   5.129   2.597  0.6142 -0.2238 -0.5534
  518MOL0     H68311   9.754   5.466   2.483 -1.2514  0.0976 -1.6266
  518MOL0     H68312   9.541   5.463   2.452  4.3909  2.2153 -0.6520
  518MOL0     H68313   9.294   5.247   2.731 -1.3610  1.8532  0.5635
  518MOL0     H68314   9.286   5.100   2.636  1.2010  0.7153  1.4060
  518MOL0     H68315   9.104   5.200   2.488 -0.7977  0.5244 -0.0543
  518MOL0     H68316   9.106   5.344   2.587  0.0936  0.2991 -1.8598
  518MOL0     H68317   9.069   5.169   2.787 -1.0445  1.3461  1.2691
  518MOL0     H68318   9.029   5.049   2.656 -2.8004  1.1784 -2.5221
  518MOL0     H68319   8.877   5.315   2.643 -1.0168  0.4709 -0.0403
  518MOL0     H68320   8.847   5.161   2.573 -0.1830 -1.0673  0.2270
  518MOL0     H68321   8.848   5.165   2.874  2.1426  1.2194 -1.6290
  518MOL0     H68322   8.758   5.065   2.761 -3.3074  0.7950 -1.4268
  518MOL0     H68323   8.684   5.347   2.861 -1.8710 -0.1354  0.4662
  518MOL0     H68324   8.604   5.199   2.886 -1.5863  0.0091 -0.6901
  518MOL0     H68325   8.626   5.339   2.629 -1.7731 -2.0840 -2.3046
  518MOL0     H68326   8.542   5.182   2.642  2.3071 -0.7271 -0.4669
  518MOL0     H68327   8.411   5.422   2.656 -1.4634 -2.0268 -0.6121
  518MOL0     H68328   8.480   5.451   2.804 -1.0695 -0.6629 -0.5587
  518MOL0     H68329   8.260   5.182   2.618 -0.9436  0.5815 -0.2952
  518MOL0     H68330   8.024   5.096   2.671 -2.2711 -0.6418  0.3768
  518MOL0     H68331   7.937   5.185   2.800 -2.3591 -2.7635  3.9645
  518MOL0     H68332   8.105   4.972   2.915  0.9091  1.1108 -0.3249
  518MOL0     H68333   7.997   4.908   2.791  1.0436 -1.2479  1.3737
  518MOL0     H68334   7.801   4.978   2.918 -1.3357 -2.9647  1.5906
  518MOL0     H68335   7.904   4.881   3.023  2.5042  1.2534  1.7576
  518MOL0     H68336   7.882   5.184   3.039 -0.9731  0.4510 -0.0302
  518MOL0     H68337   8.015   5.093   3.118  0.8560 -5.4356 -1.1810
  518MOL0     H68338   7.680   5.215   3.022 -1.5021 -0.2958 -1.9746
  518MOL0     H68339   7.440   5.180   3.003 -0.2371  2.5106  1.0780
  518MOL0     H68340   7.057   5.011   2.905 -0.9800 -1.3701  1.4352
  518MOL0     H68341   6.805   4.990   2.936 -0.4618  0.1846  0.4423
  518MOL0     H68342   6.617   5.321   3.158  0.8544  0.0422  0.4724
  518MOL0     H68343   6.628   5.197   3.274  1.2025 -1.5658 -0.9270
  518MOL0     H68344   6.409   5.091   3.145 -1.9862  0.4849 -0.1775
  518MOL0     H68345   6.443   5.200   3.019 -1.1122 -0.0257 -0.4153
  518MOL0     H68346   6.422   5.400   3.183  1.6793 -1.5783  1.8196
  518MOL0     H68347   6.347   5.288   3.296  2.4849  1.2107  1.9329
  518MOL0     H68348   6.230   5.340   3.016 -4.0658  1.2632  0.6549
  518MOL0     H68349   6.178   5.216   3.130  0.3841  0.0210 -0.7308
  518MOL0     H68350   6.169   5.507   3.137 -0.1735 -0.8388 -3.0595
  518MOL0     H68351   6.138   5.396   3.285 -0.8210 -0.7805 -0.5616
  518MOL0     H68352   5.950   5.305   3.149  1.0282 -0.7446 -0.4181
  518MOL0     H68353   5.977   5.423   3.019  0.6156 -3.1537 -0.7100
  518MOL0     H68354   5.919   5.483   3.315 -0.3978  0.4581  0.0683
  518MOL0     H68355   5.924   5.613   3.184  0.8003 -0.5350 -1.5486
  518MOL0     H68356   5.733   5.479   3.089 -4.8129 -0.8712  1.5146
  518MOL0     H68357   5.705   5.570   3.233  1.8602  1.3085  0.0580
  518MOL0     H68358   6.854   5.258   3.272  2.5094  0.8174  0.1305
  518MOL0     H68359   7.078   5.246   3.269 -0.3547 -1.4263  0.6240
  518MOL0     H68360   7.450   4.885   3.322  1.8725  1.0643  0.6625
  518MOL0     H68361   7.679   4.904   3.337 -0.1743 -0.9509 -1.4915
  518MOL0     H68362   9.504   5.106   2.701  3.3042 -1.0305  0.8809
  518MOL0     H68363   9.731   5.117   2.740  0.7860 -0.9183 -0.8460
  518MOL0     H68364  10.226   5.448   2.487 -0.7708  0.4077 -0.3750
  518MOL0     H68365  10.465   5.346   2.483  1.2548  0.2134  0.0509
  518MOL0     H68366  10.616   5.219   2.425 -3.1759 -0.3800 -0.0094
  518MOL0     H68367  10.698   5.054   2.455  1.2378  0.6143  1.2416
  518MOL0     H68368  10.662   5.274   2.657 -3.1576  0.7457 -2.3627
  518MOL0     H68369  10.698   5.101   2.704 -2.4923 -0.4282  0.0511
  518MOL0     H68370  10.886   5.105   2.566 -1.7958 -0.7663 -1.5730
  518MOL0     H68371  10.900   5.216   2.701  1.7305  1.1580 -1.9057
  518MOL0     H68372  10.838   5.312   2.422  0.9173 -4.6079  0.4389
  518MOL0     H68373  10.859   5.412   2.564  0.3799 -0.4483  2.8293
  518MOL0     H68374  11.255   5.293   2.462 -0.5692 -0.7115 -0.8969
  518MOL0     H68375  10.305   4.973   2.595  0.8567  0.4401  0.8545
  518MOL0     H68376  10.082   5.063   2.634  1.4191 -1.8233 -1.5894
  519MOL0     O68377   4.863   9.809   1.903  0.0036  0.0036  0.0055
  519MOL0     C68378   4.807   9.729   1.828 -0.5452  0.0565  0.4871
  519MOL0     O68379   4.872   9.669   1.721  0.4821 -0.5156 -0.2655
  519MOL0     C68380   5.009   9.698   1.710  0.0957  0.8199 -0.6963
  519MOL0     C68381   5.097   9.587   1.709 -0.5554  0.2454  0.4182
  519MOL0     C68382   5.235   9.608   1.673 -0.1317  0.3973 -0.5983
  519MOL0     C68383   5.282   9.738   1.652  0.0661  0.8459  1.3172
  519MOL0     O68384   5.411   9.751   1.617  0.6837  1.2539 -0.3790
  519MOL0     C68385   5.485   9.868   1.629  0.1930  0.6320 -0.3525
  519MOL0     C68386   5.641   9.827   1.624  0.3522 -0.5685 -0.1854
  519MOL0     C68387   5.682   9.750   1.751  0.5197 -0.2501  0.8188
  519MOL0     C68388   5.829   9.724   1.743  0.4864  0.1667  0.8346
  519MOL0     C68389   5.880   9.630   1.855 -0.2125 -1.0568 -0.6108
  519MOL0     C68390   5.886   9.706   1.990  0.5023  0.3280  0.2914
  519MOL0     C68391   5.895   9.607   2.103 -0.6532  0.1496 -0.5344
  519MOL0     C68392   5.768   9.601   2.188 -0.6770 -0.2809  0.0036
  519MOL0     N68393   5.652   9.586   2.103 -0.1323  0.0801 -0.2362
  519MOL0     C68394   5.556   9.685   2.083 -0.0054  0.0696 -0.0315
  519MOL0     C68395   5.447   9.616   2.039  0.1046 -0.6389 -0.0397
  519MOL0     C68396   5.310   9.680   1.999  0.5033 -0.5702 -0.0082
  519MOL0     C68397   5.210   9.675   2.120 -0.5630  0.6346  0.0472
  519MOL0     C68398   5.256   9.763   2.236  0.5550 -0.4102 -0.2512
  519MOL0     C68399   5.148   9.787   2.342  0.5002 -0.1849 -0.0001
  519MOL0     O68400   5.122   9.659   2.407  0.0102 -0.2312  0.1307
  519MOL0     C68401   5.024   9.657   2.506  0.3724 -0.2285 -0.3762
  519MOL0     C68402   4.963   9.768   2.568 -0.3761  0.2548  0.4950
  519MOL0     C68403   4.874   9.736   2.674  1.1252 -0.3502 -0.6359
  519MOL0     C68404   4.830   9.618   2.713  0.5909 -0.3492  0.5310
  519MOL0     C68405   4.721   9.599   2.817  0.0460  0.8364  0.5180
  519MOL0     O68406   4.661   9.473   2.830 -0.4005  0.5226  0.3554
  519MOL0     C68407   4.558   9.453   2.911 -0.4646 -0.2653 -0.1086
  519MOL0     C68408   4.581   9.448   3.050  0.7311  0.3973 -0.8652
  519MOL0     C68409   4.479   9.420   3.140  0.5408 -0.3818 -0.2797
  519MOL0     C68410   4.347   9.405   3.091  0.5703 -0.9935  0.2147
  519MOL0     O68411   4.252   9.380   3.185 -0.5678 -0.0171  0.2176
  519MOL0     C68412   4.128   9.457   3.186 -0.4562 -0.5279 -0.3188
  519MOL0     C68413   4.130   9.538   3.316 -0.5124  0.4400  0.2880
  519MOL0     C68414   3.999   9.627   3.339  0.6269  0.2115 -0.1952
  519MOL0     C68415   3.860   9.539   3.341 -0.7483 -0.5351  0.3248
  519MOL0     C68416   3.746   9.644   3.306  0.0363 -0.4329  0.4292
  519MOL0     C68417   3.609   9.584   3.268  1.0391 -0.4546 -0.2539
  519MOL0     C68418   3.494   9.694   3.274 -0.6393  0.5853 -0.2694
  519MOL0     C68419   3.358   9.636   3.239 -0.3027 -0.0382  0.3596
  519MOL0    Cl68420   3.340   9.613   3.069  0.2734 -0.1376 -0.6180
  519MOL0     C68421   4.317   9.420   2.956  0.1560 -0.7494  0.2857
  519MOL0     C68422   4.426   9.446   2.871  0.8069 -0.4019 -0.0219
  519MOL0     O68423   4.691   9.694   2.887  0.8489  0.8486 -0.0710
  519MOL0     C68424   4.884   9.510   2.649  0.4552  1.1562 -0.0351
  519MOL0     C68425   4.984   9.531   2.551  0.0121 -0.5246  0.8199
  519MOL0     N68426   5.476   9.482   2.047 -0.3571  0.7331 -0.0531
  519MOL0     N68427   5.595   9.465   2.080 -0.0039  0.7797 -0.2969
  519MOL0     C68428   5.198   9.845   1.663  0.1924  0.3162 -0.8440
  519MOL0     C68429   5.060   9.824   1.679  0.8255  0.0933  0.2245
  519MOL0     C68430   4.663   9.710   1.839  0.2605 -0.8019 -0.4229
  519MOL0     C68431   4.602   9.594   1.791  0.8715  0.7787 -0.6302
  519MOL0     C68432   4.468   9.575   1.832  0.5928 -0.0294 -0.0906
  519MOL0     C68433   4.389   9.662   1.909 -0.1885 -0.8086  0.2851
  519MOL0     O68434   4.257   9.623   1.936  0.4661  0.6054 -0.0971
  519MOL0     C68435   4.166   9.720   1.993 -0.1678  0.4718 -0.2876
  519MOL0     C68436   4.098   9.802   1.884  0.2780 -0.3286 -0.1116
  519MOL0     C68437   4.080   9.727   1.736  0.3991 -0.3051 -0.2300
  519MOL0     C68438   4.016   9.810   1.638  0.9451  0.3564  0.5967
  519MOL0     C68439   4.015   9.744   1.503 -0.1037 -0.9793  0.4452
  519MOL0     C68440   4.025   9.693   1.388 -0.1125 -0.1131 -0.3166
  519MOL0     C68441   4.459   9.770   1.956 -0.4065  0.0474 -0.1880
  519MOL0     C68442   4.587   9.799   1.919 -0.0988  0.1141  0.0345
  519MOL0     H68443   5.059   9.485   1.714  1.0419 -0.3785  0.4446
  519MOL0     H68444   5.289   9.513   1.674  0.5224  0.7535  0.9799
  519MOL0     H68445   5.465   9.925   1.721  2.7651 -0.3384  0.9385
  519MOL0     H68446   5.458   9.932   1.545 -0.4802  1.9745  0.8392
  519MOL0     H68447   5.691   9.924   1.621  0.5563 -0.6740 -0.2240
  519MOL0     H68448   5.669   9.763   1.540  4.9486  0.8037  0.0536
  519MOL0     H68449   5.626   9.657   1.756 -3.0328  1.6175 -0.8608
  519MOL0     H68450   5.650   9.806   1.840 -1.7685 -0.4783  0.1931
  519MOL0     H68451   5.842   9.666   1.651  1.0637 -1.5153  1.9354
  519MOL0     H68452   5.892   9.813   1.737 -0.0463  0.4740 -3.9462
  519MOL0     H68453   5.984   9.600   1.837  0.4270 -0.8907  2.3770
  519MOL0     H68454   5.817   9.541   1.854 -1.2956 -0.3052 -1.4202
  519MOL0     H68455   5.798   9.770   1.998  1.6991  2.2088 -0.8202
  519MOL0     H68456   5.980   9.762   2.001  0.1100  0.6222  2.5042
  519MOL0     H68457   5.917   9.506   2.066 -1.9126  0.2499 -1.6262
  519MOL0     H68458   5.982   9.629   2.165 -0.5171  2.2343 -1.3755
  519MOL0     H68459   5.755   9.693   2.246  0.4265 -0.7436  1.0431
  519MOL0     H68460   5.778   9.520   2.262 -0.6495 -1.6006 -1.3947
  519MOL0     H68461   5.570   9.792   2.096 -1.9641  0.1549  2.0256
  519MOL0     H68462   5.268   9.629   1.912  2.0408  0.9237 -1.7048
  519MOL0     H68463   5.316   9.782   1.960  0.8698 -0.5921 -0.0105
  519MOL0     H68464   5.192   9.576   2.164 -1.6242  1.9919  2.9841
  519MOL0     H68465   5.112   9.710   2.086 -1.2326  0.5389  1.7526
  519MOL0     H68466   5.343   9.723   2.288  1.4318 -0.8527 -1.9578
  519MOL0     H68467   5.280   9.861   2.193  1.7733 -1.2550 -1.6044
  519MOL0     H68468   5.063   9.836   2.293  0.7649 -0.9460 -1.2821
  519MOL0     H68469   5.194   9.862   2.408 -0.6559 -1.9555  2.9810
  519MOL0     H68470   4.989   9.868   2.535  0.7840 -0.3396 -0.4719
  519MOL0     H68471   4.810   9.815   2.713  0.0523 -1.2282 -0.5951
  519MOL0     H68472   4.682   9.453   3.090 -0.2962  1.2073  1.7982
  519MOL0     H68473   4.504   9.418   3.245  0.3178 -1.0101 -0.2343
  519MOL0     H68474   4.046   9.385   3.186 -0.9407  0.0093  0.3096
  519MOL0     H68475   4.096   9.523   3.105 -4.7612 -1.6815  0.1887
  519MOL0     H68476   4.218   9.602   3.332 -1.6547  2.2734 -0.5033
  519MOL0     H68477   4.122   9.460   3.393 -0.9329 -0.4324 -0.6238
  519MOL0     H68478   3.997   9.706   3.264 -0.2282  1.3097  0.9418
  519MOL0     H68479   4.006   9.678   3.435  0.6691 -0.0595 -0.0513
  519MOL0     H68480   3.866   9.465   3.261 -0.0188  0.3785 -0.4971
  519MOL0     H68481   3.850   9.489   3.437 -0.0874 -2.0457 -0.3571
  519MOL0     H68482   3.772   9.701   3.217 -0.3696 -2.6084 -1.1678
  519MOL0     H68483   3.751   9.706   3.396 -1.4704 -0.5011  0.5940
  519MOL0     H68484   3.580   9.511   3.345 -1.7760  3.0969  2.3644
  519MOL0     H68485   3.606   9.542   3.167 -2.4357  0.3132 -0.5937
  519MOL0     H68486   3.484   9.736   3.374  2.2417 -2.4445  1.4695
  519MOL0     H68487   3.519   9.783   3.217 -1.6270  1.0948  0.0739
  519MOL0     H68488   3.293   9.712   3.283 -1.7386 -1.0065 -0.0194
  519MOL0     H68489   3.330   9.547   3.297 -0.0894 -1.2597 -1.3274
  519MOL0     H68490   4.223   9.406   2.905  0.2511 -0.7148  0.0985
  519MOL0     H68491   4.398   9.455   2.767 -1.7400 -0.0459  0.6431
  519MOL0     H68492   4.856   9.406   2.662  1.9990  0.7915  0.7065
  519MOL0     H68493   5.030   9.448   2.501 -0.4486  0.2357 -0.9465
  519MOL0     H68494   5.231   9.945   1.638  1.9760  0.2761  1.1617
  519MOL0     H68495   4.996   9.909   1.657  2.8299  1.4608 -0.6989
  519MOL0     H68496   4.660   9.524   1.731  1.7271  0.3933  0.6098
  519MOL0     H68497   4.418   9.484   1.799 -2.6882  1.5768  0.1432
  519MOL0     H68498   4.223   9.786   2.059  3.4926 -1.2562 -1.4531
  519MOL0     H68499   4.091   9.670   2.055  2.3339 -0.3891  2.2664
  519MOL0     H68500   3.996   9.832   1.911  0.1765  1.6430 -2.3936
  519MOL0     H68501   4.158   9.892   1.871  2.7395 -1.9911 -0.9921
  519MOL0     H68502   4.036   9.627   1.743  1.2246 -0.6165  0.7956
  519MOL0     H68503   4.183   9.706   1.706  0.7278 -0.1092  0.7087
  519MOL0     H68504   3.910   9.821   1.660  0.7340  1.0419 -0.6540
  519MOL0     H68505   4.062   9.908   1.627 -0.2271  0.7085 -1.8072
  519MOL0     H68506   4.018   9.647   1.291  3.2791 -5.0611  1.3521
  519MOL0     H68507   4.413   9.841   2.024 -2.1954 -1.6395  0.4590
  519MOL0     H68508   4.642   9.878   1.968 -2.1207  1.1706  0.7026
  520MOL0     O68509   1.286   4.461   2.563 -0.1418  0.4202  0.4998
  520MOL0     C68510   1.378   4.469   2.637  0.2644 -0.1980 -0.0581
  520MOL0     O68511   1.368   4.438   2.768 -0.1640 -0.3515 -0.4169
  520MOL0     C68512   1.247   4.398   2.814 -0.1432  1.0792 -0.1550
  520MOL0     C68513   1.190   4.279   2.779  0.6745  0.0535  0.5955
  520MOL0     C68514   1.067   4.242   2.823 -0.1576  0.6641  0.1398
  520MOL0     C68515   0.998   4.329   2.910 -0.0485  0.9989 -1.0409
  520MOL0     O68516   0.875   4.294   2.947 -0.5145  0.1105  0.1483
  520MOL0     C68517   0.826   4.358   3.067  0.1380  0.6989 -0.2283
  520MOL0     C68518   0.730   4.261   3.143 -0.6146 -0.2070  1.1008
  520MOL0     C68519   0.679   4.304   3.279  0.7638 -0.8063 -0.3570
  520MOL0     C68520   0.783   4.325   3.385 -0.2266  0.0481  0.0514
  520MOL0     C68521   0.727   4.344   3.529  0.0826 -0.4243 -0.2096
  520MOL0     C68522   0.843   4.381   3.627  0.1703 -0.3385 -0.5569
  520MOL0     C68523   0.773   4.386   3.776 -0.8813  0.1531 -0.7626
  520MOL0     C68524   0.882   4.358   3.889  0.3487 -0.8018  0.4668
  520MOL0     N68525   0.796   4.345   4.012 -0.0500 -0.0430 -0.1739
  520MOL0     C68526   0.791   4.447   4.102 -0.1834  0.7747 -0.2093
  520MOL0     C68527   0.692   4.413   4.179  0.2221  0.5963 -0.1737
  520MOL0     C68528   0.640   4.485   4.294  0.3019 -0.9354  0.4097
  520MOL0     C68529   0.497   4.547   4.265  0.0132  0.7002  0.4854
  520MOL0     C68530   0.397   4.446   4.233  0.4727  0.6489  0.0158
  520MOL0     C68531   0.389   4.340   4.350 -0.4159  0.1592 -0.0542
  520MOL0     O68532   0.371   4.402   4.479 -0.5101 -0.0241  1.0568
  520MOL0     C68533   0.256   4.474   4.503 -1.2989  0.1846  0.6242
  520MOL0     C68534   0.259   4.564   4.603  0.4509 -0.2447 -0.3152
  520MOL0     C68535   0.147   4.633   4.641 -0.1569 -0.2198  0.5243
  520MOL0     C68536   0.023   4.600   4.601  0.8605  0.7233  0.2422
  520MOL0     C68537  -0.103   4.673   4.646 -0.3811  0.5980  0.4856
  520MOL0     O68538  -0.087   4.797   4.697 -0.1382 -0.0504 -0.6353
  520MOL0     C68539  -0.183   4.874   4.754 -0.1705  0.9583 -0.6834
  520MOL0     C68540  -0.312   4.840   4.804 -0.4760  0.5533  0.6515
  520MOL0     C68541  -0.393   4.937   4.871  0.2948  0.1802 -0.8618
  520MOL0     C68542  -0.350   5.066   4.884  0.2488  0.2527 -0.5526
  520MOL0     O68543  -0.424   5.171   4.937  0.6128 -0.8142 -0.0644
  520MOL0     C68544  -0.563   5.165   4.953  0.6208 -0.4246 -0.1795
  520MOL0     C68545  -0.613   5.299   4.992  0.1718 -0.6320  1.3258
  520MOL0     C68546  -0.770   5.301   4.972 -1.2932 -0.2378  0.2417
  520MOL0     C68547  -0.841   5.418   5.047 -0.2835  0.1918  0.6949
  520MOL0     C68548  -0.989   5.420   5.017  0.7621  0.3070 -0.1192
  520MOL0     C68549  -1.067   5.514   5.113  0.1196 -0.0602  0.2607
  520MOL0     C68550  -1.010   5.664   5.125 -0.1815  0.3847  0.4158
  520MOL0     C68551  -1.037   5.747   5.002 -0.2743  0.1696  0.7277
  520MOL0    Cl68552  -1.217   5.744   4.981  0.0061 -0.0799  0.0566
  520MOL0     C68553  -0.229   5.104   4.830 -0.0625 -0.0378 -0.2690
  520MOL0     C68554  -0.148   5.007   4.769  0.9904 -0.1815 -0.2014
  520MOL0     O68555  -0.213   4.614   4.635 -0.5082 -0.6470 -0.2969
  520MOL0     C68556   0.008   4.504   4.501 -0.3067  0.0534  1.2455
  520MOL0     C68557   0.130   4.447   4.455 -0.8477 -0.4118  0.7195
  520MOL0     N68558   0.644   4.291   4.149  0.6246 -0.4055 -0.0033
  520MOL0     N68559   0.709   4.250   4.045  0.3448 -0.1437  0.0428
  520MOL0     C68560   1.059   4.447   2.953  0.3312  0.2563 -0.4263
  520MOL0     C68561   1.192   4.477   2.918 -0.1979 -0.2612  0.2340
  520MOL0     C68562   1.511   4.512   2.578 -0.5238 -0.0674 -0.5800
  520MOL0     C68563   1.540   4.560   2.445  0.7038  0.7956 -0.2996
  520MOL0     C68564   1.672   4.584   2.408  0.5752  1.4197  0.0061
  520MOL0     C68565   1.781   4.558   2.495  0.1976  0.4659  0.4815
  520MOL0     O68566   1.915   4.569   2.465  0.8425 -0.0155 -0.2015
  520MOL0     C68567   1.955   4.583   2.327 -0.5116 -0.5242 -0.0581
  520MOL0     C68568   2.101   4.571   2.321 -0.1061  0.1072  0.3286
  520MOL0     C68569   2.150   4.519   2.173  0.2820 -0.8704  0.3775
  520MOL0     C68570   2.272   4.425   2.179  0.4841 -0.3096  0.5234
  520MOL0     C68571   2.369   4.482   2.272 -0.7236  0.2304  0.6365
  520MOL0     C68572   2.448   4.522   2.356 -0.2868  0.0777 -0.5814
  520MOL0     C68573   1.756   4.514   2.623 -0.1921  0.4738  0.6204
  520MOL0     C68574   1.623   4.487   2.661  0.1262  0.1529 -0.2802
  520MOL0     H68575   1.239   4.220   2.702 -0.9396  0.8833 -1.1448
  520MOL0     H68576   1.022   4.148   2.792  0.7533  0.6117 -1.1312
  520MOL0     H68577   0.759   4.441   3.043 -0.3948 -0.3165 -2.4777
  520MOL0     H68578   0.907   4.390   3.133 -2.0822  1.7065  2.1908
  520MOL0     H68579   0.782   4.166   3.163 -0.8977  0.0546  3.3121
  520MOL0     H68580   0.654   4.237   3.068  1.7022 -0.3863 -1.3401
  520MOL0     H68581   0.610   4.224   3.306  0.5222 -0.0534  1.3884
  520MOL0     H68582   0.632   4.403   3.279  1.6941 -0.3513 -0.8257
  520MOL0     H68583   0.856   4.243   3.388  2.2110  2.0947  1.4490
  520MOL0     H68584   0.833   4.419   3.360 -1.3949  0.9453  0.9970
  520MOL0     H68585   0.673   4.252   3.552 -1.9347  0.5766 -0.6984
  520MOL0     H68586   0.654   4.425   3.520  1.2968  0.9013  1.3763
  520MOL0     H68587   0.897   4.470   3.593  0.5105 -0.6501 -0.8445
  520MOL0     H68588   0.910   4.295   3.637 -0.0015 -0.5613 -1.2826
  520MOL0     H68589   0.726   4.484   3.793 -1.2704 -0.3571  1.4050
  520MOL0     H68590   0.700   4.307   3.793 -0.9474  0.7915  2.6368
  520MOL0     H68591   0.942   4.449   3.893 -0.4413 -0.2196 -0.3397
  520MOL0     H68592   0.943   4.268   3.874  1.5481 -0.1608  1.3447
  520MOL0     H68593   0.862   4.528   4.115  0.5379  0.3640 -1.4345
  520MOL0     H68594   0.711   4.562   4.327 -0.6463  1.3196 -2.4528
  520MOL0     H68595   0.620   4.416   4.377 -3.9101 -1.2837 -0.6574
  520MOL0     H68596   0.512   4.616   4.182 -0.1249 -0.0141 -0.1395
  520MOL0     H68597   0.473   4.618   4.345  1.2889  2.2984 -0.4767
  520MOL0     H68598   0.303   4.502   4.226  1.0620  1.5726 -0.8347
  520MOL0     H68599   0.416   4.400   4.136 -4.0707  3.4719 -2.5626
  520MOL0     H68600   0.481   4.282   4.362 -0.2464  0.6379  1.0756
  520MOL0     H68601   0.308   4.271   4.324  0.9906 -1.4181 -0.4276
  520MOL0     H68602   0.354   4.591   4.649  1.0810 -1.3149 -0.9567
  520MOL0     H68603   0.165   4.718   4.706  1.6457  0.3671 -0.6557
  520MOL0     H68604  -0.350   4.738   4.805  1.8557 -0.4267 -0.9004
  520MOL0     H68605  -0.485   4.902   4.915  0.7779  0.5864  0.5105
  520MOL0     H68606  -0.582   5.100   5.039  0.0437 -0.3637 -0.2552
  520MOL0     H68607  -0.622   5.135   4.866 -0.2691  1.7340 -0.3761
  520MOL0     H68608  -0.566   5.378   4.933 -1.3115 -0.3873  0.4013
  520MOL0     H68609  -0.590   5.321   5.097  2.9646  1.2109  0.4291
  520MOL0     H68610  -0.807   5.202   5.001  0.0591 -1.1125 -0.9287
  520MOL0     H68611  -0.795   5.312   4.866 -3.0937 -2.7637  0.3221
  520MOL0     H68612  -0.833   5.395   5.154 -0.3904 -1.9442  0.2855
  520MOL0     H68613  -0.798   5.513   5.016 -1.8037  1.1614  1.4631
  520MOL0     H68614  -1.040   5.324   5.014  2.9395 -0.9438 -3.8000
  520MOL0     H68615  -0.988   5.466   4.917  0.5538 -0.4810 -0.4864
  520MOL0     H68616  -1.071   5.470   5.213 -1.1054  1.0209  0.7212
  520MOL0     H68617  -1.168   5.519   5.073 -0.0573  2.2530  0.8624
  520MOL0     H68618  -1.055   5.710   5.214 -0.9043 -2.3154  1.5342
  520MOL0     H68619  -0.901   5.656   5.131  0.0090  0.0896 -2.4352
  520MOL0     H68620  -0.978   5.706   4.919 -2.6789  0.4042 -1.2218
  520MOL0     H68621  -1.002   5.850   5.007  2.2894 -0.6234  0.3190
  520MOL0     H68622  -0.189   5.205   4.821  0.7216 -0.2514  0.5642
  520MOL0     H68623  -0.051   5.031   4.726  1.3276 -2.4919 -0.8426
  520MOL0     H68624  -0.090   4.477   4.463 -0.8459  1.8064  1.3126
  520MOL0     H68625   0.124   4.365   4.385 -0.6709 -0.8356  1.1987
  520MOL0     H68626   1.003   4.515   3.017 -1.6756 -2.5795  1.0489
  520MOL0     H68627   1.249   4.563   2.949  0.5105 -0.1204 -1.3529
  520MOL0     H68628   1.461   4.562   2.370 -1.3356 -2.2516  1.5653
  520MOL0     H68629   1.683   4.611   2.304  6.3922  1.1613  0.2115
  520MOL0     H68630   1.921   4.676   2.281 -1.4185  0.7334  2.9118
  520MOL0     H68631   1.915   4.503   2.264  0.5030 -1.2569  0.2094
  520MOL0     H68632   2.151   4.666   2.344  1.3826  0.3412 -3.2987
  520MOL0     H68633   2.123   4.499   2.400 -1.5787 -0.5198  0.2018
  520MOL0     H68634   2.197   4.606   2.125 -0.7488  1.7865  3.7497
  520MOL0     H68635   2.066   4.470   2.122  0.6714 -1.3867  0.2340
  520MOL0     H68636   2.243   4.325   2.211  3.4694 -0.8883  1.7076
  520MOL0     H68637   2.316   4.414   2.079 -0.1626  0.7340  0.1046
  520MOL0     H68638   2.530   4.561   2.413 -0.3506 -0.4482 -0.1182
  520MOL0     H68639   1.833   4.484   2.693  0.8974 -1.0684 -1.1083
  520MOL0     H68640   1.614   4.440   2.758 -2.2227  1.6113  0.2993
  521MOL0     O68641   2.643   1.012   5.350 -0.2359 -0.3448  0.2011
  521MOL0     C68642   2.666   0.995   5.471  0.6484 -0.5158  0.1914
  521MOL0     O68643   2.577   0.945   5.565 -0.4770  0.6159 -0.2761
  521MOL0     C68644   2.471   0.881   5.507  0.2551 -0.2924  0.0961
  521MOL0     C68645   2.345   0.951   5.495 -0.0748 -0.4345 -0.6595
  521MOL0     C68646   2.237   0.881   5.447 -0.3912  0.9093  0.1604
  521MOL0     C68647   2.251   0.752   5.394 -1.0563 -0.2111  0.2458
  521MOL0     O68648   2.149   0.683   5.328 -0.3027  0.0002 -0.0456
  521MOL0     C68649   2.014   0.709   5.368 -0.5825 -0.0453  0.3807
  521MOL0     C68650   1.940   0.580   5.347 -0.8972  1.0629 -0.0528
  521MOL0     C68651   1.790   0.609   5.348 -0.1306 -0.4889  0.2784
  521MOL0     C68652   1.722   0.472   5.340  0.9502 -0.2405 -0.3913
  521MOL0     C68653   1.576   0.469   5.316  0.9698  0.3741 -1.4388
  521MOL0     C68654   1.494   0.552   5.421 -0.1462  1.0025  0.6158
  521MOL0     C68655   1.342   0.529   5.398  0.4622 -0.4372 -0.3605
  521MOL0     C68656   1.270   0.657   5.436  0.5011 -0.1361 -0.3857
  521MOL0     N68657   1.128   0.636   5.433  0.4087 -0.5418 -0.2336
  521MOL0     C68658   1.055   0.599   5.541 -1.1801  0.8697 -0.5894
  521MOL0     C68659   0.940   0.653   5.519  1.0646  0.6944  0.0732
  521MOL0     C68660   0.824   0.654   5.613 -0.2867  0.6765 -0.5386
  521MOL0     C68661   0.695   0.735   5.566 -0.0259  0.1536  0.2532
  521MOL0     C68662   0.586   0.733   5.670  0.1144 -0.0918 -0.0824
  521MOL0     C68663   0.453   0.786   5.611 -0.0245  0.1983 -0.5036
  521MOL0     O68664   0.452   0.926   5.605  0.0589 -0.3065  0.2166
  521MOL0     C68665   0.336   0.996   5.588  0.5470 -0.6199 -0.5016
  521MOL0     C68666   0.338   1.134   5.601  0.5753  0.7185  0.0624
  521MOL0     C68667   0.221   1.210   5.605  0.8702 -0.2840 -0.4933
  521MOL0     C68668   0.099   1.156   5.577 -0.0928  0.0002  0.2147
  521MOL0     C68669  -0.015   1.233   5.543 -0.1131 -0.4367  0.0341
  521MOL0     O68670  -0.142   1.177   5.532 -0.4041  0.1188 -0.2465
  521MOL0     C68671  -0.252   1.266   5.529 -0.6439  0.5708 -0.2397
  521MOL0     C68672  -0.341   1.271   5.632 -0.5270  0.1333 -0.0256
  521MOL0     C68673  -0.462   1.337   5.618  0.0316 -0.0081 -0.1492
  521MOL0     C68674  -0.484   1.419   5.504 -0.2392  0.4930 -0.5198
  521MOL0     O68675  -0.594   1.500   5.497 -0.0195 -0.0910  0.5520
  521MOL0     C68676  -0.709   1.481   5.586 -0.1511  0.0765  0.6570
  521MOL0     C68677  -0.820   1.579   5.546  0.5443 -0.2012  0.6869
  521MOL0     C68678  -0.881   1.547   5.407  0.7638  0.6281  0.2933
  521MOL0     C68679  -1.014   1.620   5.380 -0.4683 -0.4185 -1.0695
  521MOL0     C68680  -1.003   1.780   5.397 -0.8851 -0.3494  0.2604
  521MOL0     C68681  -1.135   1.847   5.361  0.3930 -0.6230 -0.3879
  521MOL0     C68682  -1.193   1.822   5.217 -0.4923  0.7230 -0.4207
  521MOL0     C68683  -1.307   1.915   5.184  0.1350 -0.1400  0.1855
  521MOL0    Cl68684  -1.469   1.852   5.240 -0.5205 -0.0751  0.3711
  521MOL0     C68685  -0.400   1.408   5.391  0.1784  0.4919 -0.6029
  521MOL0     C68686  -0.285   1.328   5.407 -0.6128 -1.3231  0.0324
  521MOL0     O68687   0.014   1.354   5.520 -0.4850 -0.2419 -0.2899
  521MOL0     C68688   0.086   1.015   5.554  0.3231  0.6890 -0.0604
  521MOL0     C68689   0.207   0.937   5.570  0.2433  0.0417  0.6532
  521MOL0     N68690   0.930   0.706   5.397 -0.0990  0.2703  0.4374
  521MOL0     N68691   1.044   0.703   5.346 -0.4659 -0.1658  0.4979
  521MOL0     C68692   2.377   0.693   5.389 -0.8320 -0.2426 -0.1166
  521MOL0     C68693   2.489   0.760   5.448  0.1147  0.3333  0.2324
  521MOL0     C68694   2.801   1.024   5.510  0.0858  0.0543  0.1559
  521MOL0     C68695   2.828   1.044   5.646 -0.9771  0.1460 -1.6395
  521MOL0     C68696   2.968   1.060   5.680  0.3979  0.0161  0.5727
  521MOL0     C68697   3.068   1.071   5.585 -0.1069  0.1430  0.5168
  521MOL0     O68698   3.197   1.109   5.627 -0.1782  0.2773 -0.4195
  521MOL0     C68699   3.300   1.130   5.527  0.5798 -0.1949  0.2352
  521MOL0     C68700   3.424   1.198   5.581  0.4354  0.0908  0.0505
  521MOL0     C68701   3.531   1.114   5.649 -0.0893  0.2892  0.6324
  521MOL0     C68702   3.493   1.063   5.791  0.2635 -0.9425 -0.3657
  521MOL0     C68703   3.593   0.968   5.839  0.2764 -0.3571  0.4951
  521MOL0     C68704   3.679   0.888   5.885 -0.0311 -0.0697 -0.2729
  521MOL0     C68705   3.031   1.057   5.448 -0.0525 -0.3271 -0.4992
  521MOL0     C68706   2.899   1.035   5.407 -0.1634  0.5085  0.6538
  521MOL0     H68707   2.337   1.059   5.506  2.5272  0.0307 -2.4513
  521MOL0     H68708   2.140   0.930   5.445 -1.2644 -0.7575  0.2947
  521MOL0     H68709   1.966   0.788   5.309 -0.6390  0.8004  1.5199
  521MOL0     H68710   2.009   0.737   5.474  1.8388 -0.2001  0.6002
  521MOL0     H68711   1.972   0.512   5.427 -0.4921  1.5816  0.2305
  521MOL0     H68712   1.966   0.534   5.251 -0.7749 -1.0430  0.9238
  521MOL0     H68713   1.753   0.671   5.266  1.6521  1.0969  0.6218
  521MOL0     H68714   1.761   0.652   5.444 -2.1162  1.9102 -1.2615
  521MOL0     H68715   1.769   0.437   5.248  0.6559  0.4526 -0.8131
  521MOL0     H68716   1.750   0.403   5.420  1.2472 -1.6314 -1.6359
  521MOL0     H68717   1.544   0.365   5.329  0.3797  0.7792  0.7934
  521MOL0     H68718   1.554   0.506   5.215 -0.7454  1.0925 -0.8479
  521MOL0     H68719   1.523   0.657   5.409  0.3717  0.9248  1.1551
  521MOL0     H68720   1.526   0.518   5.519 -0.7630  1.5441  1.0190
  521MOL0     H68721   1.327   0.502   5.293 -0.8198  2.3012 -0.9582
  521MOL0     H68722   1.304   0.443   5.452  0.3435  0.8091  1.6228
  521MOL0     H68723   1.310   0.742   5.379  5.1948 -0.5964  1.7551
  521MOL0     H68724   1.311   0.682   5.534 -0.5769  3.2973 -0.6558
  521MOL0     H68725   1.084   0.553   5.635 -0.3761  1.8777 -0.3252
  521MOL0     H68726   0.869   0.700   5.701  0.8713  0.2005 -0.8678
  521MOL0     H68727   0.789   0.554   5.642  0.9222 -0.7692 -3.6050
  521MOL0     H68728   0.658   0.688   5.475  0.0399 -0.6065  0.6114
  521MOL0     H68729   0.726   0.836   5.538  1.7043 -0.3148  0.4086
  521MOL0     H68730   0.557   0.630   5.695 -1.8035  0.1241 -1.1708
  521MOL0     H68731   0.622   0.785   5.759  2.2802 -1.2425 -0.2187
  521MOL0     H68732   0.375   0.745   5.676  0.7063 -1.8217 -0.8303
  521MOL0     H68733   0.437   0.734   5.516  0.7413 -1.5436  0.2787
  521MOL0     H68734   0.434   1.186   5.597  1.3686 -0.6347  0.6439
  521MOL0     H68735   0.224   1.318   5.615 -1.4487 -0.2381  0.3831
  521MOL0     H68736  -0.319   1.198   5.709  4.3366 -2.4893 -3.3253
  521MOL0     H68737  -0.532   1.323   5.699  0.9306 -2.0042  0.3458
  521MOL0     H68738  -0.678   1.492   5.690  1.4883  1.6683  0.0640
  521MOL0     H68739  -0.741   1.377   5.580 -1.2304  0.4620 -1.2547
  521MOL0     H68740  -0.774   1.678   5.537 -1.9135  0.8277 -2.8206
  521MOL0     H68741  -0.896   1.581   5.625 -1.0176  0.0630 -0.7422
  521MOL0     H68742  -0.907   1.445   5.379  0.1603  1.4774 -2.5801
  521MOL0     H68743  -0.811   1.586   5.332 -0.1173  0.0454 -0.8693
  521MOL0     H68744  -1.051   1.593   5.281 -0.6275  0.9823 -1.4121
  521MOL0     H68745  -1.090   1.590   5.453  0.3265  1.7707  0.7757
  521MOL0     H68746  -0.927   1.819   5.328 -1.5801 -0.5435 -0.6407
  521MOL0     H68747  -0.975   1.804   5.500 -0.6678 -0.0823  0.1413
  521MOL0     H68748  -1.133   1.954   5.382  3.1243 -0.6212 -0.2136
  521MOL0     H68749  -1.206   1.810   5.436 -0.0590  1.4624  0.2751
  521MOL0     H68750  -1.108   1.842   5.152 -0.4003  2.2843  0.1418
  521MOL0     H68751  -1.227   1.719   5.207  1.1793 -0.0068  0.8421
  521MOL0     H68752  -1.307   1.933   5.076 -1.8229 -2.4678 -0.2845
  521MOL0     H68753  -1.292   2.017   5.221 -0.0658 -0.1115  0.1912
  521MOL0     H68754  -0.424   1.456   5.297 -2.9260  1.6840  0.6723
  521MOL0     H68755  -0.215   1.313   5.325 -0.2573  0.2600  0.0048
  521MOL0     H68756  -0.008   0.965   5.530  0.8029 -0.0097 -0.5318
  521MOL0     H68757   0.195   0.830   5.567 -0.2583  0.0866  0.9148
  521MOL0     H68758   2.393   0.589   5.362  0.9929 -0.9759  3.2211
  521MOL0     H68759   2.589   0.717   5.446  0.4480  1.0261 -2.6571
  521MOL0     H68760   2.755   1.061   5.725 -0.0484  0.4045 -0.8118
  521MOL0     H68761   2.985   1.095   5.781  0.7219  0.2151  0.4496
  521MOL0     H68762   3.259   1.198   5.453  0.2633  2.6879  2.8481
  521MOL0     H68763   3.333   1.036   5.481  1.6496  1.2860 -2.2041
  521MOL0     H68764   3.475   1.262   5.508  2.7697 -0.1270  1.3896
  521MOL0     H68765   3.394   1.271   5.656 -0.1340  1.0193 -1.0489
  521MOL0     H68766   3.616   1.183   5.656  1.2114 -1.0895 -0.7538
  521MOL0     H68767   3.553   1.029   5.584  2.0613  1.5912 -0.4543
  521MOL0     H68768   3.489   1.147   5.861  4.7058  0.5376 -1.4875
  521MOL0     H68769   3.396   1.015   5.785 -0.0435 -0.1927 -2.2487
  521MOL0     H68770   3.746   0.823   5.938 -1.2056 -1.2943 -0.2163
  521MOL0     H68771   3.103   1.074   5.369 -1.1773  0.4369 -1.3965
  521MOL0     H68772   2.876   1.038   5.300 -0.1134  0.2535  0.6364
  522MOL0     O68773   4.498   9.524   1.166 -0.0468  0.7869  0.0970
  522MOL0     C68774   4.559   9.557   1.270  1.1281  0.1037  0.1225
  522MOL0     O68775   4.510   9.543   1.402  0.0527 -0.2208  0.5251
  522MOL0     C68776   4.418   9.453   1.440 -0.4009  1.2853 -0.3427
  522MOL0     C68777   4.434   9.308   1.422  0.4369 -0.0083  0.2534
  522MOL0     C68778   4.332   9.233   1.483 -0.2231  0.9933  0.9066
  522MOL0     C68779   4.237   9.286   1.567  0.1479 -0.4380 -0.3437
  522MOL0     O68780   4.148   9.199   1.632  0.7771 -0.1888  0.5434
  522MOL0     C68781   4.011   9.234   1.651  0.8182 -0.2802  0.5553
  522MOL0     C68782   3.939   9.115   1.715  0.6324  0.4866  0.0413
  522MOL0     C68783   3.953   8.986   1.634  0.0661 -0.4824  0.3607
  522MOL0     C68784   3.842   8.880   1.670 -0.4934  0.3148 -0.2409
  522MOL0     C68785   3.870   8.761   1.576  0.1821 -0.1357 -0.5179
  522MOL0     C68786   3.989   8.666   1.620 -0.3085 -0.4811  0.0994
  522MOL0     C68787   3.969   8.538   1.542  0.4842  1.0637  0.6287
  522MOL0     C68788   4.087   8.439   1.565 -0.8223  0.1602  0.5258
  522MOL0     N68789   4.075   8.315   1.493 -0.0284  0.5864 -0.2878
  522MOL0     C68790   4.145   8.295   1.373 -0.4042 -0.3421  0.8372
  522MOL0     C68791   4.091   8.183   1.322  0.3937 -0.4305  0.5021
  522MOL0     C68792   4.137   8.117   1.195  0.2539 -0.0917  0.1708
  522MOL0     C68793   4.060   7.982   1.162 -0.1817 -0.5154 -0.1322
  522MOL0     C68794   4.134   7.860   1.235  0.1845 -0.3237  0.9924
  522MOL0     C68795   4.087   7.719   1.184 -0.0610 -0.3088 -1.1764
  522MOL0     O68796   3.979   7.670   1.266  0.4361  0.4853 -0.1035
  522MOL0     C68797   3.848   7.682   1.225 -0.8566  0.1584 -0.9783
  522MOL0     C68798   3.811   7.660   1.095 -0.5607 -0.2452  0.4489
  522MOL0     C68799   3.681   7.689   1.053  0.2381 -0.0610  0.1592
  522MOL0     C68800   3.584   7.746   1.145 -1.0964  1.1938  0.4402
  522MOL0     C68801   3.441   7.786   1.105  0.4450 -0.1155 -0.3017
  522MOL0     O68802   3.351   7.818   1.211 -0.5444 -1.1357  0.3564
  522MOL0     C68803   3.221   7.836   1.188  0.7771  0.1698 -0.0233
  522MOL0     C68804   3.141   7.926   1.265  0.2190  0.3684 -0.0202
  522MOL0     C68805   3.004   7.947   1.249  0.2824  0.2322  0.0521
  522MOL0     C68806   2.940   7.871   1.147 -0.2384  0.1498 -0.7171
  522MOL0     O68807   2.810   7.883   1.110 -0.2277  0.4807  0.1891
  522MOL0     C68808   2.717   7.980   1.174 -0.3918  0.0971 -0.0681
  522MOL0     C68809   2.572   7.946   1.141 -0.2046 -0.2255  0.3264
  522MOL0     C68810   2.546   7.949   0.989 -0.3812 -0.2786  0.0654
  522MOL0     C68811   2.396   7.907   0.967 -0.3347  0.3509  0.1706
  522MOL0     C68812   2.351   7.895   0.819 -0.3135 -0.3407 -0.4032
  522MOL0     C68813   2.226   7.810   0.809  0.7150 -0.4102  0.0392
  522MOL0     C68814   2.191   7.795   0.659 -0.2880  0.4703  0.1424
  522MOL0     C68815   2.045   7.823   0.635  1.1220 -0.4321  0.1145
  522MOL0    Cl68816   1.994   7.785   0.458 -0.0644  0.3632 -0.0737
  522MOL0     C68817   3.017   7.792   1.061  0.2917  0.2528 -0.8074
  522MOL0     C68818   3.152   7.760   1.083  0.5152 -0.0468 -0.4974
  522MOL0     O68819   3.418   7.774   0.991  0.0247 -0.0860  0.3320
  522MOL0     C68820   3.630   7.773   1.275 -0.1717  0.8704  0.2038
  522MOL0     C68821   3.758   7.732   1.321  0.3628 -0.7715 -0.2009
  522MOL0     N68822   3.997   8.132   1.411 -0.2101  0.2843  0.4603
  522MOL0     N68823   3.987   8.213   1.505  0.5699 -0.0218 -0.0983
  522MOL0     C68824   4.219   9.423   1.570  0.5200 -0.1451  0.6990
  522MOL0     C68825   4.314   9.501   1.517 -0.3992 -0.3523  0.1767
  522MOL0     C68826   4.698   9.597   1.248  0.8651  0.4685  1.1983
  522MOL0     C68827   4.760   9.592   1.117 -0.6534 -0.0784  0.4027
  522MOL0     C68828   4.890   9.642   1.100 -0.3533 -0.1324  0.1693
  522MOL0     C68829   4.957   9.701   1.201 -0.8977  0.5219  0.8895
  522MOL0     O68830   5.087   9.744   1.178  0.0219  1.1818  0.4477
  522MOL0     C68831   5.188   9.701   1.269 -0.6061 -0.5332  0.2232
  522MOL0     C68832   5.212   9.554   1.251 -0.5904  1.4696  0.0655
  522MOL0     C68833   5.318   9.496   1.347 -0.1428  0.9719  0.0218
  522MOL0     C68834   5.459   9.544   1.305  0.6413 -0.3668 -0.1456
  522MOL0     C68835   5.551   9.508   1.415  0.0209 -0.0095  0.2397
  522MOL0     C68836   5.622   9.474   1.507  0.2519  0.6148 -1.2180
  522MOL0     C68837   4.901   9.713   1.323  0.0316  0.1622 -0.5975
  522MOL0     C68838   4.776   9.653   1.351  0.0218 -0.1020 -0.9468
  522MOL0     H68839   4.502   9.263   1.350 -0.2663 -2.5297  1.0708
  522MOL0     H68840   4.338   9.127   1.457 -0.0002  0.3190  3.4812
  522MOL0     H68841   3.960   9.253   1.556  1.6961 -0.7136 -0.0200
  522MOL0     H68842   4.001   9.325   1.711  0.6155 -0.7050  1.1728
  522MOL0     H68843   3.835   9.144   1.736  0.7781  1.1614 -0.1472
  522MOL0     H68844   3.985   9.097   1.812 -0.0734 -1.7799  0.0124
  522MOL0     H68845   4.054   8.956   1.661 -0.3470 -1.4223  0.9106
  522MOL0     H68846   3.957   9.005   1.526 -3.2001  0.8991  0.3548
  522MOL0     H68847   3.853   8.856   1.776 -1.7524 -0.4498 -0.2589
  522MOL0     H68848   3.742   8.921   1.652 -0.8061 -0.2621  0.1378
  522MOL0     H68849   3.876   8.792   1.472  2.9339 -0.3296 -0.4965
  522MOL0     H68850   3.784   8.693   1.583  0.0444  0.1509  1.1331
  522MOL0     H68851   4.000   8.648   1.727 -0.9640 -1.1056  0.0677
  522MOL0     H68852   4.085   8.713   1.598  1.7518 -3.0713  2.8329
  522MOL0     H68853   3.869   8.500   1.564 -0.3585  3.2833  0.8854
  522MOL0     H68854   3.967   8.556   1.434  0.4569  1.7229  0.7380
  522MOL0     H68855   4.104   8.414   1.670 -1.9006 -0.3374  0.5933
  522MOL0     H68856   4.175   8.498   1.536 -0.8744  1.3207  2.4929
  522MOL0     H68857   4.230   8.348   1.331  0.0338  1.3338  3.5763
  522MOL0     H68858   4.246   8.108   1.190  0.1137 -1.6762 -0.7128
  522MOL0     H68859   4.120   8.188   1.114  3.2129  1.0414  0.4208
  522MOL0     H68860   4.053   7.974   1.053 -1.4449 -0.1247 -0.0911
  522MOL0     H68861   3.957   7.979   1.199  0.1620 -4.3447  0.9173
  522MOL0     H68862   4.241   7.872   1.218 -0.0623 -0.7757 -1.2984
  522MOL0     H68863   4.122   7.863   1.343 -0.3594  2.1260  0.9181
  522MOL0     H68864   4.177   7.657   1.185 -0.1460 -0.4240  0.3835
  522MOL0     H68865   4.063   7.729   1.078 -0.1331  1.5882 -1.0232
  522MOL0     H68866   3.882   7.622   1.021  1.1781  1.3407  1.2222
  522MOL0     H68867   3.668   7.674   0.946  0.8699 -3.1339  0.4209
  522MOL0     H68868   3.185   7.978   1.351  0.5452  0.4007 -0.2042
  522MOL0     H68869   2.954   8.025   1.305  0.9211  2.1182 -1.8935
  522MOL0     H68870   2.746   8.080   1.142  0.8579 -0.1517  0.2235
  522MOL0     H68871   2.740   7.979   1.281 -2.5772 -1.4405  0.4548
  522MOL0     H68872   2.508   8.013   1.200  1.1298  0.9767  0.4708
  522MOL0     H68873   2.566   7.843   1.177 -1.1826 -0.2228  0.1901
  522MOL0     H68874   2.619   7.886   0.938 -0.0402  1.0612 -1.1717
  522MOL0     H68875   2.560   8.052   0.955 -1.9049  0.7228  2.1900
  522MOL0     H68876   2.395   7.808   1.013  0.9225 -1.1806 -2.8393
  522MOL0     H68877   2.341   7.989   1.015 -0.2229 -0.2025  1.2859
  522MOL0     H68878   2.427   7.855   0.751  0.9894  1.5847 -0.1530
  522MOL0     H68879   2.330   7.997   0.787 -0.6715  0.6763  2.7957
  522MOL0     H68880   2.135   7.842   0.861 -0.1682  2.7537 -3.0513
  522MOL0     H68881   2.249   7.710   0.847 -1.5538 -0.5705  1.1769
  522MOL0     H68882   2.239   7.871   0.595 -1.0644 -0.3666 -1.5123
  522MOL0     H68883   2.217   7.697   0.619 -1.0977  0.1740  0.3328
  522MOL0     H68884   2.005   7.919   0.666 -2.2960 -1.1343 -1.6281
  522MOL0     H68885   1.993   7.747   0.694 -0.2272 -0.9129 -1.6016
  522MOL0     H68886   2.964   7.735   0.985 -0.3478  0.9686 -0.9050
  522MOL0     H68887   3.198   7.692   1.012 -0.3371  0.4135 -1.5351
  522MOL0     H68888   3.566   7.819   1.350  0.6447  1.1054  0.7726
  522MOL0     H68889   3.785   7.735   1.426  1.6598 -0.4188 -0.5295
  522MOL0     H68890   4.139   9.460   1.633  1.1225  2.8776 -0.1328
  522MOL0     H68891   4.309   9.606   1.545  1.3821 -0.2998  0.4142
  522MOL0     H68892   4.699   9.553   1.036  1.1896  0.7747 -1.5106
  522MOL0     H68893   4.938   9.639   1.002 -1.3102 -0.9542 -0.2889
  522MOL0     H68894   5.172   9.734   1.372 -0.0801 -0.3085  0.2393
  522MOL0     H68895   5.277   9.759   1.240 -0.7478 -0.7116 -0.5770
  522MOL0     H68896   5.116   9.505   1.269 -0.9324  1.1187 -2.3816
  522MOL0     H68897   5.241   9.538   1.147  2.3962  0.3555  0.9605
  522MOL0     H68898   5.332   9.389   1.333 -0.7373  1.1124 -1.9404
  522MOL0     H68899   5.295   9.524   1.450 -0.8745  1.4937 -0.2693
  522MOL0     H68900   5.480   9.487   1.214  1.3728 -2.1208  1.0609
  522MOL0     H68901   5.463   9.652   1.292  2.4780 -0.0923  1.9842
  522MOL0     H68902   5.689   9.452   1.588 -2.7464 -0.2755  1.2138
  522MOL0     H68903   4.962   9.750   1.405  0.0316  0.6707 -0.8227
  522MOL0     H68904   4.737   9.671   1.451  0.1904 -0.2640 -0.8527
  523MOL0     O68905   8.524   9.977   7.990 -0.0288  0.1165  0.8328
  523MOL0     C68906   8.498   9.864   8.033 -0.1465  0.3403  0.7570
  523MOL0     O68907   8.372   9.821   8.074  0.1460 -0.1707 -0.0316
  523MOL0     C68908   8.259   9.904   8.066  0.1501  0.2087 -0.1135
  523MOL0     C68909   8.142   9.830   8.072 -0.4409 -0.0023 -0.3436
  523MOL0     C68910   8.021   9.889   8.071 -0.2365  0.3336 -0.8506
  523MOL0     C68911   8.007  10.032   8.086  0.5125 -0.1923 -0.0404
  523MOL0     O68912   7.893  10.106   8.101  0.4913  0.5904 -0.0060
  523MOL0     C68913   7.777  10.044   8.152  0.3256  0.3854  0.2695
  523MOL0     C68914   7.665  10.142   8.130  0.6097 -0.0255 -0.0972
  523MOL0     C68915   7.533  10.096   8.193 -0.0041 -0.5011 -0.2910
  523MOL0     C68916   7.475   9.970   8.140 -0.2151 -0.4415  0.4922
  523MOL0     C68917   7.326   9.943   8.187 -0.8467  0.5745  0.4387
  523MOL0     C68918   7.298   9.794   8.162 -0.3103 -0.6841  0.2933
  523MOL0     C68919   7.145   9.766   8.188  0.1138 -0.4739 -0.4568
  523MOL0     C68920   7.063   9.769   8.061 -0.0457  0.3236  0.3322
  523MOL0     N68921   7.036   9.902   8.008 -0.1889 -0.4172  0.8287
  523MOL0     C68922   6.971  10.003   8.068  0.4419 -0.0924  0.0368
  523MOL0     C68923   6.967  10.108   7.976 -0.6582 -0.1869  0.5411
  523MOL0     C68924   6.880  10.230   7.988  0.5345  1.2172 -0.2591
  523MOL0     C68925   6.730  10.214   7.946  0.2928  0.2274  0.4271
  523MOL0     C68926   6.658  10.352   7.964 -0.2478  0.5660  0.2199
  523MOL0     C68927   6.502  10.335   7.925 -0.3595 -0.5588 -0.3567
  523MOL0     O68928   6.431  10.460   7.946 -0.2662 -0.0435  0.6280
  523MOL0     C68929   6.302  10.462   7.897 -0.4576 -0.7730 -0.4454
  523MOL0     C68930   6.224  10.361   7.857  1.1593 -0.2050  0.1153
  523MOL0     C68931   6.085  10.372   7.824 -0.7362  0.3560 -0.1015
  523MOL0     C68932   6.017  10.501   7.842 -1.0036  0.1455 -0.8964
  523MOL0     C68933   5.873  10.500   7.839  0.0258 -0.2160 -0.6108
  523MOL0     O68934   5.809  10.386   7.795 -0.6775 -0.3110  0.3041
  523MOL0     C68935   5.671  10.397   7.785 -0.2105 -0.3635  0.4269
  523MOL0     C68936   5.576  10.405   7.892 -0.8116 -0.1408  0.4515
  523MOL0     C68937   5.443  10.438   7.862 -0.4431  0.5178 -0.6594
  523MOL0     C68938   5.389  10.442   7.732  0.4843 -0.4992  1.4939
  523MOL0     O68939   5.251  10.475   7.698 -0.7757 -0.2482 -0.3525
  523MOL0     C68940   5.153  10.467   7.804  0.0495  0.2629 -0.0102
  523MOL0     C68941   5.110  10.322   7.843  0.0468 -0.1919 -0.1680
  523MOL0     C68942   4.992  10.318   7.940  1.0828  0.0074 -0.0740
  523MOL0     C68943   4.965  10.183   7.996  0.3003  0.4012  0.1400
  523MOL0     C68944   5.077  10.115   8.084  0.1689  0.1714 -0.0420
  523MOL0     C68945   5.028   9.970   8.111 -0.2631 -0.3001  0.2192
  523MOL0     C68946   5.025   9.870   7.989 -0.3796 -0.2137 -0.2316
  523MOL0     C68947   4.951   9.746   8.027  0.2740 -0.0783 -0.1948
  523MOL0    Cl68948   5.060   9.651   8.137 -0.4444  0.3524 -0.3546
  523MOL0     C68949   5.482  10.426   7.634 -1.0257  0.2613  0.3591
  523MOL0     C68950   5.622  10.416   7.657  0.1178  1.0459 -0.5677
  523MOL0     O68951   5.814  10.601   7.868 -0.0700  0.2415  0.2556
  523MOL0     C68952   6.101  10.607   7.881 -0.1626  0.6118  0.3063
  523MOL0     C68953   6.244  10.591   7.899  0.2481 -0.6587 -0.7124
  523MOL0     N68954   7.051  10.072   7.871 -0.1776 -0.3198 -0.5839
  523MOL0     N68955   7.097   9.954   7.893 -0.2611 -0.2690  0.5039
  523MOL0     C68956   8.124  10.105   8.062 -0.0353 -0.1639  0.3092
  523MOL0     C68957   8.245  10.044   8.065 -0.4503  0.5828  1.0199
  523MOL0     C68958   8.603   9.753   8.003  0.1358  0.1101  0.2630
  523MOL0     C68959   8.587   9.622   8.050 -0.3843 -1.1515  0.1018
  523MOL0     C68960   8.685   9.520   8.034 -0.1018 -0.1728  0.7952
  523MOL0     C68961   8.796   9.549   7.959  0.1442  0.0040  0.1972
  523MOL0     O68962   8.879   9.445   7.928  0.0892 -0.1165 -0.8411
  523MOL0     C68963   8.995   9.465   7.848 -0.2475  0.2629  0.0604
  523MOL0     C68964   9.055   9.325   7.817 -0.2259 -0.3031  0.4020
  523MOL0     C68965   9.159   9.312   7.710 -0.0875 -0.9472  1.2455
  523MOL0     C68966   9.127   9.396   7.588 -0.1525 -0.4422  0.0653
  523MOL0     C68967   9.219   9.354   7.487  0.0239  0.5750  0.0727
  523MOL0     C68968   9.285   9.344   7.388  0.3771 -0.3942 -0.6300
  523MOL0     C68969   8.819   9.675   7.914  0.7477 -0.5686  0.4600
  523MOL0     C68970   8.725   9.778   7.934 -0.2092  0.3356 -0.0748
  523MOL0     H68971   8.144   9.722   8.084 -1.9374 -0.0290 -0.1518
  523MOL0     H68972   7.934   9.825   8.075  1.2343 -1.8440 -1.8778
  523MOL0     H68973   7.792  10.016   8.257  0.0495  1.2880  0.5561
  523MOL0     H68974   7.750   9.952   8.099 -0.4538 -0.3375  1.8463
  523MOL0     H68975   7.647  10.160   8.024 -0.1219 -1.5054 -0.2551
  523MOL0     H68976   7.695  10.241   8.166  0.2210  0.5787 -1.3691
  523MOL0     H68977   7.454  10.169   8.179 -0.3810 -0.6233  1.0196
  523MOL0     H68978   7.556  10.085   8.300  1.6182  1.9236 -0.3253
  523MOL0     H68979   7.474   9.987   8.031  0.6278  2.1796  0.8188
  523MOL0     H68980   7.538   9.889   8.177  0.0869 -0.4920 -0.1066
  523MOL0     H68981   7.260  10.012   8.132 -1.7151 -0.0156  0.7122
  523MOL0     H68982   7.316   9.959   8.295 -2.1600 -0.9155  0.5764
  523MOL0     H68983   7.362   9.740   8.233 -0.1963 -2.0081 -0.7813
  523MOL0     H68984   7.329   9.769   8.060  1.0838 -1.1063  0.7960
  523MOL0     H68985   7.119   9.664   8.217 -3.2745  0.4373  0.1083
  523MOL0     H68986   7.116   9.821   8.277  1.1910 -0.8751  0.1598
  523MOL0     H68987   6.965   9.729   8.088  0.7925 -0.2800  2.7241
  523MOL0     H68988   7.106   9.707   7.982 -1.5457 -1.2424  0.7022
  523MOL0     H68989   6.903  10.003   8.153  0.4901  2.9522  0.1717
  523MOL0     H68990   6.921  10.310   7.927  0.4997  3.2185  2.1439
  523MOL0     H68991   6.900  10.264   8.090  2.1879  0.1880 -0.2013
  523MOL0     H68992   6.676  10.143   8.010 -0.4748 -0.8691 -1.3636
  523MOL0     H68993   6.737  10.169   7.846  2.1643 -0.2030  0.7263
  523MOL0     H68994   6.669  10.390   8.066  2.9811 -0.4690  0.3933
  523MOL0     H68995   6.702  10.426   7.895  1.6103 -0.6646 -0.0020
  523MOL0     H68996   6.445  10.261   7.981 -0.7593  0.4440  0.6090
  523MOL0     H68997   6.521  10.304   7.822  3.0734 -2.7413  0.7527
  523MOL0     H68998   6.260  10.259   7.846 -0.8964 -0.8612 -1.1235
  523MOL0     H68999   6.020  10.294   7.786 -1.3439  0.7761  0.0596
  523MOL0     H69000   5.606  10.398   7.996 -0.6304  0.5936  0.4568
  523MOL0     H69001   5.389  10.447   7.955  1.4423 -1.9123  0.8073
  523MOL0     H69002   5.068  10.529   7.773  0.7355  1.0815 -0.3165
  523MOL0     H69003   5.199  10.524   7.885 -0.6679  3.5799 -1.7185
  523MOL0     H69004   5.198  10.271   7.883 -0.4274 -0.5603  0.4298
  523MOL0     H69005   5.064  10.276   7.755  0.3209  0.1725 -0.5053
  523MOL0     H69006   4.905  10.361   7.890  0.7837  0.0629  0.4845
  523MOL0     H69007   5.006  10.377   8.031  0.0382 -1.5857  1.1904
  523MOL0     H69008   4.871  10.185   8.053 -0.0916  0.5118 -0.5021
  523MOL0     H69009   4.941  10.127   7.906  0.7482  3.6442 -2.1632
  523MOL0     H69010   5.088  10.174   8.175 -0.9709 -3.3462  2.6289
  523MOL0     H69011   5.171  10.111   8.028  0.4627  0.7131  0.4054
  523MOL0     H69012   4.932   9.973   8.163 -0.5068 -0.2552 -0.2214
  523MOL0     H69013   5.103   9.933   8.180  2.7000 -0.5191 -2.8486
  523MOL0     H69014   4.986   9.913   7.897 -3.2227  3.5959  2.4492
  523MOL0     H69015   5.130   9.844   7.969 -0.1407  1.3241 -1.0593
  523MOL0     H69016   4.922   9.693   7.935  0.3358  0.9581 -0.8282
  523MOL0     H69017   4.854   9.765   8.075  0.2082  2.4525 -1.1853
  523MOL0     H69018   5.437  10.434   7.535 -3.5266  3.1083  1.5847
  523MOL0     H69019   5.694  10.415   7.576  0.6089  0.5071 -0.1330
  523MOL0     H69020   6.056  10.705   7.896 -0.4080  0.5209  0.1755
  523MOL0     H69021   6.299  10.682   7.918 -2.7514  1.2002 -0.2521
  523MOL0     H69022   8.134  10.213   8.054 -0.5397  0.0638  2.2023
  523MOL0     H69023   8.334  10.103   8.047  0.2550 -1.1939 -1.9490
  523MOL0     H69024   8.496   9.599   8.103 -0.3039  3.5268  2.8039
  523MOL0     H69025   8.654   9.427   8.078 -1.2946 -0.9449 -1.5100
  523MOL0     H69026   9.069   9.525   7.903 -0.4827 -0.8677  1.6986
  523MOL0     H69027   8.971   9.509   7.752  0.2860  3.4982  1.2984
  523MOL0     H69028   9.098   9.297   7.914 -0.9185  0.5812  0.9845
  523MOL0     H69029   8.979   9.251   7.789  3.4359 -4.0883 -0.6374
  523MOL0     H69030   9.178   9.208   7.684 -4.2300 -1.6316  0.2377
  523MOL0     H69031   9.255   9.351   7.746  0.7326 -1.1486 -0.6538
  523MOL0     H69032   9.027   9.370   7.552 -0.0240 -1.1563  0.2140
  523MOL0     H69033   9.139   9.502   7.612 -1.4767 -0.1898 -0.2850
  523MOL0     H69034   9.344   9.328   7.300 -0.5686  0.1587 -1.3741
  523MOL0     H69035   8.902   9.688   7.846  0.8640 -2.6751  0.1197
  523MOL0     H69036   8.754   9.873   7.889  1.2906 -0.2041 -0.3098
  524MOL0     O69037   3.044   8.763   6.621 -0.3163  0.7377 -0.6393
  524MOL0     C69038   3.075   8.870   6.570  0.5941 -0.4878  0.0974
  524MOL0     O69039   2.986   8.954   6.496 -0.0125  0.5892  0.3789
  524MOL0     C69040   2.848   8.936   6.486 -0.1182  0.1256 -0.7925
  524MOL0     C69041   2.778   8.814   6.506 -0.7982  0.4117  0.3326
  524MOL0     C69042   2.645   8.806   6.475 -0.3705 -0.0968  0.7978
  524MOL0     C69043   2.575   8.913   6.420 -0.2251  0.3541  0.5447
  524MOL0     O69044   2.449   8.896   6.362 -0.6393 -0.3033 -0.3547
  524MOL0     C69045   2.367   8.788   6.409  0.4461  0.2500  0.1589
  524MOL0     C69046   2.219   8.820   6.364 -0.7164 -0.3211 -0.1871
  524MOL0     C69047   2.204   8.876   6.224  0.2002  0.3461  0.0024
  524MOL0     C69048   2.274   8.785   6.116  0.1435 -0.0516  0.1466
  524MOL0     C69049   2.243   8.841   5.979 -0.8129 -0.6066  0.3223
  524MOL0     C69050   2.310   8.978   5.954  0.5954  0.5957  0.0962
  524MOL0     C69051   2.454   8.997   5.977  0.0224 -0.1298 -0.4092
  524MOL0     C69052   2.534   8.898   5.892  0.2427 -1.3218  0.0723
  524MOL0     N69053   2.681   8.922   5.880  0.6380 -0.2470 -0.0653
  524MOL0     C69054   2.760   8.954   5.992 -1.0205 -0.0789  0.8894
  524MOL0     C69055   2.876   9.001   5.934  0.3636 -0.3919  0.3781
  524MOL0     C69056   2.995   9.071   5.995 -0.6847  0.2348  0.9156
  524MOL0     C69057   3.039   9.016   6.127 -0.1635  0.2686  0.0579
  524MOL0     C69058   3.065   8.865   6.131  0.2684 -0.0554 -0.4589
  524MOL0     C69059   3.207   8.837   6.076  0.0000 -0.4706 -0.0751
  524MOL0     O69060   3.232   8.705   6.111  0.4174 -0.8489 -0.2752
  524MOL0     C69061   3.358   8.664   6.152  0.5056  0.6765 -0.5970
  524MOL0     C69062   3.412   8.561   6.089 -0.8334  0.4399 -0.5341
  524MOL0     C69063   3.540   8.528   6.119 -0.5483  0.8535 -0.0470
  524MOL0     C69064   3.616   8.598   6.217 -0.4105  0.3586 -0.3892
  524MOL0     C69065   3.755   8.569   6.258  0.4484 -0.3658 -1.0931
  524MOL0     O69066   3.828   8.662   6.325  0.4563 -0.8812 -0.8790
  524MOL0     C69067   3.959   8.655   6.354  1.0249  0.3912  0.3323
  524MOL0     C69068   4.049   8.565   6.291 -0.2950  0.5748  0.6509
  524MOL0     C69069   4.185   8.568   6.331 -1.1964  0.2567 -0.0440
  524MOL0     C69070   4.230   8.657   6.432 -0.0830 -0.2627  0.3229
  524MOL0     O69071   4.363   8.657   6.472  0.1345  0.1306  0.6552
  524MOL0     C69072   4.443   8.560   6.401 -0.0119 -0.5025 -0.0136
  524MOL0     C69073   4.581   8.579   6.439  0.0558  0.2621  0.0364
  524MOL0     C69074   4.681   8.467   6.394  0.4437  0.0953  0.0050
  524MOL0     C69075   4.816   8.499   6.438 -0.2472  0.2088 -0.0066
  524MOL0     C69076   4.930   8.406   6.398 -0.0290  0.3855 -0.2280
  524MOL0     C69077   5.051   8.460   6.485 -0.2989 -0.5601 -0.9440
  524MOL0     C69078   5.180   8.391   6.452  0.0193 -0.2329  0.3351
  524MOL0     C69079   5.287   8.439   6.547 -0.3664  0.5119 -0.0242
  524MOL0    Cl69080   5.317   8.606   6.516 -0.1153 -0.3194 -0.1523
  524MOL0     C69081   4.132   8.734   6.493 -0.2165  0.3364 -0.0717
  524MOL0     C69082   4.005   8.740   6.450 -0.2243 -0.2067  0.4041
  524MOL0     O69083   3.766   8.444   6.264  0.2064 -0.6286  0.3625
  524MOL0     C69084   3.559   8.710   6.283 -0.6701  0.1839 -0.5844
  524MOL0     C69085   3.427   8.744   6.250 -0.2832 -0.0740  0.1967
  524MOL0     N69086   2.858   9.003   5.794  0.2333  0.0133  0.3012
  524MOL0     N69087   2.752   8.937   5.766  0.1529 -0.5865 -0.4705
  524MOL0     C69088   2.640   9.033   6.409 -1.0058 -0.5141  0.4307
  524MOL0     C69089   2.778   9.044   6.446  0.1618 -0.1207  0.5095
  524MOL0     C69090   3.214   8.913   6.584 -0.3326 -0.1712  0.3591
  524MOL0     C69091   3.304   8.817   6.623  0.6127  0.2904 -0.2280
  524MOL0     C69092   3.432   8.856   6.659  0.4520  0.1943 -0.5608
  524MOL0     C69093   3.485   8.988   6.637  0.4256 -0.2769 -0.3101
  524MOL0     O69094   3.615   9.023   6.668  0.3533  0.1996  0.0119
  524MOL0     C69095   3.708   8.919   6.698  0.1734  0.4256 -0.4711
  524MOL0     C69096   3.852   8.965   6.731 -0.6397  0.7058  0.2317
  524MOL0     C69097   3.876   9.034   6.866  0.1615 -0.1437 -0.8969
  524MOL0     C69098   4.016   9.091   6.868 -0.5011 -0.1508 -0.2295
  524MOL0     C69099   4.110   8.985   6.883  0.1498  0.3511 -0.4700
  524MOL0     C69100   4.175   8.888   6.908  0.2647  0.2521  0.1016
  524MOL0     C69101   3.393   9.081   6.582  0.1160 -0.2300 -0.1330
  524MOL0     C69102   3.253   9.047   6.559 -0.6048 -0.1032  0.4335
  524MOL0     H69103   2.821   8.725   6.549 -2.6208 -0.7099 -0.0275
  524MOL0     H69104   2.592   8.713   6.493 -1.3035  0.7056  2.4762
  524MOL0     H69105   2.357   8.774   6.517 -1.1250 -0.1422  0.0011
  524MOL0     H69106   2.399   8.689   6.375  0.8384  0.3290  0.2936
  524MOL0     H69107   2.185   8.891   6.439  1.0464 -0.5528  0.8913
  524MOL0     H69108   2.156   8.731   6.374 -0.6737 -0.5779 -1.8712
  524MOL0     H69109   2.243   8.978   6.217 -1.2789  0.8908 -0.6041
  524MOL0     H69110   2.099   8.889   6.195  0.7213 -1.4752 -3.1776
  524MOL0     H69111   2.379   8.770   6.142 -0.3337  1.9354  3.7669
  524MOL0     H69112   2.234   8.683   6.114 -2.1056  0.7752  0.5811
  524MOL0     H69113   2.135   8.853   5.965 -0.4130  2.9757 -0.7829
  524MOL0     H69114   2.279   8.769   5.905 -1.5850 -0.4972 -0.1793
  524MOL0     H69115   2.254   9.039   6.026 -3.2323 -0.2340 -1.8609
  524MOL0     H69116   2.285   9.024   5.858  0.3555  1.2750  0.4723
  524MOL0     H69117   2.477   9.100   5.948  0.4996 -0.3138 -0.6887
  524MOL0     H69118   2.474   8.984   6.083  1.4627 -2.0801 -0.8608
  524MOL0     H69119   2.504   8.886   5.787 -0.2895 -2.0514  0.2950
  524MOL0     H69120   2.521   8.806   5.950 -0.6646 -0.4235  1.3589
  524MOL0     H69121   2.736   8.948   6.098 -0.6135 -2.8521  0.8914
  524MOL0     H69122   2.975   9.177   6.010  1.1118  0.5629  1.1793
  524MOL0     H69123   3.080   9.070   5.926 -1.0402 -1.4824  0.4663
  524MOL0     H69124   2.967   9.045   6.204  1.0682  2.4809  0.4669
  524MOL0     H69125   3.133   9.064   6.153 -0.0753  0.2440 -0.2130
  524MOL0     H69126   3.059   8.832   6.235  0.3926 -0.0984 -0.4646
  524MOL0     H69127   2.982   8.812   6.085  1.1412  0.4906 -2.8119
  524MOL0     H69128   3.279   8.913   6.107 -1.0047 -0.1004  1.4629
  524MOL0     H69129   3.206   8.844   5.967 -0.3359 -1.7156 -0.1671
  524MOL0     H69130   3.356   8.516   6.008  1.4723  1.1665 -2.6797
  524MOL0     H69131   3.579   8.432   6.088 -1.7331 -1.2102  4.1454
  524MOL0     H69132   4.030   8.499   6.207 -1.9271  0.1912  1.2867
  524MOL0     H69133   4.256   8.500   6.285 -0.6216  0.2072  0.9009
  524MOL0     H69134   4.429   8.580   6.295  0.0552  1.6345  0.3508
  524MOL0     H69135   4.412   8.458   6.428  0.0031 -0.6864 -0.6725
  524MOL0     H69136   4.583   8.577   6.548 -1.8598 -0.0659  0.1008
  524MOL0     H69137   4.608   8.671   6.387 -1.4488  0.5483 -0.3105
  524MOL0     H69138   4.684   8.461   6.285 -0.0198 -2.2789  0.0566
  524MOL0     H69139   4.653   8.367   6.428  1.2835 -0.8307 -1.8952
  524MOL0     H69140   4.843   8.598   6.400 -1.9281  0.6739 -0.0628
  524MOL0     H69141   4.814   8.509   6.547  2.3055 -3.3260  0.5369
  524MOL0     H69142   4.954   8.411   6.291 -0.6057 -0.9998 -0.4366
  524MOL0     H69143   4.903   8.307   6.434 -1.5961  0.7953 -0.2085
  524MOL0     H69144   5.020   8.452   6.590 -1.6452  1.8071 -1.0781
  524MOL0     H69145   5.060   8.568   6.466  0.9619 -0.3951  0.3792
  524MOL0     H69146   5.162   8.287   6.482 -3.1630  0.5542  1.5875
  524MOL0     H69147   5.203   8.410   6.347  0.4049  1.5211  0.6959
  524MOL0     H69148   5.378   8.381   6.533 -0.9084 -0.8401  1.6793
  524MOL0     H69149   5.259   8.415   6.650 -0.7302 -0.4310 -0.3414
  524MOL0     H69150   4.165   8.793   6.579 -0.1191 -4.5439  3.7099
  524MOL0     H69151   3.925   8.804   6.486 -0.0335  0.4232 -0.2464
  524MOL0     H69152   3.611   8.774   6.353 -2.0979  3.7280 -2.4839
  524MOL0     H69153   3.378   8.824   6.304  1.1672 -1.3493  3.7025
  524MOL0     H69154   2.588   9.121   6.373 -0.0649  1.2056  3.0531
  524MOL0     H69155   2.825   9.137   6.416 -1.8323  1.4265  1.9161
  524MOL0     H69156   3.287   8.714   6.653  2.1796  0.3354  0.9353
  524MOL0     H69157   3.488   8.790   6.724  1.4786  2.4877  1.0076
  524MOL0     H69158   3.712   8.847   6.615  0.6842 -1.9948  1.5108
  524MOL0     H69159   3.669   8.861   6.782  1.4442  2.1295  1.3763
  524MOL0     H69160   3.908   8.871   6.725  0.3590  1.1882  1.4473
  524MOL0     H69161   3.890   9.022   6.646 -1.0790 -1.5805 -1.6123
  524MOL0     H69162   3.864   8.962   6.948 -1.3011 -0.7661 -1.6127
  524MOL0     H69163   3.804   9.115   6.879  2.1786  1.5982  0.0448
  524MOL0     H69164   4.046   9.132   6.770  3.2426 -1.8169  0.0644
  524MOL0     H69165   4.044   9.160   6.948  0.0581  1.4371 -1.7242
  524MOL0     H69166   4.215   8.792   6.932  0.7125  0.8186  1.7585
  524MOL0     H69167   3.437   9.178   6.560  0.2610 -0.8292 -2.8493
  524MOL0     H69168   3.183   9.116   6.512  1.0003 -0.7050 -3.1666
  525MOL0     O69169   3.907   4.000   8.311  0.4706 -0.1424  0.4428
  525MOL0     C69170   3.945   4.116   8.310  0.0776  0.7178 -0.1789
  525MOL0     O69171   3.872   4.226   8.270 -0.3508  0.4487 -0.2673
  525MOL0     C69172   3.739   4.213   8.254  0.3703 -0.0463 -1.2831
  525MOL0     C69173   3.659   4.224   8.376  0.0039 -0.3341  0.7920
  525MOL0     C69174   3.521   4.236   8.370  0.1762  0.6609  0.0148
  525MOL0     C69175   3.460   4.239   8.244  0.3301 -0.0752  0.3057
  525MOL0     O69176   3.321   4.240   8.228 -0.1461  0.2648 -0.0924
  525MOL0     C69177   3.234   4.294   8.333 -0.5379 -0.0762 -0.1738
  525MOL0     C69178   3.185   4.438   8.299 -0.5374  0.1709  0.0912
  525MOL0     C69179   3.090   4.424   8.180 -0.5412  0.7817 -0.8397
  525MOL0     C69180   2.964   4.339   8.198  0.1400  0.6459 -0.6465
  525MOL0     C69181   2.899   4.353   8.333  0.5732  0.4139 -0.0660
  525MOL0     C69182   2.765   4.283   8.338  0.2453  0.0970 -0.0893
  525MOL0     C69183   2.717   4.310   8.481 -0.3592  0.3889  0.6544
  525MOL0     C69184   2.593   4.227   8.524  0.8237  1.0107  0.1102
  525MOL0     N69185   2.469   4.282   8.484 -0.2245 -0.4502  0.2640
  525MOL0     C69186   2.417   4.247   8.365  0.3571  0.0347  0.1916
  525MOL0     C69187   2.290   4.282   8.368  0.5125 -0.5673 -0.3386
  525MOL0     C69188   2.182   4.247   8.270  0.1699  0.3414  0.7702
  525MOL0     C69189   2.165   4.347   8.154  0.5951  0.2448  0.3403
  525MOL0     C69190   2.081   4.301   8.039 -0.5823 -0.0272  0.4935
  525MOL0     C69191   2.029   4.419   7.958  0.9597  0.2165  0.3155
  525MOL0     O69192   1.952   4.499   8.056 -0.2390  0.4613 -0.3960
  525MOL0     C69193   1.817   4.470   8.079  0.9628 -0.2630  0.4769
  525MOL0     C69194   1.744   4.359   8.028 -0.4210 -0.2886  0.3726
  525MOL0     C69195   1.610   4.329   8.064 -0.8644 -0.2966 -0.1351
  525MOL0     C69196   1.534   4.416   8.144  0.2209  0.1359  0.5199
  525MOL0     C69197   1.390   4.396   8.159  0.1241  0.2169 -0.4489
  525MOL0     O69198   1.336   4.305   8.092 -0.1005 -0.1273  0.0131
  525MOL0     C69199   1.199   4.284   8.095  0.2855 -0.2639  0.5861
  525MOL0     C69200   1.153   4.152   8.104 -0.3813  0.0515 -0.9044
  525MOL0     C69201   1.013   4.126   8.123 -0.3563 -0.0459  0.3470
  525MOL0     C69202   0.914   4.228   8.143  0.2085 -0.0793  1.0338
  525MOL0     O69203   0.773   4.214   8.157  0.0114  0.3058  0.1894
  525MOL0     C69204   0.726   4.087   8.189 -0.3971 -1.1950  0.3679
  525MOL0     C69205   0.584   4.125   8.229 -1.0320  0.1003  0.6433
  525MOL0     C69206   0.481   4.001   8.231 -0.3508  0.7326  0.0850
  525MOL0     C69207   0.481   3.898   8.104 -0.6588 -0.0485 -0.1110
  525MOL0     C69208   0.359   3.808   8.116  0.1654 -0.3468  0.0074
  525MOL0     C69209   0.368   3.679   8.030 -0.3669 -0.3239  0.1378
  525MOL0     C69210   0.260   3.580   8.066 -0.8927  0.7058 -0.4264
  525MOL0     C69211   0.131   3.612   7.991 -0.5976 -0.2770  0.3919
  525MOL0    Cl69212  -0.009   3.505   8.032  0.2920 -0.1652 -0.6586
  525MOL0     C69213   0.967   4.354   8.126 -0.0374  0.0930  0.0229
  525MOL0     C69214   1.103   4.386   8.106 -0.0921  0.7374  0.3993
  525MOL0     O69215   1.341   4.457   8.250  0.4571  0.3859  0.9452
  525MOL0     C69216   1.611   4.513   8.210  1.3979 -0.5780 -0.8586
  525MOL0     C69217   1.750   4.535   8.184 -0.2024  0.1087  0.3086
  525MOL0     N69218   2.271   4.339   8.490 -0.1722  0.5064  0.8334
  525MOL0     N69219   2.376   4.339   8.560 -1.0045  0.8100  0.5064
  525MOL0     C69220   3.537   4.220   8.128  0.0061 -0.6250 -0.5662
  525MOL0     C69221   3.679   4.208   8.127 -0.1524  0.1754 -0.1300
  525MOL0     C69222   4.086   4.134   8.347 -0.0123  0.9853  0.1306
  525MOL0     C69223   4.163   4.031   8.414 -0.5357  0.3503 -0.1617
  525MOL0     C69224   4.301   4.043   8.439  0.5605 -0.5843 -0.9570
  525MOL0     C69225   4.360   4.156   8.381  0.4997  0.1811 -0.9889
  525MOL0     O69226   4.489   4.180   8.414 -0.4465  0.1362  0.6707
  525MOL0     C69227   4.588   4.127   8.324 -0.4031 -0.2838  0.1549
  525MOL0     C69228   4.712   4.129   8.418  0.7308 -0.0169  0.2512
  525MOL0     C69229   4.797   4.004   8.403 -0.8396 -0.8751 -0.0103
  525MOL0     C69230   4.934   4.012   8.467  0.3168  0.4261 -0.9900
  525MOL0     C69231   4.995   3.882   8.477 -0.1996 -0.1246  0.7707
  525MOL0     C69232   5.061   3.772   8.473  0.1506  0.0760 -0.1640
  525MOL0     C69233   4.279   4.261   8.329  0.1918  0.2418 -0.5761
  525MOL0     C69234   4.146   4.254   8.314 -0.8089 -0.6336 -0.3605
  525MOL0     H69235   3.714   4.228   8.470  1.6082  1.8518 -0.1582
  525MOL0     H69236   3.477   4.229   8.469  0.3554  0.4561  0.0825
  525MOL0     H69237   3.280   4.308   8.431 -0.8275  1.9148 -0.2854
  525MOL0     H69238   3.149   4.227   8.350 -1.3409  0.3990 -2.1022
  525MOL0     H69239   3.268   4.503   8.272 -0.9187 -0.3393 -2.6179
  525MOL0     H69240   3.138   4.491   8.382 -1.2887 -1.0430  0.4690
  525MOL0     H69241   3.143   4.377   8.097 -2.0886 -2.9523  0.1016
  525MOL0     H69242   3.052   4.526   8.164  1.8941  1.8761 -0.1867
  525MOL0     H69243   2.900   4.359   8.111  0.7991 -0.2130 -1.3402
  525MOL0     H69244   2.999   4.236   8.194  1.5218  0.9067  2.2553
  525MOL0     H69245   2.888   4.458   8.363 -0.5328  0.5713 -0.9448
  525MOL0     H69246   2.970   4.317   8.408 -0.9652 -1.0867  0.7605
  525MOL0     H69247   2.776   4.175   8.325 -0.0643 -0.0896  1.1103
  525MOL0     H69248   2.701   4.329   8.262 -1.6964  0.2779  1.5995
  525MOL0     H69249   2.804   4.302   8.547  2.1759 -0.4064 -2.5604
  525MOL0     H69250   2.691   4.417   8.485  0.7291  0.6371  2.9560
  525MOL0     H69251   2.589   4.235   8.633 -2.8890  2.0048  0.0455
  525MOL0     H69252   2.600   4.124   8.489 -0.1342  0.9802 -0.0227
  525MOL0     H69253   2.467   4.186   8.291 -0.0218 -2.2266  1.6853
  525MOL0     H69254   2.082   4.244   8.314 -0.2138  0.2768 -0.0725
  525MOL0     H69255   2.222   4.158   8.220  0.2525 -0.5019  2.2932
  525MOL0     H69256   2.261   4.362   8.104 -0.4970  1.5557 -1.4462
  525MOL0     H69257   2.138   4.444   8.195  1.1866 -0.0713  1.5414
  525MOL0     H69258   2.147   4.240   7.977  0.9632  2.4479 -0.4352
  525MOL0     H69259   1.995   4.239   8.067  0.5879 -1.6156  0.7174
  525MOL0     H69260   1.959   4.379   7.885 -0.0478 -1.4389  2.0907
  525MOL0     H69261   2.107   4.478   7.908  1.0621  0.2204  0.4759
  525MOL0     H69262   1.786   4.294   7.952  0.7818  0.4761  0.3468
  525MOL0     H69263   1.564   4.240   8.022  0.6510 -1.4009  0.4732
  525MOL0     H69264   1.222   4.068   8.106 -0.5299 -0.1154  2.0927
  525MOL0     H69265   0.989   4.020   8.129  1.0259 -0.3479  0.8648
  525MOL0     H69266   0.784   4.035   8.266 -1.0301  0.1412  1.8245
  525MOL0     H69267   0.719   4.031   8.096  4.0616 -0.2251 -0.8013
  525MOL0     H69268   0.534   4.190   8.157  0.7758  3.8509  2.5200
  525MOL0     H69269   0.592   4.167   8.330 -1.1702 -0.3774  0.8582
  525MOL0     H69270   0.384   4.047   8.252 -0.7478 -1.1657  3.0066
  525MOL0     H69271   0.500   3.952   8.326 -0.8453  1.2918  0.4791
  525MOL0     H69272   0.485   3.961   8.015  1.0127  1.1533  0.7657
  525MOL0     H69273   0.577   3.846   8.103  0.2141  1.4925 -0.0588
  525MOL0     H69274   0.263   3.859   8.109  0.6442  1.0313  2.2951
  525MOL0     H69275   0.357   3.773   8.220 -0.8713  2.3984  1.0234
  525MOL0     H69276   0.461   3.624   8.048 -0.1754 -0.1283 -0.2273
  525MOL0     H69277   0.361   3.707   7.924 -0.1586 -1.1806 -0.1091
  525MOL0     H69278   0.290   3.475   8.058 -1.0281  0.6529 -0.2575
  525MOL0     H69279   0.223   3.596   8.168 -2.1219 -3.0339 -0.1009
  525MOL0     H69280   0.154   3.594   7.885 -0.3590 -0.8205  0.5351
  525MOL0     H69281   0.108   3.718   8.000  0.0116 -0.1123  0.0709
  525MOL0     H69282   0.903   4.441   8.125  3.1468  2.6359  0.3007
  525MOL0     H69283   1.131   4.490   8.095  2.7203  0.0843  0.6932
  525MOL0     H69284   1.560   4.567   8.290 -5.1519 -2.8677 -2.8357
  525MOL0     H69285   1.813   4.596   8.248  2.0596 -2.0424  0.2309
  525MOL0     H69286   3.484   4.222   8.034  1.3771  0.5766 -1.3532
  525MOL0     H69287   3.734   4.210   8.034  2.0025 -0.1810  1.0644
  525MOL0     H69288   4.102   3.953   8.457  0.1093  1.0746  2.1848
  525MOL0     H69289   4.343   3.959   8.493 -1.6576 -1.3265 -0.2980
  525MOL0     H69290   4.599   4.190   8.236 -1.9125 -2.0734 -1.4056
  525MOL0     H69291   4.553   4.028   8.292 -0.4838 -0.2112  0.0167
  525MOL0     H69292   4.781   4.208   8.390  0.9694 -0.3464 -0.0939
  525MOL0     H69293   4.682   4.140   8.523 -2.2059 -2.3422 -0.1953
  525MOL0     H69294   4.800   3.989   8.295  0.6380 -0.8757  0.0146
  525MOL0     H69295   4.738   3.929   8.456 -0.9296 -1.1733 -0.5283
  525MOL0     H69296   5.002   4.069   8.403 -1.1656  1.8146 -1.3962
  525MOL0     H69297   4.921   4.059   8.565  0.2022 -0.5209 -0.5404
  525MOL0     H69298   5.119   3.684   8.456 -2.6600 -1.4544 -2.6889
  525MOL0     H69299   4.327   4.354   8.297 -2.0411  1.1762 -1.3929
  525MOL0     H69300   4.092   4.339   8.274  1.8678 -0.4135 -4.1169
  526MOL0     O69301   2.743   2.565   3.476 -0.3729  0.7530  0.1995
  526MOL0     C69302   2.728   2.657   3.557  0.0637 -0.5416  0.0571
  526MOL0     O69303   2.828   2.737   3.597 -0.1129  0.2319  0.1885
  526MOL0     C69304   2.943   2.745   3.524 -0.9077 -0.6157 -1.5615
  526MOL0     C69305   2.949   2.752   3.387  0.3653 -0.4977 -0.2644
  526MOL0     C69306   3.079   2.790   3.332  0.9529  0.0006 -0.8127
  526MOL0     C69307   3.188   2.807   3.404 -0.5158 -0.2168 -0.1895
  526MOL0     O69308   3.297   2.849   3.328  0.4650  0.1255  0.3948
  526MOL0     C69309   3.425   2.877   3.392 -0.4257  0.6564  0.4821
  526MOL0     C69310   3.530   2.913   3.290 -0.3619 -0.3641  0.2808
  526MOL0     C69311   3.592   2.778   3.239  0.5710  0.3686 -0.2984
  526MOL0     C69312   3.709   2.813   3.151  0.6935  0.8352 -0.1283
  526MOL0     C69313   3.758   2.691   3.069 -0.7673  0.1954 -0.9625
  526MOL0     C69314   3.681   2.653   2.942  0.8256 -0.3123 -0.2999
  526MOL0     C69315   3.720   2.529   2.867 -0.0580 -0.7542  0.1017
  526MOL0     C69316   3.682   2.395   2.944 -0.1053  0.4008  0.2483
  526MOL0     N69317   3.552   2.401   3.014  0.0245  0.0898  0.1839
  526MOL0     C69318   3.542   2.405   3.149  0.3817 -0.2701  0.1428
  526MOL0     C69319   3.414   2.363   3.170 -0.6054  0.0515  0.6226
  526MOL0     C69320   3.358   2.331   3.306 -0.6180 -1.0763  0.3172
  526MOL0     C69321   3.275   2.454   3.358 -0.7498  0.1353  0.5228
  526MOL0     C69322   3.186   2.415   3.477 -0.3740 -0.3672 -1.1741
  526MOL0     C69323   3.042   2.386   3.434 -0.8419  0.0775 -0.6335
  526MOL0     O69324   2.974   2.330   3.556 -0.6972  0.2157  0.9316
  526MOL0     C69325   2.846   2.281   3.539  0.1576  0.3623  0.1224
  526MOL0     C69326   2.790   2.223   3.427 -0.9553  0.3982 -0.0327
  526MOL0     C69327   2.656   2.180   3.423 -0.2312  0.0744 -0.4644
  526MOL0     C69328   2.579   2.183   3.537  0.0130 -0.1681  0.0906
  526MOL0     C69329   2.446   2.120   3.549 -0.1233 -1.1047 -0.3174
  526MOL0     O69330   2.375   2.150   3.670  0.1598  0.4361 -0.3748
  526MOL0     C69331   2.244   2.122   3.697  0.2292  0.0944  0.1531
  526MOL0     C69332   2.187   2.193   3.807 -0.2068  0.1921  0.4301
  526MOL0     C69333   2.056   2.178   3.848 -0.5172  0.5952  0.1877
  526MOL0     C69334   1.968   2.093   3.778  0.4393 -0.3926 -0.0899
  526MOL0     O69335   1.837   2.063   3.799 -0.0873  0.0991 -0.2093
  526MOL0     C69336   1.751   2.149   3.877 -0.3450  0.1881  0.6852
  526MOL0     C69337   1.730   2.282   3.812 -0.2320 -0.4405  0.8196
  526MOL0     C69338   1.631   2.383   3.877  0.3228 -0.4756  0.3889
  526MOL0     C69339   1.486   2.336   3.885  0.4605  0.2813  0.1200
  526MOL0     C69340   1.411   2.413   3.998  0.6014  1.0078 -0.0623
  526MOL0     C69341   1.405   2.562   3.967  0.3493  0.1209  0.1861
  526MOL0     C69342   1.315   2.637   4.067  0.7969 -0.0006 -0.4400
  526MOL0     C69343   1.393   2.713   4.164 -0.0768 -1.1323  0.4796
  526MOL0    Cl69344   1.462   2.607   4.293  0.1289  0.1295  0.1161
  526MOL0     C69345   2.026   2.021   3.668  0.3031  0.3460 -0.2429
  526MOL0     C69346   2.162   2.034   3.630  0.4216 -0.6373 -0.2695
  526MOL0     O69347   2.405   2.053   3.455  0.4547  0.0082 -0.5958
  526MOL0     C69348   2.634   2.239   3.659 -0.0812  0.3658  0.3674
  526MOL0     C69349   2.764   2.290   3.655  0.3094 -0.1842  0.4330
  526MOL0     N69350   3.351   2.347   3.049  0.3323  0.6369  0.8338
  526MOL0     N69351   3.433   2.376   2.956  0.9280  0.2371  0.3502
  526MOL0     C69352   3.191   2.788   3.546 -0.1954 -0.5297 -0.5449
  526MOL0     C69353   3.063   2.758   3.602  0.3857  0.2438  0.4002
  526MOL0     C69354   2.593   2.683   3.609 -0.4670 -0.0841  0.5383
  526MOL0     C69355   2.471   2.604   3.584  0.5804  0.5534  0.0918
  526MOL0     C69356   2.351   2.634   3.650 -0.4515 -0.5588  0.1491
  526MOL0     C69357   2.338   2.749   3.740 -0.3165  0.4952  0.7533
  526MOL0     O69358   2.214   2.780   3.796  0.5261  0.1484 -0.0885
  526MOL0     C69359   2.108   2.687   3.771  0.2090  0.5573  0.0256
  526MOL0     C69360   1.995   2.705   3.871  0.1045  0.6146  0.0050
  526MOL0     C69361   1.921   2.840   3.871  0.7484 -0.0884  0.2438
  526MOL0     C69362   1.779   2.845   3.934  0.0976  1.2147 -0.8814
  526MOL0     C69363   1.767   2.784   4.063  1.0321  0.9075 -0.4486
  526MOL0     C69364   1.761   2.706   4.163  0.8200  0.2200 -0.1442
  526MOL0     C69365   2.449   2.826   3.746  0.0722 -0.1887  0.5354
  526MOL0     C69366   2.576   2.791   3.689  0.4827  0.4292 -0.1703
  526MOL0     H69367   2.860   2.752   3.324  1.8340  5.2425 -3.0068
  526MOL0     H69368   3.093   2.807   3.226  0.2814  0.4250 -0.8392
  526MOL0     H69369   3.458   2.786   3.443  0.5573  0.2079 -0.8843
  526MOL0     H69370   3.420   2.953   3.470 -1.3223 -1.2885  2.4226
  526MOL0     H69371   3.604   2.982   3.331 -0.3485  0.8699 -1.7133
  526MOL0     H69372   3.483   2.967   3.208  0.5599 -0.7501 -0.5140
  526MOL0     H69373   3.509   2.730   3.186 -1.5568  1.9451  1.4139
  526MOL0     H69374   3.626   2.714   3.321  0.9707 -1.3867 -1.7759
  526MOL0     H69375   3.682   2.902   3.094 -0.3240  0.4739 -0.2392
  526MOL0     H69376   3.781   2.844   3.227 -0.3635  2.0114  0.4272
  526MOL0     H69377   3.761   2.613   3.146  0.5599  1.6251  0.5099
  526MOL0     H69378   3.860   2.725   3.047 -1.2019  1.2869 -1.3590
  526MOL0     H69379   3.684   2.733   2.867  1.8499  1.4843  1.5535
  526MOL0     H69380   3.576   2.645   2.972 -0.0312  1.6024 -2.4472
  526MOL0     H69381   3.660   2.525   2.776 -0.4955 -1.8492  0.4325
  526MOL0     H69382   3.822   2.532   2.826 -0.0522 -1.3502  0.0717
  526MOL0     H69383   3.761   2.364   3.012 -1.3104 -0.2449  1.4050
  526MOL0     H69384   3.675   2.322   2.863  1.1230 -1.1772  1.4936
  526MOL0     H69385   3.616   2.439   3.221 -1.1715  0.1792  1.5973
  526MOL0     H69386   3.447   2.314   3.366  0.4061 -1.5517 -1.2700
  526MOL0     H69387   3.307   2.234   3.301  0.8342 -1.9160  1.0183
  526MOL0     H69388   3.215   2.488   3.273  0.8246 -0.2608 -0.8215
  526MOL0     H69389   3.348   2.533   3.377 -0.3944 -0.2957  0.9961
  526MOL0     H69390   3.226   2.325   3.523 -0.0659  0.5025  0.3242
  526MOL0     H69391   3.189   2.490   3.557 -0.7679 -0.6715 -0.8703
  526MOL0     H69392   3.048   2.307   3.358 -1.3352 -2.6394  1.9509
  526MOL0     H69393   2.975   2.467   3.404 -3.0365 -1.3712  0.0540
  526MOL0     H69394   2.863   2.213   3.347  2.6635 -0.6998  3.0859
  526MOL0     H69395   2.621   2.124   3.337  1.0938 -0.5936 -0.5911
  526MOL0     H69396   2.251   2.265   3.857  2.2707  0.2829 -2.6090
  526MOL0     H69397   2.021   2.247   3.924  3.3151  3.0019 -0.0155
  526MOL0     H69398   1.792   2.172   3.976  0.0105 -1.6799  1.0189
  526MOL0     H69399   1.659   2.096   3.905  0.3892 -2.0766 -0.8939
  526MOL0     H69400   1.695   2.262   3.711  0.6031 -1.7407  0.7657
  526MOL0     H69401   1.832   2.323   3.810 -1.2636  2.3323 -0.4602
  526MOL0     H69402   1.640   2.482   3.830 -0.4662  0.0921  1.3910
  526MOL0     H69403   1.659   2.398   3.982 -0.7490  4.5062  0.2202
  526MOL0     H69404   1.432   2.344   3.790 -3.4772 -0.6590  2.0850
  526MOL0     H69405   1.482   2.228   3.905  0.4792  0.0271 -1.1243
  526MOL0     H69406   1.461   2.387   4.091  1.8282 -1.6585 -1.3536
  526MOL0     H69407   1.309   2.374   3.996  0.8332  0.4100 -1.2542
  526MOL0     H69408   1.353   2.563   3.871  1.7078  1.7067 -0.5630
  526MOL0     H69409   1.503   2.609   3.955  0.5539 -0.3717 -0.0802
  526MOL0     H69410   1.241   2.698   4.015 -0.2568  1.0341  2.1148
  526MOL0     H69411   1.263   2.565   4.130  2.1621  0.4352  1.2893
  526MOL0     H69412   1.329   2.787   4.214  0.7458  0.0107 -0.1103
  526MOL0     H69413   1.467   2.764   4.102 -2.7730  0.4384 -1.6836
  526MOL0     H69414   1.964   1.949   3.615  0.7921  0.6393 -1.2461
  526MOL0     H69415   2.204   1.970   3.553 -1.4983 -0.9756 -1.0892
  526MOL0     H69416   2.581   2.250   3.752  0.1775  3.5964  0.2650
  526MOL0     H69417   2.810   2.336   3.742 -0.2668  0.2860  0.4911
  526MOL0     H69418   3.278   2.802   3.610 -2.0056  0.3807  1.8687
  526MOL0     H69419   3.046   2.739   3.708 -2.4654 -2.8673 -0.4407
  526MOL0     H69420   2.481   2.517   3.520  1.7563 -0.3255  1.3822
  526MOL0     H69421   2.276   2.566   3.611  1.4196 -2.3951 -0.4584
  526MOL0     H69422   2.140   2.583   3.759 -0.2609  0.3548  0.5292
  526MOL0     H69423   2.064   2.703   3.672  1.1580  2.1666 -0.1719
  526MOL0     H69424   1.928   2.620   3.857  0.5794  0.2887 -0.3240
  526MOL0     H69425   2.047   2.679   3.963  1.8578  0.1857 -1.0641
  526MOL0     H69426   1.913   2.871   3.767  2.9642 -0.3554 -0.0360
  526MOL0     H69427   1.969   2.918   3.930  1.3307 -0.8363  0.7709
  526MOL0     H69428   1.754   2.951   3.943 -1.5365  0.8058 -0.4112
  526MOL0     H69429   1.707   2.799   3.867  1.0838  0.4733 -1.4704
  526MOL0     H69430   1.758   2.660   4.260  1.6695 -0.2290 -0.3216
  526MOL0     H69431   2.453   2.928   3.784 -0.0974  0.7224 -1.7359
  526MOL0     H69432   2.655   2.864   3.705  2.2471 -1.4240 -0.0316
  527MOL0     O69433   0.561   3.962   8.656  0.5801 -0.1761 -0.1034
  527MOL0     C69434   0.624   3.991   8.753  0.7707 -0.1091 -0.2647
  527MOL0     O69435   0.584   3.973   8.879 -0.0288  0.2693 -0.3467
  527MOL0     C69436   0.469   3.914   8.905  0.6668 -0.0408  0.0723
  527MOL0     C69437   0.437   3.781   8.887 -0.1914  0.3888 -1.0703
  527MOL0     C69438   0.323   3.724   8.930 -0.5606 -0.0098  0.6654
  527MOL0     C69439   0.222   3.804   8.979 -0.7033  0.8591 -0.1617
  527MOL0     O69440   0.097   3.745   9.014  0.2575 -0.1234 -0.3740
  527MOL0     C69441   0.090   3.609   9.048  0.0606  0.3962 -0.3889
  527MOL0     C69442  -0.054   3.601   9.107 -0.3724 -0.2975 -0.4922
  527MOL0     C69443  -0.095   3.462   9.126  0.4509 -0.1110  0.1441
  527MOL0     C69444  -0.224   3.461   9.207  0.1251 -1.2138  0.3864
  527MOL0     C69445  -0.255   3.312   9.247 -0.5746  0.3775  0.6922
  527MOL0     C69446  -0.358   3.299   9.353 -0.2935  0.3003 -0.1764
  527MOL0     C69447  -0.480   3.231   9.295  0.4571 -0.5465 -0.1779
  527MOL0     C69448  -0.570   3.221   9.409  0.1565  0.0909 -1.1475
  527MOL0     N69449  -0.705   3.165   9.365 -0.0123 -0.0891  0.4141
  527MOL0     C69450  -0.830   3.223   9.393 -0.7557  0.0275 -0.1559
  527MOL0     C69451  -0.923   3.153   9.327 -0.5944  0.6019 -0.3274
  527MOL0     C69452  -1.073   3.170   9.332  0.5616 -0.5631  0.1416
  527MOL0     C69453  -1.126   3.279   9.431 -0.2279  0.6670  0.4507
  527MOL0     C69454  -1.277   3.278   9.430 -0.6780 -0.0582  0.3850
  527MOL0     C69455  -1.345   3.395   9.506  0.4772  0.3115 -0.2356
  527MOL0     O69456  -1.487   3.397   9.487 -0.6975  0.3989 -0.8117
  527MOL0     C69457  -1.582   3.410   9.582 -1.1594 -0.5563 -0.4053
  527MOL0     C69458  -1.567   3.423   9.715  0.6027 -0.0719  0.2077
  527MOL0     C69459  -1.673   3.438   9.804  0.5341 -0.8395 -0.4858
  527MOL0     C69460  -1.803   3.442   9.754 -0.7156 -0.2033 -0.3308
  527MOL0     C69461  -1.919   3.457   9.846 -0.5519 -0.0929  0.6267
  527MOL0     O69462  -1.898   3.512   9.972  0.1975 -0.5100 -0.8982
  527MOL0     C69463  -2.001   3.504  10.061  0.6534  0.3314 -0.2696
  527MOL0     C69464  -2.079   3.392  10.079  0.4374 -0.1371  0.3217
  527MOL0     C69465  -2.177   3.388  10.183 -1.1653 -0.8771  0.7472
  527MOL0     C69466  -2.197   3.495  10.267 -0.3952 -1.3281 -1.1520
  527MOL0     O69467  -2.298   3.515  10.357  0.0322  0.0911 -0.1513
  527MOL0     C69468  -2.380   3.407  10.383 -0.6085  0.1074  0.8765
  527MOL0     C69469  -2.482   3.428  10.489  0.4205 -0.7726  0.0605
  527MOL0     C69470  -2.567   3.301  10.504  0.2543  0.9573 -0.3341
  527MOL0     C69471  -2.680   3.275  10.407 -0.6242 -0.1989 -0.3698
  527MOL0     C69472  -2.763   3.152  10.433 -0.0096 -0.2142  0.4851
  527MOL0     C69473  -2.683   3.030  10.468  0.1164  1.1232 -0.0641
  527MOL0     C69474  -2.771   2.904  10.455 -0.1319  0.3326  0.6803
  527MOL0     C69475  -2.856   2.870  10.571  0.0397 -0.0488 -0.0775
  527MOL0    Cl69476  -2.755   2.800  10.702 -0.1870  0.5510 -0.2975
  527MOL0     C69477  -2.111   3.605  10.247  0.2682 -0.0304 -0.0416
  527MOL0     C69478  -2.014   3.612  10.149 -0.6454  0.7471  0.1499
  527MOL0     O69479  -2.021   3.401   9.801 -0.1854 -0.3950 -1.1848
  527MOL0     C69480  -1.820   3.418   9.612 -0.4865  0.0834 -0.2731
  527MOL0     C69481  -1.709   3.417   9.529 -0.0319  0.1436  0.4087
  527MOL0     N69482  -0.856   3.050   9.270  0.1129  0.2650 -0.6710
  527MOL0     N69483  -0.731   3.057   9.283 -0.6349 -0.3378 -0.0378
  527MOL0     C69484   0.252   3.942   8.998 -0.5472 -0.9782  0.0580
  527MOL0     C69485   0.378   3.998   8.961 -0.1761 -0.5379  0.5378
  527MOL0     C69486   0.756   4.058   8.737  0.1268 -0.1243 -0.0526
  527MOL0     C69487   0.836   4.017   8.636  0.4153  0.7670  0.5236
  527MOL0     C69488   0.957   4.079   8.605 -0.5651 -0.4411  0.1067
  527MOL0     C69489   1.000   4.185   8.687 -0.7562  0.8500  0.0876
  527MOL0     O69490   1.123   4.241   8.653 -0.3845  0.1868  0.2707
  527MOL0     C69491   1.210   4.280   8.758  1.2195  0.4676  0.6261
  527MOL0     C69492   1.327   4.189   8.753  0.3532  0.6731  0.0602
  527MOL0     C69493   1.423   4.249   8.652 -0.4086 -0.0665 -0.9498
  527MOL0     C69494   1.386   4.260   8.500 -0.1551  0.6904 -0.1002
  527MOL0     C69495   1.385   4.133   8.432  0.1868  0.6343 -1.3974
  527MOL0     C69496   1.411   4.023   8.386  0.1822  0.0838  0.5413
  527MOL0     C69497   0.927   4.228   8.798 -0.5153  0.3059  0.4471
  527MOL0     C69498   0.808   4.162   8.820 -0.0814  0.9604 -0.4539
  527MOL0     H69499   0.508   3.715   8.837 -1.6727  0.2854 -3.1329
  527MOL0     H69500   0.312   3.619   8.906 -1.2121  0.8636 -3.8336
  527MOL0     H69501   0.164   3.582   9.124 -0.1268  0.1297 -0.2984
  527MOL0     H69502   0.110   3.549   8.959 -1.4394  0.8894 -1.0946
  527MOL0     H69503  -0.134   3.647   9.047  0.0916  0.7749 -0.3088
  527MOL0     H69504  -0.047   3.649   9.205 -2.0225 -2.0510  0.5593
  527MOL0     H69505  -0.014   3.403   9.169  0.8142 -0.9083 -1.5297
  527MOL0     H69506  -0.105   3.404   9.034  1.3527 -2.1769  1.2762
  527MOL0     H69507  -0.208   3.518   9.300 -2.6702 -0.5017  0.5172
  527MOL0     H69508  -0.306   3.504   9.149  1.1249 -0.4975 -0.5430
  527MOL0     H69509  -0.160   3.279   9.289  1.6778  2.3559 -2.4700
  527MOL0     H69510  -0.277   3.252   9.158  1.7216  1.2274 -0.5233
  527MOL0     H69511  -0.372   3.395   9.403 -0.8540 -0.2455  0.7638
  527MOL0     H69512  -0.318   3.231   9.430 -2.8636 -0.3183  0.7231
  527MOL0     H69513  -0.533   3.288   9.219 -1.5624 -1.4667  0.4499
  527MOL0     H69514  -0.447   3.129   9.271 -1.4522 -1.0798 -0.6931
  527MOL0     H69515  -0.587   3.323   9.444  1.6986 -0.1591  0.5057
  527MOL0     H69516  -0.524   3.155   9.483 -0.1296  0.6949 -0.4160
  527MOL0     H69517  -0.842   3.309   9.458  3.7768 -0.3115  1.5009
  527MOL0     H69518  -1.119   3.076   9.365 -2.2960  0.9704  0.8839
  527MOL0     H69519  -1.113   3.187   9.232  1.0613 -1.5113 -0.2269
  527MOL0     H69520  -1.097   3.380   9.399 -3.7795  1.6852  0.0109
  527MOL0     H69521  -1.095   3.259   9.534 -0.6927 -1.2277  0.2581
  527MOL0     H69522  -1.314   3.273   9.327 -3.2246  0.0349  1.2350
  527MOL0     H69523  -1.310   3.190   9.486 -0.6739 -0.9294 -0.9252
  527MOL0     H69524  -1.306   3.480   9.449  2.8886  0.8714  2.0247
  527MOL0     H69525  -1.305   3.402   9.608  0.6005  0.3952 -0.2890
  527MOL0     H69526  -1.469   3.424   9.763  0.7923  1.3048 -0.1710
  527MOL0     H69527  -1.657   3.436   9.911  2.2634 -3.5588 -0.6947
  527MOL0     H69528  -2.065   3.310  10.010 -1.0174  1.9715 -2.6581
  527MOL0     H69529  -2.227   3.292  10.194 -2.2292 -0.2679  1.4753
  527MOL0     H69530  -2.318   3.326  10.422 -1.4698  0.6569  3.5473
  527MOL0     H69531  -2.428   3.390  10.286 -0.4765  2.4581  0.3235
  527MOL0     H69532  -2.549   3.511  10.464  1.7357 -0.4279 -2.6884
  527MOL0     H69533  -2.428   3.447  10.582  2.3275 -0.5597 -1.0317
  527MOL0     H69534  -2.619   3.304  10.601 -2.3278  1.4348 -1.6314
  527MOL0     H69535  -2.509   3.209  10.499 -2.0303 -0.6339  0.6921
  527MOL0     H69536  -2.751   3.359  10.410 -1.2333 -0.5803 -2.4255
  527MOL0     H69537  -2.623   3.265  10.314  1.7236  1.6294  0.7849
  527MOL0     H69538  -2.815   3.138  10.338  1.9905  1.0911 -0.8616
  527MOL0     H69539  -2.837   3.177  10.510 -1.0673 -2.0445  0.1208
  527MOL0     H69540  -2.629   3.034  10.563  1.5212  4.3538 -0.8506
  527MOL0     H69541  -2.611   3.011  10.388 -2.9256  1.5739 -3.1782
  527MOL0     H69542  -2.835   2.922  10.368 -0.9867  0.7629  1.3895
  527MOL0     H69543  -2.713   2.814  10.432 -1.4368 -0.5693  0.8387
  527MOL0     H69544  -2.940   2.805  10.544  0.7036 -0.7271 -0.5544
  527MOL0     H69545  -2.908   2.959  10.606  0.5318  0.6423 -1.0794
  527MOL0     H69546  -2.118   3.685  10.320  3.0901 -1.1439  1.6147
  527MOL0     H69547  -1.934   3.684  10.161  0.5209 -0.5130  0.1498
  527MOL0     H69548  -1.921   3.415   9.573  0.0031  1.5542 -1.7625
  527MOL0     H69549  -1.720   3.407   9.422 -2.0374 -0.4361  0.6367
  527MOL0     H69550   0.180   4.009   9.043  2.1383  2.8571 -0.8185
  527MOL0     H69551   0.402   4.103   8.970 -0.4096 -0.4743  0.4140
  527MOL0     H69552   0.795   3.934   8.579  0.3222  1.1786 -0.0173
  527MOL0     H69553   1.029   4.046   8.531 -0.6324 -1.4944  0.5010
  527MOL0     H69554   1.165   4.265   8.857  0.5690  1.9046  0.5722
  527MOL0     H69555   1.232   4.387   8.761 -0.3328  0.7918  2.9547
  527MOL0     H69556   1.372   4.181   8.852  1.5936  2.3892 -0.3177
  527MOL0     H69557   1.298   4.088   8.722 -0.4815 -0.0497  2.9332
  527MOL0     H69558   1.503   4.175   8.662  0.7482  1.4434  2.1766
  527MOL0     H69559   1.453   4.346   8.691 -1.5654  0.1378 -0.5405
  527MOL0     H69560   1.291   4.314   8.493  0.5485  2.4553  2.4514
  527MOL0     H69561   1.464   4.313   8.444 -1.2623  1.4601 -0.9491
  527MOL0     H69562   1.430   3.932   8.333 -0.5739  1.3795 -2.1004
  527MOL0     H69563   0.967   4.310   8.857  0.2632 -0.7121  1.3583
  527MOL0     H69564   0.744   4.194   8.902  1.5734  2.4293  0.3426
  528MOL0     O69565   8.219   8.239   2.559  0.5307  0.5119 -0.4101
  528MOL0     C69566   8.224   8.341   2.615  0.1208  0.0536 -0.4095
  528MOL0     O69567   8.120   8.418   2.660 -0.1926  0.7613 -0.2291
  528MOL0     C69568   7.982   8.377   2.658 -0.4846 -0.1122 -0.5380
  528MOL0     C69569   7.893   8.486   2.663  0.4783 -0.5340  0.0992
  528MOL0     C69570   7.757   8.461   2.686  0.7450  0.9388  0.8713
  528MOL0     C69571   7.703   8.331   2.695 -0.0710  0.1280  0.1724
  528MOL0     O69572   7.569   8.304   2.719  0.5864 -0.5932 -0.7905
  528MOL0     C69573   7.474   8.407   2.694  0.3096 -0.2133  0.0559
  528MOL0     C69574   7.340   8.348   2.739  0.0462 -0.3925  0.0380
  528MOL0     C69575   7.223   8.440   2.722  0.3739  0.0835  0.0440
  528MOL0     C69576   7.104   8.372   2.784  0.4268 -0.1743  0.7154
  528MOL0     C69577   6.972   8.459   2.791  0.1075  0.1990 -0.5208
  528MOL0     C69578   6.923   8.477   2.644  0.4007 -0.5531  0.6590
  528MOL0     C69579   6.786   8.542   2.627 -0.2152  0.5108 -0.5241
  528MOL0     C69580   6.669   8.432   2.634 -1.5125 -0.0579  0.4417
  528MOL0     N69581   6.552   8.484   2.563 -0.0464  0.2187 -0.1832
  528MOL0     C69582   6.454   8.554   2.626 -0.8529 -0.1519  0.5058
  528MOL0     C69583   6.349   8.552   2.544 -0.5528  0.1745 -0.2200
  528MOL0     C69584   6.216   8.627   2.569  0.0023  0.5148 -0.1232
  528MOL0     C69585   6.104   8.556   2.490 -0.4049  0.8008 -0.7055
  528MOL0     C69586   5.962   8.602   2.544  0.0552  0.8380 -0.3946
  528MOL0     C69587   5.855   8.541   2.460 -0.7759 -0.0300  0.5654
  528MOL0     O69588   5.736   8.620   2.466  0.2194  0.6697 -0.4564
  528MOL0     C69589   5.618   8.564   2.426  0.2326  0.2292 -0.2464
  528MOL0     C69590   5.508   8.647   2.454 -0.2907  0.4408 -0.5678
  528MOL0     C69591   5.381   8.604   2.410  0.6689  0.7027  0.2379
  528MOL0     C69592   5.370   8.485   2.334  0.1895 -0.1192  0.7533
  528MOL0     C69593   5.234   8.439   2.292 -0.3166 -0.1242  0.1459
  528MOL0     O69594   5.232   8.325   2.209 -0.3784 -0.2836 -0.1595
  528MOL0     C69595   5.117   8.307   2.144 -0.5236  0.1084  0.5669
  528MOL0     C69596   4.995   8.254   2.190 -0.9703 -0.0278  0.8553
  528MOL0     C69597   4.885   8.241   2.099 -0.2750 -1.0306  0.0351
  528MOL0     C69598   4.891   8.300   1.970 -0.2665  0.3284  1.3249
  528MOL0     O69599   4.787   8.293   1.878 -0.2193  0.0703 -0.0416
  528MOL0     C69600   4.656   8.300   1.930  0.5898  0.2032  0.9150
  528MOL0     C69601   4.616   8.444   1.993  0.9512  0.0287 -0.1306
  528MOL0     C69602   4.630   8.557   1.890 -0.2026 -0.1491  0.5334
  528MOL0     C69603   4.538   8.674   1.931  0.5475 -0.3036 -0.3860
  528MOL0     C69604   4.566   8.793   1.837 -0.0211 -0.7017  0.7634
  528MOL0     C69605   4.463   8.903   1.825  0.0253 -0.9896  0.6006
  528MOL0     C69606   4.438   8.986   1.956  0.1391  0.8472  1.0934
  528MOL0     C69607   4.353   9.106   1.936  0.1670 -0.0248  1.4890
  528MOL0    Cl69608   4.354   9.197   2.087  0.0752  0.3795  0.3096
  528MOL0     C69609   5.006   8.363   1.931  0.1515  0.2123 -0.0375
  528MOL0     C69610   5.121   8.369   2.016  1.1177  0.4751 -0.0982
  528MOL0     O69611   5.134   8.507   2.326 -0.6306 -0.0436 -0.1457
  528MOL0     C69612   5.481   8.402   2.315 -0.5002 -0.8676  0.1775
  528MOL0     C69613   5.606   8.439   2.362  0.1536  0.2698  0.0385
  528MOL0     N69614   6.398   8.496   2.420  0.0362  0.0898 -0.5527
  528MOL0     N69615   6.514   8.458   2.441 -0.2982 -0.5095  0.6081
  528MOL0     C69616   7.797   8.223   2.691 -0.5626  0.5604 -0.0779
  528MOL0     C69617   7.940   8.246   2.668  0.5864  0.4383  0.0055
  528MOL0     C69618   8.355   8.395   2.632 -0.2615 -0.2959 -0.8166
  528MOL0     C69619   8.381   8.509   2.711 -0.1396 -0.7482 -0.4677
  528MOL0     C69620   8.509   8.552   2.733 -0.4407 -0.9076  0.9714
  528MOL0     C69621   8.625   8.498   2.676 -0.1344 -0.4481 -0.1233
  528MOL0     O69622   8.750   8.540   2.710 -0.0234 -0.2170  0.4816
  528MOL0     C69623   8.867   8.471   2.660 -0.4193  0.7413 -0.0805
  528MOL0     C69624   8.908   8.340   2.729  0.0322 -0.4251 -0.3239
  528MOL0     C69625   9.031   8.280   2.666 -0.2246  0.4870 -1.0200
  528MOL0     C69626   9.091   8.176   2.761  0.3503  0.4218  0.1547
  528MOL0     C69627   9.203   8.109   2.698  0.6134  0.5449  0.3069
  528MOL0     C69628   9.299   8.051   2.655 -0.9611 -0.3229  0.7916
  528MOL0     C69629   8.598   8.391   2.592 -0.0718 -0.2060 -0.2928
  528MOL0     C69630   8.468   8.337   2.571  1.0754 -0.2196  0.1056
  528MOL0     H69631   7.931   8.586   2.645 -1.7964  0.1379 -1.2816
  528MOL0     H69632   7.691   8.545   2.705 -1.1353 -0.3363  0.2307
  528MOL0     H69633   7.485   8.437   2.589  0.2765  3.1059  0.8939
  528MOL0     H69634   7.488   8.494   2.759  0.0146 -0.9243  1.0978
  528MOL0     H69635   7.346   8.311   2.842  1.2175  1.1078  0.5359
  528MOL0     H69636   7.313   8.261   2.678  0.1942  0.3249 -1.0774
  528MOL0     H69637   7.200   8.459   2.617 -1.7665  0.6966  0.5743
  528MOL0     H69638   7.235   8.533   2.778 -0.7755 -0.3258  1.0154
  528MOL0     H69639   7.089   8.282   2.724 -1.6879  1.4149 -1.3223
  528MOL0     H69640   7.128   8.350   2.888  0.9708 -3.1135  0.0367
  528MOL0     H69641   6.985   8.557   2.839 -1.2128 -0.3803  1.1599
  528MOL0     H69642   6.889   8.407   2.841 -1.3073  0.5244 -2.4353
  528MOL0     H69643   6.930   8.382   2.590  2.3646 -1.3521  2.2292
  528MOL0     H69644   6.987   8.551   2.597  0.8788 -0.2874  1.7079
  528MOL0     H69645   6.775   8.608   2.714  3.0676  0.1901  0.2897
  528MOL0     H69646   6.784   8.605   2.539 -1.1782 -0.6920 -1.3988
  528MOL0     H69647   6.652   8.411   2.740  0.7211  1.1910  1.1324
  528MOL0     H69648   6.719   8.345   2.590 -0.0752  1.3800 -0.9139
  528MOL0     H69649   6.451   8.598   2.725 -0.4390 -1.4850  1.1417
  528MOL0     H69650   6.235   8.731   2.541  0.7779  0.6144  0.7232
  528MOL0     H69651   6.189   8.632   2.675  0.3676  0.8564 -0.0462
  528MOL0     H69652   6.119   8.448   2.506  1.1459  0.8667 -1.5211
  528MOL0     H69653   6.121   8.570   2.383  0.2415 -3.2650 -1.2958
  528MOL0     H69654   5.949   8.564   2.645 -4.2162 -2.2326 -1.8402
  528MOL0     H69655   5.956   8.710   2.524 -1.8521  0.1861 -4.4938
  528MOL0     H69656   5.837   8.437   2.490 -1.4143 -0.9691 -2.7410
  528MOL0     H69657   5.888   8.539   2.356 -2.1230  0.7755  0.0958
  528MOL0     H69658   5.510   8.739   2.511 -1.6437  0.1496 -0.0330
  528MOL0     H69659   5.297   8.665   2.440  1.0587  1.3201  0.0779
  528MOL0     H69660   4.990   8.210   2.289 -3.7629 -0.6291  0.5424
  528MOL0     H69661   4.791   8.197   2.131 -1.5671 -0.2927 -2.4643
  528MOL0     H69662   4.634   8.224   2.005  1.9556 -1.0704  0.0618
  528MOL0     H69663   4.592   8.270   1.847 -0.8763  2.4663  1.1226
  528MOL0     H69664   4.682   8.460   2.079 -0.3249 -0.5095  0.9912
  528MOL0     H69665   4.514   8.443   2.032  1.3196  0.4239  0.8699
  528MOL0     H69666   4.607   8.527   1.788 -0.4371  1.0777  0.2150
  528MOL0     H69667   4.735   8.587   1.886 -0.4813  1.7667  3.7338
  528MOL0     H69668   4.432   8.652   1.917 -0.1036  2.1413  0.2319
  528MOL0     H69669   4.557   8.705   2.034  1.7854  3.2269 -1.5513
  528MOL0     H69670   4.577   8.764   1.732  0.6506  2.8538 -0.2955
  528MOL0     H69671   4.661   8.835   1.872 -1.4789  2.5184  1.2278
  528MOL0     H69672   4.371   8.856   1.790 -1.6381 -0.4685  3.9049
  528MOL0     H69673   4.500   8.963   1.741  1.7362 -2.6751  0.0955
  528MOL0     H69674   4.406   8.916   2.035 -0.8345  1.7994  1.5683
  528MOL0     H69675   4.533   9.025   1.993  1.1803 -1.2237  0.7944
  528MOL0     H69676   4.251   9.081   1.904  0.3839 -0.4891  1.1456
  528MOL0     H69677   4.409   9.158   1.858  1.0302 -0.5025  1.7820
  528MOL0     H69678   5.014   8.410   1.833 -2.2950  0.6589 -0.0727
  528MOL0     H69679   5.212   8.411   1.975  2.6567 -2.7709 -0.3614
  528MOL0     H69680   5.465   8.310   2.259  1.0514 -1.5940  0.8818
  528MOL0     H69681   5.694   8.377   2.353  0.1664  0.4724 -1.4754
  528MOL0     H69682   7.763   8.121   2.702  1.7099 -0.2137  0.4297
  528MOL0     H69683   7.997   8.154   2.674 -1.4164 -0.8466  0.1305
  528MOL0     H69684   8.313   8.562   2.777  0.5595 -0.8046  0.3204
  528MOL0     H69685   8.510   8.643   2.793 -2.8893  0.7269 -1.2231
  528MOL0     H69686   8.946   8.544   2.678  2.1227 -1.7886 -0.2704
  528MOL0     H69687   8.853   8.448   2.554  1.8924  0.9529 -0.4851
  528MOL0     H69688   8.920   8.373   2.833 -3.0920  2.5524 -0.7343
  528MOL0     H69689   8.817   8.280   2.726 -0.9976  1.0577  0.3182
  528MOL0     H69690   9.109   8.353   2.648 -1.7192  2.1618 -0.9817
  528MOL0     H69691   9.010   8.226   2.574 -0.7893  1.1709 -1.2960
  528MOL0     H69692   9.117   8.234   2.850  0.7227  0.5709 -0.0475
  528MOL0     H69693   9.017   8.099   2.787  0.0611 -0.0716 -1.9718
  528MOL0     H69694   9.390   8.008   2.616 -1.5837  1.0699 -2.5386
  528MOL0     H69695   8.674   8.334   2.541 -1.7604 -1.4342 -1.5671
  528MOL0     H69696   8.458   8.252   2.504 -1.3231 -0.3259  0.4997
  529MOL0     O69697   4.747   7.661   4.922  0.2966  0.3109 -0.7058
  529MOL0     C69698   4.720   7.755   4.853  0.4873 -0.6325 -0.6126
  529MOL0     O69699   4.811   7.850   4.807  0.1104 -0.0367  0.0293
  529MOL0     C69700   4.946   7.841   4.825  0.1937  0.0719 -0.3586
  529MOL0     C69701   4.999   7.797   4.946 -0.2502  0.0265 -0.4477
  529MOL0     C69702   5.141   7.802   4.964 -0.1921  0.4091  0.4413
  529MOL0     C69703   5.227   7.840   4.857 -0.2213 -0.1428 -0.8938
  529MOL0     O69704   5.366   7.821   4.881  0.6033  0.5080 -0.4849
  529MOL0     C69705   5.464   7.878   4.795 -1.1975  0.4393  0.2442
  529MOL0     C69706   5.582   7.928   4.888  0.9355 -0.4394  0.1294
  529MOL0     C69707   5.705   7.985   4.816 -0.4185 -0.3853  0.5243
  529MOL0     C69708   5.835   7.977   4.901  0.0015  0.0599  0.0622
  529MOL0     C69709   5.954   8.027   4.822 -0.2769 -0.0067  0.1753
  529MOL0     C69710   5.942   8.167   4.771 -0.5186 -0.3791  0.0147
  529MOL0     C69711   5.923   8.278   4.886  0.2442  0.1097  0.3667
  529MOL0     C69712   6.042   8.295   4.975  0.0679  0.5556 -0.6278
  529MOL0     N69713   6.066   8.198   5.081  0.2843  0.0370  0.3516
  529MOL0     C69714   5.981   8.175   5.180 -0.3428 -1.1675  0.4541
  529MOL0     C69715   6.048   8.081   5.248 -0.5991  0.1203 -0.2893
  529MOL0     C69716   6.000   8.036   5.384 -0.0673 -0.2367  0.6960
  529MOL0     C69717   5.853   7.971   5.394  0.3456 -0.0284 -0.1354
  529MOL0     C69718   5.825   7.863   5.289  0.3189  0.0550  0.1869
  529MOL0     C69719   5.676   7.823   5.302 -0.2237 -0.6416 -0.2762
  529MOL0     O69720   5.659   7.738   5.416 -0.3598  0.1791 -0.0503
  529MOL0     C69721   5.535   7.676   5.430 -0.1284 -0.6101 -0.1849
  529MOL0     C69722   5.430   7.666   5.335 -0.3374 -1.0292  0.0515
  529MOL0     C69723   5.312   7.604   5.353  0.6576  0.0688 -0.5620
  529MOL0     C69724   5.285   7.552   5.477  0.0861  0.2962 -0.0001
  529MOL0     C69725   5.146   7.513   5.508 -0.6438 -1.1746  1.1786
  529MOL0     O69726   5.056   7.547   5.407  0.3776 -0.4234 -0.5576
  529MOL0     C69727   4.952   7.465   5.377 -0.2061 -1.2975 -0.8098
  529MOL0     C69728   4.876   7.513   5.273  0.7385 -0.5732  0.8395
  529MOL0     C69729   4.758   7.443   5.235  0.0581 -0.0203 -0.3541
  529MOL0     C69730   4.705   7.341   5.315 -0.7161  0.9857 -0.6114
  529MOL0     O69731   4.580   7.285   5.287  0.0326 -0.2820  0.1373
  529MOL0     C69732   4.510   7.206   5.377 -0.2609  0.4985  0.1026
  529MOL0     C69733   4.351   7.212   5.353 -0.6816  0.3422 -0.3672
  529MOL0     C69734   4.306   7.112   5.246  0.5422  0.1109 -0.8006
  529MOL0     C69735   4.154   7.106   5.234 -0.1647 -0.5666 -0.1333
  529MOL0     C69736   4.113   7.013   5.121 -0.1294  0.3277 -0.3026
  529MOL0     C69737   3.960   6.970   5.134 -0.3253  0.5795  0.5741
  529MOL0     C69738   3.874   6.991   5.011  0.4688 -0.1194 -0.0842
  529MOL0     C69739   3.833   7.138   4.991 -0.0425 -0.4119 -0.3398
  529MOL0    Cl69740   3.734   7.132   4.845  0.1923 -0.1099 -0.5063
  529MOL0     C69741   4.788   7.286   5.417 -0.1697  0.4580 -0.5263
  529MOL0     C69742   4.911   7.347   5.446 -0.2655  0.0019  0.2742
  529MOL0     O69743   5.120   7.462   5.616  0.1487 -0.3134 -0.3566
  529MOL0     C69744   5.383   7.561   5.571 -0.1603 -0.1363 -0.7667
  529MOL0     C69745   5.507   7.621   5.547 -0.3267  0.3497  0.4817
  529MOL0     N69746   6.174   8.055   5.191  0.2196  0.2812  0.4784
  529MOL0     N69747   6.183   8.139   5.097  0.3028  0.0340 -0.2350
  529MOL0     C69748   5.172   7.870   4.730 -0.5489  0.2670 -0.6539
  529MOL0     C69749   5.033   7.868   4.717  0.8063 -0.9103 -0.2167
  529MOL0     C69750   4.572   7.761   4.813  0.2676 -0.0259 -0.6020
  529MOL0     C69751   4.513   7.877   4.764  0.7180 -0.1612  0.9311
  529MOL0     C69752   4.387   7.872   4.705 -0.2549 -0.3582 -0.4631
  529MOL0     C69753   4.307   7.755   4.703 -0.2254 -0.5741  0.4349
  529MOL0     O69754   4.180   7.766   4.649 -0.1260 -0.5521  0.1506
  529MOL0     C69755   4.100   7.648   4.625  0.6047 -0.1609  0.1597
  529MOL0     C69756   3.956   7.688   4.627  0.8725  0.0592 -0.0632
  529MOL0     C69757   3.925   7.835   4.594  0.0322  0.6796 -0.2370
  529MOL0     C69758   3.775   7.878   4.602 -0.4238 -0.1101 -0.4180
  529MOL0     C69759   3.701   7.836   4.481 -0.5616  0.9120 -0.1400
  529MOL0     C69760   3.632   7.822   4.386  0.8631 -0.2654  0.0115
  529MOL0     C69761   4.360   7.643   4.773  0.1109 -0.8036  0.5764
  529MOL0     C69762   4.488   7.642   4.820  0.1006  0.0391 -0.3344
  529MOL0     H69763   4.943   7.774   5.036 -0.7055 -0.0671 -0.7516
  529MOL0     H69764   5.187   7.776   5.059  4.4502  0.2000 -1.6017
  529MOL0     H69765   5.433   7.963   4.735 -0.1601 -0.0022 -0.9684
  529MOL0     H69766   5.506   7.805   4.725  0.8471  2.5207 -0.8230
  529MOL0     H69767   5.609   7.843   4.951 -0.6309 -1.5236 -0.5990
  529MOL0     H69768   5.550   8.007   4.956  2.8257  1.8428 -1.4608
  529MOL0     H69769   5.680   8.088   4.788 -2.0652 -0.6615  0.8685
  529MOL0     H69770   5.720   7.920   4.729  2.4536 -0.1531  0.7294
  529MOL0     H69771   5.836   8.024   5.000  1.8589 -1.0623  0.6400
  529MOL0     H69772   5.846   7.873   4.931  0.9975  0.3763  0.9073
  529MOL0     H69773   5.972   7.972   4.728  2.3027  3.6563 -1.7495
  529MOL0     H69774   6.040   8.013   4.889 -0.0868 -0.5421 -0.1643
  529MOL0     H69775   5.861   8.172   4.697 -1.8951  0.2270  1.5101
  529MOL0     H69776   6.035   8.204   4.726 -0.8231  3.4872  2.1169
  529MOL0     H69777   5.901   8.381   4.859 -0.5006  0.3422  1.7419
  529MOL0     H69778   5.831   8.249   4.939  1.6092 -2.8992  1.3510
  529MOL0     H69779   6.024   8.390   5.025  0.7706  0.6084 -0.4603
  529MOL0     H69780   6.129   8.295   4.908  1.3034  1.7789  0.8943
  529MOL0     H69781   5.886   8.225   5.194  0.8465  2.0796 -1.9849
  529MOL0     H69782   5.987   8.126   5.445 -1.3806 -0.3404  0.5930
  529MOL0     H69783   6.069   7.961   5.423 -0.4959 -0.0096  1.9388
  529MOL0     H69784   5.787   8.057   5.374  0.4620 -0.5202 -3.0381
  529MOL0     H69785   5.826   7.934   5.493 -2.1755 -2.5609 -1.6277
  529MOL0     H69786   5.858   7.897   5.191 -0.6794  0.4624 -0.0202
  529MOL0     H69787   5.892   7.780   5.312 -0.0076 -1.0697 -2.5734
  529MOL0     H69788   5.649   7.762   5.215  0.8852  0.9630 -1.8240
  529MOL0     H69789   5.607   7.907   5.294  0.3910  0.0646  1.5384
  529MOL0     H69790   5.448   7.703   5.235 -1.0704  0.7964  0.5521
  529MOL0     H69791   5.242   7.607   5.270 -1.3129 -2.6763  0.8491
  529MOL0     H69792   4.900   7.610   5.230 -0.7210  0.5617  2.4510
  529MOL0     H69793   4.703   7.496   5.157 -0.4493 -0.0408 -0.0212
  529MOL0     H69794   4.535   7.250   5.475 -0.1778 -3.4868  2.0876
  529MOL0     H69795   4.544   7.103   5.387 -1.6161  0.1037  0.9756
  529MOL0     H69796   4.331   7.316   5.325  0.7086  0.9837  0.8212
  529MOL0     H69797   4.298   7.195   5.447  0.8846 -1.0584  0.3277
  529MOL0     H69798   4.346   7.012   5.261 -1.1343 -0.7237 -1.6405
  529MOL0     H69799   4.347   7.145   5.149 -0.8698 -2.9247 -2.5661
  529MOL0     H69800   4.096   7.093   5.326  0.2320  1.8900  0.5334
  529MOL0     H69801   4.130   7.209   5.204 -0.7097  0.5631  3.6998
  529MOL0     H69802   4.156   6.912   5.126 -1.9302 -0.4699 -0.1827
  529MOL0     H69803   4.132   7.060   5.024 -1.2778 -0.7543 -1.0877
  529MOL0     H69804   3.905   7.013   5.217  0.7446  1.0379  1.0642
  529MOL0     H69805   3.964   6.862   5.153  1.3895  0.6239  0.6162
  529MOL0     H69806   3.926   6.956   4.921 -1.0077  0.8307 -1.3593
  529MOL0     H69807   3.777   6.943   5.002  1.2948 -1.4535 -4.4648
  529MOL0     H69808   3.928   7.191   4.976  0.9301 -0.9121  3.1696
  529MOL0     H69809   3.777   7.192   5.069 -0.3911 -0.8995 -0.2524
  529MOL0     H69810   4.744   7.216   5.487 -0.2620 -0.5148 -1.5234
  529MOL0     H69811   4.976   7.301   5.519 -2.0960 -2.1227  0.6656
  529MOL0     H69812   5.347   7.534   5.670  2.0483  3.0365  1.1048
  529MOL0     H69813   5.594   7.632   5.611  2.4688  2.8167 -3.3197
  529MOL0     H69814   5.241   7.894   4.649  3.3219 -1.7677  1.7369
  529MOL0     H69815   4.978   7.902   4.631  1.2590  0.9473  0.1812
  529MOL0     H69816   4.560   7.975   4.757 -1.1921  0.6970 -1.0287
  529MOL0     H69817   4.344   7.958   4.653  0.4677  0.5525  0.3973
  529MOL0     H69818   4.100   7.567   4.699  0.0658  1.5809  2.1829
  529MOL0     H69819   4.133   7.606   4.530 -2.6781  1.0340 -1.6303
  529MOL0     H69820   3.918   7.635   4.540 -4.0046  2.0403  0.5386
  529MOL0     H69821   3.898   7.666   4.718  0.4565 -2.3475 -0.8324
  529MOL0     H69822   3.964   7.864   4.496 -2.9086  2.5237 -0.9649
  529MOL0     H69823   3.974   7.896   4.670 -1.2405  1.4231  0.0097
  529MOL0     H69824   3.721   7.831   4.685  1.9878 -1.0807  0.6729
  529MOL0     H69825   3.767   7.986   4.621 -1.8262 -0.2940  0.1808
  529MOL0     H69826   3.566   7.804   4.303  0.6031 -0.3719  0.2384
  529MOL0     H69827   4.304   7.551   4.788  1.3362 -1.4672  1.2243
  529MOL0     H69828   4.529   7.550   4.860 -0.2940 -0.5735 -1.3149
  530MOL0     O69829   5.596   9.118   4.758  0.3958 -0.4604  0.5403
  530MOL0     C69830   5.638   9.105   4.640  0.4199  0.0576 -0.0352
  530MOL0     O69831   5.566   9.105   4.531  0.2657  0.1611  0.6580
  530MOL0     C69832   5.443   9.152   4.544  0.3514 -0.1274  0.7651
  530MOL0     C69833   5.422   9.285   4.583  0.2146  0.1576 -0.1413
  530MOL0     C69834   5.293   9.331   4.580  0.3072 -0.4263 -0.5217
  530MOL0     C69835   5.184   9.256   4.556 -0.0558 -0.1473  0.8100
  530MOL0     O69836   5.055   9.312   4.564 -0.6121 -0.0883  0.2371
  530MOL0     C69837   4.949   9.239   4.502  0.0832  0.3266 -0.5007
  530MOL0     C69838   4.820   9.321   4.501 -0.7635  0.0942  0.2866
  530MOL0     C69839   4.701   9.232   4.462 -0.1551  0.5841 -0.1043
  530MOL0     C69840   4.572   9.321   4.462 -0.3777  0.0195  0.3433
  530MOL0     C69841   4.463   9.247   4.399  0.5679 -0.6350 -0.4735
  530MOL0     C69842   4.322   9.323   4.402  0.2419  0.0654  0.7217
  530MOL0     C69843   4.197   9.234   4.355 -0.6208 -0.0506 -0.8208
  530MOL0     C69844   4.071   9.320   4.371 -0.1190  1.0615  0.3462
  530MOL0     N69845   3.942   9.247   4.350  0.6072 -0.0643 -0.9665
  530MOL0     C69846   3.935   9.118   4.374  0.4117  1.2996 -0.4804
  530MOL0     C69847   3.821   9.074   4.313  0.0556  0.4234 -1.7084
  530MOL0     C69848   3.755   8.940   4.310  0.2493  0.0113  0.0318
  530MOL0     C69849   3.728   8.868   4.446  0.0195 -0.9012  0.7955
  530MOL0     C69850   3.693   8.722   4.439  0.9523 -0.2063 -0.1909
  530MOL0     C69851   3.577   8.702   4.338 -1.1227  0.2809 -0.3483
  530MOL0     O69852   3.564   8.562   4.317 -0.2426 -0.5080 -0.1955
  530MOL0     C69853   3.438   8.510   4.350  0.0443 -0.1659  0.1127
  530MOL0     C69854   3.318   8.580   4.366 -0.1579  0.4540 -0.5661
  530MOL0     C69855   3.207   8.516   4.409  0.5536  0.5432  0.0439
  530MOL0     C69856   3.199   8.375   4.417 -0.9681 -0.4295 -0.9535
  530MOL0     C69857   3.076   8.310   4.471 -0.2186 -0.1722  0.0649
  530MOL0     O69858   2.958   8.368   4.443  0.0277 -0.0581 -0.1320
  530MOL0     C69859   2.844   8.294   4.451  0.1346 -0.7024  0.0490
  530MOL0     C69860   2.726   8.353   4.500 -0.1444  0.6151 -0.2547
  530MOL0     C69861   2.604   8.284   4.517 -0.9139  0.1009  1.0140
  530MOL0     C69862   2.598   8.151   4.474  0.1867 -0.5877  0.8086
  530MOL0     O69863   2.486   8.079   4.461 -0.5932 -0.0882 -0.0651
  530MOL0     C69864   2.359   8.147   4.461 -0.3234 -0.7940  0.6198
  530MOL0     C69865   2.250   8.047   4.434 -0.6262  0.8672 -0.3137
  530MOL0     C69866   2.112   8.112   4.416  0.1423  0.6974 -0.0080
  530MOL0     C69867   2.003   8.007   4.417  0.0328  0.2245  0.9092
  530MOL0     C69868   1.870   8.079   4.446 -0.5217 -0.4549 -0.2729
  530MOL0     C69869   1.758   7.985   4.433 -0.1946  0.2233  0.1680
  530MOL0     C69870   1.632   8.052   4.495 -0.2703 -0.2485  0.5160
  530MOL0     C69871   1.510   7.975   4.474  0.5971  0.3960  0.2551
  530MOL0    Cl69872   1.384   8.080   4.552  0.1891 -0.6634  0.2629
  530MOL0     C69873   2.711   8.089   4.427 -0.0690 -0.5146  0.0103
  530MOL0     C69874   2.835   8.156   4.416 -0.0441 -0.0201 -0.1088
  530MOL0     O69875   3.095   8.208   4.534  0.6560  0.1458 -0.2191
  530MOL0     C69876   3.317   8.303   4.398  0.2577 -0.2090  0.7328
  530MOL0     C69877   3.436   8.370   4.363  0.8663 -0.6057  0.0556
  530MOL0     N69878   3.756   9.181   4.264 -0.3176  0.2322 -0.4065
  530MOL0     N69879   3.826   9.286   4.295  0.2827 -0.5386  0.1512
  530MOL0     C69880   5.207   9.119   4.519 -0.4719 -0.3608 -0.1282
  530MOL0     C69881   5.336   9.075   4.502  0.0574  0.5897  1.0014
  530MOL0     C69882   5.783   9.067   4.622 -0.2163 -1.2781 -0.4336
  530MOL0     C69883   5.864   9.091   4.731  0.0479 -1.7398  0.2572
  530MOL0     C69884   6.000   9.076   4.718  0.0214  0.2546 -0.7509
  530MOL0     C69885   6.063   9.026   4.606  0.3307 -0.7893 -0.9749
  530MOL0     O69886   6.200   9.003   4.611  0.2440 -0.7080  0.1610
  530MOL0     C69887   6.270   8.969   4.485  0.4052 -0.0608 -0.2887
  530MOL0     C69888   6.309   8.823   4.491 -0.8358 -0.6363 -1.1943
  530MOL0     C69889   6.259   8.740   4.379 -0.2172 -0.5348  0.6592
  530MOL0     C69890   6.329   8.596   4.373  0.7132  0.5153 -1.2909
  530MOL0     C69891   6.463   8.605   4.313 -0.3179  0.3758  0.2587
  530MOL0     C69892   6.576   8.611   4.265 -0.4476 -0.7819  0.7044
  530MOL0     C69893   5.977   9.010   4.499  0.2044  0.2952  0.3987
  530MOL0     C69894   5.836   9.037   4.497  0.1743  0.0328 -0.4431
  530MOL0     H69895   5.503   9.352   4.609  1.0105 -1.1712  0.9615
  530MOL0     H69896   5.271   9.432   4.614  1.5019 -1.2834  3.3311
  530MOL0     H69897   4.932   9.156   4.572  0.9720 -0.2772 -0.9813
  530MOL0     H69898   4.978   9.199   4.405  1.0323 -1.7027  0.5471
  530MOL0     H69899   4.842   9.401   4.430  2.9468 -0.0179  1.0984
  530MOL0     H69900   4.803   9.374   4.595 -2.1438  1.2432 -0.5656
  530MOL0     H69901   4.692   9.148   4.531 -1.5501  1.1058  0.3818
  530MOL0     H69902   4.714   9.193   4.360  1.4269  1.0690 -0.1064
  530MOL0     H69903   4.548   9.332   4.568  0.1709 -1.2233  0.6216
  530MOL0     H69904   4.583   9.415   4.406  0.1423  0.0748  0.5310
  530MOL0     H69905   4.462   9.154   4.455  2.0668 -0.9566 -0.9449
  530MOL0     H69906   4.500   9.231   4.298  1.8212 -1.2454  0.0721
  530MOL0     H69907   4.321   9.402   4.327 -3.1355 -0.1090  0.4384
  530MOL0     H69908   4.312   9.365   4.503  0.5536  0.3192  0.6493
  530MOL0     H69909   4.211   9.205   4.250 -0.5571 -1.8372 -0.3547
  530MOL0     H69910   4.200   9.143   4.417  1.5435  2.7117  3.6725
  530MOL0     H69911   4.084   9.403   4.301  0.2717  1.0829  0.4412
  530MOL0     H69912   4.066   9.359   4.473  1.2779 -0.1627  0.9155
  530MOL0     H69913   4.001   9.061   4.438 -0.6025  2.8758  2.1061
  530MOL0     H69914   3.811   8.865   4.253 -0.1705  0.6727 -1.2776
  530MOL0     H69915   3.659   8.950   4.260 -0.0801 -2.1260  0.1513
  530MOL0     H69916   3.645   8.923   4.493  0.4101  0.9092 -0.5125
  530MOL0     H69917   3.818   8.873   4.508  0.8833 -1.1288 -0.4167
  530MOL0     H69918   3.768   8.663   4.385 -0.0735 -0.4236 -1.4464
  530MOL0     H69919   3.660   8.693   4.539 -0.5957  2.6486  0.2186
  530MOL0     H69920   3.607   8.753   4.246  3.8976 -1.0544  0.2930
  530MOL0     H69921   3.491   8.758   4.376  0.8788  2.5295  1.1889
  530MOL0     H69922   3.307   8.688   4.366 -1.5955  0.3639  1.3731
  530MOL0     H69923   3.118   8.572   4.438  0.7169 -0.0011  1.6601
  530MOL0     H69924   2.727   8.454   4.540  2.7559  1.0560 -1.1922
  530MOL0     H69925   2.516   8.339   4.547 -1.0626  1.6375 -1.8455
  530MOL0     H69926   2.371   8.236   4.398 -0.0532  0.1486  1.9490
  530MOL0     H69927   2.339   8.179   4.564 -2.7292 -0.0266 -0.0331
  530MOL0     H69928   2.246   7.970   4.511 -0.1544  0.6475 -0.5009
  530MOL0     H69929   2.267   7.989   4.343 -2.1377  1.7213 -1.1894
  530MOL0     H69930   2.109   8.174   4.327  0.0862 -0.6227 -0.9591
  530MOL0     H69931   2.091   8.176   4.502  3.3093  0.1248  1.3240
  530MOL0     H69932   1.994   7.955   4.321 -1.7302  1.1579  0.5234
  530MOL0     H69933   2.028   7.928   4.488 -2.0069 -0.9551  0.3882
  530MOL0     H69934   1.859   8.169   4.384 -1.2837 -0.3377  0.0178
  530MOL0     H69935   1.876   8.123   4.547  3.7405  0.7069 -0.8226
  530MOL0     H69936   1.788   7.893   4.484 -0.8484  0.6924  1.4420
  530MOL0     H69937   1.738   7.981   4.325 -1.7780  1.7528  0.3554
  530MOL0     H69938   1.649   8.064   4.603 -0.8247  4.6872  0.2739
  530MOL0     H69939   1.618   8.153   4.456 -0.3883 -1.1089 -1.8544
  530MOL0     H69940   1.516   7.877   4.522 -0.1421 -1.5618 -3.2800
  530MOL0     H69941   1.488   7.956   4.368  0.8324 -0.0675  0.2869
  530MOL0     H69942   2.701   7.989   4.386 -1.5783 -0.2312 -0.3891
  530MOL0     H69943   2.926   8.107   4.385 -0.7285  0.5221 -3.4493
  530MOL0     H69944   3.311   8.195   4.411  1.5523 -0.4738 -0.6611
  530MOL0     H69945   3.529   8.317   4.347 -0.2833 -2.1178 -2.2830
  530MOL0     H69946   5.133   9.050   4.480 -0.6920  0.6748 -1.6386
  530MOL0     H69947   5.352   8.979   4.454 -2.7126  1.3672 -1.8517
  530MOL0     H69948   5.822   9.129   4.823 -1.2825  1.0783 -1.3839
  530MOL0     H69949   6.062   9.089   4.807  0.0794  3.2863 -1.1108
  530MOL0     H69950   6.361   9.030   4.482 -0.4904  1.4154  1.0160
  530MOL0     H69951   6.224   8.981   4.386  2.4002  0.2254 -1.2376
  530MOL0     H69952   6.418   8.812   4.500 -0.7096  1.3315  0.3208
  530MOL0     H69953   6.273   8.780   4.585  1.8637  1.5151  0.9999
  530MOL0     H69954   6.285   8.785   4.282  1.3189  0.3614  1.4510
  530MOL0     H69955   6.150   8.731   4.381 -0.4026  1.3850  1.0488
  530MOL0     H69956   6.347   8.565   4.476  1.8951  2.4372 -0.8640
  530MOL0     H69957   6.268   8.519   4.325  1.0420  0.4730 -1.6476
  530MOL0     H69958   6.680   8.628   4.244 -0.7080  2.8850  1.5965
  530MOL0     H69959   6.021   8.980   4.405  1.1356  0.0669  0.9004
  530MOL0     H69960   5.784   9.028   4.402  2.1940 -0.7767 -1.5326
  531MOL0     O69961   8.459   6.649   6.576 -0.0768  1.3263  0.2973
  531MOL0     C69962   8.487   6.763   6.597  0.7756 -0.3069  0.9442
  531MOL0     O69963   8.398   6.865   6.633 -0.0597  0.1359 -0.5664
  531MOL0     C69964   8.266   6.835   6.645 -0.0456  0.1793  0.2929
  531MOL0     C69965   8.172   6.891   6.561  0.0059 -0.1898  0.5974
  531MOL0     C69966   8.034   6.880   6.576  0.1235 -0.1598  0.1020
  531MOL0     C69967   7.978   6.783   6.656 -0.3616 -0.2786  0.0560
  531MOL0     O69968   7.842   6.758   6.649 -0.3117 -0.7837  0.3340
  531MOL0     C69969   7.790   6.677   6.756  0.3096  0.2677 -0.2163
  531MOL0     C69970   7.649   6.718   6.773  0.4397  0.0509 -0.3305
  531MOL0     C69971   7.588   6.615   6.865  0.2253  0.4152 -0.3527
  531MOL0     C69972   7.448   6.660   6.912  0.1087  0.0493 -0.4305
  531MOL0     C69973   7.398   6.568   7.018  0.4775 -0.4779 -0.4121
  531MOL0     C69974   7.244   6.581   7.041 -0.2217 -0.7768 -0.5754
  531MOL0     C69975   7.200   6.480   7.153 -0.7033  0.1498  0.4887
  531MOL0     C69976   7.055   6.428   7.149 -0.1994  0.3608  0.1619
  531MOL0     N69977   6.965   6.488   7.241  1.2468 -0.5255 -0.4990
  531MOL0     C69978   6.822   6.476   7.229 -0.2044 -0.2566 -0.1104
  531MOL0     C69979   6.777   6.558   7.324  1.0420 -0.0363  0.2282
  531MOL0     C69980   6.632   6.606   7.342 -0.1720  0.1465 -0.1152
  531MOL0     C69981   6.522   6.499   7.362  0.1704 -0.2885  0.3466
  531MOL0     C69982   6.483   6.480   7.506 -0.5312 -0.2580  0.4706
  531MOL0     C69983   6.431   6.598   7.584 -0.5909 -0.3745  0.0830
  531MOL0     O69984   6.323   6.651   7.513  0.4899  0.0182 -0.4516
  531MOL0     C69985   6.196   6.637   7.563 -0.1812  0.8564 -0.7414
  531MOL0     C69986   6.088   6.677   7.482  0.0161 -0.1115  0.3781
  531MOL0     C69987   5.955   6.653   7.510  0.3629  0.0019  0.1617
  531MOL0     C69988   5.915   6.599   7.638  0.0902  0.3523 -0.2338
  531MOL0     C69989   5.773   6.584   7.672 -0.2225  0.0914 -0.7091
  531MOL0     O69990   5.746   6.575   7.815  0.1750  0.0674  0.4753
  531MOL0     C69991   5.625   6.612   7.855 -0.2352 -0.3980 -0.3807
  531MOL0     C69992   5.539   6.512   7.901  0.3644 -0.8321  1.1365
  531MOL0     C69993   5.421   6.545   7.964 -0.3266  0.8556 -0.5662
  531MOL0     C69994   5.381   6.675   7.986 -0.1467 -0.7098 -0.6989
  531MOL0     O69995   5.278   6.699   8.073  0.4738 -0.2629  1.1672
  531MOL0     C69996   5.222   6.829   8.077 -0.3637  0.0249 -0.0138
  531MOL0     C69997   5.114   6.829   8.182  0.6600  0.7715  0.5994
  531MOL0     C69998   5.031   6.955   8.173 -0.1603 -0.6110  0.0859
  531MOL0     C69999   4.935   6.966   8.278 -0.3218 -0.5280 -0.0695
  531MOL0     C70000   4.859   7.105   8.264 -0.3086  0.2419 -0.1547
  531MOL0     C70001   4.786   7.147   8.386 -0.4038 -0.7327  0.5787
  531MOL0     C70002   4.669   7.052   8.429  0.2324  0.1696 -0.5154
  531MOL0     C70003   4.605   7.098   8.553  0.7964 -0.0241 -0.0336
  531MOL0    Cl70004   4.468   6.993   8.601  0.0851  0.0313  0.0223
  531MOL0     C70005   5.460   6.778   7.937  0.6443  0.9585 -0.7768
  531MOL0     C70006   5.586   6.747   7.872  0.1850 -0.7381 -1.1456
  531MOL0     O70007   5.693   6.560   7.579 -0.4700  1.4217 -0.0998
  531MOL0     C70008   6.019   6.570   7.726 -0.4195  0.3550 -0.0647
  531MOL0     C70009   6.151   6.593   7.691  0.7513  0.4240  0.3292
  531MOL0     N70010   6.885   6.614   7.393 -0.0267 -0.4330  0.0791
  531MOL0     N70011   6.996   6.572   7.346 -0.3510 -0.1951 -0.4285
  531MOL0     C70012   8.075   6.707   6.732  0.1822 -0.6493 -1.1477
  531MOL0     C70013   8.212   6.742   6.739 -0.9011  0.4879  0.0551
  531MOL0     C70014   8.627   6.800   6.567  0.0567 -0.3579  0.7074
  531MOL0     C70015   8.675   6.935   6.583 -0.2848  0.9022 -0.3558
  531MOL0     C70016   8.809   6.970   6.566  0.3502 -0.6641 -0.6712
  531MOL0     C70017   8.905   6.882   6.525 -0.3213 -0.5004  0.8620
  531MOL0     O70018   9.035   6.916   6.504  0.4406 -0.1211 -0.2727
  531MOL0     C70019   9.071   7.058   6.512  0.4756  1.2758  0.7319
  531MOL0     C70020   9.212   7.086   6.456  0.1724 -1.2408 -0.1199
  531MOL0     C70021   9.324   7.021   6.524 -0.2977  0.0535  0.5941
  531MOL0     C70022   9.398   6.930   6.434 -0.8831  0.7199  0.2415
  531MOL0     C70023   9.485   7.007   6.341  0.1744 -0.5986 -0.1222
  531MOL0     C70024   9.536   7.077   6.256  0.5962 -0.4056  0.2350
  531MOL0     C70025   8.860   6.750   6.511 -0.4564 -0.3582 -1.0588
  531MOL0     C70026   8.730   6.708   6.533  0.3652 -0.6199 -0.4789
  531MOL0     H70027   8.217   6.948   6.480  2.6083 -1.9027  0.6997
  531MOL0     H70028   7.964   6.930   6.510  1.7619  0.2440 -1.4240
  531MOL0     H70029   7.845   6.694   6.849 -0.1835 -2.3906  0.6428
  531MOL0     H70030   7.793   6.571   6.730  1.5718  0.2535 -0.0603
  531MOL0     H70031   7.593   6.732   6.681 -4.5968 -0.3489  2.3168
  531MOL0     H70032   7.652   6.819   6.816 -1.0343  0.0968 -0.2923
  531MOL0     H70033   7.652   6.607   6.954 -2.2895 -0.1834  1.5184
  531MOL0     H70034   7.575   6.524   6.805 -0.6763 -2.1954  3.3602
  531MOL0     H70035   7.456   6.763   6.946 -0.8329 -0.6265  2.0643
  531MOL0     H70036   7.373   6.656   6.832 -0.0845  1.2871 -0.3336
  531MOL0     H70037   7.445   6.572   7.116 -1.8058 -0.8442  0.7634
  531MOL0     H70038   7.415   6.464   6.986  1.4961 -0.4360 -0.0380
  531MOL0     H70039   7.193   6.578   6.945 -1.2552 -3.5859 -0.0253
  531MOL0     H70040   7.220   6.681   7.078 -0.7656 -1.6720  1.6386
  531MOL0     H70041   7.275   6.401   7.149  1.1345  1.7587  1.3319
  531MOL0     H70042   7.218   6.518   7.254  0.4121  0.8121  0.0560
  531MOL0     H70043   7.054   6.320   7.166  1.8899  0.1662 -0.6839
  531MOL0     H70044   7.021   6.439   7.045 -0.8959  0.4593  0.3917
  531MOL0     H70045   6.773   6.423   7.148  2.9579  1.1273 -3.1920
  531MOL0     H70046   6.600   6.662   7.254 -0.9642  0.1818  0.1846
  531MOL0     H70047   6.638   6.680   7.423  1.2663 -2.3627  2.2327
  531MOL0     H70048   6.547   6.404   7.315 -1.2492 -0.9970  0.9478
  531MOL0     H70049   6.433   6.536   7.310 -0.6091 -0.9401  1.1792
  531MOL0     H70050   6.403   6.406   7.510  0.0271 -1.0528 -1.5748
  531MOL0     H70051   6.575   6.436   7.548 -0.5693 -0.6640  0.1375
  531MOL0     H70052   6.504   6.679   7.590 -2.2682  1.1961  0.0407
  531MOL0     H70053   6.405   6.563   7.684 -1.9678 -5.0311 -1.6247
  531MOL0     H70054   6.105   6.709   7.380 -5.3623  0.1559 -0.7301
  531MOL0     H70055   5.879   6.698   7.447  0.3225  1.1890  1.0183
  531MOL0     H70056   5.560   6.406   7.890  0.8505 -0.5105 -1.9022
  531MOL0     H70057   5.362   6.463   8.004  0.3341  0.3540 -0.6137
  531MOL0     H70058   5.184   6.836   7.974  3.6077 -2.0388 -1.8615
  531MOL0     H70059   5.281   6.919   8.096 -2.2555  0.8919  2.2269
  531MOL0     H70060   5.156   6.820   8.282 -1.0064 -0.5518  1.2435
  531MOL0     H70061   5.058   6.736   8.164  3.0301 -0.3476 -1.8111
  531MOL0     H70062   4.991   6.951   8.072  0.9615  0.8462 -0.4535
  531MOL0     H70063   5.103   7.038   8.177 -0.4705 -0.3539  0.3901
  531MOL0     H70064   4.865   6.882   8.268  0.2607 -1.1129  0.5942
  531MOL0     H70065   4.982   6.958   8.376 -2.4447 -1.3911  0.9545
  531MOL0     H70066   4.786   7.089   8.184  0.3796 -1.9668 -0.4178
  531MOL0     H70067   4.923   7.186   8.226 -1.8464  1.1561 -0.8839
  531MOL0     H70068   4.759   7.253   8.383  1.3206 -0.2413  1.0629
  531MOL0     H70069   4.858   7.135   8.468  0.7826 -1.7917 -0.5761
  531MOL0     H70070   4.590   7.046   8.354  0.1312 -0.9987 -0.3372
  531MOL0     H70071   4.711   6.952   8.443 -1.7616 -1.1570 -3.0726
  531MOL0     H70072   4.583   7.203   8.533  2.2620 -0.4418 -5.2860
  531MOL0     H70073   4.672   7.077   8.637  1.2688  0.2925 -0.3233
  531MOL0     H70074   5.439   6.884   7.950 -1.1149  0.5578 -0.0403
  531MOL0     H70075   5.647   6.832   7.844 -1.3696  0.7809 -0.1804
  531MOL0     H70076   5.989   6.535   7.825  0.7932 -1.9988 -0.4599
  531MOL0     H70077   6.217   6.569   7.774  0.7637 -1.1836 -0.1142
  531MOL0     H70078   8.039   6.620   6.786 -1.4035  1.1830  0.9825
  531MOL0     H70079   8.283   6.682   6.795 -1.0769 -0.1268 -0.3723
  531MOL0     H70080   8.606   7.013   6.615 -1.3906 -0.6305  1.2219
  531MOL0     H70081   8.831   7.073   6.590 -0.8782 -0.0634 -2.0260
  531MOL0     H70082   9.056   7.093   6.615 -1.0044 -0.3789  1.1245
  531MOL0     H70083   8.989   7.110   6.460  0.1897  0.8337  0.7366
  531MOL0     H70084   9.209   7.065   6.348 -2.5155  0.2557 -0.4415
  531MOL0     H70085   9.232   7.194   6.454  0.3991 -1.2627  0.8066
  531MOL0     H70086   9.289   6.955   6.603  0.1562 -1.6775 -0.5914
  531MOL0     H70087   9.392   7.098   6.561 -0.3066  0.3839 -0.0472
  531MOL0     H70088   9.465   6.869   6.494 -0.2161  1.5533  0.3592
  531MOL0     H70089   9.333   6.865   6.374  1.0990  1.0790 -2.4810
  531MOL0     H70090   9.573   7.131   6.172  1.6415 -2.5651 -0.7735
  531MOL0     H70091   8.932   6.671   6.492 -0.2166 -0.9304  1.8078
  531MOL0     H70092   8.702   6.604   6.517  1.1659 -0.5026 -3.1755
  532MOL0     O70093  11.011   9.766   8.853  0.1716 -0.1807  0.1028
  532MOL0     C70094  11.059   9.725   8.748 -0.4223 -0.2458 -0.2855
  532MOL0     O70095  10.982   9.681   8.641  1.3048 -0.3255 -0.1246
  532MOL0     C70096  10.845   9.677   8.665 -0.0005 -0.0027 -0.5266
  532MOL0     C70097  10.760   9.787   8.623 -0.9055  0.0251  0.2818
  532MOL0     C70098  10.627   9.778   8.667 -0.2833  0.4885 -0.1774
  532MOL0     C70099  10.567   9.671   8.726 -0.2910 -0.1195  0.4123
  532MOL0     O70100  10.434   9.680   8.758 -0.2895  0.0406 -0.6197
  532MOL0     C70101  10.374   9.569   8.824 -0.3289 -0.8490 -0.4415
  532MOL0     C70102  10.217   9.571   8.825  0.2346 -0.5785  0.4683
  532MOL0     C70103  10.167   9.441   8.892  0.2251 -0.1524  0.8067
  532MOL0     C70104  10.017   9.434   8.874  0.5572 -0.2146  0.5273
  532MOL0     C70105   9.959   9.303   8.924 -0.0083  0.2164  0.0424
  532MOL0     C70106   9.985   9.178   8.847  0.2333  0.1856  0.4638
  532MOL0     C70107   9.912   9.057   8.909  0.0220  0.5874  0.4961
  532MOL0     C70108   9.907   8.936   8.807 -0.6671 -0.6722  0.3176
  532MOL0     N70109   9.789   8.928   8.722  0.3951  0.5318  0.7243
  532MOL0     C70110   9.677   8.849   8.756 -0.1400 -0.0763 -0.7249
  532MOL0     C70111   9.597   8.859   8.645 -0.4870  0.5428  0.1804
  532MOL0     C70112   9.461   8.795   8.637 -0.3738 -0.6554  0.4064
  532MOL0     C70113   9.403   8.793   8.497 -0.0997 -0.5391 -0.4314
  532MOL0     C70114   9.266   8.744   8.492  0.1550 -0.1651  0.3444
  532MOL0     C70115   9.163   8.850   8.507  0.0645 -0.3203 -0.4580
  532MOL0     O70116   9.033   8.803   8.452 -0.8912 -0.0507 -0.1648
  532MOL0     C70117   8.929   8.884   8.451  1.1171  0.5774  0.0152
  532MOL0     C70118   8.931   9.023   8.491  0.1560  0.1384 -0.8739
  532MOL0     C70119   8.819   9.101   8.496  0.2758 -0.5026 -0.5901
  532MOL0     C70120   8.693   9.045   8.457 -0.6681 -0.7163  0.4753
  532MOL0     C70121   8.574   9.133   8.453  0.5679 -0.1046  0.4121
  532MOL0     O70122   8.591   9.261   8.505 -0.1598 -0.4978 -0.0366
  532MOL0     C70123   8.479   9.336   8.504  0.2528  1.3315 -0.2746
  532MOL0     C70124   8.363   9.307   8.579 -1.1686 -0.0176  0.3568
  532MOL0     C70125   8.240   9.365   8.554  0.6246 -0.4343  1.0677
  532MOL0     C70126   8.226   9.460   8.453  0.5165 -0.4580 -0.0208
  532MOL0     O70127   8.107   9.522   8.431  0.4549 -0.0649 -0.7316
  532MOL0     C70128   8.110   9.666   8.449  0.0100 -0.6603  0.2324
  532MOL0     C70129   7.976   9.735   8.423  0.5051 -0.4536 -0.7554
  532MOL0     C70130   7.879   9.705   8.538 -0.4833 -0.3924 -0.1640
  532MOL0     C70131   7.733   9.719   8.488  0.5342  0.3108  0.2923
  532MOL0     C70132   7.636   9.683   8.594  0.1735  0.2837  0.1497
  532MOL0     C70133   7.490   9.693   8.552  0.0957 -0.2206  0.5979
  532MOL0     C70134   7.385   9.675   8.655  0.5513 -1.0828 -0.3867
  532MOL0     C70135   7.240   9.691   8.605  0.0605  0.2749  0.2505
  532MOL0    Cl70136   7.214   9.870   8.559  0.7136 -0.3202 -0.0378
  532MOL0     C70137   8.337   9.486   8.372  0.2362 -0.2247  0.2458
  532MOL0     C70138   8.461   9.427   8.398  0.1136 -0.7911  0.5528
  532MOL0     O70139   8.477   9.093   8.387 -0.3502 -0.0640 -0.5287
  532MOL0     C70140   8.689   8.911   8.406  0.0987 -0.0990  0.1215
  532MOL0     C70141   8.808   8.833   8.400 -0.3272 -0.1712 -0.0834
  532MOL0     N70142   9.662   8.946   8.549 -0.3523  0.1696  0.0723
  532MOL0     N70143   9.784   8.979   8.592  0.5450 -0.5990 -0.0850
  532MOL0     C70144  10.644   9.564   8.765  0.8003 -0.7747 -0.0141
  532MOL0     C70145  10.783   9.566   8.729  0.3042 -0.2962  0.2079
  532MOL0     C70146  11.209   9.720   8.741  0.5461  0.4608  0.4267
  532MOL0     C70147  11.292   9.774   8.844 -0.0365 -0.2792 -0.1991
  532MOL0     C70148  11.433   9.769   8.838 -0.0451 -0.6718 -0.4885
  532MOL0     C70149  11.486   9.729   8.715  0.0946  0.7345  0.3288
  532MOL0     O70150  11.611   9.713   8.680  0.5199 -0.1194  0.2260
  532MOL0     C70151  11.713   9.767   8.762  0.4019  0.3261 -0.1845
  532MOL0     C70152  11.719   9.921   8.764 -0.5021 -0.2750  0.6725
  532MOL0     C70153  11.863   9.979   8.805  1.0007  0.0778 -0.1532
  532MOL0     C70154  11.947  10.008   8.674 -0.4155 -1.0072  0.1039
  532MOL0     C70155  12.078  10.069   8.705  0.1410 -0.1905 -0.1443
  532MOL0     C70156  12.181  10.138   8.717  0.1225  0.5267  0.2789
  532MOL0     C70157  11.405   9.672   8.621  0.9255 -0.3611  0.6062
  532MOL0     C70158  11.267   9.670   8.627  0.1458  0.2279  0.0654
  532MOL0     H70159  10.813   9.874   8.588  0.6096 -2.0399 -3.0865
  532MOL0     H70160  10.570   9.869   8.652 -0.6777  0.2954  0.1086
  532MOL0     H70161  10.423   9.583   8.921 -1.3237 -0.3725  0.0042
  532MOL0     H70162  10.404   9.470   8.787  1.8589  0.0851 -1.3215
  532MOL0     H70163  10.175   9.596   8.727  2.4574  0.3275 -0.3341
  532MOL0     H70164  10.178   9.653   8.886  1.1831  1.0255 -0.9742
  532MOL0     H70165  10.185   9.433   8.999  0.1851 -0.8192  0.7699
  532MOL0     H70166  10.215   9.350   8.856  0.3054 -0.8707  2.6250
  532MOL0     H70167   9.962   9.515   8.923  1.0533 -1.1529  2.7780
  532MOL0     H70168  10.008   9.440   8.765  0.3183  0.2198  0.5681
  532MOL0     H70169   9.851   9.319   8.932 -0.2062 -1.1881  0.5163
  532MOL0     H70170   9.994   9.290   9.027 -0.2281  1.3224  0.2610
  532MOL0     H70171  10.090   9.150   8.859  1.0565  3.1108  0.8229
  532MOL0     H70172   9.956   9.174   8.742 -1.1517 -1.8982  0.8496
  532MOL0     H70173   9.970   9.024   8.995  0.7018 -0.3379 -0.2981
  532MOL0     H70174   9.810   9.080   8.941 -0.0908  1.9520 -0.7588
  532MOL0     H70175   9.932   8.849   8.868  0.1314 -0.6760 -0.0104
  532MOL0     H70176   9.992   8.944   8.738  0.8814  0.4863  2.2341
  532MOL0     H70177   9.661   8.774   8.831  0.5518 -0.1915 -0.6835
  532MOL0     H70178   9.398   8.849   8.709 -0.2735  0.7004 -0.4976
  532MOL0     H70179   9.473   8.690   8.665  1.0638 -0.8943 -0.9689
  532MOL0     H70180   9.469   8.721   8.449  1.0058 -0.1023  0.3823
  532MOL0     H70181   9.422   8.889   8.447 -2.4162  2.0402  3.1960
  532MOL0     H70182   9.241   8.693   8.399 -1.0958 -1.2015  1.2062
  532MOL0     H70183   9.242   8.672   8.571 -0.5071  0.5807  0.8410
  532MOL0     H70184   9.188   8.939   8.448 -3.0470  1.0206  0.0509
  532MOL0     H70185   9.147   8.881   8.611 -3.4463  1.2187 -1.3083
  532MOL0     H70186   9.022   9.072   8.526  0.1190 -0.1615 -0.3593
  532MOL0     H70187   8.831   9.203   8.528  0.9858  0.2603 -3.0549
  532MOL0     H70188   8.371   9.234   8.659  2.7512 -0.3072 -0.0638
  532MOL0     H70189   8.150   9.343   8.610  0.1417 -1.6084 -0.1173
  532MOL0     H70190   8.188   9.717   8.392  0.1144 -1.3312 -0.2429
  532MOL0     H70191   8.146   9.682   8.551 -3.2818 -0.3622  1.4691
  532MOL0     H70192   7.940   9.691   8.330  0.3021 -0.7864 -0.5233
  532MOL0     H70193   7.985   9.842   8.407  0.5133 -0.4453 -0.6953
  532MOL0     H70194   7.901   9.780   8.614  0.8662 -1.0486  0.1394
  532MOL0     H70195   7.895   9.607   8.583  2.5853  0.0058 -0.1599
  532MOL0     H70196   7.715   9.818   8.445 -2.7815 -0.8759 -1.4162
  532MOL0     H70197   7.721   9.643   8.410  3.0339  2.1926 -2.1229
  532MOL0     H70198   7.652   9.745   8.683  2.3065  1.2560 -0.8423
  532MOL0     H70199   7.664   9.580   8.617 -4.5057 -1.6959 -1.8228
  532MOL0     H70200   7.469   9.628   8.466 -0.1309  0.7379 -0.0925
  532MOL0     H70201   7.483   9.798   8.524 -0.8803 -0.7906 -1.5507
  532MOL0     H70202   7.388   9.579   8.707  0.6363 -0.1154  1.4988
  532MOL0     H70203   7.394   9.758   8.726 -0.2163 -2.7476  1.7714
  532MOL0     H70204   7.172   9.659   8.685  1.0598 -0.2950  0.8804
  532MOL0     H70205   7.228   9.619   8.523 -0.3371 -0.3416  0.8416
  532MOL0     H70206   8.321   9.560   8.295  3.5944  1.1218  0.7128
  532MOL0     H70207   8.543   9.450   8.330 -1.4978  1.3878 -0.8150
  532MOL0     H70208   8.597   8.873   8.362  1.8255 -2.3703 -1.7796
  532MOL0     H70209   8.803   8.732   8.360  2.0615  0.0898 -1.2073
  532MOL0     H70210  10.602   9.473   8.807 -0.1029  0.4898  2.0067
  532MOL0     H70211  10.844   9.483   8.761 -1.2555 -1.8040 -0.5743
  532MOL0     H70212  11.247   9.807   8.937  1.3551  0.8608  0.1076
  532MOL0     H70213  11.486   9.807   8.924 -1.6549  0.3530  0.0883
  532MOL0     H70214  11.809   9.732   8.722 -0.0498 -1.0373 -0.0982
  532MOL0     H70215  11.706   9.721   8.860  1.1201 -3.7426 -1.8614
  532MOL0     H70216  11.684   9.960   8.668 -0.5078  1.6918  1.4308
  532MOL0     H70217  11.645   9.955   8.837  0.7592 -1.8915  2.8136
  532MOL0     H70218  11.909   9.906   8.872  0.7107 -0.9616 -1.0513
  532MOL0     H70219  11.850  10.073   8.859  0.6121 -0.3253  0.4627
  532MOL0     H70220  11.960   9.913   8.620 -1.5162 -1.1244  0.0151
  532MOL0     H70221  11.893  10.077   8.608  2.5396  0.8365 -0.5475
  532MOL0     H70222  12.269  10.197   8.727 -0.0765  1.1607 -1.3396
  532MOL0     H70223  11.439   9.620   8.532  1.5721  0.6363  0.2613
  532MOL0     H70224  11.206   9.619   8.553 -0.1661  0.8068 -0.0837
  533MOL0     O70225   3.787   5.581   0.914 -0.5039  0.4180  0.3164
  533MOL0     C70226   3.832   5.487   0.981  0.4180  0.2424  0.1173
  533MOL0     O70227   3.964   5.471   1.020  0.3071  0.0803  0.3762
  533MOL0     C70228   4.063   5.560   0.981  0.1582  0.7874  0.4580
  533MOL0     C70229   4.192   5.514   0.959  0.1599  0.4602  0.8467
  533MOL0     C70230   4.293   5.601   0.922  0.3959 -0.2025  0.3582
  533MOL0     C70231   4.266   5.741   0.905 -0.0308 -0.3769  0.8766
  533MOL0     O70232   4.365   5.828   0.863 -0.1328  0.1531 -0.7168
  533MOL0     C70233   4.499   5.800   0.905  0.3319  0.8101  0.5414
  533MOL0     C70234   4.573   5.923   0.908  0.7853  0.4556 -0.3522
  533MOL0     C70235   4.721   5.892   0.883 -1.1087  0.2382 -0.1277
  533MOL0     C70236   4.810   6.009   0.915  0.3171 -0.2776  0.0161
  533MOL0     C70237   4.948   6.005   0.854  0.1308 -0.0869 -0.3519
  533MOL0     C70238   5.018   6.132   0.865  0.0625 -1.3107 -0.4072
  533MOL0     C70239   5.144   6.146   0.775 -1.0484 -0.4616 -0.4065
  533MOL0     C70240   5.269   6.068   0.837  0.5735 -0.3213 -0.0015
  533MOL0     N70241   5.404   6.123   0.803 -0.1122 -0.6842  0.8978
  533MOL0     C70242   5.464   6.233   0.853  0.6184  1.4123 -0.0100
  533MOL0     C70243   5.587   6.240   0.798 -0.6496 -0.1439 -0.3883
  533MOL0     C70244   5.701   6.334   0.831  0.7730  0.2659 -0.1644
  533MOL0     C70245   5.674   6.465   0.761 -1.3428 -0.1337 -0.1876
  533MOL0     C70246   5.567   6.547   0.817  0.4334 -0.7879  0.5832
  533MOL0     C70247   5.515   6.679   0.746 -0.3145 -0.6049 -0.1693
  533MOL0     O70248   5.455   6.653   0.618  0.0839 -0.3666  0.3584
  533MOL0     C70249   5.338   6.586   0.601 -0.5265 -0.2507  0.4488
  533MOL0     C70250   5.323   6.555   0.462 -0.4100 -0.0199 -0.2093
  533MOL0     C70251   5.197   6.499   0.427 -0.5933 -0.3358  0.4041
  533MOL0     C70252   5.098   6.474   0.527 -0.5315  0.0116  0.3240
  533MOL0     C70253   4.965   6.411   0.491  0.5665 -1.0839  0.7877
  533MOL0     O70254   4.910   6.416   0.364 -0.3374 -0.3156  0.2278
  533MOL0     C70255   4.786   6.369   0.332 -0.3773 -1.0971  0.0352
  533MOL0     C70256   4.777   6.344   0.196  0.0705  0.2933 -0.0198
  533MOL0     C70257   4.646   6.312   0.147 -0.0410  0.2139  0.5771
  533MOL0     C70258   4.533   6.309   0.228  0.1922 -0.6058 -0.1574
  533MOL0     O70259   4.411   6.293   0.165  0.5158 -0.0139 -0.8940
  533MOL0     C70260   4.293   6.333   0.241  0.7433 -0.2160  0.7033
  533MOL0     C70261   4.174   6.352   0.139 -0.5998  0.1298 -0.6080
  533MOL0     C70262   4.047   6.385   0.205  0.1665 -0.3625 -0.9232
  533MOL0     C70263   3.932   6.416   0.109  0.5485 -0.0911 -0.8810
  533MOL0     C70264   3.833   6.506   0.183 -0.4009 -0.2399  1.0308
  533MOL0     C70265   3.730   6.442   0.272  0.2976  0.3723 -0.3438
  533MOL0     C70266   3.636   6.549   0.337 -0.0346 -0.0705 -0.1193
  533MOL0     C70267   3.494   6.486   0.369 -0.3587  0.4876 -0.6855
  533MOL0    Cl70268   3.518   6.341   0.484  0.1788  0.0098 -0.5829
  533MOL0     C70269   4.550   6.323   0.369 -0.1358 -0.2651 -0.4666
  533MOL0     C70270   4.674   6.363   0.421 -0.0006 -0.4981  0.0903
  533MOL0     O70271   4.915   6.344   0.586 -0.0575  0.4805  0.3794
  533MOL0     C70272   5.122   6.506   0.664 -0.2208 -0.1670 -0.5517
  533MOL0     C70273   5.245   6.560   0.701  0.1607  0.5491  0.0474
  533MOL0     N70274   5.598   6.132   0.711 -0.4398 -0.3852 -0.2436
  533MOL0     N70275   5.482   6.070   0.705 -0.4413 -0.3843  0.3318
  533MOL0     C70276   4.138   5.784   0.938 -0.2527  0.0887 -0.4545
  533MOL0     C70277   4.033   5.696   0.971 -0.3584 -0.4705  0.1177
  533MOL0     C70278   3.741   5.386   1.028  0.8629  1.2565 -0.3403
  533MOL0     C70279   3.617   5.368   0.975  0.1088  0.1862 -1.0227
  533MOL0     C70280   3.530   5.264   1.011  0.1894 -0.3891  0.9087
  533MOL0     C70281   3.561   5.173   1.115  0.0368 -1.3044  0.4835
  533MOL0     O70282   3.495   5.068   1.155  0.5121  0.2715 -0.3476
  533MOL0     C70283   3.352   5.049   1.115 -0.7285 -0.4113 -0.8761
  533MOL0     C70284   3.257   5.142   1.177 -0.2859  0.4884  0.2071
  533MOL0     C70285   3.110   5.093   1.210  0.0928 -0.6056 -0.5636
  533MOL0     C70286   3.042   5.213   1.287  0.5039  0.3071  0.0972
  533MOL0     C70287   2.902   5.185   1.328 -0.0090 -0.3047 -0.9272
  533MOL0     C70288   2.787   5.168   1.367 -0.0428 -0.2707  0.5160
  533MOL0     C70289   3.684   5.202   1.177  0.3160  0.3743  0.2331
  533MOL0     C70290   3.782   5.291   1.127 -0.0844 -0.0318 -0.1421
  533MOL0     H70291   4.209   5.407   0.958 -1.6052  0.1170 -1.2751
  533MOL0     H70292   4.388   5.553   0.898 -0.2691 -1.1724 -0.4093
  533MOL0     H70293   4.549   5.729   0.839  1.5882  0.4952  1.7948
  533MOL0     H70294   4.498   5.761   1.007  0.6874  2.5051  1.2359
  533MOL0     H70295   4.549   5.982   0.998 -1.9205 -0.6610 -0.2271
  533MOL0     H70296   4.530   5.983   0.827  0.5966 -0.9423 -1.3122
  533MOL0     H70297   4.737   5.867   0.777 -0.4735 -1.4246  0.3359
  533MOL0     H70298   4.744   5.813   0.954  1.8841  2.2560  1.3511
  533MOL0     H70299   4.756   6.087   0.860 -0.5584 -1.6445 -1.1315
  533MOL0     H70300   4.812   6.035   1.022 -0.9128  0.3281 -0.0914
  533MOL0     H70301   4.945   5.972   0.749 -2.9457  0.7426 -0.6342
  533MOL0     H70302   4.998   5.928   0.912  2.4937  0.6210 -1.3418
  533MOL0     H70303   5.033   6.144   0.972 -1.8995 -0.8071 -0.1543
  533MOL0     H70304   4.953   6.213   0.831 -0.1348 -1.3846 -0.2051
  533MOL0     H70305   5.145   6.100   0.676  2.4381 -1.2474 -0.1593
  533MOL0     H70306   5.171   6.252   0.765 -0.0324 -0.5948  0.6677
  533MOL0     H70307   5.256   5.964   0.807 -0.2491 -0.1722 -0.2201
  533MOL0     H70308   5.247   6.057   0.943 -2.5920 -0.6085 -0.5770
  533MOL0     H70309   5.431   6.301   0.930 -3.3863 -2.4902  2.1544
  533MOL0     H70310   5.800   6.298   0.799  1.6087  1.5984  0.8163
  533MOL0     H70311   5.709   6.338   0.940 -2.3628 -1.0598  0.2236
  533MOL0     H70312   5.664   6.458   0.652  1.2608  3.4453 -0.8512
  533MOL0     H70313   5.766   6.521   0.779 -0.2391 -1.9629  0.1212
  533MOL0     H70314   5.477   6.487   0.804 -1.8636  1.9275  2.7655
  533MOL0     H70315   5.590   6.574   0.920 -1.4276  1.6289  0.4427
  533MOL0     H70316   5.597   6.747   0.723  0.8965 -2.6640 -2.3118
  533MOL0     H70317   5.442   6.730   0.811 -0.7792 -1.6356  0.1286
  533MOL0     H70318   5.407   6.585   0.401  0.9543  0.1480  1.6598
  533MOL0     H70319   5.175   6.463   0.327 -0.0904  1.8523 -0.5560
  533MOL0     H70320   4.855   6.373   0.127 -1.3747 -1.6053 -2.6215
  533MOL0     H70321   4.630   6.300   0.040  3.0273 -0.9479  0.1446
  533MOL0     H70322   4.302   6.429   0.293 -2.7745 -0.1232  1.3626
  533MOL0     H70323   4.264   6.261   0.318 -0.4063  1.5808  2.0349
  533MOL0     H70324   4.156   6.255   0.091 -3.0426 -0.4762  1.2939
  533MOL0     H70325   4.215   6.420   0.063  5.2451 -1.9078  0.2054
  533MOL0     H70326   4.067   6.464   0.278 -0.8291 -1.5790  0.7396
  533MOL0     H70327   4.005   6.303   0.263 -5.5438  2.5069 -0.2385
  533MOL0     H70328   3.970   6.472   0.024 -0.5053  0.4319 -1.0209
  533MOL0     H70329   3.883   6.322   0.083 -0.0307  0.6196 -2.4880
  533MOL0     H70330   3.784   6.570   0.109 -0.5187  0.3568  1.6082
  533MOL0     H70331   3.890   6.579   0.242 -1.0465  0.5252  0.7308
  533MOL0     H70332   3.766   6.381   0.356 -0.7115 -0.1427 -0.2707
  533MOL0     H70333   3.664   6.374   0.217 -0.0908 -0.7666  1.4279
  533MOL0     H70334   3.686   6.593   0.424  0.2318  2.4079 -1.4101
  533MOL0     H70335   3.629   6.639   0.275  0.4497  0.3134  0.3694
  533MOL0     H70336   3.457   6.451   0.272  1.9442 -0.5949 -1.2541
  533MOL0     H70337   3.420   6.552   0.415 -0.8088 -0.4927  0.0451
  533MOL0     H70338   4.469   6.334   0.441  0.3269  3.0602 -0.2818
  533MOL0     H70339   4.692   6.378   0.526  0.5412  2.1196 -0.3256
  533MOL0     H70340   5.049   6.482   0.741 -1.0145 -1.6863 -1.7254
  533MOL0     H70341   5.263   6.576   0.807 -2.5308 -5.3437  1.8366
  533MOL0     H70342   4.123   5.891   0.922 -0.1471  0.4058  1.2906
  533MOL0     H70343   3.937   5.744   0.989  0.5312  1.1867  0.5809
  533MOL0     H70344   3.583   5.428   0.892 -0.3666 -1.3096 -1.9592
  533MOL0     H70345   3.433   5.250   0.965 -1.9248  2.4748  4.0022
  533MOL0     H70346   3.331   4.947   1.149  1.1345  0.1140  2.2521
  533MOL0     H70347   3.343   5.042   1.007 -0.5657  0.2903 -0.9395
  533MOL0     H70348   3.305   5.164   1.272 -1.1272 -0.0705  0.7783
  533MOL0     H70349   3.241   5.232   1.117 -2.0623 -0.9041 -1.5577
  533MOL0     H70350   3.108   5.007   1.278  0.0122  0.0895  0.3468
  533MOL0     H70351   3.065   5.061   1.116  0.5805 -1.1812 -0.6047
  533MOL0     H70352   3.101   5.232   1.376  0.6597 -0.2726  0.1229
  533MOL0     H70353   3.039   5.302   1.223 -0.6710 -0.6574 -1.2634
  533MOL0     H70354   2.682   5.160   1.389 -0.5369 -0.9537 -1.8274
  533MOL0     H70355   3.717   5.137   1.258 -2.0317 -0.2278  0.7646
  533MOL0     H70356   3.875   5.296   1.183 -1.4156 -1.0171  2.2801
  534MOL0     O70357   2.727   9.939  10.741  0.1975  0.4743 -0.2121
  534MOL0     C70358   2.801   9.896  10.651  0.6869  1.1530 -0.2753
  534MOL0     O70359   2.755   9.842  10.532  0.1567  0.4337  0.9104
  534MOL0     C70360   2.642   9.890  10.475  0.6177 -0.0199 -0.6822
  534MOL0     C70361   2.631  10.030  10.461 -0.5444 -0.3665  0.1608
  534MOL0     C70362   2.525  10.082  10.380 -0.5383 -0.7057 -0.5482
  534MOL0     C70363   2.428   9.989  10.326 -1.4630  0.6864  1.2283
  534MOL0     O70364   2.327  10.034  10.248 -0.3043  0.0558 -0.0199
  534MOL0     C70365   2.301  10.170  10.245  0.0531 -0.0200 -0.2731
  534MOL0     C70366   2.170  10.202  10.171 -0.5894 -0.3296  0.1912
  534MOL0     C70367   2.047  10.165  10.248  0.1942  0.8647  0.1669
  534MOL0     C70368   1.958  10.063  10.172  0.8078  0.8539  0.3171
  534MOL0     C70369   1.839  10.039  10.261  0.3332 -0.3104  0.1843
  534MOL0     C70370   1.751   9.932  10.212  0.5912 -0.5405  0.6284
  534MOL0     C70371   1.805   9.792  10.226  1.2390 -0.1854  0.7499
  534MOL0     C70372   1.740   9.705  10.111 -1.0358  0.7949 -0.7753
  534MOL0     N70373   1.763   9.564  10.130  0.1044 -0.0251 -0.3982
  534MOL0     C70374   1.669   9.468  10.105  0.0020  0.4249 -0.4544
  534MOL0     C70375   1.739   9.352  10.096 -0.2803  0.4210 -0.1397
  534MOL0     C70376   1.694   9.219  10.040  0.0678  0.6898 -0.5706
  534MOL0     C70377   1.572   9.233   9.944 -0.8523  0.7708 -0.2720
  534MOL0     C70378   1.536   9.103   9.864 -0.3475 -0.5244  0.4559
  534MOL0     C70379   1.448   9.133   9.739  0.2081 -0.1330 -0.9868
  534MOL0     O70380   1.348   9.235   9.773 -0.1619 -0.5171  0.1400
  534MOL0     C70381   1.240   9.251   9.693 -0.3419  0.5494  0.4445
  534MOL0     C70382   1.145   9.342   9.737  0.3113  0.1118 -0.0210
  534MOL0     C70383   1.025   9.363   9.665  0.5818 -0.0905  0.0554
  534MOL0     C70384   1.007   9.297   9.541 -0.6614  0.1476  1.0194
  534MOL0     C70385   0.896   9.337   9.452 -0.5035  0.1023 -0.4135
  534MOL0     O70386   0.914   9.303   9.320 -0.4443  0.6526 -0.2496
  534MOL0     C70387   0.810   9.326   9.236  0.3569 -0.2507  0.0315
  534MOL0     C70388   0.784   9.462   9.203 -0.3531 -0.6590  0.6316
  534MOL0     C70389   0.688   9.493   9.103  0.3239 -0.3438 -0.1308
  534MOL0     C70390   0.599   9.395   9.064 -0.1131 -0.6306  0.2259
  534MOL0     O70391   0.494   9.432   8.984 -0.4542 -0.4787  0.0325
  534MOL0     C70392   0.409   9.326   8.940 -0.1399  0.4135 -0.5660
  534MOL0     C70393   0.291   9.385   8.868 -0.2779  0.9489 -0.0620
  534MOL0     C70394   0.178   9.294   8.874 -0.3797 -0.1339  0.8457
  534MOL0     C70395   0.056   9.339   8.806 -0.0016  0.1493  0.4120
  534MOL0     C70396  -0.035   9.226   8.768  0.1522  0.4299 -0.5053
  534MOL0     C70397  -0.084   9.133   8.882  0.0206 -0.6299 -0.0202
  534MOL0     C70398  -0.215   9.062   8.855  0.0712 -0.5348 -0.2760
  534MOL0     C70399  -0.333   9.160   8.875 -0.3230 -0.2711 -0.1744
  534MOL0    Cl70400  -0.481   9.067   8.859 -0.4075 -0.0807 -0.0387
  534MOL0     C70401   0.633   9.264   9.095 -0.4031  1.3264  0.2038
  534MOL0     C70402   0.736   9.225   9.179 -0.2566 -0.9741 -0.2161
  534MOL0     O70403   0.800   9.396   9.499 -0.1424  0.2109  0.6935
  534MOL0     C70404   1.101   9.199   9.502 -0.2507 -0.1713 -0.1356
  534MOL0     C70405   1.219   9.185   9.570  0.2286 -0.1298  0.0032
  534MOL0     N70406   1.875   9.384  10.118  0.9070 -0.6469 -0.5752
  534MOL0     N70407   1.888   9.511  10.142 -0.6191  0.2214 -0.3284
  534MOL0     C70408   2.442   9.854  10.351 -0.1654 -0.6843 -0.2834
  534MOL0     C70409   2.547   9.802  10.426  0.2051 -0.8961  0.4064
  534MOL0     C70410   2.942   9.875  10.690 -0.2558  0.5044  0.4356
  534MOL0     C70411   3.026   9.784  10.617 -0.2520 -0.0662 -0.2163
  534MOL0     C70412   3.155   9.751  10.662 -0.6807 -0.4750 -0.3221
  534MOL0     C70413   3.214   9.818  10.768 -0.0688 -0.4478 -0.3279
  534MOL0     O70414   3.333   9.781  10.822  0.7146  0.9396 -0.0881
  534MOL0     C70415   3.336   9.708  10.950 -0.0114 -0.0288 -0.4624
  534MOL0     C70416   3.424   9.590  10.941  0.1276  0.5522 -0.3893
  534MOL0     C70417   3.394   9.492  10.835  0.4894 -0.4040  0.6880
  534MOL0     C70418   3.434   9.349  10.873 -0.3614 -0.2610  0.2100
  534MOL0     C70419   3.577   9.333  10.879  0.5479  0.2838 -0.0523
  534MOL0     C70420   3.698   9.323  10.876  0.3312  0.8170  0.5654
  534MOL0     C70421   3.139   9.914  10.838 -0.4126 -0.1311 -0.4453
  534MOL0     C70422   3.004   9.935  10.806 -0.4792 -0.4863  0.6474
  534MOL0     H70423   2.710  10.095  10.495 -0.7865  0.7508 -1.3016
  534MOL0     H70424   2.544  10.186  10.358  0.1381 -0.8923 -0.8783
  534MOL0     H70425   2.383  10.216  10.188 -0.1022  0.1823 -0.3335
  534MOL0     H70426   2.313  10.212  10.346  1.0942  1.6093 -1.0165
  534MOL0     H70427   2.164  10.158  10.070 -2.2947  0.9940 -0.3165
  534MOL0     H70428   2.177  10.310  10.160  1.1721 -0.4287  0.0446
  534MOL0     H70429   1.985  10.254  10.262  0.4415  0.7887  1.9264
  534MOL0     H70430   2.074  10.140  10.351  2.7845  1.1048 -0.3790
  534MOL0     H70431   1.937  10.102  10.073  0.6018 -1.5620 -0.6663
  534MOL0     H70432   2.015   9.973  10.145  0.0636  0.5727 -0.3583
  534MOL0     H70433   1.787  10.135  10.257  0.1261 -0.4724 -2.1337
  534MOL0     H70434   1.870  10.018  10.364  0.1115 -0.9108  0.1325
  534MOL0     H70435   1.725   9.942  10.106 -1.6511 -0.8596  1.1182
  534MOL0     H70436   1.654   9.949  10.259 -0.1663  1.5708 -1.5058
  534MOL0     H70437   1.913   9.781  10.236  1.1970  0.7790  2.6602
  534MOL0     H70438   1.757   9.766  10.320  0.1124 -1.6636 -0.1924
  534MOL0     H70439   1.778   9.741  10.015  0.4997  1.4065  0.0361
  534MOL0     H70440   1.632   9.722  10.108 -1.3236 -0.8988 -3.2366
  534MOL0     H70441   1.561   9.478  10.105 -0.1252  0.1911  2.9570
  534MOL0     H70442   1.660   9.158  10.125  0.3979 -2.1355 -2.3362
  534MOL0     H70443   1.776   9.171   9.986  0.0395  2.1484 -1.9833
  534MOL0     H70444   1.604   9.297   9.862  2.2486 -2.7261 -2.0609
  534MOL0     H70445   1.489   9.269  10.007 -1.8895 -2.7868  0.6372
  534MOL0     H70446   1.633   9.062   9.836  0.7941  0.8879  2.1408
  534MOL0     H70447   1.494   9.036   9.939  0.1635 -0.6251  0.6513
  534MOL0     H70448   1.406   9.036   9.709  0.4649 -0.4535 -0.3500
  534MOL0     H70449   1.517   9.167   9.662  0.0947  0.9225 -0.6295
  534MOL0     H70450   1.170   9.406   9.821  0.2721 -0.1145  0.1638
  534MOL0     H70451   0.955   9.438   9.701 -1.5684 -1.9333 -0.0441
  534MOL0     H70452   0.853   9.533   9.248 -1.4286  0.3791  0.6872
  534MOL0     H70453   0.680   9.598   9.075  0.6612 -0.4962 -0.8255
  534MOL0     H70454   0.362   9.279   9.027  1.3680  1.9025  1.1476
  534MOL0     H70455   0.452   9.241   8.886 -2.2975 -1.1429  0.0197
  534MOL0     H70456   0.327   9.400   8.766  0.2162  1.3380  0.1583
  534MOL0     H70457   0.277   9.483   8.915 -4.5001  0.3226  0.3197
  534MOL0     H70458   0.158   9.259   8.975  1.1625 -1.8975  0.5851
  534MOL0     H70459   0.213   9.209   8.815  0.6300 -1.3226  3.0608
  534MOL0     H70460   0.005   9.404   8.877 -1.3156  0.2336 -0.5694
  534MOL0     H70461   0.078   9.398   8.716 -0.7507 -0.2499 -0.0445
  534MOL0     H70462   0.001   9.161   8.687  0.9773 -2.8199  2.2527
  534MOL0     H70463  -0.118   9.292   8.739 -1.5805 -0.4527  2.1187
  534MOL0     H70464  -0.097   9.190   8.974  0.0809  2.3290 -1.7176
  534MOL0     H70465  -0.015   9.048   8.881  2.1843  1.0636  0.3829
  534MOL0     H70466  -0.222   9.020   8.754 -1.6234 -2.5529  0.6014
  534MOL0     H70467  -0.233   8.977   8.921 -0.1262 -0.9266 -0.8244
  534MOL0     H70468  -0.325   9.243   8.804 -1.8954  0.9288  0.9709
  534MOL0     H70469  -0.327   9.211   8.972  0.7793  0.3087 -0.5167
  534MOL0     H70470   0.580   9.176   9.061  1.7946  0.3367 -0.8972
  534MOL0     H70471   0.751   9.117   9.179  2.3962 -0.6943 -0.9006
  534MOL0     H70472   1.092   9.161   9.400  0.6352  1.3128 -0.8079
  534MOL0     H70473   1.293   9.116   9.531  1.0493  2.0810 -2.6229
  534MOL0     H70474   2.370   9.786  10.306 -0.2725 -0.7793  0.0293
  534MOL0     H70475   2.556   9.695  10.442 -0.7556 -1.0844 -0.2236
  534MOL0     H70476   2.990   9.741  10.524  0.0242 -0.4624 -0.1413
  534MOL0     H70477   3.224   9.679  10.620  0.7049  0.8771 -0.4499
  534MOL0     H70478   3.235   9.670  10.968 -0.7140  0.7700 -2.4407
  534MOL0     H70479   3.353   9.770  11.039 -1.1417  0.0965 -0.3177
  534MOL0     H70480   3.528   9.625  10.932  1.1536 -2.1759 -0.3128
  534MOL0     H70481   3.422   9.544  11.040  3.0349  3.3591  1.1926
  534MOL0     H70482   3.453   9.521  10.748  0.8054  1.0839  1.3696
  534MOL0     H70483   3.286   9.490  10.819  0.3618 -2.2834  1.4717
  534MOL0     H70484   3.387   9.330  10.970 -0.5943 -0.9264 -0.0275
  534MOL0     H70485   3.385   9.277  10.807 -0.8843 -0.3074  0.6400
  534MOL0     H70486   3.803   9.313  10.893  0.2076 -2.2873 -0.0084
  534MOL0     H70487   3.185   9.961  10.924  1.0602  1.9063 -2.2513
  534MOL0     H70488   2.942   9.996  10.872 -2.5829  0.6873 -2.1748
  535MOL0     O70489   9.765   2.534   3.781 -0.2316 -0.1649 -0.2280
  535MOL0     C70490   9.763   2.640   3.852 -0.6576  0.1859  0.0886
  535MOL0     O70491   9.652   2.718   3.875  0.2672 -0.1310  0.1020
  535MOL0     C70492   9.550   2.682   3.792  0.2184  0.0959 -0.0155
  535MOL0     C70493   9.447   2.607   3.842  0.6277 -0.2603 -0.3246
  535MOL0     C70494   9.334   2.572   3.760  0.0680  0.7532 -0.1424
  535MOL0     C70495   9.331   2.611   3.624  0.4221 -0.3949 -0.7030
  535MOL0     O70496   9.227   2.581   3.535 -0.2974 -0.2611 -0.2510
  535MOL0     C70497   9.237   2.629   3.401 -0.8416 -0.5287 -0.5311
  535MOL0     C70498   9.113   2.583   3.323 -0.5050 -0.3411 -0.1858
  535MOL0     C70499   8.980   2.648   3.364 -0.9701  0.6704  0.2106
  535MOL0     C70500   8.861   2.605   3.276 -0.4034  0.3407  0.5262
  535MOL0     C70501   8.727   2.659   3.311  1.0941  0.1312 -0.2446
  535MOL0     C70502   8.618   2.609   3.218 -0.3392  0.3652 -0.3702
  535MOL0     C70503   8.490   2.674   3.261 -0.3798 -0.6615  0.5937
  535MOL0     C70504   8.384   2.624   3.168 -0.2366 -0.9503 -0.1100
  535MOL0     N70505   8.249   2.687   3.174  0.1424 -0.0489  0.3531
  535MOL0     C70506   8.244   2.820   3.197  0.6409 -0.2507  0.0287
  535MOL0     C70507   8.108   2.844   3.174 -0.0141 -0.2565 -0.4409
  535MOL0     C70508   8.046   2.984   3.183  0.8306  0.7976 -0.2257
  535MOL0     C70509   7.892   2.969   3.162 -0.3067  0.3042 -0.0506
  535MOL0     C70510   7.812   2.958   3.290  0.4295  0.1008 -0.8553
  535MOL0     C70511   7.729   2.834   3.303 -0.4175  0.4474  0.4219
  535MOL0     O70512   7.636   2.834   3.196 -0.6830 -0.5663 -0.3727
  535MOL0     C70513   7.510   2.883   3.224 -0.6493  0.2806 -0.2850
  535MOL0     C70514   7.462   2.942   3.338 -0.2605  0.3612 -0.0363
  535MOL0     C70515   7.334   2.975   3.348 -0.0069  0.2828  0.0383
  535MOL0     C70516   7.238   2.949   3.246  0.4958 -0.1616 -0.9739
  535MOL0     C70517   7.095   2.989   3.268  0.2694  0.6701 -0.5348
  535MOL0     O70518   7.012   2.931   3.181  0.1254 -0.4667  0.1860
  535MOL0     C70519   6.872   2.955   3.187  0.7929 -0.9464  0.2363
  535MOL0     C70520   6.803   3.064   3.243  0.1806 -0.4137  0.2895
  535MOL0     C70521   6.662   3.071   3.242  0.0788  0.5116 -0.5832
  535MOL0     C70522   6.589   2.961   3.192 -0.3508  0.6832 -0.5124
  535MOL0     O70523   6.458   2.948   3.218  0.3633 -0.3405  0.3073
  535MOL0     C70524   6.375   3.065   3.255 -0.2588 -0.5788 -0.0139
  535MOL0     C70525   6.235   3.014   3.279 -0.0855 -0.5466 -0.1151
  535MOL0     C70526   6.174   2.952   3.158  0.2298  0.6019  0.1519
  535MOL0     C70527   6.032   2.907   3.195 -0.2948  0.2898  0.2990
  535MOL0     C70528   5.966   2.837   3.068  0.0478 -0.3326 -0.7129
  535MOL0     C70529   5.845   2.762   3.120 -0.5615 -0.5836  0.0063
  535MOL0     C70530   5.720   2.836   3.148  0.6479 -1.3636  0.4816
  535MOL0     C70531   5.624   2.741   3.227 -0.4076  0.3603  0.6941
  535MOL0    Cl70532   5.685   2.711   3.392  0.2797  0.7815 -0.0447
  535MOL0     C70533   6.656   2.861   3.119  0.5355 -0.6574 -0.0187
  535MOL0     C70534   6.797   2.863   3.111 -0.2416 -0.7003 -0.1267
  535MOL0     O70535   7.067   3.076   3.354 -0.3318 -0.6752  0.4069
  535MOL0     C70536   7.277   2.890   3.126  0.2066 -0.0570 -0.1969
  535MOL0     C70537   7.415   2.857   3.115  0.0618  0.2039  0.6865
  535MOL0     N70538   8.044   2.719   3.145  0.2922 -0.5878  0.3143
  535MOL0     N70539   8.132   2.626   3.150  0.0276  0.7530 -1.0380
  535MOL0     C70540   9.434   2.691   3.579 -0.5074  0.4214  0.4182
  535MOL0     C70541   9.545   2.726   3.657  0.0924 -0.6080  0.1608
  535MOL0     C70542   9.905   2.696   3.897  0.4967 -1.3626  0.4346
  535MOL0     C70543   9.925   2.818   3.969  0.2120  0.1460  0.9019
  535MOL0     C70544  10.055   2.858   4.006  0.0924 -0.0895 -0.0166
  535MOL0     C70545  10.163   2.782   3.983 -0.1151  1.5119  0.1481
  535MOL0     O70546  10.288   2.825   4.032 -0.3841  0.4127 -0.9658
  535MOL0     C70547  10.358   2.734   4.124 -0.3812 -0.3357  0.0880
  535MOL0     C70548  10.498   2.783   4.142  0.1212 -0.3435  0.4917
  535MOL0     C70549  10.568   2.807   4.008 -0.1501 -0.6841  0.0934
  535MOL0     C70550  10.724   2.813   4.017  0.6313 -0.3808  0.3953
  535MOL0     C70551  10.784   2.877   3.903 -1.0285 -0.5572 -0.6516
  535MOL0     C70552  10.822   2.922   3.799  0.2202 -0.3985  0.2393
  535MOL0     C70553  10.147   2.661   3.903  0.3966 -0.3158  0.7068
  535MOL0     C70554  10.017   2.615   3.873  0.1067  0.0871  0.5027
  535MOL0     H70555   9.444   2.582   3.948 -1.7387 -0.3371 -0.3621
  535MOL0     H70556   9.250   2.513   3.794  0.3121  0.9136  0.7498
  535MOL0     H70557   9.324   2.596   3.343 -1.1846 -1.6190 -0.4529
  535MOL0     H70558   9.228   2.737   3.417 -3.7284 -1.0801  2.7489
  535MOL0     H70559   9.100   2.475   3.335  1.4267 -0.4884  1.0690
  535MOL0     H70560   9.124   2.614   3.219 -2.5056  1.8528  0.1532
  535MOL0     H70561   8.990   2.757   3.365  1.8539  0.5417 -1.2873
  535MOL0     H70562   8.957   2.607   3.463  0.9157  2.1104  1.3132
  535MOL0     H70563   8.893   2.641   3.178  0.2583  2.8307  1.5753
  535MOL0     H70564   8.848   2.497   3.265 -1.5053  0.6224 -1.2017
  535MOL0     H70565   8.740   2.767   3.319  0.4528  0.1580  0.5379
  535MOL0     H70566   8.704   2.621   3.411 -2.9508 -2.8556 -2.0538
  535MOL0     H70567   8.619   2.502   3.241 -0.5264  0.3802 -0.2914
  535MOL0     H70568   8.641   2.627   3.113  1.7442 -2.3844 -0.5089
  535MOL0     H70569   8.451   2.657   3.362 -1.9174 -3.0569 -0.3053
  535MOL0     H70570   8.488   2.781   3.237  1.3849 -0.8130 -0.3638
  535MOL0     H70571   8.366   2.523   3.208 -0.3062 -0.5227  0.9525
  535MOL0     H70572   8.412   2.617   3.062  0.9938  0.7297  0.0823
  535MOL0     H70573   8.316   2.900   3.212  1.5688 -0.5316 -2.5365
  535MOL0     H70574   8.087   3.052   3.108  1.1508  1.4751  0.5422
  535MOL0     H70575   8.061   3.031   3.281 -0.9778  0.7636  0.1013
  535MOL0     H70576   7.874   2.892   3.087 -0.8183  1.5880 -1.3023
  535MOL0     H70577   7.853   3.059   3.114  1.0205  0.2847 -1.2502
  535MOL0     H70578   7.874   2.963   3.380 -0.1328 -1.5714 -0.3406
  535MOL0     H70579   7.747   3.046   3.290  0.5664  0.4453 -5.2712
  535MOL0     H70580   7.696   2.825   3.407  2.1096 -5.5778  1.1210
  535MOL0     H70581   7.804   2.755   3.293 -1.9088 -0.9509 -0.2918
  535MOL0     H70582   7.529   2.966   3.420  0.0724  0.4005 -0.3187
  535MOL0     H70583   7.306   3.022   3.442 -0.2337  2.0262 -0.8448
  535MOL0     H70584   6.859   3.147   3.284 -1.4380  1.6195 -1.3391
  535MOL0     H70585   6.608   3.155   3.284 -3.0403 -1.1150 -1.0640
  535MOL0     H70586   6.376   3.136   3.172  1.1677  0.8590  1.1936
  535MOL0     H70587   6.408   3.118   3.345  0.1791 -0.6814 -0.1119
  535MOL0     H70588   6.181   3.101   3.316  0.7894 -0.2692  0.5430
  535MOL0     H70589   6.241   2.945   3.364 -0.3760  3.0923  3.1021
  535MOL0     H70590   6.234   2.867   3.126 -0.9344  0.5654 -2.1144
  535MOL0     H70591   6.177   3.025   3.076  1.7996 -1.5198 -1.8194
  535MOL0     H70592   6.042   2.843   3.283 -0.1873  1.2337  0.9857
  535MOL0     H70593   5.962   2.989   3.213 -1.3163 -0.0149 -1.9387
  535MOL0     H70594   6.037   2.769   3.019 -1.6722 -1.3320 -1.8920
  535MOL0     H70595   5.947   2.918   2.997  0.3648 -0.1380 -0.5801
  535MOL0     H70596   5.876   2.713   3.213  0.3086  1.2549  0.7356
  535MOL0     H70597   5.822   2.688   3.042  1.0349 -1.0995 -0.0113
  535MOL0     H70598   5.732   2.919   3.219  0.1594 -0.0399 -0.9249
  535MOL0     H70599   5.674   2.882   3.060  0.5844  3.1181  2.5932
  535MOL0     H70600   5.609   2.653   3.164  2.8868  0.7083 -0.7972
  535MOL0     H70601   5.529   2.790   3.250 -0.9381 -0.2030 -0.2643
  535MOL0     H70602   6.600   2.786   3.064  0.0376 -1.4094  1.4609
  535MOL0     H70603   6.862   2.786   3.069  2.5766  0.9406  0.9852
  535MOL0     H70604   7.215   2.869   3.039 -1.0083 -2.1064  1.0616
  535MOL0     H70605   7.460   2.823   3.023  0.4925  0.6637  0.7254
  535MOL0     H70606   9.457   2.710   3.475  3.3230 -1.6136  0.7225
  535MOL0     H70607   9.637   2.774   3.625  0.7463  0.2896  3.1024
  535MOL0     H70608   9.842   2.887   3.980 -0.6345 -0.2155 -2.1847
  535MOL0     H70609  10.072   2.946   4.067  0.5370  0.8810 -1.4773
  535MOL0     H70610  10.364   2.637   4.075  1.0307 -0.8023  1.1218
  535MOL0     H70611  10.307   2.730   4.221 -1.4402  3.6272 -0.1038
  535MOL0     H70612  10.509   2.877   4.196  1.0953  0.6926 -1.4071
  535MOL0     H70613  10.561   2.712   4.196  0.2566 -0.1547  0.5822
  535MOL0     H70614  10.537   2.904   3.968  0.3215 -0.6935 -0.3122
  535MOL0     H70615  10.543   2.740   3.925 -2.8898 -0.2672  0.4677
  535MOL0     H70616  10.742   2.867   4.111  1.5473 -0.4078  0.2449
  535MOL0     H70617  10.763   2.711   4.014 -0.4482 -0.8055 -2.2813
  535MOL0     H70618  10.860   2.948   3.702  0.5112  3.2668  1.1649
  535MOL0     H70619  10.240   2.615   3.874  0.0287  1.1636 -3.5414
  535MOL0     H70620  10.005   2.518   3.827  0.8756 -0.3749  1.2375
  536MOL0     O70621   0.881   7.095   2.481  0.6615  0.3583  0.3230
  536MOL0     C70622   0.839   7.195   2.535  0.2123 -0.4152 -0.8955
  536MOL0     O70623   0.916   7.286   2.604  0.1491  0.5972 -0.0130
  536MOL0     C70624   1.055   7.266   2.605 -0.9386  0.6071  0.1078
  536MOL0     C70625   1.130   7.222   2.499  0.2740 -0.0236 -0.4161
  536MOL0     C70626   1.276   7.230   2.503 -0.1216  0.0423 -0.0624
  536MOL0     C70627   1.341   7.261   2.616  0.8341  0.2854 -0.4872
  536MOL0     O70628   1.477   7.257   2.609 -0.0083 -0.0496  0.4840
  536MOL0     C70629   1.551   7.274   2.724 -0.2539 -0.1396  0.2832
  536MOL0     C70630   1.696   7.262   2.673  0.3585  0.1698  0.0389
  536MOL0     C70631   1.790   7.271   2.783  0.2806 -0.4010 -0.2618
  536MOL0     C70632   1.926   7.312   2.733  0.1665  0.3787 -0.2746
  536MOL0     C70633   2.018   7.348   2.850  0.5022  0.0522 -0.3121
  536MOL0     C70634   2.133   7.431   2.795 -0.5115 -0.0949 -0.7704
  536MOL0     C70635   2.216   7.377   2.669  0.0407 -0.3637 -0.7105
  536MOL0     C70636   2.303   7.485   2.603  0.3036 -0.0112 -1.4300
  536MOL0     N70637   2.410   7.541   2.687  0.1075 -1.1740  0.0932
  536MOL0     C70638   2.540   7.497   2.704  0.3668 -0.1245  0.3656
  536MOL0     C70639   2.584   7.553   2.814 -0.4441 -0.3333  0.2234
  536MOL0     C70640   2.718   7.524   2.882 -0.5222  0.3734  0.0166
  536MOL0     C70641   2.832   7.594   2.829 -0.0365  0.0015 -0.0487
  536MOL0     C70642   2.958   7.570   2.932  0.2868  0.0455  0.6789
  536MOL0     C70643   3.095   7.610   2.878  0.5485 -0.1353 -0.7449
  536MOL0     O70644   3.140   7.521   2.775  0.5044  0.7932 -0.5007
  536MOL0     C70645   3.271   7.510   2.735  0.1490  0.2893 -0.0092
  536MOL0     C70646   3.377   7.572   2.805 -0.2877 -0.2613 -0.0084
  536MOL0     C70647   3.517   7.551   2.774  0.4500 -0.7494  0.6002
  536MOL0     C70648   3.549   7.479   2.659 -0.4416  0.0040 -0.4328
  536MOL0     C70649   3.692   7.455   2.624  0.5990 -0.3059  0.2380
  536MOL0     O70650   3.727   7.331   2.576  0.0096 -0.8131  0.0477
  536MOL0     C70651   3.858   7.304   2.562 -0.4096  0.0567 -0.0940
  536MOL0     C70652   3.957   7.320   2.653 -0.3336 -0.5873 -0.5250
  536MOL0     C70653   4.087   7.285   2.626 -0.4742 -0.0682 -0.2469
  536MOL0     C70654   4.129   7.225   2.506  0.2207  0.3986 -0.3789
  536MOL0     O70655   4.265   7.203   2.496  0.4901  0.3452 -0.4888
  536MOL0     C70656   4.335   7.229   2.368 -0.1733  0.5162 -0.1050
  536MOL0     C70657   4.488   7.227   2.399  0.0993  0.2900  0.1200
  536MOL0     C70658   4.530   7.115   2.499  0.5234  0.5751 -0.0407
  536MOL0     C70659   4.678   7.105   2.508 -1.0840  0.0611 -0.3003
  536MOL0     C70660   4.731   7.057   2.636  0.4904 -0.1911 -0.1293
  536MOL0     C70661   4.761   7.173   2.738 -0.4751 -0.5576  0.8297
  536MOL0     C70662   4.832   7.119   2.863  0.8912  0.6209 -0.2802
  536MOL0     C70663   4.829   7.213   2.982  0.2747  0.4112 -0.4632
  536MOL0    Cl70664   4.658   7.255   3.011 -0.6282  0.1700  0.3037
  536MOL0     C70665   4.033   7.210   2.406  1.2913 -0.2080 -0.1877
  536MOL0     C70666   3.904   7.262   2.433  0.9095  1.0304  0.0720
  536MOL0     O70667   3.768   7.550   2.643  1.0681 -0.1246  0.8484
  536MOL0     C70668   3.448   7.410   2.593 -0.4238 -0.2073 -0.4467
  536MOL0     C70669   3.311   7.420   2.635  0.9878  0.5930  0.8749
  536MOL0     N70670   2.485   7.635   2.868  0.1355 -0.1325  0.6840
  536MOL0     N70671   2.384   7.628   2.787  0.3435 -1.1001 -0.8623
  536MOL0     C70672   1.265   7.310   2.729 -0.0055 -0.1813 -0.8615
  536MOL0     C70673   1.126   7.305   2.722  0.2685  0.2583  1.1642
  536MOL0     C70674   0.690   7.209   2.567  0.0299  0.0722 -0.5832
  536MOL0     C70675   0.648   7.278   2.685  0.0091 -0.1929 -0.3130
  536MOL0     C70676   0.515   7.275   2.716  0.2980 -0.1831 -1.0225
  536MOL0     C70677   0.427   7.218   2.635  0.4382 -0.3770 -0.0217
  536MOL0     O70678   0.292   7.211   2.661  0.2634 -0.6649  0.1508
  536MOL0     C70679   0.249   7.212   2.799  1.5169 -0.0488  1.1435
  536MOL0     C70680   0.115   7.151   2.799 -0.4043  0.1092 -0.2466
  536MOL0     C70681   0.108   7.015   2.730  0.3061  0.5531  0.2230
  536MOL0     C70682  -0.032   6.953   2.753  0.0184  1.0807 -0.1387
  536MOL0     C70683  -0.127   7.010   2.663 -0.3174 -0.5564  0.9170
  536MOL0     C70684  -0.199   7.061   2.579 -0.0839 -0.3256 -0.0969
  536MOL0     C70685   0.464   7.179   2.507 -1.0109  0.1632  0.0979
  536MOL0     C70686   0.596   7.169   2.470 -0.0197  0.1846 -0.0135
  536MOL0     H70687   1.094   7.180   2.406  0.9041 -1.6796  0.0318
  536MOL0     H70688   1.337   7.209   2.416 -0.0475  2.7968 -0.7479
  536MOL0     H70689   1.523   7.193   2.791 -1.2971 -0.0901 -0.0715
  536MOL0     H70690   1.532   7.374   2.764  0.3592  0.2188 -0.2976
  536MOL0     H70691   1.711   7.346   2.604 -0.5632 -0.0394 -0.4349
  536MOL0     H70692   1.715   7.168   2.621 -0.6704  1.1770 -2.3109
  536MOL0     H70693   1.794   7.179   2.841  1.3878 -1.5844 -2.1245
  536MOL0     H70694   1.755   7.353   2.847  1.0939 -0.7352  0.6208
  536MOL0     H70695   1.951   7.221   2.678  0.8336 -0.0133  0.6657
  536MOL0     H70696   1.912   7.399   2.667 -1.8179  1.4109  1.3985
  536MOL0     H70697   2.055   7.256   2.896 -0.7202 -0.7649 -0.8939
  536MOL0     H70698   1.961   7.404   2.925  0.3764  1.0684 -1.1474
  536MOL0     H70699   2.206   7.437   2.875 -0.2007 -0.6077 -1.0142
  536MOL0     H70700   2.097   7.534   2.788 -1.2928 -0.2758  0.2885
  536MOL0     H70701   2.282   7.297   2.703  0.8803 -1.0890 -3.7431
  536MOL0     H70702   2.149   7.342   2.590 -1.2888  0.6372 -0.0622
  536MOL0     H70703   2.255   7.571   2.556  0.5312  1.7341  1.2961
  536MOL0     H70704   2.347   7.431   2.519 -0.1008 -1.4794 -0.7197
  536MOL0     H70705   2.588   7.425   2.639  0.9947  1.5224 -1.0938
  536MOL0     H70706   2.737   7.417   2.869 -0.5962  0.2594  0.8233
  536MOL0     H70707   2.711   7.542   2.989 -0.2920 -0.7223  0.2285
  536MOL0     H70708   2.812   7.701   2.828 -0.2782  0.0303  2.2963
  536MOL0     H70709   2.863   7.558   2.730 -0.6478 -0.3161 -0.1281
  536MOL0     H70710   2.934   7.630   3.021  2.1170  1.2892  0.3955
  536MOL0     H70711   2.971   7.467   2.965  3.6444 -0.7881 -2.5884
  536MOL0     H70712   3.160   7.609   2.966 -1.8737  3.7647  1.3803
  536MOL0     H70713   3.097   7.713   2.841  3.2719  0.0917 -0.2026
  536MOL0     H70714   3.363   7.645   2.884 -0.9133 -1.8337  1.3945
  536MOL0     H70715   3.605   7.596   2.818  2.7654 -2.0723 -2.3043
  536MOL0     H70716   3.936   7.359   2.752  0.6836  0.9335 -0.8607
  536MOL0     H70717   4.163   7.305   2.701 -0.0340  0.3270 -0.7931
  536MOL0     H70718   4.307   7.326   2.327 -0.1132  1.1122  1.2337
  536MOL0     H70719   4.306   7.157   2.291  0.3716  1.0194 -0.7975
  536MOL0     H70720   4.516   7.322   2.447  0.6116  0.5147 -0.6089
  536MOL0     H70721   4.551   7.217   2.310 -0.4419  1.1052 -0.3668
  536MOL0     H70722   4.484   7.020   2.471 -2.2789  1.3908  1.4856
  536MOL0     H70723   4.486   7.124   2.599 -1.2997  0.4449 -0.7967
  536MOL0     H70724   4.710   7.035   2.430  1.2724  2.5140 -1.6775
  536MOL0     H70725   4.725   7.202   2.491  2.7400 -1.8080 -1.4866
  536MOL0     H70726   4.832   7.016   2.624  0.9395  0.5686  0.9398
  536MOL0     H70727   4.652   6.995   2.679 -0.7574  1.7114  0.4790
  536MOL0     H70728   4.669   7.229   2.755 -1.0556 -0.0971 -3.0133
  536MOL0     H70729   4.823   7.251   2.692 -0.6519  0.2157  1.8606
  536MOL0     H70730   4.787   7.020   2.878  0.6017  0.2578 -2.9338
  536MOL0     H70731   4.939   7.104   2.844  0.7944 -3.4165  1.2950
  536MOL0     H70732   4.885   7.305   2.962 -0.0778  0.1726 -2.8766
  536MOL0     H70733   4.874   7.166   3.070 -1.4533  1.6753  1.1895
  536MOL0     H70734   4.052   7.180   2.304 -2.9502  0.1172 -1.2507
  536MOL0     H70735   3.827   7.260   2.356 -0.4821  0.7480  1.4209
  536MOL0     H70736   3.487   7.350   2.511  0.6796  2.1403 -1.7281
  536MOL0     H70737   3.232   7.364   2.587  2.4552 -1.1654  0.4058
  536MOL0     H70738   1.322   7.330   2.819  1.3216  0.1163 -1.7389
  536MOL0     H70739   1.069   7.340   2.807  1.0733  2.0233  1.0112
  536MOL0     H70740   0.720   7.331   2.746  3.2747 -0.8541 -3.2640
  536MOL0     H70741   0.483   7.332   2.803 -1.2307 -0.4579 -1.3730
  536MOL0     H70742   0.239   7.317   2.828 -3.0793  0.2796 -0.7973
  536MOL0     H70743   0.316   7.160   2.868  2.3620 -1.4056 -0.6474
  536MOL0     H70744   0.076   7.147   2.901  0.8640 -2.6822  0.2198
  536MOL0     H70745   0.050   7.219   2.743 -0.7679 -0.4693 -0.5313
  536MOL0     H70746   0.183   6.945   2.767  1.6544  1.5373 -0.5316
  536MOL0     H70747   0.142   7.024   2.627 -0.4779 -2.1011 -0.3199
  536MOL0     H70748  -0.019   6.848   2.723  0.8589  1.1963 -0.2025
  536MOL0     H70749  -0.060   6.969   2.857 -0.2883  1.0313 -0.2114
  536MOL0     H70750  -0.268   7.107   2.512 -1.6599 -2.7864 -0.3039
  536MOL0     H70751   0.395   7.142   2.432  0.1957  0.6998 -1.3442
  536MOL0     H70752   0.609   7.143   2.366 -0.4337 -1.4580  0.3233
  537MOL0     O70753   9.122   9.683   4.025 -0.5246  0.8393  0.6054
  537MOL0     C70754   9.119   9.752   4.124  0.7885  0.0053  0.3953
  537MOL0     O70755   9.215   9.759   4.220  0.1900 -1.1378 -0.1575
  537MOL0     C70756   9.347   9.713   4.206  0.1173  0.3482 -0.5879
  537MOL0     C70757   9.424   9.674   4.090 -0.3696 -0.1796 -0.6066
  537MOL0     C70758   9.557   9.638   4.105  0.9700 -0.5061 -0.5728
  537MOL0     C70759   9.613   9.623   4.232  0.2937 -0.8851 -0.0692
  537MOL0     O70760   9.744   9.576   4.233  0.6513  0.0413  0.5861
  537MOL0     C70761   9.817   9.596   4.353  0.9385  0.3080 -0.4725
  537MOL0     C70762   9.961   9.547   4.322 -0.4904  0.0026  0.6029
  537MOL0     C70763  10.018   9.619   4.206 -0.1681 -0.2618 -0.9426
  537MOL0     C70764  10.174   9.604   4.191  0.0040  0.1301  0.0979
  537MOL0     C70765  10.210   9.637   4.048  0.7836  0.0087  0.0074
  537MOL0     C70766  10.209   9.779   3.994 -0.1242  0.1443 -0.3001
  537MOL0     C70767  10.260   9.876   4.100 -0.0302 -0.2662  0.1116
  537MOL0     C70768  10.295  10.013   4.052  0.4377 -0.4871 -0.2950
  537MOL0     N70769  10.186  10.088   3.987 -0.0653  0.2176  0.5102
  537MOL0     C70770  10.151  10.068   3.853  1.1142 -0.0241 -0.9355
  537MOL0     C70771  10.084  10.180   3.819 -0.1271 -0.2936 -0.1569
  537MOL0     C70772  10.021  10.200   3.686  0.1318 -0.2911 -0.6653
  537MOL0     C70773   9.913  10.318   3.691  0.9146 -0.0884  0.1390
  537MOL0     C70774   9.789  10.297   3.792 -0.2315  0.3479  0.8679
  537MOL0     C70775   9.683  10.405   3.765 -0.9228 -0.8177 -0.9222
  537MOL0     O70776   9.609  10.366   3.648  0.2686 -0.2650  0.3761
  537MOL0     C70777   9.484  10.418   3.639 -0.7742  0.1082  0.9045
  537MOL0     C70778   9.398  10.360   3.546  0.0736  0.4356  0.1993
  537MOL0     C70779   9.273  10.413   3.507 -0.5400  0.0783 -1.0252
  537MOL0     C70780   9.238  10.537   3.569 -1.3130 -0.6835 -0.9886
  537MOL0     C70781   9.123  10.614   3.518  0.9143  0.3383  0.2280
  537MOL0     O70782   9.085  10.707   3.599 -0.1821 -0.2711 -0.8262
  537MOL0     C70783   8.949  10.736   3.604  0.1695 -0.2440 -0.2157
  537MOL0     C70784   8.915  10.863   3.652  0.4698 -0.6678 -0.1520
  537MOL0     C70785   8.783  10.903   3.657 -0.1955  0.1203 -0.1975
  537MOL0     C70786   8.674  10.825   3.631  0.1706  0.1951  0.5095
  537MOL0     O70787   8.544  10.867   3.637 -0.3032  0.2390 -0.6206
  537MOL0     C70788   8.516  10.998   3.599  0.2246 -1.3307 -0.2501
  537MOL0     C70789   8.372  11.009   3.550  0.8456  0.0797  0.3012
  537MOL0     C70790   8.346  11.119   3.454 -0.4668 -0.4435 -0.5215
  537MOL0     C70791   8.202  11.150   3.437  0.3623 -0.2898 -0.4278
  537MOL0     C70792   8.193  11.264   3.332  0.1143  0.9096 -0.0390
  537MOL0     C70793   8.043  11.290   3.275 -0.0648  0.3750  0.1210
  537MOL0     C70794   7.989  11.175   3.191  0.4122  0.0669  0.6530
  537MOL0     C70795   7.885  11.232   3.098 -0.4380  0.4512  0.5619
  537MOL0    Cl70796   7.739  11.261   3.193 -0.1737  0.0033  0.4679
  537MOL0     C70797   8.696  10.693   3.585 -0.0296 -0.7744  0.3643
  537MOL0     C70798   8.835  10.652   3.579 -0.0461 -0.5164  0.5271
  537MOL0     O70799   9.070  10.584   3.410  0.1983  0.1821  0.0044
  537MOL0     C70800   9.323  10.595   3.655 -0.2698 -0.6087 -0.1154
  537MOL0     C70801   9.445  10.539   3.688 -0.4315 -0.0049 -0.1789
  537MOL0     N70802  10.092  10.269   3.925  0.6952  0.1383  0.5437
  537MOL0     N70803  10.157  10.212   4.015  0.3915 -0.4175 -0.3674
  537MOL0     C70804   9.533   9.639   4.346 -0.0613 -0.6755 -0.1824
  537MOL0     C70805   9.405   9.691   4.331  0.8802 -0.0103  0.0129
  537MOL0     C70806   8.994   9.825   4.164  0.6063  0.1444 -0.2136
  537MOL0     C70807   8.997   9.931   4.269 -0.0417 -0.1407  1.0801
  537MOL0     C70808   8.879  10.002   4.293 -0.0261 -0.6036  0.1456
  537MOL0     C70809   8.760   9.978   4.230 -0.1006 -0.4529 -0.3129
  537MOL0     O70810   8.645  10.048   4.255  0.2181  0.4003  0.2527
  537MOL0     C70811   8.594  10.115   4.147  0.0080 -0.2857  0.3625
  537MOL0     C70812   8.504  10.231   4.201 -0.6215 -0.3481 -0.2456
  537MOL0     C70813   8.362  10.217   4.166  0.0645  0.0604  0.2576
  537MOL0     C70814   8.291  10.116   4.252  0.0548 -0.5548  0.3354
  537MOL0     C70815   8.309   9.980   4.199  0.0300 -0.9880 -1.2325
  537MOL0     C70816   8.327   9.864   4.178 -0.4736  0.9059  0.2683
  537MOL0     C70817   8.763   9.874   4.135  0.5421  1.5166 -0.9732
  537MOL0     C70818   8.871   9.799   4.101  0.0482  0.2971  0.4459
  537MOL0     H70819   9.392   9.673   3.986 -3.1857  1.3257  0.1381
  537MOL0     H70820   9.631   9.615   4.030 -0.2143  0.0044 -1.9439
  537MOL0     H70821   9.777   9.534   4.433  3.0913  0.4475  0.7803
  537MOL0     H70822   9.810   9.701   4.382 -0.3878  0.1447 -0.1288
  537MOL0     H70823   9.949   9.443   4.292 -2.3656  0.3982 -0.1106
  537MOL0     H70824  10.030   9.552   4.407  1.9460 -0.6936 -1.2166
  537MOL0     H70825   9.996   9.727   4.210 -0.4627 -0.3591  0.8942
  537MOL0     H70826   9.964   9.591   4.116 -1.0386  0.7281 -0.7514
  537MOL0     H70827  10.220   9.674   4.261  1.9062 -0.0823 -0.8703
  537MOL0     H70828  10.210   9.503   4.213 -0.0673 -0.8193 -3.5364
  537MOL0     H70829  10.159   9.578   3.971  2.9593  0.2493 -1.7362
  537MOL0     H70830  10.313   9.605   4.033  2.4477  2.7989  3.8167
  537MOL0     H70831  10.104   9.794   3.965 -0.0963 -1.6413 -1.5149
  537MOL0     H70832  10.272   9.781   3.904 -1.5371 -1.0057 -1.3915
  537MOL0     H70833  10.182   9.903   4.173  1.6648  2.1468  1.1658
  537MOL0     H70834  10.350   9.835   4.147 -0.1100 -0.1700  0.3528
  537MOL0     H70835  10.384  10.010   3.989 -0.7652 -0.4074 -2.0651
  537MOL0     H70836  10.325  10.059   4.147 -0.2660 -1.0849  0.2277
  537MOL0     H70837  10.167   9.981   3.790  1.2330  1.9466 -3.8226
  537MOL0     H70838   9.968  10.109   3.656 -0.6357 -0.2187  0.4001
  537MOL0     H70839  10.092  10.214   3.604 -0.0792  0.3471 -0.7446
  537MOL0     H70840   9.886  10.335   3.587  1.1093  1.7239  0.3601
  537MOL0     H70841   9.971  10.407   3.716  3.3981 -1.9399  1.4822
  537MOL0     H70842   9.744  10.199   3.772 -0.0846  0.2928  0.7995
  537MOL0     H70843   9.828  10.309   3.893 -0.0732 -1.0388  0.9940
  537MOL0     H70844   9.735  10.501   3.754 -2.9085  0.2294 -1.8000
  537MOL0     H70845   9.614  10.420   3.849 -0.1588  1.0295 -0.5676
  537MOL0     H70846   9.426  10.272   3.489  3.2936  1.5335 -0.1349
  537MOL0     H70847   9.226  10.356   3.428 -0.6707 -1.6670  0.2370
  537MOL0     H70848   8.983  10.941   3.684  0.1329 -0.3256 -0.2552
  537MOL0     H70849   8.768  11.002   3.699  2.0959  1.1918 -1.7608
  537MOL0     H70850   8.584  11.033   3.521 -1.7227  2.3385 -0.5582
  537MOL0     H70851   8.527  11.071   3.679  1.2658 -1.9557  0.1938
  537MOL0     H70852   8.301  11.028   3.631 -1.1150  3.0201 -1.9068
  537MOL0     H70853   8.331  10.918   3.506 -0.7861  0.9770 -0.1348
  537MOL0     H70854   8.392  11.092   3.359  0.6924  2.9846 -1.0687
  537MOL0     H70855   8.402  11.202   3.497  0.0230 -1.4554  0.8681
  537MOL0     H70856   8.147  11.063   3.400 -0.6654 -0.2750  0.9728
  537MOL0     H70857   8.159  11.177   3.534 -1.8259 -1.2909 -1.0478
  537MOL0     H70858   8.251  11.243   3.242  0.2111  1.4129 -0.0953
  537MOL0     H70859   8.241  11.354   3.373 -0.0503  0.8215  0.3544
  537MOL0     H70860   8.061  11.382   3.218 -1.6467  3.3378  3.8967
  537MOL0     H70861   7.973  11.318   3.354  0.4406 -0.6762  0.9769
  537MOL0     H70862   8.069  11.122   3.139  0.3710  0.0568  0.5986
  537MOL0     H70863   7.944  11.095   3.251 -1.8892  0.6271 -0.1968
  537MOL0     H70864   7.851  11.162   3.021 -1.2147  0.6316  0.7350
  537MOL0     H70865   7.927  11.313   3.037  0.0903 -0.9230 -0.9686
  537MOL0     H70866   8.608  10.634   3.561 -0.1968 -0.2717 -0.2978
  537MOL0     H70867   8.841  10.552   3.536 -0.1119 -0.6828  0.8970
  537MOL0     H70868   9.294  10.688   3.703 -3.5416 -0.3699 -2.2496
  537MOL0     H70869   9.512  10.603   3.744  3.5718 -1.0919 -3.3109
  537MOL0     H70870   9.568   9.621   4.447 -0.4652 -2.2617 -0.2967
  537MOL0     H70871   9.355   9.716   4.423  0.3546 -0.0547 -0.2576
  537MOL0     H70872   9.093   9.962   4.309  0.7046 -1.2983  0.2710
  537MOL0     H70873   8.880  10.067   4.380  0.4790 -2.0306  1.2533
  537MOL0     H70874   8.541  10.047   4.081 -0.1995  2.7138 -2.8675
  537MOL0     H70875   8.679  10.150   4.087  1.6559 -3.4349  0.6571
  537MOL0     H70876   8.517  10.247   4.309 -1.5087  0.4370 -0.2425
  537MOL0     H70877   8.546  10.321   4.154  0.1032  0.1660  1.3152
  537MOL0     H70878   8.339  10.185   4.064 -2.4812  2.2888  0.0190
  537MOL0     H70879   8.337  10.323   4.177  0.3677  0.0962  0.6501
  537MOL0     H70880   8.320  10.126   4.357  0.1198  0.7588  0.2154
  537MOL0     H70881   8.183  10.132   4.240  0.5015  1.1408 -2.2665
  537MOL0     H70882   8.337   9.762   4.147 -1.3476  0.8184  0.2524
  537MOL0     H70883   8.668   9.858   4.084  0.5177 -0.4258 -0.4183
  537MOL0     H70884   8.871   9.733   4.015 -1.5553 -0.2956  0.8521
  538MOL0     O70885   4.260   3.108   2.759  0.4123 -0.6918  0.6803
  538MOL0     C70886   4.262   3.036   2.858  0.2216 -0.5351  0.0449
  538MOL0     O70887   4.150   3.004   2.939 -0.0087  0.1191  0.1261
  538MOL0     C70888   4.027   3.044   2.898  0.6525  0.9664  0.1634
  538MOL0     C70889   3.919   2.960   2.879  0.6972 -0.2049  0.2982
  538MOL0     C70890   3.793   3.021   2.883 -0.2575 -0.4467  0.4443
  538MOL0     C70891   3.768   3.159   2.903  0.8812  0.1719 -0.6446
  538MOL0     O70892   3.650   3.232   2.911  0.4132  0.4188  0.6458
  538MOL0     C70893   3.542   3.175   2.980 -0.0408 -0.2761  0.2192
  538MOL0     C70894   3.407   3.226   2.934 -0.4522 -0.4569  0.5875
  538MOL0     C70895   3.289   3.157   2.996  0.5633 -0.3099  0.2426
  538MOL0     C70896   3.157   3.216   2.963  0.3215  1.0885 -0.3391
  538MOL0     C70897   3.042   3.132   3.001  0.1661  0.5218  0.2621
  538MOL0     C70898   2.992   3.157   3.144 -0.1912  0.1765  0.0778
  538MOL0     C70899   2.869   3.073   3.172 -0.7772  0.9704  0.0096
  538MOL0     C70900   2.800   3.096   3.309 -0.0450 -0.0337  0.0231
  538MOL0     N70901   2.652   3.078   3.309  0.3998 -0.3569  0.0969
  538MOL0     C70902   2.589   2.954   3.311 -0.4151 -0.7779 -0.8282
  538MOL0     C70903   2.458   2.987   3.319  0.7602  0.4481  0.0235
  538MOL0     C70904   2.350   2.881   3.324 -0.5506 -0.5987  0.3784
  538MOL0     C70905   2.205   2.927   3.350 -0.0568  0.0528  0.3474
  538MOL0     C70906   2.108   2.812   3.378  0.9614 -0.3053  0.1709
  538MOL0     C70907   1.979   2.884   3.419 -1.5308 -0.0824 -0.2582
  538MOL0     O70908   1.859   2.805   3.409 -0.4661 -0.4525 -0.2772
  538MOL0     C70909   1.740   2.846   3.473 -0.0603  0.5034  0.6437
  538MOL0     C70910   1.720   2.979   3.524  0.3808  0.5226 -0.1489
  538MOL0     C70911   1.602   3.015   3.591  0.7139  0.8753  0.4198
  538MOL0     C70912   1.504   2.917   3.614 -0.5193 -0.5761  0.0801
  538MOL0     C70913   1.386   2.967   3.689  0.4560  1.0803  0.8491
  538MOL0     O70914   1.376   3.092   3.747 -0.2965  0.2427 -0.0125
  538MOL0     C70915   1.272   3.115   3.834  0.1831  0.1720  0.1151
  538MOL0     C70916   1.185   3.223   3.814  0.7419 -0.1040 -0.4605
  538MOL0     C70917   1.090   3.259   3.909 -0.4402 -0.9546 -0.0165
  538MOL0     C70918   1.069   3.182   4.025  0.4174  0.6071  0.4415
  538MOL0     O70919   0.975   3.200   4.126  0.2467  0.5048  0.1483
  538MOL0     C70920   0.898   3.319   4.107  0.0461 -0.0552 -0.8153
  538MOL0     C70921   0.796   3.344   4.222  0.2496  0.2430  0.0200
  538MOL0     C70922   0.712   3.462   4.198 -0.2891  0.1504  0.5050
  538MOL0     C70923   0.616   3.495   4.316 -0.1704  0.3381  0.4870
  538MOL0     C70924   0.531   3.618   4.279 -0.3273 -0.1805 -0.0895
  538MOL0     C70925   0.458   3.679   4.410  0.4633  0.3983 -0.1669
  538MOL0     C70926   0.394   3.811   4.375  0.0610 -0.1192  0.1041
  538MOL0     C70927   0.297   3.853   4.487  0.3465  0.2199 -0.0567
  538MOL0    Cl70928   0.197   3.988   4.429  0.0303  0.0314  0.0332
  538MOL0     C70929   1.147   3.062   4.041  0.1546 -0.2691  0.7055
  538MOL0     C70930   1.250   3.036   3.953  0.2466 -0.1593  0.7143
  538MOL0     O70931   1.301   2.878   3.702 -0.0742 -0.7252 -0.4192
  538MOL0     C70932   1.524   2.782   3.571 -0.3300 -0.0348 -0.3620
  538MOL0     C70933   1.644   2.751   3.505  0.1702  0.1976  0.1415
  538MOL0     N70934   2.449   3.126   3.322 -0.1755 -0.2413 -0.5111
  538MOL0     N70935   2.561   3.180   3.318 -1.1632 -0.5701  0.4882
  538MOL0     C70936   3.879   3.237   2.934  0.0260  0.3550 -0.6042
  538MOL0     C70937   4.004   3.179   2.935  0.0572  0.1475 -0.5474
  538MOL0     C70938   4.392   2.982   2.901 -0.5305  0.8801 -0.3681
  538MOL0     C70939   4.406   2.857   2.970  1.1761 -0.4378  0.6873
  538MOL0     C70940   4.532   2.802   3.008  0.7500 -0.4362 -0.4117
  538MOL0     C70941   4.647   2.873   2.972  0.1400 -0.4151 -0.0047
  538MOL0     O70942   4.771   2.823   3.005  0.4494 -0.4547  0.0645
  538MOL0     C70943   4.804   2.839   3.146  0.3331  0.2067 -0.9294
  538MOL0     C70944   4.934   2.766   3.171  0.7010  0.5179 -0.2567
  538MOL0     C70945   5.039   2.815   3.074 -0.6063  0.7255 -0.5984
  538MOL0     C70946   5.170   2.744   3.094  0.4003  0.6404  0.2702
  538MOL0     C70947   5.228   2.750   3.232 -0.0615  0.0416  0.0704
  538MOL0     C70948   5.286   2.750   3.344 -0.1371  0.1839 -0.2671
  538MOL0     C70949   4.636   2.982   2.886  0.6844 -0.4547 -0.8774
  538MOL0     C70950   4.510   3.040   2.858 -0.2631 -0.2268 -0.1739
  538MOL0     H70951   3.931   2.853   2.865  1.2605 -0.3170  1.4657
  538MOL0     H70952   3.711   2.954   2.860 -0.5001  0.2410 -0.7817
  538MOL0     H70953   3.553   3.187   3.089  2.8235 -3.3227  0.4286
  538MOL0     H70954   3.539   3.066   2.966 -0.6657 -0.1975 -0.3009
  538MOL0     H70955   3.399   3.226   2.825 -1.0022 -3.5473  0.5167
  538MOL0     H70956   3.397   3.327   2.974 -2.9794 -1.8017  3.7967
  538MOL0     H70957   3.309   3.168   3.103  2.6132 -0.8551 -0.0464
  538MOL0     H70958   3.289   3.051   2.969  2.4982 -0.2071 -0.3191
  538MOL0     H70959   3.158   3.317   3.006  1.7074  1.7726 -1.8276
  538MOL0     H70960   3.161   3.220   2.854  1.0718  0.2445 -0.3568
  538MOL0     H70961   3.063   3.024   2.996 -0.0118  0.4650  0.6440
  538MOL0     H70962   2.959   3.153   2.933 -2.5036  0.3171  3.1959
  538MOL0     H70963   2.970   3.264   3.147 -0.7151  0.1094 -0.9098
  538MOL0     H70964   3.071   3.128   3.214 -1.2452 -0.3862  1.0729
  538MOL0     H70965   2.803   3.106   3.091 -0.2716  0.5924 -0.5738
  538MOL0     H70966   2.888   2.966   3.157  0.3348  1.2579 -0.8309
  538MOL0     H70967   2.811   3.201   3.338  0.6250 -0.4700  1.4196
  538MOL0     H70968   2.837   3.034   3.391  1.6949  0.1781 -0.5615
  538MOL0     H70969   2.623   2.851   3.309 -1.7561 -1.2942  0.7445
  538MOL0     H70970   2.372   2.818   3.411 -3.9371 -1.5342  0.7001
  538MOL0     H70971   2.353   2.826   3.229 -0.1986  1.6887 -1.0024
  538MOL0     H70972   2.165   2.984   3.266  0.3740 -0.0947  0.0366
  538MOL0     H70973   2.209   2.995   3.436  2.7339  1.5669 -0.8533
  538MOL0     H70974   2.090   2.770   3.279 -0.3590 -0.3384  0.4039
  538MOL0     H70975   2.144   2.739   3.452  2.4251 -1.1233 -1.2902
  538MOL0     H70976   1.958   2.969   3.354  5.4454  1.3944 -1.3749
  538MOL0     H70977   2.002   2.917   3.521  1.8696  1.0519 -1.2706
  538MOL0     H70978   1.792   3.055   3.496 -0.5250  1.8250  0.8910
  538MOL0     H70979   1.581   3.120   3.612 -1.9145  0.6773 -0.7202
  538MOL0     H70980   1.210   3.289   3.732 -0.2747  0.4780 -0.3214
  538MOL0     H70981   1.025   3.344   3.889 -1.2551 -0.6013  3.3749
  538MOL0     H70982   0.847   3.325   4.011 -0.4843  0.0410 -0.5282
  538MOL0     H70983   0.964   3.407   4.112  0.8608 -0.7092  2.5041
  538MOL0     H70984   0.862   3.356   4.308  3.7670 -0.9633 -2.2904
  538MOL0     H70985   0.733   3.255   4.233  2.8941 -1.6076  1.0201
  538MOL0     H70986   0.662   3.452   4.102  1.5913 -1.0384 -0.4031
  538MOL0     H70987   0.786   3.543   4.200  0.8689 -0.8789  0.5487
  538MOL0     H70988   0.551   3.409   4.335  0.3681 -1.3693 -4.0818
  538MOL0     H70989   0.673   3.523   4.405  0.7010 -1.2469  0.4827
  538MOL0     H70990   0.463   3.602   4.196  0.4285  0.5810 -0.8819
  538MOL0     H70991   0.596   3.699   4.242  0.8131 -0.6078  0.8857
  538MOL0     H70992   0.531   3.691   4.490  1.0512  4.5975 -1.1297
  538MOL0     H70993   0.373   3.617   4.439 -1.2552  1.5313 -2.4522
  538MOL0     H70994   0.466   3.891   4.356 -0.1708  0.6446  2.1306
  538MOL0     H70995   0.345   3.790   4.280 -1.9309 -0.1117  1.0593
  538MOL0     H70996   0.350   3.875   4.580 -1.5891  2.1054  0.6786
  538MOL0     H70997   0.232   3.767   4.507  0.8449 -0.1387  0.0266
  538MOL0     H70998   1.130   2.999   4.128  2.0867 -3.7779 -1.2467
  538MOL0     H70999   1.316   2.957   3.989  1.3824  0.6020  0.3800
  538MOL0     H71000   1.468   2.693   3.594 -0.0550 -0.9724 -3.0523
  538MOL0     H71001   1.657   2.647   3.476 -2.0074 -0.1533  0.2025
  538MOL0     H71002   3.861   3.340   2.964 -2.6496  0.2211 -1.4963
  538MOL0     H71003   4.090   3.240   2.960  2.2291 -3.8909  3.1365
  538MOL0     H71004   4.316   2.804   3.000  0.1907  0.5539 -0.4512
  538MOL0     H71005   4.533   2.713   3.070  1.2525 -1.2080 -1.4973
  538MOL0     H71006   4.721   2.803   3.208  0.4898  1.7690  0.2460
  538MOL0     H71007   4.812   2.945   3.171 -2.9214  0.1097  1.1452
  538MOL0     H71008   4.974   2.784   3.272  1.0875  2.2848 -0.6942
  538MOL0     H71009   4.917   2.659   3.154  2.6268 -0.2005  1.7717
  538MOL0     H71010   5.055   2.923   3.081 -0.3844  0.7036 -0.7443
  538MOL0     H71011   5.003   2.784   2.975 -0.8397 -0.8616 -0.0454
  538MOL0     H71012   5.152   2.642   3.060 -1.2499  0.5514  1.3036
  538MOL0     H71013   5.249   2.789   3.033  3.0222 -1.4193  1.8919
  538MOL0     H71014   5.340   2.754   3.436  0.0643  1.8491 -0.4218
  538MOL0     H71015   4.728   3.033   2.857 -0.5193  2.0812 -0.5343
  538MOL0     H71016   4.501   3.135   2.806  2.2282  0.1624  0.0068
  539MOL0     O71017   2.814   8.201   1.526  0.0779  0.1453  0.1542
  539MOL0     C71018   2.885   8.299   1.539 -0.0689 -0.5432  0.1587
  539MOL0     O71019   2.878   8.415   1.463  0.9922 -0.0712 -0.2823
  539MOL0     C71020   2.796   8.410   1.351 -0.3571 -1.6092  0.4984
  539MOL0     C71021   2.844   8.463   1.230 -0.1326  0.2932  0.0568
  539MOL0     C71022   2.763   8.464   1.117 -0.8867 -0.1101  0.6000
  539MOL0     C71023   2.630   8.429   1.123 -0.4071 -0.0560  0.4756
  539MOL0     O71024   2.558   8.432   1.004  0.1659  0.0092  0.6750
  539MOL0     C71025   2.416   8.473   1.008 -0.1549 -0.4404  0.1291
  539MOL0     C71026   2.316   8.350   1.012 -0.0050  0.2034  0.1614
  539MOL0     C71027   2.304   8.274   0.877 -0.4151  0.7862 -0.2498
  539MOL0     C71028   2.253   8.351   0.763  0.9668  0.2563  0.0122
  539MOL0     C71029   2.116   8.406   0.781 -0.6144 -0.4850 -0.3965
  539MOL0     C71030   2.067   8.501   0.668  0.5376 -1.0046  0.5509
  539MOL0     C71031   2.053   8.429   0.538  0.2222 -0.8711  0.3809
  539MOL0     C71032   2.018   8.510   0.414 -0.6785 -0.3632 -0.2239
  539MOL0     N71033   1.887   8.573   0.435  0.3034 -0.5671  0.7363
  539MOL0     C71034   1.849   8.680   0.506  0.8415  0.2607 -0.0424
  539MOL0     C71035   1.717   8.678   0.514 -0.4702 -0.0473 -0.4175
  539MOL0     C71036   1.642   8.784   0.589  0.3482  0.0687 -0.2584
  539MOL0     C71037   1.482   8.780   0.573  0.2490  0.4668  0.0456
  539MOL0     C71038   1.402   8.870   0.675  0.2591 -0.9682  1.1280
  539MOL0     C71039   1.249   8.858   0.667  0.6156  0.2458 -0.1024
  539MOL0     O71040   1.190   8.918   0.777  0.0887  0.2934 -0.5611
  539MOL0     C71041   1.054   8.897   0.794 -0.2675 -0.2649  0.4960
  539MOL0     C71042   0.980   8.799   0.722 -0.3712 -0.3439 -0.1968
  539MOL0     C71043   0.850   8.776   0.752 -0.3904 -0.6302  0.5947
  539MOL0     C71044   0.779   8.858   0.847 -0.0785  0.3904  0.7191
  539MOL0     C71045   0.641   8.838   0.874  0.6898  0.4754  0.4514
  539MOL0     O71046   0.580   8.920   0.964 -0.1583  0.1187  0.7960
  539MOL0     C71047   0.449   8.916   0.992 -0.0189 -0.3708 -0.0395
  539MOL0     C71048   0.415   8.973   1.111 -0.1110  0.0044 -0.3468
  539MOL0     C71049   0.281   8.975   1.149 -0.2769  0.4702  0.3684
  539MOL0     C71050   0.179   8.909   1.072 -0.6208 -0.4363 -0.8084
  539MOL0     O71051   0.053   8.893   1.125 -0.8423  0.6227 -0.2656
  539MOL0     C71052   0.041   8.877   1.266  0.3901  0.5426 -0.0593
  539MOL0     C71053  -0.097   8.810   1.290 -0.3535 -0.5223 -0.2377
  539MOL0     C71054  -0.218   8.903   1.264 -0.9375  0.6524  0.0025
  539MOL0     C71055  -0.349   8.825   1.293  0.4176 -0.1362  0.1442
  539MOL0     C71056  -0.465   8.922   1.274 -0.1078  0.5356  0.3560
  539MOL0     C71057  -0.607   8.861   1.256 -0.1751  0.4574  0.0375
  539MOL0     C71058  -0.611   8.798   1.112 -0.0566 -0.7522  0.4066
  539MOL0     C71059  -0.755   8.762   1.086 -0.5229 -0.1178 -0.5076
  539MOL0    Cl71060  -0.868   8.897   1.083  0.1056  0.2623 -0.0324
  539MOL0     C71061   0.210   8.879   0.941  0.1836 -0.0269  0.6969
  539MOL0     C71062   0.350   8.871   0.898  0.1585 -0.0351  0.4862
  539MOL0     O71063   0.591   8.734   0.819 -0.8315  0.0543 -0.0228
  539MOL0     C71064   0.849   8.961   0.915 -0.5153  1.0670  0.3663
  539MOL0     C71065   0.985   8.975   0.892 -0.6121 -0.5317 -0.4221
  539MOL0     N71066   1.673   8.578   0.438 -0.0149  0.4437  0.2305
  539MOL0     N71067   1.773   8.514   0.389 -0.2975  0.5334  0.2537
  539MOL0     C71068   2.581   8.401   1.247  0.2797  0.2069  0.8142
  539MOL0     C71069   2.660   8.380   1.357  1.5679 -1.0390 -0.1232
  539MOL0     C71070   2.989   8.289   1.646  0.3317 -0.9291 -0.1874
  539MOL0     C71071   3.033   8.167   1.691  0.0225  0.6361 -0.3001
  539MOL0     C71072   3.142   8.157   1.785 -0.3537  0.4811 -0.4056
  539MOL0     C71073   3.203   8.278   1.818 -0.3806  0.1210 -0.3967
  539MOL0     O71074   3.315   8.287   1.896  0.1518  0.4002 -0.1434
  539MOL0     C71075   3.410   8.181   1.878  0.0347 -0.1876  0.3242
  539MOL0     C71076   3.519   8.167   1.983  0.6394 -0.0356  0.4757
  539MOL0     C71077   3.465   8.182   2.126  0.9856 -0.4259 -0.2776
  539MOL0     C71078   3.364   8.066   2.157  0.1386  0.3838  0.3370
  539MOL0     C71079   3.431   7.931   2.144  0.3143  0.2611 -0.7770
  539MOL0     C71080   3.467   7.823   2.102  0.2089  0.3747 -0.0566
  539MOL0     C71081   3.155   8.400   1.784  0.5267  0.1696  0.1121
  539MOL0     C71082   3.048   8.407   1.688 -0.5215  0.4310 -0.7181
  539MOL0     H71083   2.946   8.500   1.228  0.2501 -0.7660 -1.1543
  539MOL0     H71084   2.810   8.483   1.021  1.2954 -1.0987  1.4024
  539MOL0     H71085   2.392   8.539   0.923  2.8650 -0.7273 -1.0450
  539MOL0     H71086   2.398   8.535   1.097  1.1756  0.0787  0.0522
  539MOL0     H71087   2.216   8.385   1.041  0.2031  1.3442 -0.4094
  539MOL0     H71088   2.349   8.287   1.094 -1.4781 -0.1504  0.5156
  539MOL0     H71089   2.235   8.189   0.885 -0.4498  0.5695 -2.2051
  539MOL0     H71090   2.405   8.233   0.864 -0.4057  0.3292  1.1075
  539MOL0     H71091   2.320   8.437   0.753 -0.9073  1.6628 -1.4093
  539MOL0     H71092   2.268   8.302   0.666  1.2093  1.0758 -0.3756
  539MOL0     H71093   2.108   8.458   0.877 -0.8221 -1.8478  0.3411
  539MOL0     H71094   2.051   8.318   0.781  2.0223 -2.5365 -0.1093
  539MOL0     H71095   2.128   8.592   0.667 -1.2655  0.2825  1.6854
  539MOL0     H71096   1.963   8.524   0.692  0.3740  0.1482 -1.0993
  539MOL0     H71097   2.151   8.389   0.508  1.4007  0.3883  2.3153
  539MOL0     H71098   1.979   8.349   0.551  1.2484 -1.8222  0.5072
  539MOL0     H71099   2.008   8.445   0.327  0.7694 -0.7431 -0.1300
  539MOL0     H71100   2.101   8.578   0.389 -0.3031 -1.0221 -0.7805
  539MOL0     H71101   1.923   8.748   0.549  1.5685  0.7199 -1.9172
  539MOL0     H71102   1.672   8.884   0.559  0.9750 -0.1036 -0.2135
  539MOL0     H71103   1.660   8.757   0.694 -2.9730 -1.3403  0.0705
  539MOL0     H71104   1.433   8.681   0.575 -0.1127  0.5678 -1.7712
  539MOL0     H71105   1.457   8.812   0.471 -4.1853  0.3766  0.8691
  539MOL0     H71106   1.439   8.836   0.772  1.5282 -0.9777  0.6602
  539MOL0     H71107   1.428   8.974   0.654  2.2640 -2.1541 -3.8984
  539MOL0     H71108   1.234   8.750   0.668  2.7366 -0.0948  0.9779
  539MOL0     H71109   1.212   8.903   0.574  0.9128  1.1765  0.2224
  539MOL0     H71110   1.034   8.742   0.648 -1.0592 -1.2811  0.0118
  539MOL0     H71111   0.795   8.693   0.708  0.5001 -1.3012  0.6973
  539MOL0     H71112   0.483   9.014   1.185 -0.0619 -0.3242 -0.2074
  539MOL0     H71113   0.256   9.030   1.239 -1.5451 -0.5680  0.6846
  539MOL0     H71114   0.030   8.975   1.314 -3.3383  0.7236 -0.9840
  539MOL0     H71115   0.122   8.819   1.312  0.4664 -0.0579 -0.9324
  539MOL0     H71116  -0.098   8.782   1.396  0.1424  0.0437 -0.0832
  539MOL0     H71117  -0.110   8.721   1.228  0.8398  0.1493 -1.5027
  539MOL0     H71118  -0.216   8.940   1.161  1.3873  1.2899  0.2363
  539MOL0     H71119  -0.223   8.993   1.327 -0.7184  0.7477 -0.1162
  539MOL0     H71120  -0.350   8.735   1.230  0.8547 -0.5140  0.6664
  539MOL0     H71121  -0.358   8.785   1.395  0.5792 -1.6950 -0.4154
  539MOL0     H71122  -0.441   8.964   1.176  0.9999 -0.6982  0.0705
  539MOL0     H71123  -0.468   9.005   1.345  0.6563  1.0074 -0.1469
  539MOL0     H71124  -0.684   8.938   1.264 -2.3852 -1.6049 -0.0836
  539MOL0     H71125  -0.627   8.784   1.331  0.2262  2.4977  2.3555
  539MOL0     H71126  -0.583   8.868   1.033 -0.7854 -1.9847 -0.9941
  539MOL0     H71127  -0.552   8.706   1.105  2.5726  0.9335 -0.6124
  539MOL0     H71128  -0.789   8.683   1.153 -0.3508  1.0001  0.9457
  539MOL0     H71129  -0.754   8.725   0.983  4.0487  0.4436 -0.8993
  539MOL0     H71130   0.123   8.846   0.885  0.8239  2.1857 -1.8015
  539MOL0     H71131   0.383   8.840   0.799  0.4808  1.7116 -0.0020
  539MOL0     H71132   0.790   9.028   0.976 -1.8278 -0.7182  1.1548
  539MOL0     H71133   1.052   9.045   0.941  0.1326 -2.1920  1.0767
  539MOL0     H71134   2.474   8.382   1.242  0.6372 -1.7241 -1.7440
  539MOL0     H71135   2.603   8.351   1.445  2.0502  0.8709  0.8794
  539MOL0     H71136   2.991   8.077   1.648 -0.7993  1.9833 -2.5525
  539MOL0     H71137   3.170   8.060   1.824 -1.4678  1.0404  1.9496
  539MOL0     H71138   3.465   8.182   1.783  0.2979 -1.5167  0.4480
  539MOL0     H71139   3.356   8.086   1.878 -1.3256  0.5268 -1.5586
  539MOL0     H71140   3.568   8.069   1.976  2.3792  0.8631 -0.4359
  539MOL0     H71141   3.597   8.240   1.963  1.1156 -0.5443  0.4701
  539MOL0     H71142   3.424   8.284   2.129  2.0801  0.1035 -1.8574
  539MOL0     H71143   3.547   8.171   2.196 -0.9251  1.4903  2.4773
  539MOL0     H71144   3.323   8.075   2.258  0.9732 -1.2669  0.8637
  539MOL0     H71145   3.287   8.062   2.080  1.7061  0.6997 -1.2962
  539MOL0     H71146   3.488   7.726   2.061  1.4850  0.7605 -0.3571
  539MOL0     H71147   3.200   8.492   1.822  4.1437 -1.5412  0.4570
  539MOL0     H71148   3.012   8.504   1.653 -2.5300 -0.5046 -1.4092
  540MOL0     O71149   7.460   8.111   9.001  0.1378  0.8235  0.1186
  540MOL0     C71150   7.497   8.121   9.118 -0.5410 -0.7405  0.4432
  540MOL0     O71151   7.415   8.162   9.225 -0.6604 -0.3389  0.1826
  540MOL0     C71152   7.281   8.199   9.217  0.5956  0.4017  0.2292
  540MOL0     C71153   7.209   8.197   9.101  0.2230 -0.8317  0.3243
  540MOL0     C71154   7.072   8.221   9.097 -0.0526 -0.1150  0.5879
  540MOL0     C71155   7.000   8.262   9.210 -0.1583  0.1779 -0.0734
  540MOL0     O71156   6.868   8.310   9.193  0.0315 -0.7303 -0.0465
  540MOL0     C71157   6.837   8.422   9.270  0.1228  0.1574  0.3704
  540MOL0     C71158   6.721   8.506   9.231 -0.3269  0.6060  0.5235
  540MOL0     C71159   6.585   8.429   9.215 -0.1506  0.2109 -0.0474
  540MOL0     C71160   6.471   8.524   9.177  0.2394 -0.3340 -0.3145
  540MOL0     C71161   6.345   8.441   9.153 -0.5183  0.1178  0.2290
  540MOL0     C71162   6.222   8.498   9.223 -0.3178 -0.1872 -0.1888
  540MOL0     C71163   6.086   8.435   9.203 -0.3307  0.2890  0.1320
  540MOL0     C71164   5.979   8.488   9.307  0.2534  0.3217 -0.3170
  540MOL0     N71165   5.921   8.608   9.243  0.5886  0.3205  0.2031
  540MOL0     C71166   5.782   8.632   9.245  0.7763 -0.3657 -0.2565
  540MOL0     C71167   5.767   8.763   9.208 -0.1564  0.4429  0.1901
  540MOL0     C71168   5.634   8.834   9.194 -0.1745 -0.6194 -0.0797
  540MOL0     C71169   5.625   8.918   9.064 -0.4490 -0.1747  0.0689
  540MOL0     C71170   5.495   9.003   9.051 -0.4299  0.2894 -0.0613
  540MOL0     C71171   5.503   9.084   8.926 -0.1749 -0.5833  0.3669
  540MOL0     O71172   5.472   9.006   8.811 -0.1750 -0.1697  0.3072
  540MOL0     C71173   5.341   8.971   8.781  0.7825  0.3504 -0.4864
  540MOL0     C71174   5.313   8.874   8.689 -0.2019 -0.0660  0.1204
  540MOL0     C71175   5.182   8.858   8.637 -0.0521 -0.5443 -0.5121
  540MOL0     C71176   5.073   8.925   8.686 -0.5668  0.2510  0.0250
  540MOL0     C71177   4.939   8.904   8.627 -0.4350  0.6063  0.3692
  540MOL0     O71178   4.839   8.983   8.661 -0.0060 -0.3556  0.4681
  540MOL0     C71179   4.716   8.968   8.600  0.3173  0.8758  0.1970
  540MOL0     C71180   4.604   8.952   8.682 -0.3896  0.3939 -0.0713
  540MOL0     C71181   4.474   8.957   8.633 -0.1425 -0.1530 -0.2364
  540MOL0     C71182   4.447   8.952   8.498 -0.7779 -0.3600 -0.4738
  540MOL0     O71183   4.318   8.967   8.461 -0.0546 -0.0251 -0.1994
  540MOL0     C71184   4.264   8.886   8.349  0.0481 -0.7044 -0.5184
  540MOL0     C71185   4.134   8.948   8.300 -0.6134  0.1344  0.1084
  540MOL0     C71186   4.082   8.878   8.175 -0.4049 -0.3893  0.4160
  540MOL0     C71187   3.944   8.927   8.144  0.1327 -0.2527 -0.9367
  540MOL0     C71188   3.908   8.859   8.009  0.4866 -0.0252 -0.6283
  540MOL0     C71189   3.772   8.908   7.957 -0.0123 -0.8224  0.3058
  540MOL0     C71190   3.746   8.835   7.830 -0.1317 -0.0644  0.6456
  540MOL0     C71191   3.642   8.906   7.737  0.4168 -0.4065  0.8497
  540MOL0    Cl71192   3.620   8.831   7.584  0.2899  0.0115 -0.3625
  540MOL0     C71193   4.559   8.954   8.411 -0.7280  0.3433 -0.0895
  540MOL0     C71194   4.684   8.969   8.463 -0.4583 -0.4829 -0.2220
  540MOL0     O71195   4.926   8.812   8.548 -0.5729 -0.4160  0.6150
  540MOL0     C71196   5.096   9.013   8.790 -0.3563 -0.1423 -0.1442
  540MOL0     C71197   5.224   9.033   8.835 -0.5465  0.2929 -0.4366
  540MOL0     N71198   5.894   8.807   9.180  1.1410 -0.5375  0.3105
  540MOL0     N71199   5.985   8.716   9.196  0.8156  0.4336  0.4634
  540MOL0     C71200   7.075   8.270   9.331  0.4826  0.0178 -0.8139
  540MOL0     C71201   7.210   8.243   9.339 -0.0446  0.5669 -0.0191
  540MOL0     C71202   7.633   8.085   9.156  0.2562 -0.2545 -0.0117
  540MOL0     C71203   7.728   8.027   9.071  0.7202  0.3213 -0.5095
  540MOL0     C71204   7.847   7.986   9.123 -0.5069  0.1448  0.7941
  540MOL0     C71205   7.879   8.021   9.254 -0.5631 -0.6527  0.3499
  540MOL0     O71206   8.005   8.005   9.305  0.4595 -0.0680 -0.1733
  540MOL0     C71207   8.097   7.915   9.235  1.2905 -0.1280  0.2041
  540MOL0     C71208   8.050   7.765   9.215 -0.3030 -0.9960 -0.4841
  540MOL0     C71209   8.008   7.698   9.348 -0.3233 -0.8028  0.2294
  540MOL0     C71210   8.123   7.710   9.456 -0.6705  0.0037 -0.0626
  540MOL0     C71211   8.113   7.624   9.574 -0.0348 -0.5319 -0.2716
  540MOL0     C71212   8.103   7.535   9.665  0.4929 -0.0496  0.3993
  540MOL0     C71213   7.793   8.073   9.341  0.3973  0.3158 -0.1159
  540MOL0     C71214   7.668   8.096   9.288 -0.3193 -0.3842  0.5563
  540MOL0     H71215   7.250   8.177   9.002  0.1294 -2.8889  0.6634
  540MOL0     H71216   7.016   8.225   9.004  0.6848 -1.4252  0.0594
  540MOL0     H71217   6.928   8.481   9.278 -0.1683  0.5125  1.3369
  540MOL0     H71218   6.815   8.379   9.369 -0.5917  1.5391  0.8295
  540MOL0     H71219   6.737   8.539   9.128 -1.8377  0.7320  0.3036
  540MOL0     H71220   6.715   8.593   9.297  0.6362  1.8903 -1.0110
  540MOL0     H71221   6.564   8.381   9.311  0.7428 -0.6123 -0.2446
  540MOL0     H71222   6.596   8.347   9.143 -2.3687 -0.8566  0.7402
  540MOL0     H71223   6.448   8.601   9.251 -0.4688  0.5837 -1.4468
  540MOL0     H71224   6.501   8.586   9.092  0.0348 -0.9503 -0.8398
  540MOL0     H71225   6.352   8.338   9.190  0.5162  0.8638  2.2807
  540MOL0     H71226   6.333   8.446   9.045 -0.7917 -0.4909  0.2264
  540MOL0     H71227   6.218   8.606   9.208  0.9604 -0.1065 -0.0239
  540MOL0     H71228   6.249   8.485   9.329 -0.7856 -0.8500 -0.1476
  540MOL0     H71229   6.036   8.438   9.106 -2.0231  3.0122  0.9658
  540MOL0     H71230   6.090   8.326   9.216  0.4843 -0.1677 -3.0830
  540MOL0     H71231   6.035   8.511   9.398  2.0219 -3.6540 -0.1880
  540MOL0     H71232   5.897   8.419   9.330 -1.3130  2.0147 -0.5437
  540MOL0     H71233   5.706   8.570   9.291  1.4251  1.6917  4.1586
  540MOL0     H71234   5.614   8.903   9.276 -3.9484 -2.2574  0.6166
  540MOL0     H71235   5.551   8.762   9.191 -0.8351  0.1045  0.3761
  540MOL0     H71236   5.631   8.851   8.978 -2.0809  0.0911 -0.2863
  540MOL0     H71237   5.715   8.980   9.070  0.3552 -0.8677 -3.1353
  540MOL0     H71238   5.410   8.933   9.048  0.7266 -1.1781  0.3540
  540MOL0     H71239   5.494   9.064   9.141  3.3918  0.0280  0.3001
  540MOL0     H71240   5.607   9.107   8.899 -0.0725  1.6521  2.3265
  540MOL0     H71241   5.442   9.175   8.926 -0.7014 -0.9198  1.9043
  540MOL0     H71242   5.398   8.819   8.651  1.7375  2.6228  0.3337
  540MOL0     H71243   5.170   8.799   8.547  1.1995 -2.1312  0.2945
  540MOL0     H71244   4.619   8.958   8.790  0.5956 -0.8630 -0.1089
  540MOL0     H71245   4.394   8.944   8.705  0.3124 -2.4144 -0.0620
  540MOL0     H71246   4.254   8.782   8.382 -3.4698  0.1771  1.7903
  540MOL0     H71247   4.331   8.892   8.262  1.9404 -0.1221  0.9008
  540MOL0     H71248   4.150   9.053   8.275 -0.5934 -0.1452 -1.1032
  540MOL0     H71249   4.060   8.951   8.380  0.5803  0.0469  1.2485
  540MOL0     H71250   4.083   8.769   8.184  2.4808 -0.5783 -0.8388
  540MOL0     H71251   4.150   8.907   8.094  0.2722  4.9836  2.4682
  540MOL0     H71252   3.866   8.921   8.221  2.4686  0.6437  1.6244
  540MOL0     H71253   3.954   9.033   8.116  0.7170 -0.3818 -1.2208
  540MOL0     H71254   3.919   8.750   8.018  5.4458  0.3174  0.4426
  540MOL0     H71255   3.985   8.895   7.940 -1.5196  1.4242 -2.2578
  540MOL0     H71256   3.766   9.016   7.943 -1.0534 -0.9312 -0.2013
  540MOL0     H71257   3.688   8.888   8.025  0.5137  1.3689  1.6879
  540MOL0     H71258   3.837   8.839   7.769 -0.2862 -3.9175 -0.1276
  540MOL0     H71259   3.729   8.728   7.848 -2.5081  0.2571  0.6884
  540MOL0     H71260   3.675   9.009   7.725  1.3329 -0.6656  1.0810
  540MOL0     H71261   3.540   8.907   7.775  0.0340  2.7215  0.0352
  540MOL0     H71262   4.543   8.951   8.304  2.1069  0.8165 -0.6147
  540MOL0     H71263   4.766   8.976   8.391  0.0791  0.5601  0.4721
  540MOL0     H71264   5.023   9.087   8.820 -0.5198  0.4061 -1.7835
  540MOL0     H71265   5.242   9.106   8.914  0.6915  0.1844 -0.5881
  540MOL0     H71266   7.025   8.296   9.423  0.3321 -2.9250  0.0115
  540MOL0     H71267   7.248   8.233   9.440 -0.7236  0.3825  0.2181
  540MOL0     H71268   7.718   8.005   8.965  3.8701 -0.8913 -0.6599
  540MOL0     H71269   7.918   7.946   9.051  0.3984  0.2667  1.5950
  540MOL0     H71270   8.189   7.926   9.293  2.1118 -3.4882 -0.2694
  540MOL0     H71271   8.132   7.956   9.140  0.9886 -0.7102 -0.1699
  540MOL0     H71272   7.964   7.752   9.148 -2.1979 -4.2824  2.2233
  540MOL0     H71273   8.132   7.704   9.177  0.3696 -1.8111  2.0353
  540MOL0     H71274   7.990   7.591   9.334 -0.5842 -1.0906  2.3943
  540MOL0     H71275   7.912   7.736   9.383 -0.4832 -1.1021  0.1228
  540MOL0     H71276   8.219   7.684   9.411 -0.5239 -1.6349  1.1009
  540MOL0     H71277   8.117   7.815   9.487  3.6987  0.0835  1.1694
  540MOL0     H71278   8.094   7.455   9.736  3.4015 -0.0032  0.9059
  540MOL0     H71279   7.828   8.101   9.440 -0.6490 -0.4825  0.4942
  540MOL0     H71280   7.599   8.140   9.359 -2.4111 -1.4819 -0.6674
  541MOL0     O71281   3.202   4.903   3.369  0.4600  0.8167 -0.2226
  541MOL0     C71282   3.279   4.914   3.467 -0.2439  0.2587 -0.0603
  541MOL0     O71283   3.234   4.954   3.595  0.7571 -0.5651  0.4588
  541MOL0     C71284   3.097   4.951   3.616 -0.9032  0.0593 -0.2462
  541MOL0     C71285   3.005   5.038   3.561 -0.0739  0.1797 -0.4664
  541MOL0     C71286   2.869   5.012   3.582 -0.4386 -0.0071  0.4912
  541MOL0     C71287   2.821   4.905   3.655  0.2917 -0.4894  0.2179
  541MOL0     O71288   2.694   4.873   3.676  0.2892  0.4665  0.5051
  541MOL0     C71289   2.606   4.977   3.723 -0.6323  0.7590  0.2673
  541MOL0     C71290   2.482   4.950   3.641 -0.8636  0.0929  0.4797
  541MOL0     C71291   2.366   5.048   3.656 -0.0034  0.4484 -0.7378
  541MOL0     C71292   2.340   5.067   3.803  0.0687  0.0127 -0.0124
  541MOL0     C71293   2.206   5.130   3.818  0.6115 -0.5808 -0.4156
  541MOL0     C71294   2.161   5.106   3.967  0.5100 -0.3606 -0.2672
  541MOL0     C71295   2.064   5.211   4.018  0.0588 -0.0520  0.0950
  541MOL0     C71296   1.909   5.184   3.975 -0.8192 -0.7192  0.1785
  541MOL0     N71297   1.899   5.163   3.833  0.4050  0.4957  0.0330
  541MOL0     C71298   1.911   5.273   3.743 -0.8072 -0.2197 -0.4474
  541MOL0     C71299   1.866   5.221   3.624  0.0144 -0.1785 -0.1701
  541MOL0     C71300   1.844   5.297   3.501 -0.5013  1.3469  0.2664
  541MOL0     C71301   1.971   5.354   3.448  0.7965  0.5171  0.6890
  541MOL0     C71302   2.087   5.256   3.431 -0.3477  0.1745  0.3622
  541MOL0     C71303   2.203   5.312   3.349 -0.7815 -0.0487  0.0747
  541MOL0     O71304   2.313   5.222   3.326  0.3147  0.1524 -0.2685
  541MOL0     C71305   2.442   5.262   3.292 -0.7162  0.0274 -0.7860
  541MOL0     C71306   2.543   5.179   3.318  0.5367  0.1496 -0.2042
  541MOL0     C71307   2.675   5.211   3.282  0.1874 -0.8960  0.4666
  541MOL0     C71308   2.702   5.345   3.234 -0.8211  0.2658  0.5715
  541MOL0     C71309   2.840   5.386   3.211 -0.2872 -0.2757 -0.6511
  541MOL0     O71310   2.931   5.295   3.233 -0.4961  0.2670  1.1842
  541MOL0     C71311   3.065   5.300   3.203  0.0152 -0.4252 -0.1241
  541MOL0     C71312   3.122   5.171   3.202  1.0733 -0.2723 -0.2385
  541MOL0     C71313   3.246   5.147   3.165 -0.5559  1.0265 -0.2770
  541MOL0     C71314   3.330   5.253   3.137  0.0962 -0.5761  0.0472
  541MOL0     O71315   3.463   5.236   3.107  0.5425  0.2140  0.6395
  541MOL0     C71316   3.521   5.106   3.088  0.7433  1.2900  0.9298
  541MOL0     C71317   3.654   5.129   3.018  0.1034  0.0137 -0.8425
  541MOL0     C71318   3.735   5.002   3.017 -0.0610 -0.8519 -0.0820
  541MOL0     C71319   3.869   5.023   2.945 -0.1256 -1.0126  0.3210
  541MOL0     C71320   3.963   4.906   2.945  0.2748 -0.1455 -0.3348
  541MOL0     C71321   4.098   4.935   2.869  1.2594  0.8743 -0.4575
  541MOL0     C71322   4.167   4.803   2.862 -0.0855 -0.1235 -0.5093
  541MOL0     C71323   4.309   4.817   2.815 -0.7581  0.0058  0.3741
  541MOL0    Cl71324   4.425   4.915   2.924  0.3854  0.2553 -0.2205
  541MOL0     C71325   3.277   5.387   3.132  0.5635 -0.4183 -0.0387
  541MOL0     C71326   3.142   5.405   3.165  0.1341 -0.4024 -0.4424
  541MOL0     O71327   2.856   5.503   3.171  0.5355  0.1129  0.0866
  541MOL0     C71328   2.591   5.430   3.216  0.0432 -0.0673 -0.1908
  541MOL0     C71329   2.457   5.393   3.242 -0.6460  0.3995  0.2880
  541MOL0     N71330   1.818   5.091   3.651  0.2046 -0.9320  0.8472
  541MOL0     N71331   1.828   5.056   3.770  0.2724 -0.4019 -0.3939
  541MOL0     C71332   2.918   4.821   3.723 -0.2839  0.1074 -0.3619
  541MOL0     C71333   3.054   4.836   3.696  0.4728  0.2513  0.3450
  541MOL0     C71334   3.426   4.900   3.455  1.0424  0.6313  0.1771
  541MOL0     C71335   3.511   4.983   3.528 -0.2038 -0.0969 -0.5356
  541MOL0     C71336   3.649   4.970   3.501 -0.5622  0.0674 -0.2277
  541MOL0     C71337   3.703   4.869   3.419  0.0263 -0.0115  0.0003
  541MOL0     O71338   3.835   4.851   3.387  0.0014 -0.2762 -0.0763
  541MOL0     C71339   3.916   4.957   3.423  0.4394 -0.2707  1.5842
  541MOL0     C71340   3.982   4.930   3.547  0.1322 -0.1585 -0.6318
  541MOL0     C71341   4.093   4.814   3.548  0.4353 -0.2126  0.2073
  541MOL0     C71342   4.194   4.823   3.433  0.7508 -0.7303  0.7034
  541MOL0     C71343   4.243   4.965   3.413 -0.2002  0.5052  0.2629
  541MOL0     C71344   4.278   5.084   3.421 -0.9609 -0.2019  0.6810
  541MOL0     C71345   3.613   4.808   3.340  1.0621  0.3477 -0.0097
  541MOL0     C71346   3.477   4.814   3.361  0.5460 -0.1750  0.4965
  541MOL0     H71347   3.046   5.119   3.502  0.2061  0.5658  0.2453
  541MOL0     H71348   2.800   5.084   3.539 -0.3865  0.0345  0.4751
  541MOL0     H71349   2.645   5.076   3.699 -2.4021  1.4337  0.0426
  541MOL0     H71350   2.586   4.973   3.831  0.5959 -0.8028  0.4799
  541MOL0     H71351   2.458   4.846   3.664  1.5425  0.1494  4.0838
  541MOL0     H71352   2.516   4.951   3.537 -0.8221 -1.3469  0.4597
  541MOL0     H71353   2.275   5.012   3.607 -0.3067 -0.1964  0.2658
  541MOL0     H71354   2.382   5.147   3.613  1.5688  0.1524 -0.8890
  541MOL0     H71355   2.352   4.977   3.864  1.8755  0.7064  0.7465
  541MOL0     H71356   2.411   5.134   3.852 -0.3665  0.1267  0.4699
  541MOL0     H71357   2.126   5.091   3.754 -0.9063  3.4157 -1.2829
  541MOL0     H71358   2.204   5.237   3.793  1.1479 -0.9976 -2.4322
  541MOL0     H71359   2.244   5.109   4.037  0.6720 -3.2557 -0.2086
  541MOL0     H71360   2.116   5.006   3.975 -0.0752  0.0602  2.8969
  541MOL0     H71361   2.071   5.208   4.127  0.8270 -1.1114  0.0350
  541MOL0     H71362   2.091   5.313   3.989  0.6846  0.1417  1.2755
  541MOL0     H71363   1.856   5.275   4.005 -1.2944  0.0403 -2.6354
  541MOL0     H71364   1.879   5.091   4.024  0.3811 -2.5026 -2.2718
  541MOL0     H71365   1.940   5.376   3.762 -1.2088  0.2550 -2.1948
  541MOL0     H71366   1.770   5.375   3.521 -0.0399  1.9117 -0.2019
  541MOL0     H71367   1.805   5.229   3.425 -0.0973  0.1350  1.1121
  541MOL0     H71368   2.010   5.430   3.517  2.4872 -0.5082  0.9428
  541MOL0     H71369   1.938   5.409   3.359 -0.9709 -0.1508  0.8969
  541MOL0     H71370   2.129   5.226   3.527 -2.5607 -0.0490  1.3005
  541MOL0     H71371   2.051   5.181   3.360 -1.6025  1.2955 -0.2408
  541MOL0     H71372   2.241   5.389   3.417  0.4990  0.6451 -1.3939
  541MOL0     H71373   2.165   5.345   3.252 -3.1002 -1.3042  0.4754
  541MOL0     H71374   2.529   5.077   3.355  1.0212 -0.7790 -2.4046
  541MOL0     H71375   2.747   5.135   3.312  0.0666 -0.6136  1.5413
  541MOL0     H71376   3.058   5.085   3.215 -0.3896  0.3347 -2.6923
  541MOL0     H71377   3.286   5.048   3.148 -0.5381  0.6663  1.6872
  541MOL0     H71378   3.462   5.048   3.016  1.8043  0.4680  0.6973
  541MOL0     H71379   3.519   5.054   3.184 -1.9466  1.8733  1.2714
  541MOL0     H71380   3.709   5.203   3.077  1.0289 -2.6145  1.8124
  541MOL0     H71381   3.642   5.177   2.920  1.3760  2.4044  0.1002
  541MOL0     H71382   3.683   4.920   2.967 -2.0695 -0.0414  0.6009
  541MOL0     H71383   3.758   4.966   3.118  0.8435  1.1549  0.4686
  541MOL0     H71384   3.834   5.052   2.846 -0.1146 -1.1727  0.2702
  541MOL0     H71385   3.927   5.105   2.989 -3.3354  0.8017  1.5096
  541MOL0     H71386   3.902   4.829   2.897 -3.0966  2.5861 -0.8824
  541MOL0     H71387   3.993   4.874   3.045  1.2736 -1.4427 -1.0214
  541MOL0     H71388   4.153   5.005   2.932 -0.5138 -0.0515  2.2882
  541MOL0     H71389   4.078   4.971   2.767 -2.4908 -1.3760 -0.7136
  541MOL0     H71390   4.179   4.774   2.967  2.2653 -0.9796 -0.9526
  541MOL0     H71391   4.118   4.719   2.812  2.3095 -0.2645 -2.8205
  541MOL0     H71392   4.311   4.864   2.716 -0.1284 -0.6503  0.0629
  541MOL0     H71393   4.339   4.712   2.804  1.3377  0.6849 -1.0656
  541MOL0     H71394   3.348   5.466   3.111  2.6216 -2.3023 -0.6004
  541MOL0     H71395   3.096   5.503   3.156  0.1768 -0.1931  1.2193
  541MOL0     H71396   2.614   5.533   3.191  0.8901 -0.2505 -0.1987
  541MOL0     H71397   2.377   5.461   3.216  0.5908  1.4654 -0.8901
  541MOL0     H71398   2.871   4.746   3.785  0.0909  1.5376  1.7277
  541MOL0     H71399   3.127   4.767   3.738  1.6114 -0.0845 -2.0231
  541MOL0     H71400   3.478   5.070   3.585  0.5206 -0.5743  0.6356
  541MOL0     H71401   3.717   5.023   3.565 -1.4548 -0.5617  1.2882
  541MOL0     H71402   3.859   5.050   3.430 -0.4726 -0.3953 -2.1471
  541MOL0     H71403   3.983   4.988   3.343 -0.1053  1.7165  1.8571
  541MOL0     H71404   4.042   5.017   3.576 -0.4839 -0.1572  0.7193
  541MOL0     H71405   3.916   4.905   3.631  1.7681  1.5247  1.2928
  541MOL0     H71406   4.048   4.716   3.567  0.6404 -0.0838  1.4439
  541MOL0     H71407   4.166   4.828   3.629  2.6962  1.2131 -1.9438
  541MOL0     H71408   4.278   4.759   3.462  2.0638  0.9533  0.7835
  541MOL0     H71409   4.143   4.787   3.343  0.2717 -0.2804  0.7943
  541MOL0     H71410   4.309   5.186   3.416  0.1658 -0.5266  0.6298
  541MOL0     H71411   3.636   4.732   3.267 -0.5103 -1.1402  0.9519
  541MOL0     H71412   3.407   4.752   3.305  0.9109 -3.1089  3.0161
  542MOL0     O71413   7.079   4.318   8.162 -0.4660 -0.9262  0.0717
  542MOL0     C71414   7.137   4.425   8.185 -0.2498 -0.0686  0.1750
  542MOL0     O71415   7.085   4.540   8.247 -0.0793  0.0874  0.2639
  542MOL0     C71416   6.963   4.534   8.301 -0.5229  1.0072 -0.5668
  542MOL0     C71417   6.914   4.416   8.372 -0.5988  0.3909 -0.6115
  542MOL0     C71418   6.777   4.412   8.397 -0.0244  0.0749  0.9719
  542MOL0     C71419   6.697   4.526   8.386  0.5762  0.2389  0.1539
  542MOL0     O71420   6.568   4.501   8.422 -0.5929  0.4969 -0.0409
  542MOL0     C71421   6.469   4.594   8.385  1.2929 -0.9513 -0.6537
  542MOL0     C71422   6.330   4.556   8.433 -0.4710 -0.1698  0.3425
  542MOL0     C71423   6.269   4.431   8.359  1.0089  0.3988  0.6754
  542MOL0     C71424   6.121   4.400   8.380  0.4274  0.5262  0.8560
  542MOL0     C71425   6.079   4.369   8.523 -0.4446  0.0322  0.0644
  542MOL0     C71426   5.927   4.380   8.544 -0.3908 -0.2876 -0.1803
  542MOL0     C71427   5.841   4.269   8.478  0.3339 -0.0600 -0.1029
  542MOL0     C71428   5.688   4.297   8.491  0.3997 -0.7959  0.1703
  542MOL0     N71429   5.612   4.194   8.423 -0.4010 -0.2165  0.0931
  542MOL0     C71430   5.535   4.114   8.488 -0.2596 -0.0823 -0.3814
  542MOL0     C71431   5.465   4.048   8.395  0.0881  0.9934 -0.2466
  542MOL0     C71432   5.376   3.929   8.428 -0.3776  0.3698 -0.2386
  542MOL0     C71433   5.442   3.801   8.466 -0.2718  0.1467  0.2645
  542MOL0     C71434   5.572   3.764   8.390 -0.8672 -0.2616  0.0315
  542MOL0     C71435   5.560   3.738   8.244  0.1955 -0.0433 -0.3682
  542MOL0     O71436   5.678   3.662   8.196 -0.7333  0.1539  0.4128
  542MOL0     C71437   5.804   3.719   8.182  1.2868  0.1945  0.3751
  542MOL0     C71438   5.834   3.852   8.194  0.1299 -1.0858 -0.7292
  542MOL0     C71439   5.971   3.901   8.182  0.0700  0.7420  0.1178
  542MOL0     C71440   6.075   3.804   8.148 -0.1039 -0.0166 -0.4877
  542MOL0     C71441   6.217   3.842   8.118  0.4991  0.5274 -0.1807
  542MOL0     O71442   6.235   3.966   8.061  0.4013 -0.9371  0.5542
  542MOL0     C71443   6.363   4.014   8.043  0.2511 -0.0202 -0.0772
  542MOL0     C71444   6.462   3.960   7.953  0.6514  0.5234 -0.0217
  542MOL0     C71445   6.579   4.031   7.923 -0.1162 -0.1856  0.1634
  542MOL0     C71446   6.618   4.141   8.006  0.3160 -0.3781 -0.0390
  542MOL0     O71447   6.745   4.192   7.988  0.7893 -0.2200  0.3800
  542MOL0     C71448   6.755   4.333   8.007  0.0257 -0.7730  0.5536
  542MOL0     C71449   6.660   4.402   7.903  0.6805 -0.2130  0.9794
  542MOL0     C71450   6.633   4.546   7.934 -1.3865 -0.5375 -0.7340
  542MOL0     C71451   6.540   4.597   7.831  0.2125 -0.1105  0.2398
  542MOL0     C71452   6.397   4.548   7.825 -0.3554 -0.2184  0.4033
  542MOL0     C71453   6.335   4.608   7.952 -0.9352 -1.2437  0.2148
  542MOL0     C71454   6.186   4.581   7.938  0.0954 -0.3024 -1.0045
  542MOL0     C71455   6.100   4.637   8.043 -0.7254 -0.5775  0.1916
  542MOL0    Cl71456   5.939   4.549   8.016 -0.4582 -0.5911 -0.4306
  542MOL0     C71457   6.522   4.183   8.103 -0.4021  1.1593 -0.0663
  542MOL0     C71458   6.398   4.129   8.116 -0.1939  0.7856 -0.5251
  542MOL0     O71459   6.314   3.771   8.144 -0.0374 -0.3101  0.3635
  542MOL0     C71460   6.042   3.675   8.130  0.1474 -0.1346  0.4670
  542MOL0     C71461   5.911   3.632   8.153 -0.9097  0.7083  0.3003
  542MOL0     N71462   5.502   4.094   8.272  0.7156 -0.4546 -0.0091
  542MOL0     N71463   5.595   4.178   8.292 -0.2989 -0.8138  0.0911
  542MOL0     C71464   6.746   4.654   8.334 -0.1307 -0.1326 -0.8868
  542MOL0     C71465   6.878   4.648   8.289  0.7482  0.1209  0.5339
  542MOL0     C71466   7.277   4.434   8.143 -1.6671  0.5499  1.0734
  542MOL0     C71467   7.352   4.320   8.103  0.4003  0.0427 -0.1702
  542MOL0     C71468   7.485   4.323   8.069 -0.3258 -0.6285  0.8716
  542MOL0     C71469   7.550   4.444   8.059 -0.0960 -0.5169 -0.0862
  542MOL0     O71470   7.678   4.467   8.004  0.8542  1.1298 -0.5013
  542MOL0     C71471   7.770   4.361   7.969 -0.4786  0.3157 -0.7383
  542MOL0     C71472   7.878   4.449   7.909 -0.7508  1.0660 -0.2093
  542MOL0     C71473   8.006   4.357   7.892  0.3586  0.6736  0.2824
  542MOL0     C71474   8.101   4.414   7.789 -0.4826  0.3213 -0.4418
  542MOL0     C71475   8.146   4.323   7.690 -0.2479 -0.9241 -0.1691
  542MOL0     C71476   8.188   4.239   7.606  0.1197  0.2149 -0.0674
  542MOL0     C71477   7.481   4.562   8.086 -0.6562  0.7723 -0.5411
  542MOL0     C71478   7.349   4.553   8.137  0.3236 -0.2437 -0.0959
  542MOL0     H71479   6.970   4.324   8.383 -2.1122 -0.3631  1.3900
  542MOL0     H71480   6.724   4.326   8.436 -0.6028  0.5011  1.1415
  542MOL0     H71481   6.462   4.624   8.280 -1.6329 -1.8669 -0.8014
  542MOL0     H71482   6.503   4.679   8.445 -1.0918 -0.6128  0.3403
  542MOL0     H71483   6.269   4.646   8.420 -1.1892 -0.6817  0.1466
  542MOL0     H71484   6.331   4.534   8.540  0.3537 -1.9113  0.0032
  542MOL0     H71485   6.336   4.350   8.389  2.5379  1.6961  0.9099
  542MOL0     H71486   6.279   4.449   8.252 -0.9503 -1.1026  0.1890
  542MOL0     H71487   6.070   4.490   8.343  2.3830  1.0669 -0.7212
  542MOL0     H71488   6.101   4.320   8.308 -0.0816  1.8522 -0.5306
  542MOL0     H71489   6.129   4.448   8.580 -0.6127 -0.2238  0.5685
  542MOL0     H71490   6.115   4.269   8.547 -0.9746 -0.3561 -0.7078
  542MOL0     H71491   5.886   4.474   8.506 -1.1844 -0.5775 -0.0488
  542MOL0     H71492   5.917   4.394   8.652 -0.2811  2.2153 -0.4248
  542MOL0     H71493   5.867   4.260   8.372  0.3743  0.1532 -0.1116
  542MOL0     H71494   5.873   4.174   8.522  0.2377  0.6112  1.4871
  542MOL0     H71495   5.664   4.394   8.447  0.3445 -0.7181  0.3690
  542MOL0     H71496   5.662   4.306   8.597  1.6349 -2.0202  0.6005
  542MOL0     H71497   5.532   4.113   8.597  3.4864  1.4139 -0.1189
  542MOL0     H71498   5.328   3.913   8.331  0.5751  0.3117 -0.7057
  542MOL0     H71499   5.299   3.953   8.502 -1.0965  0.9241 -1.1386
  542MOL0     H71500   5.367   3.726   8.438 -1.1636  1.3552 -0.6672
  542MOL0     H71501   5.452   3.790   8.574 -0.6291 -0.9252  0.2040
  542MOL0     H71502   5.647   3.843   8.399 -0.4801 -0.7813  1.7580
  542MOL0     H71503   5.602   3.669   8.437  0.2385  0.1147  0.1051
  542MOL0     H71504   5.538   3.834   8.194  0.7596  0.7000  0.7677
  542MOL0     H71505   5.469   3.680   8.229  0.8953 -1.4552  0.6535
  542MOL0     H71506   5.755   3.923   8.212  1.5343 -0.2160  2.8853
  542MOL0     H71507   5.988   4.008   8.187  0.9361  0.6492 -0.6738
  542MOL0     H71508   6.447   3.867   7.900  1.1971  1.4414 -1.8514
  542MOL0     H71509   6.661   3.991   7.863 -0.3941  0.5435 -0.7198
  542MOL0     H71510   6.859   4.367   8.003 -0.2386  0.4225  2.5281
  542MOL0     H71511   6.734   4.364   8.110  3.9500  0.6399  1.0864
  542MOL0     H71512   6.567   4.351   7.879  1.1097  0.1591 -1.8631
  542MOL0     H71513   6.713   4.392   7.807  1.1251 -2.8465  1.4164
  542MOL0     H71514   6.730   4.596   7.932 -0.0999 -2.9222 -0.3549
  542MOL0     H71515   6.591   4.568   8.032 -0.9874  1.1600 -0.9124
  542MOL0     H71516   6.531   4.705   7.848 -1.8080 -0.5788  2.9631
  542MOL0     H71517   6.580   4.571   7.733 -0.9055  0.1400 -0.2966
  542MOL0     H71518   6.387   4.440   7.838  1.3310 -0.5275 -0.6115
  542MOL0     H71519   6.346   4.581   7.734  0.6799 -1.5496 -0.7023
  542MOL0     H71520   6.347   4.716   7.955 -1.5075 -1.1661 -0.1313
  542MOL0     H71521   6.381   4.571   8.044 -0.9551 -1.0845  0.2886
  542MOL0     H71522   6.147   4.621   7.843 -1.2340  1.0076  0.0513
  542MOL0     H71523   6.164   4.474   7.934  4.0755 -1.5066  2.4268
  542MOL0     H71524   6.090   4.746   8.032  1.1675 -0.5964 -3.1410
  542MOL0     H71525   6.142   4.616   8.142  2.0631  1.5565 -0.4112
  542MOL0     H71526   6.527   4.278   8.155 -0.4720  1.0399  0.1562
  542MOL0     H71527   6.325   4.179   8.179 -0.9186  1.9645 -2.2514
  542MOL0     H71528   6.114   3.597   8.106  0.3239 -0.5700  2.3052
  542MOL0     H71529   5.882   3.527   8.158 -1.2319  0.8504  1.7532
  542MOL0     H71530   6.689   4.746   8.324 -1.4708 -0.7641  0.5434
  542MOL0     H71531   6.920   4.731   8.233  3.0277 -0.8876  0.6100
  542MOL0     H71532   7.304   4.223   8.114  2.0208 -0.7162  0.5212
  542MOL0     H71533   7.522   4.226   8.038 -1.9629 -0.6353 -1.2578
  542MOL0     H71534   7.722   4.289   7.902  1.1114 -0.6416 -0.8857
  542MOL0     H71535   7.804   4.305   8.056 -0.3220  1.7409  0.1549
  542MOL0     H71536   7.832   4.474   7.813 -2.3809 -0.1941  0.1920
  542MOL0     H71537   7.893   4.536   7.972  0.6999 -0.9092  2.3899
  542MOL0     H71538   7.959   4.266   7.853 -0.4385  1.5877 -0.9477
  542MOL0     H71539   8.055   4.338   7.988 -2.7333 -1.5117  1.6133
  542MOL0     H71540   8.052   4.496   7.734  1.6776  0.9447 -1.5498
  542MOL0     H71541   8.182   4.457   7.848 -1.3630  1.5138 -0.0528
  542MOL0     H71542   8.233   4.179   7.530  1.8563  2.7702 -1.2075
  542MOL0     H71543   7.533   4.657   8.082 -2.6008  1.9295  0.3364
  542MOL0     H71544   7.307   4.648   8.165 -1.1136 -0.2834 -1.9410
  543MOL0     O71545   5.588   0.190   3.385  0.2340  0.1337  0.4795
  543MOL0     C71546   5.660   0.214   3.482  0.4350  0.3736 -0.0289
  543MOL0     O71547   5.642   0.308   3.575  0.2159 -0.3077  0.4972
  543MOL0     C71548   5.527   0.374   3.579  0.0097  0.9567  0.0799
  543MOL0     C71549   5.524   0.500   3.522  1.0732 -0.6029 -0.2183
  543MOL0     C71550   5.407   0.575   3.519 -0.7617  0.4995  0.2926
  543MOL0     C71551   5.287   0.521   3.558 -0.6579  0.4853 -0.5426
  543MOL0     O71552   5.183   0.600   3.521  0.1511 -0.1161 -0.4466
  543MOL0     C71553   5.054   0.543   3.523  0.3118 -0.2840 -0.1193
  543MOL0     C71554   4.944   0.641   3.474  1.1530  0.4755 -0.5908
  543MOL0     C71555   4.801   0.598   3.512  0.0381 -0.0409 -0.2821
  543MOL0     C71556   4.696   0.707   3.468  0.4778  0.4094  0.0888
  543MOL0     C71557   4.574   0.702   3.560  0.3182 -0.2628  0.4935
  543MOL0     C71558   4.493   0.572   3.543  0.5137  0.2542  0.4958
  543MOL0     C71559   4.357   0.580   3.621 -0.5199  0.5008  0.2949
  543MOL0     C71560   4.274   0.455   3.593  0.0299  0.1960  0.4119
  543MOL0     N71561   4.140   0.469   3.661  0.4119  0.5382  0.2983
  543MOL0     C71562   4.052   0.569   3.621 -0.0738  0.4147  0.4971
  543MOL0     C71563   3.964   0.582   3.726  0.0690 -0.0191  0.0880
  543MOL0     C71564   3.841   0.658   3.746 -0.7758  0.4703  0.6627
  543MOL0     C71565   3.720   0.569   3.740 -1.2095  0.9460  0.2075
  543MOL0     C71566   3.591   0.655   3.755 -0.4615  0.6550 -0.3004
  543MOL0     C71567   3.465   0.570   3.740 -0.5885 -0.1922  0.1995
  543MOL0     O71568   3.346   0.651   3.736 -0.4131 -0.0687 -0.1585
  543MOL0     C71569   3.226   0.598   3.757  0.2748  0.7703 -0.4309
  543MOL0     C71570   3.115   0.680   3.795 -0.4531 -0.3537 -0.1454
  543MOL0     C71571   2.989   0.627   3.815  0.1590  0.4665  0.5694
  543MOL0     C71572   2.963   0.486   3.812  0.7101  0.5074 -0.3622
  543MOL0     C71573   2.817   0.444   3.833 -0.3843  0.0074 -0.4475
  543MOL0     O71574   2.713   0.533   3.846  0.4781 -0.2993  0.6980
  543MOL0     C71575   2.580   0.505   3.859  0.4220 -0.5248 -0.2681
  543MOL0     C71576   2.505   0.628   3.887 -0.2206  0.1706 -0.2380
  543MOL0     C71577   2.365   0.628   3.891 -0.0640 -0.0217 -0.1122
  543MOL0     C71578   2.300   0.501   3.878  0.5903 -0.0222 -1.3025
  543MOL0     O71579   2.170   0.475   3.888  0.1210 -0.1256 -0.2945
  543MOL0     C71580   2.076   0.584   3.873 -0.5187  0.5858  0.5717
  543MOL0     C71581   1.939   0.527   3.911 -1.1156 -0.1852 -0.0349
  543MOL0     C71582   1.831   0.640   3.921 -0.1985  0.0403  0.7529
  543MOL0     C71583   1.685   0.583   3.937 -0.2396 -0.7771  0.2890
  543MOL0     C71584   1.576   0.675   3.880  0.0134  0.4746 -0.7632
  543MOL0     C71585   1.439   0.628   3.935  1.1964 -0.1408  0.4233
  543MOL0     C71586   1.330   0.727   3.886 -0.5638  1.3519 -0.7446
  543MOL0     C71587   1.193   0.661   3.920 -0.1918 -0.1539 -0.6416
  543MOL0    Cl71588   1.066   0.770   3.861 -0.2501 -0.2826 -0.1047
  543MOL0     C71589   2.371   0.386   3.840 -0.3581 -0.2797 -0.2789
  543MOL0     C71590   2.509   0.386   3.835 -0.0677 -0.2107 -0.8589
  543MOL0     O71591   2.807   0.325   3.834  0.0472  0.2589 -0.0059
  543MOL0     C71592   3.074   0.410   3.797  0.0218 -0.0980 -0.6562
  543MOL0     C71593   3.199   0.458   3.772  0.4748 -0.2510  0.0960
  543MOL0     N71594   4.004   0.485   3.821  0.1996 -0.2465 -0.0531
  543MOL0     N71595   4.108   0.415   3.781 -0.4536 -0.8223 -0.2205
  543MOL0     C71596   5.283   0.392   3.612  0.3643  0.0413  0.0441
  543MOL0     C71597   5.406   0.321   3.618  0.1597  1.0428  0.1190
  543MOL0     C71598   5.784   0.134   3.497  0.2812  0.5494  0.1078
  543MOL0     C71599   5.801   0.018   3.416 -0.1152 -0.9964  0.3006
  543MOL0     C71600   5.914  -0.053   3.431  0.2073 -0.4197  0.2699
  543MOL0     C71601   6.017  -0.012   3.511  0.1838 -0.2643 -0.9926
  543MOL0     O71602   6.132  -0.090   3.513 -0.2768 -0.4283  0.5304
  543MOL0     C71603   6.263  -0.040   3.558  0.6008  1.4707 -0.3490
  543MOL0     C71604   6.366  -0.162   3.552  0.1199 -0.7522 -0.0849
  543MOL0     C71605   6.520  -0.134   3.560  0.1993 -0.0386 -0.0357
  543MOL0     C71606   6.579  -0.191   3.691 -1.0090  0.2842 -0.0078
  543MOL0     C71607   6.719  -0.231   3.678 -0.1197  0.6159  0.8274
  543MOL0     C71608   6.839  -0.259   3.658  0.3868 -0.1254  0.1629
  543MOL0     C71609   6.000   0.107   3.593 -0.4356  0.6962 -0.0806
  543MOL0     C71610   5.886   0.181   3.581 -0.2318  0.3830  0.2879
  543MOL0     H71611   5.614   0.534   3.471  0.2631 -1.4523 -2.2954
  543MOL0     H71612   5.417   0.666   3.460  1.4290  0.6778  0.8228
  543MOL0     H71613   5.028   0.508   3.624  0.4594 -0.8940 -0.2910
  543MOL0     H71614   5.050   0.457   3.456 -1.8112  1.0292 -1.8118
  543MOL0     H71615   4.953   0.653   3.365  1.8595 -2.0757 -0.8842
  543MOL0     H71616   4.962   0.736   3.526 -0.5127  0.5458 -0.0887
  543MOL0     H71617   4.787   0.593   3.621 -0.9292  2.1255 -0.2582
  543MOL0     H71618   4.770   0.508   3.459  0.0784 -1.1572  1.5192
  543MOL0     H71619   4.729   0.811   3.479 -2.3308  1.2334  1.7866
  543MOL0     H71620   4.677   0.697   3.361  1.0201  0.2308  0.0072
  543MOL0     H71621   4.508   0.786   3.538 -1.2731 -2.0430 -1.9924
  543MOL0     H71622   4.604   0.714   3.665 -0.8786 -1.7275  1.0313
  543MOL0     H71623   4.551   0.482   3.563  2.6945  1.5213  0.2040
  543MOL0     H71624   4.459   0.560   3.440 -1.2893 -0.8025  1.1630
  543MOL0     H71625   4.374   0.592   3.728 -0.2358  1.8253  0.1230
  543MOL0     H71626   4.306   0.672   3.589 -1.7411 -0.1510  0.3072
  543MOL0     H71627   4.333   0.376   3.640 -1.1513  0.7741  3.0448
  543MOL0     H71628   4.261   0.421   3.490  1.0358 -1.2496  0.7227
  543MOL0     H71629   4.054   0.611   3.521 -2.5186 -0.5109  0.0019
  543MOL0     H71630   3.842   0.731   3.665  1.0185 -1.2781 -0.9888
  543MOL0     H71631   3.851   0.709   3.842  0.2704  3.1462 -0.7679
  543MOL0     H71632   3.721   0.505   3.829  3.7306  1.0416  0.4904
  543MOL0     H71633   3.723   0.498   3.657  1.4649  2.3003 -0.9787
  543MOL0     H71634   3.601   0.703   3.853  0.4198  0.8823 -0.4917
  543MOL0     H71635   3.596   0.730   3.676  1.2733 -1.9215 -2.8228
  543MOL0     H71636   3.452   0.482   3.804 -5.0394  0.2373  0.2021
  543MOL0     H71637   3.479   0.537   3.636 -0.8978  2.6505 -0.8324
  543MOL0     H71638   3.129   0.787   3.808 -2.3330  0.3566 -2.9813
  543MOL0     H71639   2.914   0.701   3.840 -2.0172 -1.9468  1.6646
  543MOL0     H71640   2.553   0.718   3.924  1.5669  0.4989 -3.0666
  543MOL0     H71641   2.312   0.715   3.927  1.0904  0.0677  1.5169
  543MOL0     H71642   2.064   0.617   3.770 -1.0765 -2.2642 -0.3876
  543MOL0     H71643   2.114   0.664   3.937  1.7184  0.8422 -0.9935
  543MOL0     H71644   1.940   0.472   4.006  2.6152 -0.1285  0.0797
  543MOL0     H71645   1.913   0.459   3.829 -2.2843  0.8922 -0.5812
  543MOL0     H71646   1.836   0.707   3.835  0.0596 -0.1233  0.6365
  543MOL0     H71647   1.859   0.697   4.009 -0.4137  0.0627  0.8074
  543MOL0     H71648   1.694   0.500   3.867  0.5579  1.4053 -2.3756
  543MOL0     H71649   1.668   0.532   4.032  1.7660 -2.0345  0.0387
  543MOL0     H71650   1.575   0.672   3.771 -0.3498  1.0562 -0.7813
  543MOL0     H71651   1.590   0.782   3.901  1.7984 -0.1262  1.5237
  543MOL0     H71652   1.431   0.630   4.044  0.0867 -3.5469  0.5033
  543MOL0     H71653   1.419   0.523   3.911  0.0306 -0.0193  0.7862
  543MOL0     H71654   1.338   0.819   3.946  0.1195  0.6464  0.2773
  543MOL0     H71655   1.350   0.750   3.781  0.4630 -1.6052 -1.2888
  543MOL0     H71656   1.182   0.649   4.028  2.2499 -0.9046 -0.4053
  543MOL0     H71657   1.172   0.570   3.862 -0.1743  2.0086 -4.3373
  543MOL0     H71658   2.314   0.296   3.821  0.9947 -0.8941 -1.6480
  543MOL0     H71659   2.562   0.298   3.801  2.9463 -0.1899  3.1225
  543MOL0     H71660   3.058   0.303   3.805 -2.6328  0.2891  0.0918
  543MOL0     H71661   3.271   0.380   3.749  0.6302 -0.0667 -0.0499
  543MOL0     H71662   5.196   0.340   3.650  0.1399  0.7123  0.4788
  543MOL0     H71663   5.403   0.222   3.660 -2.2749  0.9961 -0.0192
  543MOL0     H71664   5.721  -0.025   3.356 -1.0207 -2.1447  2.2162
  543MOL0     H71665   5.933  -0.152   3.390  0.6371 -0.0812 -0.3610
  543MOL0     H71666   6.252  -0.012   3.663  0.2498 -2.7342  0.9346
  543MOL0     H71667   6.298   0.041   3.494 -0.2893  1.8847 -0.3258
  543MOL0     H71668   6.326  -0.237   3.620 -0.0852 -1.8064 -1.3422
  543MOL0     H71669   6.354  -0.202   3.451  0.9370  3.1254 -1.9370
  543MOL0     H71670   6.547  -0.028   3.557  1.4597 -0.2355  2.0901
  543MOL0     H71671   6.564  -0.181   3.472 -0.9687  2.6250 -2.1944
  543MOL0     H71672   6.558  -0.123   3.774 -0.1422  1.7424 -0.9249
  543MOL0     H71673   6.530  -0.287   3.707 -1.2107 -0.4971 -4.2270
  543MOL0     H71674   6.931  -0.299   3.621  1.3007  3.1490 -1.4950
  543MOL0     H71675   6.088   0.137   3.649  0.7492  0.1720 -1.5978
  543MOL0     H71676   5.863   0.275   3.629 -2.6124 -0.5192  1.0691
  544MOL0     O71677   9.736   2.304   5.518 -0.3224  1.0498  0.3383
  544MOL0     C71678   9.850   2.275   5.476  0.5164 -0.6587  0.3343
  544MOL0     O71679   9.885   2.284   5.346 -0.2095 -0.3576 -0.2398
  544MOL0     C71680   9.796   2.335   5.253 -0.6184  0.0046 -0.8453
  544MOL0     C71681   9.710   2.263   5.172 -0.5489 -0.3152 -0.1424
  544MOL0     C71682   9.620   2.331   5.090  0.1098  0.2609 -0.0817
  544MOL0     C71683   9.615   2.471   5.094 -0.1946  0.1932  0.3565
  544MOL0     O71684   9.509   2.531   5.033  0.1794 -0.1807 -0.4420
  544MOL0     C71685   9.544   2.621   4.929  0.6748  0.2976 -0.5826
  544MOL0     C71686   9.421   2.612   4.825  0.3095 -0.5440 -0.6778
  544MOL0     C71687   9.434   2.703   4.696 -0.5743 -0.0092  0.2913
  544MOL0     C71688   9.416   2.629   4.562 -0.1632  0.3183 -0.3812
  544MOL0     C71689   9.475   2.708   4.448 -0.3174 -0.1337 -0.0378
  544MOL0     C71690   9.365   2.802   4.384 -1.2911  0.1128 -0.2943
  544MOL0     C71691   9.299   2.738   4.260 -0.4899  0.3791 -0.3302
  544MOL0     C71692   9.186   2.640   4.287  0.3761  0.5023  0.1444
  544MOL0     N71693   9.120   2.590   4.166 -0.3871  0.9627  0.6794
  544MOL0     C71694   9.081   2.674   4.062 -0.2408 -0.3841 -0.2096
  544MOL0     C71695   9.019   2.588   3.980 -0.0502 -0.1175 -0.4465
  544MOL0     C71696   8.950   2.618   3.852  0.8724 -0.7068 -0.9666
  544MOL0     C71697   8.840   2.724   3.859 -0.1680 -0.1528  0.4027
  544MOL0     C71698   8.743   2.714   3.747  0.2801  0.3361  0.4227
  544MOL0     C71699   8.642   2.828   3.766 -0.4968  1.0078  0.2840
  544MOL0     O71700   8.526   2.798   3.687 -0.2320 -0.0586  0.6174
  544MOL0     C71701   8.433   2.888   3.661  0.3478 -0.3463  0.3162
  544MOL0     C71702   8.324   2.842   3.592 -0.2133  0.6182 -0.2199
  544MOL0     C71703   8.209   2.927   3.565 -0.6333  0.0755  0.4750
  544MOL0     C71704   8.210   3.056   3.607 -0.6843  0.0737 -0.5110
  544MOL0     C71705   8.082   3.139   3.591 -0.5461 -0.2787  0.7796
  544MOL0     O71706   7.964   3.079   3.600 -0.2066  0.4629  0.6491
  544MOL0     C71707   7.845   3.151   3.593 -0.1581  0.3155 -0.7773
  544MOL0     C71708   7.750   3.122   3.689 -0.4633 -0.4666  0.2237
  544MOL0     C71709   7.620   3.187   3.686  0.0529  0.5217  0.8335
  544MOL0     C71710   7.588   3.283   3.581 -0.1441  0.3734  0.1636
  544MOL0     O71711   7.455   3.336   3.576 -0.5616 -0.2906  0.2874
  544MOL0     C71712   7.427   3.425   3.465  0.9986  0.4750 -0.5030
  544MOL0     C71713   7.275   3.464   3.467  0.1075  0.7778  0.2718
  544MOL0     C71714   7.186   3.341   3.458 -0.9675 -0.1646 -0.1820
  544MOL0     C71715   7.042   3.394   3.461  0.7064 -0.2566 -0.2982
  544MOL0     C71716   6.972   3.374   3.596 -0.4861 -0.2871 -0.4264
  544MOL0     C71717   6.830   3.416   3.611 -0.0988  0.1922  0.4180
  544MOL0     C71718   6.777   3.394   3.754  0.5184 -0.3335 -0.4225
  544MOL0     C71719   6.623   3.419   3.759 -0.0140  0.1651 -0.5427
  544MOL0    Cl71720   6.553   3.436   3.924 -0.5434  0.2708 -0.1499
  544MOL0     C71721   7.688   3.306   3.487  0.3466  0.5881  0.0943
  544MOL0     C71722   7.815   3.245   3.493  0.8455 -0.1415  0.3629
  544MOL0     O71723   8.096   3.259   3.590 -0.1758 -0.4290  0.2769
  544MOL0     C71724   8.321   3.107   3.679  0.1322 -0.8219  0.1057
  544MOL0     C71725   8.435   3.027   3.696 -1.3191  0.0927 -0.4815
  544MOL0     N71726   9.028   2.452   4.028  0.1836  0.4147 -0.0347
  544MOL0     N71727   9.113   2.457   4.132 -0.5287 -0.5844 -0.1853
  544MOL0     C71728   9.698   2.550   5.171  0.1132  0.5298 -0.1786
  544MOL0     C71729   9.790   2.479   5.255  0.0936  0.2153  0.2031
  544MOL0     C71730   9.958   2.250   5.577  0.9855 -0.4307  0.3582
  544MOL0     C71731   9.942   2.258   5.713 -0.7088  0.1953 -0.0595
  544MOL0     C71732  10.045   2.230   5.807 -0.0033  0.8469 -0.5864
  544MOL0     C71733  10.174   2.196   5.763 -0.4600 -0.0532 -0.1902
  544MOL0     O71734  10.274   2.162   5.855  0.4982  0.4908  0.2245
  544MOL0     C71735  10.388   2.109   5.789  0.5330  0.4049  0.7029
  544MOL0     C71736  10.480   2.052   5.898 -0.3507 -1.0965  0.2076
  544MOL0     C71737  10.544   2.169   5.985  0.2565 -0.1342  0.3110
  544MOL0     C71738  10.602   2.121   6.115  0.0303 -0.0999 -0.2572
  544MOL0     C71739  10.712   2.029   6.087  0.2260 -0.0995 -0.4422
  544MOL0     C71740  10.798   1.945   6.064 -0.2305  1.1753 -0.2302
  544MOL0     C71741  10.190   2.194   5.624 -1.4065 -0.2609  0.5589
  544MOL0     C71742  10.085   2.213   5.534  0.3177 -0.5272 -0.9255
  544MOL0     H71743   9.706   2.156   5.190  2.9377 -1.1698 -3.2113
  544MOL0     H71744   9.542   2.273   5.042 -2.4418  0.2225  3.6545
  544MOL0     H71745   9.636   2.594   4.877  0.6642 -0.5047 -0.1977
  544MOL0     H71746   9.542   2.725   4.964 -3.1717  1.7483 -4.2772
  544MOL0     H71747   9.332   2.639   4.882 -0.1025 -1.0335 -1.0742
  544MOL0     H71748   9.415   2.507   4.795 -1.9812 -0.4677 -0.6740
  544MOL0     H71749   9.537   2.741   4.708 -1.7124  2.7224  2.7012
  544MOL0     H71750   9.366   2.789   4.692 -1.0616 -0.3916  0.3653
  544MOL0     H71751   9.463   2.531   4.564 -3.8889 -1.6603 -0.9110
  544MOL0     H71752   9.310   2.607   4.549  0.1054 -1.1051 -0.3117
  544MOL0     H71753   9.522   2.637   4.379  0.0046 -1.1290  1.1884
  544MOL0     H71754   9.559   2.770   4.479  1.1332 -1.9114 -0.2584
  544MOL0     H71755   9.406   2.899   4.354 -1.5071 -0.0872 -1.2874
  544MOL0     H71756   9.296   2.827   4.465 -0.6251 -2.4305  1.1899
  544MOL0     H71757   9.257   2.823   4.205  1.2172  1.8352  0.5177
  544MOL0     H71758   9.376   2.699   4.194  1.3181  2.4151  0.4590
  544MOL0     H71759   9.104   2.692   4.339 -1.7691 -2.1495 -0.3785
  544MOL0     H71760   9.226   2.555   4.342 -0.8403  0.1978  0.5850
  544MOL0     H71761   9.108   2.778   4.051  1.4843 -0.7759 -0.0477
  544MOL0     H71762   8.911   2.521   3.820 -0.4948 -1.2733  2.1093
  544MOL0     H71763   9.031   2.653   3.788 -0.3464 -0.5336 -2.4885
  544MOL0     H71764   8.895   2.818   3.857 -0.0250  0.0298  4.4423
  544MOL0     H71765   8.772   2.720   3.945 -3.2229  0.6841 -1.7963
  544MOL0     H71766   8.800   2.715   3.654  0.4338  0.8306  0.5198
  544MOL0     H71767   8.694   2.617   3.757  0.4025  0.4218  2.2393
  544MOL0     H71768   8.693   2.922   3.744  1.3323  0.4890  2.0456
  544MOL0     H71769   8.611   2.839   3.870 -0.1968  2.1922  0.2707
  544MOL0     H71770   8.339   2.747   3.541 -2.4454  0.2480 -0.3106
  544MOL0     H71771   8.130   2.870   3.517 -2.6485  0.2030  3.3623
  544MOL0     H71772   7.772   3.062   3.777 -1.6706 -1.9376 -0.4459
  544MOL0     H71773   7.535   3.155   3.746 -0.0139  0.7471  0.8606
  544MOL0     H71774   7.443   3.378   3.367  0.8325  1.6950 -1.1411
  544MOL0     H71775   7.494   3.511   3.471 -0.1033  1.2545  1.6077
  544MOL0     H71776   7.263   3.519   3.373  0.4845 -0.9616 -0.8433
  544MOL0     H71777   7.242   3.511   3.559 -0.1658 -0.1078  0.6413
  544MOL0     H71778   7.201   3.281   3.549 -0.5824  0.6307  0.2928
  544MOL0     H71779   7.201   3.289   3.363 -3.5694 -0.7642 -0.3254
  544MOL0     H71780   7.049   3.501   3.438  0.8385 -0.4931 -1.4222
  544MOL0     H71781   6.994   3.352   3.371 -0.1961 -1.6423  0.7821
  544MOL0     H71782   7.018   3.446   3.665  2.2224 -2.2078 -0.0710
  544MOL0     H71783   6.975   3.274   3.641 -1.7564 -0.0542  0.2376
  544MOL0     H71784   6.771   3.368   3.533  0.7635 -1.3775  0.6991
  544MOL0     H71785   6.828   3.524   3.591 -2.2074  0.2354  0.6882
  544MOL0     H71786   6.822   3.300   3.788  0.4401 -0.0916  0.3699
  544MOL0     H71787   6.825   3.473   3.811 -1.1586  0.6408 -0.2768
  544MOL0     H71788   6.584   3.328   3.711  0.5192  0.3431 -1.3380
  544MOL0     H71789   6.596   3.505   3.697 -2.2495 -0.8862 -1.1362
  544MOL0     H71790   7.660   3.368   3.403 -0.0074  1.4452  0.8365
  544MOL0     H71791   7.877   3.273   3.408 -0.9023  3.1603 -0.0190
  544MOL0     H71792   8.315   3.210   3.712 -3.2799 -0.6886 -0.5759
  544MOL0     H71793   8.524   3.080   3.728 -0.3073 -1.1233 -1.2020
  544MOL0     H71794   9.687   2.656   5.187 -2.4396  0.4426 -1.0218
  544MOL0     H71795   9.858   2.536   5.318 -0.9705  0.2905  1.3336
  544MOL0     H71796   9.845   2.294   5.746 -0.6996  1.8328 -1.6340
  544MOL0     H71797  10.017   2.235   5.912 -2.2592  2.4199 -1.1942
  544MOL0     H71798  10.436   2.174   5.715 -1.0317  0.2667 -0.4838
  544MOL0     H71799  10.360   2.021   5.731 -0.0662  0.6330  0.6405
  544MOL0     H71800  10.424   1.984   5.963 -2.6056  2.1342  1.8900
  544MOL0     H71801  10.566   2.002   5.852  0.7508  2.0914 -1.4662
  544MOL0     H71802  10.470   2.245   6.012  1.1144 -0.1709  3.0699
  544MOL0     H71803  10.626   2.221   5.936  1.0857  0.4057  2.1822
  544MOL0     H71804  10.641   2.209   6.168  2.8042 -0.8405 -0.8611
  544MOL0     H71805  10.529   2.075   6.181  1.4005 -0.6318  0.9549
  544MOL0     H71806  10.883   1.881   6.047 -0.0583  1.5014 -0.6090
  544MOL0     H71807  10.287   2.173   5.580 -1.9230  1.1391 -1.3666
  544MOL0     H71808  10.105   2.211   5.428  0.8953  3.0678 -1.0277
  545MOL0     O71809   8.862  10.778   4.152 -0.2078 -0.0456 -0.4070
  545MOL0     C71810   8.768  10.742   4.084  0.8912  0.4582 -0.4851
  545MOL0     O71811   8.772  10.637   4.002 -0.6387  0.5345  0.3016
  545MOL0     C71812   8.861  10.536   4.009 -0.5322 -0.0362  0.7750
  545MOL0     C71813   8.977  10.546   3.929  0.4096 -0.0445  0.5640
  545MOL0     C71814   9.068  10.440   3.923  0.3635  0.4328 -0.1821
  545MOL0     C71815   9.034  10.323   4.001 -0.6452 -0.4895 -0.7274
  545MOL0     O71816   9.119  10.211   4.007  0.4196  0.6359  0.3307
  545MOL0     C71817   9.132  10.138   3.887  1.7121 -0.0072 -0.2049
  545MOL0     C71818   9.208  10.010   3.888 -0.4451  0.6903  0.7480
  545MOL0     C71819   9.333  10.017   3.975  0.2998 -0.3319  0.0944
  545MOL0     C71820   9.429  10.114   3.928 -0.6337 -0.5562  0.3316
  545MOL0     C71821   9.520  10.162   4.041  0.1333  0.1297  0.1396
  545MOL0     C71822   9.594  10.067   4.128  0.2982  0.3429 -0.0330
  545MOL0     C71823   9.685   9.969   4.047  0.1917  0.9063 -0.2060
  545MOL0     C71824   9.808   9.916   4.130 -0.2712  0.1464  0.2798
  545MOL0     N71825   9.880  10.003   4.226 -0.4919 -0.3843 -0.5325
  545MOL0     C71826   9.936  10.124   4.202  0.2331  0.7109  0.2150
  545MOL0     C71827  10.000  10.160   4.319 -0.3686  0.6339  0.0579
  545MOL0     C71828  10.067  10.286   4.356  0.3378 -0.4954  0.0590
  545MOL0     C71829  10.219  10.289   4.369  0.8200  0.3213 -0.0208
  545MOL0     C71830  10.257  10.186   4.487  0.1627 -0.3707  1.3146
  545MOL0     C71831  10.404  10.173   4.515  0.2008  0.6405  0.3371
  545MOL0     O71832  10.414  10.064   4.610 -0.7109  0.9252 -0.9685
  545MOL0     C71833  10.537  10.020   4.642  0.1348  0.1978 -0.4118
  545MOL0     C71834  10.545   9.892   4.711 -0.2190 -0.2582 -0.1791
  545MOL0     C71835  10.667   9.835   4.736 -0.0608  0.0728 -0.4444
  545MOL0     C71836  10.784   9.909   4.712 -0.4093 -0.8874  0.8511
  545MOL0     C71837  10.926   9.860   4.741  0.0511 -0.2841  1.1296
  545MOL0     O71838  11.027   9.949   4.736 -0.2030  0.1014 -0.4327
  545MOL0     C71839  11.166   9.930   4.743  0.4201  0.3782  0.3820
  545MOL0     C71840  11.232   9.816   4.780  0.2139  0.0101 -0.4366
  545MOL0     C71841  11.369   9.809   4.785 -0.6213 -0.1129  0.8546
  545MOL0     C71842  11.448   9.926   4.749  0.4405  0.4597 -0.3050
  545MOL0     O71843  11.590   9.928   4.747 -0.1247  0.2115  0.9007
  545MOL0     C71844  11.675   9.821   4.794 -0.1000 -0.5661  0.0388
  545MOL0     C71845  11.821   9.844   4.777 -0.8641 -0.1884 -0.9894
  545MOL0     C71846  11.874   9.949   4.876  0.1713 -0.8801  0.7247
  545MOL0     C71847  12.014  10.004   4.843 -0.8486  0.5675  0.0717
  545MOL0     C71848  12.068  10.117   4.939 -0.9758  0.7015  0.0300
  545MOL0     C71849  12.215  10.089   4.975  0.4634 -0.1028 -0.2649
  545MOL0     C71850  12.280  10.221   5.033  0.2140  0.5364  0.6647
  545MOL0     C71851  12.404  10.190   5.126  0.4142  1.4107 -0.3114
  545MOL0    Cl71852  12.353  10.096   5.273 -0.2194  0.1285 -0.1228
  545MOL0     C71853  11.384  10.046   4.717 -0.0389  0.8665  0.2648
  545MOL0     C71854  11.241  10.043   4.710 -0.6700  0.3257  0.3927
  545MOL0     O71855  10.937   9.741   4.767 -0.1723  0.4681 -0.4487
  545MOL0     C71856  10.782  10.033   4.648  0.6247 -0.5277  0.8361
  545MOL0     C71857  10.653  10.088   4.610  0.1372 -0.2247  0.2054
  545MOL0     N71858   9.988  10.054   4.404  0.1260  0.3155  0.0442
  545MOL0     N71859   9.922   9.963   4.351 -0.1087  0.1620 -0.2075
  545MOL0     C71860   8.924  10.315   4.088 -0.1939 -0.6754  0.6317
  545MOL0     C71861   8.839  10.418   4.093 -0.0400  0.7709 -0.0324
  545MOL0     C71862   8.646  10.820   4.097  0.0754  0.2137 -0.2528
  545MOL0     C71863   8.630  10.897   4.209  0.6244  0.2419  0.9481
  545MOL0     C71864   8.516  10.981   4.215  0.3390  0.7442 -0.8520
  545MOL0     C71865   8.415  10.980   4.118  0.0144  0.0265 -0.2978
  545MOL0     O71866   8.313  11.076   4.124 -0.1563  0.0482  0.2386
  545MOL0     C71867   8.213  11.083   4.028  0.6505 -0.4622  0.0216
  545MOL0     C71868   8.105  10.975   4.047 -0.2012  0.1701 -0.3331
  545MOL0     C71869   7.975  11.013   3.969  0.5278  0.2684 -0.5654
  545MOL0     C71870   8.002  11.033   3.814  0.1007 -1.0542 -0.2408
  545MOL0     C71871   7.885  11.095   3.751 -0.2434  0.0446  1.7102
  545MOL0     C71872   7.791  11.150   3.689 -0.6725 -0.0967 -0.1950
  545MOL0     C71873   8.435  10.890   4.012 -0.4187  0.5918  0.6555
  545MOL0     C71874   8.546  10.816   3.997  0.2759 -0.1270 -0.7607
  545MOL0     H71875   8.999  10.635   3.870 -0.7788  1.0493  1.7164
  545MOL0     H71876   9.162  10.446   3.868  0.4344 -1.3906 -0.3239
  545MOL0     H71877   9.177  10.200   3.809 -0.1215 -1.2031 -2.3396
  545MOL0     H71878   9.031  10.109   3.854  2.0149 -0.7490 -0.4999
  545MOL0     H71879   9.228   9.987   3.783 -2.5683  0.1566  0.3977
  545MOL0     H71880   9.153   9.925   3.929  0.3140 -1.3038 -2.0567
  545MOL0     H71881   9.380   9.919   3.975  0.9020 -0.1526  3.5807
  545MOL0     H71882   9.303  10.042   4.077  0.8710 -1.1165  0.4610
  545MOL0     H71883   9.495  10.081   3.847  0.5537  0.3668  0.8888
  545MOL0     H71884   9.367  10.199   3.898  0.4786  0.1939  0.1068
  545MOL0     H71885   9.466  10.225   4.113  1.2525  0.9781  0.2759
  545MOL0     H71886   9.591  10.231   3.995 -0.2982  1.8183  1.8535
  545MOL0     H71887   9.526  10.010   4.193 -0.5275  3.3240  1.8984
  545MOL0     H71888   9.657  10.134   4.187 -0.7053  1.2030  0.0882
  545MOL0     H71889   9.626   9.882   4.019  2.9725 -1.5793  1.1481
  545MOL0     H71890   9.722  10.021   3.958 -1.8064 -1.5867 -2.6644
  545MOL0     H71891   9.886   9.877   4.064 -3.3019 -3.8383 -1.4233
  545MOL0     H71892   9.773   9.829   4.187 -0.2644  0.9282  1.4967
  545MOL0     H71893   9.929  10.184   4.113  1.5101  0.5401 -0.0250
  545MOL0     H71894  10.024  10.322   4.450 -1.7841  1.3737 -1.5152
  545MOL0     H71895  10.032  10.358   4.281 -3.2471 -1.1774  0.9161
  545MOL0     H71896  10.252  10.389   4.396 -0.4788  0.1408  2.5396
  545MOL0     H71897  10.262  10.256   4.274  0.4524 -1.4687  0.3844
  545MOL0     H71898  10.202  10.207   4.580 -1.4600  0.6201  0.1841
  545MOL0     H71899  10.226  10.087   4.452  1.6778  0.3691 -2.6267
  545MOL0     H71900  10.444  10.266   4.557  0.1784  0.3811  0.9471
  545MOL0     H71901  10.457  10.146   4.423 -0.2760 -0.4857  0.3680
  545MOL0     H71902  10.457   9.836   4.740  0.7482 -1.9196 -0.2991
  545MOL0     H71903  10.685   9.738   4.781  0.1542 -0.2367 -1.1964
  545MOL0     H71904  11.173   9.731   4.813 -1.8476  2.4737  2.7406
  545MOL0     H71905  11.410   9.711   4.809 -0.6858  0.2289  2.4320
  545MOL0     H71906  11.642   9.731   4.743 -5.0015  0.1085  1.4785
  545MOL0     H71907  11.651   9.812   4.900  0.4953  2.1523  0.4981
  545MOL0     H71908  11.842   9.879   4.675  4.6478  1.7217  0.4492
  545MOL0     H71909  11.885   9.757   4.791 -1.7690 -0.3243  3.7563
  545MOL0     H71910  11.857   9.905   4.975 -1.2218 -0.2447  0.7794
  545MOL0     H71911  11.797  10.025   4.860  1.1577 -0.0236 -0.1298
  545MOL0     H71912  12.090   9.926   4.850  0.8309  2.2401  1.6268
  545MOL0     H71913  12.021  10.042   4.741 -0.2367  0.3567  0.0299
  545MOL0     H71914  12.012  10.121   5.032  0.2029 -1.6776  0.9049
  545MOL0     H71915  12.052  10.214   4.889 -2.7337 -0.7051 -2.3421
  545MOL0     H71916  12.265  10.049   4.886 -0.7393 -5.3139  1.0867
  545MOL0     H71917  12.215  10.002   5.041 -0.4202  0.0996  0.0106
  545MOL0     H71918  12.304  10.297   4.958  1.4338  0.4378  0.9482
  545MOL0     H71919  12.204  10.273   5.091 -1.1571 -0.9561  0.3058
  545MOL0     H71920  12.453  10.281   5.160  2.9953  0.3116 -0.8125
  545MOL0     H71921  12.486  10.138   5.075  1.4314  0.4784  2.1479
  545MOL0     H71922  11.445  10.134   4.700  1.9510 -0.9284 -2.7052
  545MOL0     H71923  11.195  10.132   4.667  2.7021  1.6182 -0.8571
  545MOL0     H71924  10.863  10.103   4.631  0.0767  0.1109  0.8073
  545MOL0     H71925  10.665  10.189   4.571  0.1504  0.0153  0.8143
  545MOL0     H71926   8.904  10.226   4.147  1.7238  0.2972  2.9225
  545MOL0     H71927   8.744  10.414   4.145  0.6568  1.5134  1.3551
  545MOL0     H71928   8.692  10.888   4.297 -1.0954 -1.2025  2.0912
  545MOL0     H71929   8.519  11.049   4.300 -0.0552  0.7668 -0.8569
  545MOL0     H71930   8.261  11.067   3.931  0.7039 -0.8288  0.1052
  545MOL0     H71931   8.169  11.183   4.031  0.7558 -0.4159  2.9696
  545MOL0     H71932   8.132  10.872   4.024  0.0621  0.2378 -0.3306
  545MOL0     H71933   8.078  10.973   4.153 -2.0789 -2.0721 -0.7789
  545MOL0     H71934   7.935  11.098   4.024  0.5332  0.0996 -0.2995
  545MOL0     H71935   7.912  10.925   3.984  0.1695  0.3080 -1.7293
  545MOL0     H71936   8.093  11.094   3.808  0.6648 -1.5361  2.2993
  545MOL0     H71937   8.020  10.935   3.769  0.4827 -1.3695  0.5827
  545MOL0     H71938   7.711  11.191   3.631 -1.1850 -0.3156  0.3403
  545MOL0     H71939   8.355  10.867   3.944 -2.4364  4.5768  1.3970
  545MOL0     H71940   8.553  10.737   3.923  0.5043 -0.5565 -0.2883
  546MOL0     O71941   5.930   8.036   1.423  0.2533 -0.2292  0.7293
  546MOL0     C71942   5.949   7.991   1.315 -0.0713  0.2973 -0.0839
  546MOL0     O71943   5.860   7.914   1.241 -0.0720  0.5975 -0.0288
  546MOL0     C71944   5.730   7.925   1.262 -0.3362  0.0064 -0.3827
  546MOL0     C71945   5.659   8.045   1.304 -0.9232 -0.6020 -0.2218
  546MOL0     C71946   5.520   8.036   1.307 -0.1304 -0.0581  0.2358
  546MOL0     C71947   5.451   7.920   1.280 -0.0492  0.0275  0.3766
  546MOL0     O71948   5.312   7.939   1.272 -0.2325 -0.2405 -0.3848
  546MOL0     C71949   5.240   7.838   1.194  0.2947 -0.1497  0.3363
  546MOL0     C71950   5.088   7.862   1.228 -0.4538  0.3421  0.2259
  546MOL0     C71951   5.052   7.789   1.361  0.0649  0.3252 -0.3901
  546MOL0     C71952   4.916   7.816   1.422  1.1114  0.8029  0.2803
  546MOL0     C71953   4.832   7.693   1.438 -0.6205  0.0893 -0.9383
  546MOL0     C71954   4.883   7.596   1.547  0.4949  0.6011  0.1038
  546MOL0     C71955   4.771   7.494   1.581 -0.5141 -0.5246  0.0342
  546MOL0     C71956   4.817   7.421   1.707  0.1507 -0.5201  0.6042
  546MOL0     N71957   4.729   7.300   1.726  0.5977 -0.0705 -0.4639
  546MOL0     C71958   4.776   7.186   1.784 -0.2221 -0.0739 -0.4879
  546MOL0     C71959   4.666   7.115   1.816  1.5197  0.6681  0.0229
  546MOL0     C71960   4.655   6.978   1.888  0.4767 -1.0334 -0.1364
  546MOL0     C71961   4.554   6.981   2.011  0.6695  0.2526  0.3088
  546MOL0     C71962   4.503   6.843   2.045 -0.5441 -0.2199  0.1220
  546MOL0     C71963   4.395   6.845   2.157 -0.0877 -0.1056 -0.1603
  546MOL0     O71964   4.301   6.952   2.135 -0.0556  0.1956 -0.1544
  546MOL0     C71965   4.201   6.927   2.041  0.6641 -0.7289  0.0862
  546MOL0     C71966   4.142   7.031   1.968  0.3005 -0.1185 -0.2928
  546MOL0     C71967   4.038   7.009   1.875 -0.4426  0.1858  0.1108
  546MOL0     C71968   3.996   6.884   1.836  0.6144  0.5100 -0.1084
  546MOL0     C71969   3.890   6.850   1.735  0.4140 -0.2111  0.2409
  546MOL0     O71970   3.839   6.729   1.742  0.3377  0.1364 -0.1165
  546MOL0     C71971   3.719   6.701   1.674 -1.0259  0.3032 -0.7359
  546MOL0     C71972   3.726   6.570   1.614  0.4898  0.8935 -0.7548
  546MOL0     C71973   3.596   6.518   1.576 -1.7749 -0.6372  0.3411
  546MOL0     C71974   3.479   6.597   1.590 -0.3315  0.0952 -0.5840
  546MOL0     O71975   3.356   6.555   1.549 -0.2988  0.3468  0.6144
  546MOL0     C71976   3.352   6.423   1.485  0.2441 -0.0602 -0.8460
  546MOL0     C71977   3.212   6.399   1.452 -0.2474  0.2230  0.4728
  546MOL0     C71978   3.165   6.494   1.341  0.1473  0.5285 -0.0213
  546MOL0     C71979   3.025   6.465   1.291 -1.2480  0.1457  0.5096
  546MOL0     C71980   2.990   6.549   1.163 -0.2514 -0.8375  0.0427
  546MOL0     C71981   2.892   6.475   1.080 -0.6960  0.8199  0.3080
  546MOL0     C71982   2.951   6.384   0.970 -0.6611 -0.0030 -0.0796
  546MOL0     C71983   2.846   6.313   0.891 -0.2152 -0.5202  0.3606
  546MOL0    Cl71984   2.758   6.423   0.780  0.1339  0.4651  0.1666
  546MOL0     C71985   3.483   6.725   1.644  0.5530  0.9261 -0.2201
  546MOL0     C71986   3.605   6.779   1.681 -0.0206  0.5335 -0.1891
  546MOL0     O71987   3.856   6.940   1.652 -1.1660 -0.1393  0.0119
  546MOL0     C71988   4.043   6.785   1.917  0.2253 -0.0311  0.8260
  546MOL0     C71989   4.142   6.799   2.012 -0.0461  0.3294  0.3293
  546MOL0     N71990   4.549   7.181   1.771 -0.7244  0.0450  0.3252
  546MOL0     N71991   4.593   7.292   1.708 -0.6950 -0.3612  0.1599
  546MOL0     C71992   5.523   7.805   1.258 -1.2898 -0.1041  0.6242
  546MOL0     C71993   5.660   7.808   1.235  0.1455 -0.0608  0.1633
  546MOL0     C71994   6.082   8.015   1.255  0.7217 -0.2526  0.1816
  546MOL0     C71995   6.096   7.983   1.121 -0.1845 -0.1845  0.0042
  546MOL0     C71996   6.221   8.004   1.057  0.4855  0.0785 -0.1271
  546MOL0     C71997   6.321   8.076   1.122 -0.1174 -1.2354  0.1863
  546MOL0     O71998   6.430   8.105   1.038 -0.2124  0.1166 -0.1797
  546MOL0     C71999   6.552   8.140   1.110 -0.2590  0.1475  0.4733
  546MOL0     C72000   6.659   8.160   1.010  0.4259 -0.8292 -0.8646
  546MOL0     C72001   6.790   8.226   1.072  0.4688  0.5848  0.4405
  546MOL0     C72002   6.917   8.205   0.994  0.1326  0.1076 -0.1901
  546MOL0     C72003   7.026   8.165   1.076 -0.2248  0.3438  1.0026
  546MOL0     C72004   7.116   8.114   1.137  0.8757  0.5386 -0.0765
  546MOL0     C72005   6.299   8.110   1.262 -0.1037  0.7750  0.3424
  546MOL0     C72006   6.188   8.068   1.334  0.0076 -0.0276  1.0631
  546MOL0     H72007   5.718   8.135   1.314 -0.5946 -0.9240  1.0155
  546MOL0     H72008   5.473   8.131   1.333 -2.3442 -1.4502  1.7051
  546MOL0     H72009   5.265   7.737   1.227  1.7727  0.0827  0.0063
  546MOL0     H72010   5.256   7.840   1.086 -0.7194  0.0939  0.1767
  546MOL0     H72011   5.030   7.819   1.146 -0.9926  1.6795 -0.1174
  546MOL0     H72012   5.069   7.969   1.234 -1.2465  0.3933 -2.3806
  546MOL0     H72013   5.128   7.806   1.438  0.5369  0.3609 -0.8538
  546MOL0     H72014   5.066   7.684   1.335 -0.0424  0.7751 -2.4228
  546MOL0     H72015   4.922   7.871   1.517  0.6066  2.6791 -0.7237
  546MOL0     H72016   4.860   7.889   1.363  3.8626  3.4238  0.6613
  546MOL0     H72017   4.825   7.647   1.339  0.7143 -1.9044 -0.1811
  546MOL0     H72018   4.737   7.727   1.481 -0.1314 -0.3110  0.5483
  546MOL0     H72019   4.901   7.657   1.635 -0.2625 -1.1059  1.5076
  546MOL0     H72020   4.973   7.537   1.527  0.7622 -0.5759  3.8916
  546MOL0     H72021   4.674   7.544   1.589  0.1912  1.3418 -1.9494
  546MOL0     H72022   4.776   7.422   1.499  1.8683 -1.0296  0.5559
  546MOL0     H72023   4.808   7.483   1.797 -2.9933 -0.3559  0.3097
  546MOL0     H72024   4.920   7.386   1.698 -0.0134 -0.8267 -0.1972
  546MOL0     H72025   4.878   7.153   1.800 -0.3998 -0.6618 -0.5202
  546MOL0     H72026   4.752   6.941   1.921  0.7381 -0.8047 -0.6526
  546MOL0     H72027   4.615   6.907   1.816  0.0898  1.7647 -2.8728
  546MOL0     H72028   4.474   7.051   1.987 -0.0076 -0.5932  0.0246
  546MOL0     H72029   4.608   7.027   2.094  3.1947  0.4033 -1.3018
  546MOL0     H72030   4.464   6.797   1.954 -0.0984  0.9038 -0.6639
  546MOL0     H72031   4.586   6.781   2.080 -1.4814  0.8456  4.8265
  546MOL0     H72032   4.444   6.860   2.253 -1.0213 -2.1147  0.6910
  546MOL0     H72033   4.354   6.744   2.169  1.1930 -1.0398 -2.7239
  546MOL0     H72034   4.172   7.131   1.995 -1.2774  0.3215 -0.1175
  546MOL0     H72035   4.010   7.096   1.816 -0.0518 -3.2217 -5.7793
  546MOL0     H72036   3.812   6.504   1.614  1.3499  1.9814 -0.8129
  546MOL0     H72037   3.595   6.421   1.527  1.8172  0.0638 -1.5235
  546MOL0     H72038   3.384   6.344   1.554 -1.7329  0.1446  0.3979
  546MOL0     H72039   3.415   6.425   1.395 -2.0046  2.5285 -2.5047
  546MOL0     H72040   3.149   6.408   1.541 -0.9163 -0.0569  0.0334
  546MOL0     H72041   3.216   6.304   1.397  3.4388  1.4749 -1.8100
  546MOL0     H72042   3.233   6.476   1.258 -0.0232 -1.8215  0.2862
  546MOL0     H72043   3.172   6.599   1.372  1.5978  0.8704 -1.3815
  546MOL0     H72044   3.023   6.358   1.271  0.4494  0.6411 -3.0596
  546MOL0     H72045   2.958   6.490   1.373  0.8466  0.4825  2.2289
  546MOL0     H72046   3.082   6.576   1.109  0.7151  0.9482  2.3798
  546MOL0     H72047   2.961   6.649   1.195  0.4479 -0.1818 -1.2571
  546MOL0     H72048   2.828   6.555   1.042 -1.1402  0.5584  0.4939
  546MOL0     H72049   2.832   6.411   1.146  0.6040 -1.2779 -0.4500
  546MOL0     H72050   3.005   6.450   0.900 -3.2638 -1.2882 -3.6091
  546MOL0     H72051   3.021   6.310   1.010 -0.5913  0.3875  0.5290
  546MOL0     H72052   2.775   6.270   0.962 -0.0157 -3.2525 -0.9559
  546MOL0     H72053   2.879   6.226   0.835 -1.4975  0.7243 -2.5228
  546MOL0     H72054   3.389   6.780   1.643  0.8857  1.4982 -0.3589
  546MOL0     H72055   3.604   6.873   1.735 -1.3226  1.0628 -1.0546
  546MOL0     H72056   4.008   6.683   1.902  1.4911 -0.2265 -1.1637
  546MOL0     H72057   4.166   6.713   2.073 -3.0290  0.3760  1.7592
  546MOL0     H72058   5.476   7.712   1.230  0.4092 -1.0346  0.7290
  546MOL0     H72059   5.702   7.722   1.183 -1.5554 -0.5997 -0.3580
  546MOL0     H72060   6.017   7.936   1.065  0.8697 -0.5179 -1.2356
  546MOL0     H72061   6.244   7.987   0.952  1.1451  0.5423 -0.0584
  546MOL0     H72062   6.587   8.064   1.181 -1.9801  0.1987  1.4230
  546MOL0     H72063   6.547   8.229   1.173  2.4264  0.4096  0.4185
  546MOL0     H72064   6.680   8.065   0.961 -0.7529 -1.7473  0.3381
  546MOL0     H72065   6.624   8.231   0.934 -0.2167 -0.3074 -0.0969
  546MOL0     H72066   6.805   8.199   1.177 -3.2552  0.2102  1.0113
  546MOL0     H72067   6.769   8.333   1.085  0.7468  0.6913  0.0357
  546MOL0     H72068   6.900   8.123   0.923 -2.3449  0.9172 -0.6342
  546MOL0     H72069   6.943   8.300   0.946  1.0295  0.8835  1.7263
  546MOL0     H72070   7.194   8.073   1.198 -0.0581 -1.9147 -0.4345
  546MOL0     H72071   6.369   8.166   1.325 -0.6887  0.6264  1.1483
  546MOL0     H72072   6.168   8.094   1.437 -1.8580  1.4894  0.3786
  547MOL0     O72073   9.754   9.948  10.840  0.1568 -0.7500  0.0497
  547MOL0     C72074   9.810   9.868  10.910 -0.2339 -0.4216 -0.3187
  547MOL0     O72075   9.755   9.795  11.004  0.2023 -0.3094  0.6242
  547MOL0     C72076   9.626   9.825  11.031  0.4043 -0.1208 -0.4472
  547MOL0     C72077   9.527   9.809  10.938  0.1002 -0.2104  0.2188
  547MOL0     C72078   9.399   9.837  10.968  0.3133  0.2697  0.0527
  547MOL0     C72079   9.365   9.878  11.105  0.2863 -0.2957  0.5424
  547MOL0     O72080   9.231   9.865  11.125 -0.1272  0.1144 -0.3267
  547MOL0     C72081   9.165   9.963  11.204 -0.1215 -0.0887  0.1014
  547MOL0     C72082   9.111  10.066  11.112  0.7728  0.7047 -0.4996
  547MOL0     C72083   9.037  10.183  11.190 -0.1207 -0.8048 -0.8401
  547MOL0     C72084   8.905  10.163  11.273  0.4508 -0.7041  0.2050
  547MOL0     C72085   8.809  10.089  11.193 -0.1029 -0.1188  1.1832
  547MOL0     C72086   8.688  10.054  11.276  0.2935  0.4240  0.9431
  547MOL0     C72087   8.583   9.985  11.185  0.0046 -0.2202  0.2518
  547MOL0     C72088   8.515  10.052  11.064  0.3615  0.7106 -0.2802
  547MOL0     N72089   8.461  10.186  11.102 -0.6677 -0.2608  0.1872
  547MOL0     C72090   8.328  10.207  11.109 -0.2786  0.3509 -0.8457
  547MOL0     C72091   8.316  10.334  11.163  0.4108 -0.6924  0.4513
  547MOL0     C72092   8.189  10.405  11.202  0.3067  0.1536  0.3570
  547MOL0     C72093   8.081  10.417  11.091 -0.8946 -0.3372  0.2884
  547MOL0     C72094   8.032  10.558  11.051  0.1123  0.1690 -0.8278
  547MOL0     C72095   7.906  10.562  10.961  0.7770 -0.2034  0.6555
  547MOL0     O72096   7.779  10.568  11.022 -1.0343  0.0661  0.5127
  547MOL0     C72097   7.668  10.568  10.943 -0.8874  0.4207 -0.7360
  547MOL0     C72098   7.668  10.578  10.804 -0.1706 -0.3035 -0.4041
  547MOL0     C72099   7.552  10.581  10.727  0.0557  0.3157 -0.0100
  547MOL0     C72100   7.435  10.555  10.784  0.7166 -0.2057 -0.2052
  547MOL0     C72101   7.308  10.569  10.711 -0.4198  0.4765  0.5703
  547MOL0     O72102   7.213  10.624  10.784  0.7800  0.2319 -0.2927
  547MOL0     C72103   7.098  10.657  10.716  0.3484  0.6254 -1.7560
  547MOL0     C72104   6.983  10.597  10.758 -0.2721 -0.0094 -0.4242
  547MOL0     C72105   6.860  10.623  10.696  0.2432  0.5039 -0.1290
  547MOL0     C72106   6.853  10.719  10.595  0.3770  0.3745 -0.3100
  547MOL0     O72107   6.740  10.756  10.519 -0.7096  0.2422 -0.0787
  547MOL0     C72108   6.642  10.658  10.508  0.4732 -0.6967 -0.4123
  547MOL0     C72109   6.537  10.730  10.417 -0.3839 -0.8095  0.4851
  547MOL0     C72110   6.490  10.868  10.468  0.4299  0.9140 -0.4372
  547MOL0     C72111   6.394  10.937  10.365  0.0773 -0.4473 -0.5577
  547MOL0     C72112   6.260  10.865  10.343  0.1631 -0.5109 -0.1718
  547MOL0     C72113   6.161  10.957  10.269 -0.9189 -0.0582 -0.4537
  547MOL0     C72114   6.071  10.864  10.193  0.9218 -0.7250  0.0235
  547MOL0     C72115   5.973  10.942  10.114  0.2986  0.6779 -0.0947
  547MOL0    Cl72116   5.869  11.018  10.242 -0.0499 -0.2663  0.1546
  547MOL0     C72117   6.974  10.789  10.555 -0.1987  1.6819  0.2649
  547MOL0     C72118   7.097  10.754  10.615  0.9089  0.8547  0.5827
  547MOL0     O72119   7.303  10.533  10.596 -0.2416  0.1382  0.4858
  547MOL0     C72120   7.428  10.539  10.926 -0.0562 -0.0210  0.1422
  547MOL0     C72121   7.546  10.537  11.001 -0.2843 -0.8425 -0.5394
  547MOL0     N72122   8.444  10.383  11.178 -0.6994  0.2416  0.7446
  547MOL0     N72123   8.528  10.303  11.138  0.9161  0.3149  0.1803
  547MOL0     C72124   9.462   9.902  11.202 -0.3260  0.2659 -0.3712
  547MOL0     C72125   9.589   9.873  11.165 -0.8787  0.3013  0.9969
  547MOL0     C72126   9.952   9.860  10.911 -0.1849 -0.6017  0.3453
  547MOL0     C72127  10.035   9.788  10.994  0.0847  0.3934 -0.0618
  547MOL0     C72128  10.173   9.766  10.963 -0.6734  0.2415 -0.5523
  547MOL0     C72129  10.227   9.824  10.846 -0.0145 -0.5330 -0.8967
  547MOL0     O72130  10.354   9.792  10.812  0.2539 -0.0311 -0.2907
  547MOL0     C72131  10.426   9.852  10.701 -0.1949 -0.5273 -0.2329
  547MOL0     C72132  10.555   9.782  10.662  0.2195  0.0679  0.2846
  547MOL0     C72133  10.608   9.857  10.538  0.1969 -0.4031  0.1994
  547MOL0     C72134  10.747   9.819  10.497  0.2705  0.7891 -0.0312
  547MOL0     C72135  10.854   9.855  10.591 -0.9169 -0.0435 -0.0766
  547MOL0     C72136  10.941   9.887  10.670  0.3634 -0.8295  0.1627
  547MOL0     C72137  10.143   9.907  10.772  0.2248 -0.2072 -0.6317
  547MOL0     C72138  10.007   9.925  10.800  0.0984  0.6627  0.0815
  547MOL0     H72139   9.558   9.761  10.845  0.2741 -1.4815  0.9023
  547MOL0     H72140   9.326   9.803  10.896 -2.2934  1.7574  1.8120
  547MOL0     H72141   9.230  10.011  11.277  0.1900 -2.3321  1.3960
  547MOL0     H72142   9.083   9.918  11.261  0.1637 -0.8383 -0.0668
  547MOL0     H72143   9.046  10.015  11.041  0.5284 -4.7258  2.9896
  547MOL0     H72144   9.199  10.105  11.061  0.2992  1.4297 -0.7805
  547MOL0     H72145   9.019  10.247  11.103  1.9948  1.7715  0.4618
  547MOL0     H72146   9.105  10.231  11.261 -3.3661  0.8232  1.4353
  547MOL0     H72147   8.931  10.109  11.364 -0.0724 -0.4189  0.5293
  547MOL0     H72148   8.865  10.259  11.307  0.0381 -0.2771 -1.3985
  547MOL0     H72149   8.860   9.995  11.166 -2.5945 -0.7673 -1.8009
  547MOL0     H72150   8.781  10.143  11.102  0.9393  1.0485  1.5343
  547MOL0     H72151   8.636  10.136  11.326 -2.4120  0.2767 -1.3792
  547MOL0     H72152   8.714   9.980  11.352 -1.7102  0.3685  1.6375
  547MOL0     H72153   8.635   9.897  11.146 -0.9020 -0.0482 -1.4660
  547MOL0     H72154   8.504   9.942  11.248 -0.3930  1.1283  0.7012
  547MOL0     H72155   8.431   9.992  11.027 -4.2942  3.8965  3.7984
  547MOL0     H72156   8.591  10.076  10.989  0.1906 -0.1216 -0.7258
  547MOL0     H72157   8.250  10.132  11.100  0.0168 -0.2024  0.7824
  547MOL0     H72158   8.216  10.509  11.222  0.6993  0.7957 -2.9663
  547MOL0     H72159   8.147  10.365  11.295  1.5999  2.0396  1.8451
  547MOL0     H72160   7.995  10.360  11.128 -1.2526  0.1322  0.1844
  547MOL0     H72161   8.129  10.370  11.005  1.7494 -0.2533  1.6225
  547MOL0     H72162   8.003  10.605  11.146  0.3309 -2.0537  0.3941
  547MOL0     H72163   8.112  10.614  11.002 -0.2721  3.3552  1.7930
  547MOL0     H72164   7.912  10.466  10.909  3.0050  0.8466 -1.2627
  547MOL0     H72165   7.897  10.645  10.890 -1.1083 -0.5325  0.4635
  547MOL0     H72166   7.758  10.587  10.744 -1.1062 -1.3766 -2.0325
  547MOL0     H72167   7.556  10.596  10.620 -2.3524 -0.8130 -0.3275
  547MOL0     H72168   6.989  10.528  10.841  1.8825 -0.4932 -0.9458
  547MOL0     H72169   6.772  10.565  10.723 -0.3590  0.7683 -1.4319
  547MOL0     H72170   6.599  10.628  10.604 -2.2381  5.1826  0.6960
  547MOL0     H72171   6.686  10.574  10.454 -2.8521 -1.3454 -2.3608
  547MOL0     H72172   6.455  10.658  10.402 -0.1705 -0.8963 -0.2921
  547MOL0     H72173   6.575  10.751  10.317  0.7509  1.0083  1.2659
  547MOL0     H72174   6.577  10.933  10.480  0.2219  1.4561 -1.7488
  547MOL0     H72175   6.432  10.856  10.560  0.8801  1.0025 -0.1425
  547MOL0     H72176   6.398  11.041  10.400 -1.9002 -0.6319  0.3924
  547MOL0     H72177   6.438  10.943  10.265 -0.1668 -0.5895 -0.6761
  547MOL0     H72178   6.227  10.824  10.439 -1.1108 -1.0974 -0.8265
  547MOL0     H72179   6.285  10.780  10.280 -1.3978 -0.8992 -0.3227
  547MOL0     H72180   6.218  11.022  10.202  0.3965  1.3126  1.8820
  547MOL0     H72181   6.110  11.025  10.338  2.4575  3.6338 -1.2587
  547MOL0     H72182   6.126  10.811  10.114 -0.2557 -0.3967 -1.0493
  547MOL0     H72183   6.020  10.795  10.260 -1.3490 -1.5851 -2.4272
  547MOL0     H72184   5.908  10.892  10.041 -1.0434  0.8280  0.9483
  547MOL0     H72185   6.016  11.024  10.057  0.0719  0.5054 -0.5170
  547MOL0     H72186   6.981  10.851  10.467  1.9260 -0.8723 -1.5424
  547MOL0     H72187   7.196  10.774  10.575  1.2448 -2.3196 -0.4548
  547MOL0     H72188   7.330  10.509  10.962 -0.5411 -0.4810 -1.4983
  547MOL0     H72189   7.539  10.520  11.108 -0.2060  0.7004 -0.2656
  547MOL0     H72190   9.438   9.923  11.306  0.4259 -0.3984 -0.0478
  547MOL0     H72191   9.675   9.876  11.231 -1.8850  1.3752  2.3049
  547MOL0     H72192   9.987   9.734  11.075 -0.2042  0.9540  0.1430
  547MOL0     H72193  10.240   9.697  11.014 -1.1264 -0.7334 -1.2384
  547MOL0     H72194  10.444   9.956  10.728 -0.9807 -0.8571  1.7357
  547MOL0     H72195  10.361   9.836  10.614  0.1101  1.2076 -0.8106
  547MOL0     H72196  10.626   9.776  10.744 -0.3273  1.3399  0.8809
  547MOL0     H72197  10.532   9.680  10.632  1.7877 -1.4248  3.6469
  547MOL0     H72198  10.612   9.962  10.567  1.4942 -1.1157  2.9034
  547MOL0     H72199  10.540   9.854  10.453 -1.3683 -0.1252  1.3930
  547MOL0     H72200  10.754   9.711  10.480  1.6170  1.2438 -3.2042
  547MOL0     H72201  10.761   9.871  10.402 -1.6019 -1.6072 -1.7323
  547MOL0     H72202  11.004   9.931  10.743 -1.3026 -0.7690  1.6350
  547MOL0     H72203  10.176   9.954  10.680  0.6161  2.6149  0.8258
  547MOL0     H72204   9.946   9.988  10.736 -1.0945  0.0692  0.5827
  548MOL0     O72205   0.689  10.565  10.265 -0.4409 -0.5629  0.2541
  548MOL0     C72206   0.695  10.502  10.159  0.9087  0.2169  0.5113
  548MOL0     O72207   0.593  10.428  10.114 -0.6274 -0.9115 -0.7841
  548MOL0     C72208   0.483  10.403  10.185 -0.3319  0.1759 -0.8923
  548MOL0     C72209   0.369  10.490  10.191 -0.0732  0.4424 -1.0715
  548MOL0     C72210   0.253  10.432  10.247 -0.2262 -0.2756  0.2255
  548MOL0     C72211   0.251  10.312  10.320 -0.4425  0.9469 -0.1765
  548MOL0     O72212   0.133  10.263  10.362 -0.6021 -0.4860 -0.0501
  548MOL0     C72213   0.135  10.207  10.497  0.6030 -0.2883  0.0638
  548MOL0     C72214  -0.011  10.175  10.548 -0.8225  0.1087  0.9810
  548MOL0     C72215  -0.109  10.290  10.548 -0.2846  0.1553 -0.1583
  548MOL0     C72216  -0.245  10.241  10.590  0.2383  0.0026  0.6722
  548MOL0     C72217  -0.350  10.343  10.557  0.0095 -0.3668 -0.6476
  548MOL0     C72218  -0.492  10.312  10.613 -0.2589  1.3703  0.4381
  548MOL0     C72219  -0.583  10.436  10.616 -0.2231 -0.5466 -0.5248
  548MOL0     C72220  -0.708  10.414  10.706  0.3983 -0.0538  0.0784
  548MOL0     N72221  -0.813  10.343  10.625  0.5525  0.4685  0.7225
  548MOL0     C72222  -0.911  10.410  10.548 -0.3425  0.2919 -0.7344
  548MOL0     C72223  -0.992  10.310  10.494  0.1673 -0.1145 -0.6246
  548MOL0     C72224  -1.104  10.311  10.390  0.0613 -0.1380  0.6207
  548MOL0     C72225  -1.125  10.451  10.339  0.7774  0.2375  0.6871
  548MOL0     C72226  -1.215  10.441  10.210 -0.1131  0.5247 -0.0557
  548MOL0     C72227  -1.284  10.579  10.170  0.5364  0.1733 -0.1486
  548MOL0     O72228  -1.373  10.641  10.268  0.4156 -0.4723  0.8585
  548MOL0     C72229  -1.509  10.611  10.276 -0.0750  0.4985  0.3807
  548MOL0     C72230  -1.582  10.657  10.393 -0.3612  0.8870  0.0803
  548MOL0     C72231  -1.723  10.649  10.407  0.3264  0.0298 -0.1482
  548MOL0     C72232  -1.794  10.590  10.301 -0.2663  0.3361  0.0360
  548MOL0     C72233  -1.941  10.575  10.317 -0.7198 -0.8797 -0.6150
  548MOL0     O72234  -2.022  10.592  10.212 -0.2649 -0.0833 -0.2442
  548MOL0     C72235  -2.155  10.557  10.214  0.3455 -0.2698 -0.0088
  548MOL0     C72236  -2.249  10.655  10.166  0.0720  0.3683 -0.3138
  548MOL0     C72237  -2.381  10.627  10.177 -0.0960  0.5474  0.7167
  548MOL0     C72238  -2.429  10.511  10.227  1.4501  0.7213 -0.1800
  548MOL0     O72239  -2.563  10.473  10.226  0.3287  0.0642 -0.3856
  548MOL0     C72240  -2.597  10.354  10.150  0.5108  0.3691 -0.2927
  548MOL0     C72241  -2.754  10.341  10.136 -0.2141  0.6017 -0.5225
  548MOL0     C72242  -2.827  10.464  10.086  0.1751  0.0901 -0.1252
  548MOL0     C72243  -2.973  10.432  10.049 -0.1614  1.0208 -0.2248
  548MOL0     C72244  -3.050  10.540   9.980 -0.6408 -0.0836 -0.8238
  548MOL0     C72245  -3.052  10.673  10.068 -0.7420  0.2036  0.4758
  548MOL0     C72246  -3.159  10.762  10.021 -0.3146 -0.2029 -0.4186
  548MOL0     C72247  -3.298  10.714  10.056  0.2643 -0.1708  0.4731
  548MOL0    Cl72248  -3.441  10.812  10.013  0.5217  0.2064  0.3637
  548MOL0     C72249  -2.340  10.417  10.279  0.4531 -0.0784  0.7768
  548MOL0     C72250  -2.199  10.444  10.273 -0.2478 -0.5258  0.3849
  548MOL0     O72251  -1.969  10.549  10.436 -0.0336 -0.7614  0.9471
  548MOL0     C72252  -1.725  10.543  10.188 -0.8466 -0.6707  0.5006
  548MOL0     C72253  -1.586  10.554  10.171  0.0049  0.2386  0.1648
  548MOL0     N72254  -0.949  10.192  10.551 -0.4308  0.8024  0.0729
  548MOL0     N72255  -0.853  10.217  10.634  0.2769  0.2036  0.1470
  548MOL0     C72256   0.377  10.248  10.349  0.5375  0.5151 -0.0367
  548MOL0     C72257   0.483  10.285  10.269  0.4162 -0.0577 -0.5710
  548MOL0     C72258   0.817  10.518  10.082 -0.0677  0.1561 -0.4160
  548MOL0     C72259   0.919  10.598  10.134 -0.0179 -0.0514 -0.6759
  548MOL0     C72260   1.035  10.631  10.055 -0.0607  0.1204  1.0507
  548MOL0     C72261   1.053  10.562   9.928 -0.5735 -0.5439 -0.1697
  548MOL0     O72262   1.154  10.587   9.834  0.1320 -0.2737 -0.3329
  548MOL0     C72263   1.238  10.700   9.842 -1.0965  0.7087 -0.1469
  548MOL0     C72264   1.325  10.711   9.723  0.0943 -0.2257 -0.6819
  548MOL0     C72265   1.423  10.831   9.728  0.0144  0.3306  0.0940
  548MOL0     C72266   1.519  10.841   9.599  0.0936  0.3835  0.0236
  548MOL0     C72267   1.633  10.753   9.611  0.0891  0.1799 -0.3530
  548MOL0     C72268   1.735  10.692   9.634  0.8989  1.1567 -0.6261
  548MOL0     C72269   0.958  10.472   9.892 -0.5434  0.1558  0.5053
  548MOL0     C72270   0.832  10.461   9.954 -0.1824 -0.0153 -0.9698
  548MOL0     H72271   0.376  10.575  10.123 -2.4538  1.5423 -0.0361
  548MOL0     H72272   0.158  10.483  10.235  0.0194  0.1891  0.2082
  548MOL0     H72273   0.174  10.275  10.573  0.9784  1.1126 -1.3210
  548MOL0     H72274   0.191  10.113  10.506  0.4031 -0.8649 -3.2714
  548MOL0     H72275   0.011  10.135  10.648  2.5153 -0.2645  0.2463
  548MOL0     H72276  -0.045  10.089  10.490 -0.4613  1.1807 -0.9188
  548MOL0     H72277  -0.117  10.325  10.445 -0.7658 -1.6011 -0.7456
  548MOL0     H72278  -0.086  10.367  10.622 -1.6697  0.8768 -0.4597
  548MOL0     H72279  -0.264  10.149  10.535 -1.2570  0.3116  0.6076
  548MOL0     H72280  -0.258  10.230  10.698 -2.8254  0.2688  0.4271
  548MOL0     H72281  -0.352  10.361  10.449  0.9124  3.1841 -0.2091
  548MOL0     H72282  -0.324  10.441  10.599  2.8042 -0.6878 -1.4110
  548MOL0     H72283  -0.486  10.268  10.712 -3.1777 -0.0004  0.1164
  548MOL0     H72284  -0.538  10.239  10.546 -1.1248  0.8547  1.5646
  548MOL0     H72285  -0.535  10.523  10.661 -0.9860  0.6767 -1.9924
  548MOL0     H72286  -0.608  10.453  10.511 -0.2240  2.5024 -0.1240
  548MOL0     H72287  -0.731  10.512  10.749 -0.1878  0.2309 -0.8522
  548MOL0     H72288  -0.681  10.355  10.794  2.7000  2.2830  1.0746
  548MOL0     H72289  -0.924  10.516  10.526  1.9591  0.3526 -2.1876
  548MOL0     H72290  -1.197  10.264  10.423 -0.5055 -0.1114 -0.8582
  548MOL0     H72291  -1.081  10.246  10.304 -1.3462 -0.6038  0.5764
  548MOL0     H72292  -1.028  10.498  10.324  1.7752 -1.8097  0.3617
  548MOL0     H72293  -1.183  10.510  10.410  2.5389  1.4867  1.1405
  548MOL0     H72294  -1.151  10.406  10.128  0.6467 -1.5362  1.3330
  548MOL0     H72295  -1.293  10.365  10.226  0.9019 -0.2596  1.4920
  548MOL0     H72296  -1.322  10.557  10.070 -1.3321 -0.4895  0.6628
  548MOL0     H72297  -1.206  10.655  10.155 -1.5345  2.0757 -1.9682
  548MOL0     H72298  -1.516  10.701  10.467  0.9578  3.1302 -2.2744
  548MOL0     H72299  -1.777  10.666  10.499 -3.2882 -5.1883 -0.8489
  548MOL0     H72300  -2.217  10.752  10.130  2.1462 -0.2486 -0.2470
  548MOL0     H72301  -2.456  10.696  10.139 -0.3161  0.1452  0.4122
  548MOL0     H72302  -2.572  10.262  10.202 -1.4535 -0.1641 -0.2148
  548MOL0     H72303  -2.562  10.358  10.046  0.4680 -1.6982 -0.4378
  548MOL0     H72304  -2.798  10.314  10.232 -2.7946  1.4880 -1.3795
  548MOL0     H72305  -2.764  10.259  10.064  0.9459  1.4341 -1.6692
  548MOL0     H72306  -2.772  10.489   9.995  0.8891  2.9018  0.9838
  548MOL0     H72307  -2.809  10.546  10.155  2.4458 -0.5397  0.1021
  548MOL0     H72308  -2.964  10.352   9.975 -2.3718  0.0625  0.4495
  548MOL0     H72309  -3.035  10.388  10.128 -1.4548  2.1619 -0.5912
  548MOL0     H72310  -3.149  10.496   9.964 -0.9493  0.0533  0.5354
  548MOL0     H72311  -3.014  10.565   9.880  0.1648 -1.3785 -0.8704
  548MOL0     H72312  -2.955  10.723  10.072 -0.2054 -0.4664 -2.1922
  548MOL0     H72313  -3.074  10.649  10.173  0.8652  3.5367  1.6969
  548MOL0     H72314  -3.149  10.863  10.061 -3.5689  0.7965 -1.7937
  548MOL0     H72315  -3.160  10.785   9.914 -2.0722 -0.1936 -0.4198
  548MOL0     H72316  -3.302  10.706  10.165 -3.0009 -2.5880  0.3640
  548MOL0     H72317  -3.304  10.615  10.010  4.9864 -1.1420  1.4510
  548MOL0     H72318  -2.381  10.329  10.328 -2.0600 -0.7209 -2.1785
  548MOL0     H72319  -2.140  10.362  10.310 -2.1291 -2.0058  0.2855
  548MOL0     H72320  -1.786  10.500  10.109 -1.0537  0.0741  0.2490
  548MOL0     H72321  -1.541  10.528  10.076 -3.4781 -0.0653 -1.5654
  548MOL0     H72322   0.387  10.164  10.417  0.6022  0.0657 -0.5830
  548MOL0     H72323   0.573  10.226  10.280 -1.5843 -3.0939  0.6952
  548MOL0     H72324   0.903  10.646  10.231 -3.1164 -1.0224 -0.6234
  548MOL0     H72325   1.106  10.702  10.097 -0.1263 -0.9821  3.1552
  548MOL0     H72326   1.299  10.684   9.932 -0.4776 -2.2234 -0.9617
  548MOL0     H72327   1.173  10.788   9.844 -0.9641  0.9823 -3.4836
  548MOL0     H72328   1.373  10.614   9.706  1.2627  0.3075 -0.4641
  548MOL0     H72329   1.245  10.719   9.648 -3.3303 -1.4840  2.5017
  548MOL0     H72330   1.491  10.829   9.814  0.7040  1.1124 -0.4105
  548MOL0     H72331   1.360  10.920   9.731 -0.9322 -0.3487  2.3619
  548MOL0     H72332   1.465  10.814   9.508 -1.2708 -3.0046  1.6665
  548MOL0     H72333   1.550  10.945   9.585  0.6350  0.5014  1.8827
  548MOL0     H72334   1.827  10.651   9.667 -0.3956 -1.7172 -0.2765
  548MOL0     H72335   0.963  10.435   9.790  1.4456  1.9404 -0.1199
  548MOL0     H72336   0.749  10.409   9.906 -0.4409 -1.3888  0.8336
  549MOL0     O72337   0.930   7.119   5.134 -0.4241 -0.6484  0.5294
  549MOL0     C72338   0.943   7.156   5.019 -0.2549  1.2568  0.6543
  549MOL0     O72339   0.852   7.142   4.920 -0.2704 -0.1881 -0.1358
  549MOL0     C72340   0.719   7.112   4.955 -0.9983 -0.7792  0.3471
  549MOL0     C72341   0.655   7.022   4.878 -0.4332  0.3736  0.6413
  549MOL0     C72342   0.514   7.009   4.879 -0.2015 -0.4941 -0.9898
  549MOL0     C72343   0.438   7.088   4.973  0.9944 -0.0832  0.8927
  549MOL0     O72344   0.301   7.091   4.981 -0.1354  0.7124 -0.0547
  549MOL0     C72345   0.224   6.999   4.897  0.0092 -0.5335  0.5506
  549MOL0     C72346   0.082   7.002   4.947 -0.3237 -0.2493 -0.5262
  549MOL0     C72347  -0.022   6.935   4.854  0.5751  0.0822 -0.4401
  549MOL0     C72348  -0.167   6.940   4.918 -0.5706  0.8402 -0.3920
  549MOL0     C72349  -0.260   6.860   4.833  0.0769  0.8946  0.3648
  549MOL0     C72350  -0.396   6.896   4.867  0.5139 -0.6841  0.1324
  549MOL0     C72351  -0.502   6.815   4.791  0.1896  0.6977  0.1337
  549MOL0     C72352  -0.639   6.847   4.843  0.5616  0.1867  0.0646
  549MOL0     N72353  -0.667   6.750   4.944 -0.3322 -0.1062  0.2711
  549MOL0     C72354  -0.614   6.744   5.072  0.3228  0.0986  0.9105
  549MOL0     C72355  -0.690   6.650   5.134 -0.1494  1.0356  0.3744
  549MOL0     C72356  -0.699   6.621   5.282  0.1076  0.1792  0.8651
  549MOL0     C72357  -0.795   6.718   5.357  0.2223  0.6290  0.6338
  549MOL0     C72358  -0.941   6.683   5.323  0.8098  0.2760  0.8249
  549MOL0     C72359  -1.033   6.786   5.391 -0.4467 -0.0615 -0.3974
  549MOL0     O72360  -1.008   6.776   5.535  0.6333 -0.2700 -0.2629
  549MOL0     C72361  -1.101   6.704   5.613 -1.7084  0.2394  0.0060
  549MOL0     C72362  -1.113   6.564   5.607  0.5623  0.2683  0.2739
  549MOL0     C72363  -1.201   6.503   5.695  0.0804 -0.3697 -0.0456
  549MOL0     C72364  -1.289   6.571   5.780 -1.0250 -0.4891 -0.0197
  549MOL0     C72365  -1.381   6.499   5.875  1.0425 -0.7845 -0.0903
  549MOL0     O72366  -1.337   6.381   5.929  0.3994  0.2576  0.0839
  549MOL0     C72367  -1.411   6.294   6.011  0.2669 -1.1222 -0.5696
  549MOL0     C72368  -1.549   6.287   6.005 -1.4809  0.2248 -0.2703
  549MOL0     C72369  -1.626   6.193   6.074 -0.1152 -0.1911 -0.4862
  549MOL0     C72370  -1.557   6.114   6.158 -0.0142  0.5850 -1.5909
  549MOL0     O72371  -1.636   6.030   6.233  0.7146  0.3763  0.3338
  549MOL0     C72372  -1.577   5.960   6.342 -0.1725  0.4107  0.3844
  549MOL0     C72373  -1.673   5.869   6.418  0.2871 -0.2710  0.1239
  549MOL0     C72374  -1.736   5.763   6.328 -0.5362 -0.2561 -0.3489
  549MOL0     C72375  -1.834   5.675   6.406  0.0307 -0.0087  0.4045
  549MOL0     C72376  -1.946   5.761   6.452 -0.4293 -0.3621 -0.0621
  549MOL0     C72377  -2.070   5.668   6.464  0.0939  0.8782 -0.0882
  549MOL0     C72378  -2.184   5.742   6.536  0.8250 -0.2203  0.1713
  549MOL0     C72379  -2.307   5.650   6.532 -0.3961 -0.9526 -0.1367
  549MOL0    Cl72380  -2.457   5.733   6.577 -0.0199  0.1185 -0.6415
  549MOL0     C72381  -1.415   6.121   6.175  0.2788 -0.4832  0.4923
  549MOL0     C72382  -1.342   6.214   6.101 -0.1925 -0.7640 -0.0600
  549MOL0     O72383  -1.494   6.548   5.899 -0.3076 -0.4867 -0.2810
  549MOL0     C72384  -1.286   6.714   5.775  0.1518 -0.1888 -0.3367
  549MOL0     C72385  -1.188   6.781   5.699 -0.2378  0.9305 -0.0630
  549MOL0     N72386  -0.782   6.594   5.042 -0.1195 -0.3993  0.3038
  549MOL0     N72387  -0.759   6.654   4.929  0.3397  0.7376  0.2925
  549MOL0     C72388   0.503   7.174   5.059  0.7748  0.3187  0.3001
  549MOL0     C72389   0.641   7.187   5.045 -1.5806  0.0326 -0.4139
  549MOL0     C72390   1.076   7.206   4.978  0.5450  0.5387 -0.3434
  549MOL0     C72391   1.109   7.214   4.842  0.6360  0.1339 -0.7591
  549MOL0     C72392   1.232   7.258   4.801 -0.4007 -0.2496 -1.0482
  549MOL0     C72393   1.326   7.297   4.894  0.2536 -0.3304  0.9234
  549MOL0     O72394   1.450   7.341   4.846  0.3478 -0.5544  0.2676
  549MOL0     C72395   1.555   7.254   4.889  0.4227  0.6613 -0.0592
  549MOL0     C72396   1.685   7.319   4.848  0.6972 -0.1155  0.4151
  549MOL0     C72397   1.809   7.251   4.911 -0.2526 -0.5786 -0.4412
  549MOL0     C72398   1.935   7.320   4.867 -0.2376  0.9048  0.4865
  549MOL0     C72399   2.056   7.251   4.915  0.4735 -0.1089  0.3428
  549MOL0     C72400   2.148   7.185   4.972  0.4773 -0.4717  0.5031
  549MOL0     C72401   1.298   7.274   5.031 -0.3530 -0.1515 -1.1875
  549MOL0     C72402   1.173   7.243   5.076  0.9672  0.1002  0.0101
  549MOL0     H72403   0.703   6.967   4.797 -3.0788  0.0896 -0.8289
  549MOL0     H72404   0.475   6.923   4.825  2.7699 -3.6882  1.5199
  549MOL0     H72405   0.259   6.895   4.900 -1.7270 -1.1597  0.5330
  549MOL0     H72406   0.234   7.031   4.793  0.6010  1.0497  1.0689
  549MOL0     H72407   0.047   7.105   4.957  1.3298  0.3638 -0.6697
  549MOL0     H72408   0.075   6.962   5.048 -0.4299 -0.9637 -0.8127
  549MOL0     H72409   0.009   6.833   4.831  1.5843  0.3169 -0.1607
  549MOL0     H72410  -0.021   6.987   4.758 -0.9057  1.2011  0.1163
  549MOL0     H72411  -0.141   6.901   5.017  0.5016  1.5962 -0.3523
  549MOL0     H72412  -0.201   7.043   4.936  1.7339  1.2157  2.5712
  549MOL0     H72413  -0.242   6.753   4.847  0.2287  0.5854 -1.8333
  549MOL0     H72414  -0.245   6.878   4.726 -2.4752 -1.1038 -0.4550
  549MOL0     H72415  -0.416   7.003   4.861  0.3536 -0.6202  1.5143
  549MOL0     H72416  -0.401   6.881   4.975 -2.6608 -1.0571  0.0319
  549MOL0     H72417  -0.499   6.856   4.690 -0.1789  1.9638  0.6136
  549MOL0     H72418  -0.483   6.707   4.789  0.8459  0.7957 -2.9409
  549MOL0     H72419  -0.703   6.842   4.755  1.9695  2.1851 -1.1701
  549MOL0     H72420  -0.649   6.946   4.888  1.5298 -0.1120  0.9868
  549MOL0     H72421  -0.537   6.801   5.122  1.2722  0.6458 -1.0676
  549MOL0     H72422  -0.597   6.633   5.319 -0.2438 -4.2355  4.0910
  549MOL0     H72423  -0.728   6.516   5.291 -3.2106  0.9607  0.4826
  549MOL0     H72424  -0.775   6.821   5.328 -0.0093  1.0327  1.8412
  549MOL0     H72425  -0.779   6.705   5.465  0.8288  0.2860  0.5086
  549MOL0     H72426  -0.958   6.687   5.215  2.1388 -2.1447  0.4577
  549MOL0     H72427  -0.960   6.583   5.363  0.7970  0.5588  1.5374
  549MOL0     H72428  -1.138   6.758   5.397  0.2044 -2.5994  1.0935
  549MOL0     H72429  -1.017   6.886   5.351  2.1878 -0.5078 -0.6950
  549MOL0     H72430  -1.062   6.494   5.541 -0.0556 -0.8106  0.9169
  549MOL0     H72431  -1.204   6.395   5.693  1.3945 -0.4223 -0.5482
  549MOL0     H72432  -1.604   6.345   5.932  2.3111  2.6085 -1.5495
  549MOL0     H72433  -1.734   6.180   6.081 -0.3153  1.7359  1.2079
  549MOL0     H72434  -1.540   6.023   6.423  0.1086  0.0517  0.5395
  549MOL0     H72435  -1.492   5.898   6.311 -0.9670  0.6276 -2.6221
  549MOL0     H72436  -1.760   5.922   6.457  0.1773 -0.0244 -0.4322
  549MOL0     H72437  -1.623   5.821   6.502  0.4220 -0.1113  0.1352
  549MOL0     H72438  -1.655   5.694   6.302 -1.0446 -0.4880 -1.3467
  549MOL0     H72439  -1.780   5.815   6.243  0.0643  2.8082  1.0911
  549MOL0     H72440  -1.876   5.600   6.338 -2.2370  2.6004 -1.2802
  549MOL0     H72441  -1.777   5.628   6.487 -0.4060 -0.5580  0.4064
  549MOL0     H72442  -1.968   5.839   6.379  2.0213  2.3762  1.8751
  549MOL0     H72443  -1.923   5.807   6.549 -0.5899 -2.5423  1.0932
  549MOL0     H72444  -2.049   5.574   6.517  0.8664  0.1448 -1.6177
  549MOL0     H72445  -2.107   5.647   6.362 -0.3075  0.7310  0.0846
  549MOL0     H72446  -2.164   5.767   6.640 -1.4043  1.1226  0.3167
  549MOL0     H72447  -2.204   5.838   6.488  4.9517  1.2064  0.9062
  549MOL0     H72448  -2.300   5.584   6.619  1.4184  2.5201  2.5898
  549MOL0     H72449  -2.323   5.587   6.444 -2.5255 -3.0277  1.5724
  549MOL0     H72450  -1.367   6.066   6.255  1.4096  1.7876  1.4618
  549MOL0     H72451  -1.235   6.218   6.119  0.1920 -1.9839 -1.7938
  549MOL0     H72452  -1.360   6.768   5.833 -2.9144 -0.7634 -3.3657
  549MOL0     H72453  -1.171   6.888   5.702  0.8782  0.9298 -2.9819
  549MOL0     H72454   0.446   7.242   5.122 -0.4187  0.4271 -0.8482
  549MOL0     H72455   0.710   7.255   5.095  1.7265 -1.4438 -2.5737
  549MOL0     H72456   1.034   7.176   4.773 -0.9062 -1.7656  1.7854
  549MOL0     H72457   1.249   7.272   4.695 -1.7284 -2.3627 -1.6019
  549MOL0     H72458   1.529   7.156   4.847 -2.7695  1.9594 -1.4757
  549MOL0     H72459   1.555   7.245   4.998 -0.8290  0.8683 -0.0292
  549MOL0     H72460   1.683   7.306   4.740  2.6076 -4.3798  0.6937
  549MOL0     H72461   1.684   7.423   4.883  0.3268 -0.6221  1.9812
  549MOL0     H72462   1.825   7.148   4.880 -0.8571 -0.1150 -2.4545
  549MOL0     H72463   1.800   7.257   5.020 -0.0860 -1.4635 -0.3749
  549MOL0     H72464   1.941   7.313   4.758 -0.5044 -1.6753  0.5628
  549MOL0     H72465   1.942   7.426   4.893  2.5879  0.8158  0.4374
  549MOL0     H72466   2.229   7.136   5.022  0.3160 -3.4068 -1.8160
  549MOL0     H72467   1.358   7.303   5.116 -3.2652 -0.4010  1.0959
  549MOL0     H72468   1.142   7.237   5.180  0.4409 -1.8130 -0.2290
  550MOL0     O72469   6.435   1.764   9.616  0.2261 -0.1288  0.1919
  550MOL0     C72470   6.450   1.652   9.658  0.1609  0.7660  0.6547
  550MOL0     O72471   6.348   1.564   9.677 -0.7840 -0.2479  0.5592
  550MOL0     C72472   6.224   1.615   9.646 -0.2552 -0.4917  0.5214
  550MOL0     C72473   6.171   1.717   9.725 -0.0012 -0.0852  0.0350
  550MOL0     C72474   6.041   1.753   9.704  0.7752  0.7164  0.0268
  550MOL0     C72475   5.959   1.688   9.600 -0.2816 -0.4508 -0.6741
  550MOL0     O72476   5.830   1.726   9.579  0.0010  0.2155 -0.7170
  550MOL0     C72477   5.738   1.616   9.591  0.5050  0.0201  0.4232
  550MOL0     C72478   5.595   1.675   9.593 -0.3940 -0.1301 -0.0578
  550MOL0     C72479   5.475   1.570   9.609 -0.8793  0.5903  0.6275
  550MOL0     C72480   5.342   1.636   9.565 -0.2052 -0.1598 -0.0338
  550MOL0     C72481   5.226   1.556   9.623  0.0191  0.4992  0.7668
  550MOL0     C72482   5.099   1.637   9.590  0.3296 -0.1072  0.2406
  550MOL0     C72483   4.970   1.568   9.642  1.3160  0.1756  0.1518
  550MOL0     C72484   4.848   1.646   9.593  0.6149 -0.5005  0.5682
  550MOL0     N72485   4.854   1.792   9.625 -0.3853  0.1695  0.6032
  550MOL0     C72486   4.885   1.893   9.542 -0.8945  0.9785  0.1419
  550MOL0     C72487   4.903   2.004   9.617  0.1770  0.8743  0.1692
  550MOL0     C72488   4.945   2.137   9.579  0.1696 -0.4512 -0.6320
  550MOL0     C72489   5.092   2.155   9.605  0.1841 -0.3715 -0.0501
  550MOL0     C72490   5.122   2.249   9.726 -0.3505 -0.6339  0.5372
  550MOL0     C72491   5.266   2.293   9.729 -0.7929 -0.0879  0.7872
  550MOL0     O72492   5.354   2.180   9.739 -0.6415 -0.1368  0.4077
  550MOL0     C72493   5.490   2.201   9.733  0.4750  0.2949 -0.3983
  550MOL0     C72494   5.559   2.301   9.802  0.0162 -0.1685 -0.5682
  550MOL0     C72495   5.698   2.298   9.802 -1.7580 -0.8297  0.2453
  550MOL0     C72496   5.774   2.199   9.745 -0.1684 -0.2558 -0.1472
  550MOL0     C72497   5.921   2.217   9.749  0.7036  0.3843  0.4167
  550MOL0     O72498   6.005   2.130   9.686 -0.3108 -0.2099 -0.1705
  550MOL0     C72499   6.128   2.177   9.653 -0.2129 -0.1278  0.3693
  550MOL0     C72500   6.133   2.301   9.588 -0.3634  0.1469  1.1646
  550MOL0     C72501   6.260   2.359   9.548 -0.7180  0.0980  0.4349
  550MOL0     C72502   6.377   2.288   9.579  0.2825 -0.3891  0.3491
  550MOL0     O72503   6.495   2.339   9.531  0.1545  0.3057 -0.0215
  550MOL0     C72504   6.569   2.421   9.619 -0.5274 -0.0646 -0.1923
  550MOL0     C72505   6.613   2.351   9.753 -0.0100  0.1739  0.1370
  550MOL0     C72506   6.720   2.235   9.724 -0.2718 -1.1089  0.1477
  550MOL0     C72507   6.860   2.290   9.676  0.4193  0.0523  0.5409
  550MOL0     C72508   6.965   2.178   9.655 -0.3143 -0.4238 -0.0329
  550MOL0     C72509   6.938   2.087   9.539  0.3841 -0.5372 -0.3433
  550MOL0     C72510   7.080   2.028   9.507 -0.0905 -0.5072  0.2538
  550MOL0     C72511   7.090   1.945   9.383  0.4170  0.3544 -0.7166
  550MOL0    Cl72512   6.947   1.822   9.394 -0.1788  0.1892  0.0173
  550MOL0     C72513   6.373   2.159   9.643  0.1031 -0.0724  0.3025
  550MOL0     C72514   6.246   2.107   9.684 -0.0077  0.2194  0.6569
  550MOL0     O72515   5.964   2.316   9.812  0.2391 -0.2495  0.2133
  550MOL0     C72516   5.707   2.090   9.690 -0.4565 -0.8076 -0.5777
  550MOL0     C72517   5.569   2.085   9.695  0.1605  0.4048  0.1739
  550MOL0     N72518   4.874   1.966   9.753 -0.2931 -0.0946  0.5520
  550MOL0     N72519   4.851   1.840   9.753  0.5150 -0.4828  0.3631
  550MOL0     C72520   6.027   1.600   9.514  0.9419  0.1155 -0.3790
  550MOL0     C72521   6.156   1.565   9.535  0.2728 -0.1929  0.0893
  550MOL0     C72522   6.586   1.596   9.700  0.0965 -0.8040 -0.2496
  550MOL0     C72523   6.608   1.470   9.758  0.0613 -0.1663 -0.3891
  550MOL0     C72524   6.742   1.422   9.781 -0.0658 -0.4705  0.6481
  550MOL0     C72525   6.846   1.503   9.735  0.2586  0.0498 -0.4884
  550MOL0     O72526   6.965   1.438   9.760  0.4313 -0.0250  0.5875
  550MOL0     C72527   7.079   1.478   9.678  0.3155  0.8966  0.2304
  550MOL0     C72528   7.166   1.354   9.673 -0.3280 -0.2836 -0.3027
  550MOL0     C72529   7.223   1.312   9.806 -0.8977 -0.0897 -1.1845
  550MOL0     C72530   7.315   1.416   9.876 -0.8193 -0.4644 -0.7198
  550MOL0     C72531   7.241   1.517   9.955 -0.7231  0.1332  0.0195
  550MOL0     C72532   7.179   1.596  10.015 -0.4088 -0.5510  0.1124
  550MOL0     C72533   6.830   1.630   9.687  0.8247  0.4643 -0.4870
  550MOL0     C72534   6.701   1.680   9.660  0.8970  0.0221  0.0168
  550MOL0     H72535   6.234   1.765   9.799  0.3143  2.5800 -1.7937
  550MOL0     H72536   5.990   1.821   9.771 -0.2299 -0.5263  0.5639
  550MOL0     H72537   5.759   1.544   9.671  0.3806  0.7047  1.0856
  550MOL0     H72538   5.760   1.572   9.494  1.5690  0.2446  0.5483
  550MOL0     H72539   5.582   1.719   9.493 -0.8447 -0.5376 -0.1823
  550MOL0     H72540   5.588   1.747   9.675 -2.1180 -1.0171  0.6248
  550MOL0     H72541   5.467   1.533   9.712 -0.6384  2.4905  1.3652
  550MOL0     H72542   5.501   1.483   9.548  0.5756 -0.1337  2.1876
  550MOL0     H72543   5.339   1.736   9.610  4.7743 -0.1884  0.9147
  550MOL0     H72544   5.334   1.633   9.456 -1.9777 -1.1625  0.0913
  550MOL0     H72545   5.228   1.546   9.731 -0.3712  1.9414  0.9316
  550MOL0     H72546   5.217   1.455   9.581 -2.0179  0.7354  0.5174
  550MOL0     H72547   5.084   1.645   9.482 -3.6364  3.0133  0.7464
  550MOL0     H72548   5.104   1.740   9.627 -1.1284  0.5598 -1.2952
  550MOL0     H72549   4.970   1.464   9.610 -1.1634  0.3931 -0.8063
  550MOL0     H72550   4.971   1.582   9.751  1.4762 -0.3779  0.2211
  550MOL0     H72551   4.759   1.604   9.640  0.0889  0.4119  0.4135
  550MOL0     H72552   4.838   1.644   9.484  4.0759  1.1491  0.0652
  550MOL0     H72553   4.904   1.891   9.435  3.7995 -1.5554  0.7413
  550MOL0     H72554   4.886   2.210   9.634  0.3678 -1.3430  0.8107
  550MOL0     H72555   4.925   2.137   9.471  2.0338 -1.1216 -1.0051
  550MOL0     H72556   5.141   2.193   9.515  0.3014  1.4320  0.7301
  550MOL0     H72557   5.137   2.058   9.628 -0.3134 -0.6264 -0.1458
  550MOL0     H72558   5.057   2.337   9.713 -2.2782 -2.0195  0.2504
  550MOL0     H72559   5.104   2.199   9.822 -3.6271 -0.3587  0.1892
  550MOL0     H72560   5.292   2.364   9.808  0.4230  0.0692  0.2792
  550MOL0     H72561   5.291   2.340   9.634 -3.2107 -2.0336 -0.9176
  550MOL0     H72562   5.511   2.387   9.846  0.7292  0.2470 -0.5875
  550MOL0     H72563   5.750   2.387   9.836 -0.0980 -1.7971  0.3625
  550MOL0     H72564   6.044   2.351   9.550  0.9448  1.7378  0.0375
  550MOL0     H72565   6.258   2.457   9.500 -1.0529  0.6196  1.4955
  550MOL0     H72566   6.512   2.512   9.639 -1.0168 -0.7582  1.8049
  550MOL0     H72567   6.658   2.452   9.564  0.7242  0.0318  1.8131
  550MOL0     H72568   6.520   2.312   9.795  1.4724 -1.7349  1.8215
  550MOL0     H72569   6.649   2.421   9.830  0.9557 -0.7160  0.5144
  550MOL0     H72570   6.676   2.168   9.650 -0.7591  0.1557 -0.7457
  550MOL0     H72571   6.722   2.177   9.817 -2.4618 -0.8996  0.3776
  550MOL0     H72572   6.850   2.344   9.581  1.2193  0.6180  0.7706
  550MOL0     H72573   6.891   2.363   9.750  2.1638  0.3537 -0.4336
  550MOL0     H72574   6.976   2.120   9.747  0.6989 -3.2511 -1.8279
  550MOL0     H72575   7.062   2.229   9.643  0.1946 -1.1791  0.7319
  550MOL0     H72576   6.887   2.142   9.459  1.6675  0.1864 -0.6905
  550MOL0     H72577   6.869   2.012   9.579 -1.0958  0.3225 -1.1944
  550MOL0     H72578   7.153   2.108   9.498 -1.1230  0.5073  0.6982
  550MOL0     H72579   7.115   1.960   9.585 -0.4239 -1.7943 -0.6735
  550MOL0     H72580   7.184   1.892   9.370  0.4720  0.9349 -3.2347
  550MOL0     H72581   7.083   2.006   9.292 -0.8010 -0.1193 -0.9690
  550MOL0     H72582   6.465   2.102   9.648 -0.8825 -1.6366  1.2560
  550MOL0     H72583   6.235   2.009   9.729 -0.9995  0.3409  0.6959
  550MOL0     H72584   5.778   2.015   9.656  0.4022  0.9929 -3.0039
  550MOL0     H72585   5.514   1.999   9.659  0.1392  0.5630 -0.1775
  550MOL0     H72586   5.986   1.561   9.422  0.3679  2.0007 -0.9830
  550MOL0     H72587   6.194   1.494   9.463  0.4194  0.9605 -1.0140
  550MOL0     H72588   6.528   1.412   9.804 -0.3812  0.9320  0.2816
  550MOL0     H72589   6.760   1.328   9.832 -2.4748  0.0590  2.6967
  550MOL0     H72590   7.136   1.567   9.709 -0.2261  2.0063 -1.7642
  550MOL0     H72591   7.041   1.497   9.577 -0.5219  0.1789  0.4016
  550MOL0     H72592   7.126   1.264   9.625 -0.0127  0.0807 -1.2583
  550MOL0     H72593   7.256   1.376   9.615  0.6451 -0.3015  1.1553
  550MOL0     H72594   7.284   1.226   9.776 -2.0867 -1.5842  0.4396
  550MOL0     H72595   7.154   1.273   9.882  0.7637 -1.1881 -0.1793
  550MOL0     H72596   7.376   1.356   9.944 -2.5117 -1.6263 -0.1867
  550MOL0     H72597   7.375   1.476   9.806 -0.5322  1.2725  0.9259
  550MOL0     H72598   7.107   1.654  10.070 -0.9216 -0.5110 -0.5932
  550MOL0     H72599   6.919   1.687   9.664 -1.3557  4.1843 -0.5319
  550MOL0     H72600   6.689   1.777   9.613 -1.8337 -0.4367 -0.3892
  551MOL0     O72601   7.993   1.824  10.047  0.2868  0.9589  0.0118
  551MOL0     C72602   7.950   1.883   9.949 -0.7877 -0.2534  0.1754
  551MOL0     O72603   7.817   1.905   9.926 -0.6242  0.1007  0.4999
  551MOL0     C72604   7.728   1.899  10.028 -1.3792 -0.1708 -0.2629
  551MOL0     C72605   7.608   1.848  10.001  0.1359 -0.2117 -0.0980
  551MOL0     C72606   7.515   1.834  10.101 -0.8830  0.6387  0.3411
  551MOL0     C72607   7.541   1.866  10.235 -1.0133  0.2389  0.2477
  551MOL0     O72608   7.466   1.836  10.346  0.0809 -0.4657 -0.8170
  551MOL0     C72609   7.393   1.713  10.336  0.1911  0.0583 -0.5324
  551MOL0     C72610   7.332   1.673  10.472  0.2699 -0.1181 -0.7194
  551MOL0     C72611   7.256   1.542  10.475  0.3702  0.2503  0.4800
  551MOL0     C72612   7.110   1.557  10.436  0.7757 -0.8888  0.0954
  551MOL0     C72613   7.064   1.457  10.334 -0.4340 -0.0286  0.7922
  551MOL0     C72614   6.921   1.500  10.290 -0.1723  0.0160  0.2105
  551MOL0     C72615   6.847   1.397  10.210 -0.0553  0.0803  0.3314
  551MOL0     C72616   6.701   1.436  10.184  0.6632 -0.9331 -0.8126
  551MOL0     N72617   6.616   1.328  10.121  0.3909 -0.3945 -0.3399
  551MOL0     C72618   6.478   1.336  10.117  0.6518  1.5788 -0.8419
  551MOL0     C72619   6.440   1.241  10.026 -0.0745  1.0920  0.2171
  551MOL0     C72620   6.309   1.220   9.965  0.9853  0.0048  0.4338
  551MOL0     C72621   6.205   1.324   9.989  0.3947  0.4018  0.6850
  551MOL0     C72622   6.089   1.303   9.886  0.8593  0.3943  0.0110
  551MOL0     C72623   5.986   1.410   9.920  0.5222  0.2010 -0.5934
  551MOL0     O72624   5.917   1.376  10.038 -0.9061  0.2787 -0.1720
  551MOL0     C72625   5.784   1.371  10.035 -0.2477  0.5388  0.1386
  551MOL0     C72626   5.722   1.263  10.099  1.4454 -0.3807 -0.5059
  551MOL0     C72627   5.584   1.261  10.110  0.7638  0.0462 -0.1947
  551MOL0     C72628   5.505   1.361  10.053  0.8368  0.1050 -1.1458
  551MOL0     C72629   5.360   1.370  10.061 -0.4829 -0.2392 -0.1995
  551MOL0     O72630   5.303   1.257  10.069  0.5572  0.1159  0.2111
  551MOL0     C72631   5.166   1.259  10.081  0.3228  1.5097 -0.4832
  551MOL0     C72632   5.104   1.236  10.204 -0.4545 -0.7718 -0.0697
  551MOL0     C72633   4.969   1.235  10.212  0.7903  0.3038  0.0346
  551MOL0     C72634   4.885   1.249  10.104 -0.0601  0.1311  0.0714
  551MOL0     O72635   4.753   1.269  10.109  0.6059 -0.0875  0.6855
  551MOL0     C72636   4.684   1.285  10.231 -0.0905 -0.5136 -0.0632
  551MOL0     C72637   4.533   1.313  10.219 -1.2451 -0.2359  0.2849
  551MOL0     C72638   4.460   1.183  10.204  0.5927  0.1430  0.1086
  551MOL0     C72639   4.314   1.188  10.169  0.8332 -0.2166  0.0151
  551MOL0     C72640   4.284   1.307  10.073  0.2941  0.0904 -0.3960
  551MOL0     C72641   4.141   1.326  10.021  0.5753  0.3821 -0.4533
  551MOL0     C72642   4.092   1.188   9.966 -0.3431  0.0314  0.5847
  551MOL0     C72643   3.966   1.226   9.878  0.6929 -0.2986  0.3540
  551MOL0    Cl72644   3.888   1.082   9.828 -0.4580  0.1216 -0.0676
  551MOL0     C72645   4.943   1.263   9.982 -0.7501  0.1263  0.4492
  551MOL0     C72646   5.078   1.260   9.966 -0.3308  0.1680  0.2018
  551MOL0     O72647   5.305   1.478  10.055  0.0769  0.1374 -0.4049
  551MOL0     C72648   5.566   1.460   9.993  0.0864 -0.7974 -0.0161
  551MOL0     C72649   5.702   1.476   9.994 -0.5359  0.6289 -0.8597
  551MOL0     N72650   6.553   1.176   9.976 -0.1672 -0.0731  0.8651
  551MOL0     N72651   6.655   1.226  10.041  0.2449 -1.0151 -0.2392
  551MOL0     C72652   7.666   1.927  10.263  0.0196  0.5741 -0.9525
  551MOL0     C72653   7.756   1.940  10.157 -1.2081  0.3194  0.0597
  551MOL0     C72654   8.050   1.928   9.850  0.5113 -0.6302  0.0811
  551MOL0     C72655   8.181   1.899   9.877 -0.4735 -1.3073 -0.4766
  551MOL0     C72656   8.281   1.939   9.796 -0.1871  0.2077  1.1750
  551MOL0     C72657   8.257   2.007   9.682  0.1916  0.0192 -0.2400
  551MOL0     O72658   8.368   2.044   9.613 -0.0513  0.2294  0.0074
  551MOL0     C72659   8.345   2.078   9.470  0.3604  0.3593  0.2903
  551MOL0     C72660   8.467   2.138   9.411  0.3296 -0.2975  0.1031
  551MOL0     C72661   8.501   2.272   9.480  0.9750 -0.0067 -0.7947
  551MOL0     C72662   8.622   2.328   9.401 -0.4399  0.7103  0.4345
  551MOL0     C72663   8.740   2.239   9.418  0.4450  0.1163 -0.1373
  551MOL0     C72664   8.831   2.168   9.432 -1.0675 -1.0646 -0.3916
  551MOL0     C72665   8.124   2.035   9.651 -0.3037 -0.1511 -0.6242
  551MOL0     C72666   8.017   2.004   9.734 -0.4894 -0.0899 -0.3305
  551MOL0     H72667   7.575   1.814   9.904  2.0380 -0.6285 -0.6505
  551MOL0     H72668   7.413   1.799  10.092 -1.9899  3.5056  0.8027
  551MOL0     H72669   7.447   1.629  10.292 -0.8355  0.7925 -3.4206
  551MOL0     H72670   7.301   1.725  10.277 -0.8744 -0.5230  0.9343
  551MOL0     H72671   7.258   1.751  10.493 -0.4063 -1.1494  0.9748
  551MOL0     H72672   7.410   1.678  10.549  0.9288  2.7135 -1.4495
  551MOL0     H72673   7.253   1.497  10.575 -0.7127 -2.1772 -0.5579
  551MOL0     H72674   7.300   1.469  10.406 -1.2353  1.4105 -1.8886
  551MOL0     H72675   7.045   1.546  10.523 -0.2204  2.2832 -0.1276
  551MOL0     H72676   7.087   1.659  10.401  2.5846 -1.0956 -1.9317
  551MOL0     H72677   7.062   1.356  10.375  1.3145 -1.1042 -1.5241
  551MOL0     H72678   7.131   1.452  10.248  0.8856 -0.3604  1.8053
  551MOL0     H72679   6.925   1.598  10.241  0.1808 -0.5997 -1.0558
  551MOL0     H72680   6.859   1.515  10.378  0.6354 -0.0190  0.7929
  551MOL0     H72681   6.896   1.387  10.113  1.8809  2.9865  0.9158
  551MOL0     H72682   6.855   1.293  10.245  1.1554 -0.7214 -2.0857
  551MOL0     H72683   6.690   1.523  10.119 -0.2366 -0.7687 -0.4582
  551MOL0     H72684   6.650   1.473  10.274 -1.3490  0.6252 -2.4785
  551MOL0     H72685   6.411   1.400  10.174 -1.1118  1.4377 -2.6590
  551MOL0     H72686   6.274   1.131  10.018  1.7624  0.0201  0.9779
  551MOL0     H72687   6.324   1.188   9.861  3.7920 -1.9437  1.3298
  551MOL0     H72688   6.250   1.423   9.978 -0.3704  0.6176 -0.7349
  551MOL0     H72689   6.174   1.316  10.093  0.6784  1.5059  0.8728
  551MOL0     H72690   6.128   1.308   9.784  1.2886 -2.3379 -0.0325
  551MOL0     H72691   6.046   1.202   9.883  0.2246  0.6765 -0.8277
  551MOL0     H72692   5.919   1.432   9.837 -3.4962  0.1460  2.3051
  551MOL0     H72693   6.038   1.500   9.954 -1.5078  0.2571  2.8522
  551MOL0     H72694   5.775   1.189  10.158  1.8052  1.1879  1.2615
  551MOL0     H72695   5.531   1.186  10.168 -0.9927  1.4439  0.0873
  551MOL0     H72696   5.166   1.219  10.291 -1.2912 -1.5260  0.3914
  551MOL0     H72697   4.923   1.211  10.307 -1.6059 -2.9386 -1.7166
  551MOL0     H72698   4.737   1.362  10.288  0.8776 -0.0221 -1.5706
  551MOL0     H72699   4.699   1.192  10.287 -1.4404 -0.7977 -0.1321
  551MOL0     H72700   4.526   1.363  10.122  0.4340 -2.8377 -1.3170
  551MOL0     H72701   4.496   1.382  10.295 -1.9549  1.9699 -1.9396
  551MOL0     H72702   4.464   1.136  10.303  2.7709  0.9433  0.4503
  551MOL0     H72703   4.506   1.120  10.127 -3.6093 -3.3845  0.0794
  551MOL0     H72704   4.278   1.093  10.129  1.3131 -1.3792  2.1726
  551MOL0     H72705   4.252   1.204  10.257 -0.7052 -0.7185 -0.9328
  551MOL0     H72706   4.347   1.303   9.984  1.7368  0.0884  0.5917
  551MOL0     H72707   4.304   1.402  10.125 -1.2424  0.2335 -0.0224
  551MOL0     H72708   4.118   1.405   9.949 -2.6614 -1.9385 -2.2182
  551MOL0     H72709   4.083   1.338  10.113 -1.6992  1.7634 -1.9761
  551MOL0     H72710   4.167   1.138   9.904 -1.8558 -1.2526 -0.3064
  551MOL0     H72711   4.064   1.127  10.053  0.4158  1.7923  2.1043
  551MOL0     H72712   3.996   1.285   9.791 -4.6372 -0.0283 -1.6312
  551MOL0     H72713   3.897   1.290   9.934  0.2611 -0.3116 -0.1530
  551MOL0     H72714   4.882   1.278   9.893 -3.6425  2.2863  2.6015
  551MOL0     H72715   5.125   1.282   9.870  1.2471 -1.1726  0.6404
  551MOL0     H72716   5.517   1.549   9.953  2.1259 -0.3443 -1.6870
  551MOL0     H72717   5.759   1.556   9.948  2.4088 -1.5068 -1.1870
  551MOL0     H72718   7.706   1.951  10.361  0.9950 -0.9868 -0.9333
  551MOL0     H72719   7.859   1.971  10.172 -0.3643 -0.4375 -3.2931
  551MOL0     H72720   8.217   1.849   9.966 -0.5053 -0.2106  0.1742
  551MOL0     H72721   8.385   1.928   9.824  0.6833  2.1357 -0.9464
  551MOL0     H72722   8.258   2.142   9.451 -0.3362 -0.3619  0.9919
  551MOL0     H72723   8.319   1.982   9.423 -0.4940 -0.5796  2.5567
  551MOL0     H72724   8.548   2.065   9.421  0.0856 -0.5137  0.5195
  551MOL0     H72725   8.452   2.157   9.304  0.1583 -2.0032 -0.2036
  551MOL0     H72726   8.537   2.255   9.582 -1.5633  0.8354  0.3239
  551MOL0     H72727   8.414   2.338   9.475  0.2138 -1.0636 -2.3886
  551MOL0     H72728   8.600   2.338   9.294 -0.9344  0.3011  0.4904
  551MOL0     H72729   8.647   2.425   9.445  1.0422 -0.0433  1.3159
  551MOL0     H72730   8.917   2.108   9.455 -0.4822 -0.3876 -0.8094
  551MOL0     H72731   8.112   2.100   9.565  0.0128 -1.9884 -2.1165
  551MOL0     H72732   7.918   2.032   9.700 -0.8485 -0.8641  0.0463
  552MOL0     O72733   4.634   3.251   2.620 -0.6751  0.2417 -0.0431
  552MOL0     C72734   4.709   3.165   2.580 -0.3847 -0.5688  0.3975
  552MOL0     O72735   4.674   3.071   2.491 -0.0185  0.5099 -0.4371
  552MOL0     C72736   4.558   3.090   2.426 -0.1367 -0.6538  0.6389
  552MOL0     C72737   4.428   3.053   2.476 -0.3548 -0.2844 -0.2106
  552MOL0     C72738   4.310   3.064   2.397 -0.1064  0.5819 -0.7298
  552MOL0     C72739   4.315   3.125   2.273  0.0743 -0.3388 -0.6127
  552MOL0     O72740   4.208   3.121   2.186  0.9644 -0.3373 -0.3286
  552MOL0     C72741   4.182   3.249   2.130  0.7939  0.3855  0.4094
  552MOL0     C72742   4.044   3.239   2.075  0.9470  0.5720 -0.0583
  552MOL0     C72743   3.929   3.239   2.178 -0.2696  0.0772  0.7947
  552MOL0     C72744   3.797   3.239   2.100 -0.3672 -0.6234 -0.8734
  552MOL0     C72745   3.681   3.259   2.191 -0.4348 -0.1456 -0.6982
  552MOL0     C72746   3.549   3.279   2.115 -0.1737  0.3889 -0.2151
  552MOL0     C72747   3.425   3.260   2.209  0.6550 -0.1637 -0.0981
  552MOL0     C72748   3.375   3.117   2.195 -0.3264 -1.0317 -0.3954
  552MOL0     N72749   3.253   3.099   2.274 -0.0409  0.4048  0.8493
  552MOL0     C72750   3.226   3.119   2.413 -0.4129  1.2521 -0.6664
  552MOL0     C72751   3.093   3.101   2.429  0.0838 -0.7988 -0.3040
  552MOL0     C72752   3.008   3.122   2.553 -0.4543 -0.7048 -0.1125
  552MOL0     C72753   2.916   3.003   2.587 -0.3588 -0.3538  0.1053
  552MOL0     C72754   2.825   3.024   2.706  0.2759  0.9092 -0.3827
  552MOL0     C72755   2.707   2.934   2.704 -0.0984  0.1274 -0.3430
  552MOL0     O72756   2.634   2.943   2.833  0.1727 -0.1073  0.3688
  552MOL0     C72757   2.511   2.878   2.841  0.9584  0.8443 -0.3081
  552MOL0     C72758   2.421   2.924   2.934 -0.1299 -0.4463  0.8818
  552MOL0     C72759   2.294   2.866   2.956  0.9909  0.2408  0.5497
  552MOL0     C72760   2.253   2.754   2.887 -0.4424  0.5497 -0.3520
  552MOL0     C72761   2.125   2.680   2.902  0.4392 -0.6978  0.0839
  552MOL0     O72762   2.040   2.723   2.995 -0.0740  0.3989  0.9851
  552MOL0     C72763   1.914   2.676   3.002  0.0086  0.8481 -0.4130
  552MOL0     C72764   1.824   2.705   2.897  0.5681  0.0043 -0.0864
  552MOL0     C72765   1.688   2.661   2.912 -0.4758 -0.3218 -0.8548
  552MOL0     C72766   1.639   2.586   3.020 -0.4384  0.1475  0.2153
  552MOL0     O72767   1.511   2.532   3.023  0.0994 -0.6339 -0.1164
  552MOL0     C72768   1.446   2.505   2.891 -0.1168 -0.7693  1.4138
  552MOL0     C72769   1.522   2.402   2.797 -0.1495  0.7712  0.5759
  552MOL0     C72770   1.474   2.369   2.646 -1.0309 -0.1243  0.2033
  552MOL0     C72771   1.454   2.496   2.559 -0.1608 -0.1776 -0.0254
  552MOL0     C72772   1.367   2.443   2.442  0.0012  0.1786  0.0178
  552MOL0     C72773   1.339   2.554   2.345 -0.1744  0.5393  0.2184
  552MOL0     C72774   1.307   2.489   2.213 -1.0556  0.7342 -0.7333
  552MOL0     C72775   1.251   2.587   2.105 -0.0715  1.0087 -0.4625
  552MOL0    Cl72776   1.215   2.489   1.956 -0.1145 -0.0068 -0.1682
  552MOL0     C72777   1.733   2.568   3.122  0.2044 -0.1960  0.1902
  552MOL0     C72778   1.864   2.603   3.111 -0.1294 -0.2087 -0.0450
  552MOL0     O72779   2.097   2.580   2.829 -0.0774  0.5282 -0.0475
  552MOL0     C72780   2.343   2.711   2.780 -0.2167  0.2942 -0.3597
  552MOL0     C72781   2.472   2.769   2.759 -0.5774 -0.9032 -0.3211
  552MOL0     N72782   3.042   3.067   2.304 -1.1611  0.0617  0.2842
  552MOL0     N72783   3.140   3.051   2.222 -0.4595  0.8311  0.7545
  552MOL0     C72784   4.441   3.169   2.223  0.2388  0.1908  0.1866
  552MOL0     C72785   4.555   3.149   2.295  0.8085  0.2157  0.1960
  552MOL0     C72786   4.858   3.180   2.612  0.2573 -0.5578 -1.3179
  552MOL0     C72787   4.938   3.062   2.628  0.3113  0.1647  1.1157
  552MOL0     C72788   5.071   3.076   2.671  0.0378  0.0319  0.7210
  552MOL0     C72789   5.131   3.203   2.671 -0.2608 -0.0274 -0.0753
  552MOL0     O72790   5.260   3.219   2.704 -0.4106 -0.4386 -0.1413
  552MOL0     C72791   5.277   3.240   2.845 -0.2208  0.4844  0.3423
  552MOL0     C72792   5.416   3.309   2.859 -0.2655  1.0434  0.2826
  552MOL0     C72793   5.539   3.234   2.801  0.6874  0.8530 -0.0518
  552MOL0     C72794   5.621   3.165   2.900 -0.9462  0.7890 -0.4411
  552MOL0     C72795   5.726   3.083   2.832  0.0927 -0.1292  0.2103
  552MOL0     C72796   5.794   3.014   2.768 -0.0990  0.3335  0.3430
  552MOL0     C72797   5.061   3.315   2.637  0.5223  0.1532  0.5294
  552MOL0     C72798   4.921   3.305   2.606 -0.3291 -0.1830 -0.6000
  552MOL0     H72799   4.421   3.015   2.577 -0.2663 -1.9497 -0.8021
  552MOL0     H72800   4.219   3.013   2.427 -0.4661  0.9193 -1.2207
  552MOL0     H72801   4.247   3.268   2.044 -1.5803 -1.2704 -1.9243
  552MOL0     H72802   4.196   3.326   2.206  3.7896 -1.2993  1.7618
  552MOL0     H72803   4.036   3.149   2.014 -1.8854 -1.1182  2.4964
  552MOL0     H72804   4.028   3.319   2.003 -1.2578 -0.3245 -0.6401
  552MOL0     H72805   3.943   3.335   2.229 -0.7703  1.1107 -0.9118
  552MOL0     H72806   3.942   3.158   2.250  0.5978 -0.0994  0.4487
  552MOL0     H72807   3.798   3.322   2.029 -2.1658 -2.4020 -3.1265
  552MOL0     H72808   3.773   3.141   2.058 -3.0870 -1.3120  1.8755
  552MOL0     H72809   3.706   3.341   2.260  0.9252 -0.7755 -0.4212
  552MOL0     H72810   3.668   3.167   2.248  2.2395 -0.3446 -0.2993
  552MOL0     H72811   3.546   3.226   2.019 -1.3612  1.6854 -0.9145
  552MOL0     H72812   3.549   3.383   2.081 -0.8438 -0.3900 -2.8294
  552MOL0     H72813   3.458   3.289   2.309  1.5117 -0.9978 -0.1303
  552MOL0     H72814   3.338   3.322   2.185 -1.5141 -2.3761  1.4952
  552MOL0     H72815   3.453   3.049   2.228 -2.0144 -3.0972 -0.4700
  552MOL0     H72816   3.353   3.103   2.089  1.4480 -1.7960 -0.6882
  552MOL0     H72817   3.296   3.140   2.493 -0.1166  0.4282 -0.6929
  552MOL0     H72818   2.950   3.214   2.541  0.9787  0.4182  1.2051
  552MOL0     H72819   3.068   3.150   2.640 -3.0133  0.1945  1.4982
  552MOL0     H72820   2.969   2.909   2.602  0.0563 -0.2567 -0.6723
  552MOL0     H72821   2.850   2.984   2.501 -1.4055 -0.4078  0.8989
  552MOL0     H72822   2.881   3.015   2.800  1.8842  0.9996 -1.3045
  552MOL0     H72823   2.778   3.122   2.694 -2.8676 -0.5232 -0.7256
  552MOL0     H72824   2.737   2.832   2.677 -2.3277 -0.5070 -0.6462
  552MOL0     H72825   2.649   2.971   2.620  1.6311  2.4993 -0.6039
  552MOL0     H72826   2.428   3.020   2.985 -1.7094 -1.3606  2.9826
  552MOL0     H72827   2.225   2.915   3.024 -2.0312  0.8972 -2.6692
  552MOL0     H72828   1.840   2.767   2.809 -1.8164  0.2977 -0.3945
  552MOL0     H72829   1.623   2.683   2.828 -1.3439  1.3755  0.2078
  552MOL0     H72830   1.430   2.602   2.844 -0.1722 -1.1605  0.6136
  552MOL0     H72831   1.352   2.456   2.917  0.9058 -2.6098  1.7858
  552MOL0     H72832   1.516   2.314   2.861 -2.0789 -0.2468 -0.8824
  552MOL0     H72833   1.631   2.409   2.796  0.3268 -3.7649  1.5486
  552MOL0     H72834   1.388   2.303   2.662 -0.5378 -0.6273  0.8678
  552MOL0     H72835   1.542   2.301   2.594  1.4079  2.2136  0.1045
  552MOL0     H72836   1.390   2.577   2.596  0.6194 -0.2323  1.4948
  552MOL0     H72837   1.549   2.542   2.530  0.9819 -2.3776  0.0036
  552MOL0     H72838   1.278   2.395   2.483 -0.9545  1.8547  0.0085
  552MOL0     H72839   1.429   2.366   2.395  2.4478  1.9859  0.0506
  552MOL0     H72840   1.428   2.616   2.333 -1.0890  2.5069  2.8556
  552MOL0     H72841   1.264   2.624   2.381 -0.5564  0.5406 -0.5518
  552MOL0     H72842   1.396   2.439   2.173  0.1054  2.7998 -0.8637
  552MOL0     H72843   1.228   2.414   2.228  0.0553 -0.3963 -0.3315
  552MOL0     H72844   1.332   2.657   2.086  1.1791  0.0919  1.2181
  552MOL0     H72845   1.165   2.645   2.142 -0.6979 -0.6307  0.7803
  552MOL0     H72846   1.703   2.523   3.216 -1.0681  0.5554  0.1530
  552MOL0     H72847   1.935   2.588   3.192 -0.1430  0.4740  0.1020
  552MOL0     H72848   2.314   2.625   2.720 -2.0322 -0.4014  1.4189
  552MOL0     H72849   2.540   2.723   2.688  0.2850 -0.4694  0.2043
  552MOL0     H72850   4.451   3.207   2.122 -0.2455  1.1918  0.5094
  552MOL0     H72851   4.645   3.189   2.249  0.9541  1.8081  1.7572
  552MOL0     H72852   4.881   2.970   2.624 -1.9547  1.5123 -1.5033
  552MOL0     H72853   5.138   2.997   2.705  1.0506  0.9414  0.9153
  552MOL0     H72854   5.275   3.141   2.893  3.2444  0.4592  0.6828
  552MOL0     H72855   5.198   3.306   2.882 -2.3438 -0.5536 -2.0098
  552MOL0     H72856   5.404   3.410   2.820  0.5713  1.2485  0.5323
  552MOL0     H72857   5.437   3.317   2.966  1.2119 -0.7061  0.1664
  552MOL0     H72858   5.590   3.323   2.764 -1.9472  3.9524  2.9936
  552MOL0     H72859   5.512   3.164   2.721  1.3908  2.4296 -1.7365
  552MOL0     H72860   5.670   3.238   2.966  0.2539 -0.3879  0.0060
  552MOL0     H72861   5.565   3.092   2.959 -0.1697  1.1006  0.7091
  552MOL0     H72862   5.841   2.945   2.700 -1.2076  0.0899 -0.2126
  552MOL0     H72863   5.111   3.411   2.634  2.7737 -0.9484 -0.1856
  552MOL0     H72864   4.867   3.394   2.578 -2.7737 -1.1924  0.6348
  553MOL0     O72865   3.713   1.856   6.032 -0.3755  0.1032 -0.1646
  553MOL0     C72866   3.668   1.902   5.929  0.0436 -0.2791  0.5755
  553MOL0     O72867   3.560   1.857   5.859  1.2098 -0.3657 -0.4450
  553MOL0     C72868   3.482   1.743   5.899 -0.1511 -0.7193 -0.0145
  553MOL0     C72869   3.502   1.653   5.995  0.3888  0.1054  0.2520
  553MOL0     C72870   3.424   1.534   6.004 -0.6485  0.9073 -0.5682
  553MOL0     C72871   3.327   1.498   5.913  0.2112  0.8159 -0.1353
  553MOL0     O72872   3.270   1.377   5.927  0.0883 -0.0964  0.0622
  553MOL0     C72873   3.158   1.348   5.845  0.2857 -0.3493  0.7691
  553MOL0     C72874   3.040   1.428   5.898 -0.2788 -0.3431  0.3226
  553MOL0     C72875   2.919   1.388   5.814 -0.0659 -0.8837 -0.7090
  553MOL0     C72876   2.802   1.471   5.872  1.0821  0.6317 -0.5157
  553MOL0     C72877   2.664   1.401   5.821  0.4376 -0.5897 -0.2998
  553MOL0     C72878   2.644   1.407   5.670  0.0233  0.6988  0.1426
  553MOL0     C72879   2.516   1.345   5.620 -0.7715 -0.3820 -0.0744
  553MOL0     C72880   2.387   1.396   5.673 -0.0755 -0.2713  0.0484
  553MOL0     N72881   2.269   1.341   5.599 -0.0080  0.9276  0.3648
  553MOL0     C72882   2.203   1.386   5.483 -0.0686 -0.3656 -0.0229
  553MOL0     C72883   2.095   1.316   5.479 -0.1669 -0.0061 -0.5568
  553MOL0     C72884   1.999   1.322   5.362  0.5030 -0.0413 -0.0345
  553MOL0     C72885   1.860   1.270   5.399 -0.2534  0.0049  0.3981
  553MOL0     C72886   1.760   1.315   5.288  0.3140  0.2561  0.8073
  553MOL0     C72887   1.814   1.307   5.140 -0.7063 -0.0423  0.0352
  553MOL0     O72888   1.707   1.290   5.048 -0.3547 -0.1373  0.5413
  553MOL0     C72889   1.604   1.383   5.062  0.0563  0.2226 -0.4748
  553MOL0     C72890   1.483   1.318   5.062  0.7436  0.1153 -1.1331
  553MOL0     C72891   1.365   1.387   5.067  0.0330 -1.0970 -0.2783
  553MOL0     C72892   1.371   1.528   5.076  0.5212 -0.4819  0.3777
  553MOL0     C72893   1.247   1.613   5.062 -0.0103  0.7301  0.1373
  553MOL0     O72894   1.139   1.548   5.028  0.0995  0.3038  0.7615
  553MOL0     C72895   1.024   1.621   5.009  0.4199  0.1934  0.2999
  553MOL0     C72896   0.962   1.627   4.882  0.5673 -0.8832 -0.5874
  553MOL0     C72897   0.845   1.697   4.871  0.5880 -0.6026 -0.0819
  553MOL0     C72898   0.770   1.759   4.976  0.0061  0.2010 -0.1097
  553MOL0     O72899   0.648   1.818   4.982  0.1443 -0.2493 -0.1325
  553MOL0     C72900   0.558   1.781   4.883 -0.2899 -0.2915 -1.0133
  553MOL0     C72901   0.415   1.832   4.909  0.6036  0.5416 -0.5845
  553MOL0     C72902   0.306   1.790   4.819 -0.0023 -0.4826 -0.2510
  553MOL0     C72903   0.311   1.815   4.665  0.5300 -0.1756  0.6698
  553MOL0     C72904   0.316   1.968   4.642  0.3214  0.0362 -0.3644
  553MOL0     C72905   0.279   1.987   4.502 -0.0341 -0.5551 -0.4633
  553MOL0     C72906   0.271   2.134   4.462 -0.8289 -0.5886 -0.5469
  553MOL0     C72907   0.253   2.143   4.315  0.0979 -0.6309  0.2468
  553MOL0    Cl72908   0.395   2.110   4.227 -0.2640  0.1564 -0.2289
  553MOL0     C72909   0.829   1.738   5.106  0.6220  0.1566  0.4873
  553MOL0     C72910   0.955   1.675   5.118 -0.4844 -0.7463 -0.3407
  553MOL0     O72911   1.251   1.734   5.078 -0.0571  0.5147  0.2095
  553MOL0     C72912   1.496   1.596   5.090 -0.2971 -0.7864  1.2746
  553MOL0     C72913   1.615   1.524   5.073  0.1941 -0.4260  0.2967
  553MOL0     N72914   2.094   1.219   5.579  0.1890  0.0534  0.0442
  553MOL0     N72915   2.200   1.236   5.654  0.5475 -0.7578  0.1225
  553MOL0     C72916   3.298   1.600   5.823  0.3977 -0.3024  0.4715
  553MOL0     C72917   3.370   1.715   5.821  0.5419 -0.0496  0.0683
  553MOL0     C72918   3.744   2.015   5.870 -0.3827 -0.7130 -0.0668
  553MOL0     C72919   3.809   2.109   5.957  0.0267 -0.3893 -0.0783
  553MOL0     C72920   3.886   2.212   5.899  0.5646  0.5414 -0.7506
  553MOL0     C72921   3.883   2.237   5.761  0.7344 -0.4545  0.1954
  553MOL0     O72922   3.957   2.347   5.728  0.3048  0.2892 -0.5453
  553MOL0     C72923   3.995   2.370   5.593  0.4272  0.3804  0.8678
  553MOL0     C72924   4.119   2.282   5.570  0.4589 -0.1609 -0.1831
  553MOL0     C72925   4.238   2.328   5.646  0.0637  0.3042 -0.7090
  553MOL0     C72926   4.360   2.238   5.594 -0.1022 -0.1197 -0.1179
  553MOL0     C72927   4.373   2.113   5.672  0.3732  0.7161 -0.3074
  553MOL0     C72928   4.393   1.999   5.723 -0.0385 -0.5952  0.6238
  553MOL0     C72929   3.812   2.148   5.674 -0.5533 -0.1862 -0.0607
  553MOL0     C72930   3.743   2.042   5.734 -0.5926 -0.1281  0.3971
  553MOL0     H72931   3.578   1.671   6.071  0.4647  1.5333 -0.1315
  553MOL0     H72932   3.444   1.471   6.090  0.8981  0.9075 -0.9062
  553MOL0     H72933   3.122   1.245   5.848  3.1353 -1.4586  0.3801
  553MOL0     H72934   3.178   1.366   5.739 -0.2164  3.4256  1.1825
  553MOL0     H72935   3.052   1.536   5.889 -4.8678  0.2664 -0.8379
  553MOL0     H72936   3.021   1.407   6.004 -3.6694  0.6177  0.0220
  553MOL0     H72937   2.900   1.281   5.823  1.6861 -1.1060  0.8019
  553MOL0     H72938   2.936   1.399   5.706  1.5816  0.5729 -0.3398
  553MOL0     H72939   2.806   1.480   5.981 -0.7613 -0.3220 -0.3285
  553MOL0     H72940   2.797   1.572   5.830 -2.2985  2.0613  2.7441
  553MOL0     H72941   2.581   1.463   5.855 -0.9246 -0.2576 -3.8054
  553MOL0     H72942   2.653   1.295   5.846 -0.9482  0.1320  2.4554
  553MOL0     H72943   2.736   1.370   5.624 -1.0696  0.3432 -1.8986
  553MOL0     H72944   2.650   1.509   5.632 -0.2467  0.3395 -0.9059
  553MOL0     H72945   2.508   1.361   5.512 -1.4484 -2.2142 -0.3290
  553MOL0     H72946   2.523   1.237   5.629 -1.0630 -0.4056 -0.1270
  553MOL0     H72947   2.377   1.505   5.669  0.6806 -0.2108 -0.4221
  553MOL0     H72948   2.386   1.366   5.779 -0.0538  1.9054  0.7099
  553MOL0     H72949   2.247   1.460   5.417 -1.2225  0.0883 -0.3031
  553MOL0     H72950   2.039   1.255   5.286  1.7981 -1.3993  1.7588
  553MOL0     H72951   1.996   1.426   5.329 -2.0567  0.3281  1.0835
  553MOL0     H72952   1.830   1.327   5.487 -0.2969 -1.1742  1.1693
  553MOL0     H72953   1.854   1.164   5.425 -0.0292  0.8924  4.8223
  553MOL0     H72954   1.677   1.243   5.295  0.0403  0.4880  0.0373
  553MOL0     H72955   1.724   1.416   5.308 -1.3445  0.4227 -2.3481
  553MOL0     H72956   1.892   1.231   5.126 -0.2949  0.7697 -2.8350
  553MOL0     H72957   1.864   1.401   5.115 -1.0824 -0.6972 -3.7918
  553MOL0     H72958   1.490   1.209   5.066  0.1937 -0.1593  5.9991
  553MOL0     H72959   1.273   1.329   5.064  0.0561 -1.0801 -1.7009
  553MOL0     H72960   1.006   1.584   4.793  1.0743 -0.4238 -0.5639
  553MOL0     H72961   0.803   1.732   4.777 -0.2641 -0.7248  0.2386
  553MOL0     H72962   0.554   1.672   4.875 -1.0715 -0.4114  0.5929
  553MOL0     H72963   0.594   1.829   4.791  2.0753  0.7455  0.3652
  553MOL0     H72964   0.404   1.940   4.921  0.2885  0.6846 -1.9211
  553MOL0     H72965   0.383   1.798   5.008 -2.4243  0.5200 -1.4435
  553MOL0     H72966   0.209   1.818   4.859 -0.3749 -0.6389 -1.0211
  553MOL0     H72967   0.309   1.680   4.820  3.0101 -0.4763  1.1109
  553MOL0     H72968   0.399   1.781   4.610  2.9867  1.6805  3.1650
  553MOL0     H72969   0.223   1.772   4.616  0.4456  0.6661  0.0618
  553MOL0     H72970   0.420   1.994   4.660  0.0913  0.7742 -0.0873
  553MOL0     H72971   0.264   2.030   4.715 -0.2717 -2.2830  1.3152
  553MOL0     H72972   0.173   1.964   4.485 -1.0422  4.1010 -2.0112
  553MOL0     H72973   0.339   1.929   4.431 -0.8616 -2.1593  0.0946
  553MOL0     H72974   0.180   2.170   4.511 -1.7641 -3.6460  0.1967
  553MOL0     H72975   0.357   2.192   4.497 -1.7385  0.0486  0.7468
  553MOL0     H72976   0.221   2.243   4.284 -0.5676 -0.2389  2.0728
  553MOL0     H72977   0.176   2.071   4.286 -1.0012  1.2606 -1.8746
  553MOL0     H72978   0.783   1.771   5.199 -0.1093 -3.6060  1.6493
  553MOL0     H72979   1.010   1.663   5.211 -0.2332 -3.9766 -0.7889
  553MOL0     H72980   1.495   1.701   5.117 -2.0640 -0.4534  0.1075
  553MOL0     H72981   1.699   1.591   5.082 -0.1227  0.5509 -2.7782
  553MOL0     H72982   3.219   1.583   5.750  0.4677 -0.5674  0.4560
  553MOL0     H72983   3.351   1.780   5.736 -0.0706 -0.0005  0.2417
  553MOL0     H72984   3.801   2.092   6.064 -0.4842 -0.7238 -0.1656
  553MOL0     H72985   3.938   2.275   5.970 -2.3413 -0.3387  2.3730
  553MOL0     H72986   4.029   2.474   5.582  0.1817  0.1696 -3.3297
  553MOL0     H72987   3.918   2.340   5.522  0.3210  0.9209  0.7502
  553MOL0     H72988   4.094   2.177   5.590  1.8780 -2.0004 -6.0216
  553MOL0     H72989   4.145   2.280   5.464  0.6774  0.8845 -0.1603
  553MOL0     H72990   4.230   2.319   5.755  0.1440 -1.3036 -0.8228
  553MOL0     H72991   4.261   2.430   5.613 -2.0504  1.1622  0.3089
  553MOL0     H72992   4.361   2.214   5.488  0.7678 -0.3263 -0.0731
  553MOL0     H72993   4.448   2.299   5.614 -1.6788  1.9983  0.7336
  553MOL0     H72994   4.385   1.896   5.754 -3.3216 -0.2825  1.1921
  553MOL0     H72995   3.791   2.166   5.570 -0.9028  0.3206  0.0950
  553MOL0     H72996   3.689   1.994   5.653 -0.8410  0.9315 -0.0872
  554MOL0     O72997   0.043   8.177   0.924  0.9414 -0.2876  0.0454
  554MOL0     C72998   0.089   8.291   0.918  0.2785  0.7547  0.5193
  554MOL0     O72999   0.022   8.415   0.937 -0.0856  0.1252 -0.0559
  554MOL0     C73000  -0.115   8.424   0.937 -0.5561 -0.0217  0.5761
  554MOL0     C73001  -0.210   8.326   0.882  0.4273 -0.7023  0.0458
  554MOL0     C73002  -0.347   8.356   0.879  0.9483  0.5164  0.0778
  554MOL0     C73003  -0.397   8.485   0.921  0.2978  0.5516  0.5536
  554MOL0     O73004  -0.524   8.522   0.914 -0.6457 -0.0404 -0.6568
  554MOL0     C73005  -0.637   8.433   0.866 -0.1942  0.4338  0.8317
  554MOL0     C73006  -0.673   8.334   0.968 -0.3310  0.2743  0.0758
  554MOL0     C73007  -0.797   8.249   0.934  0.2575 -0.0299 -0.2146
  554MOL0     C73008  -0.768   8.124   0.845 -0.0415  0.6119  0.1807
  554MOL0     C73009  -0.898   8.054   0.806 -0.5525 -0.0569  0.3503
  554MOL0     C73010  -0.943   7.952   0.913  0.8542  0.6177 -1.2387
  554MOL0     C73011  -1.088   7.909   0.888  0.6670  0.3396 -0.5505
  554MOL0     C73012  -1.107   7.854   0.751 -0.2008 -0.0420 -0.0719
  554MOL0     N73013  -1.230   7.780   0.734  0.4249  0.8059  0.1506
  554MOL0     C73014  -1.351   7.822   0.686 -0.2381 -0.5295 -0.0771
  554MOL0     C73015  -1.425   7.714   0.658  0.2203 -0.1431 -0.8564
  554MOL0     C73016  -1.568   7.716   0.619 -0.9090  0.1143 -0.4896
  554MOL0     C73017  -1.657   7.786   0.732 -0.5535  0.5578  0.5276
  554MOL0     C73018  -1.805   7.772   0.686 -0.3180  0.4842 -0.5831
  554MOL0     C73019  -1.904   7.851   0.775  0.0892  0.1566 -0.5390
  554MOL0     O73020  -2.016   7.899   0.703 -0.1483  0.2814  0.2732
  554MOL0     C73021  -2.130   7.826   0.704  0.1306  0.6503 -0.0333
  554MOL0     C73022  -2.130   7.684   0.697 -0.5220  0.3895 -0.3859
  554MOL0     C73023  -2.250   7.609   0.683  0.0661  0.2748 -1.3356
  554MOL0     C73024  -2.368   7.675   0.680 -0.3261  0.7702  0.4673
  554MOL0     C73025  -2.500   7.608   0.659 -0.1548  0.1197  0.1619
  554MOL0     O73026  -2.613   7.689   0.660  0.9789 -0.1774 -0.2084
  554MOL0     C73027  -2.739   7.638   0.658  0.4958  0.1792 -0.0369
  554MOL0     C73028  -2.843   7.721   0.622  0.7256 -0.3694  0.7139
  554MOL0     C73029  -2.972   7.680   0.614  1.0263  0.4596 -0.0036
  554MOL0     C73030  -3.012   7.540   0.647 -0.2158  0.0435 -0.8031
  554MOL0     O73031  -3.141   7.501   0.616 -0.1477 -0.0501  0.2946
  554MOL0     C73032  -3.191   7.369   0.652  0.1290 -0.1231 -0.5214
  554MOL0     C73033  -3.351   7.367   0.637  0.1318  0.7932  1.0398
  554MOL0     C73034  -3.430   7.475   0.699  0.1003  0.0876 -0.0297
  554MOL0     C73035  -3.576   7.462   0.677  0.6022  0.9958  0.4099
  554MOL0     C73036  -3.664   7.575   0.734 -0.7793 -0.6964 -0.4085
  554MOL0     C73037  -3.817   7.563   0.703  0.2135  0.0107  0.3224
  554MOL0     C73038  -3.901   7.663   0.787 -0.0417  0.9245  0.1621
  554MOL0     C73039  -4.049   7.650   0.744  0.5399 -0.0549  0.5711
  554MOL0    Cl73040  -4.143   7.778   0.822 -0.0436 -0.1957 -0.5950
  554MOL0     C73041  -2.907   7.454   0.683  0.6182  1.0511  0.0326
  554MOL0     C73042  -2.774   7.502   0.683 -0.3270 -0.1877  0.1207
  554MOL0     O73043  -2.498   7.496   0.622 -0.5777  0.0339  0.4352
  554MOL0     C73044  -2.375   7.818   0.684 -0.0437 -0.2001 -0.9786
  554MOL0     C73045  -2.255   7.893   0.697  0.6083 -0.0806  0.6621
  554MOL0     N73046  -1.350   7.601   0.679  0.5066 -0.0410  0.3306
  554MOL0     N73047  -1.235   7.640   0.715 -0.0691  0.7295 -0.3911
  554MOL0     C73048  -0.300   8.577   0.974  0.6174 -0.1229  0.4029
  554MOL0     C73049  -0.163   8.545   0.979 -0.0402  0.1684  0.0299
  554MOL0     C73050   0.240   8.301   0.895 -0.2379 -0.6071 -0.4989
  554MOL0     C73051   0.323   8.192   0.922  0.0724  0.6732 -0.4648
  554MOL0     C73052   0.462   8.204   0.906 -1.3954  0.2813  0.5487
  554MOL0     C73053   0.524   8.321   0.869  0.2328  0.9121 -0.7814
  554MOL0     O73054   0.661   8.318   0.859  0.3235  0.5266 -0.4445
  554MOL0     C73055   0.731   8.437   0.816  0.2263  0.1516  0.1800
  554MOL0     C73056   0.883   8.412   0.780  0.2519  0.2322  0.4632
  554MOL0     C73057   0.968   8.383   0.899  0.8099 -0.0280 -0.5990
  554MOL0     C73058   1.047   8.507   0.954  0.4574 -0.8658 -0.5335
  554MOL0     C73059   1.151   8.462   1.048 -0.6344 -0.0571 -0.2362
  554MOL0     C73060   1.235   8.409   1.118  0.2966  0.2725  0.3784
  554MOL0     C73061   0.440   8.429   0.850 -0.5497 -0.3781  0.2195
  554MOL0     C73062   0.295   8.421   0.849 -0.2136  0.0226 -0.5114
  554MOL0     H73063  -0.168   8.236   0.839  1.7065 -0.2544  0.2827
  554MOL0     H73064  -0.404   8.273   0.838  1.0749  0.9204 -0.9200
  554MOL0     H73065  -0.618   8.390   0.767  0.9313 -2.0611  2.0465
  554MOL0     H73066  -0.724   8.499   0.857  0.1746  0.8728  0.3744
  554MOL0     H73067  -0.688   8.388   1.062  0.4707  0.8968 -0.1486
  554MOL0     H73068  -0.594   8.258   0.977 -1.2862 -0.8190 -0.5246
  554MOL0     H73069  -0.867   8.311   0.878  1.7093  0.0995 -1.9740
  554MOL0     H73070  -0.845   8.214   1.025  0.9654 -1.2332 -0.2811
  554MOL0     H73071  -0.710   8.146   0.755 -1.0063  1.8227 -0.1750
  554MOL0     H73072  -0.701   8.053   0.894 -0.2169  0.0231 -0.4244
  554MOL0     H73073  -0.867   7.998   0.718  0.7752  0.9195  0.1650
  554MOL0     H73074  -0.971   8.134   0.792  0.9919  1.8107  2.1827
  554MOL0     H73075  -0.935   7.983   1.018  1.1199 -1.7091 -0.5188
  554MOL0     H73076  -0.885   7.861   0.897 -0.4499 -0.3265 -0.8107
  554MOL0     H73077  -1.108   7.838   0.969 -0.6206  1.9942  0.6474
  554MOL0     H73078  -1.162   7.988   0.900 -2.2441 -2.2682  0.0426
  554MOL0     H73079  -1.022   7.786   0.732  1.2650  1.5944  0.3696
  554MOL0     H73080  -1.111   7.936   0.679 -0.1901 -0.6933 -0.8306
  554MOL0     H73081  -1.387   7.924   0.669  0.8997 -0.1971 -0.5803
  554MOL0     H73082  -1.586   7.609   0.610  0.3589 -0.3826  2.1192
  554MOL0     H73083  -1.579   7.776   0.528 -3.3249  0.1817 -0.2157
  554MOL0     H73084  -1.633   7.892   0.731 -1.7576  0.8587 -0.7645
  554MOL0     H73085  -1.649   7.737   0.829  1.0625 -1.5889 -0.5737
  554MOL0     H73086  -1.803   7.807   0.582  0.0313 -2.0355 -1.5218
  554MOL0     H73087  -1.837   7.667   0.691 -2.1517  0.9735 -1.4340
  554MOL0     H73088  -1.859   7.931   0.834  1.4772  2.0016 -3.8278
  554MOL0     H73089  -1.941   7.784   0.852  0.9908  1.0026  0.6674
  554MOL0     H73090  -2.032   7.638   0.707  0.9420  3.2543 -0.5341
  554MOL0     H73091  -2.241   7.501   0.688  3.4518  0.5177  1.5268
  554MOL0     H73092  -2.819   7.823   0.593  0.8178 -0.2691  1.1417
  554MOL0     H73093  -3.036   7.752   0.563  1.5840  1.5680  0.8134
  554MOL0     H73094  -3.180   7.346   0.758 -0.6753  2.6004  0.2185
  554MOL0     H73095  -3.148   7.294   0.585  2.0220  2.8317 -2.8704
  554MOL0     H73096  -3.382   7.267   0.666 -0.8560  0.5378 -0.7904
  554MOL0     H73097  -3.360   7.376   0.529 -0.1335  4.4335  1.2365
  554MOL0     H73098  -3.397   7.573   0.664 -1.0558  0.8707  0.9712
  554MOL0     H73099  -3.420   7.473   0.808  2.3968 -1.7981 -0.1971
  554MOL0     H73100  -3.590   7.450   0.569 -0.2351 -0.1359  0.6300
  554MOL0     H73101  -3.615   7.374   0.728 -2.3735  2.3564  0.7006
  554MOL0     H73102  -3.630   7.668   0.689  0.0004 -0.8885 -0.2214
  554MOL0     H73103  -3.639   7.570   0.840  0.7014  0.5071 -0.6759
  554MOL0     H73104  -3.848   7.460   0.721  2.5676 -1.2535 -2.0610
  554MOL0     H73105  -3.830   7.576   0.595  2.3107 -1.0867 -0.1110
  554MOL0     H73106  -3.890   7.637   0.893  2.8699  2.4253  0.3323
  554MOL0     H73107  -3.868   7.766   0.770  1.6633  0.6667  1.6336
  554MOL0     H73108  -4.101   7.556   0.767 -0.1783 -0.1340 -1.2175
  554MOL0     H73109  -4.049   7.655   0.635 -1.5123 -0.2364  0.5119
  554MOL0     H73110  -2.913   7.347   0.704 -3.2741  1.5299  2.3143
  554MOL0     H73111  -2.699   7.432   0.719 -1.5436 -0.3798  2.4664
  554MOL0     H73112  -2.466   7.877   0.684  1.5416  2.5582  1.6649
  554MOL0     H73113  -2.264   8.000   0.712 -1.5155 -0.1733  0.4003
  554MOL0     H73114  -0.336   8.672   1.011  3.4812  0.6384  1.5346
  554MOL0     H73115  -0.099   8.614   1.033 -0.2845  1.4282 -1.2393
  554MOL0     H73116   0.264   8.105   0.948 -0.3790  1.1842  0.2495
  554MOL0     H73117   0.530   8.121   0.924  1.4806  2.4272  0.3911
  554MOL0     H73118   0.734   8.513   0.894  2.0957 -0.4386  0.7309
  554MOL0     H73119   0.668   8.478   0.736 -4.4854 -0.0819  3.3395
  554MOL0     H73120   0.883   8.324   0.714 -1.4841  0.5570 -0.0308
  554MOL0     H73121   0.907   8.499   0.719 -2.2372  0.1028 -0.8374
  554MOL0     H73122   1.035   8.304   0.865 -1.0414 -1.2608 -1.5984
  554MOL0     H73123   0.908   8.341   0.981 -4.0197  2.5184 -2.4116
  554MOL0     H73124   1.094   8.558   0.869 -0.8805 -0.2466 -0.9268
  554MOL0     H73125   0.975   8.578   0.997 -0.9973 -2.2031 -0.6663
  554MOL0     H73126   1.307   8.351   1.174  0.3114 -1.1744 -1.0522
  554MOL0     H73127   0.492   8.518   0.815 -1.9763  1.6223  2.8597
  554MOL0     H73128   0.235   8.506   0.818 -1.3799 -0.5281  0.1889
  555MOL0     O73129   5.085   4.235   7.613 -0.7073  0.1763 -0.1031
  555MOL0     C73130   5.107   4.273   7.725 -0.4543 -0.5742 -1.0790
  555MOL0     O73131   5.006   4.324   7.808  0.3287  0.0215 -0.1512
  555MOL0     C73132   4.877   4.317   7.758 -0.2900 -0.1138  0.4629
  555MOL0     C73133   4.797   4.431   7.771  0.2484 -0.8321  0.4262
  555MOL0     C73134   4.656   4.425   7.730 -0.2194  0.1378 -0.0792
  555MOL0     C73135   4.600   4.307   7.679  0.8418  0.0136  0.5594
  555MOL0     O73136   4.461   4.298   7.663 -0.0410 -0.2181 -0.9440
  555MOL0     C73137   4.391   4.417   7.629  0.2100 -0.0237  0.5858
  555MOL0     C73138   4.255   4.375   7.569 -0.3280 -0.2568 -0.6768
  555MOL0     C73139   4.192   4.487   7.486 -0.0863  0.1475  0.2335
  555MOL0     C73140   4.069   4.432   7.408 -0.0959  0.4150 -0.7613
  555MOL0     C73141   4.015   4.514   7.297  0.6431 -0.6395  0.6066
  555MOL0     C73142   3.871   4.459   7.258 -0.3287  0.3193 -0.2597
  555MOL0     C73143   3.808   4.553   7.155 -0.4592 -0.2060  0.8942
  555MOL0     C73144   3.677   4.503   7.097 -0.1199  0.1604 -0.2181
  555MOL0     N73145   3.558   4.511   7.191 -0.4446  0.4114  0.3916
  555MOL0     C73146   3.434   4.554   7.151  0.1563 -1.1087 -0.5437
  555MOL0     C73147   3.338   4.478   7.222  0.7376 -0.5925 -1.1981
  555MOL0     C73148   3.187   4.470   7.202  0.3357 -0.2561  1.1620
  555MOL0     C73149   3.131   4.611   7.212  0.3228 -0.0535  0.2071
  555MOL0     C73150   2.988   4.617   7.154 -0.5322  0.3921 -0.3854
  555MOL0     C73151   2.988   4.599   6.997 -0.7426 -0.0901  0.4376
  555MOL0     O73152   2.920   4.482   6.945  0.8052  0.3692  0.9520
  555MOL0     C73153   2.781   4.476   6.961 -0.3170 -0.3720 -0.5286
  555MOL0     C73154   2.691   4.585   6.950  0.0423  0.4989 -0.4042
  555MOL0     C73155   2.560   4.574   6.969  1.2776  0.9449 -0.8554
  555MOL0     C73156   2.500   4.453   7.006 -0.1961  0.6045 -0.5539
  555MOL0     C73157   2.353   4.445   7.042  0.2907 -0.2103 -0.7329
  555MOL0     O73158   2.278   4.558   7.031 -0.2241 -0.2888  0.3836
  555MOL0     C73159   2.147   4.533   7.023  0.5533 -0.0697  0.2857
  555MOL0     C73160   2.083   4.567   6.901  0.0879  0.1658 -0.1700
  555MOL0     C73161   1.950   4.556   6.891 -0.6363  0.4755  0.5863
  555MOL0     C73162   1.868   4.502   6.989  0.2213  0.1080 -0.3275
  555MOL0     O73163   1.733   4.477   6.972 -0.8972 -0.3296  0.5144
  555MOL0     C73164   1.663   4.399   7.073  0.6059 -0.1355  0.3070
  555MOL0     C73165   1.516   4.384   7.029  0.2446  0.6093 -0.0009
  555MOL0     C73166   1.431   4.512   7.039 -0.2906 -0.6435  0.3725
  555MOL0     C73167   1.282   4.472   6.998 -0.1098 -0.1555 -0.8428
  555MOL0     C73168   1.205   4.606   6.962 -0.7827  0.0785  0.1815
  555MOL0     C73169   1.092   4.568   6.862  0.2695 -0.0251  0.5784
  555MOL0     C73170   1.010   4.689   6.829 -0.0685 -0.4821 -0.2016
  555MOL0     C73171   1.071   4.765   6.708  0.0037  0.0234 -0.3109
  555MOL0    Cl73172   1.172   4.895   6.774  0.4755 -0.0429 -0.1281
  555MOL0     C73173   1.927   4.474   7.110  0.3854 -0.0720 -0.3142
  555MOL0     C73174   2.065   4.481   7.126 -0.3981 -0.2409  0.7164
  555MOL0     O73175   2.314   4.330   7.073 -0.4208 -0.6254  0.2934
  555MOL0     C73176   2.583   4.340   6.996 -0.1028  0.1931  0.3459
  555MOL0     C73177   2.726   4.351   6.984 -0.3213 -0.2854 -0.0310
  555MOL0     N73178   3.411   4.400   7.307  0.6289  0.0245  0.3701
  555MOL0     N73179   3.539   4.430   7.304 -0.7876  0.7861  0.2865
  555MOL0     C73180   4.684   4.201   7.669 -0.5964  0.6382  0.2802
  555MOL0     C73181   4.821   4.205   7.701 -0.8205 -0.4311  0.2923
  555MOL0     C73182   5.243   4.250   7.788 -0.2278 -0.3905  0.0227
  555MOL0     C73183   5.269   4.274   7.924 -0.1428  0.0635 -0.1893
  555MOL0     C73184   5.401   4.263   7.973 -0.3074  0.0938 -0.3563
  555MOL0     C73185   5.511   4.219   7.891  0.4606 -0.2143  0.0873
  555MOL0     O73186   5.628   4.195   7.952 -0.1086 -0.4702 -0.3168
  555MOL0     C73187   5.735   4.260   7.884  1.3035 -0.3007  0.5309
  555MOL0     C73188   5.859   4.178   7.886 -0.6932 -0.3610 -0.6387
  555MOL0     C73189   5.966   4.240   7.801 -0.0660 -0.2078  0.0377
  555MOL0     C73190   6.116   4.196   7.821 -0.0823  0.5230  0.0638
  555MOL0     C73191   6.151   4.061   7.761  0.6887 -0.4360  0.2373
  555MOL0     C73192   6.199   3.968   7.695  0.4261 -0.2010 -0.6814
  555MOL0     C73193   5.479   4.178   7.756  0.3868 -0.1414  0.0186
  555MOL0     C73194   5.349   4.201   7.706 -0.1452  0.0196 -0.6769
  555MOL0     H73195   4.826   4.527   7.811  1.2520 -1.2509  0.7461
  555MOL0     H73196   4.596   4.511   7.759 -2.8882 -1.0650 -1.6310
  555MOL0     H73197   4.446   4.473   7.554 -3.5333  2.1240 -0.8574
  555MOL0     H73198   4.373   4.479   7.718  1.6520  0.4318  0.5736
  555MOL0     H73199   4.191   4.326   7.643  0.4468 -0.2519  0.0194
  555MOL0     H73200   4.284   4.288   7.509  1.4228 -0.2458  0.0827
  555MOL0     H73201   4.264   4.538   7.421 -0.4297  5.3162  3.3690
  555MOL0     H73202   4.160   4.568   7.552  2.6786  3.6519 -2.3441
  555MOL0     H73203   4.102   4.337   7.367  1.8521  1.5176 -1.8863
  555MOL0     H73204   3.989   4.422   7.482 -0.7433 -0.8161 -1.5897
  555MOL0     H73205   4.075   4.502   7.206  0.4371 -1.3656  0.5597
  555MOL0     H73206   4.009   4.620   7.324 -0.4990 -0.2923 -0.8567
  555MOL0     H73207   3.800   4.461   7.341 -0.4942  0.2373 -0.4000
  555MOL0     H73208   3.889   4.362   7.212  5.8493  0.4026  1.1708
  555MOL0     H73209   3.791   4.652   7.198 -0.7451  1.5605 -2.9215
  555MOL0     H73210   3.878   4.561   7.071 -0.8912  0.0110  0.5486
  555MOL0     H73211   3.706   4.400   7.073  1.7840  0.6189 -0.0218
  555MOL0     H73212   3.652   4.560   7.007 -1.7784  0.3818  0.3488
  555MOL0     H73213   3.404   4.605   7.060 -0.3106 -1.4777 -0.6006
  555MOL0     H73214   3.149   4.403   7.280 -2.7762 -2.1692 -1.7298
  555MOL0     H73215   3.174   4.429   7.102 -0.9400 -1.2504  1.7022
  555MOL0     H73216   3.196   4.681   7.158  1.7860 -0.6908  1.0701
  555MOL0     H73217   3.136   4.649   7.314 -3.5076  3.1870 -0.5461
  555MOL0     H73218   2.934   4.536   7.205 -1.2336  0.7595 -0.5306
  555MOL0     H73219   2.938   4.711   7.177  0.5339  1.0926 -0.8631
  555MOL0     H73220   3.091   4.581   6.967 -0.9389  0.6806 -0.8044
  555MOL0     H73221   2.954   4.695   6.955  0.4357  0.5727  0.9563
  555MOL0     H73222   2.740   4.680   6.929  0.7695  0.9196  2.7130
  555MOL0     H73223   2.500   4.665   6.968  0.5604  0.5181  0.4972
  555MOL0     H73224   2.144   4.592   6.815 -0.4023  0.5791 -0.4024
  555MOL0     H73225   1.906   4.571   6.793 -3.2976  0.2408  1.6817
  555MOL0     H73226   1.658   4.457   7.165  2.0819  0.6888 -0.0931
  555MOL0     H73227   1.725   4.310   7.085 -1.6791 -1.8319  0.1027
  555MOL0     H73228   1.475   4.307   7.096 -0.5340  2.1352  1.3295
  555MOL0     H73229   1.512   4.349   6.925 -2.4365  2.7918 -0.7506
  555MOL0     H73230   1.473   4.593   6.979  0.7690 -1.7637 -0.4592
  555MOL0     H73231   1.433   4.533   7.146  0.2104 -0.6005  0.3562
  555MOL0     H73232   1.281   4.410   6.908  0.9055 -1.4121 -0.0114
  555MOL0     H73233   1.220   4.428   7.076  0.4386 -0.2535 -0.4617
  555MOL0     H73234   1.273   4.676   6.911  3.0965 -2.2241  1.7624
  555MOL0     H73235   1.165   4.662   7.048 -1.9550  2.7999 -1.9782
  555MOL0     H73236   1.026   4.501   6.918 -0.8381  0.5380 -0.0228
  555MOL0     H73237   1.120   4.505   6.777  1.4791 -0.2325  1.1076
  555MOL0     H73238   0.906   4.666   6.807 -1.6523  3.0803  2.4750
  555MOL0     H73239   1.004   4.753   6.918  0.8972  2.0489 -1.8169
  555MOL0     H73240   0.987   4.792   6.644  0.1211 -0.0170 -0.4821
  555MOL0     H73241   1.134   4.697   6.650 -0.6284 -2.1871  1.4318
  555MOL0     H73242   1.867   4.436   7.192 -0.2484  0.0754 -0.7031
  555MOL0     H73243   2.112   4.447   7.217  0.4438  0.3813  0.5300
  555MOL0     H73244   2.539   4.242   7.005 -3.4257  1.2544 -2.3715
  555MOL0     H73245   2.790   4.263   6.985 -2.6466 -2.0964  0.4620
  555MOL0     H73246   4.640   4.107   7.635 -0.8464 -0.7979  4.0638
  555MOL0     H73247   4.887   4.119   7.698  0.8858  0.8321  0.0850
  555MOL0     H73248   5.189   4.314   7.985  1.0560  2.0624  0.1807
  555MOL0     H73249   5.421   4.295   8.075 -1.7901 -1.2076  0.3870
  555MOL0     H73250   5.751   4.354   7.937 -1.7670  0.5041  0.2439
  555MOL0     H73251   5.712   4.271   7.777  0.2416  2.5684  0.9674
  555MOL0     H73252   5.884   4.170   7.992 -3.1682 -1.4256 -0.0674
  555MOL0     H73253   5.853   4.072   7.862 -0.8679 -0.3617 -0.5973
  555MOL0     H73254   5.961   4.349   7.798 -0.2287 -0.2225 -0.5439
  555MOL0     H73255   5.948   4.210   7.697  0.8974 -2.4331  0.4608
  555MOL0     H73256   6.184   4.265   7.770 -2.2556  1.9872 -1.0610
  555MOL0     H73257   6.143   4.194   7.927 -1.9884 -1.1710  0.5801
  555MOL0     H73258   6.232   3.878   7.647  0.5079 -1.2646  1.2718
  555MOL0     H73259   5.544   4.141   7.678 -3.0950 -0.7586 -2.8846
  555MOL0     H73260   5.321   4.181   7.603 -2.3919  2.0926 -0.5652
  556MOL0     O73261   7.769   2.984  11.124 -0.4363  0.7202  0.0434
  556MOL0     C73262   7.749   2.892  11.046  0.0851 -0.3870 -0.8814
  556MOL0     O73263   7.844   2.836  10.965  0.0067  0.0844  0.0627
  556MOL0     C73264   7.971   2.887  10.976  0.2620  1.0608 -0.3927
  556MOL0     C73265   8.070   2.817  11.043  0.3087 -0.6719  0.7115
  556MOL0     C73266   8.199   2.869  11.045 -0.0429  0.0410 -0.7311
  556MOL0     C73267   8.233   3.003  11.000 -0.1575  0.0908  0.2635
  556MOL0     O73268   8.352   3.056  11.035 -0.3564  0.1716  0.3802
  556MOL0     C73269   8.469   2.973  11.056  0.2594  0.0784 -0.0598
  556MOL0     C73270   8.594   3.065  11.058 -0.4609  0.2535 -0.6438
  556MOL0     C73271   8.665   3.112  10.926  0.2719  0.1319  0.0459
  556MOL0     C73272   8.794   3.184  10.967 -0.4215 -0.2967  0.2781
  556MOL0     C73273   8.881   3.224  10.830 -0.7321  0.2862 -0.0696
  556MOL0     C73274   9.019   3.264  10.886  0.3859 -0.1494 -0.2057
  556MOL0     C73275   9.114   3.309  10.774  0.4139  1.0977 -0.0585
  556MOL0     C73276   9.154   3.206  10.673  0.2500  0.1894  0.6866
  556MOL0     N73277   9.198   3.089  10.744 -0.5649 -0.4990 -0.1847
  556MOL0     C73278   9.321   3.082  10.814  0.8991 -0.2509 -0.0692
  556MOL0     C73279   9.326   2.953  10.862  0.3130  0.1159  0.0344
  556MOL0     C73280   9.422   2.879  10.953 -0.4249 -0.2146  0.2587
  556MOL0     C73281   9.343   2.794  11.052 -0.2489  1.1895  0.0308
  556MOL0     C73282   9.297   2.869  11.167  0.1650 -0.7263  0.1285
  556MOL0     C73283   9.162   2.811  11.210  0.6325  0.4238  0.1388
  556MOL0     O73284   9.111   2.884  11.328  0.8398  0.7514 -0.0141
  556MOL0     C73285   8.977   2.867  11.356  0.1854 -0.2131 -0.0476
  556MOL0     C73286   8.882   2.774  11.306  0.4437  0.3692 -0.1714
  556MOL0     C73287   8.742   2.786  11.339 -0.1204  0.1657 -0.2558
  556MOL0     C73288   8.691   2.894  11.417 -0.7204  0.7615  0.2239
  556MOL0     C73289   8.553   2.920  11.444 -0.2401  0.0156  0.3508
  556MOL0     O73290   8.458   2.816  11.424  0.9445 -0.4068  0.7982
  556MOL0     C73291   8.338   2.833  11.470  0.5260 -0.0415  0.1476
  556MOL0     C73292   8.288   2.739  11.565  0.1189 -0.1922  0.0352
  556MOL0     C73293   8.152   2.759  11.600 -0.1444 -0.1991 -0.1971
  556MOL0     C73294   8.069   2.853  11.545 -1.4107  1.5892 -0.6323
  556MOL0     O73295   7.944   2.852  11.586  0.0063  1.0040 -0.7461
  556MOL0     C73296   7.848   2.831  11.482 -0.0656 -0.1681  0.8853
  556MOL0     C73297   7.765   2.705  11.508  0.4587 -0.1591  0.2522
  556MOL0     C73298   7.713   2.703  11.652 -0.7146  0.1463  0.3635
  556MOL0     C73299   7.634   2.575  11.666 -0.3094 -0.6623  0.0117
  556MOL0     C73300   7.636   2.512  11.808  0.2738  0.5154  0.1979
  556MOL0     C73301   7.545   2.389  11.813  0.8447  0.5006  0.0050
  556MOL0     C73302   7.539   2.334  11.952  0.6913 -0.2982 -0.6321
  556MOL0     C73303   7.473   2.198  11.955 -1.2902  0.7518 -0.0897
  556MOL0    Cl73304   7.306   2.213  11.899  0.2495  0.1513 -0.2123
  556MOL0     C73305   8.118   2.936  11.444  0.0347  0.5058 -0.8572
  556MOL0     C73306   8.253   2.925  11.401 -0.3069 -0.0463  0.1755
  556MOL0     O73307   8.528   3.033  11.472  0.1014  0.1654 -0.4319
  556MOL0     C73308   8.782   2.983  11.474  0.4591 -0.3103  0.6473
  556MOL0     C73309   8.917   2.974  11.440 -0.4166  1.6307 -0.0791
  556MOL0     N73310   9.215   2.892  10.811  0.4880  0.3621  0.8039
  556MOL0     N73311   9.138   2.973  10.746  0.4289  0.5268  0.0885
  556MOL0     C73312   8.134   3.072  10.941 -0.2348  1.1259  0.1749
  556MOL0     C73313   8.011   3.003  10.913 -0.0929 -0.0861 -0.1319
  556MOL0     C73314   7.614   2.829  11.050 -0.1470 -0.5770  0.3388
  556MOL0     C73315   7.570   2.734  10.959 -0.6180 -0.7316 -0.3826
  556MOL0     C73316   7.445   2.666  10.969  0.5540 -0.1496 -0.6078
  556MOL0     C73317   7.363   2.703  11.074  0.6679  0.8524 -0.1465
  556MOL0     O73318   7.244   2.644  11.095  0.0091 -0.2187  0.5235
  556MOL0     C73319   7.199   2.521  11.028  0.0583 -0.3276 -1.1251
  556MOL0     C73320   7.081   2.477  11.114 -0.9406 -1.4735  0.2248
  556MOL0     C73321   7.036   2.340  11.054 -0.9993 -0.1629  0.5817
  556MOL0     C73322   6.909   2.292  11.130 -0.3735  0.3795 -0.2424
  556MOL0     C73323   6.895   2.336  11.274  0.1944 -0.8485  0.4166
  556MOL0     C73324   6.890   2.365  11.394  0.3599 -0.9966  0.0849
  556MOL0     C73325   7.405   2.802  11.159  0.1830 -0.3944 -0.4912
  556MOL0     C73326   7.521   2.869  11.147  0.3593  0.1659  0.1238
  556MOL0     H73327   8.042   2.732  11.104 -0.8103 -1.0241 -0.2530
  556MOL0     H73328   8.264   2.807  11.106 -1.4897  0.6459  1.5617
  556MOL0     H73329   8.476   2.895  10.979  1.4916  0.1827 -0.0697
  556MOL0     H73330   8.467   2.932  11.157 -4.4054  1.2941  0.5510
  556MOL0     H73331   8.671   3.012  11.113 -2.1784 -3.3970 -1.4282
  556MOL0     H73332   8.573   3.158  11.111 -2.5392  0.6361 -1.9944
  556MOL0     H73333   8.605   3.169  10.854 -2.4520 -1.9533  0.4975
  556MOL0     H73334   8.688   3.025  10.864 -0.5645 -1.8931  2.4536
  556MOL0     H73335   8.773   3.270  11.032  1.0485  0.6031 -0.3922
  556MOL0     H73336   8.858   3.119  11.026 -0.1013  0.1615  0.4432
  556MOL0     H73337   8.836   3.306  10.774  0.3892  0.4842 -0.6934
  556MOL0     H73338   8.903   3.138  10.765 -0.1330 -0.5156  1.1527
  556MOL0     H73339   9.069   3.176  10.927  2.2308  0.2592 -1.4789
  556MOL0     H73340   9.001   3.342  10.960  0.0021 -0.6717  0.2642
  556MOL0     H73341   9.060   3.382  10.713 -2.2463  0.1754  1.0457
  556MOL0     H73342   9.198   3.346  10.833  0.6735 -0.6978  0.7676
  556MOL0     H73343   9.241   3.249  10.622  1.3862 -0.3811  2.0567
  556MOL0     H73344   9.072   3.188  10.604  1.7986 -1.5409 -0.8089
  556MOL0     H73345   9.380   3.173  10.816 -1.2804  1.3190 -1.8560
  556MOL0     H73346   9.484   2.956  11.001  0.6986 -0.1960 -1.1462
  556MOL0     H73347   9.487   2.812  10.895  0.0539 -0.1441  0.7108
  556MOL0     H73348   9.407   2.707  11.068  1.8120  1.3171 -5.3006
  556MOL0     H73349   9.262   2.748  10.994  1.2231 -0.1212 -1.0851
  556MOL0     H73350   9.359   2.866  11.257 -0.8013  4.0420  1.2128
  556MOL0     H73351   9.272   2.971  11.137 -0.5474 -1.2807 -1.2350
  556MOL0     H73352   9.173   2.709  11.246 -0.0115  0.3439  0.1221
  556MOL0     H73353   9.094   2.814  11.124  2.6181  0.1131 -1.5033
  556MOL0     H73354   8.904   2.687  11.245  1.7996  0.4190  0.2284
  556MOL0     H73355   8.671   2.712  11.302  0.0428 -0.0219 -0.1895
  556MOL0     H73356   8.340   2.655  11.610  0.2480  0.3275  0.8830
  556MOL0     H73357   8.104   2.692  11.671 -0.0525  1.2082  1.2425
  556MOL0     H73358   7.891   2.818  11.383 -1.1391 -3.7278  0.7340
  556MOL0     H73359   7.775   2.912  11.474  1.1237  0.8133 -0.6629
  556MOL0     H73360   7.827   2.621  11.477  0.6893  0.3286 -0.6386
  556MOL0     H73361   7.678   2.701  11.442 -0.7988 -1.8642  1.9374
  556MOL0     H73362   7.653   2.790  11.681 -1.4166  0.3790 -1.6589
  556MOL0     H73363   7.799   2.706  11.720 -0.8733 -0.4951  0.6026
  556MOL0     H73364   7.527   2.582  11.647 -0.3637 -0.9896  0.1916
  556MOL0     H73365   7.668   2.495  11.600  2.4061  1.6247 -1.6062
  556MOL0     H73366   7.601   2.589  11.877 -2.1064 -1.4941  1.4011
  556MOL0     H73367   7.741   2.484  11.819  0.5680  1.1648 -0.7942
  556MOL0     H73368   7.581   2.315  11.741  2.2494  1.6433 -0.5169
  556MOL0     H73369   7.445   2.410  11.772  0.8109  0.1946 -0.0691
  556MOL0     H73370   7.635   2.320  12.002  0.2529 -2.0591 -0.2067
  556MOL0     H73371   7.478   2.401  12.013  0.2470 -1.0552 -0.2259
  556MOL0     H73372   7.472   2.163  12.059  2.4752 -0.4186 -0.3011
  556MOL0     H73373   7.535   2.125  11.903  1.9381  3.8128 -0.9433
  556MOL0     H73374   8.045   2.995  11.388 -2.1762 -0.1213  1.2079
  556MOL0     H73375   8.292   2.972  11.312 -2.8730 -1.7333 -2.0148
  556MOL0     H73376   8.751   3.063  11.541  1.8145  2.3954 -1.7157
  556MOL0     H73377   8.993   3.037  11.484  0.9479  1.8414 -2.5244
  556MOL0     H73378   8.139   3.175  10.906 -3.8123  1.5106  0.4086
  556MOL0     H73379   7.934   3.058  10.860  0.3801 -0.5082 -1.2757
  556MOL0     H73380   7.633   2.709  10.875  0.6653  0.5690  0.1383
  556MOL0     H73381   7.424   2.593  10.892 -2.7586  0.4218 -0.4158
  556MOL0     H73382   7.278   2.447  11.017  0.9595  0.3897  0.1798
  556MOL0     H73383   7.163   2.540  10.927  0.3345 -0.3356 -1.2240
  556MOL0     H73384   7.114   2.470  11.218 -3.0684  2.9343  1.4667
  556MOL0     H73385   6.999   2.549  11.116  1.3428  1.3082  1.3137
  556MOL0     H73386   7.118   2.270  11.074 -0.7420  0.1559  0.6535
  556MOL0     H73387   7.014   2.358  10.948 -2.5783 -0.9565  0.7531
  556MOL0     H73388   6.825   2.329  11.070 -1.0908 -1.9865 -0.8126
  556MOL0     H73389   6.902   2.182  11.130 -0.6590  0.3169  2.6642
  556MOL0     H73390   6.895   2.364  11.501  2.0475 -0.1135  0.0494
  556MOL0     H73391   7.326   2.825  11.229  2.4377 -1.6419  2.7046
  556MOL0     H73392   7.540   2.948  11.219  3.4723 -0.3303 -0.0338
  557MOL0     O73393   2.600   9.915   6.242  0.3759  0.3677 -0.2330
  557MOL0     C73394   2.526   9.968   6.326  0.1721 -0.9182  0.7623
  557MOL0     O73395   2.556   9.986   6.462  0.2811 -0.5431  0.3087
  557MOL0     C73396   2.675   9.951   6.506  0.4272  0.4398 -1.0667
  557MOL0     C73397   2.793   9.980   6.440 -0.4391 -0.2470  0.1689
  557MOL0     C73398   2.917   9.946   6.503  0.2239 -0.0487 -0.1657
  557MOL0     C73399   2.916   9.872   6.618 -0.5861  0.1111  0.8235
  557MOL0     O73400   3.036   9.833   6.667 -0.8636  0.2333  0.3144
  557MOL0     C73401   3.058   9.825   6.806 -0.9753  0.5108  0.6020
  557MOL0     C73402   3.200   9.785   6.840 -0.1625 -0.2681  0.4713
  557MOL0     C73403   3.257   9.655   6.792  0.1057 -0.0742 -0.4395
  557MOL0     C73404   3.384   9.615   6.866  0.2539  0.2371 -0.5548
  557MOL0     C73405   3.456   9.505   6.796 -0.0401  0.1478 -0.2844
  557MOL0     C73406   3.572   9.452   6.868  0.7727 -0.0028 -0.9594
  557MOL0     C73407   3.664   9.565   6.918 -0.1003  0.0824 -0.1743
  557MOL0     C73408   3.807   9.512   6.942  0.7310 -1.3217  0.3246
  557MOL0     N73409   3.833   9.429   7.055 -0.7748 -0.8082  0.0732
  557MOL0     C73410   3.745   9.422   7.164  0.1497  0.4544 -0.2342
  557MOL0     C73411   3.814   9.363   7.263  0.0878  0.4509  0.2745
  557MOL0     C73412   3.753   9.318   7.396 -0.1481  0.0019  0.3065
  557MOL0     C73413   3.655   9.189   7.382  0.4973 -0.1989  0.0442
  557MOL0     C73414   3.516   9.226   7.447  0.2018 -0.1058 -0.1947
  557MOL0     C73415   3.409   9.133   7.410  1.4416 -0.7377  0.0157
  557MOL0     O73416   3.283   9.187   7.454  0.3604  0.6212  0.3373
  557MOL0     C73417   3.208   9.254   7.361  0.5103  0.1900  0.1089
  557MOL0     C73418   3.089   9.305   7.402 -0.2144  0.0268  0.7480
  557MOL0     C73419   3.004   9.377   7.319 -0.3459 -0.4317  0.0586
  557MOL0     C73420   3.039   9.401   7.188 -0.4913 -0.0505  1.1292
  557MOL0     C73421   2.945   9.482   7.098 -0.2224 -0.1772  0.2588
  557MOL0     O73422   2.827   9.525   7.162  0.1266 -0.1200 -0.3599
  557MOL0     C73423   2.716   9.556   7.078  0.0110 -0.1203 -0.2886
  557MOL0     C73424   2.632   9.649   7.129  0.5852  0.3322 -0.2160
  557MOL0     C73425   2.515   9.694   7.064  0.2419  0.2713  0.0660
  557MOL0     C73426   2.486   9.637   6.947 -0.0067  0.6272  0.3337
  557MOL0     O73427   2.375   9.669   6.878  0.5280 -1.1042 -0.3146
  557MOL0     C73428   2.284   9.566   6.868  0.2651 -0.1568 -0.3649
  557MOL0     C73429   2.149   9.614   6.809  0.8295 -0.7672  1.1273
  557MOL0     C73430   2.157   9.622   6.655 -0.3551 -0.5555  0.0759
  557MOL0     C73431   2.021   9.654   6.589  0.8995 -0.2310  0.2695
  557MOL0     C73432   2.038   9.669   6.435  0.0929 -0.5092 -0.2316
  557MOL0     C73433   1.914   9.744   6.366  0.5462  0.1626 -0.8693
  557MOL0     C73434   1.781   9.670   6.407 -0.3135  0.1134 -0.0897
  557MOL0     C73435   1.666   9.727   6.329 -0.4352 -0.1868 -0.6080
  557MOL0    Cl73436   1.525   9.643   6.389  0.4239 -0.4123  0.1899
  557MOL0     C73437   2.573   9.559   6.881  0.4509 -0.7398 -0.2487
  557MOL0     C73438   2.686   9.513   6.946  0.7020  0.0145 -1.5100
  557MOL0     O73439   2.986   9.510   6.986  0.2084  0.4042 -0.3484
  557MOL0     C73440   3.152   9.339   7.140  0.6945 -1.0281 -0.1415
  557MOL0     C73441   3.237   9.271   7.225 -0.1706 -0.4167 -0.6425
  557MOL0     N73442   3.944   9.341   7.222 -0.1619  0.0334 -0.1851
  557MOL0     N73443   3.956   9.377   7.098  0.5310  0.6162  0.3904
  557MOL0     C73444   2.792   9.826   6.673 -0.1077 -0.0342  0.4102
  557MOL0     C73445   2.675   9.870   6.617 -0.1761  0.1889 -0.1283
  557MOL0     C73446   2.390   9.994   6.287  0.3647 -0.0652 -0.8897
  557MOL0     C73447   2.330   9.922   6.183  0.2974 -0.1820  1.1529
  557MOL0     C73448   2.195   9.944   6.152  0.8366  0.3342 -1.0842
  557MOL0     C73449   2.117  10.044   6.221  0.2063 -0.3875 -0.3419
  557MOL0     O73450   1.985  10.060   6.205 -0.0505  0.3337  0.4879
  557MOL0     C73451   1.943  10.175   6.126  0.0923 -0.3819  0.5790
  557MOL0     C73452   1.828  10.134   6.034  0.4378  0.6604  0.2964
  557MOL0     C73453   1.707  10.086   6.112 -0.2425  0.4282 -1.0178
  557MOL0     C73454   1.611  10.197   6.173  0.2628  0.0263 -0.7521
  557MOL0     C73455   1.557  10.290   6.079  0.9393 -0.2321  0.2332
  557MOL0     C73456   1.505  10.368   5.997 -1.3037 -0.9164 -0.2592
  557MOL0     C73457   2.179  10.112   6.322  0.0790 -0.4560  0.3617
  557MOL0     C73458   2.316  10.090   6.357  0.1365 -0.5282 -1.1519
  557MOL0     H73459   2.783  10.043   6.353 -1.7245 -0.0845  0.4046
  557MOL0     H73460   3.012   9.982   6.465  0.5509  2.4051  2.6337
  557MOL0     H73461   2.990   9.753   6.852 -0.4844 -0.2551  0.1485
  557MOL0     H73462   3.029   9.921   6.850 -0.1503 -0.1187  2.6631
  557MOL0     H73463   3.220   9.795   6.947 -1.2404  2.1103  0.5136
  557MOL0     H73464   3.253   9.874   6.803 -0.4360  0.4665  1.8019
  557MOL0     H73465   3.268   9.654   6.683  0.0136 -1.5856 -0.4542
  557MOL0     H73466   3.189   9.571   6.810 -2.1749  0.6718 -4.3749
  557MOL0     H73467   3.457   9.696   6.868 -0.2478  0.6736  1.3202
  557MOL0     H73468   3.368   9.584   6.969 -0.2918  1.3442 -0.2990
  557MOL0     H73469   3.498   9.545   6.703 -0.5717  3.7759  0.8831
  557MOL0     H73470   3.387   9.422   6.776  0.6754 -0.6524  0.5081
  557MOL0     H73471   3.624   9.371   6.815  3.1563  0.2770  0.7423
  557MOL0     H73472   3.533   9.410   6.962 -1.1810  2.3061 -0.6350
  557MOL0     H73473   3.672   9.642   6.841  3.1182 -0.8514 -0.9092
  557MOL0     H73474   3.629   9.612   7.010  4.5552 -1.0289  2.4794
  557MOL0     H73475   3.875   9.597   6.950 -0.3981 -0.2996 -0.6062
  557MOL0     H73476   3.843   9.469   6.848  0.8741  0.6958 -0.5907
  557MOL0     H73477   3.643   9.457   7.178  0.6712  1.8107  0.3988
  557MOL0     H73478   3.706   9.405   7.441 -3.3887 -0.8184 -1.1218
  557MOL0     H73479   3.836   9.287   7.460  2.4243  0.4368 -2.5410
  557MOL0     H73480   3.689   9.094   7.422 -1.1418 -0.3804  1.1032
  557MOL0     H73481   3.637   9.172   7.275 -2.4924  0.6279  0.3216
  557MOL0     H73482   3.527   9.236   7.555 -2.2137  0.0174  0.0873
  557MOL0     H73483   3.498   9.326   7.408  1.1270 -0.2957 -1.1664
  557MOL0     H73484   3.425   9.041   7.467 -0.0886 -2.2190 -1.8234
  557MOL0     H73485   3.405   9.095   7.308 -1.2351  1.6567 -0.8917
  557MOL0     H73486   3.064   9.295   7.507 -1.2623 -2.0982  0.3526
  557MOL0     H73487   2.914   9.412   7.369 -1.7691 -1.3233 -1.7781
  557MOL0     H73488   2.638   9.676   7.235  0.0923 -3.3980  0.8880
  557MOL0     H73489   2.443   9.768   7.099 -1.9106 -2.3267  1.4701
  557MOL0     H73490   2.271   9.536   6.972 -1.0947  2.1533  0.2019
  557MOL0     H73491   2.318   9.483   6.805  0.4444  0.9167 -1.7297
  557MOL0     H73492   2.129   9.713   6.852  2.2312  0.8299 -1.6619
  557MOL0     H73493   2.067   9.552   6.848 -0.7706  2.4385  3.2684
  557MOL0     H73494   2.184   9.520   6.626 -1.1215 -0.0985 -2.5103
  557MOL0     H73495   2.237   9.687   6.619 -2.0000  1.3062 -0.4147
  557MOL0     H73496   1.956   9.569   6.613 -1.8948  1.0915 -2.0025
  557MOL0     H73497   1.991   9.746   6.641  3.2414  1.0943 -0.5971
  557MOL0     H73498   2.040   9.562   6.410  0.7416 -0.8891  1.3315
  557MOL0     H73499   2.137   9.711   6.416 -0.6177  1.8684  0.9048
  557MOL0     H73500   1.931   9.762   6.259  0.8348  2.1789 -0.5302
  557MOL0     H73501   1.912   9.849   6.396  1.8194  0.3703 -1.4401
  557MOL0     H73502   1.791   9.566   6.376 -0.2767 -0.3071  1.2691
  557MOL0     H73503   1.758   9.684   6.513  0.6963 -0.7675  0.2643
  557MOL0     H73504   1.673   9.698   6.223 -1.4242 -2.8347 -0.0208
  557MOL0     H73505   1.665   9.836   6.322  0.9464 -0.2199 -2.4056
  557MOL0     H73506   2.541   9.523   6.784  2.7136  2.2847 -2.3093
  557MOL0     H73507   2.737   9.432   6.897  2.4913  1.1457 -1.6074
  557MOL0     H73508   3.185   9.356   7.038 -0.6869  0.4954 -0.3810
  557MOL0     H73509   3.332   9.241   7.181  1.2170  1.3419  0.9774
  557MOL0     H73510   2.788   9.760   6.759  1.1042 -0.0001  0.5039
  557MOL0     H73511   2.583   9.847   6.669 -0.5605 -0.2560 -0.9901
  557MOL0     H73512   2.385   9.853   6.121  1.2505 -1.1175  2.9581
  557MOL0     H73513   2.139   9.891   6.076  0.5728  1.2209 -1.5221
  557MOL0     H73514   2.024  10.214   6.062 -0.1341 -1.1152 -0.1774
  557MOL0     H73515   1.906  10.257   6.188 -0.5376  1.3972 -1.9736
  557MOL0     H73516   1.790  10.207   5.962 -1.4634 -1.1005 -0.5893
  557MOL0     H73517   1.875  10.057   5.971  3.5841  2.7343 -0.1183
  557MOL0     H73518   1.744  10.031   6.200 -2.4243  1.2337  0.4986
  557MOL0     H73519   1.651  10.013   6.052  1.1462 -0.2670 -1.5172
  557MOL0     H73520   1.528  10.158   6.233  0.3584  1.2027  0.1925
  557MOL0     H73521   1.671  10.262   6.236 -0.0090  0.7749 -1.2535
  557MOL0     H73522   1.460  10.433   5.926 -2.2882  0.0136  1.1507
  557MOL0     H73523   2.117  10.186   6.372 -0.3804  0.0185 -0.8565
  557MOL0     H73524   2.358  10.152   6.435 -0.7418  0.8251 -1.7026
  558MOL0     O73525   6.865   9.861   3.855 -0.4407  0.0504 -0.5417
  558MOL0     C73526   6.862   9.738   3.887 -0.0005 -0.5829 -0.3369
  558MOL0     O73527   6.745   9.664   3.905 -0.6344 -0.3284 -0.1349
  558MOL0     C73528   6.633   9.732   3.884  0.1486  0.3002 -0.1512
  558MOL0     C73529   6.593   9.850   3.940 -0.2701  0.6358 -0.1253
  558MOL0     C73530   6.469   9.911   3.915  0.8217 -0.1416  0.1830
  558MOL0     C73531   6.368   9.834   3.850  0.2371  0.2469 -0.4064
  558MOL0     O73532   6.242   9.879   3.821 -0.0917  0.3557  0.3813
  558MOL0     C73533   6.137   9.813   3.888 -0.1951  0.2038  0.0190
  558MOL0     C73534   6.014   9.872   3.810 -0.2745 -0.4607 -0.5436
  558MOL0     C73535   5.880   9.820   3.872  0.0315 -0.7904 -0.3695
  558MOL0     C73536   5.778   9.895   3.786  0.0065 -0.3012 -0.1893
  558MOL0     C73537   5.638   9.857   3.842 -0.6938 -0.3178 -0.0539
  558MOL0     C73538   5.524   9.935   3.783  0.1771  0.3012  0.4708
  558MOL0     C73539   5.385   9.903   3.848  0.1390  0.0198  0.2654
  558MOL0     C73540   5.354   9.747   3.849 -0.1660  0.2628 -0.3203
  558MOL0     N73541   5.337   9.704   3.708  0.2103 -0.2281 -0.3924
  558MOL0     C73542   5.434   9.641   3.633  0.4021 -0.3126  0.0108
  558MOL0     C73543   5.387   9.669   3.507  0.1484 -0.5274  0.0584
  558MOL0     C73544   5.453   9.621   3.379 -0.4725  0.2126 -0.2360
  558MOL0     C73545   5.519   9.733   3.299  0.1372 -0.3710 -0.3451
  558MOL0     C73546   5.633   9.818   3.366 -0.2654 -0.2931 -0.6071
  558MOL0     C73547   5.753   9.744   3.409  0.3968  0.1484  0.4701
  558MOL0     O73548   5.856   9.844   3.416 -0.3136 -0.2611  0.1321
  558MOL0     C73549   5.990   9.800   3.416  0.4817 -0.2762  0.3123
  558MOL0     C73550   6.032   9.669   3.413  0.3576 -0.7127  1.3175
  558MOL0     C73551   6.166   9.639   3.416  0.3955 -0.0854  0.0017
  558MOL0     C73552   6.273   9.735   3.409  0.4612  0.0948 -0.5144
  558MOL0     C73553   6.413   9.710   3.403 -1.0945 -0.3472  0.5738
  558MOL0     O73554   6.504   9.813   3.409  0.2566 -0.4147  0.5913
  558MOL0     C73555   6.640   9.789   3.413  0.0476  0.1244  0.1232
  558MOL0     C73556   6.715   9.809   3.531 -0.4690  0.3412  0.9375
  558MOL0     C73557   6.857   9.814   3.521 -0.0565 -0.0809  0.4399
  558MOL0     C73558   6.933   9.780   3.412  0.1825 -0.5551  1.4249
  558MOL0     O73559   7.072   9.784   3.418  1.1402  0.0064  0.1529
  558MOL0     C73560   7.126   9.862   3.314 -0.1656 -0.0266 -0.0930
  558MOL0     C73561   7.271   9.846   3.329 -0.2958 -0.3319  0.2178
  558MOL0     C73562   7.351   9.948   3.246 -0.3322 -0.4250 -0.7288
  558MOL0     C73563   7.504   9.954   3.279  1.1842  0.7963 -0.6225
  558MOL0     C73564   7.564  10.032   3.156  0.2506  0.1853  0.9088
  558MOL0     C73565   7.675  10.119   3.206 -0.8436 -0.1426 -0.4143
  558MOL0     C73566   7.737  10.202   3.092 -0.1164 -0.3044 -0.2513
  558MOL0     C73567   7.829  10.313   3.141 -0.4396 -0.2230 -0.6123
  558MOL0    Cl73568   7.943  10.262   3.251 -0.1439 -0.1188 -0.1907
  558MOL0     C73569   6.856   9.751   3.292 -0.6076  0.2469  0.0842
  558MOL0     C73570   6.716   9.755   3.301  0.2077 -0.3578  0.8748
  558MOL0     O73571   6.443   9.591   3.403 -0.6141  0.3645 -0.6588
  558MOL0     C73572   6.221   9.865   3.417  0.3615  0.8426 -0.0025
  558MOL0     C73573   6.081   9.900   3.421  0.2992 -0.4057  0.5003
  558MOL0     N73574   5.269   9.736   3.505  0.3195  0.1614 -0.5267
  558MOL0     N73575   5.228   9.736   3.633 -0.8434  0.3125  0.8207
  558MOL0     C73576   6.406   9.712   3.796 -0.7574  0.9355  0.5459
  558MOL0     C73577   6.533   9.656   3.817  0.4289 -0.4227  0.1957
  558MOL0     C73578   6.990   9.664   3.877  0.6359  0.1709 -0.0201
  558MOL0     C73579   7.116   9.726   3.890  0.0102 -0.2242 -0.6914
  558MOL0     C73580   7.241   9.652   3.889 -0.5218 -0.3656  0.1574
  558MOL0     C73581   7.248   9.523   3.855  0.0489 -0.3036 -0.3820
  558MOL0     O73582   7.373   9.472   3.836  0.1071 -0.3348  0.0514
  558MOL0     C73583   7.389   9.336   3.811  0.4839 -0.3288 -1.1621
  558MOL0     C73584   7.539   9.297   3.833 -0.5240 -0.7824  0.3639
  558MOL0     C73585   7.626   9.380   3.726 -0.4086  0.1894  0.2620
  558MOL0     C73586   7.761   9.317   3.701 -0.3388 -0.3405  0.5534
  558MOL0     C73587   7.846   9.294   3.823  0.3640  0.2915  0.2901
  558MOL0     C73588   7.928   9.289   3.908 -0.4422 -0.1744 -0.3738
  558MOL0     C73589   7.122   9.456   3.850  0.0294  0.3868  0.3993
  558MOL0     C73590   6.999   9.524   3.870  0.9026  0.4604 -0.2284
  558MOL0     H73591   6.670   9.910   3.989  0.7033  0.9435 -1.9658
  558MOL0     H73592   6.451  10.017   3.930  0.7164  0.1144 -1.4995
  558MOL0     H73593   6.150   9.832   3.995 -0.0359 -0.0274  0.0404
  558MOL0     H73594   6.135   9.704   3.878 -0.3537  0.3938 -2.9354
  558MOL0     H73595   6.022   9.862   3.701 -2.1751 -0.2924 -0.7256
  558MOL0     H73596   6.024   9.979   3.830  1.0083 -0.8624  1.3021
  558MOL0     H73597   5.867   9.860   3.973 -2.0210  1.1014 -1.2878
  558MOL0     H73598   5.867   9.712   3.878 -0.4805 -0.7958 -1.3195
  558MOL0     H73599   5.797  10.003   3.787  1.6856 -0.5732  0.6656
  558MOL0     H73600   5.777   9.856   3.684  0.2285  0.2563 -0.4074
  558MOL0     H73601   5.631   9.881   3.948 -0.5493 -0.2946 -0.0485
  558MOL0     H73602   5.631   9.748   3.840  2.8689 -0.6869 -0.1030
  558MOL0     H73603   5.516   9.909   3.677 -2.0858 -0.1760  0.7034
  558MOL0     H73604   5.541  10.043   3.796 -0.3152  0.3081  1.0577
  558MOL0     H73605   5.386   9.938   3.951  0.2019 -1.9279  0.9687
  558MOL0     H73606   5.308   9.961   3.797  0.4749  1.0013  0.8494
  558MOL0     H73607   5.260   9.743   3.905  1.1426  0.0481  1.9817
  558MOL0     H73608   5.425   9.687   3.905 -1.9487 -2.6270 -0.9083
  558MOL0     H73609   5.532   9.603   3.661  2.7540  4.5845 -0.3557
  558MOL0     H73610   5.372   9.584   3.315 -2.4401  1.6439  1.3096
  558MOL0     H73611   5.539   9.555   3.396  0.4968  1.7316  1.1041
  558MOL0     H73612   5.444   9.808   3.274 -0.8223 -0.3761  2.2865
  558MOL0     H73613   5.543   9.688   3.202  1.3216  0.6794 -0.5628
  558MOL0     H73614   5.671   9.892   3.295  2.8592  0.5455  1.7172
  558MOL0     H73615   5.598   9.871   3.455 -1.5254  0.8442 -1.7296
  558MOL0     H73616   5.780   9.677   3.327 -0.6374 -0.4086  0.5667
  558MOL0     H73617   5.747   9.685   3.501  2.4666  3.3493  2.9043
  558MOL0     H73618   5.962   9.586   3.422 -2.1455  1.0663 -0.2837
  558MOL0     H73619   6.195   9.535   3.427 -0.4140 -0.3709 -0.5103
  558MOL0     H73620   6.659   9.834   3.621 -0.7578  3.5919  0.0045
  558MOL0     H73621   6.904   9.849   3.612 -1.4360  1.8299  0.4923
  558MOL0     H73622   7.093   9.966   3.312  0.8491  0.3233 -2.8041
  558MOL0     H73623   7.106   9.817   3.216 -0.1353 -0.9319  0.3071
  558MOL0     H73624   7.300   9.742   3.313  1.8802  0.5852 -2.7071
  558MOL0     H73625   7.290   9.859   3.436 -1.0352 -0.2164  0.3393
  558MOL0     H73626   7.302  10.046   3.254  0.4200  0.1855 -2.7624
  558MOL0     H73627   7.336   9.917   3.142  1.7924 -1.9277 -0.6542
  558MOL0     H73628   7.519  10.013   3.370 -0.1418  3.4430 -2.0054
  558MOL0     H73629   7.555   9.858   3.288  1.5257  0.6988 -2.8747
  558MOL0     H73630   7.497  10.105   3.110  1.5081  1.2987  0.7882
  558MOL0     H73631   7.596   9.953   3.087 -2.6425 -0.1635 -0.1837
  558MOL0     H73632   7.740  10.047   3.257 -1.7113 -0.4001  0.3608
  558MOL0     H73633   7.626  10.193   3.270 -2.0455  1.0755 -2.6259
  558MOL0     H73634   7.790  10.143   3.017  0.5153 -0.0766  0.0094
  558MOL0     H73635   7.660  10.246   3.028 -0.2249 -2.0350 -1.3954
  558MOL0     H73636   7.760  10.386   3.184 -1.0434 -1.7460  1.1124
  558MOL0     H73637   7.885  10.361   3.059  0.8566  0.4052  0.6005
  558MOL0     H73638   6.908   9.718   3.203  0.6660 -0.9611  1.2292
  558MOL0     H73639   6.661   9.745   3.208 -0.4000 -0.4078  1.2296
  558MOL0     H73640   6.289   9.947   3.396 -1.1943  1.7871 -1.5801
  558MOL0     H73641   6.060  10.005   3.405  0.8798 -0.1392  1.4079
  558MOL0     H73642   6.346   9.662   3.721  0.5438  3.7205 -2.5776
  558MOL0     H73643   6.566   9.564   3.770  0.5716  0.1551 -0.8709
  558MOL0     H73644   7.126   9.833   3.908 -3.3622  0.1840 -0.6357
  558MOL0     H73645   7.327   9.719   3.894 -0.9712  0.1671  0.8958
  558MOL0     H73646   7.346   9.311   3.713 -3.2068  1.2298 -0.1230
  558MOL0     H73647   7.325   9.286   3.884 -1.2513 -0.3875 -2.6462
  558MOL0     H73648   7.574   9.330   3.932  0.6548 -2.4089  0.5355
  558MOL0     H73649   7.550   9.189   3.823  1.0789 -0.5858 -0.3299
  558MOL0     H73650   7.640   9.482   3.764  0.9832  0.3658 -0.6354
  558MOL0     H73651   7.577   9.388   3.628  3.1777 -1.0894 -1.8292
  558MOL0     H73652   7.753   9.225   3.642  0.6299  0.2235 -0.5044
  558MOL0     H73653   7.819   9.387   3.639 -1.3262  3.0304  3.1318
  558MOL0     H73654   8.009   9.285   3.978 -1.8017 -1.9071  1.2197
  558MOL0     H73655   7.123   9.350   3.823 -1.5499  0.8846 -1.9083
  558MOL0     H73656   6.908   9.468   3.855 -0.1345  3.0030 -5.8954
  559MOL0     O73657   3.252   6.203  10.233 -0.3652  0.2348 -0.0954
  559MOL0     C73658   3.346   6.201  10.154 -0.6063 -0.2195 -0.3301
  559MOL0     O73659   3.334   6.180  10.016  0.2039  0.2418 -0.6675
  559MOL0     C73660   3.211   6.181   9.955 -0.6536  0.3790  0.8081
  559MOL0     C73661   3.192   6.252   9.829 -0.7091  0.1824  0.0092
  559MOL0     C73662   3.078   6.238   9.755  0.2806 -0.0192 -0.1941
  559MOL0     C73663   2.983   6.153   9.801  0.7047  0.8528 -0.1821
  559MOL0     O73664   2.869   6.131   9.731 -0.1052  0.1619  0.1908
  559MOL0     C73665   2.797   6.003   9.737  0.7065  0.0618 -0.1736
  559MOL0     C73666   2.896   5.887   9.702 -0.1934 -0.7453 -0.4224
  559MOL0     C73667   2.835   5.772   9.627 -0.3676 -0.4281 -0.5154
  559MOL0     C73668   2.708   5.706   9.700  0.0469  0.3192  0.9344
  559MOL0     C73669   2.642   5.606   9.608  0.0663  0.4182 -0.3214
  559MOL0     C73670   2.532   5.522   9.674 -0.1819 -0.0486 -0.3945
  559MOL0     C73671   2.466   5.415   9.575  0.1149  0.2206  1.0683
  559MOL0     C73672   2.331   5.356   9.627  0.8528  0.2197 -0.0262
  559MOL0     N73673   2.351   5.221   9.685  0.0031  0.0572 -0.0501
  559MOL0     C73674   2.306   5.108   9.630  0.5483  0.5451  0.5848
  559MOL0     C73675   2.342   5.008   9.720 -0.9718 -0.0309  0.4331
  559MOL0     C73676   2.297   4.861   9.697 -0.0488 -0.6298 -0.6061
  559MOL0     C73677   2.156   4.822   9.729 -0.4888 -0.5403  0.8650
  559MOL0     C73678   2.137   4.673   9.722 -0.2216 -0.1217 -0.5134
  559MOL0     C73679   1.996   4.624   9.753  0.0882 -0.6210  0.8964
  559MOL0     O73680   2.007   4.483   9.746  0.5650 -0.4357  0.0968
  559MOL0     C73681   1.933   4.409   9.834  0.1822 -0.5648 -0.1221
  559MOL0     C73682   1.807   4.448   9.880 -0.6259  0.5658 -0.3582
  559MOL0     C73683   1.749   4.376   9.988  0.3379  0.3676  0.0088
  559MOL0     C73684   1.818   4.259  10.043  1.1632  0.0973 -0.6792
  559MOL0     C73685   1.763   4.183  10.153 -0.3214  0.1489 -0.3785
  559MOL0     O73686   1.631   4.198  10.171 -0.2159 -1.1870 -0.1837
  559MOL0     C73687   1.561   4.125  10.259  0.8152 -0.2936  0.5708
  559MOL0     C73688   1.591   4.041  10.361 -0.3815 -0.2769 -0.9126
  559MOL0     C73689   1.487   3.969  10.428 -0.1880  0.1103  0.5681
  559MOL0     C73690   1.358   3.989  10.396  0.9775 -0.3098 -0.1107
  559MOL0     O73691   1.259   3.915  10.445  0.5648 -0.3867  0.4005
  559MOL0     C73692   1.287   3.825  10.558 -0.4354  0.2899  0.1687
  559MOL0     C73693   1.163   3.752  10.609  0.0275  0.0566 -0.4098
  559MOL0     C73694   1.077   3.844  10.690 -0.0567  0.1046  0.2817
  559MOL0     C73695   0.962   3.773  10.766  0.4081 -0.1483 -0.2074
  559MOL0     C73696   0.861   3.701  10.668 -0.2829  0.0772 -0.0610
  559MOL0     C73697   0.763   3.616  10.756 -0.4496 -0.2834 -1.0166
  559MOL0     C73698   0.650   3.559  10.668 -0.2547 -0.1639 -0.1335
  559MOL0     C73699   0.550   3.487  10.756 -0.9291 -0.2289 -0.4547
  559MOL0    Cl73700   0.482   3.614  10.874 -0.1271 -0.4738  0.2507
  559MOL0     C73701   1.319   4.073  10.296 -0.2529 -0.7877  0.0010
  559MOL0     C73702   1.420   4.141  10.225  0.8779  0.8859  0.6393
  559MOL0     O73703   1.841   4.112  10.220  0.4731  0.5690 -0.1102
  559MOL0     C73704   1.948   4.232   9.996  1.6176  0.4328  0.0271
  559MOL0     C73705   2.006   4.304   9.888  0.1169 -0.7723 -0.0864
  559MOL0     N73706   2.424   5.060   9.824  0.2578  0.1328  0.9246
  559MOL0     N73707   2.425   5.189   9.796 -0.0700  0.7156  0.6979
  559MOL0     C73708   3.003   6.081   9.919  1.0343 -0.2646  0.4055
  559MOL0     C73709   3.114   6.093   9.995  0.3757  0.2404  0.2391
  559MOL0     C73710   3.481   6.197  10.212 -0.3975  1.0459 -0.1325
  559MOL0     C73711   3.586   6.228  10.130  0.6443 -0.0264 -0.5114
  559MOL0     C73712   3.716   6.219  10.170 -0.3929  0.6199  0.0213
  559MOL0     C73713   3.750   6.171  10.298 -0.7987 -0.6536 -0.1552
  559MOL0     O73714   3.888   6.162  10.316 -0.2929  0.6537  0.5354
  559MOL0     C73715   3.948   6.108  10.434  0.1086 -0.6955 -0.6052
  559MOL0     C73716   4.087   6.177  10.470  0.4057  0.0395 -0.1944
  559MOL0     C73717   4.070   6.314  10.527  0.0928  0.0483 -0.4692
  559MOL0     C73718   4.214   6.375  10.556 -0.3306  0.1677  0.8287
  559MOL0     C73719   4.259   6.445  10.430 -0.1841  0.3557 -0.7779
  559MOL0     C73720   4.307   6.511  10.344  0.4064 -0.0914 -0.4018
  559MOL0     C73721   3.643   6.137  10.383 -0.0912 -0.2907 -0.6676
  559MOL0     C73722   3.504   6.152  10.340 -0.9508  0.7272 -0.3574
  559MOL0     H73723   3.268   6.315   9.784  0.4090  0.5360  2.2568
  559MOL0     H73724   3.059   6.295   9.665 -0.9843 -0.3312 -0.1556
  559MOL0     H73725   2.722   5.992   9.658 -0.1133  1.5157  0.3728
  559MOL0     H73726   2.741   5.995   9.830  1.2265  1.3709  0.2715
  559MOL0     H73727   2.940   5.845   9.793 -0.4979  1.1560  0.6532
  559MOL0     H73728   2.979   5.926   9.641 -0.2717  0.8349  0.4541
  559MOL0     H73729   2.907   5.692   9.608 -0.2174 -0.0066 -1.7809
  559MOL0     H73730   2.806   5.807   9.527 -3.0306 -0.5626  0.1332
  559MOL0     H73731   2.732   5.656   9.794 -1.4637 -2.5114 -0.0555
  559MOL0     H73732   2.631   5.781   9.721  1.4359  1.5728  1.6761
  559MOL0     H73733   2.714   5.530   9.573 -1.7687 -0.4571 -2.4206
  559MOL0     H73734   2.611   5.658   9.517  2.8096  1.4045 -0.8070
  559MOL0     H73735   2.451   5.588   9.705 -2.8355 -2.3040 -2.0397
  559MOL0     H73736   2.566   5.479   9.768  0.3442 -1.6968 -1.2889
  559MOL0     H73737   2.448   5.462   9.477  0.9932 -0.6929  0.4443
  559MOL0     H73738   2.525   5.325   9.556 -0.1596 -0.4518  3.1941
  559MOL0     H73739   2.265   5.341   9.541  0.4771 -1.9127  0.5781
  559MOL0     H73740   2.281   5.419   9.701  3.0540 -1.4027  3.0583
  559MOL0     H73741   2.250   5.110   9.537 -0.1840 -0.8236  0.9651
  559MOL0     H73742   2.367   4.800   9.754  0.9237  0.3421 -0.7172
  559MOL0     H73743   2.303   4.835   9.590 -1.8853  0.5299 -1.0333
  559MOL0     H73744   2.092   4.879   9.662  1.5729  1.9149  0.8286
  559MOL0     H73745   2.125   4.861   9.826  2.2689 -1.4068  2.2142
  559MOL0     H73746   2.168   4.633   9.625 -2.4108  0.1095 -1.3655
  559MOL0     H73747   2.213   4.638   9.793 -0.8699  0.4706  0.5011
  559MOL0     H73748   1.927   4.662   9.677 -0.7573  2.1998  2.8959
  559MOL0     H73749   1.963   4.659   9.851  3.2263  0.9594  1.5200
  559MOL0     H73750   1.755   4.536   9.843  0.6944  3.2694  3.5594
  559MOL0     H73751   1.650   4.399  10.028  0.3606 -1.4956  1.2251
  559MOL0     H73752   1.696   4.019  10.374  0.2845  2.5404 -1.0125
  559MOL0     H73753   1.525   3.890  10.492  1.5621 -1.2053 -1.9306
  559MOL0     H73754   1.329   3.888  10.637  1.7248  0.2849 -0.9094
  559MOL0     H73755   1.364   3.751  10.532 -1.3828 -2.1493  3.5704
  559MOL0     H73756   1.193   3.664  10.668  0.7537  0.4592 -0.1676
  559MOL0     H73757   1.104   3.725  10.521  2.2269 -1.0640 -1.6435
  559MOL0     H73758   1.035   3.915  10.618  1.8953  0.6346 -0.3962
  559MOL0     H73759   1.135   3.908  10.758 -0.8694  0.7789  0.3544
  559MOL0     H73760   1.000   3.692  10.829  0.6075 -0.5188 -0.7920
  559MOL0     H73761   0.905   3.846  10.823 -0.0834 -0.3794 -0.3930
  559MOL0     H73762   0.909   3.639  10.592 -1.7800  0.2108 -1.1569
  559MOL0     H73763   0.803   3.771  10.607  0.5282  1.8457  1.1185
  559MOL0     H73764   0.728   3.686  10.832  1.1038 -0.0815 -0.4576
  559MOL0     H73765   0.812   3.534  10.808 -0.8770  2.8490  5.2267
  559MOL0     H73766   0.595   3.641  10.620 -0.2997  1.1610  2.0494
  559MOL0     H73767   0.701   3.493  10.597  0.0732 -1.4735  1.2509
  559MOL0     H73768   0.588   3.401  10.813  0.5558  0.0722 -0.9440
  559MOL0     H73769   0.473   3.443  10.692 -0.1741 -2.5546  0.1536
  559MOL0     H73770   1.215   4.091  10.270 -0.1095  2.1465  1.0150
  559MOL0     H73771   1.387   4.203  10.142  0.8941 -0.9252 -0.7874
  559MOL0     H73772   2.012   4.160  10.046  0.5115 -1.2563 -0.8737
  559MOL0     H73773   2.109   4.289   9.856 -0.0053 -2.8147  0.3423
  559MOL0     H73774   2.932   6.009   9.961 -0.7648  1.7714  1.0214
  559MOL0     H73775   3.124   6.032  10.084  1.0707  1.5169  1.0798
  559MOL0     H73776   3.579   6.256  10.026 -1.1068  2.4131  0.1845
  559MOL0     H73777   3.786   6.254  10.095 -1.3222  2.0666 -0.2298
  559MOL0     H73778   3.981   6.006  10.413  3.5313  0.2092 -0.2950
  559MOL0     H73779   3.880   6.120  10.519  0.4715  2.3271 -0.6138
  559MOL0     H73780   4.139   6.110  10.540  1.1712 -0.0013 -0.7843
  559MOL0     H73781   4.150   6.185  10.381  6.3260 -1.4862  3.2376
  559MOL0     H73782   4.020   6.308  10.625  0.8506  2.3911  0.1265
  559MOL0     H73783   4.012   6.382  10.464 -0.3895  0.9458  0.8833
  559MOL0     H73784   4.214   6.455  10.631 -3.3104  1.5473 -0.4655
  559MOL0     H73785   4.289   6.297  10.574  0.1247  0.5493  0.6071
  559MOL0     H73786   4.358   6.561  10.264  1.2934  0.6442  0.5738
  559MOL0     H73787   3.663   6.091  10.479  3.4622 -0.1445 -1.1877
  559MOL0     H73788   3.418   6.125  10.400  1.0260 -2.8653  1.2246
  560MOL0     O73789   3.249  11.173   8.548 -0.8552  0.0206  0.6452
  560MOL0     C73790   3.240  11.277   8.606 -1.2414 -0.5364 -0.5573
  560MOL0     O73791   3.124  11.337   8.650 -0.1936  0.1881  0.4077
  560MOL0     C73792   3.014  11.252   8.642 -0.1651 -0.4907  0.1876
  560MOL0     C73793   2.985  11.162   8.748  0.2633 -0.4832  0.3129
  560MOL0     C73794   2.872  11.078   8.750  0.3530 -0.6319 -0.4717
  560MOL0     C73795   2.800  11.081   8.636 -0.1193  1.3536  0.2261
  560MOL0     O73796   2.699  10.985   8.635  0.0204  0.2061 -0.5352
  560MOL0     C73797   2.597  11.007   8.536 -0.4131 -0.2862  0.1137
  560MOL0     C73798   2.480  10.918   8.570  0.6164 -0.0535 -0.9109
  560MOL0     C73799   2.364  10.907   8.474  0.4839 -0.2003 -0.2574
  560MOL0     C73800   2.293  10.767   8.486 -0.4409 -0.5499  0.4146
  560MOL0     C73801   2.197  10.747   8.366 -0.5063 -0.4431 -0.0497
  560MOL0     C73802   2.097  10.862   8.352  0.8345 -0.0821 -0.5185
  560MOL0     C73803   1.989  10.830   8.258 -0.4735 -0.5168  0.9435
  560MOL0     C73804   1.885  10.735   8.314 -0.8698 -0.4110  0.6018
  560MOL0     N73805   1.787  10.705   8.211  0.7849  0.8757 -0.1379
  560MOL0     C73806   1.755  10.582   8.178  0.7000  0.8033 -0.6645
  560MOL0     C73807   1.653  10.599   8.099 -0.0736  0.4981  0.7414
  560MOL0     C73808   1.579  10.490   8.017 -0.5530  0.3667 -0.5035
  560MOL0     C73809   1.439  10.470   8.080 -0.1306  1.0457  0.1898
  560MOL0     C73810   1.349  10.591   8.053  1.1211 -0.0207  0.6280
  560MOL0     C73811   1.211  10.558   8.104  0.7767  0.1267  1.1627
  560MOL0     O73812   1.151  10.455   8.020 -0.4854 -0.4426 -0.2222
  560MOL0     C73813   1.021  10.430   8.022  0.6690 -0.3991 -0.2150
  560MOL0     C73814   0.968  10.302   8.002 -0.0234 -0.6859  0.5397
  560MOL0     C73815   0.832  10.272   8.016  0.0654  0.0833 -0.3171
  560MOL0     C73816   0.742  10.375   8.052 -0.0689  0.6688 -0.3999
  560MOL0     C73817   0.598  10.335   8.051  1.0771  0.3044  0.3156
  560MOL0     O73818   0.571  10.210   7.991 -0.2199 -1.1511  0.2160
  560MOL0     C73819   0.446  10.167   7.976 -0.3008 -0.9959  0.3511
  560MOL0     C73820   0.437  10.031   7.984  0.4903 -0.1009  0.3602
  560MOL0     C73821   0.313   9.960   7.983  0.0235 -0.8423  0.8008
  560MOL0     C73822   0.199  10.031   7.956 -1.3162 -0.0662  0.2024
  560MOL0     O73823   0.080   9.968   7.929 -0.8977 -0.1929 -0.0012
  560MOL0     C73824   0.081   9.835   7.867 -0.2951 -0.0123  0.5657
  560MOL0     C73825  -0.060   9.788   7.841  0.5564  0.0455  0.4035
  560MOL0     C73826  -0.079   9.638   7.812 -0.1558 -0.1096  0.0707
  560MOL0     C73827  -0.228   9.612   7.790  0.3266  0.4900 -0.5053
  560MOL0     C73828  -0.267   9.463   7.741 -0.6376  0.5236 -0.2607
  560MOL0     C73829  -0.239   9.369   7.846 -0.1917  0.9431  0.4539
  560MOL0     C73830  -0.299   9.225   7.825 -0.4860 -0.0720 -0.0823
  560MOL0     C73831  -0.255   9.137   7.938  0.3365 -0.2555 -0.4142
  560MOL0    Cl73832  -0.385   9.158   8.063 -0.5206  0.3211 -0.1606
  560MOL0     C73833   0.209  10.171   7.933  0.2407 -0.1261 -0.7908
  560MOL0     C73834   0.329  10.241   7.954  0.1996 -0.3537  0.1712
  560MOL0     O73835   0.516  10.417   8.088  1.4517  0.3523  0.8665
  560MOL0     C73836   0.787  10.509   8.069 -0.4571  0.2292  0.2459
  560MOL0     C73837   0.925  10.532   8.060  0.7684  0.2683  0.6666
  560MOL0     N73838   1.620  10.734   8.082 -0.2986  0.0953 -0.0761
  560MOL0     N73839   1.707  10.800   8.150 -0.6721  0.1432 -0.4808
  560MOL0     C73840   2.826  11.166   8.531  0.3262 -0.4491  0.4288
  560MOL0     C73841   2.936  11.252   8.524 -0.1463  0.0471 -0.2478
  560MOL0     C73842   3.373  11.343   8.636  0.3715 -0.1206 -0.4019
  560MOL0     C73843   3.499  11.286   8.618 -0.5475 -0.6310 -0.8790
  560MOL0     C73844   3.615  11.355   8.655 -0.0030 -0.3997 -0.5342
  560MOL0     C73845   3.607  11.484   8.705  0.5550  0.2060 -0.1966
  560MOL0     O73846   3.728  11.535   8.749  0.0034 -0.3188 -0.2046
  560MOL0     C73847   3.731  11.660   8.818  1.4814  0.8893  0.6243
  560MOL0     C73848   3.773  11.783   8.735 -0.1209  0.2872  0.4066
  560MOL0     C73849   3.671  11.805   8.621 -1.1940 -0.2180 -0.1442
  560MOL0     C73850   3.723  11.898   8.509 -0.3623  0.0126 -0.3013
  560MOL0     C73851   3.810  12.004   8.562  0.2310  0.3080 -0.0928
  560MOL0     C73852   3.889  12.090   8.608 -0.4366 -0.0217  0.0643
  560MOL0     C73853   3.483  11.548   8.697  0.0214 -0.6118 -0.0951
  560MOL0     C73854   3.367  11.475   8.671 -1.2458 -0.4376 -0.5836
  560MOL0     H73855   3.039  11.165   8.843 -0.1518 -0.8831  0.5660
  560MOL0     H73856   2.828  11.013   8.826  0.9817 -1.2063 -0.5923
  560MOL0     H73857   2.627  10.965   8.440  1.5595  3.8303 -1.3177
  560MOL0     H73858   2.574  11.112   8.515  0.6648 -0.5234 -2.7738
  560MOL0     H73859   2.439  10.972   8.656 -0.3444 -0.1741 -1.2910
  560MOL0     H73860   2.516  10.817   8.591 -0.6366 -0.2954  0.1686
  560MOL0     H73861   2.400  10.929   8.373  1.3009 -4.3100 -1.0720
  560MOL0     H73862   2.283  10.976   8.499 -0.3332 -1.8864  2.0963
  560MOL0     H73863   2.365  10.687   8.465  2.3719  2.0373 -0.5207
  560MOL0     H73864   2.243  10.760   8.583 -2.6484 -2.4091 -0.7418
  560MOL0     H73865   2.142  10.653   8.372 -3.2134  1.0244 -0.3038
  560MOL0     H73866   2.259  10.747   8.276  3.3123  1.4468  2.2836
  560MOL0     H73867   2.151  10.948   8.311 -1.9545  2.3357  0.5398
  560MOL0     H73868   2.046  10.874   8.448 -1.2005 -4.3031 -0.8448
  560MOL0     H73869   1.937  10.925   8.239 -1.3677 -0.5999  2.7527
  560MOL0     H73870   2.030  10.791   8.165 -0.3577  1.8949 -0.0772
  560MOL0     H73871   1.849  10.774   8.410  2.2961  0.0426  1.7347
  560MOL0     H73872   1.922  10.640   8.353 -2.5230  0.1267  3.8360
  560MOL0     H73873   1.806  10.489   8.202 -0.7816 -0.0498 -0.7122
  560MOL0     H73874   1.642  10.403   8.037  0.9284  1.4157 -0.4039
  560MOL0     H73875   1.571  10.522   7.913  1.1496 -0.0993 -0.8168
  560MOL0     H73876   1.436  10.457   8.189 -0.4311  1.2830  0.2101
  560MOL0     H73877   1.395  10.384   8.029  2.7179  1.4219 -3.2615
  560MOL0     H73878   1.374  10.684   8.105 -0.3993  0.1105  1.1588
  560MOL0     H73879   1.333  10.614   7.947 -3.3414 -0.4182  1.0371
  560MOL0     H73880   1.158  10.653   8.111 -1.3646 -0.8059 -1.1189
  560MOL0     H73881   1.217  10.515   8.204 -0.1945  1.9698  2.0612
  560MOL0     H73882   1.046  10.237   7.965 -0.5401 -0.7699 -0.4340
  560MOL0     H73883   0.796  10.171   8.002 -0.1986 -0.5073  3.5085
  560MOL0     H73884   0.534   9.983   7.997 -0.2766 -1.9655 -0.3841
  560MOL0     H73885   0.314   9.853   8.000 -0.6374 -1.4390 -2.3623
  560MOL0     H73886   0.129   9.753   7.921 -2.2266 -1.7568 -0.2101
  560MOL0     H73887   0.129   9.851   7.770 -1.6330  0.8408  0.0152
  560MOL0     H73888  -0.103   9.847   7.760 -0.1947  1.2123  1.6138
  560MOL0     H73889  -0.114   9.823   7.929  0.3081  3.0505 -0.8415
  560MOL0     H73890  -0.040   9.577   7.894 -0.7316  0.6667  0.9497
  560MOL0     H73891  -0.032   9.608   7.718  0.4757  0.1898  0.2829
  560MOL0     H73892  -0.281   9.631   7.884 -0.8143  0.6059 -1.1543
  560MOL0     H73893  -0.265   9.681   7.714 -3.1585 -1.3295 -0.6829
  560MOL0     H73894  -0.215   9.438   7.648 -0.0898  1.7617 -0.3068
  560MOL0     H73895  -0.374   9.453   7.719 -1.0490 -0.7883  2.0434
  560MOL0     H73896  -0.273   9.402   7.945  1.6409 -2.7247  2.5284
  560MOL0     H73897  -0.130   9.367   7.844 -0.1445  2.0334 -2.3806
  560MOL0     H73898  -0.407   9.234   7.837 -0.3257 -0.8273  2.5589
  560MOL0     H73899  -0.287   9.172   7.730 -2.5323  2.7477 -2.1167
  560MOL0     H73900  -0.160   9.162   7.987 -0.8893 -0.4418  2.2624
  560MOL0     H73901  -0.238   9.035   7.902  3.2218 -0.9287  2.3782
  560MOL0     H73902   0.117  10.223   7.909 -3.0956 -3.4199  3.1979
  560MOL0     H73903   0.331  10.346   7.927  1.1302 -0.0792  1.2047
  560MOL0     H73904   0.726  10.598   8.078  0.2451  1.1478 -2.7390
  560MOL0     H73905   0.959  10.633   8.083  0.1454  0.8274 -0.7649
  560MOL0     H73906   2.777  11.160   8.434  2.1919  1.5732 -0.7166
  560MOL0     H73907   2.956  11.316   8.438  1.4721 -2.5270 -1.9418
  560MOL0     H73908   3.518  11.189   8.572  2.5577 -0.0108 -1.0911
  560MOL0     H73909   3.715  11.313   8.648  0.2511 -0.3573  1.8750
  560MOL0     H73910   3.805  11.642   8.896  1.7409 -3.4045 -0.3723
  560MOL0     H73911   3.634  11.687   8.860  1.7452  0.9152  1.2295
  560MOL0     H73912   3.766  11.871   8.799  0.9218  0.6867 -0.0160
  560MOL0     H73913   3.876  11.762   8.705  0.0725 -0.4893  1.5474
  560MOL0     H73914   3.578  11.846   8.662 -0.8341 -0.5561  1.0600
  560MOL0     H73915   3.648  11.708   8.577  0.3971 -1.0286  0.7340
  560MOL0     H73916   3.780  11.844   8.432 -1.3884 -0.4123 -0.7851
  560MOL0     H73917   3.638  11.947   8.460 -1.0152  2.5904  3.0851
  560MOL0     H73918   3.968  12.157   8.636 -1.2391  0.9120  0.1444
  560MOL0     H73919   3.478  11.648   8.741  1.6202 -1.1271  1.3635
  560MOL0     H73920   3.269  11.520   8.680 -1.0478 -0.3064  1.4518
  561MOL0     O73921   4.442   6.579   5.580 -0.4178 -0.5237 -0.2923
  561MOL0     C73922   4.447   6.609   5.705 -0.3230  0.5002  0.4590
  561MOL0     O73923   4.348   6.600   5.796 -0.0233  0.0860 -0.0972
  561MOL0     C73924   4.228   6.553   5.754  0.5788  0.4879 -0.5175
  561MOL0     C73925   4.203   6.422   5.712  0.6471  0.2321 -0.7612
  561MOL0     C73926   4.072   6.368   5.685 -0.8682 -0.2966 -0.0088
  561MOL0     C73927   3.962   6.454   5.688 -0.0363 -0.8768 -0.6577
  561MOL0     O73928   3.839   6.410   5.656  0.0938  0.3854 -0.2618
  561MOL0     C73929   3.753   6.430   5.769  0.1643 -0.1636  0.2558
  561MOL0     C73930   3.617   6.370   5.718 -1.0794  0.3254 -0.4747
  561MOL0     C73931   3.489   6.431   5.779 -0.2430  0.3015 -0.3806
  561MOL0     C73932   3.367   6.339   5.745 -1.1822 -0.8525 -0.5487
  561MOL0     C73933   3.228   6.406   5.766  0.0124  0.4915 -0.3404
  561MOL0     C73934   3.092   6.350   5.704 -0.4369 -0.1442 -0.1397
  561MOL0     C73935   3.123   6.323   5.555  0.2101  0.8214 -0.0924
  561MOL0     C73936   2.992   6.270   5.480  0.7763  0.7768 -0.4634
  561MOL0     N73937   2.896   6.378   5.476  0.4914 -0.3212  0.0607
  561MOL0     C73938   2.924   6.504   5.424  0.0585 -0.3146 -0.2297
  561MOL0     C73939   2.800   6.563   5.428 -0.8797 -0.0757  0.1070
  561MOL0     C73940   2.781   6.686   5.343  0.1926  0.5511  0.0666
  561MOL0     C73941   2.786   6.806   5.433  0.2174 -0.5526 -0.5700
  561MOL0     C73942   2.762   6.937   5.356 -0.3062  0.4162 -0.0115
  561MOL0     C73943   2.876   7.038   5.367 -0.5604 -0.1453 -0.2575
  561MOL0     O73944   2.990   6.982   5.308 -0.1147  0.1664 -0.2618
  561MOL0     C73945   3.110   7.055   5.300  0.3243  0.2326  0.7235
  561MOL0     C73946   3.214   6.993   5.235  0.4029  0.2168  0.7819
  561MOL0     C73947   3.336   7.053   5.218  0.9145  0.5098 -0.0690
  561MOL0     C73948   3.353   7.183   5.253 -0.6768 -0.3700 -0.0578
  561MOL0     C73949   3.484   7.245   5.226 -0.2310  0.2035 -0.0610
  561MOL0     O73950   3.480   7.380   5.202 -0.2405  0.4644 -0.2282
  561MOL0     C73951   3.586   7.450   5.150  0.2967 -0.2829  0.0567
  561MOL0     C73952   3.618   7.425   5.020  0.1578  0.1177 -0.2827
  561MOL0     C73953   3.726   7.488   4.964  0.4094  0.3758  0.2151
  561MOL0     C73954   3.806   7.582   5.024 -0.1405 -0.2635 -0.5931
  561MOL0     O73955   3.901   7.655   4.947 -0.4374  0.5307 -0.3637
  561MOL0     C73956   4.015   7.709   5.019 -1.1602  0.4803  0.9780
  561MOL0     C73957   4.119   7.612   5.075 -0.4742 -0.9054 -0.3179
  561MOL0     C73958   4.231   7.711   5.134  0.2413 -0.1673  0.2119
  561MOL0     C73959   4.357   7.630   5.177 -0.3322  0.1535  0.1180
  561MOL0     C73960   4.481   7.717   5.208 -0.0934  0.4494  0.5335
  561MOL0     C73961   4.459   7.849   5.288 -0.4759  0.2073  0.0231
  561MOL0     C73962   4.582   7.942   5.275 -0.1382 -0.2938 -0.2267
  561MOL0     C73963   4.689   7.912   5.385 -0.0328  0.2454  0.3546
  561MOL0    Cl73964   4.805   8.038   5.415 -0.3861  0.0763  0.2242
  561MOL0     C73965   3.770   7.607   5.163  0.2363  0.2967 -0.1463
  561MOL0     C73966   3.654   7.550   5.225  0.2094  0.0848  1.0760
  561MOL0     O73967   3.588   7.176   5.213 -0.1694 -0.9348 -0.1429
  561MOL0     C73968   3.252   7.248   5.316 -0.1104 -0.0418 -0.9986
  561MOL0     C73969   3.128   7.188   5.335  0.4026  0.0839  0.8272
  561MOL0     N73970   2.712   6.480   5.488  0.3164  0.2284 -0.0646
  561MOL0     N73971   2.763   6.365   5.504  0.4185 -0.0229  0.0434
  561MOL0     C73972   3.988   6.590   5.720 -0.8277 -0.8170 -0.6424
  561MOL0     C73973   4.116   6.640   5.757 -0.3841 -0.0761  0.3905
  561MOL0     C73974   4.574   6.647   5.761 -0.1847  0.8211 -0.3993
  561MOL0     C73975   4.571   6.724   5.878  0.2818  0.1235 -0.4488
  561MOL0     C73976   4.694   6.769   5.932 -0.1451 -0.4731  0.4475
  561MOL0     C73977   4.815   6.751   5.859 -0.3241 -0.0907 -0.3773
  561MOL0     O73978   4.932   6.793   5.925  0.2931 -0.3584 -0.0158
  561MOL0     C73979   5.041   6.795   5.843 -0.3953 -0.1169 -0.2551
  561MOL0     C73980   5.147   6.865   5.922 -0.1235  0.2374  0.3639
  561MOL0     C73981   5.277   6.896   5.832 -0.3186  0.8684 -0.2823
  561MOL0     C73982   5.399   6.922   5.922  1.3524 -0.1012  0.2275
  561MOL0     C73983   5.526   6.921   5.838  0.7342 -0.5126 -1.1586
  561MOL0     C73984   5.637   6.925   5.794 -0.4359 -0.3990  0.3552
  561MOL0     C73985   4.815   6.686   5.731 -0.0691  0.7323 -0.8544
  561MOL0     C73986   4.697   6.631   5.685 -0.1716  0.1833  0.3171
  561MOL0     H73987   4.283   6.350   5.724 -1.3175 -2.0617 -0.6731
  561MOL0     H73988   4.063   6.266   5.650 -0.9817 -0.0280 -0.7918
  561MOL0     H73989   3.747   6.536   5.794  0.5592  1.0795 -4.1450
  561MOL0     H73990   3.785   6.383   5.863 -0.1825  1.6353  1.3075
  561MOL0     H73991   3.622   6.263   5.739 -2.2785  0.6492  1.7591
  561MOL0     H73992   3.612   6.384   5.610  2.2410 -2.2302 -1.1147
  561MOL0     H73993   3.466   6.526   5.731 -1.9104 -2.0158 -4.6567
  561MOL0     H73994   3.500   6.436   5.888  0.2782 -1.6896 -0.3036
  561MOL0     H73995   3.379   6.295   5.646 -0.1137 -2.4055  0.2242
  561MOL0     H73996   3.373   6.255   5.815  1.9964  0.2733  0.6987
  561MOL0     H73997   3.233   6.513   5.742 -3.0360  1.2436  1.8319
  561MOL0     H73998   3.212   6.404   5.874  1.4574  0.4004 -0.1079
  561MOL0     H73999   3.021   6.433   5.702  0.0045  0.2274 -0.6352
  561MOL0     H74000   3.050   6.263   5.754 -1.4433  0.5407  0.2454
  561MOL0     H74001   3.177   6.406   5.508  0.1099  0.5432 -0.7070
  561MOL0     H74002   3.198   6.245   5.543  2.7089  3.2237 -1.1791
  561MOL0     H74003   2.957   6.183   5.537  0.8952 -0.8941 -2.7729
  561MOL0     H74004   3.013   6.223   5.383 -0.7264 -2.4660  0.6239
  561MOL0     H74005   3.022   6.526   5.383  0.7087 -0.9163  0.9310
  561MOL0     H74006   2.680   6.680   5.301  1.7298 -2.4008 -3.8070
  561MOL0     H74007   2.857   6.689   5.264  1.0242 -1.0826  0.7628
  561MOL0     H74008   2.880   6.798   5.488 -0.7556 -1.4736  1.0385
  561MOL0     H74009   2.707   6.793   5.507  2.4129  1.1547  2.3036
  561MOL0     H74010   2.741   6.908   5.253  1.1421 -1.3427  0.1460
  561MOL0     H74011   2.671   6.981   5.398 -0.3001  0.2969  0.1280
  561MOL0     H74012   2.876   7.049   5.476 -1.0037  1.6404 -0.4116
  561MOL0     H74013   2.848   7.131   5.317  0.2928 -0.2403 -0.9248
  561MOL0     H74014   3.188   6.906   5.176 -2.0209 -0.0293  2.0740
  561MOL0     H74015   3.402   6.987   5.161 -2.6300 -1.0617 -2.7114
  561MOL0     H74016   3.571   7.348   4.959 -0.0928  0.4265 -0.4833
  561MOL0     H74017   3.753   7.452   4.865  0.4886 -0.5914  0.5828
  561MOL0     H74018   3.976   7.775   5.097  1.0482 -0.2663  2.8461
  561MOL0     H74019   4.064   7.767   4.940 -1.5114  0.4411  0.7273
  561MOL0     H74020   4.163   7.555   4.993 -0.0008 -0.6232 -0.2649
  561MOL0     H74021   4.085   7.552   5.160  1.5198  0.5229  1.6035
  561MOL0     H74022   4.195   7.756   5.226  1.9759  1.7785  0.0104
  561MOL0     H74023   4.261   7.794   5.068  0.2312  0.4723  1.0027
  561MOL0     H74024   4.324   7.580   5.268 -0.0843 -1.0488 -0.4406
  561MOL0     H74025   4.383   7.548   5.109 -0.3954  1.3032 -1.3475
  561MOL0     H74026   4.530   7.750   5.116  2.6490 -0.5542  1.5295
  561MOL0     H74027   4.557   7.652   5.253 -0.2997 -0.3403 -0.2053
  561MOL0     H74028   4.440   7.827   5.394 -0.9686  1.7581  0.2751
  561MOL0     H74029   4.375   7.911   5.255  0.0257  1.4099  0.9237
  561MOL0     H74030   4.622   7.937   5.173 -4.9640  0.7466 -2.4498
  561MOL0     H74031   4.547   8.044   5.295 -0.2521  0.1481 -2.4361
  561MOL0     H74032   4.740   7.818   5.364  4.6962  2.9954 -1.9095
  561MOL0     H74033   4.627   7.913   5.475  1.2888 -1.1529  1.3159
  561MOL0     H74034   3.836   7.669   5.223  3.5813 -0.1702 -3.0523
  561MOL0     H74035   3.653   7.558   5.333 -0.1799  0.9872  1.0142
  561MOL0     H74036   3.268   7.350   5.351 -0.0386 -0.8806  1.6226
  561MOL0     H74037   3.050   7.243   5.386 -0.9878 -1.1801  0.1297
  561MOL0     H74038   3.905   6.660   5.715  0.5914  1.1887  1.8238
  561MOL0     H74039   4.112   6.747   5.777 -0.4587  0.2655 -1.3474
  561MOL0     H74040   4.476   6.746   5.925  1.1903 -0.0624  1.6460
  561MOL0     H74041   4.694   6.832   6.021 -1.3806  0.4902 -0.1946
  561MOL0     H74042   5.020   6.851   5.751  0.3579  0.5558 -0.0266
  561MOL0     H74043   5.084   6.700   5.808  2.2702 -0.2538  2.9561
  561MOL0     H74044   5.107   6.961   5.957 -1.0002 -0.4014  1.1529
  561MOL0     H74045   5.177   6.798   6.003  2.1829  2.8704  1.8608
  561MOL0     H74046   5.259   6.988   5.775  3.2274  0.8779 -1.6792
  561MOL0     H74047   5.293   6.806   5.772 -1.8400  0.7248 -0.5003
  561MOL0     H74048   5.384   7.027   5.952 -1.1067  0.0152 -1.1149
  561MOL0     H74049   5.407   6.859   6.012  4.4347  0.1706  0.2447
  561MOL0     H74050   5.743   6.937   5.779 -0.6911 -1.3607 -3.2727
  561MOL0     H74051   4.905   6.659   5.676  1.3972  0.4469  1.5358
  561MOL0     H74052   4.692   6.571   5.594  2.0435  0.6554 -0.1955
  562MOL0     O74053   0.106   4.245   9.817  0.4986 -0.9224  0.4654
  562MOL0     C74054   0.102   4.123   9.795  0.5814  0.0635  0.6370
  562MOL0     O74055  -0.010   4.044   9.776 -0.5994 -0.3686 -0.1752
  562MOL0     C74056  -0.132   4.075   9.806  0.4461 -0.1698 -0.0579
  562MOL0     C74057  -0.159   4.154   9.917  0.7772  0.3820  0.7185
  562MOL0     C74058  -0.284   4.195   9.962  0.6946  0.1353 -0.0636
  562MOL0     C74059  -0.392   4.162   9.875 -1.0302 -0.0845  0.6257
  562MOL0     O74060  -0.521   4.200   9.894  0.0479  0.0262 -0.2220
  562MOL0     C74061  -0.537   4.342   9.897  0.4236  0.3360  0.2191
  562MOL0     C74062  -0.675   4.369   9.963 -0.8565  0.4419 -0.2595
  562MOL0     C74063  -0.659   4.346  10.118 -0.2442 -1.0346 -0.9016
  562MOL0     C74064  -0.788   4.376  10.186 -0.1185  0.1653 -0.0449
  562MOL0     C74065  -0.800   4.311  10.322  0.8846  0.0537 -1.1987
  562MOL0     C74066  -0.752   4.404  10.434  0.1419  0.2763 -0.1457
  562MOL0     C74067  -0.742   4.323  10.567 -0.1709 -0.1716  0.1244
  562MOL0     C74068  -0.866   4.247  10.593 -0.0849  0.0927 -0.5073
  562MOL0     N74069  -0.990   4.331  10.610 -0.5625 -0.6623  0.3705
  562MOL0     C74070  -1.012   4.392  10.727  0.5739 -0.4264  0.3307
  562MOL0     C74071  -1.141   4.437  10.708 -0.3469  0.7361  0.0272
  562MOL0     C74072  -1.216   4.509  10.816  0.6349 -0.1069  0.0875
  562MOL0     C74073  -1.350   4.572  10.770 -0.1935  0.0878  0.0745
  562MOL0     C74074  -1.407   4.654  10.887 -0.6508 -0.1792 -0.8029
  562MOL0     C74075  -1.542   4.709  10.855  0.8056  0.2294  0.0497
  562MOL0     O74076  -1.629   4.597  10.833 -0.3745  0.2107  0.4093
  562MOL0     C74077  -1.761   4.623  10.844 -0.0416  0.2824  0.4074
  562MOL0     C74078  -1.820   4.758  10.846 -0.2653  0.8544  0.2193
  562MOL0     C74079  -1.968   4.764  10.857 -0.0618  0.3637 -0.5561
  562MOL0     C74080  -2.046   4.641  10.880 -0.3158  0.9634  0.4798
  562MOL0     C74081  -2.188   4.652  10.907 -1.1111  0.4826  0.2851
  562MOL0     O74082  -2.249   4.779  10.910 -0.2126 -0.3765  0.0754
  562MOL0     C74083  -2.384   4.778  10.926 -0.2499 -0.2820  0.3381
  562MOL0     C74084  -2.432   4.842  11.037 -0.0735  0.6890 -0.1236
  562MOL0     C74085  -2.566   4.848  11.080  0.5669  0.5227  0.1035
  562MOL0     C74086  -2.659   4.794  10.993 -0.0650  0.1762  1.1260
  562MOL0     O74087  -2.796   4.799  11.009  0.0788  0.9045  0.0110
  562MOL0     C74088  -2.866   4.892  11.092  0.1911 -0.1800  0.0446
  562MOL0     C74089  -3.001   4.940  11.031 -1.0403  0.0519  0.7316
  562MOL0     C74090  -2.994   5.014  10.889  0.3884  0.5457  0.7094
  562MOL0     C74091  -2.863   5.081  10.875 -0.3654 -0.2010 -0.2826
  562MOL0     C74092  -2.862   5.154  10.739 -0.7747 -0.6321  0.8278
  562MOL0     C74093  -2.767   5.275  10.737  0.1061  0.6633  0.2594
  562MOL0     C74094  -2.791   5.344  10.605 -0.0057  0.0254 -0.3111
  562MOL0     C74095  -2.698   5.468  10.596 -0.6052 -0.0997 -0.3134
  562MOL0    Cl74096  -2.531   5.403  10.577 -0.0027  0.2314  0.2213
  562MOL0     C74097  -2.617   4.741  10.866 -0.0582 -0.2247 -0.0599
  562MOL0     C74098  -2.479   4.715  10.839  0.0375 -0.5768  0.0422
  562MOL0     O74099  -2.244   4.543  10.934 -0.8042  0.1498 -0.4014
  562MOL0     C74100  -1.982   4.519  10.876 -0.2737  0.1457  0.1632
  562MOL0     C74101  -1.848   4.511  10.864 -0.0564  1.3523 -0.4300
  562MOL0     N74102  -1.198   4.380  10.592  0.4248 -1.2098  0.2780
  562MOL0     N74103  -1.103   4.320  10.531  0.2238  1.3064  0.5615
  562MOL0     C74104  -0.368   4.077   9.756  0.2221 -0.1086  0.4600
  562MOL0     C74105  -0.236   4.032   9.726  0.6485 -0.3009 -0.9280
  562MOL0     C74106   0.235   4.052   9.777 -0.7863 -0.0634  0.5112
  562MOL0     C74107   0.250   3.918   9.771 -0.1034 -0.1441 -0.3272
  562MOL0     C74108   0.377   3.856   9.763  0.5297 -0.1329  0.3190
  562MOL0     C74109   0.493   3.932   9.742  0.1180 -0.7650  0.2935
  562MOL0     O74110   0.614   3.878   9.711 -0.4044 -0.1354  0.4284
  562MOL0     C74111   0.728   3.965   9.670  1.2873  0.0185 -0.8126
  562MOL0     C74112   0.861   3.890   9.660 -1.3936 -1.0621 -0.7531
  562MOL0     C74113   0.963   3.975   9.572 -0.4074  0.2916 -0.5471
  562MOL0     C74114   1.092   3.900   9.558  0.4389  0.1485 -0.2454
  562MOL0     C74115   1.180   3.987   9.484 -0.6826  0.0376  0.2667
  562MOL0     C74116   1.257   4.059   9.422 -0.1086 -0.4311 -0.1675
  562MOL0     C74117   0.480   4.074   9.767  0.2986  0.2469  0.0682
  562MOL0     C74118   0.354   4.125   9.781  0.4540 -0.1957  0.0561
  562MOL0     H74119  -0.071   4.197   9.964  1.4741  1.4795 -1.4088
  562MOL0     H74120  -0.303   4.245  10.056 -1.3745  0.7495 -0.7454
  562MOL0     H74121  -0.525   4.370   9.792 -2.4159  0.3423 -0.1859
  562MOL0     H74122  -0.464   4.390   9.963  0.1292 -1.1297  1.6713
  562MOL0     H74123  -0.746   4.298   9.920 -2.3457  0.9363  1.2542
  562MOL0     H74124  -0.719   4.465   9.934 -0.3562  1.5316  2.3158
  562MOL0     H74125  -0.585   4.409  10.167 -1.7850 -0.3907  0.6841
  562MOL0     H74126  -0.628   4.241  10.126  0.1304 -0.8316  0.4252
  562MOL0     H74127  -0.795   4.484  10.198 -1.6909 -0.1303  2.3800
  562MOL0     H74128  -0.874   4.337  10.131 -0.3202  1.2670 -0.5398
  562MOL0     H74129  -0.752   4.213  10.330 -1.2958 -0.9829  0.2121
  562MOL0     H74130  -0.905   4.287  10.340  1.8965 -2.3160  2.8726
  562MOL0     H74131  -0.813   4.494  10.445  1.8777  1.3257  1.3385
  562MOL0     H74132  -0.652   4.438  10.408  0.5969  1.0316  2.3791
  562MOL0     H74133  -0.657   4.255  10.564  1.4080  1.5480 -4.7874
  562MOL0     H74134  -0.737   4.389  10.654  0.7298 -0.8151  0.5793
  562MOL0     H74135  -0.848   4.195  10.687 -0.6452 -0.8320 -0.8998
  562MOL0     H74136  -0.878   4.176  10.511  1.5531  0.1423 -0.8108
  562MOL0     H74137  -0.945   4.404  10.811  0.1818  0.0851  0.5755
  562MOL0     H74138  -1.151   4.592  10.844 -0.0304  1.5132 -2.7545
  562MOL0     H74139  -1.231   4.437  10.897 -0.6400  0.4914  0.4079
  562MOL0     H74140  -1.412   4.488  10.736 -1.4788  0.7367  0.7369
  562MOL0     H74141  -1.332   4.633  10.682 -3.0574  0.3462 -0.4268
  562MOL0     H74142  -1.418   4.591  10.976 -0.5319  0.3163 -0.4303
  562MOL0     H74143  -1.345   4.741  10.912  1.8103 -1.5859 -1.6455
  562MOL0     H74144  -1.551   4.778  10.771 -0.2213 -1.5560 -1.3935
  562MOL0     H74145  -1.572   4.764  10.944  1.1211 -0.6340  0.7007
  562MOL0     H74146  -1.763   4.849  10.831  3.1440 -1.1940 -0.3691
  562MOL0     H74147  -2.011   4.863  10.863  1.8419  1.3462 -2.3180
  562MOL0     H74148  -2.364   4.878  11.113  1.5186 -2.9814  0.4102
  562MOL0     H74149  -2.605   4.890  11.172  1.4781  0.5236  0.5005
  562MOL0     H74150  -2.800   4.973  11.123  1.5518 -0.7249 -1.2977
  562MOL0     H74151  -2.895   4.847  11.188  2.0463 -0.2732  0.6071
  562MOL0     H74152  -3.043   5.022  11.090 -0.7284  1.2337 -0.6370
  562MOL0     H74153  -3.081   4.865  11.032  0.6651 -1.8607  1.3465
  562MOL0     H74154  -3.070   5.092  10.894  2.0395  2.1294  2.7258
  562MOL0     H74155  -3.019   4.950  10.803  0.4260  1.9371 -0.3675
  562MOL0     H74156  -2.865   5.162  10.948 -0.5767  2.1089 -2.7063
  562MOL0     H74157  -2.770   5.024  10.886 -1.1534 -1.3901  0.3439
  562MOL0     H74158  -2.961   5.192  10.711  0.3448  2.0445  0.2289
  562MOL0     H74159  -2.844   5.086  10.655  0.7616  0.0686  0.5612
  562MOL0     H74160  -2.667   5.235  10.751 -0.4875 -1.7133 -1.7199
  562MOL0     H74161  -2.798   5.338  10.822  0.0354  1.1625 -0.1340
  562MOL0     H74162  -2.760   5.280  10.522 -0.4907 -1.2773  0.4906
  562MOL0     H74163  -2.894   5.377  10.587 -0.5130 -1.1118  0.4288
  562MOL0     H74164  -2.709   5.539  10.679  3.3413  0.4623 -0.0887
  562MOL0     H74165  -2.740   5.512  10.506 -1.6119 -0.0544  0.1686
  562MOL0     H74166  -2.679   4.705  10.784  0.5101 -2.3405  0.3659
  562MOL0     H74167  -2.446   4.660  10.751 -0.4803  0.4451 -0.8133
  562MOL0     H74168  -2.028   4.423  10.894  0.1371  0.2464  2.0027
  562MOL0     H74169  -1.816   4.407  10.868  0.6224  1.4966 -1.7820
  562MOL0     H74170  -0.455   4.050   9.698  1.4872 -2.1404 -0.6044
  562MOL0     H74171  -0.228   3.959   9.646  3.6987 -0.9512 -0.1666
  562MOL0     H74172   0.163   3.854   9.769  0.6553 -1.2251  0.1662
  562MOL0     H74173   0.382   3.747   9.759  2.7404 -0.1377  1.8471
  562MOL0     H74174   0.740   4.041   9.748  0.6459 -0.0982 -0.5974
  562MOL0     H74175   0.694   4.005   9.575 -0.8402 -3.5639 -1.7362
  562MOL0     H74176   0.899   3.884   9.762  0.4084 -2.6520 -1.4478
  562MOL0     H74177   0.842   3.790   9.619 -0.2875 -0.8730 -1.8278
  562MOL0     H74178   0.990   4.071   9.617 -1.1613 -0.3071  1.2936
  562MOL0     H74179   0.919   3.991   9.473 -2.3229  0.2266  0.2407
  562MOL0     H74180   1.143   3.878   9.652  0.0817  1.3611  0.2511
  562MOL0     H74181   1.083   3.801   9.512 -0.5301 -0.1852  0.6294
  562MOL0     H74182   1.327   4.118   9.366  0.3775 -0.3403  0.5237
  562MOL0     H74183   0.548   4.155   9.741 -1.5685  2.3576  1.4447
  562MOL0     H74184   0.342   4.233   9.789 -0.6775 -0.4080  1.7358
  563MOL0     O74185   4.102   8.537   9.595  0.2347 -0.1853  0.0891
  563MOL0     C74186   4.008   8.582   9.652  0.0147  0.2308 -1.1644
  563MOL0     O74187   4.008   8.654   9.767  0.0217  0.3010 -0.1295
  563MOL0     C74188   4.133   8.691   9.826 -0.6259 -0.2474  0.4844
  563MOL0     C74189   4.240   8.599   9.837 -1.0672  0.0186 -0.0450
  563MOL0     C74190   4.359   8.628   9.902 -0.5507  0.1096  0.5390
  563MOL0     C74191   4.376   8.757   9.962 -0.0799 -0.1984  0.4278
  563MOL0     O74192   4.488   8.797  10.016 -0.5583  0.3959 -0.2240
  563MOL0     C74193   4.616   8.728  10.005 -0.6422 -0.1225  0.7276
  563MOL0     C74194   4.711   8.832  10.076  0.0248 -0.2621 -0.2641
  563MOL0     C74195   4.862   8.790  10.054  0.2280  0.0938 -0.6895
  563MOL0     C74196   4.956   8.893  10.121  0.7203 -0.9017 -0.2290
  563MOL0     C74197   5.102   8.850  10.116 -0.8168  0.7425 -0.2488
  563MOL0     C74198   5.130   8.762  10.237 -0.0414 -0.0003  0.4921
  563MOL0     C74199   5.247   8.657  10.241  0.6032 -0.2970  0.5010
  563MOL0     C74200   5.378   8.705  10.178 -0.3328 -0.1863 -0.3618
  563MOL0     N74201   5.485   8.602  10.194  0.6054  0.4086 -0.3233
  563MOL0     C74202   5.494   8.481  10.133 -0.1696  0.8737  0.8384
  563MOL0     C74203   5.617   8.437  10.153 -0.3561  0.2824  0.0842
  563MOL0     C74204   5.675   8.317  10.088  0.2652  1.0870  0.5368
  563MOL0     C74205   5.713   8.199  10.170  0.5736  0.4258 -0.3068
  563MOL0     C74206   5.606   8.093  10.188 -0.3191 -0.3720 -0.0530
  563MOL0     C74207   5.503   8.122  10.295  0.9809 -0.4460  0.8285
  563MOL0     O74208   5.388   8.183  10.230 -0.4612 -0.2139  0.0016
  563MOL0     C74209   5.277   8.228  10.305  0.0162 -0.1834  0.5631
  563MOL0     C74210   5.168   8.275  10.228  0.0672  0.4340 -0.2594
  563MOL0     C74211   5.046   8.320  10.283 -0.3685  0.8851 -0.2887
  563MOL0     C74212   5.033   8.307  10.426  0.3115 -0.0907 -0.1237
  563MOL0     C74213   4.907   8.356  10.488  0.1325 -0.1289  0.0059
  563MOL0     O74214   4.811   8.409  10.403  0.1756 -0.2477  0.1611
  563MOL0     C74215   4.695   8.476  10.442  0.3424  0.0154 -0.2661
  563MOL0     C74216   4.630   8.531  10.327  1.0777  0.5341 -0.8988
  563MOL0     C74217   4.512   8.598  10.343 -0.2012 -0.9974  0.2965
  563MOL0     C74218   4.441   8.592  10.461 -0.0880 -0.0444  0.3483
  563MOL0     O74219   4.322   8.654  10.489 -0.1959 -0.8351 -1.4677
  563MOL0     C74220   4.235   8.688  10.383 -0.0067  0.1232  0.2313
  563MOL0     C74221   4.092   8.711  10.433  0.4356 -0.3363  0.7510
  563MOL0     C74222   4.002   8.763  10.326 -0.7424 -0.0470 -0.6428
  563MOL0     C74223   3.978   8.650  10.223 -0.0055  0.3462 -0.2478
  563MOL0     C74224   3.865   8.686  10.115  0.2411 -0.7468  0.2322
  563MOL0     C74225   3.732   8.741  10.173  0.2235  0.5303 -0.3099
  563MOL0     C74226   3.637   8.780  10.068  0.0674  0.0733  0.8593
  563MOL0     C74227   3.554   8.665  10.020 -0.1883 -0.6824  0.4000
  563MOL0    Cl74228   3.426   8.731   9.905  0.2209 -0.4997  0.4560
  563MOL0     C74229   4.499   8.521  10.566 -0.0147 -0.1630 -0.5214
  563MOL0     C74230   4.630   8.471  10.563 -0.6280 -0.2654 -0.2757
  563MOL0     O74231   4.912   8.367  10.609 -0.1850 -0.0373  0.3352
  563MOL0     C74232   5.133   8.250  10.501  0.2137  0.3474 -0.1356
  563MOL0     C74233   5.252   8.208  10.444 -0.4457  0.3844 -0.8812
  563MOL0     N74234   5.675   8.523  10.239  0.1618 -0.8563 -0.4169
  563MOL0     N74235   5.603   8.625  10.253 -0.3014 -0.2622 -0.1530
  563MOL0     C74236   4.270   8.848   9.953 -0.5006 -0.6122 -0.6032
  563MOL0     C74237   4.151   8.815   9.894  0.8130 -0.6763  0.4310
  563MOL0     C74238   3.880   8.531   9.602 -0.6438 -0.0111 -0.2515
  563MOL0     C74239   3.871   8.426   9.514 -0.2203  0.5224  0.1567
  563MOL0     C74240   3.746   8.379   9.466 -0.7480 -0.0506 -0.6085
  563MOL0     C74241   3.624   8.423   9.519  0.8748 -0.0595 -0.0269
  563MOL0     O74242   3.508   8.372   9.462  0.3273 -0.1401  0.1757
  563MOL0     C74243   3.381   8.438   9.483 -0.7093 -0.9432  0.1315
  563MOL0     C74244   3.269   8.350   9.419  1.0285  0.2787 -0.8282
  563MOL0     C74245   3.235   8.231   9.502 -0.8144  0.4410 -0.0206
  563MOL0     C74246   3.142   8.139   9.427  0.1278 -0.0730 -0.5780
  563MOL0     C74247   3.011   8.191   9.398 -0.2288 -0.7443  0.3227
  563MOL0     C74248   2.905   8.237   9.369  0.6636 -0.6176 -0.3080
  563MOL0     C74249   3.629   8.528   9.615  0.3802 -0.2020  0.2863
  563MOL0     C74250   3.754   8.574   9.658  0.3823  0.1701  0.6371
  563MOL0     H74251   4.237   8.498   9.798 -1.6861 -0.2691  0.7095
  563MOL0     H74252   4.436   8.552   9.903  0.0948  0.7407  1.4136
  563MOL0     H74253   4.656   8.719   9.903 -0.1314  0.1289  0.9011
  563MOL0     H74254   4.621   8.629  10.051  2.6552 -0.9549 -1.0500
  563MOL0     H74255   4.690   8.851  10.181 -1.1270  0.5776 -0.6294
  563MOL0     H74256   4.693   8.926  10.023 -3.4320 -0.3607  0.5420
  563MOL0     H74257   4.896   8.786   9.950  4.2740 -2.7982  0.4921
  563MOL0     H74258   4.877   8.694  10.103 -1.5602  0.1744  0.0991
  563MOL0     H74259   4.944   8.983  10.060  0.2903 -0.1985  0.8538
  563MOL0     H74260   4.921   8.935  10.216  1.2114  1.5223 -1.0507
  563MOL0     H74261   5.167   8.936  10.137 -0.4769 -0.2921  3.8009
  563MOL0     H74262   5.137   8.811  10.020 -2.4790  0.7279 -0.8830
  563MOL0     H74263   5.034   8.716  10.262  0.0128 -0.2994  0.1666
  563MOL0     H74264   5.149   8.827  10.323  0.9064  0.0686  0.2460
  563MOL0     H74265   5.269   8.633  10.345 -0.2401  0.0433  0.7622
  563MOL0     H74266   5.218   8.559  10.201  1.8969  0.2943 -2.1264
  563MOL0     H74267   5.404   8.802  10.223 -0.9372 -0.2005  0.0247
  563MOL0     H74268   5.361   8.729  10.073 -3.9392 -1.2225 -0.1558
  563MOL0     H74269   5.424   8.423  10.073  1.5980 -0.6186  0.1177
  563MOL0     H74270   5.759   8.361  10.033 -1.7095  1.6465 -2.2634
  563MOL0     H74271   5.605   8.297  10.007 -1.2742  1.1748  1.7825
  563MOL0     H74272   5.752   8.233  10.267  1.7334  0.4225 -0.7651
  563MOL0     H74273   5.795   8.155  10.112  1.5933 -0.2209  1.5384
  563MOL0     H74274   5.561   8.066  10.093  1.6727 -2.4865 -0.4859
  563MOL0     H74275   5.670   8.013  10.226  2.1585  2.2439  1.6651
  563MOL0     H74276   5.533   8.191  10.374 -3.5695 -1.0295  3.4176
  563MOL0     H74277   5.477   8.028  10.344  2.9916 -0.1004  2.6882
  563MOL0     H74278   5.174   8.261  10.120 -0.3416  0.8382 -0.3387
  563MOL0     H74279   4.970   8.351  10.213 -0.5483 -1.2953 -1.0976
  563MOL0     H74280   4.681   8.530  10.231  2.5382 -0.0949 -0.1609
  563MOL0     H74281   4.473   8.668  10.269  1.4052  0.0494  0.4023
  563MOL0     H74282   4.226   8.600  10.318  1.1059 -0.5440  0.9499
  563MOL0     H74283   4.268   8.777  10.329  0.3019  0.5282  1.0821
  563MOL0     H74284   4.098   8.798  10.500 -2.0296  2.6234 -2.4913
  563MOL0     H74285   4.032   8.638  10.488 -1.5530 -0.5024 -1.4892
  563MOL0     H74286   4.049   8.847  10.273 -0.0131  1.5979  2.3795
  563MOL0     H74287   3.912   8.793  10.380  0.9963 -1.5961  3.5135
  563MOL0     H74288   4.070   8.646  10.164  0.6940  2.4378  0.6243
  563MOL0     H74289   3.958   8.551  10.268 -0.7436  1.8691  3.1210
  563MOL0     H74290   3.840   8.594  10.061 -0.1705 -0.6838  0.3162
  563MOL0     H74291   3.900   8.770  10.055 -1.2000  0.5372  1.1318
  563MOL0     H74292   3.739   8.834  10.229  3.1787  1.6197 -2.2842
  563MOL0     H74293   3.681   8.664  10.232  0.7758  0.9137  0.6996
  563MOL0     H74294   3.566   8.852  10.109 -0.6522 -0.0486 -0.1705
  563MOL0     H74295   3.692   8.828   9.986  2.3857  0.0999  2.3081
  563MOL0     H74296   3.499   8.623  10.104 -2.1374  0.9382  0.0386
  563MOL0     H74297   3.612   8.586   9.972 -1.8378 -1.6347 -0.1045
  563MOL0     H74298   4.455   8.520  10.665 -0.8934 -0.7050 -0.9066
  563MOL0     H74299   4.658   8.412  10.650  0.4736 -0.3158 -0.6462
  563MOL0     H74300   5.118   8.229  10.606 -0.6404  0.8540 -0.1420
  563MOL0     H74301   5.327   8.155  10.502 -0.4459 -0.7456 -1.8657
  563MOL0     H74302   4.278   8.942  10.007 -0.6093 -2.3680  2.7212
  563MOL0     H74303   4.063   8.879   9.890  0.2040 -1.4975  0.3722
  563MOL0     H74304   3.959   8.385   9.467 -0.9937 -0.5844 -0.3580
  563MOL0     H74305   3.748   8.313   9.380 -1.3055 -0.4640 -0.3040
  563MOL0     H74306   3.380   8.539   9.441 -1.0915  0.0705  2.4837
  563MOL0     H74307   3.371   8.457   9.590 -1.7868  0.8631 -0.2528
  563MOL0     H74308   3.180   8.413   9.409  0.6195  0.5536  2.9523
  563MOL0     H74309   3.304   8.314   9.322  2.0615 -2.8469  0.5883
  563MOL0     H74310   3.180   8.256   9.594  0.0926  0.7269  0.4598
  563MOL0     H74311   3.327   8.186   9.542 -0.2257  1.1451 -0.5749
  563MOL0     H74312   3.192   8.119   9.331  1.6576  0.9813 -0.0348
  563MOL0     H74313   3.131   8.051   9.492 -1.6543  0.3074 -0.3056
  563MOL0     H74314   2.807   8.279   9.360 -0.2158 -1.5389  3.4866
  563MOL0     H74315   3.539   8.574   9.654  1.6291  2.5967  0.0936
  563MOL0     H74316   3.756   8.645   9.739  0.4155 -0.4191  1.1612
  564MOL0     O74317   0.413   4.494   1.796  0.1369  0.1984  0.4434
  564MOL0     C74318   0.516   4.519   1.855  0.0426  0.1781 -0.3695
  564MOL0     O74319   0.522   4.549   1.991 -0.3929 -0.9006  0.0619
  564MOL0     C74320   0.400   4.540   2.048  0.7048  0.4167  0.8278
  564MOL0     C74321   0.304   4.635   2.026  0.8464 -0.2378 -0.4260
  564MOL0     C74322   0.176   4.618   2.082 -0.5726  0.1957 -0.4407
  564MOL0     C74323   0.156   4.523   2.183  0.5908 -0.1220  0.2254
  564MOL0     O74324   0.034   4.490   2.231 -0.3248 -0.0020  0.0593
  564MOL0     C74325  -0.040   4.602   2.293  0.1624  0.2609  0.0152
  564MOL0     C74326  -0.189   4.606   2.247  0.2937  1.0583 -0.4791
  564MOL0     C74327  -0.266   4.477   2.276 -0.8085 -0.1884 -0.5741
  564MOL0     C74328  -0.389   4.478   2.198 -0.3692 -0.1285  0.6103
  564MOL0     C74329  -0.506   4.542   2.264  0.6276 -0.4587 -0.4457
  564MOL0     C74330  -0.628   4.531   2.172 -0.8628 -0.0849  0.0689
  564MOL0     C74331  -0.752   4.558   2.243 -0.2311 -0.0280  0.0066
  564MOL0     C74332  -0.798   4.705   2.221  0.0303 -0.3055  0.1034
  564MOL0     N74333  -0.926   4.732   2.282 -1.0987 -0.6691 -0.2017
  564MOL0     C74334  -1.013   4.824   2.227 -1.1690  0.1348 -1.0125
  564MOL0     C74335  -1.099   4.856   2.327  0.1705 -0.1463  0.6744
  564MOL0     C74336  -1.223   4.926   2.293  0.1440 -0.0561 -0.4443
  564MOL0     C74337  -1.341   4.892   2.370  0.0696  0.0641  0.9968
  564MOL0     C74338  -1.446   4.996   2.321 -0.5539 -0.8261  0.0131
  564MOL0     C74339  -1.575   4.960   2.399 -0.8911 -0.7429 -1.4975
  564MOL0     O74340  -1.626   4.834   2.348 -0.4143  0.4795  1.2877
  564MOL0     C74341  -1.747   4.811   2.421 -0.2605  0.0982  0.3349
  564MOL0     C74342  -1.754   4.767   2.554 -0.0906  0.3548 -0.3145
  564MOL0     C74343  -1.877   4.752   2.616  0.9352 -0.3545 -0.5726
  564MOL0     C74344  -2.003   4.772   2.540  0.6439 -0.1814 -0.1428
  564MOL0     C74345  -2.129   4.738   2.599  0.2199  0.0816 -1.0032
  564MOL0     O74346  -2.246   4.766   2.519  0.6606  0.7260 -0.4581
  564MOL0     C74347  -2.370   4.748   2.564  0.0040  0.9940  0.2400
  564MOL0     C74348  -2.404   4.629   2.627  0.6869 -0.7989  0.0002
  564MOL0     C74349  -2.527   4.613   2.692 -0.4481  0.6736  1.1477
  564MOL0     C74350  -2.630   4.701   2.685  0.3038 -0.7213  0.1010
  564MOL0     O74351  -2.756   4.692   2.738  0.8156 -0.3033 -0.6880
  564MOL0     C74352  -2.780   4.587   2.837 -0.0940  0.4233  0.4151
  564MOL0     C74353  -2.927   4.557   2.815  0.5482  0.4071 -0.2708
  564MOL0     C74354  -2.961   4.429   2.887 -0.6534  0.1671  0.0585
  564MOL0     C74355  -3.097   4.363   2.849  0.6422  0.8776 -0.3326
  564MOL0     C74356  -3.136   4.266   2.967  0.1395  0.3598 -0.1685
  564MOL0     C74357  -3.078   4.130   2.957 -0.6722  0.1460  0.1919
  564MOL0     C74358  -3.109   4.061   2.823  0.1750  0.3327 -0.2239
  564MOL0     C74359  -3.143   3.918   2.844 -0.4997 -0.0417 -0.4446
  564MOL0    Cl74360  -2.999   3.838   2.919  0.2866  0.2756 -0.5073
  564MOL0     C74361  -2.602   4.820   2.611 -0.2562  0.4072 -0.3888
  564MOL0     C74362  -2.475   4.844   2.552 -0.6747 -0.5245 -0.0845
  564MOL0     O74363  -2.123   4.701   2.719  0.0362 -0.4070 -0.0599
  564MOL0     C74364  -1.989   4.813   2.411 -0.4123  0.7110 -0.4064
  564MOL0     C74365  -1.863   4.837   2.351  1.0956 -0.8404  0.1356
  564MOL0     N74366  -1.063   4.790   2.438  0.3668 -0.4036  0.2799
  564MOL0     N74367  -0.953   4.722   2.416  0.7671 -0.1382 -0.0524
  564MOL0     C74368   0.262   4.436   2.217  0.3591  0.4291  0.1427
  564MOL0     C74369   0.380   4.437   2.141  0.6812  0.2724 -0.1945
  564MOL0     C74370   0.648   4.511   1.794  0.0866  0.3538  0.5196
  564MOL0     C74371   0.666   4.445   1.674 -0.3701  0.8416 -0.6290
  564MOL0     C74372   0.788   4.433   1.623 -0.4849  0.2954  0.3532
  564MOL0     C74373   0.900   4.466   1.691 -0.9276 -1.3606  0.1078
  564MOL0     O74374   1.025   4.441   1.636  0.1365  0.3130  1.0614
  564MOL0     C74375   1.059   4.510   1.513  0.0067  0.3461  0.4177
  564MOL0     C74376   1.187   4.596   1.529  0.6848  0.1217 -0.1975
  564MOL0     C74377   1.318   4.510   1.530 -0.6084 -0.1296  0.0048
  564MOL0     C74378   1.345   4.441   1.671  0.8645  0.4766 -0.4016
  564MOL0     C74379   1.487   4.438   1.689 -0.9272  0.2463 -0.4102
  564MOL0     C74380   1.604   4.442   1.708 -0.2245 -0.2808 -1.0231
  564MOL0     C74381   0.892   4.523   1.822 -0.7128  0.0611 -0.4938
  564MOL0     C74382   0.758   4.548   1.865  0.4900  0.3219  0.2750
  564MOL0     H74383   0.328   4.727   1.974  0.0732 -1.3303 -2.9143
  564MOL0     H74384   0.096   4.677   2.037  0.6026  0.2635 -2.5780
  564MOL0     H74385   0.004   4.700   2.271  3.5517 -1.2265 -0.5147
  564MOL0     H74386  -0.045   4.602   2.403 -1.4523  3.4164  0.0573
  564MOL0     H74387  -0.187   4.626   2.140  1.1328 -2.0158 -1.1311
  564MOL0     H74388  -0.242   4.684   2.303 -0.2468  1.4044 -1.4582
  564MOL0     H74389  -0.287   4.477   2.383 -2.1018  0.1336 -0.8101
  564MOL0     H74390  -0.201   4.391   2.259  1.2041  0.8677  1.1993
  564MOL0     H74391  -0.369   4.520   2.099  1.3241 -0.6193  0.7190
  564MOL0     H74392  -0.421   4.375   2.182  2.9921 -1.0031 -1.3671
  564MOL0     H74393  -0.499   4.649   2.290 -2.8020 -0.3342  0.4323
  564MOL0     H74394  -0.519   4.491   2.360 -3.0909 -0.8162 -1.0154
  564MOL0     H74395  -0.633   4.432   2.127 -0.6508  1.1363 -2.8754
  564MOL0     H74396  -0.617   4.603   2.090 -0.6493  0.8502  0.8918
  564MOL0     H74397  -0.826   4.490   2.198 -1.1462  1.0587 -0.1857
  564MOL0     H74398  -0.741   4.535   2.349  0.3965 -0.6635 -0.1905
  564MOL0     H74399  -0.815   4.724   2.115 -0.3403  1.7196  0.4907
  564MOL0     H74400  -0.729   4.781   2.260 -0.8057  1.2545 -1.3201
  564MOL0     H74401  -1.011   4.856   2.123 -1.0455  2.1005 -0.4525
  564MOL0     H74402  -1.230   4.909   2.185  2.2047 -0.0864 -0.6063
  564MOL0     H74403  -1.206   5.033   2.304 -2.4803  0.6741 -2.4665
  564MOL0     H74404  -1.305   4.886   2.473  0.0304  1.6953  1.1322
  564MOL0     H74405  -1.373   4.794   2.335 -1.7376  1.3425 -1.2091
  564MOL0     H74406  -1.408   5.097   2.342 -1.1524 -0.7152  0.5920
  564MOL0     H74407  -1.462   4.990   2.213 -2.0585 -0.5815  0.2054
  564MOL0     H74408  -1.654   5.034   2.384 -0.7336 -0.7966 -2.6348
  564MOL0     H74409  -1.555   4.947   2.506 -3.6398  1.9337 -0.5130
  564MOL0     H74410  -1.668   4.764   2.620 -0.7329  1.9123  0.6647
  564MOL0     H74411  -1.874   4.725   2.721  2.8256  0.0221 -0.5009
  564MOL0     H74412  -2.340   4.541   2.632  1.4394 -0.2311  0.4980
  564MOL0     H74413  -2.534   4.516   2.741  0.4785 -0.0881 -0.1421
  564MOL0     H74414  -2.769   4.608   2.944 -0.8885  1.7008  0.2653
  564MOL0     H74415  -2.727   4.498   2.803  0.8669  1.8235 -1.9639
  564MOL0     H74416  -2.938   4.540   2.707  0.9032 -1.0519 -0.0874
  564MOL0     H74417  -2.984   4.650   2.830  1.8237  1.1517  0.0738
  564MOL0     H74418  -2.970   4.448   2.994 -1.4703 -0.5101  0.1177
  564MOL0     H74419  -2.882   4.354   2.876 -0.4425  0.0479  1.9634
  564MOL0     H74420  -3.165   4.447   2.831  0.8009  0.7078 -1.8925
  564MOL0     H74421  -3.087   4.310   2.754 -2.8631 -4.4429  1.7395
  564MOL0     H74422  -3.244   4.254   2.964  0.1939 -0.5922  0.9716
  564MOL0     H74423  -3.122   4.316   3.064  1.0033 -1.5728  0.7531
  564MOL0     H74424  -3.126   4.082   3.044  0.4959  1.0797  1.3886
  564MOL0     H74425  -2.970   4.138   2.968 -0.8128  0.6809  1.3735
  564MOL0     H74426  -3.198   4.116   2.790  0.7057  2.4248  1.5307
  564MOL0     H74427  -3.021   4.065   2.759  0.3588 -0.6925 -0.0419
  564MOL0     H74428  -3.160   3.854   2.757 -2.6479 -1.0951  0.6862
  564MOL0     H74429  -3.228   3.910   2.912 -0.0591  3.9147  0.8175
  564MOL0     H74430  -2.665   4.908   2.602  0.6715  1.1944  0.5007
  564MOL0     H74431  -2.449   4.933   2.495 -2.3198 -0.4034 -0.6842
  564MOL0     H74432  -2.061   4.812   2.330  1.3011  0.4398 -1.9894
  564MOL0     H74433  -1.854   4.882   2.253 -0.3298  1.3188  0.9270
  564MOL0     H74434   0.250   4.357   2.292  0.9821  2.9023  3.0466
  564MOL0     H74435   0.466   4.386   2.184  0.6945  0.9021  0.5462
  564MOL0     H74436   0.578   4.412   1.621 -2.0039  0.2418  2.2929
  564MOL0     H74437   0.796   4.405   1.518  1.3347  3.2121 -0.4183
  564MOL0     H74438   0.979   4.578   1.484 -2.2032 -2.1579  0.2995
  564MOL0     H74439   1.074   4.439   1.430 -4.3836 -1.6236  1.0161
  564MOL0     H74440   1.184   4.667   1.446 -3.4861 -0.5827 -0.8516
  564MOL0     H74441   1.178   4.652   1.623 -0.9956 -1.9973  1.0020
  564MOL0     H74442   1.405   4.576   1.521 -1.4224  1.4431  2.5788
  564MOL0     H74443   1.322   4.434   1.452 -2.9823 -0.7116  0.3821
  564MOL0     H74444   1.282   4.489   1.746 -4.8363 -0.4204 -3.9635
  564MOL0     H74445   1.300   4.341   1.664  0.4789  0.7536 -3.3710
  564MOL0     H74446   1.710   4.452   1.724  0.6929 -2.8039 -4.3126
  564MOL0     H74447   0.983   4.564   1.865 -0.7562 -0.5179  0.1613
  564MOL0     H74448   0.752   4.603   1.958  0.3783 -2.1301  1.8010
  565MOL0     O74449  10.211   3.157   7.763 -0.9105 -0.5214 -0.0017
  565MOL0     C74450  10.224   3.103   7.873 -0.6675  0.7508  0.6118
  565MOL0     O74451  10.149   3.003   7.920 -0.0008  0.1219  0.4280
  565MOL0     C74452  10.010   2.987   7.886  0.0383 -0.4292  0.2080
  565MOL0     C74453   9.923   3.083   7.837  0.2824  0.0269 -0.9168
  565MOL0     C74454   9.791   3.040   7.808  0.9217 -0.0008  0.6938
  565MOL0     C74455   9.737   2.913   7.834 -1.3952  0.6272 -0.0521
  565MOL0     O74456   9.608   2.869   7.818  0.2334  0.2287 -0.2454
  565MOL0     C74457   9.565   2.914   7.686 -0.0536 -0.4995 -0.3012
  565MOL0     C74458   9.430   2.850   7.657  0.2157  0.2200  0.1614
  565MOL0     C74459   9.326   2.879   7.756 -0.1487 -0.5286 -0.6511
  565MOL0     C74460   9.197   2.821   7.725  0.2785  0.1087 -0.0268
  565MOL0     C74461   9.076   2.880   7.806 -0.0423  1.0474  0.4186
  565MOL0     C74462   9.082   2.806   7.947  0.0765  0.4714  0.3871
  565MOL0     C74463   8.995   2.866   8.056  0.0849  0.3917  0.2669
  565MOL0     C74464   9.002   2.788   8.189  0.1713  0.8932 -0.9324
  565MOL0     N74465   8.962   2.640   8.184  0.3391 -0.3361  0.4029
  565MOL0     C74466   8.856   2.580   8.117 -0.1952  0.6027 -0.5687
  565MOL0     C74467   8.874   2.449   8.143  0.0296  0.4482  0.5866
  565MOL0     C74468   8.778   2.337   8.124 -0.6330 -0.4092  0.3593
  565MOL0     C74469   8.654   2.367   8.040  0.2455 -0.8982 -0.4610
  565MOL0     C74470   8.570   2.245   8.033  0.5754 -0.3291 -0.2512
  565MOL0     C74471   8.459   2.261   7.924 -0.2965  0.5068 -0.3403
  565MOL0     O74472   8.372   2.366   7.957  1.3362  0.4224 -0.0303
  565MOL0     C74473   8.268   2.388   7.867 -0.1939  0.0830 -0.0541
  565MOL0     C74474   8.161   2.464   7.913  0.0403  0.6137  0.5723
  565MOL0     C74475   8.039   2.474   7.839  0.2527 -0.1621  0.0229
  565MOL0     C74476   8.024   2.422   7.709 -0.5563  0.2996  0.1166
  565MOL0     C74477   7.896   2.444   7.641 -0.4280 -0.1488  0.4487
  565MOL0     O74478   7.799   2.508   7.714  0.1919 -0.2838  0.2256
  565MOL0     C74479   7.667   2.515   7.668 -0.2128 -0.3555 -0.1882
  565MOL0     C74480   7.558   2.481   7.752  0.3304  0.2346  0.0022
  565MOL0     C74481   7.429   2.496   7.711 -0.0573  0.7796 -0.0234
  565MOL0     C74482   7.396   2.549   7.588  0.0497  0.3807 -0.6293
  565MOL0     O74483   7.263   2.555   7.555  0.4428 -0.0432 -0.1448
  565MOL0     C74484   7.216   2.610   7.436 -0.4079 -0.6664  0.3287
  565MOL0     C74485   7.062   2.626   7.455 -0.7757  0.4306 -0.0399
  565MOL0     C74486   6.994   2.703   7.341  0.0052 -0.1037  0.2596
  565MOL0     C74487   6.851   2.754   7.349 -0.3987  0.5143 -0.0153
  565MOL0     C74488   6.811   2.837   7.222 -0.3681  0.0814 -0.2547
  565MOL0     C74489   6.663   2.885   7.236 -0.1035 -0.6440  0.3521
  565MOL0     C74490   6.626   2.978   7.118  0.3159 -0.1581 -0.5586
  565MOL0     C74491   6.650   2.916   6.978  0.5304  0.2441  0.5233
  565MOL0    Cl74492   6.536   2.989   6.853 -0.1443 -0.9194 -0.4256
  565MOL0     C74493   7.498   2.588   7.497 -0.4977  0.4838  0.2117
  565MOL0     C74494   7.634   2.564   7.542  0.3138  0.7890  0.3229
  565MOL0     O74495   7.883   2.404   7.523 -0.1949 -0.0096 -0.0768
  565MOL0     C74496   8.136   2.355   7.661 -1.4574  0.1481 -0.1721
  565MOL0     C74497   8.255   2.337   7.739 -0.1989  0.1984 -0.1701
  565MOL0     N74498   8.994   2.430   8.211  0.0100  0.0188 -0.2697
  565MOL0     N74499   9.040   2.541   8.238 -0.0815 -1.0400  0.2620
  565MOL0     C74500   9.830   2.814   7.881  0.0023  0.2983  0.1009
  565MOL0     C74501   9.964   2.854   7.915  0.5134 -0.5338  0.0871
  565MOL0     C74502  10.329   3.151   7.957  0.0570  0.5548  0.3804
  565MOL0     C74503  10.429   3.225   7.901  0.0851 -0.6060  0.8780
  565MOL0     C74504  10.537   3.270   7.974 -0.8802  0.5917 -0.3386
  565MOL0     C74505  10.548   3.246   8.116 -0.0048 -0.9869 -0.1148
  565MOL0     O74506  10.652   3.293   8.204 -0.2535 -0.1511  0.4001
  565MOL0     C74507  10.772   3.351   8.143  1.5756  0.1134 -0.7139
  565MOL0     C74508  10.890   3.325   8.239  0.2989 -0.2121  0.2240
  565MOL0     C74509  10.910   3.167   8.243 -0.0354 -0.3106  0.1757
  565MOL0     C74510  11.029   3.141   8.338  0.4536  0.0454  0.5409
  565MOL0     C74511  11.059   3.002   8.304  0.6063 -0.1894  0.0270
  565MOL0     C74512  11.095   2.896   8.254  0.2638 -0.4306  0.1226
  565MOL0     C74513  10.440   3.172   8.175  0.0295 -0.3584  0.1318
  565MOL0     C74514  10.339   3.124   8.090  0.0086  0.7082 -0.4557
  565MOL0     H74515   9.955   3.178   7.796  0.9617  1.1122  1.8989
  565MOL0     H74516   9.726   3.118   7.769  0.1429  0.2390  2.3657
  565MOL0     H74517   9.638   2.889   7.609  1.1822  2.0100 -0.0496
  565MOL0     H74518   9.546   3.021   7.692 -1.0221 -0.6253 -0.8205
  565MOL0     H74519   9.449   2.742   7.647  2.1149  0.5647 -0.4052
  565MOL0     H74520   9.409   2.877   7.553 -0.2190 -2.7976 -0.6516
  565MOL0     H74521   9.312   2.986   7.775 -1.9084 -1.0430  1.3451
  565MOL0     H74522   9.363   2.836   7.849  2.9636 -1.7068 -2.2981
  565MOL0     H74523   9.168   2.835   7.621 -1.7580 -1.6105  0.2497
  565MOL0     H74524   9.197   2.713   7.739 -2.1095  0.0696 -0.0025
  565MOL0     H74525   8.988   2.847   7.751 -1.6385  1.1125  2.7667
  565MOL0     H74526   9.072   2.989   7.817 -1.4648  0.9017  1.8697
  565MOL0     H74527   9.182   2.825   7.988 -0.8984  0.1654  3.0878
  565MOL0     H74528   9.061   2.699   7.940  0.4526  0.3782  0.5980
  565MOL0     H74529   9.022   2.970   8.079 -3.1539  1.7294 -1.3293
  565MOL0     H74530   8.893   2.864   8.017 -0.1492 -2.1909  0.8271
  565MOL0     H74531   8.934   2.838   8.258 -0.3334  1.4542 -1.8102
  565MOL0     H74532   9.106   2.800   8.222 -0.3086  1.1468  0.5272
  565MOL0     H74533   8.767   2.633   8.085 -0.2661  2.3506  2.2121
  565MOL0     H74534   8.753   2.286   8.218 -0.9947 -1.1037 -0.1080
  565MOL0     H74535   8.841   2.267   8.069 -0.7253 -0.0902 -0.1580
  565MOL0     H74536   8.684   2.396   7.939 -0.7697  1.2442 -0.2184
  565MOL0     H74537   8.594   2.448   8.083  2.4451 -0.8027  2.7733
  565MOL0     H74538   8.631   2.155   8.022  0.5724 -0.1295 -2.2764
  565MOL0     H74539   8.515   2.228   8.126  1.3283  1.4597  0.5815
  565MOL0     H74540   8.408   2.164   7.912  0.7068  0.1453 -1.9800
  565MOL0     H74541   8.502   2.276   7.825 -0.9133  1.1796 -0.5118
  565MOL0     H74542   8.165   2.502   8.014  2.7811 -0.7004  1.0481
  565MOL0     H74543   7.958   2.521   7.892  0.0786 -0.1153 -0.2813
  565MOL0     H74544   7.574   2.437   7.850  0.8728 -1.5167 -0.8441
  565MOL0     H74545   7.359   2.437   7.769  2.8499 -3.4495 -0.3494
  565MOL0     H74546   7.235   2.546   7.349 -0.1622 -0.8610  0.5251
  565MOL0     H74547   7.269   2.703   7.416  1.6377 -1.7194  0.6285
  565MOL0     H74548   7.050   2.688   7.545 -0.6826  1.9132 -1.0141
  565MOL0     H74549   7.006   2.534   7.473  0.3853  0.0719  2.0110
  565MOL0     H74550   6.998   2.657   7.241  4.0880  2.8125 -1.2001
  565MOL0     H74551   7.056   2.791   7.326  1.9137 -1.5993 -1.2449
  565MOL0     H74552   6.780   2.671   7.353  0.1190  0.0150 -0.8671
  565MOL0     H74553   6.839   2.829   7.428  0.3535 -0.8670  1.4607
  565MOL0     H74554   6.817   2.774   7.133  1.1112  0.2971 -0.3349
  565MOL0     H74555   6.879   2.923   7.223 -1.8751  1.3133  0.7229
  565MOL0     H74556   6.663   2.945   7.328 -1.2622  0.3173 -0.2577
  565MOL0     H74557   6.579   2.817   7.251 -1.8438  1.6072  1.4417
  565MOL0     H74558   6.517   2.988   7.125  0.1683 -2.3605  1.7078
  565MOL0     H74559   6.669   3.078   7.126 -0.8242  0.2724  0.4117
  565MOL0     H74560   6.624   2.811   6.993 -1.0558  0.0351 -2.6431
  565MOL0     H74561   6.753   2.919   6.942  0.8120 -0.7835  1.2248
  565MOL0     H74562   7.485   2.629   7.397  0.4873  0.1599 -0.0601
  565MOL0     H74563   7.715   2.599   7.479  0.3979  0.5420  0.2949
  565MOL0     H74564   8.147   2.309   7.564 -0.3665 -0.3633  0.1699
  565MOL0     H74565   8.337   2.282   7.693  0.4257  1.5973 -0.7915
  565MOL0     H74566   9.794   2.713   7.898 -2.4016  0.8658 -1.1108
  565MOL0     H74567  10.040   2.781   7.942  3.7472  1.9274 -1.6009
  565MOL0     H74568  10.430   3.248   7.795  1.8439 -4.1240  0.0080
  565MOL0     H74569  10.611   3.320   7.911 -2.1357  1.7216 -0.9713
  565MOL0     H74570  10.749   3.457   8.132 -3.1532 -0.6441 -0.3713
  565MOL0     H74571  10.792   3.319   8.040 -1.4565 -0.7178 -1.1364
  565MOL0     H74572  10.984   3.372   8.209  2.3191 -4.2767 -0.5042
  565MOL0     H74573  10.867   3.357   8.341 -0.2234  1.9737 -0.5181
  565MOL0     H74574  10.925   3.139   8.138  0.5741  2.3034 -0.5194
  565MOL0     H74575  10.819   3.123   8.284 -1.4837  0.6310 -1.8705
  565MOL0     H74576  11.120   3.193   8.306  0.6779  0.3983  1.7254
  565MOL0     H74577  11.002   3.166   8.441 -2.2244  1.5622 -0.4120
  565MOL0     H74578  11.136   2.819   8.193  1.3750  3.2687 -4.3881
  565MOL0     H74579  10.433   3.146   8.280 -1.0587 -0.1416  0.1231
  565MOL0     H74580  10.258   3.070   8.139  1.2473  0.7374  1.7462
  566MOL0     O74581   2.886   7.127   8.465 -0.0852  0.1645 -0.0812
  566MOL0     C74582   3.005   7.118   8.454  0.0232  0.0883 -0.3771
  566MOL0     O74583   3.073   7.034   8.368  0.7812  0.3130 -0.1479
  566MOL0     C74584   3.002   6.961   8.277 -0.5170 -0.3937  0.0785
  566MOL0     C74585   2.881   6.897   8.303 -0.1826  0.1232 -0.1632
  566MOL0     C74586   2.818   6.818   8.206 -0.3221  0.1761 -1.3195
  566MOL0     C74587   2.871   6.800   8.079 -0.7680  0.0137  0.1843
  566MOL0     O74588   2.793   6.739   7.982 -0.1200 -0.2175 -0.1715
  566MOL0     C74589   2.865   6.684   7.876  0.1124  0.6397  0.6163
  566MOL0     C74590   2.779   6.583   7.802  0.0870  0.1930  0.7057
  566MOL0     C74591   2.652   6.651   7.725 -0.0481  0.1493  0.1409
  566MOL0     C74592   2.692   6.735   7.609 -0.0355 -0.1421  0.1596
  566MOL0     C74593   2.573   6.787   7.525  0.1395  0.9884 -0.3298
  566MOL0     C74594   2.511   6.676   7.432  0.8092  0.1241  0.0143
  566MOL0     C74595   2.426   6.753   7.334  0.0030  0.4362  0.5928
  566MOL0     C74596   2.375   6.662   7.222 -0.9674 -2.0429  0.6745
  566MOL0     N74597   2.277   6.727   7.131 -0.2272 -0.5022  0.2335
  566MOL0     C74598   2.137   6.725   7.146  1.5323  0.1872 -0.0913
  566MOL0     C74599   2.083   6.806   7.047  0.0885  0.7141  0.2675
  566MOL0     C74600   1.938   6.824   7.020  0.5333  0.6532 -0.5036
  566MOL0     C74601   1.864   6.925   7.118  0.0236  0.3965 -0.6388
  566MOL0     C74602   1.895   7.069   7.083  0.1874  0.4011  0.1618
  566MOL0     C74603   1.830   7.167   7.189 -0.4236 -0.3566  0.2265
  566MOL0     O74604   1.684   7.168   7.174  0.1113 -0.1534  0.5802
  566MOL0     C74605   1.601   7.233   7.268 -0.8454 -0.4781  0.4344
  566MOL0     C74606   1.464   7.213   7.266 -0.0675  0.8358  0.2315
  566MOL0     C74607   1.378   7.263   7.362  0.0176 -0.0648  0.0611
  566MOL0     C74608   1.431   7.349   7.459  0.2809  0.0656  0.3460
  566MOL0     C74609   1.335   7.410   7.551  0.2532 -0.9566  0.2413
  566MOL0     O74610   1.199   7.376   7.540 -0.0580  0.6335 -0.4129
  566MOL0     C74611   1.095   7.436   7.605  0.6841 -0.2618 -0.3510
  566MOL0     C74612   1.089   7.569   7.642  0.0529 -0.7150  0.2017
  566MOL0     C74613   0.985   7.621   7.721 -0.1874 -0.2850  0.0460
  566MOL0     C74614   0.871   7.542   7.758 -0.2239  0.4799 -0.6500
  566MOL0     O74615   0.768   7.582   7.836  0.2323 -0.3375  0.3631
  566MOL0     C74616   0.784   7.726   7.879 -0.1171  0.4146  0.1071
  566MOL0     C74617   0.669   7.787   7.955  0.2463 -0.2071  0.0758
  566MOL0     C74618   0.613   7.699   8.079 -0.1005  0.0873  0.2068
  566MOL0     C74619   0.491   7.756   8.150 -0.6621  0.5772 -0.1854
  566MOL0     C74620   0.369   7.747   8.068  0.9460 -0.1559 -1.1861
  566MOL0     C74621   0.251   7.795   8.154  0.0580  0.0772  0.0069
  566MOL0     C74622   0.188   7.682   8.225 -0.3043  0.0829 -0.0018
  566MOL0     C74623   0.062   7.731   8.294 -0.2895 -0.2538 -0.3025
  566MOL0    Cl74624   0.014   7.620   8.421 -0.1389 -0.3155  0.4243
  566MOL0     C74625   0.864   7.412   7.709 -1.3347  0.6666  0.9410
  566MOL0     C74626   0.979   7.361   7.637 -0.1840 -0.2077  0.4103
  566MOL0     O74627   1.376   7.508   7.615 -0.9009  0.4637  0.5507
  566MOL0     C74628   1.569   7.378   7.458  0.4179  0.1703 -0.9790
  566MOL0     C74629   1.652   7.313   7.370  0.7266 -0.4051  0.2353
  566MOL0     N74630   2.188   6.868   6.982 -0.0371  0.0965  0.4603
  566MOL0     N74631   2.303   6.817   7.029  0.0327 -0.9908  0.4517
  566MOL0     C74632   3.004   6.855   8.057  0.2203  0.6392  0.8003
  566MOL0     C74633   3.070   6.925   8.156  0.1150 -0.2079  0.6398
  566MOL0     C74634   3.087   7.228   8.523  0.4074  0.1769 -0.5555
  566MOL0     C74635   3.018   7.319   8.603  0.4685 -0.2167  0.5237
  566MOL0     C74636   3.085   7.430   8.673  0.3732 -0.5257 -0.1364
  566MOL0     C74637   3.225   7.438   8.660 -0.0770 -1.5563 -0.4207
  566MOL0     O74638   3.311   7.524   8.728  0.0819 -0.8588  0.0069
  566MOL0     C74639   3.277   7.582   8.854 -0.3239  0.0173 -0.5753
  566MOL0     C74640   3.289   7.486   8.974 -0.1863 -0.1447 -0.9654
  566MOL0     C74641   3.436   7.467   9.020 -0.5257  0.0416 -0.7356
  566MOL0     C74642   3.452   7.413   9.161  0.7083  0.7574 -0.1929
  566MOL0     C74643   3.453   7.268   9.148 -0.7570  0.0331 -0.4505
  566MOL0     C74644   3.481   7.151   9.130 -0.6533 -0.0230 -0.7974
  566MOL0     C74645   3.289   7.354   8.572  0.4615 -0.0651 -0.0945
  566MOL0     C74646   3.226   7.237   8.523  0.0686  0.6854  0.3188
  566MOL0     H74647   2.827   6.910   8.397 -1.1830  2.5441 -0.9893
  566MOL0     H74648   2.720   6.778   8.232  0.8985 -0.3373  3.3051
  566MOL0     H74649   2.953   6.627   7.909  1.2170  0.2766 -2.6494
  566MOL0     H74650   2.894   6.766   7.809  1.2947 -0.1785  0.0907
  566MOL0     H74651   2.737   6.522   7.883  2.5833 -1.1668  1.0647
  566MOL0     H74652   2.840   6.527   7.731  0.2616  2.3057 -0.9080
  566MOL0     H74653   2.593   6.711   7.796 -0.0382  0.8285 -0.4128
  566MOL0     H74654   2.600   6.560   7.694 -0.7142  0.9165 -1.0597
  566MOL0     H74655   2.747   6.817   7.656 -0.4528 -1.9017  4.1697
  566MOL0     H74656   2.751   6.675   7.539  1.0720  0.7832  0.2694
  566MOL0     H74657   2.613   6.871   7.467 -0.2657  1.8883  0.6454
  566MOL0     H74658   2.506   6.843   7.590 -1.4341 -1.6713  0.4803
  566MOL0     H74659   2.454   6.599   7.486  0.9971 -2.8939 -3.6433
  566MOL0     H74660   2.586   6.617   7.378 -0.3599 -1.3717 -0.0616
  566MOL0     H74661   2.339   6.790   7.389  0.1578 -0.3075  1.3606
  566MOL0     H74662   2.482   6.836   7.291 -1.2973  0.8496 -0.3626
  566MOL0     H74663   2.339   6.562   7.247 -4.3218 -1.2569 -0.5738
  566MOL0     H74664   2.459   6.635   7.157  1.6452  0.7045  2.6279
  566MOL0     H74665   2.076   6.666   7.215  1.6090 -0.4228 -0.5406
  566MOL0     H74666   1.885   6.729   7.032 -0.0537  0.6823 -2.4721
  566MOL0     H74667   1.924   6.857   6.917 -1.8946 -1.5075 -0.9733
  566MOL0     H74668   1.887   6.908   7.223 -0.1858 -2.5030 -0.9700
  566MOL0     H74669   1.757   6.904   7.110  0.2707 -1.9348  1.3008
  566MOL0     H74670   2.003   7.086   7.091 -0.0368  1.0708  2.9375
  566MOL0     H74671   1.862   7.085   6.980  2.2160  1.4433 -0.3992
  566MOL0     H74672   1.877   7.266   7.192 -0.4272 -0.2685 -1.4154
  566MOL0     H74673   1.853   7.134   7.290  2.0475 -0.9150 -0.4526
  566MOL0     H74674   1.421   7.134   7.206 -1.6752  1.6334  0.2701
  566MOL0     H74675   1.271   7.243   7.355  0.1590 -1.5805  1.6047
  566MOL0     H74676   1.166   7.639   7.612 -2.5308  1.2131 -2.4664
  566MOL0     H74677   0.990   7.723   7.757 -4.6063 -0.0178  0.5326
  566MOL0     H74678   0.791   7.785   7.787  0.3920 -1.8007 -1.3655
  566MOL0     H74679   0.873   7.745   7.940 -0.8481  0.7980  1.0855
  566MOL0     H74680   0.584   7.813   7.892 -0.3995 -0.6579  0.7471
  566MOL0     H74681   0.698   7.889   7.980 -1.1955 -0.5204  3.7374
  566MOL0     H74682   0.698   7.690   8.147 -0.2101 -1.2174  0.2086
  566MOL0     H74683   0.581   7.599   8.047 -1.3315  0.9235 -1.2863
  566MOL0     H74684   0.476   7.708   8.247  1.1064 -2.5475 -1.3168
  566MOL0     H74685   0.509   7.864   8.161 -1.6446  1.0672 -2.6324
  566MOL0     H74686   0.341   7.648   8.030 -2.9831  0.8353 -1.3299
  566MOL0     H74687   0.378   7.818   7.984 -3.6094  0.6530 -1.2442
  566MOL0     H74688   0.179   7.834   8.081  2.1935  0.8781 -1.7965
  566MOL0     H74689   0.283   7.873   8.224 -0.3572  0.1530  0.1117
  566MOL0     H74690   0.166   7.595   8.162  1.5937 -1.4939  1.3839
  566MOL0     H74691   0.259   7.645   8.299  1.3418  2.0114 -0.5160
  566MOL0     H74692  -0.017   7.727   8.218  0.2117  0.0066 -0.8494
  566MOL0     H74693   0.067   7.831   8.338  1.1595 -0.1050 -0.7797
  566MOL0     H74694   0.783   7.343   7.729 -2.0136  0.5375 -1.7491
  566MOL0     H74695   0.992   7.260   7.601  3.8084 -0.3488  1.7393
  566MOL0     H74696   1.610   7.435   7.541  0.8356 -2.0553  0.4431
  566MOL0     H74697   1.760   7.328   7.373  0.9633 -0.3377 -3.4906
  566MOL0     H74698   3.066   6.842   7.968  2.1954 -1.1748  2.3324
  566MOL0     H74699   3.170   6.960   8.138  0.5652 -1.6601  0.1544
  566MOL0     H74700   2.913   7.311   8.630  0.3489 -0.9604 -0.1507
  566MOL0     H74701   3.017   7.492   8.731  2.8072 -0.2483  2.6619
  566MOL0     H74702   3.186   7.643   8.855  1.5905  3.1061 -0.5751
  566MOL0     H74703   3.353   7.659   8.871 -0.4855  0.2112 -0.7334
  566MOL0     H74704   3.219   7.518   9.052 -0.1927 -1.3018 -0.4839
  566MOL0     H74705   3.255   7.390   8.934 -1.9717  1.0036 -2.3490
  566MOL0     H74706   3.493   7.560   9.016 -1.5466  0.6894 -0.8263
  566MOL0     H74707   3.475   7.396   8.947  0.3060  1.0120 -1.2672
  566MOL0     H74708   3.553   7.438   9.196  1.2596 -1.6438  0.0853
  566MOL0     H74709   3.382   7.455   9.234  2.3287 -2.2815  3.4217
  566MOL0     H74710   3.493   7.046   9.116 -2.4828 -0.3795  0.0273
  566MOL0     H74711   3.396   7.366   8.580  0.2527  1.7373  0.5449
  566MOL0     H74712   3.284   7.164   8.468  0.2432  0.8703  0.2575
  567MOL0     O74713   7.304   1.475   6.792  0.2598  0.2282 -0.0367
  567MOL0     C74714   7.350   1.592   6.787 -0.4445  0.4608  0.5966
  567MOL0     O74715   7.279   1.704   6.787 -0.4323 -0.5618  0.2124
  567MOL0     C74716   7.144   1.706   6.800  0.4049 -0.0617 -0.6028
  567MOL0     C74717   7.047   1.612   6.756 -0.5032  0.0392 -0.5300
  567MOL0     C74718   6.907   1.627   6.776 -0.0809 -0.8550 -0.5436
  567MOL0     C74719   6.860   1.748   6.839  0.0116  0.7127  0.2099
  567MOL0     O74720   6.730   1.785   6.865  0.1541  0.1948  0.2149
  567MOL0     C74721   6.622   1.691   6.879 -0.8934  0.3203 -0.1927
  567MOL0     C74722   6.531   1.751   6.988 -0.8942 -0.1703 -0.6971
  567MOL0     C74723   6.478   1.889   6.951  0.2095  0.6150 -1.0822
  567MOL0     C74724   6.388   1.953   7.067 -0.4788 -0.6598 -0.2210
  567MOL0     C74725   6.284   2.056   7.022 -0.4373 -0.6921  0.4341
  567MOL0     C74726   6.195   2.110   7.131  0.5070 -0.3922 -0.0594
  567MOL0     C74727   6.094   2.215   7.081 -0.0698 -0.2022  0.2745
  567MOL0     C74728   5.988   2.153   6.990  0.1345  0.6330 -0.1080
  567MOL0     N74729   5.890   2.257   6.963 -0.2953  0.2035  0.0618
  567MOL0     C74730   5.907   2.391   6.947 -0.2908 -0.4912  0.1955
  567MOL0     C74731   5.780   2.434   6.920 -0.3604 -0.9542  0.9160
  567MOL0     C74732   5.749   2.580   6.894 -1.3548 -0.1572 -1.0669
  567MOL0     C74733   5.616   2.602   6.820  0.8657 -0.6515 -0.8043
  567MOL0     C74734   5.578   2.750   6.801 -0.3921 -0.6836 -0.0074
  567MOL0     C74735   5.449   2.747   6.722  0.5607 -0.7492  0.2017
  567MOL0     O74736   5.327   2.725   6.811  0.3079 -0.1945 -0.0404
  567MOL0     C74737   5.200   2.725   6.749  0.3203 -0.2075 -0.8477
  567MOL0     C74738   5.105   2.820   6.780 -0.8338 -0.0760 -0.5163
  567MOL0     C74739   4.978   2.827   6.715  0.2416 -0.0929  0.3210
  567MOL0     C74740   4.947   2.726   6.618 -0.3987 -0.0158  0.3341
  567MOL0     C74741   4.822   2.743   6.537 -0.3093  0.0646  0.3354
  567MOL0     O74742   4.733   2.834   6.583  0.0655 -0.1295  0.4918
  567MOL0     C74743   4.608   2.848   6.522  0.3871  0.3766  0.2871
  567MOL0     C74744   4.542   2.974   6.547  0.3376  0.2641 -0.1498
  567MOL0     C74745   4.422   3.013   6.483  0.2965  0.4608 -0.5972
  567MOL0     C74746   4.356   2.921   6.390  0.6535  1.2555 -0.6617
  567MOL0     O74747   4.229   2.951   6.342  0.2457  0.3853 -0.2122
  567MOL0     C74748   4.181   3.080   6.334  0.6605 -0.4074 -0.2482
  567MOL0     C74749   4.043   3.077   6.251 -0.0357 -0.8625  0.0337
  567MOL0     C74750   4.066   3.150   6.116  0.6057 -0.0783 -0.0589
  567MOL0     C74751   3.944   3.143   6.029  0.1002  0.1993  0.9498
  567MOL0     C74752   3.961   3.223   5.900  0.6538 -0.0986  0.3601
  567MOL0     C74753   3.855   3.223   5.788  0.0019 -0.2169 -0.0981
  567MOL0     C74754   3.917   3.277   5.653 -0.2757 -0.3019  0.5146
  567MOL0     C74755   3.999   3.401   5.653 -0.4911  0.1144 -0.3849
  567MOL0    Cl74756   4.107   3.404   5.502  0.4287 -0.0360  0.2376
  567MOL0     C74757   4.409   2.785   6.387  0.0105 -0.4138 -0.3254
  567MOL0     C74758   4.540   2.759   6.435 -0.3982 -0.2343  0.4062
  567MOL0     O74759   4.807   2.669   6.443  0.1140 -0.0121 -0.3373
  567MOL0     C74760   5.043   2.630   6.585 -0.0049 -0.2743 -0.2498
  567MOL0     C74761   5.163   2.631   6.655 -0.0161 -0.3580 -0.5202
  567MOL0     N74762   5.688   2.337   6.917  0.2589  0.2392  0.3941
  567MOL0     N74763   5.758   2.228   6.949  0.1536  0.1956  0.0461
  567MOL0     C74764   6.961   1.836   6.885  0.2402  0.5194  0.3164
  567MOL0     C74765   7.096   1.819   6.870 -0.1806  0.1938  0.0334
  567MOL0     C74766   7.501   1.608   6.774 -0.6594 -0.2267 -1.4182
  567MOL0     C74767   7.564   1.735   6.770 -0.5202 -0.0715  0.7659
  567MOL0     C74768   7.701   1.744   6.770 -0.0672  0.4259 -0.0763
  567MOL0     C74769   7.786   1.631   6.754 -0.2192  0.4707  0.0784
  567MOL0     O74770   7.927   1.625   6.735 -0.4460 -0.3488 -0.4636
  567MOL0     C74771   7.995   1.753   6.730  0.0566 -0.1516 -0.3659
  567MOL0     C74772   8.146   1.738   6.698  0.8478  0.3275  0.6522
  567MOL0     C74773   8.211   1.621   6.782 -0.5359  0.1290 -0.2530
  567MOL0     C74774   8.362   1.614   6.740 -0.6791  0.2151 -0.8806
  567MOL0     C74775   8.449   1.710   6.808 -0.6369  0.5098  0.2772
  567MOL0     C74776   8.524   1.787   6.860 -0.1903  1.5408 -0.5352
  567MOL0     C74777   7.717   1.509   6.758 -1.4218  0.6731  1.2250
  567MOL0     C74778   7.583   1.497   6.779  0.9574 -0.5001 -1.1970
  567MOL0     H74779   7.082   1.524   6.705  2.1196  0.7075  0.0037
  567MOL0     H74780   6.833   1.551   6.753 -0.9486 -0.9515  2.1408
  567MOL0     H74781   6.653   1.592   6.912  0.7648  0.6163 -0.7657
  567MOL0     H74782   6.566   1.689   6.785 -1.5240  0.7798  0.1623
  567MOL0     H74783   6.579   1.750   7.086  2.8562 -0.4891 -2.3786
  567MOL0     H74784   6.448   1.680   6.999 -1.0377 -0.2332 -2.0022
  567MOL0     H74785   6.425   1.881   6.856  1.3124  0.4297 -1.6912
  567MOL0     H74786   6.545   1.972   6.929 -0.1417  0.0261 -4.9948
  567MOL0     H74787   6.328   1.875   7.116 -0.5141 -0.1138  0.6188
  567MOL0     H74788   6.457   1.998   7.139 -2.8397  0.6544  1.3666
  567MOL0     H74789   6.224   2.005   6.946 -1.0165  2.8935 -1.7134
  567MOL0     H74790   6.347   2.136   6.984 -3.9620  2.8893  1.4861
  567MOL0     H74791   6.253   2.154   7.213 -0.5713  4.2996 -1.5056
  567MOL0     H74792   6.129   2.036   7.176 -0.4402  0.6121  0.2489
  567MOL0     H74793   6.042   2.241   7.173 -0.5502  2.2310 -0.5933
  567MOL0     H74794   6.149   2.297   7.032 -0.2519  1.2062  2.3206
  567MOL0     H74795   5.949   2.067   7.044  1.4735  1.1886  1.8462
  567MOL0     H74796   6.033   2.122   6.895  2.1326  0.6253  0.7758
  567MOL0     H74797   6.001   2.443   6.959 -1.2460  1.2746  0.4281
  567MOL0     H74798   5.834   2.623   6.840 -1.0679 -0.0954 -0.5758
  567MOL0     H74799   5.758   2.637   6.987  3.1123 -0.0065 -1.3838
  567MOL0     H74800   5.543   2.570   6.895  0.5053 -1.4493 -1.4866
  567MOL0     H74801   5.603   2.544   6.728  0.4280 -0.1173 -1.0807
  567MOL0     H74802   5.552   2.786   6.901  3.2443  0.0246  0.8216
  567MOL0     H74803   5.655   2.812   6.754 -0.6914  0.5013  0.9860
  567MOL0     H74804   5.448   2.672   6.642  0.2794  0.8736 -1.3729
  567MOL0     H74805   5.447   2.848   6.680  2.0859 -0.6708  0.2715
  567MOL0     H74806   5.122   2.898   6.853 -4.3283 -0.5216  0.9527
  567MOL0     H74807   4.903   2.901   6.740 -1.3759 -0.4680 -2.8500
  567MOL0     H74808   4.587   3.044   6.616 -0.2588 -1.1103  1.7108
  567MOL0     H74809   4.391   3.114   6.506 -0.9610  0.2982 -1.4850
  567MOL0     H74810   4.247   3.152   6.284  0.2501 -1.2431 -2.0816
  567MOL0     H74811   4.166   3.119   6.435  2.2476  1.9344 -0.8329
  567MOL0     H74812   3.960   3.126   6.301  0.3698  1.1940 -1.1839
  567MOL0     H74813   4.006   2.975   6.234  0.4692 -0.7970 -1.6857
  567MOL0     H74814   4.142   3.108   6.050 -0.5528 -0.3713 -1.2383
  567MOL0     H74815   4.083   3.257   6.131 -4.1391  1.1382 -1.5852
  567MOL0     H74816   3.920   3.041   5.997  2.2239  0.0264 -0.2804
  567MOL0     H74817   3.861   3.175   6.092 -0.2106 -2.5544  2.0876
  567MOL0     H74818   4.050   3.181   5.854 -0.2922 -1.7086 -0.0844
  567MOL0     H74819   3.976   3.327   5.930  1.4704  0.4492 -1.7429
  567MOL0     H74820   3.765   3.278   5.818  0.8057  1.8104 -1.2359
  567MOL0     H74821   3.839   3.115   5.773  1.2130 -0.3796 -0.2802
  567MOL0     H74822   3.977   3.194   5.614 -0.2722 -0.1444  0.1830
  567MOL0     H74823   3.845   3.299   5.574  2.2481 -0.1734 -1.9148
  567MOL0     H74824   4.071   3.400   5.736  3.0224  3.6324 -3.0441
  567MOL0     H74825   3.941   3.490   5.679  1.4842  1.3451  0.0280
  567MOL0     H74826   4.351   2.714   6.328 -3.3389  3.3104 -1.9951
  567MOL0     H74827   4.565   2.655   6.414  0.8025  0.1874 -0.3265
  567MOL0     H74828   5.032   2.561   6.502  1.8428 -1.0076  0.0713
  567MOL0     H74829   5.237   2.553   6.641  2.4724  1.7872  0.0563
  567MOL0     H74830   6.928   1.921   6.943  1.6352  1.5654 -0.3711
  567MOL0     H74831   7.173   1.888   6.904 -2.4121  4.5470 -2.7961
  567MOL0     H74832   7.507   1.827   6.763  1.7372  1.3215 -0.9414
  567MOL0     H74833   7.742   1.844   6.773  0.1725  0.3105  1.2896
  567MOL0     H74834   7.993   1.788   6.834  3.2439  0.3322 -0.3613
  567MOL0     H74835   7.950   1.830   6.667  3.1840  2.3876  0.2399
  567MOL0     H74836   8.174   1.735   6.593  1.2756  1.8181  0.7041
  567MOL0     H74837   8.196   1.827   6.738 -0.3396  1.7843 -0.9189
  567MOL0     H74838   8.165   1.530   6.744  0.3248 -0.0007 -0.9974
  567MOL0     H74839   8.201   1.637   6.890 -0.1831 -0.8796 -0.0643
  567MOL0     H74840   8.391   1.518   6.784  0.2266  1.6297  1.7949
  567MOL0     H74841   8.379   1.618   6.632 -1.3812  0.3432 -0.9923
  567MOL0     H74842   8.582   1.860   6.913  0.4424  0.6187  0.0701
  567MOL0     H74843   7.783   1.423   6.763 -1.2724  0.5633 -1.2315
  567MOL0     H74844   7.539   1.401   6.806 -2.4671  0.6831 -1.9600
  568MOL0     O74845   4.903   1.439   5.110 -0.0419 -0.3501 -0.1416
  568MOL0     C74846   4.877   1.455   5.227  0.5889 -0.4409  0.2033
  568MOL0     O74847   4.755   1.507   5.270  0.1015  0.0655 -0.0655
  568MOL0     C74848   4.663   1.569   5.190  0.3806 -0.2488 -0.1166
  568MOL0     C74849   4.531   1.549   5.201  0.0572  0.5829 -0.8216
  568MOL0     C74850   4.435   1.608   5.117 -0.1629  0.4547 -1.0332
  568MOL0     C74851   4.471   1.688   5.011  0.0937 -0.0913 -0.6165
  568MOL0     O74852   4.368   1.748   4.951  0.2060 -0.3935  0.0381
  568MOL0     C74853   4.388   1.834   4.838  0.1837  0.5937 -0.5015
  568MOL0     C74854   4.253   1.842   4.763 -0.0935  0.2042 -0.0276
  568MOL0     C74855   4.132   1.885   4.844  0.0515  0.6086  0.2570
  568MOL0     C74856   4.026   1.916   4.740  0.2884 -0.7418 -0.0278
  568MOL0     C74857   3.916   1.981   4.809  0.3376  0.0196  0.5531
  568MOL0     C74858   3.792   1.990   4.706  0.4428 -0.4996  0.1160
  568MOL0     C74859   3.679   2.083   4.756  0.2282  1.0587 -0.5535
  568MOL0     C74860   3.571   2.105   4.654 -0.2209 -0.2586 -0.0686
  568MOL0     N74861   3.486   1.992   4.615  0.1687  0.8535 -1.1176
  568MOL0     C74862   3.387   1.923   4.681 -0.7526 -0.2104  0.6189
  568MOL0     C74863   3.356   1.820   4.605  1.1713  0.8376  0.3180
  568MOL0     C74864   3.256   1.709   4.642  0.4767  0.0263 -0.6668
  568MOL0     C74865   3.114   1.770   4.657  0.4260 -1.1654  0.2487
  568MOL0     C74866   3.089   1.898   4.740 -0.1103 -0.2148 -1.0147
  568MOL0     C74867   2.939   1.925   4.749 -0.1029  0.2618 -0.3362
  568MOL0     O74868   2.874   1.823   4.829  0.6498 -0.3520 -0.0306
  568MOL0     C74869   2.741   1.796   4.811  0.0099  0.1023  0.7144
  568MOL0     C74870   2.695   1.667   4.846 -0.5039 -0.0696 -0.3476
  568MOL0     C74871   2.563   1.631   4.819  0.7506 -0.3016  0.7998
  568MOL0     C74872   2.468   1.732   4.782 -0.4678 -0.1188 -0.1994
  568MOL0     C74873   2.328   1.700   4.761  0.1057 -0.3927 -0.1608
  568MOL0     O74874   2.291   1.571   4.744 -0.3652  0.1417 -0.2760
  568MOL0     C74875   2.151   1.561   4.721  0.1404  0.4838 -0.1206
  568MOL0     C74876   2.104   1.556   4.590  0.2965 -1.3524 -0.4861
  568MOL0     C74877   1.969   1.520   4.573 -0.6461  0.4787  0.1373
  568MOL0     C74878   1.879   1.506   4.670  0.1494 -0.2516 -0.2451
  568MOL0     O74879   1.752   1.473   4.629  0.8946 -0.0711 -0.4296
  568MOL0     C74880   1.648   1.500   4.726  0.6351 -0.2148 -0.1270
  568MOL0     C74881   1.532   1.553   4.648  0.1537 -0.9749 -0.3636
  568MOL0     C74882   1.402   1.546   4.722 -0.0143 -0.3527 -0.5360
  568MOL0     C74883   1.284   1.630   4.664 -0.3671  0.5597  0.6211
  568MOL0     C74884   1.214   1.581   4.528  1.3679 -0.0142 -0.0500
  568MOL0     C74885   1.104   1.672   4.478 -0.3400  0.2101 -0.6152
  568MOL0     C74886   1.050   1.625   4.349 -0.2302  0.6585 -0.4311
  568MOL0     C74887   1.129   1.655   4.218  0.1873 -0.5865  0.1979
  568MOL0    Cl74888   1.163   1.832   4.206  0.5092 -0.1631  0.0466
  568MOL0     C74889   1.928   1.509   4.800 -0.2516 -0.4521 -0.3587
  568MOL0     C74890   2.068   1.545   4.829  0.9049 -0.1405  0.5188
  568MOL0     O74891   2.246   1.792   4.768 -0.1244 -0.4987 -0.6368
  568MOL0     C74892   2.518   1.863   4.764  1.7173 -0.3410 -0.3292
  568MOL0     C74893   2.653   1.898   4.781  0.9938  0.5756  0.0687
  568MOL0     N74894   3.430   1.822   4.489 -0.2035 -0.1395 -0.7346
  568MOL0     N74895   3.511   1.926   4.501  0.2270 -0.3070  0.1693
  568MOL0     C74896   4.609   1.703   4.995  0.3837 -0.1181  0.5374
  568MOL0     C74897   4.700   1.648   5.084  0.7605 -0.2684 -0.0351
  568MOL0     C74898   4.975   1.408   5.332 -0.0786  0.9244  0.2113
  568MOL0     C74899   4.956   1.426   5.470 -0.7238 -0.8248 -0.0250
  568MOL0     C74900   5.040   1.370   5.563 -0.1139 -1.0099 -0.5177
  568MOL0     C74901   5.168   1.321   5.527  0.6014  0.3675  0.7126
  568MOL0     O74902   5.274   1.264   5.603  0.1274 -0.2310 -0.9785
  568MOL0     C74903   5.269   1.292   5.740 -0.6246  1.2403  0.0322
  568MOL0     C74904   5.410   1.279   5.793  1.0825 -0.3549 -0.7796
  568MOL0     C74905   5.511   1.382   5.741  0.4724  1.0499 -0.0492
  568MOL0     C74906   5.642   1.364   5.816  0.8568 -0.0551 -0.1467
  568MOL0     C74907   5.747   1.424   5.733 -0.1669  0.0381  1.2642
  568MOL0     C74908   5.823   1.476   5.658  0.4999  0.5359 -0.2319
  568MOL0     C74909   5.192   1.317   5.390 -0.2892 -0.7650 -0.8196
  568MOL0     C74910   5.099   1.349   5.296  1.4767 -0.2566 -0.2538
  568MOL0     H74911   4.495   1.487   5.282  0.7409  0.4759 -0.5948
  568MOL0     H74912   4.331   1.586   5.136 -0.1713  1.0893 -0.2768
  568MOL0     H74913   4.469   1.789   4.780 -1.2572  0.8957 -2.8587
  568MOL0     H74914   4.418   1.932   4.876 -1.1577  0.6122  0.6008
  568MOL0     H74915   4.232   1.742   4.724  0.2680  0.8231 -1.9058
  568MOL0     H74916   4.267   1.894   4.668 -0.7791 -0.7936 -0.6975
  568MOL0     H74917   4.157   1.970   4.909 -0.1798  0.9899 -0.1492
  568MOL0     H74918   4.103   1.799   4.906 -2.6468  1.2771  0.0265
  568MOL0     H74919   4.066   1.980   4.661  0.2309 -0.1034  0.4541
  568MOL0     H74920   4.005   1.816   4.700  1.1738 -0.3081 -1.6455
  568MOL0     H74921   3.944   2.081   4.844  1.4914  0.3289 -1.1225
  568MOL0     H74922   3.879   1.922   4.893 -1.4881  1.0129  0.4937
  568MOL0     H74923   3.755   1.891   4.677 -0.5932  0.0858 -0.6387
  568MOL0     H74924   3.836   2.023   4.611 -0.2844 -1.3459 -0.5291
  568MOL0     H74925   3.639   2.030   4.843  1.1708 -0.2476 -0.8821
  568MOL0     H74926   3.720   2.169   4.810  1.3328  0.2126  0.0094
  568MOL0     H74927   3.622   2.124   4.559 -1.0291 -0.1190 -0.4832
  568MOL0     H74928   3.503   2.186   4.683 -0.4360 -0.6823  0.6097
  568MOL0     H74929   3.353   1.950   4.780  1.0976  1.6500  0.8254
  568MOL0     H74930   3.286   1.674   4.742  1.2963  0.0769 -0.8855
  568MOL0     H74931   3.262   1.621   4.577 -1.0688 -0.7718  0.2025
  568MOL0     H74932   3.060   1.700   4.721  0.7419 -1.3539  0.3096
  568MOL0     H74933   3.066   1.771   4.558 -2.8119 -0.0768  1.7105
  568MOL0     H74934   3.128   1.882   4.841 -0.0137  1.7005 -0.7020
  568MOL0     H74935   3.132   1.990   4.700  2.5115  0.8668  3.5633
  568MOL0     H74936   2.908   1.936   4.645  1.0842  1.4569 -0.5962
  568MOL0     H74937   2.921   2.026   4.787 -0.7818 -0.3246  0.9499
  568MOL0     H74938   2.766   1.591   4.877 -0.4489 -0.8771 -2.3014
  568MOL0     H74939   2.526   1.529   4.830  0.4775 -0.9230 -3.9912
  568MOL0     H74940   2.173   1.583   4.511  2.1078  1.3468  1.8229
  568MOL0     H74941   1.936   1.523   4.469 -0.9065 -1.1853  0.1313
  568MOL0     H74942   1.688   1.579   4.790 -1.8747 -0.1390  1.5256
  568MOL0     H74943   1.623   1.413   4.787 -0.0947  0.7527  1.0100
  568MOL0     H74944   1.515   1.503   4.552 -1.1009 -2.3048  0.5135
  568MOL0     H74945   1.563   1.657   4.633  0.9165 -0.6357  2.8747
  568MOL0     H74946   1.425   1.582   4.823  2.3994  0.0095 -1.1580
  568MOL0     H74947   1.380   1.440   4.737  0.2559 -0.4212 -0.6178
  568MOL0     H74948   1.208   1.635   4.744 -0.6573  0.7215  0.3362
  568MOL0     H74949   1.335   1.724   4.643  0.2458  0.2081  0.5263
  568MOL0     H74950   1.182   1.477   4.534  0.8353  0.1768  0.5736
  568MOL0     H74951   1.303   1.589   4.465  2.1564 -2.9135  0.5301
  568MOL0     H74952   1.152   1.770   4.467  3.9432 -1.4351  1.2503
  568MOL0     H74953   1.020   1.670   4.548  0.3191 -0.5216  0.1671
  568MOL0     H74954   1.019   1.520   4.352  1.2304  0.2135  1.2125
  568MOL0     H74955   0.952   1.671   4.338 -0.5794  0.3455  1.1283
  568MOL0     H74956   1.062   1.634   4.134  1.1244  0.2424 -0.7960
  568MOL0     H74957   1.221   1.598   4.199 -0.8400 -1.6125 -2.0651
  568MOL0     H74958   1.857   1.497   4.881  0.5556  0.2742  0.4829
  568MOL0     H74959   2.107   1.541   4.930  2.6388  0.2898 -0.0919
  568MOL0     H74960   2.445   1.938   4.736  0.1463 -1.3384  0.9150
  568MOL0     H74961   2.676   2.002   4.760  1.9745 -0.0805 -2.5313
  568MOL0     H74962   4.640   1.753   4.903  2.7053 -3.1384 -0.4886
  568MOL0     H74963   4.805   1.671   5.067  1.1377 -1.2082  0.9076
  568MOL0     H74964   4.869   1.476   5.513 -1.4644 -2.1270  0.0421
  568MOL0     H74965   5.021   1.366   5.670  0.0120  0.4879 -0.4282
  568MOL0     H74966   5.214   1.209   5.782  2.2207 -1.3426 -0.9736
  568MOL0     H74967   5.222   1.388   5.766 -0.1866  1.3375  0.4782
  568MOL0     H74968   5.405   1.292   5.901  1.7547 -2.8374 -0.3936
  568MOL0     H74969   5.451   1.181   5.768 -1.0939 -2.0609  1.7732
  568MOL0     H74970   5.460   1.477   5.760 -1.7686 -0.2018  0.6199
  568MOL0     H74971   5.531   1.357   5.636  2.4186 -2.8944  1.0596
  568MOL0     H74972   5.627   1.411   5.914  1.7760 -3.9121  2.0791
  568MOL0     H74973   5.664   1.258   5.834 -0.8140 -0.7972 -2.0791
  568MOL0     H74974   5.895   1.516   5.590  0.9555  1.1809  0.6243
  568MOL0     H74975   5.286   1.282   5.349  0.1435 -0.8300  0.1856
  568MOL0     H74976   5.119   1.323   5.192  0.5349  1.3499 -0.8792
  569MOL0     O74977   8.537   2.414   0.881 -0.2463 -0.1453  0.2130
  569MOL0     C74978   8.611   2.340   0.815  0.9482 -0.3390 -0.2825
  569MOL0     O74979   8.586   2.215   0.769  0.1942  0.8602 -0.2566
  569MOL0     C74980   8.472   2.146   0.800  0.5120 -0.6008  0.3606
  569MOL0     C74981   8.348   2.197   0.779  0.2212  0.4746 -0.5012
  569MOL0     C74982   8.225   2.125   0.794 -0.3377  0.8730  0.2656
  569MOL0     C74983   8.238   1.990   0.842 -0.0382  0.0414 -0.0908
  569MOL0     O74984   8.124   1.918   0.874 -0.3279  0.0742  0.5802
  569MOL0     C74985   7.994   1.958   0.831 -0.3432  0.4412 -0.6436
  569MOL0     C74986   7.882   1.857   0.844 -0.1133 -0.3329 -0.9863
  569MOL0     C74987   7.838   1.854   0.993  0.3339  0.4055 -0.7445
  569MOL0     C74988   7.781   1.717   1.032  0.1675 -0.4847 -0.0339
  569MOL0     C74989   7.643   1.702   0.971 -0.0027 -0.7128  0.3896
  569MOL0     C74990   7.539   1.647   1.069  0.5162 -0.2766 -0.1136
  569MOL0     C74991   7.407   1.615   0.987 -0.4821 -0.0280 -0.2546
  569MOL0     C74992   7.312   1.529   1.071  0.1416  0.1330 -0.2786
  569MOL0     N74993   7.189   1.509   0.990  0.1266 -0.9238  0.3536
  569MOL0     C74994   7.093   1.610   0.964  0.1608 -0.3031 -0.6935
  569MOL0     C74995   7.005   1.563   0.879  0.8587  0.3378  0.9135
  569MOL0     C74996   6.900   1.645   0.814 -0.8008  0.1656  0.2175
  569MOL0     C74997   6.765   1.582   0.821  0.0099 -0.4229  0.6257
  569MOL0     C74998   6.658   1.669   0.753  0.1579  0.5563 -0.3772
  569MOL0     C74999   6.520   1.588   0.773  0.2964  0.2220 -0.3539
  569MOL0     O75000   6.415   1.664   0.711 -0.5911 -0.0928 -0.2854
  569MOL0     C75001   6.293   1.613   0.715 -0.0113  0.0451  0.4672
  569MOL0     C75002   6.260   1.476   0.733  0.2427 -0.4520 -0.0366
  569MOL0     C75003   6.130   1.427   0.714  0.1654 -0.6994  0.2962
  569MOL0     C75004   6.029   1.512   0.671  0.0204  0.4981  0.2009
  569MOL0     C75005   5.890   1.462   0.633 -0.9451  0.7285  0.2008
  569MOL0     O75006   5.800   1.557   0.600 -0.5896 -0.1137  0.1695
  569MOL0     C75007   5.674   1.508   0.600  0.2784  1.0314  0.6497
  569MOL0     C75008   5.624   1.429   0.496 -0.9711 -0.0769 -0.8092
  569MOL0     C75009   5.495   1.397   0.486  0.4548 -0.4012 -0.9732
  569MOL0     C75010   5.406   1.456   0.578 -1.1507 -0.1647 -0.2669
  569MOL0     O75011   5.275   1.425   0.573 -0.6682 -0.2173  0.2861
  569MOL0     C75012   5.209   1.372   0.452 -0.1921 -0.1141 -0.4387
  569MOL0     C75013   5.058   1.415   0.452  0.5107 -0.2356  0.2104
  569MOL0     C75014   4.987   1.371   0.325  0.1474 -0.4272 -0.4070
  569MOL0     C75015   4.850   1.443   0.324  0.3042 -0.8300  0.0019
  569MOL0     C75016   4.794   1.428   0.180 -0.0710  0.4996 -0.1552
  569MOL0     C75017   4.653   1.474   0.179  0.5668  0.2829  0.3343
  569MOL0     C75018   4.616   1.459   0.033  0.4255  0.3017 -0.0999
  569MOL0     C75019   4.468   1.520   0.003 -0.2281  0.0647  0.3358
  569MOL0    Cl75020   4.336   1.422   0.091 -0.1365 -0.4523  0.6518
  569MOL0     C75021   5.451   1.542   0.682  0.1476  0.1465 -0.0729
  569MOL0     C75022   5.585   1.571   0.690  0.2927 -0.3714 -0.4086
  569MOL0     O75023   5.878   1.343   0.616  0.1436 -0.3177 -0.6630
  569MOL0     C75024   6.052   1.647   0.673 -0.1404 -0.6186  0.3531
  569MOL0     C75025   6.188   1.688   0.684  0.6493 -0.1053  0.3205
  569MOL0     N75026   7.049   1.436   0.845 -0.6520  0.2403 -0.3782
  569MOL0     N75027   7.160   1.409   0.903  0.5672  0.1551  0.0814
  569MOL0     C75028   8.368   1.937   0.868  0.3241  0.6750 -0.3911
  569MOL0     C75029   8.482   2.010   0.843  0.9222 -0.4044 -0.1731
  569MOL0     C75030   8.751   2.383   0.803  0.3957 -0.3816  0.2981
  569MOL0     C75031   8.837   2.335   0.708  0.2613  0.0364  0.2138
  569MOL0     C75032   8.969   2.395   0.697  0.2057 -0.0493  0.3174
  569MOL0     C75033   9.017   2.491   0.787  0.0418  0.2993  0.3550
  569MOL0     O75034   9.150   2.524   0.772  0.0061 -0.4508  0.0199
  569MOL0     C75035   9.207   2.608   0.870 -0.3512  0.7029 -0.2039
  569MOL0     C75036   9.264   2.518   0.985 -0.5562 -0.5036  0.5652
  569MOL0     C75037   9.386   2.437   0.942  0.6249  1.3283  0.4819
  569MOL0     C75038   9.522   2.493   0.997  0.4810  0.6387  0.8738
  569MOL0     C75039   9.572   2.602   0.916 -0.4143 -0.1798  0.0377
  569MOL0     C75040   9.607   2.684   0.833 -0.2432 -0.0886 -0.0796
  569MOL0     C75041   8.937   2.528   0.887  0.3001  0.2036  0.6085
  569MOL0     C75042   8.800   2.482   0.891 -0.0502  0.1831  0.3533
  569MOL0     H75043   8.344   2.296   0.735 -0.7677  2.1558  3.0136
  569MOL0     H75044   8.130   2.175   0.779  0.5173  2.3898 -0.3106
  569MOL0     H75045   8.006   1.990   0.727  1.0500  2.6048  0.1076
  569MOL0     H75046   7.961   2.052   0.876  1.6258  0.3592  1.1054
  569MOL0     H75047   7.920   1.758   0.818  0.4019 -2.3780  5.6234
  569MOL0     H75048   7.805   1.906   0.784 -0.4883 -1.1904 -1.2246
  569MOL0     H75049   7.754   1.923   1.005  0.6021  0.4656  1.0710
  569MOL0     H75050   7.920   1.884   1.059 -0.3339 -0.6531  0.6202
  569MOL0     H75051   7.847   1.637   0.999  2.1480  0.9252  0.3511
  569MOL0     H75052   7.779   1.706   1.141 -3.8800 -0.1844  0.0660
  569MOL0     H75053   7.666   1.635   0.887 -1.4303  1.8329 -2.2396
  569MOL0     H75054   7.607   1.796   0.930 -4.1985 -1.3382  2.1081
  569MOL0     H75055   7.533   1.702   1.163 -1.5952 -0.8264  0.1235
  569MOL0     H75056   7.577   1.548   1.095  0.2406 -0.4242 -0.2561
  569MOL0     H75057   7.349   1.699   0.950  0.2680 -0.2086 -1.9543
  569MOL0     H75058   7.427   1.549   0.901 -1.9596 -2.2915  1.0413
  569MOL0     H75059   7.288   1.566   1.171  1.0514 -0.8245  0.3183
  569MOL0     H75060   7.359   1.431   1.088 -2.2315 -1.5070 -2.3232
  569MOL0     H75061   7.092   1.712   1.000 -2.9661 -1.0146  1.6015
  569MOL0     H75062   6.936   1.668   0.713  3.2879  0.9004  1.6895
  569MOL0     H75063   6.892   1.747   0.852  3.0009  1.8880 -2.9098
  569MOL0     H75064   6.740   1.571   0.927 -0.2225 -1.3823  0.4804
  569MOL0     H75065   6.764   1.484   0.771  0.4014  0.1105 -0.4569
  569MOL0     H75066   6.658   1.762   0.810  1.7885 -0.2756  1.0285
  569MOL0     H75067   6.679   1.683   0.646 -1.3807 -1.7878 -1.0620
  569MOL0     H75068   6.506   1.567   0.879  0.2884  1.1742 -0.1629
  569MOL0     H75069   6.520   1.489   0.725 -1.9162  0.5570 -1.1629
  569MOL0     H75070   6.335   1.402   0.760  0.2421 -2.3121 -4.2376
  569MOL0     H75071   6.103   1.322   0.720  1.8637 -1.3380 -1.7710
  569MOL0     H75072   5.682   1.384   0.416 -0.5393  1.6167 -1.4976
  569MOL0     H75073   5.455   1.330   0.411 -0.1387 -4.2070  2.3887
  569MOL0     H75074   5.211   1.264   0.469 -2.2009  0.0870  1.5976
  569MOL0     H75075   5.264   1.395   0.361  3.3110 -1.4066  1.1885
  569MOL0     H75076   5.069   1.524   0.447 -0.5433 -0.1758 -2.7697
  569MOL0     H75077   5.006   1.378   0.541  1.5304  0.3057  1.0544
  569MOL0     H75078   4.977   1.262   0.320 -2.7828 -0.2065 -1.0192
  569MOL0     H75079   5.044   1.407   0.239 -0.9831  2.0579 -0.1789
  569MOL0     H75080   4.789   1.381   0.391 -0.1172 -1.0305 -0.5584
  569MOL0     H75081   4.845   1.550   0.342  0.0373  0.1253 -4.5556
  569MOL0     H75082   4.800   1.321   0.160 -0.8196 -0.7634  5.0156
  569MOL0     H75083   4.857   1.487   0.113 -2.1282  1.6713 -1.1805
  569MOL0     H75084   4.649   1.580   0.210  1.0269  1.2974 -2.7853
  569MOL0     H75085   4.598   1.413   0.251  3.9469 -2.4614  0.8300
  569MOL0     H75086   4.692   1.507  -0.029 -0.2698 -1.0889 -2.1506
  569MOL0     H75087   4.612   1.353   0.007 -2.9160  0.4606 -0.7381
  569MOL0     H75088   4.441   1.507  -0.102 -0.7596  1.4880  0.2772
  569MOL0     H75089   4.460   1.627   0.023 -3.6685 -0.2827  1.4521
  569MOL0     H75090   5.379   1.584   0.752  0.1308 -2.3361  1.5354
  569MOL0     H75091   5.631   1.641   0.759 -1.7319 -1.5073  2.2412
  569MOL0     H75092   5.976   1.721   0.652 -0.4548 -1.6945 -2.8137
  569MOL0     H75093   6.220   1.789   0.659  1.0722 -0.0916  0.8938
  569MOL0     H75094   8.380   1.840   0.915 -2.4613  0.7973  0.7503
  569MOL0     H75095   8.578   1.962   0.864  0.4323 -0.9022  0.9919
  569MOL0     H75096   8.801   2.261   0.638 -1.8525  3.2185 -2.3501
  569MOL0     H75097   9.045   2.373   0.623  0.8928 -1.1142  1.2879
  569MOL0     H75098   9.142   2.685   0.913  1.2657  1.7196  0.5162
  569MOL0     H75099   9.285   2.662   0.815 -0.7841  1.3369 -0.2052
  569MOL0     H75100   9.290   2.581   1.071 -3.5594 -0.4943  1.5859
  569MOL0     H75101   9.183   2.451   1.018  0.7267 -2.3671  0.0815
  569MOL0     H75102   9.393   2.429   0.833 -3.7026  0.7455  0.0823
  569MOL0     H75103   9.374   2.336   0.982 -4.2095  0.6307 -1.9640
  569MOL0     H75104   9.500   2.549   1.089 -1.7237  0.6891  0.3666
  569MOL0     H75105   9.603   2.422   1.011 -0.3432 -0.2621  1.2038
  569MOL0     H75106   9.633   2.740   0.745 -3.2049  1.7099  0.0657
  569MOL0     H75107   8.973   2.585   0.971  1.8179  1.9928 -1.1601
  569MOL0     H75108   8.734   2.519   0.970 -0.3080 -1.4484  0.9454
  570MOL0     O75109   2.434   8.832   0.180 -0.2103  0.2642  0.3085
  570MOL0     C75110   2.443   8.802   0.060  0.4383  0.3558  0.3285
  570MOL0     O75111   2.537   8.725   0.006  0.1400  0.5304  0.5785
  570MOL0     C75112   2.638   8.677   0.094  0.3483 -0.0680  0.9166
  570MOL0     C75113   2.693   8.749   0.204  0.0211  0.0822  0.5748
  570MOL0     C75114   2.787   8.698   0.292 -0.1361  0.6589  0.2247
  570MOL0     C75115   2.819   8.564   0.272 -0.2422 -0.6897  0.8487
  570MOL0     O75116   2.900   8.519   0.371 -0.7510 -0.3337  0.2996
  570MOL0     C75117   3.023   8.460   0.332  0.2668  0.7185 -0.5151
  570MOL0     C75118   3.103   8.443   0.462  1.3013 -0.0404  0.3077
  570MOL0     C75119   3.243   8.387   0.426 -0.5401  0.0154 -0.7767
  570MOL0     C75120   3.320   8.347   0.556  0.3423 -0.3017  0.6305
  570MOL0     C75121   3.458   8.305   0.517  0.1321 -0.1027  0.3583
  570MOL0     C75122   3.533   8.245   0.637  0.0025  0.1554  0.1846
  570MOL0     C75123   3.499   8.093   0.655  0.0944 -0.2714 -0.4923
  570MOL0     C75124   3.586   8.026   0.767  0.1312  0.0716 -0.2597
  570MOL0     N75125   3.724   7.997   0.731  0.1798  0.2699  0.2205
  570MOL0     C75126   3.825   7.948   0.813  0.1804  0.0425 -0.0487
  570MOL0     C75127   3.931   7.925   0.735 -0.7329  0.4114  0.4931
  570MOL0     C75128   4.058   7.863   0.773  1.4493 -0.5208  0.2845
  570MOL0     C75129   4.181   7.957   0.771 -0.3299  0.6172 -0.3118
  570MOL0     C75130   4.209   8.041   0.643 -0.0065  0.1977  0.4630
  570MOL0     C75131   4.309   8.154   0.670 -0.2861 -0.1368  0.0834
  570MOL0     O75132   4.267   8.252   0.767  0.0080 -0.3951  0.2108
  570MOL0     C75133   4.149   8.321   0.758  0.0386 -0.3520  0.6008
  570MOL0     C75134   4.154   8.452   0.711  0.1587  0.1020 -0.7130
  570MOL0     C75135   4.045   8.533   0.706  0.2380 -0.5471  0.2074
  570MOL0     C75136   3.920   8.484   0.751  0.2387  0.0820  0.0459
  570MOL0     C75137   3.795   8.578   0.759 -0.8767  0.6030  0.0246
  570MOL0     O75138   3.671   8.525   0.770  0.0138  0.5235  0.2271
  570MOL0     C75139   3.558   8.605   0.764 -0.1456  1.3705 -0.0550
  570MOL0     C75140   3.529   8.700   0.661  0.0847  0.7420  0.0716
  570MOL0     C75141   3.400   8.759   0.671  0.9477  0.2396 -0.2237
  570MOL0     C75142   3.305   8.725   0.782  0.1972 -0.9452  0.5614
  570MOL0     O75143   3.178   8.770   0.798 -0.1333 -0.6354 -0.3206
  570MOL0     C75144   3.130   8.865   0.706 -0.4441 -0.1786 -1.5006
  570MOL0     C75145   2.977   8.859   0.710 -0.3791 -0.0658 -0.2888
  570MOL0     C75146   2.935   8.966   0.621 -0.2745 -0.0399  0.6045
  570MOL0     C75147   2.788   8.965   0.603  0.8919  0.4883 -0.0085
  570MOL0     C75148   2.720   9.065   0.511  0.1377  0.4245 -0.9952
  570MOL0     C75149   2.566   9.053   0.506 -0.1915  1.2193  0.3812
  570MOL0     C75150   2.509   9.174   0.455 -0.5907  0.3480  0.1507
  570MOL0     C75151   2.356   9.172   0.475 -0.2293  0.5225  0.2317
  570MOL0    Cl75152   2.283   9.335   0.430 -0.4367 -0.4860  0.3019
  570MOL0     C75153   3.346   8.636   0.876 -0.7713 -0.3640 -0.2903
  570MOL0     C75154   3.469   8.572   0.870  0.4974 -0.0586  0.4697
  570MOL0     O75155   3.822   8.697   0.755 -1.1057  0.5356  0.2734
  570MOL0     C75156   3.913   8.353   0.790  0.0344 -0.2801  0.0563
  570MOL0     C75157   4.027   8.269   0.796 -0.3780 -0.9627  0.5864
  570MOL0     N75158   3.897   7.953   0.607 -0.0901  0.5613  0.1456
  570MOL0     N75159   3.763   7.985   0.601 -0.8465  0.0774  0.2943
  570MOL0     C75160   2.775   8.487   0.164 -0.2964 -0.4725  0.6224
  570MOL0     C75161   2.681   8.544   0.071 -1.0687 -0.4847 -0.8945
  570MOL0     C75162   2.339   8.843  -0.039 -0.5401 -0.1161  0.8432
  570MOL0     C75163   2.222   8.912   0.007 -0.7090  0.2189  0.1836
  570MOL0     C75164   2.122   8.942  -0.085  0.9224 -0.1092  0.5024
  570MOL0     C75165   2.127   8.897  -0.218  1.0241 -0.1108  0.5840
  570MOL0     O75166   2.016   8.927  -0.289 -0.0675 -0.3005  0.8579
  570MOL0     C75167   2.000   8.895  -0.433 -0.4890 -0.9124  0.5606
  570MOL0     C75168   1.883   8.979  -0.481 -0.6954 -0.4259 -0.2152
  570MOL0     C75169   1.862   8.953  -0.635 -0.1510  0.3953  0.2405
  570MOL0     C75170   1.776   9.058  -0.695  0.5752  1.1288 -0.1919
  570MOL0     C75171   1.645   9.066  -0.631 -0.5872  0.4023 -0.8306
  570MOL0     C75172   1.540   9.078  -0.578  0.0699 -0.2583 -0.1471
  570MOL0     C75173   2.245   8.829  -0.260  0.6286 -0.1326 -0.4736
  570MOL0     C75174   2.344   8.805  -0.171  0.0934  0.0421 -0.5188
  570MOL0     H75175   2.663   8.851   0.228 -2.0632 -0.3550  0.0895
  570MOL0     H75176   2.819   8.764   0.372  0.4477 -1.2750  1.6680
  570MOL0     H75177   3.079   8.522   0.262  1.8189  0.9134  0.8216
  570MOL0     H75178   3.001   8.365   0.284  0.1613 -0.2743  1.4135
  570MOL0     H75179   3.052   8.377   0.533 -0.8769  1.4095  0.1890
  570MOL0     H75180   3.121   8.542   0.506  1.5196  0.9634 -1.8934
  570MOL0     H75181   3.296   8.471   0.379 -0.7005 -0.0519 -1.0768
  570MOL0     H75182   3.232   8.297   0.364  1.3102  0.7519 -2.2866
  570MOL0     H75183   3.319   8.440   0.614 -0.5704  1.7400 -2.4220
  570MOL0     H75184   3.267   8.265   0.605 -1.5936 -0.0920 -0.9672
  570MOL0     H75185   3.507   8.395   0.479 -0.7075  0.4234  0.4872
  570MOL0     H75186   3.458   8.234   0.434 -3.3603  0.3083 -0.1723
  570MOL0     H75187   3.499   8.298   0.726 -2.8247 -0.2278 -0.5933
  570MOL0     H75188   3.641   8.259   0.623  0.4046  0.1895  2.7529
  570MOL0     H75189   3.392   8.070   0.664 -0.5820  2.2307 -1.0904
  570MOL0     H75190   3.526   8.052   0.557  1.1055 -3.0424  0.8424
  570MOL0     H75191   3.535   7.933   0.793  0.0367 -1.1887 -4.2708
  570MOL0     H75192   3.600   8.101   0.846 -0.0130  2.3813 -2.3375
  570MOL0     H75193   3.833   7.924   0.918  0.1595 -2.2474 -0.5038
  570MOL0     H75194   4.075   7.779   0.705  0.7983  0.9861 -1.8428
  570MOL0     H75195   4.041   7.833   0.877 -0.5418  1.9345  0.7746
  570MOL0     H75196   4.268   7.893   0.786 -0.4177  0.7327  0.7985
  570MOL0     H75197   4.176   8.024   0.858  2.2558  0.9879 -0.3437
  570MOL0     H75198   4.250   7.974   0.567 -3.1596 -1.1799 -0.1652
  570MOL0     H75199   4.118   8.085   0.602 -1.5344 -3.7227 -0.7896
  570MOL0     H75200   4.330   8.199   0.572  1.4426  0.7822  0.8381
  570MOL0     H75201   4.401   8.111   0.712  1.3371  2.3203 -0.7766
  570MOL0     H75202   4.248   8.494   0.677 -0.0437  0.2204 -1.1377
  570MOL0     H75203   4.049   8.636   0.673  2.1843  0.3370  2.8055
  570MOL0     H75204   3.605   8.715   0.584 -1.1034  0.8273 -1.1134
  570MOL0     H75205   3.373   8.812   0.580  2.1278 -2.4677 -2.2819
  570MOL0     H75206   3.167   8.835   0.607 -0.0214 -0.8736 -1.1401
  570MOL0     H75207   3.176   8.961   0.733 -1.0546 -0.0011 -1.0812
  570MOL0     H75208   2.939   8.878   0.810  0.8882 -0.8623  0.3725
  570MOL0     H75209   2.950   8.758   0.679 -1.4870  0.2463 -0.3727
  570MOL0     H75210   2.991   8.961   0.527 -2.7699 -0.7129 -0.9562
  570MOL0     H75211   2.969   9.063   0.660  1.9237  0.3463 -1.9784
  570MOL0     H75212   2.765   8.860   0.585  0.9213  0.2019  1.4967
  570MOL0     H75213   2.754   8.985   0.705 -1.8942 -3.3740  0.0408
  570MOL0     H75214   2.762   9.050   0.411  0.9761  1.1933 -0.7771
  570MOL0     H75215   2.746   9.166   0.545 -0.0239  0.7279 -1.7767
  570MOL0     H75216   2.534   9.034   0.608 -0.5994  0.1625  0.0620
  570MOL0     H75217   2.540   8.969   0.442  1.2356 -1.5865  3.2149
  570MOL0     H75218   2.554   9.262   0.503 -2.1182  0.9957  0.4684
  570MOL0     H75219   2.520   9.186   0.347  0.6007  1.1166  0.3434
  570MOL0     H75220   2.335   9.145   0.579  1.3430 -2.3835 -0.1117
  570MOL0     H75221   2.297   9.104   0.414  1.1352 -2.0482  1.6074
  570MOL0     H75222   3.266   8.609   0.944 -1.1781 -5.0841 -2.2223
  570MOL0     H75223   3.498   8.497   0.943 -1.4300 -1.5194 -0.1662
  570MOL0     H75224   3.825   8.323   0.846 -0.4887 -2.5049 -1.7962
  570MOL0     H75225   3.999   8.171   0.836 -2.1647 -0.6382  0.1998
  570MOL0     H75226   2.795   8.380   0.158 -1.3274 -0.8000  2.2633
  570MOL0     H75227   2.650   8.492  -0.019  0.1074  0.2135 -1.7459
  570MOL0     H75228   2.212   8.935   0.113 -0.0694 -1.7212  0.7069
  570MOL0     H75229   2.035   9.001  -0.056 -0.0823 -1.1554 -0.3302
  570MOL0     H75230   1.972   8.789  -0.445 -0.5416 -1.0012  1.4622
  570MOL0     H75231   2.091   8.922  -0.488 -1.7857  0.1000 -1.1789
  570MOL0     H75232   1.792   8.965  -0.422 -0.8448  2.7397  0.5235
  570MOL0     H75233   1.902   9.087  -0.477  1.0610 -0.6812 -0.7426
  570MOL0     H75234   1.803   8.861  -0.645 -1.5048  1.2440  0.3208
  570MOL0     H75235   1.955   8.967  -0.691  0.2626  3.5654  1.5248
  570MOL0     H75236   1.827   9.154  -0.702  2.0169  0.3314 -1.3014
  570MOL0     H75237   1.765   9.026  -0.799  3.3825 -2.2574  0.3909
  570MOL0     H75238   1.444   9.094  -0.533 -0.0669  0.5638 -0.7020
  570MOL0     H75239   2.255   8.811  -0.367 -0.2928  0.8503 -0.7433
  570MOL0     H75240   2.433   8.753  -0.205  0.5496 -1.8703  3.1036
  571MOL0     O75241   2.135   9.522   7.545  1.2164 -0.2413 -0.2545
  571MOL0     C75242   2.231   9.553   7.472  0.8134 -0.6017  0.2056
  571MOL0     O75243   2.227   9.600   7.336  0.1982 -0.2212  0.5388
  571MOL0     C75244   2.111   9.615   7.266  0.6933  0.6769  0.1064
  571MOL0     C75245   1.988   9.540   7.277  1.2115  0.4694 -0.0153
  571MOL0     C75246   1.873   9.567   7.199 -0.3349  0.6122 -0.1022
  571MOL0     C75247   1.875   9.671   7.106  0.0274 -1.3057  0.2448
  571MOL0     O75248   1.765   9.690   7.020  0.7240 -0.4779 -0.4520
  571MOL0     C75249   1.779   9.786   6.908 -0.0802  0.0503 -0.3503
  571MOL0     C75250   1.675   9.752   6.807  0.0894  0.4538 -0.5454
  571MOL0     C75251   1.539   9.779   6.873  1.4230  0.1200 -0.7226
  571MOL0     C75252   1.430   9.734   6.777 -0.6416 -0.2106  0.2441
  571MOL0     C75253   1.293   9.715   6.852  0.7631 -0.9861 -0.0218
  571MOL0     C75254   1.234   9.575   6.850 -0.6780 -1.0534 -0.2162
  571MOL0     C75255   1.097   9.575   6.918  0.2675 -0.5161 -0.6383
  571MOL0     C75256   1.107   9.595   7.074 -0.0447  0.0754 -0.0542
  571MOL0     N75257   0.972   9.599   7.131  0.6912  0.8135 -0.4435
  571MOL0     C75258   0.856   9.526   7.109  0.5017  0.3953  0.4847
  571MOL0     C75259   0.755   9.589   7.164 -0.6251 -0.3991 -0.3275
  571MOL0     C75260   0.615   9.546   7.143 -0.4872 -0.1174 -0.0537
  571MOL0     C75261   0.566   9.435   7.233 -0.8495  0.1605  0.3941
  571MOL0     C75262   0.417   9.436   7.272  0.2592  0.0970  1.2388
  571MOL0     C75263   0.373   9.306   7.335  0.3033 -0.6120  0.0705
  571MOL0     O75264   0.230   9.308   7.366 -0.0051 -0.3198 -0.0087
  571MOL0     C75265   0.180   9.194   7.430 -0.2509 -0.3190  1.2701
  571MOL0     C75266   0.253   9.083   7.455 -1.3527 -0.0162 -0.0197
  571MOL0     C75267   0.199   8.974   7.515 -0.2366 -0.1877  0.3497
  571MOL0     C75268   0.068   8.986   7.563  0.1478 -0.1068 -0.1214
  571MOL0     C75269   0.013   8.873   7.634 -0.9440 -0.3797 -0.5470
  571MOL0     O75270  -0.119   8.874   7.655 -0.0528 -0.7684  0.0175
  571MOL0     C75271  -0.186   8.775   7.724  0.0140 -0.3179  0.1290
  571MOL0     C75272  -0.308   8.744   7.672 -0.3106 -0.0797  0.1072
  571MOL0     C75273  -0.388   8.641   7.730  0.5293 -0.1133 -0.4919
  571MOL0     C75274  -0.339   8.561   7.842  0.6582  0.0796 -0.3519
  571MOL0     O75275  -0.413   8.462   7.899 -0.2882  0.9938  0.1510
  571MOL0     C75276  -0.497   8.497   8.001 -0.3319  0.4494  0.0134
  571MOL0     C75277  -0.567   8.377   8.054 -1.0513 -0.0704 -0.2790
  571MOL0     C75278  -0.691   8.348   7.962 -0.1516  0.7712 -0.3193
  571MOL0     C75279  -0.739   8.212   8.005  0.1219  0.8078  0.5903
  571MOL0     C75280  -0.848   8.147   7.917  0.9810 -0.2996  0.3047
  571MOL0     C75281  -0.906   8.015   7.967  0.8095  0.1748  0.2036
  571MOL0     C75282  -1.027   7.973   7.873 -0.7422 -0.5880  0.7362
  571MOL0     C75283  -1.065   7.831   7.901  0.0650  0.3038 -0.8817
  571MOL0    Cl75284  -1.162   7.834   8.047 -0.1621  0.2456  0.0153
  571MOL0     C75285  -0.221   8.602   7.895  0.1550  0.7513  0.1329
  571MOL0     C75286  -0.143   8.698   7.834 -0.3849  0.0430  0.6087
  571MOL0     O75287   0.086   8.774   7.652  0.0215  0.0702 -0.2778
  571MOL0     C75288  -0.011   9.101   7.531  0.6113  0.5028 -0.0640
  571MOL0     C75289   0.047   9.204   7.455 -0.3111  0.0686  1.0035
  571MOL0     N75290   0.810   9.700   7.225  0.4658  0.7465 -0.8145
  571MOL0     N75291   0.929   9.712   7.198  0.9413 -0.2936 -0.3990
  571MOL0     C75292   1.996   9.752   7.100 -0.5721  0.4889 -0.4477
  571MOL0     C75293   2.106   9.718   7.177 -0.6298 -0.6942 -0.2201
  571MOL0     C75294   2.358   9.514   7.527 -1.8986  0.5093 -0.2887
  571MOL0     C75295   2.371   9.498   7.664 -0.5493  0.9359 -0.4878
  571MOL0     C75296   2.498   9.475   7.721 -0.4782 -0.3859  0.1911
  571MOL0     C75297   2.610   9.465   7.641  0.0935 -0.4327  0.6515
  571MOL0     O75298   2.738   9.442   7.691  0.2514  0.1813 -0.2460
  571MOL0     C75299   2.776   9.522   7.802 -0.1678 -0.7016 -0.4235
  571MOL0     C75300   2.925   9.512   7.817 -0.2206  0.0985 -0.5437
  571MOL0     C75301   2.999   9.606   7.716  0.1276  0.0171 -0.3770
  571MOL0     C75302   3.141   9.610   7.764  0.2410 -0.5039 -0.1403
  571MOL0     C75303   3.223   9.485   7.750 -0.0573 -0.0923  0.4281
  571MOL0     C75304   3.287   9.382   7.727  0.8162 -0.7900  0.0973
  571MOL0     C75305   2.600   9.485   7.507 -0.0825 -0.2862 -0.1929
  571MOL0     C75306   2.479   9.502   7.451 -0.6251 -0.3714  0.2606
  571MOL0     H75307   1.976   9.455   7.344 -2.4781  1.5493  0.9323
  571MOL0     H75308   1.777   9.516   7.208 -0.7681  1.4847  0.4157
  571MOL0     H75309   1.875   9.786   6.856  0.2870 -0.2209  0.3161
  571MOL0     H75310   1.775   9.886   6.951 -0.8855 -0.0781 -0.1037
  571MOL0     H75311   1.685   9.651   6.766 -2.9487  0.7135 -2.2494
  571MOL0     H75312   1.686   9.806   6.712 -0.2461 -0.8851 -1.3876
  571MOL0     H75313   1.536   9.887   6.894  0.1196 -0.2247  1.1212
  571MOL0     H75314   1.524   9.719   6.963 -1.1690 -0.4272 -1.4423
  571MOL0     H75315   1.421   9.809   6.697  1.1625  0.3513  0.5068
  571MOL0     H75316   1.463   9.643   6.726  0.5266 -0.1865  0.9215
  571MOL0     H75317   1.229   9.790   6.803  0.4524 -1.6975 -0.7215
  571MOL0     H75318   1.299   9.754   6.954  1.0392 -2.8378  0.7049
  571MOL0     H75319   1.300   9.503   6.900 -1.1899  0.2669  2.5653
  571MOL0     H75320   1.219   9.546   6.746  0.1012 -3.1405  0.2074
  571MOL0     H75321   1.031   9.654   6.880  0.0179 -1.0209 -1.2759
  571MOL0     H75322   1.061   9.475   6.889  1.2945 -0.6019 -1.7076
  571MOL0     H75323   1.160   9.688   7.095  0.1674  0.4998 -2.1969
  571MOL0     H75324   1.151   9.507   7.122 -0.0995  1.2521  2.2807
  571MOL0     H75325   0.841   9.433   7.054 -3.1028 -0.1151  2.0534
  571MOL0     H75326   0.613   9.511   7.039  0.8805  0.7851 -0.4081
  571MOL0     H75327   0.545   9.629   7.138  1.1539  1.3527  0.4258
  571MOL0     H75328   0.633   9.425   7.318  0.8701  2.4760 -0.5619
  571MOL0     H75329   0.585   9.348   7.170 -2.1043  1.8248 -2.5375
  571MOL0     H75330   0.400   9.511   7.351  2.8905 -0.3586  2.3501
  571MOL0     H75331   0.362   9.466   7.183  3.4120  1.8742 -0.2869
  571MOL0     H75332   0.420   9.290   7.433 -0.2659 -2.2486  0.1065
  571MOL0     H75333   0.396   9.226   7.264  2.2603 -1.1129  1.2116
  571MOL0     H75334   0.349   9.064   7.407 -2.1677 -2.1048 -0.9581
  571MOL0     H75335   0.263   8.893   7.547  1.4830  1.9235  2.6871
  571MOL0     H75336  -0.341   8.798   7.583 -0.3658 -1.8309 -0.9875
  571MOL0     H75337  -0.489   8.623   7.694  0.8522 -1.1144 -0.9102
  571MOL0     H75338  -0.568   8.573   7.966 -1.0330  1.4788  3.3765
  571MOL0     H75339  -0.440   8.536   8.086  0.8417 -0.3239 -0.3834
  571MOL0     H75340  -0.603   8.410   8.152  0.4355  3.4015 -0.7658
  571MOL0     H75341  -0.496   8.294   8.056  0.0033  0.7969 -0.6727
  571MOL0     H75342  -0.657   8.347   7.859 -0.0152  0.0033 -0.2713
  571MOL0     H75343  -0.776   8.415   7.980 -1.4784 -0.5668 -1.3615
  571MOL0     H75344  -0.657   8.140   8.008  0.1138  0.7260 -0.5385
  571MOL0     H75345  -0.782   8.229   8.104  0.1487  1.5555  0.4821
  571MOL0     H75346  -0.817   8.129   7.814  2.4818  0.5709  0.5732
  571MOL0     H75347  -0.928   8.221   7.907 -0.3473 -1.6182  0.7061
  571MOL0     H75348  -0.947   8.030   8.067 -0.3382  0.6998 -0.3229
  571MOL0     H75349  -0.827   7.939   7.967 -1.4423 -2.3326 -0.6736
  571MOL0     H75350  -1.116   8.035   7.882  0.6643  2.0384 -1.8898
  571MOL0     H75351  -0.992   7.976   7.770 -1.0852  2.3594  0.6473
  571MOL0     H75352  -0.977   7.767   7.918 -1.8347 -2.7024 -1.6238
  571MOL0     H75353  -1.123   7.795   7.816 -0.6157  2.5051 -1.3969
  571MOL0     H75354  -0.188   8.564   7.991 -0.4160 -1.7758 -0.6037
  571MOL0     H75355  -0.046   8.717   7.879  0.1578 -2.6630  0.7550
  571MOL0     H75356  -0.117   9.108   7.551  0.0573 -0.6456 -2.2578
  571MOL0     H75357  -0.004   9.293   7.419 -0.2935  0.0813  1.0107
  571MOL0     H75358   2.011   9.821   7.017  1.5466 -2.4745 -2.7309
  571MOL0     H75359   2.194   9.780   7.165 -1.1729 -0.2640 -2.6189
  571MOL0     H75360   2.283   9.498   7.727 -0.3197 -1.4602 -0.0645
  571MOL0     H75361   2.509   9.452   7.826 -2.9655  0.1024  0.6161
  571MOL0     H75362   2.731   9.486   7.896 -0.8232  1.8022  0.2775
  571MOL0     H75363   2.756   9.626   7.775  1.2897 -0.3563 -0.2507
  571MOL0     H75364   2.955   9.531   7.920 -1.9057 -0.9993  0.1972
  571MOL0     H75365   2.947   9.406   7.803  0.1799  0.0642  0.3314
  571MOL0     H75366   2.963   9.708   7.728 -0.1139 -0.2774  1.8114
  571MOL0     H75367   2.991   9.578   7.610 -0.3394  1.2366 -0.6829
  571MOL0     H75368   3.193   9.697   7.723  0.0258  1.5271  3.5101
  571MOL0     H75369   3.134   9.624   7.872 -1.2193  0.6467 -0.3538
  571MOL0     H75370   3.354   9.301   7.708 -2.1586 -2.7954 -2.9001
  571MOL0     H75371   2.694   9.480   7.452  0.1402  1.6796 -0.0655
  571MOL0     H75372   2.479   9.523   7.344 -0.7407  0.0913  0.3507
  572MOL0     O75373  10.029  10.845   5.474 -0.4411 -0.0414  0.1821
  572MOL0     C75374  10.061  10.751   5.543  0.7547  0.0944 -0.3345
  572MOL0     O75375   9.977  10.665   5.616  0.0832  0.3300  0.7870
  572MOL0     C75376   9.850  10.673   5.577  0.5080 -0.8444  0.0551
  572MOL0     C75377   9.800  10.586   5.487 -0.1674  1.2008 -0.3820
  572MOL0     C75378   9.672  10.601   5.427 -1.2765  0.4272 -0.1108
  572MOL0     C75379   9.587  10.696   5.483 -0.1957  0.3179 -0.1759
  572MOL0     O75380   9.452  10.713   5.437 -0.7397  0.3951  0.1060
  572MOL0     C75381   9.409  10.851   5.432  0.6085 -0.0551 -0.5544
  572MOL0     C75382   9.292  10.858   5.323  0.2262 -0.2745 -0.1519
  572MOL0     C75383   9.176  10.775   5.359 -0.6285 -0.2847  0.7932
  572MOL0     C75384   9.047  10.847   5.300  0.4076 -0.4175 -0.1556
  572MOL0     C75385   9.064  10.865   5.150  0.2921  0.0964  1.2339
  572MOL0     C75386   8.934  10.900   5.073 -0.4441  0.3448  0.7768
  572MOL0     C75387   8.873  11.031   5.109 -0.4884 -0.2356  0.0415
  572MOL0     C75388   8.738  11.057   5.057  0.1705 -0.5467  0.8173
  572MOL0     N75389   8.739  11.086   4.912  0.0435 -1.2881  0.2081
  572MOL0     C75390   8.737  10.987   4.817 -0.3624 -0.7209 -0.4005
  572MOL0     C75391   8.728  11.057   4.704  1.0258  0.7036  1.3540
  572MOL0     C75392   8.690  10.981   4.576  0.3233 -0.0357  0.2097
  572MOL0     C75393   8.550  10.928   4.583 -0.0151  0.2698  0.8787
  572MOL0     C75394   8.443  11.032   4.589  0.4061 -0.2989  0.1516
  572MOL0     C75395   8.311  10.972   4.537 -1.1590 -0.4510 -0.3646
  572MOL0     O75396   8.233  11.081   4.485  0.2502 -0.2573 -0.2198
  572MOL0     C75397   8.108  11.071   4.428  0.0435 -0.1101  0.3960
  572MOL0     C75398   8.043  11.183   4.380 -0.1011 -0.0778  1.2635
  572MOL0     C75399   7.916  11.185   4.323 -0.0588 -0.6321 -0.7561
  572MOL0     C75400   7.843  11.064   4.308 -0.0765 -0.2594 -0.0630
  572MOL0     C75401   7.704  11.067   4.240 -0.8272  0.2281 -0.2772
  572MOL0     O75402   7.664  11.191   4.200  0.2185  0.7886  0.0062
  572MOL0     C75403   7.535  11.196   4.149 -0.1709  0.0157 -0.2433
  572MOL0     C75404   7.529  11.251   4.020  0.0888 -0.6206 -0.2166
  572MOL0     C75405   7.404  11.273   3.956  0.4514  0.8802 -0.3521
  572MOL0     C75406   7.285  11.232   4.014 -0.1414  0.1099 -0.4480
  572MOL0     O75407   7.177  11.282   3.957 -0.2665 -0.8652 -0.0611
  572MOL0     C75408   7.046  11.224   3.964  0.1304  1.0284  0.5441
  572MOL0     C75409   6.936  11.329   3.942 -0.6204 -0.4549 -0.2348
  572MOL0     C75410   6.804  11.258   3.979 -0.6937 -0.2383 -0.0229
  572MOL0     C75411   6.691  11.362   3.987 -0.1160 -0.2969 -0.0440
  572MOL0     C75412   6.570  11.287   4.041  0.7937 -0.4513 -0.1521
  572MOL0     C75413   6.462  11.383   4.089  1.0347 -0.7244  0.1720
  572MOL0     C75414   6.324  11.307   4.094  0.7734  0.2177 -0.2498
  572MOL0     C75415   6.219  11.408   4.138  0.1762  0.7715 -0.1771
  572MOL0    Cl75416   6.202  11.532   4.011  0.3372 -0.4515  0.0502
  572MOL0     C75417   7.293  11.161   4.137 -0.5608  0.6569  0.0183
  572MOL0     C75418   7.411  11.147   4.211  0.3729 -0.7444 -0.1118
  572MOL0     O75419   7.629  10.967   4.245 -0.4785 -0.7288  0.5511
  572MOL0     C75420   7.906  10.945   4.356 -0.4392 -0.5016  0.4398
  572MOL0     C75421   8.034  10.951   4.414  0.1347 -0.7808 -0.2624
  572MOL0     N75422   8.745  11.202   4.731  0.3701  0.1846  0.4922
  572MOL0     N75423   8.752  11.207   4.855  0.2215  0.1944 -0.2209
  572MOL0     C75424   9.632  10.767   5.595  0.0252 -0.2898  0.1350
  572MOL0     C75425   9.764  10.763   5.643  0.0517  0.5788 -0.4272
  572MOL0     C75426  10.201  10.702   5.532 -0.4744 -0.2076  0.1606
  572MOL0     C75427  10.233  10.580   5.588  0.0398 -0.0486  0.0973
  572MOL0     C75428  10.361  10.533   5.571  0.3838  0.1518  0.7281
  572MOL0     C75429  10.463  10.594   5.501  0.7261 -0.0319 -0.1496
  572MOL0     O75430  10.594  10.553   5.517  0.2435 -0.3721  0.2407
  572MOL0     C75431  10.677  10.563   5.400 -0.4871  0.8235  0.6335
  572MOL0     C75432  10.815  10.580   5.459 -0.2055  0.1174 -0.2053
  572MOL0     C75433  10.844  10.733   5.479  0.2137  0.1222 -0.0508
  572MOL0     C75434  10.979  10.763   5.547  0.6554 -0.0721  0.6122
  572MOL0     C75435  11.093  10.727   5.455  0.5018  0.0283  0.8004
  572MOL0     C75436  11.196  10.708   5.397 -0.3288 -0.0558  0.0127
  572MOL0     C75437  10.430  10.712   5.446 -0.0362 -0.5071 -0.0914
  572MOL0     C75438  10.301  10.770   5.449  0.1762  0.3779  0.3068
  572MOL0     H75439   9.878  10.519   5.454  0.7788  2.4590 -0.7423
  572MOL0     H75440   9.637  10.527   5.355 -2.3787  1.9879 -1.2349
  572MOL0     H75441   9.490  10.922   5.413 -0.3027  1.4731  0.9652
  572MOL0     H75442   9.361  10.883   5.525 -0.2114  1.7687 -1.5492
  572MOL0     H75443   9.326  10.810   5.230 -0.4489  1.1982 -1.1997
  572MOL0     H75444   9.274  10.965   5.310 -1.0040 -0.3591  0.7494
  572MOL0     H75445   9.180  10.765   5.468  1.3185 -0.5631  0.7212
  572MOL0     H75446   9.179  10.676   5.312 -0.5353 -0.4365  1.1159
  572MOL0     H75447   8.964  10.780   5.325 -0.8354  1.0707 -0.1533
  572MOL0     H75448   9.018  10.936   5.357 -3.1471 -1.4232 -0.1263
  572MOL0     H75449   9.122  10.790   5.096 -1.0301 -1.2991  1.6677
  572MOL0     H75450   9.130  10.952   5.140  1.8839 -1.1782  0.1584
  572MOL0     H75451   8.859  10.825   5.098 -3.3099  2.5716 -0.5008
  572MOL0     H75452   8.952  10.892   4.965  3.4040 -0.8974  1.3633
  572MOL0     H75453   8.854  11.040   5.217  1.6136  1.4865  0.3507
  572MOL0     H75454   8.931  11.120   5.083 -0.3166 -0.2932  0.2209
  572MOL0     H75455   8.685  11.139   5.105 -1.7473  1.2721 -3.7965
  572MOL0     H75456   8.679  10.972   5.092  3.1316 -1.4838  4.1365
  572MOL0     H75457   8.722  10.881   4.834 -0.7879 -0.8179 -1.3155
  572MOL0     H75458   8.758  10.895   4.570 -1.0016 -1.2249  1.4826
  572MOL0     H75459   8.690  11.049   4.491 -1.0648  1.6848  1.5045
  572MOL0     H75460   8.538  10.849   4.657  2.1160 -0.9829 -0.0079
  572MOL0     H75461   8.543  10.864   4.495 -0.0161 -0.6971  1.5733
  572MOL0     H75462   8.425  11.062   4.693 -1.8143 -1.1745  0.0733
  572MOL0     H75463   8.471  11.124   4.536 -0.7280  0.2637  0.4946
  572MOL0     H75464   8.262  10.917   4.617  0.8794 -1.5131  0.2238
  572MOL0     H75465   8.315  10.892   4.462 -2.0575 -1.2003  0.3724
  572MOL0     H75466   8.093  11.278   4.393 -0.6247  0.3301  0.3005
  572MOL0     H75467   7.877  11.281   4.291  2.2331  0.5406 -0.2199
  572MOL0     H75468   7.625  11.293   3.990 -0.1798  0.4035  0.2908
  572MOL0     H75469   7.406  11.312   3.854 -0.8573 -0.8537 -1.0897
  572MOL0     H75470   7.042  11.181   4.064  3.3421 -1.1510 -0.1094
  572MOL0     H75471   7.035  11.134   3.902  1.7736 -0.3767  2.1920
  572MOL0     H75472   6.935  11.371   3.841  1.6471  0.6991  0.1556
  572MOL0     H75473   6.947  11.412   4.012 -1.4414  0.3628 -1.0351
  572MOL0     H75474   6.805  11.224   4.083  1.6771 -0.7032 -0.1259
  572MOL0     H75475   6.792  11.175   3.908  0.6522 -2.2611  1.9454
  572MOL0     H75476   6.728  11.446   4.046 -0.3716 -0.0172 -0.2797
  572MOL0     H75477   6.666  11.397   3.886 -0.2451 -0.3094 -0.0159
  572MOL0     H75478   6.594  11.222   4.126 -0.0969  2.2519  2.3592
  572MOL0     H75479   6.539  11.228   3.955  0.1909 -1.0479  0.4580
  572MOL0     H75480   6.459  11.482   4.041 -0.6022 -0.6875  0.2865
  572MOL0     H75481   6.489  11.406   4.193  3.3834  0.2174 -0.5757
  572MOL0     H75482   6.297  11.270   3.995 -0.1949  1.2474 -0.3908
  572MOL0     H75483   6.320  11.225   4.167 -0.6841  0.9884  0.5946
  572MOL0     H75484   6.232  11.452   4.237  1.2676 -0.8366  0.4198
  572MOL0     H75485   6.126  11.350   4.147 -2.4507  4.4858 -0.7185
  572MOL0     H75486   7.209  11.115   4.189  2.9804 -1.2132  4.7794
  572MOL0     H75487   7.400  11.109   4.312  0.1444  2.0241  1.0000
  572MOL0     H75488   7.856  10.850   4.344  0.7935 -1.5616  2.8884
  572MOL0     H75489   8.083  10.860   4.447  1.4413 -0.6409 -1.6702
  572MOL0     H75490   9.556  10.812   5.658 -0.4592  0.1280 -0.7343
  572MOL0     H75491   9.789  10.824   5.730 -0.2045 -2.0523  1.6441
  572MOL0     H75492  10.166  10.517   5.647  2.1226 -0.8070  1.7818
  572MOL0     H75493  10.395  10.445   5.623 -0.1343 -0.6671 -0.2869
  572MOL0     H75494  10.658  10.648   5.334  0.8259 -0.3072 -1.3077
  572MOL0     H75495  10.673  10.466   5.349 -0.0435 -1.0843  3.9063
  572MOL0     H75496  10.822  10.528   5.555  2.4776 -0.1628 -0.4738
  572MOL0     H75497  10.893  10.539   5.394  0.2215 -1.2312  1.1048
  572MOL0     H75498  10.768  10.770   5.548 -0.3195  3.7386 -2.3223
  572MOL0     H75499  10.842  10.796   5.390  0.7572  1.7679  1.0620
  572MOL0     H75500  10.984  10.870   5.572 -2.6698  0.0127  1.4281
  572MOL0     H75501  10.975  10.708   5.641 -1.1315 -0.0852  0.5691
  572MOL0     H75502  11.288  10.672   5.357 -0.9800 -1.0901 -0.6116
  572MOL0     H75503  10.509  10.761   5.390  1.2092  0.5324  2.4148
  572MOL0     H75504  10.274  10.851   5.383  1.5695 -0.6333 -1.6050
  573MOL0     O75505   4.947   0.453   8.951 -0.0108  0.1956  0.2343
  573MOL0     C75506   4.951   0.376   8.856 -0.6281 -0.0129  0.0239
  573MOL0     O75507   5.059   0.311   8.805  0.3124 -0.6279  0.2375
  573MOL0     C75508   5.181   0.345   8.859  0.7525  0.2621  0.4895
  573MOL0     C75509   5.265   0.244   8.915  0.8815 -0.3774  0.2321
  573MOL0     C75510   5.385   0.279   8.959 -0.1945  0.0477  0.2217
  573MOL0     C75511   5.423   0.415   8.972  0.4715  0.1170 -0.1373
  573MOL0     O75512   5.534   0.455   9.040  0.0456 -0.2039  0.1121
  573MOL0     C75513   5.651   0.378   9.030 -0.6430  0.1790  0.0064
  573MOL0     C75514   5.771   0.446   9.094  0.3292  0.1670  0.1953
  573MOL0     C75515   5.897   0.380   9.034 -1.0714  0.3038 -0.5422
  573MOL0     C75516   6.020   0.433   9.126  0.4618 -0.0272  0.0442
  573MOL0     C75517   6.155   0.400   9.062 -0.0002  0.9730  0.6106
  573MOL0     C75518   6.278   0.452   9.146 -0.5511 -0.4505  0.2253
  573MOL0     C75519   6.324   0.357   9.252  0.0597  0.1024  0.3604
  573MOL0     C75520   6.406   0.240   9.193  0.0801 -0.0347 -0.4289
  573MOL0     N75521   6.519   0.294   9.119 -0.3183 -0.5769 -0.6299
  573MOL0     C75522   6.525   0.292   8.978  0.7809 -0.5727  0.1333
  573MOL0     C75523   6.660   0.307   8.958 -0.2917  0.0368  0.2036
  573MOL0     C75524   6.699   0.284   8.816 -0.3286 -0.3833  0.3237
  573MOL0     C75525   6.773   0.155   8.791  0.4247  0.5513  0.6662
  573MOL0     C75526   6.699   0.021   8.832 -0.0147 -0.1591 -0.4565
  573MOL0     C75527   6.563   0.001   8.759 -0.1473 -0.3934  0.5654
  573MOL0     O75528   6.448   0.041   8.831  0.4314  0.0265 -0.1517
  573MOL0     C75529   6.327   0.058   8.764  0.2058 -0.6964  0.0583
  573MOL0     C75530   6.209   0.062   8.841 -0.2850 -1.2800  0.6471
  573MOL0     C75531   6.081   0.092   8.790 -0.1575  0.2017  0.2606
  573MOL0     C75532   6.067   0.133   8.659 -0.1518 -0.3378 -0.0225
  573MOL0     C75533   5.933   0.154   8.598  0.4347 -0.3279  0.0515
  573MOL0     O75534   5.833   0.177   8.691 -0.1314 -0.5310 -0.4159
  573MOL0     C75535   5.709   0.163   8.654  0.7915 -0.0771  0.7138
  573MOL0     C75536   5.652   0.238   8.548  0.6644 -0.1495  0.7421
  573MOL0     C75537   5.517   0.231   8.512 -0.4572 -1.0665 -0.3710
  573MOL0     C75538   5.434   0.149   8.580  0.4027 -0.2156 -1.0105
  573MOL0     O75539   5.290   0.148   8.569 -0.1520  0.2850 -0.2960
  573MOL0     C75540   5.240   0.234   8.460 -0.2269 -0.1269  0.5381
  573MOL0     C75541   5.224   0.387   8.507  0.4338  0.2302  0.2704
  573MOL0     C75542   5.225   0.473   8.374 -0.5079  0.4935  0.7130
  573MOL0     C75543   5.101   0.439   8.292  0.2048  0.4641  0.5323
  573MOL0     C75544   5.076   0.530   8.175  0.2584  0.1509  0.3469
  573MOL0     C75545   4.941   0.509   8.106 -0.4518  0.0601 -0.0991
  573MOL0     C75546   4.945   0.381   8.013 -0.2214 -1.2944  0.4773
  573MOL0     C75547   4.804   0.350   7.967 -0.5742  0.0135 -0.2439
  573MOL0    Cl75548   4.750   0.480   7.859 -0.0791 -0.4809 -0.5961
  573MOL0     C75549   5.480   0.085   8.691 -0.2656  0.1568  0.8673
  573MOL0     C75550   5.615   0.083   8.722  0.3531 -0.4765  0.7392
  573MOL0     O75551   5.911   0.143   8.477  0.0550 -0.5349  0.1803
  573MOL0     C75552   6.181   0.127   8.578  0.0106 -0.6687  0.2066
  573MOL0     C75553   6.310   0.091   8.631 -0.6482  0.3636 -1.1400
  573MOL0     N75554   6.730   0.328   9.075  0.4847 -0.2112 -0.2262
  573MOL0     N75555   6.645   0.314   9.175  0.1340  0.0078 -0.3408
  573MOL0     C75556   5.337   0.517   8.931  0.0879  0.5196 -0.5771
  573MOL0     C75557   5.223   0.474   8.862 -0.6075 -0.3167  0.1191
  573MOL0     C75558   4.826   0.369   8.793  0.7290  0.5391 -0.1602
  573MOL0     C75559   4.702   0.379   8.859  0.2711  0.3618  0.4161
  573MOL0     C75560   4.572   0.390   8.792  0.0522 -0.3867  0.8644
  573MOL0     C75561   4.575   0.389   8.650  0.4467 -0.2011  0.2050
  573MOL0     O75562   4.464   0.404   8.572  0.8600  0.2613 -0.4222
  573MOL0     C75563   4.329   0.414   8.636 -0.1011 -0.3137  0.7756
  573MOL0     C75564   4.222   0.387   8.534  0.2168  1.1787 -0.0306
  573MOL0     C75565   4.085   0.354   8.598 -0.8503 -0.2262 -0.2000
  573MOL0     C75566   3.977   0.343   8.491  0.1349  0.1096  0.7842
  573MOL0     C75567   3.982   0.211   8.422 -0.2922 -0.4637 -0.2952
  573MOL0     C75568   3.979   0.109   8.357 -0.4176  0.3555 -0.3355
  573MOL0     C75569   4.700   0.378   8.587 -0.3300  0.3253  0.1140
  573MOL0     C75570   4.827   0.360   8.655  0.7994 -0.3717 -0.2610
  573MOL0     H75571   5.239   0.139   8.909  2.0403 -0.6105 -1.5137
  573MOL0     H75572   5.453   0.198   8.985 -2.4236 -2.5697 -1.5363
  573MOL0     H75573   5.671   0.343   8.929  0.2260 -1.2011  0.6194
  573MOL0     H75574   5.649   0.282   9.084  1.4957  0.6273  1.0232
  573MOL0     H75575   5.777   0.437   9.203 -2.3561  1.6416  0.5588
  573MOL0     H75576   5.764   0.555   9.080  2.0280  0.6384  2.5132
  573MOL0     H75577   5.893   0.421   8.933  0.9136 -0.4491 -0.9749
  573MOL0     H75578   5.892   0.270   9.033  2.5548  0.0299 -0.2814
  573MOL0     H75579   6.012   0.539   9.152  2.9042 -0.0096  0.9866
  573MOL0     H75580   6.021   0.380   9.221  1.0943  1.6681  1.0077
  573MOL0     H75581   6.157   0.457   8.969 -2.4379 -1.0784 -0.8097
  573MOL0     H75582   6.165   0.292   9.043 -1.7765  1.0472 -0.9617
  573MOL0     H75583   6.241   0.551   9.177  0.6589  0.7400 -1.8613
  573MOL0     H75584   6.362   0.473   9.079  0.1613 -0.3368  1.1376
  573MOL0     H75585   6.397   0.418   9.306  1.8707  0.4804 -2.3027
  573MOL0     H75586   6.236   0.327   9.309  0.5332 -2.3601 -0.1091
  573MOL0     H75587   6.334   0.185   9.131 -1.3339 -0.4577  1.4878
  573MOL0     H75588   6.430   0.185   9.285  0.2472  2.9776  1.4698
  573MOL0     H75589   6.445   0.270   8.907  1.0012 -0.5946 -0.1063
  573MOL0     H75590   6.769   0.362   8.784 -1.5621  0.6214 -0.0086
  573MOL0     H75591   6.612   0.292   8.751 -1.0517 -2.8065  0.9168
  573MOL0     H75592   6.867   0.153   8.847 -0.0275  1.0500  1.4642
  573MOL0     H75593   6.802   0.156   8.686 -0.4095  4.0346  0.3261
  573MOL0     H75594   6.769  -0.056   8.797 -0.7258 -0.4327 -1.3152
  573MOL0     H75595   6.697   0.021   8.941  0.9055  0.2101 -0.4269
  573MOL0     H75596   6.556  -0.104   8.729  0.0009  0.1291 -1.4806
  573MOL0     H75597   6.584   0.052   8.664 -0.6684 -0.6003  0.3394
  573MOL0     H75598   6.233   0.027   8.941  3.9004  0.3729  0.4164
  573MOL0     H75599   5.990   0.093   8.850  0.5658 -0.1843  1.3764
  573MOL0     H75600   5.718   0.309   8.499 -0.4046 -2.6592 -5.1880
  573MOL0     H75601   5.486   0.291   8.427 -2.3886 -1.9660 -0.3481
  573MOL0     H75602   5.143   0.193   8.428 -0.7698  2.0189 -0.8047
  573MOL0     H75603   5.300   0.219   8.370 -1.6406 -1.2351 -0.2844
  573MOL0     H75604   5.307   0.409   8.575  0.2245 -1.8340  1.2811
  573MOL0     H75605   5.127   0.406   8.553  0.0580  0.2793 -0.5263
  573MOL0     H75606   5.313   0.455   8.312  1.0284  1.1757  2.6226
  573MOL0     H75607   5.212   0.575   8.412 -2.9567  0.6368 -0.3509
  573MOL0     H75608   5.097   0.334   8.260  1.5101  1.0168 -1.6073
  573MOL0     H75609   5.017   0.452   8.361 -0.1890  1.2269 -0.0723
  573MOL0     H75610   5.156   0.504   8.106  1.9005  2.0778  1.4081
  573MOL0     H75611   5.090   0.635   8.202  1.1413  0.2546 -0.4721
  573MOL0     H75612   4.910   0.602   8.055 -2.2729 -0.0617  0.7027
  573MOL0     H75613   4.862   0.492   8.179 -0.0623 -1.6587 -0.0550
  573MOL0     H75614   5.009   0.380   7.925 -0.5300 -3.2068  0.2315
  573MOL0     H75615   4.977   0.296   8.074  1.9892 -1.9398 -1.4390
  573MOL0     H75616   4.743   0.346   8.057  0.8950  0.8375  0.8260
  573MOL0     H75617   4.794   0.255   7.914  0.3684  0.0302 -0.4719
  573MOL0     H75618   5.411   0.029   8.753  0.5670 -2.4348 -0.4089
  573MOL0     H75619   5.645   0.038   8.816 -1.9901 -1.8273  0.9187
  573MOL0     H75620   6.171   0.158   8.474  1.0611 -0.5605  0.1353
  573MOL0     H75621   6.397   0.094   8.566  0.2759  0.9332  0.0994
  573MOL0     H75622   5.360   0.623   8.940 -0.1804  0.4704  0.8288
  573MOL0     H75623   5.159   0.554   8.825 -2.6448 -1.0743  1.7699
  573MOL0     H75624   4.693   0.373   8.967  0.7762  0.4963  0.4664
  573MOL0     H75625   4.485   0.397   8.857 -1.4972 -0.7710 -1.0593
  573MOL0     H75626   4.318   0.507   8.692 -0.2814  0.1091  0.0476
  573MOL0     H75627   4.337   0.330   8.706  2.5833 -1.4547 -0.7469
  573MOL0     H75628   4.206   0.475   8.470 -2.3153  1.1167  0.4342
  573MOL0     H75629   4.240   0.296   8.476 -0.5350 -0.2265  1.8500
  573MOL0     H75630   4.056   0.441   8.656 -0.6225  1.7559 -2.8821
  573MOL0     H75631   4.101   0.265   8.660  0.6873 -0.2653 -0.6021
  573MOL0     H75632   3.880   0.359   8.538  1.2381  2.0500  2.6321
  573MOL0     H75633   3.996   0.419   8.415  0.7205 -0.1524  0.6580
  573MOL0     H75634   3.988   0.021   8.296 -0.1608  0.5924 -0.6481
  573MOL0     H75635   4.693   0.381   8.479 -0.8260  1.0610  0.1693
  573MOL0     H75636   4.911   0.347   8.586  0.8782 -0.2394 -0.1899
  574MOL0     O75637   7.444   2.516   1.369  0.0908 -0.0130  0.4006
  574MOL0     C75638   7.521   2.448   1.430 -0.4016  0.0516 -0.4262
  574MOL0     O75639   7.483   2.362   1.533  0.1798 -0.1844 -0.2891
  574MOL0     C75640   7.349   2.343   1.561 -0.9282 -0.4694 -0.1756
  574MOL0     C75641   7.265   2.448   1.596  0.0232 -0.4101  0.2895
  574MOL0     C75642   7.121   2.430   1.589 -0.8218 -0.2519  0.1879
  574MOL0     C75643   7.068   2.304   1.572 -0.5304  0.4549 -0.1350
  574MOL0     O75644   6.930   2.290   1.567 -0.6512  0.0776  0.8713
  574MOL0     C75645   6.877   2.168   1.508 -0.3097 -0.1966 -0.4497
  574MOL0     C75646   6.735   2.207   1.486  0.3345  0.2375 -0.4446
  574MOL0     C75647   6.690   2.125   1.371 -0.2182  0.3117 -0.1906
  574MOL0     C75648   6.543   2.097   1.367 -0.3734 -0.7085 -0.0174
  574MOL0     C75649   6.457   2.205   1.301 -0.6489  0.5188  0.8016
  574MOL0     C75650   6.313   2.172   1.288 -0.2450  0.7860  0.6155
  574MOL0     C75651   6.228   2.253   1.190 -0.3856 -0.3980  0.1026
  574MOL0     C75652   6.079   2.230   1.230 -0.2635  0.1895  0.6595
  574MOL0     N75653   5.990   2.319   1.159 -1.0838 -0.0075 -0.0096
  574MOL0     C75654   5.971   2.324   1.021 -0.2823 -1.0114  0.3035
  574MOL0     C75655   5.882   2.423   1.017 -0.0872  0.1765  1.2585
  574MOL0     C75656   5.808   2.479   0.896  0.0639 -0.1121 -0.7218
  574MOL0     C75657   5.678   2.400   0.867 -0.2610 -0.4109  0.3896
  574MOL0     C75658   5.573   2.436   0.972 -0.2280 -0.6909  0.2204
  574MOL0     C75659   5.433   2.401   0.937 -0.9285  0.2201 -0.1921
  574MOL0     O75660   5.401   2.261   0.924 -0.0026  0.5996 -0.4027
  574MOL0     C75661   5.276   2.235   0.868  0.4222  0.4193 -0.2003
  574MOL0     C75662   5.250   2.110   0.796  0.3020  0.5331 -0.4993
  574MOL0     C75663   5.125   2.076   0.747  0.0604 -0.9251 -0.1326
  574MOL0     C75664   5.021   2.169   0.763  0.2689  0.1225 -0.7423
  574MOL0     C75665   4.887   2.127   0.721  0.3941 -0.3348  0.3556
  574MOL0     O75666   4.896   2.013   0.642  0.7710 -0.1713 -0.1295
  574MOL0     C75667   4.780   1.955   0.595  0.3460 -0.4648 -0.6705
  574MOL0     C75668   4.660   2.021   0.558 -0.0498  0.1453 -0.3249
  574MOL0     C75669   4.548   1.959   0.532 -0.1655  0.3172  0.3210
  574MOL0     C75670   4.532   1.824   0.554 -0.1419 -0.7442 -0.6125
  574MOL0     O75671   4.404   1.778   0.554  0.0321 -0.3091 -0.2103
  574MOL0     C75672   4.386   1.638   0.555  0.3706 -0.0870  0.0708
  574MOL0     C75673   4.241   1.615   0.607 -0.8006 -0.5194  0.1687
  574MOL0     C75674   4.223   1.467   0.625 -0.2721  0.5916 -0.0847
  574MOL0     C75675   4.069   1.433   0.607  0.1205  0.5089 -1.1300
  574MOL0     C75676   4.037   1.277   0.580 -0.7299  0.2904  0.2149
  574MOL0     C75677   4.117   1.218   0.465 -0.1213  0.1246 -0.7265
  574MOL0     C75678   4.104   1.291   0.329 -0.2582 -0.4224  0.3344
  574MOL0     C75679   3.962   1.320   0.284 -0.4319 -0.5707 -0.3904
  574MOL0    Cl75680   3.942   1.405   0.120  0.0014  0.2548 -0.2906
  574MOL0     C75681   4.650   1.745   0.580  0.6758  1.1807 -0.2972
  574MOL0     C75682   4.781   1.814   0.595  0.2203  0.4634 -0.0079
  574MOL0     O75683   4.785   2.179   0.755  0.0895 -0.6945  0.3287
  574MOL0     C75684   5.040   2.284   0.834 -0.3693 -1.6321  0.0035
  574MOL0     C75685   5.163   2.310   0.894 -0.2359  0.1770  0.1295
  574MOL0     N75686   5.851   2.476   1.143 -0.9681  0.5458  0.7103
  574MOL0     N75687   5.929   2.412   1.229 -0.5034  0.5031  1.3134
  574MOL0     C75688   7.161   2.193   1.556 -0.1649 -0.4432  0.4279
  574MOL0     C75689   7.297   2.218   1.552 -0.0560  0.0727 -0.9817
  574MOL0     C75690   7.673   2.476   1.404  0.0243  0.3582 -0.0172
  574MOL0     C75691   7.763   2.441   1.506 -0.4518 -0.7135 -0.4812
  574MOL0     C75692   7.899   2.457   1.460 -0.1531 -0.1628 -0.5854
  574MOL0     C75693   7.942   2.516   1.336  0.3004 -1.3913 -0.0778
  574MOL0     O75694   8.069   2.541   1.286  0.0851  0.0256 -0.8033
  574MOL0     C75695   8.180   2.492   1.364 -1.1403 -0.5059  0.2270
  574MOL0     C75696   8.294   2.507   1.259  0.8011 -0.9255  0.0872
  574MOL0     C75697   8.431   2.470   1.320 -0.2038 -0.7532 -0.7113
  574MOL0     C75698   8.548   2.509   1.232  0.2698  0.4508 -0.1767
  574MOL0     C75699   8.677   2.497   1.297  0.6246  0.8758 -0.3896
  574MOL0     C75700   8.789   2.487   1.356  0.5401  1.2603 -0.4515
  574MOL0     C75701   7.838   2.557   1.252  0.2044  0.1233  1.0904
  574MOL0     C75702   7.709   2.539   1.282  0.6214  0.2552 -0.3947
  574MOL0     H75703   7.303   2.549   1.608 -2.5840  0.5900  0.6648
  574MOL0     H75704   7.069   2.523   1.608 -0.8978 -0.8462  3.3370
  574MOL0     H75705   6.888   2.085   1.578  3.3697  0.0416 -0.5028
  574MOL0     H75706   6.925   2.150   1.411 -1.1014  0.9544 -1.0765
  574MOL0     H75707   6.736   2.314   1.461  0.4879  0.4325  0.3368
  574MOL0     H75708   6.676   2.198   1.578  0.7513 -1.1295 -0.2905
  574MOL0     H75709   6.738   2.027   1.377  0.8862  0.8962  0.8375
  574MOL0     H75710   6.719   2.176   1.278 -2.7420 -0.4125 -1.4651
  574MOL0     H75711   6.528   2.002   1.314 -2.1380 -1.5902  1.9030
  574MOL0     H75712   6.507   2.092   1.470  0.2024  0.1747  0.2406
  574MOL0     H75713   6.496   2.227   1.201 -0.9009 -0.6161  0.4354
  574MOL0     H75714   6.457   2.297   1.360  1.7422  1.3651 -0.3887
  574MOL0     H75715   6.266   2.185   1.386 -1.0831  0.4115  0.2723
  574MOL0     H75716   6.312   2.064   1.269 -0.8465  0.7933  0.6053
  574MOL0     H75717   6.241   2.362   1.189 -4.5781  0.2309 -0.4353
  574MOL0     H75718   6.254   2.215   1.090  3.3742  0.5169  0.5447
  574MOL0     H75719   6.066   2.242   1.338  1.5158  0.2670  0.8830
  574MOL0     H75720   6.043   2.131   1.200 -2.0033 -0.4564  4.3559
  574MOL0     H75721   6.009   2.262   0.940  3.4134  1.8009 -0.3668
  574MOL0     H75722   5.878   2.475   0.812 -1.8946 -0.2589 -2.4013
  574MOL0     H75723   5.800   2.588   0.905 -3.7275 -0.2566 -0.9300
  574MOL0     H75724   5.702   2.294   0.856  2.6748  0.3182 -1.1839
  574MOL0     H75725   5.653   2.416   0.762  1.9637 -0.9221 -0.2646
  574MOL0     H75726   5.608   2.397   1.068  0.2524 -0.8188 -0.0059
  574MOL0     H75727   5.576   2.545   0.973 -0.7877 -0.6077 -1.9634
  574MOL0     H75728   5.420   2.457   0.844 -0.9831  0.1969 -0.1987
  574MOL0     H75729   5.365   2.454   1.005  0.7394  2.6504 -0.2695
  574MOL0     H75730   5.338   2.051   0.775 -0.2265 -1.1270  1.6068
  574MOL0     H75731   5.110   1.977   0.707 -0.1623 -1.3379  0.9380
  574MOL0     H75732   4.666   2.128   0.540 -1.8076 -0.0035 -2.1234
  574MOL0     H75733   4.457   2.010   0.503 -0.2231 -0.6517 -1.3952
  574MOL0     H75734   4.457   1.590   0.624 -1.3582 -0.8339  1.4282
  574MOL0     H75735   4.403   1.589   0.458 -0.1631 -2.3588  1.0389
  574MOL0     H75736   4.173   1.653   0.530  0.7867  0.7885 -0.6653
  574MOL0     H75737   4.220   1.667   0.701 -2.1045 -0.0331 -0.3662
  574MOL0     H75738   4.269   1.440   0.720 -0.1176  1.8234  0.2120
  574MOL0     H75739   4.277   1.416   0.545 -3.4274 -0.6258 -1.6331
  574MOL0     H75740   4.027   1.458   0.704  1.1643  2.4680 -1.1293
  574MOL0     H75741   4.021   1.499   0.534  1.5810  0.8818 -1.7845
  574MOL0     H75742   3.932   1.259   0.556 -0.3851  1.2306 -2.3812
  574MOL0     H75743   4.072   1.225   0.669 -0.3434  2.9634  1.7294
  574MOL0     H75744   4.081   1.118   0.440  0.7075  0.3528 -3.1397
  574MOL0     H75745   4.223   1.194   0.479 -0.0802 -1.6411 -3.4154
  574MOL0     H75746   4.155   1.388   0.338  0.0727 -0.2694 -2.4820
  574MOL0     H75747   4.169   1.238   0.259  1.4398  1.0626  0.7033
  574MOL0     H75748   3.914   1.386   0.356  0.9916  1.1822 -0.9567
  574MOL0     H75749   3.915   1.222   0.283  2.7588 -2.2579 -1.7102
  574MOL0     H75750   4.649   1.637   0.587 -2.6313  1.0266 -1.3179
  574MOL0     H75751   4.873   1.761   0.618  2.8290  4.6504  0.3576
  574MOL0     H75752   4.957   2.346   0.866  0.2978 -1.9946  2.6304
  574MOL0     H75753   5.170   2.404   0.949  1.5348  0.7515 -0.9798
  574MOL0     H75754   7.119   2.094   1.554 -1.0821 -0.0863  1.1413
  574MOL0     H75755   7.352   2.125   1.545 -1.5088 -0.9194  0.1510
  574MOL0     H75756   7.726   2.410   1.603 -2.7633  0.2981 -0.9788
  574MOL0     H75757   7.982   2.420   1.520  0.8718  1.6886 -0.7665
  574MOL0     H75758   8.159   2.390   1.398 -0.0369 -0.5993  0.6913
  574MOL0     H75759   8.204   2.559   1.448  0.0079 -1.6572  0.8546
  574MOL0     H75760   8.277   2.431   1.182  0.1596 -1.6188  0.8894
  574MOL0     H75761   8.281   2.608   1.220 -0.1267 -0.7852  0.7126
  574MOL0     H75762   8.438   2.370   1.363 -0.0372  0.2759  1.8666
  574MOL0     H75763   8.442   2.540   1.403  0.3741 -0.9261 -0.6434
  574MOL0     H75764   8.543   2.452   1.139 -0.6358 -0.1075  0.2014
  574MOL0     H75765   8.525   2.611   1.198 -2.3023 -0.1754 -0.5538
  574MOL0     H75766   8.888   2.490   1.395  1.1817 -0.9493 -1.7285
  574MOL0     H75767   7.861   2.602   1.156  4.0392 -2.4029  0.6054
  574MOL0     H75768   7.627   2.573   1.219  0.5755  0.9147  0.0110
  575MOL0     O75769   0.716   5.595   8.409  0.4450  0.7012 -0.4335
  575MOL0     C75770   0.772   5.491   8.373 -0.5471  1.3492  0.2549
  575MOL0     O75771   0.716   5.364   8.383 -0.1186  0.2474 -0.2726
  575MOL0     C75772   0.583   5.347   8.433 -1.2551  0.2697  0.7637
  575MOL0     C75773   0.568   5.247   8.523  0.6687 -0.1782 -0.2407
  575MOL0     C75774   0.441   5.237   8.594  0.4533 -0.6912  0.2355
  575MOL0     C75775   0.337   5.317   8.561  0.2814 -0.1922 -0.0322
  575MOL0     O75776   0.235   5.320   8.654 -0.0772  0.2363 -0.0572
  575MOL0     C75777   0.104   5.347   8.585 -0.5826  0.6450  0.5398
  575MOL0     C75778  -0.005   5.339   8.680  0.0997 -0.5991 -0.8616
  575MOL0     C75779  -0.139   5.311   8.605 -0.0805  0.4533  0.6142
  575MOL0     C75780  -0.260   5.329   8.691 -0.1527 -0.1977  0.3966
  575MOL0     C75781  -0.395   5.336   8.616  0.2958 -0.6781 -0.2210
  575MOL0     C75782  -0.446   5.194   8.576  0.0664 -0.1525 -0.2158
  575MOL0     C75783  -0.578   5.185   8.504  0.2778 -0.9170  0.1081
  575MOL0     C75784  -0.583   5.236   8.361  0.1788  0.4046 -0.2609
  575MOL0     N75785  -0.720   5.242   8.304  1.4227  0.3614  0.0948
  575MOL0     C75786  -0.819   5.146   8.302 -0.4584 -0.1863 -0.5951
  575MOL0     C75787  -0.924   5.192   8.235  0.0553  0.4634 -0.2918
  575MOL0     C75788  -1.041   5.111   8.177 -1.1224  0.0500  0.3390
  575MOL0     C75789  -1.144   5.195   8.094  0.0490  0.2920  0.3046
  575MOL0     C75790  -1.224   5.293   8.173  0.5433  0.6367 -0.3493
  575MOL0     C75791  -1.327   5.235   8.269  0.3457 -0.4769  0.3093
  575MOL0     O75792  -1.421   5.143   8.200  0.0581 -0.4421  0.9945
  575MOL0     C75793  -1.540   5.126   8.263 -0.2240 -0.6932 -0.5970
  575MOL0     C75794  -1.561   5.127   8.397  0.3877 -0.1860 -0.0260
  575MOL0     C75795  -1.690   5.121   8.449 -0.0931 -0.9122  0.1311
  575MOL0     C75796  -1.797   5.080   8.368  0.4448  0.1763  0.1726
  575MOL0     C75797  -1.933   5.068   8.424 -0.7567 -0.4490  0.2326
  575MOL0     O75798  -1.942   5.069   8.561  0.2851  0.1749  0.4057
  575MOL0     C75799  -2.065   5.055   8.621 -0.3288  0.1884  0.2687
  575MOL0     C75800  -2.098   5.130   8.735 -0.3847  0.0998  1.0487
  575MOL0     C75801  -2.200   5.106   8.818 -0.2399  0.2677  0.7752
  575MOL0     C75802  -2.288   4.997   8.792  0.1672  0.8171 -0.1090
  575MOL0     O75803  -2.398   4.991   8.880  1.0144  0.5960 -0.0631
  575MOL0     C75804  -2.494   4.894   8.832  0.0475  0.2407 -0.1264
  575MOL0     C75805  -2.621   4.937   8.907 -0.0945  0.1867  0.0324
  575MOL0     C75806  -2.733   4.840   8.880 -0.7097  0.7520  0.5982
  575MOL0     C75807  -2.833   4.841   8.988 -0.1290 -0.7323  0.4629
  575MOL0     C75808  -2.934   4.959   8.964  0.5423 -0.0582 -1.0085
  575MOL0     C75809  -3.026   4.972   9.075  0.0374  0.3602 -0.4207
  575MOL0     C75810  -3.151   5.066   9.055 -0.2950 -0.1242 -1.0632
  575MOL0     C75811  -3.110   5.204   9.112  0.0858  0.2769  0.0164
  575MOL0    Cl75812  -3.128   5.184   9.291 -0.1972  0.0649  0.0519
  575MOL0     C75813  -2.256   4.916   8.674 -0.0966 -0.5829  0.0172
  575MOL0     C75814  -2.147   4.949   8.597 -0.2227 -0.2640  0.3362
  575MOL0     O75815  -2.024   5.079   8.346 -0.3651 -0.4135  0.1615
  575MOL0     C75816  -1.775   5.065   8.229  1.2868  0.2188  0.0497
  575MOL0     C75817  -1.652   5.090   8.177  0.2066  0.1631 -0.2868
  575MOL0     N75818  -0.886   5.319   8.195  0.3982  0.2545 -0.0254
  575MOL0     N75819  -0.770   5.347   8.237 -0.2113  0.7025  0.3296
  575MOL0     C75820   0.356   5.413   8.463  0.6213  0.3337  0.2898
  575MOL0     C75821   0.483   5.426   8.396  0.3998  0.4429 -0.6249
  575MOL0     C75822   0.920   5.505   8.327  0.9128  0.4348 -0.7112
  575MOL0     C75823   0.996   5.389   8.293  0.4176  0.2168  0.0113
  575MOL0     C75824   1.133   5.411   8.267  0.2473  0.4489 -0.4177
  575MOL0     C75825   1.186   5.535   8.268  0.4361  0.9013  0.7238
  575MOL0     O75826   1.325   5.539   8.263  0.5002  0.2505  0.3726
  575MOL0     C75827   1.369   5.647   8.175 -0.0938 -0.5611  0.5431
  575MOL0     C75828   1.502   5.608   8.107  0.5024 -0.6184  0.2407
  575MOL0     C75829   1.607   5.621   8.213  0.9235  0.4552 -0.3341
  575MOL0     C75830   1.746   5.602   8.142  0.0047  0.4887 -0.9364
  575MOL0     C75831   1.864   5.587   8.233 -0.4250 -0.0859 -0.6136
  575MOL0     C75832   1.965   5.562   8.301 -0.7233  0.3102  0.1809
  575MOL0     C75833   1.109   5.646   8.297  0.7011  0.5711 -0.1616
  575MOL0     C75834   0.968   5.632   8.318 -0.3888 -0.4438 -0.1894
  575MOL0     H75835   0.655   5.186   8.544 -0.2288 -0.4077  3.4269
  575MOL0     H75836   0.443   5.178   8.685 -1.0234 -1.4650 -0.1956
  575MOL0     H75837   0.099   5.276   8.502  2.0748  1.6612 -0.6266
  575MOL0     H75838   0.094   5.449   8.547  0.5070  0.7565  0.5021
  575MOL0     H75839  -0.007   5.433   8.736 -1.9255 -1.2713  0.2766
  575MOL0     H75840   0.013   5.260   8.753 -1.5172  0.0559  0.3074
  575MOL0     H75841  -0.132   5.211   8.561  3.6185  1.7225 -2.1534
  575MOL0     H75842  -0.146   5.369   8.512 -0.6920  0.5204  0.6944
  575MOL0     H75843  -0.268   5.251   8.767  0.4205  0.6379  1.3253
  575MOL0     H75844  -0.242   5.415   8.755  0.0989 -1.3108  1.8682
  575MOL0     H75845  -0.388   5.415   8.541 -1.2152  2.4935  2.6611
  575MOL0     H75846  -0.471   5.365   8.690  2.5491 -0.9683  2.3412
  575MOL0     H75847  -0.436   5.127   8.662 -0.0768 -0.0446 -0.1130
  575MOL0     H75848  -0.392   5.153   8.491 -1.3147  0.9132 -1.6680
  575MOL0     H75849  -0.610   5.080   8.499 -2.2676 -0.4226  2.9322
  575MOL0     H75850  -0.652   5.235   8.568  0.1620 -1.5275  0.4602
  575MOL0     H75851  -0.523   5.160   8.310 -1.9125 -3.4236  2.4739
  575MOL0     H75852  -0.540   5.337   8.359 -0.4354  0.7506  1.6441
  575MOL0     H75853  -0.812   5.048   8.349 -0.4845  0.1138  0.0363
  575MOL0     H75854  -1.083   5.055   8.261 -1.1091 -0.2175  0.1659
  575MOL0     H75855  -0.989   5.036   8.117  1.1888 -0.9468  3.3138
  575MOL0     H75856  -1.214   5.123   8.050  0.5357  0.0015 -0.0111
  575MOL0     H75857  -1.091   5.251   8.016 -0.6192 -1.0455 -1.1647
  575MOL0     H75858  -1.155   5.361   8.224  1.1106 -1.6375  2.1690
  575MOL0     H75859  -1.270   5.356   8.097  0.1599  2.3892  1.2579
  575MOL0     H75860  -1.381   5.326   8.296 -0.0479  0.4229 -3.1114
  575MOL0     H75861  -1.288   5.193   8.362 -2.0536  0.2862  1.7507
  575MOL0     H75862  -1.479   5.134   8.468  0.9986  0.7981 -0.8058
  575MOL0     H75863  -1.712   5.137   8.554 -1.5928 -4.6580  0.5391
  575MOL0     H75864  -2.019   5.199   8.765  1.2536 -0.2328 -2.0188
  575MOL0     H75865  -2.214   5.172   8.904 -0.6434  3.5949 -1.6518
  575MOL0     H75866  -2.452   4.797   8.858  0.3262  0.4739  0.3094
  575MOL0     H75867  -2.527   4.913   8.729 -2.1924  0.7614  0.6338
  575MOL0     H75868  -2.646   5.035   8.867 -2.0144  0.1342  0.9885
  575MOL0     H75869  -2.598   4.944   9.014  1.4634 -0.9299 -0.1894
  575MOL0     H75870  -2.700   4.735   8.882 -1.8000  0.4083  0.9686
  575MOL0     H75871  -2.789   4.857   8.788 -0.5241  0.6019  0.4546
  575MOL0     H75872  -2.880   4.743   8.999  1.4463 -1.2635  3.1930
  575MOL0     H75873  -2.781   4.847   9.083 -1.2573 -1.5486  1.1574
  575MOL0     H75874  -2.986   4.940   8.870  0.7579 -0.1365 -1.1124
  575MOL0     H75875  -2.884   5.055   8.949 -0.8063  0.5710 -1.6784
  575MOL0     H75876  -2.968   5.004   9.162  2.5651  0.3119 -1.9844
  575MOL0     H75877  -3.067   4.872   9.094  0.5364  0.3264  0.5379
  575MOL0     H75878  -3.189   5.059   8.953  0.6727 -2.5110 -1.3451
  575MOL0     H75879  -3.238   5.028   9.110  1.9616 -2.9772  0.8462
  575MOL0     H75880  -3.175   5.287   9.084 -0.4468  1.1482  3.4228
  575MOL0     H75881  -3.009   5.228   9.077  0.2046  1.5006  1.1586
  575MOL0     H75882  -2.312   4.829   8.640 -0.6017 -1.5182  2.8947
  575MOL0     H75883  -2.130   4.907   8.498 -0.5328 -1.0415  0.6082
  575MOL0     H75884  -1.861   5.027   8.176 -0.4321  2.0656  1.3733
  575MOL0     H75885  -1.629   5.061   8.075  1.8651  2.2285 -0.5667
  575MOL0     H75886   0.270   5.472   8.436 -1.7040 -3.0000 -0.1294
  575MOL0     H75887   0.492   5.504   8.321 -2.3622 -1.1129 -2.7982
  575MOL0     H75888   0.955   5.289   8.286  2.3894 -0.6710  0.2718
  575MOL0     H75889   1.200   5.329   8.241  1.4669  2.0021 -2.4368
  575MOL0     H75890   1.383   5.743   8.226 -0.1722  0.5509 -1.4380
  575MOL0     H75891   1.294   5.668   8.098  1.2962  3.8622  0.0953
  575MOL0     H75892   1.484   5.508   8.065 -0.3786 -0.9633  1.3829
  575MOL0     H75893   1.519   5.686   8.033  0.0798 -0.6385  0.1216
  575MOL0     H75894   1.586   5.544   8.287  0.4632 -0.7725 -1.7014
  575MOL0     H75895   1.607   5.716   8.267 -0.5063  0.9281 -1.1239
  575MOL0     H75896   1.736   5.507   8.090 -2.7814  0.0275  0.3240
  575MOL0     H75897   1.781   5.672   8.065  2.0943 -0.2872 -0.7816
  575MOL0     H75898   2.050   5.553   8.366  0.8235  0.7991 -1.6667
  575MOL0     H75899   1.150   5.744   8.320  1.3498 -0.0164  1.3230
  575MOL0     H75900   0.922   5.726   8.343  1.2987  0.6704 -1.0976
  576MOL0     O75901   0.173   5.868   2.288 -0.0030 -0.2447 -0.2497
  576MOL0     C75902   0.212   5.927   2.189 -0.7747 -0.1847 -0.7738
  576MOL0     O75903   0.134   5.968   2.088 -0.0728 -0.1491 -0.5600
  576MOL0     C75904  -0.001   5.953   2.079 -0.2153 -0.2228 -0.4179
  576MOL0     C75905  -0.099   5.950   2.187 -0.3643 -0.1374 -0.2304
  576MOL0     C75906  -0.233   5.950   2.161 -0.3432  0.8852  0.2543
  576MOL0     C75907  -0.279   5.970   2.026 -1.0147 -0.2082  0.6182
  576MOL0     O75908  -0.409   5.978   1.997 -0.3308 -0.2637 -0.2288
  576MOL0     C75909  -0.508   5.907   2.069  0.1874  0.7217 -0.5066
  576MOL0     C75910  -0.641   5.943   2.007  0.5102  0.2839 -0.7254
  576MOL0     C75911  -0.735   5.860   2.100 -0.1500  0.0339 -0.0300
  576MOL0     C75912  -0.876   5.868   2.043 -0.3225  0.0722  0.3607
  576MOL0     C75913  -0.898   5.802   1.907 -0.2522  0.6983  0.4089
  576MOL0     C75914  -0.835   5.659   1.891 -0.3183 -0.2225  0.0678
  576MOL0     C75915  -0.842   5.588   1.756  0.4496  0.2800 -0.9579
  576MOL0     C75916  -0.993   5.569   1.719 -0.7828  0.5091 -0.0098
  576MOL0     N75917  -1.045   5.670   1.626  0.1525  0.6862 -0.0758
  576MOL0     C75918  -1.001   5.692   1.504  0.4380 -0.3010 -0.2347
  576MOL0     C75919  -1.067   5.797   1.451 -1.1898 -0.1751  0.1253
  576MOL0     C75920  -1.039   5.858   1.313  1.7043 -0.0348 -0.6207
  576MOL0     C75921  -0.921   5.960   1.281 -0.1422 -0.3330 -0.3480
  576MOL0     C75922  -0.945   6.091   1.369 -0.3535  0.8900  0.3487
  576MOL0     C75923  -1.089   6.144   1.365 -0.0009  0.6475 -0.0673
  576MOL0     O75924  -1.092   6.276   1.412  0.2058 -0.0989 -0.1615
  576MOL0     C75925  -1.206   6.351   1.416  0.1852 -0.3385 -0.9044
  576MOL0     C75926  -1.330   6.312   1.362  0.0207  0.1445  0.4878
  576MOL0     C75927  -1.442   6.389   1.370  0.1969  1.2470  0.3268
  576MOL0     C75928  -1.433   6.524   1.427 -0.6169  0.4459  0.8208
  576MOL0     C75929  -1.545   6.623   1.419  0.0453  0.4499 -0.5470
  576MOL0     O75930  -1.669   6.562   1.406 -0.6849  0.2078 -0.1350
  576MOL0     C75931  -1.792   6.620   1.414  0.2019  0.0219 -0.4523
  576MOL0     C75932  -1.822   6.762   1.451  0.0092  0.7655 -0.2447
  576MOL0     C75933  -1.956   6.811   1.458  0.8375  0.2444 -0.9006
  576MOL0     C75934  -2.059   6.715   1.427  0.0212  0.7478  0.5267
  576MOL0     O75935  -2.185   6.768   1.406  0.0321 -0.0996  0.3217
  576MOL0     C75936  -2.301   6.686   1.383 -0.0233  0.5361 -0.7872
  576MOL0     C75937  -2.424   6.777   1.376 -0.4152  0.6403 -0.6897
  576MOL0     C75938  -2.553   6.694   1.353 -0.9671  0.5187 -0.7403
  576MOL0     C75939  -2.596   6.603   1.468  0.2316  1.3350 -0.8615
  576MOL0     C75940  -2.714   6.526   1.418 -0.7288 -0.0046 -0.3974
  576MOL0     C75941  -2.846   6.571   1.481 -0.1408 -0.2950 -0.1414
  576MOL0     C75942  -2.857   6.528   1.631  0.1356  0.7421 -0.3024
  576MOL0     C75943  -2.983   6.601   1.696  0.3265  0.1704  0.3914
  576MOL0    Cl75944  -2.937   6.768   1.748  0.1120  0.3032  0.2640
  576MOL0     C75945  -2.033   6.580   1.401  0.6505  0.7430  0.5257
  576MOL0     C75946  -1.903   6.539   1.393  0.6500  0.1922 -0.0796
  576MOL0     O75947  -1.524   6.741   1.433  0.2571 -0.2471  0.6412
  576MOL0     C75948  -1.308   6.562   1.479  0.4948 -0.3664 -0.2713
  576MOL0     C75949  -1.201   6.476   1.474  0.0527 -0.6814  0.5885
  576MOL0     N75950  -1.161   5.832   1.542  0.0589 -0.7481 -0.4341
  576MOL0     N75951  -1.145   5.761   1.646  0.3756  0.1539  0.2837
  576MOL0     C75952  -0.188   5.977   1.920  0.5074 -0.2314 -0.1748
  576MOL0     C75953  -0.053   5.970   1.948  0.4023 -0.5270 -0.8127
  576MOL0     C75954   0.351   5.959   2.175  0.1322  0.1082 -0.1477
  576MOL0     C75955   0.395   6.057   2.081 -0.0475  0.6212 -0.3755
  576MOL0     C75956   0.531   6.085   2.065  0.5785 -0.8374  1.2335
  576MOL0     C75957   0.631   6.015   2.130  0.3932 -0.4849  0.7332
  576MOL0     O75958   0.767   6.042   2.118 -0.3060  0.2705 -0.3626
  576MOL0     C75959   0.822   6.149   2.037  1.1095 -0.0140  0.4609
  576MOL0     C75960   0.975   6.126   2.015  0.6869  0.0756 -0.1806
  576MOL0     C75961   1.060   6.161   2.144 -1.1168  0.5249  0.7598
  576MOL0     C75962   1.061   6.052   2.251 -0.6395  0.2324 -0.7802
  576MOL0     C75963   1.162   6.083   2.355 -0.2026  0.5152  0.3444
  576MOL0     C75964   1.247   6.084   2.431 -0.0053  0.4326 -0.1162
  576MOL0     C75965   0.595   5.921   2.227  0.6868  0.3891 -0.1640
  576MOL0     C75966   0.454   5.892   2.247 -0.1547  0.5998 -0.5764
  576MOL0     H75967  -0.061   5.932   2.287  0.9783 -1.4632 -0.9326
  576MOL0     H75968  -0.291   5.932   2.251  2.4973 -2.8563  1.5659
  576MOL0     H75969  -0.506   5.926   2.177  1.8556 -1.7199 -0.0196
  576MOL0     H75970  -0.492   5.799   2.061 -1.6219  0.4096 -0.4289
  576MOL0     H75971  -0.637   5.902   1.906  0.4263 -0.0410 -0.5983
  576MOL0     H75972  -0.663   6.049   2.020 -0.7000 -0.3315  4.7795
  576MOL0     H75973  -0.732   5.909   2.198  1.0461  1.8573 -0.9151
  576MOL0     H75974  -0.696   5.758   2.108  0.5374  0.2451 -0.5553
  576MOL0     H75975  -0.943   5.829   2.121 -2.5966 -1.4743 -2.2033
  576MOL0     H75976  -0.894   5.976   2.039  0.6013  0.3928  2.7257
  576MOL0     H75977  -0.856   5.862   1.825 -0.4319 -1.2312 -1.1555
  576MOL0     H75978  -1.007   5.799   1.893 -0.2853  0.7943  0.6419
  576MOL0     H75979  -0.876   5.593   1.968  1.5810 -0.9457  0.5216
  576MOL0     H75980  -0.727   5.664   1.912  0.2215  3.2952 -2.5296
  576MOL0     H75981  -0.799   5.637   1.668 -1.0879 -0.2273 -2.0411
  576MOL0     H75982  -0.794   5.492   1.775 -1.3482  0.1281  4.4165
  576MOL0     H75983  -1.057   5.580   1.808 -0.5910 -1.5613  0.4351
  576MOL0     H75984  -1.010   5.470   1.675 -0.0569 -1.0186  2.8559
  576MOL0     H75985  -0.918   5.648   1.449 -0.6221 -0.6926 -1.5716
  576MOL0     H75986  -1.132   5.911   1.287  2.7659  0.0579 -5.0932
  576MOL0     H75987  -1.039   5.776   1.241  0.4799 -0.9128  0.3351
  576MOL0     H75988  -0.918   5.994   1.177  0.3208  2.7070  0.5442
  576MOL0     H75989  -0.830   5.907   1.311  0.1712 -0.1189 -0.9004
  576MOL0     H75990  -0.922   6.072   1.474  2.6965  2.6655  0.1210
  576MOL0     H75991  -0.871   6.168   1.347  1.5511 -0.1746  2.6685
  576MOL0     H75992  -1.140   6.089   1.445  1.1510  0.5220  0.6001
  576MOL0     H75993  -1.138   6.135   1.267 -1.1198 -0.9683  0.6020
  576MOL0     H75994  -1.328   6.220   1.305  1.0567  1.7373 -2.3068
  576MOL0     H75995  -1.536   6.356   1.327  1.0191 -1.7390  0.5881
  576MOL0     H75996  -1.741   6.831   1.474  1.4351 -1.3125  1.3686
  576MOL0     H75997  -1.982   6.913   1.485  0.7212 -0.3360  1.3795
  576MOL0     H75998  -2.294   6.611   1.462  0.1748  0.7453 -0.6040
  576MOL0     H75999  -2.293   6.635   1.287 -0.6870  0.7900 -0.9875
  576MOL0     H76000  -2.421   6.844   1.289  0.1147  2.7716  0.9027
  576MOL0     H76001  -2.430   6.835   1.468  2.2312  0.0877 -0.0857
  576MOL0     H76002  -2.531   6.627   1.269 -1.9271  0.0748 -0.6442
  576MOL0     H76003  -2.635   6.764   1.336 -1.7026  0.3042  1.6238
  576MOL0     H76004  -2.522   6.526   1.490  1.1083  2.1837 -0.7466
  576MOL0     H76005  -2.618   6.657   1.561  3.5056 -1.0674  1.5412
  576MOL0     H76006  -2.701   6.421   1.446 -3.3064 -0.2226  0.2861
  576MOL0     H76007  -2.715   6.531   1.309  0.2794 -0.9804 -0.4714
  576MOL0     H76008  -2.921   6.517   1.423  2.0917 -2.4786 -1.2356
  576MOL0     H76009  -2.860   6.679   1.468  0.4514 -0.3558 -1.4916
  576MOL0     H76010  -2.882   6.421   1.626 -1.3415  1.0840 -0.8871
  576MOL0     H76011  -2.767   6.547   1.689 -0.2362  1.5079  0.0419
  576MOL0     H76012  -3.009   6.542   1.784  0.5426 -0.9249 -0.2592
  576MOL0     H76013  -3.065   6.605   1.624 -1.4287 -1.5311  2.1749
  576MOL0     H76014  -2.104   6.501   1.378  1.9995 -0.0458 -1.1613
  576MOL0     H76015  -1.877   6.435   1.379  1.2525  0.2698  0.4365
  576MOL0     H76016  -1.296   6.664   1.514  2.2281 -0.0430 -1.6491
  576MOL0     H76017  -1.108   6.509   1.521  0.0961  0.0177  0.0357
  576MOL0     H76018  -0.220   5.992   1.817  1.3758  2.7855 -0.1183
  576MOL0     H76019   0.024   5.991   1.875  0.3473  0.8807 -0.4850
  576MOL0     H76020   0.335   6.121   2.017  0.7279  0.5141 -1.2221
  576MOL0     H76021   0.557   6.154   1.985  0.5169  1.0168  2.7367
  576MOL0     H76022   0.802   6.254   2.063 -2.1925 -0.6606  0.9819
  576MOL0     H76023   0.781   6.140   1.936  1.2178 -1.4206  0.5226
  576MOL0     H76024   1.000   6.025   1.983  2.0928  0.5501 -0.6548
  576MOL0     H76025   0.999   6.178   1.922  1.5553 -1.6324 -0.9414
  576MOL0     H76026   1.028   6.256   2.188 -0.3089  0.2055  2.0996
  576MOL0     H76027   1.160   6.196   2.117 -2.0025  3.3318  0.8310
  576MOL0     H76028   0.965   6.047   2.303 -0.5625 -0.7497 -0.7244
  576MOL0     H76029   1.078   5.953   2.208  2.3655 -0.7605  2.3037
  576MOL0     H76030   1.321   6.088   2.509 -1.5505  1.2942  1.3885
  576MOL0     H76031   0.670   5.871   2.286  1.6480 -0.8041 -2.2946
  576MOL0     H76032   0.429   5.818   2.322  3.1641 -0.9870 -0.8658
  577MOL0     O76033   7.659   1.044   6.328 -0.7523 -0.9237 -0.1074
  577MOL0     C76034   7.673   1.160   6.359  0.3755  0.0537  0.0700
  577MOL0     O76035   7.571   1.253   6.370  0.0159 -0.0200 -0.4394
  577MOL0     C76036   7.440   1.239   6.326  0.3186 -0.1493 -0.3617
  577MOL0     C76037   7.381   1.131   6.254 -0.3976  0.2761 -0.0452
  577MOL0     C76038   7.242   1.131   6.206  0.6379 -0.6921  0.7010
  577MOL0     C76039   7.154   1.244   6.233 -0.2186  0.5127 -1.0269
  577MOL0     O76040   7.024   1.256   6.209  0.4066 -0.2847  0.3006
  577MOL0     C76041   6.941   1.148   6.178  0.6607 -0.5805 -0.1521
  577MOL0     C76042   6.858   1.106   6.308  0.1513  0.4113 -0.1571
  577MOL0     C76043   6.779   0.986   6.273 -0.6741  0.3931  0.0716
  577MOL0     C76044   6.688   0.957   6.395  0.3948 -0.2841  0.1200
  577MOL0     C76045   6.565   1.051   6.417 -0.4325  0.5741  0.4603
  577MOL0     C76046   6.445   1.015   6.318 -0.4077 -0.1030 -0.0369
  577MOL0     C76047   6.349   1.134   6.313  0.0941  0.0882 -0.0120
  577MOL0     C76048   6.273   1.155   6.444 -0.3073  1.1298  0.1738
  577MOL0     N76049   6.129   1.179   6.415  0.0905  0.2097  0.1835
  577MOL0     C76050   6.025   1.091   6.409 -0.4747  1.1856 -0.0508
  577MOL0     C76051   5.914   1.162   6.385 -0.0333  0.2466 -0.7509
  577MOL0     C76052   5.774   1.104   6.384 -0.3513 -0.5472  0.1361
  577MOL0     C76053   5.705   1.144   6.257  0.5068  0.2209 -0.4219
  577MOL0     C76054   5.568   1.089   6.264  0.3361  0.4781  0.3875
  577MOL0     C76055   5.498   1.120   6.135  0.1258 -0.0045  0.1073
  577MOL0     O76056   5.416   1.013   6.096  0.3349 -0.3340 -0.3832
  577MOL0     C76057   5.280   1.043   6.095 -0.6395  0.4092  0.5924
  577MOL0     C76058   5.212   0.982   5.991 -0.9080  0.0986 -0.8543
  577MOL0     C76059   5.066   0.982   5.988 -0.1637 -0.9163  0.1242
  577MOL0     C76060   4.997   1.057   6.083  0.0903  0.3441  0.3954
  577MOL0     C76061   4.854   1.061   6.070  0.8763  0.0369 -0.4487
  577MOL0     O76062   4.797   1.027   5.955  0.0309 -0.1009  0.3517
  577MOL0     C76063   4.661   1.042   5.928 -0.5273 -0.4481  0.3922
  577MOL0     C76064   4.625   0.963   5.816  0.1063 -0.7966 -0.1413
  577MOL0     C76065   4.491   0.949   5.777 -0.6672 -0.3533 -0.3883
  577MOL0     C76066   4.395   1.021   5.842 -0.2482  0.5628 -1.7108
  577MOL0     O76067   4.265   1.013   5.812  0.3260  0.6535  0.1481
  577MOL0     C76068   4.239   1.066   5.678 -0.1015 -0.4160 -0.7404
  577MOL0     C76069   4.098   1.136   5.663 -0.4277 -0.7661  0.4956
  577MOL0     C76070   4.043   1.123   5.516  0.0465 -0.4675 -0.4510
  577MOL0     C76071   3.897   1.153   5.522  0.3443  0.5451  0.2285
  577MOL0     C76072   3.824   1.133   5.381 -0.7190  0.1672 -0.3085
  577MOL0     C76073   3.842   1.250   5.282  0.0374  0.1446 -0.0375
  577MOL0     C76074   3.757   1.236   5.162  0.6874 -0.3381  0.0231
  577MOL0     C76075   3.608   1.255   5.193 -0.6295 -0.7242 -0.6803
  577MOL0    Cl76076   3.587   1.421   5.260 -0.1262 -0.1081 -0.0414
  577MOL0     C76077   4.422   1.088   5.958  0.6454 -0.6626  0.4769
  577MOL0     C76078   4.553   1.104   5.999  0.4742  0.2698 -0.3399
  577MOL0     O76079   4.786   1.102   6.162 -0.6908 -0.1843 -0.3745
  577MOL0     C76080   5.064   1.123   6.189  0.0635 -0.1988 -0.2483
  577MOL0     C76081   5.210   1.115   6.195  0.7615  0.2768  0.1702
  577MOL0     N76082   5.943   1.300   6.384 -0.2088  0.3371  0.7527
  577MOL0     N76083   6.074   1.306   6.401  0.1665  0.2970  0.3240
  577MOL0     C76084   7.217   1.352   6.295 -1.1985 -0.0226  0.0148
  577MOL0     C76085   7.355   1.346   6.349  0.0970 -0.3138 -0.1087
  577MOL0     C76086   7.812   1.206   6.390 -0.9526 -1.0326 -0.5453
  577MOL0     C76087   7.926   1.146   6.327  0.4156  0.3331  1.2300
  577MOL0     C76088   8.058   1.186   6.349 -0.1196 -0.1526  0.1485
  577MOL0     C76089   8.082   1.298   6.434 -0.4292 -0.1634 -0.4304
  577MOL0     O76090   8.202   1.348   6.452  0.3266 -0.1119  0.2979
  577MOL0     C76091   8.315   1.305   6.382 -1.2226 -0.4764  1.1502
  577MOL0     C76092   8.446   1.372   6.430 -0.6895  0.3418 -0.5965
  577MOL0     C76093   8.580   1.317   6.369  0.3096 -0.3486  0.2915
  577MOL0     C76094   8.698   1.409   6.397 -0.5051 -0.0110 -0.6149
  577MOL0     C76095   8.705   1.450   6.537  1.1729  0.4039  0.1810
  577MOL0     C76096   8.699   1.482   6.654  0.2694  0.0555 -0.1172
  577MOL0     C76097   7.970   1.359   6.494 -0.4941  0.4970  0.7022
  577MOL0     C76098   7.839   1.309   6.480  0.0764 -0.5801  0.4388
  577MOL0     H76099   7.436   1.039   6.235 -0.8771  0.3820 -2.3439
  577MOL0     H76100   7.202   1.056   6.139 -1.2805  1.4863 -0.7851
  577MOL0     H76101   6.997   1.064   6.136 -2.0707 -2.8418  0.4305
  577MOL0     H76102   6.866   1.176   6.104  0.9902  1.0352  0.0727
  577MOL0     H76103   6.785   1.185   6.330  0.1673 -0.3551  3.2328
  577MOL0     H76104   6.924   1.089   6.393  0.9569  2.1062 -0.4164
  577MOL0     H76105   6.840   0.896   6.263 -1.2320 -0.0996  1.0233
  577MOL0     H76106   6.710   0.991   6.189  1.0097 -4.5683 -1.9784
  577MOL0     H76107   6.649   0.856   6.380  0.6383 -0.1317 -1.6882
  577MOL0     H76108   6.751   0.960   6.485 -0.6689 -1.5483  0.9552
  577MOL0     H76109   6.595   1.156   6.416 -1.0483  0.7549  0.0961
  577MOL0     H76110   6.526   1.035   6.518 -1.2433 -0.8028 -0.0363
  577MOL0     H76111   6.391   0.923   6.341  0.5369 -0.7466 -0.3281
  577MOL0     H76112   6.499   1.004   6.224 -1.9157 -0.0183 -0.9396
  577MOL0     H76113   6.408   1.224   6.291  0.4549 -0.4073 -1.1277
  577MOL0     H76114   6.280   1.126   6.230  0.3174  4.1669 -0.8038
  577MOL0     H76115   6.306   1.239   6.507 -1.9393  1.8583  0.1002
  577MOL0     H76116   6.289   1.065   6.505 -1.2678  0.1379 -0.9945
  577MOL0     H76117   6.029   0.983   6.411  2.2990  1.1598 -2.0606
  577MOL0     H76118   5.714   1.142   6.468  1.0506  0.7099  0.6137
  577MOL0     H76119   5.783   0.995   6.384  1.4498 -0.4377 -1.5300
  577MOL0     H76120   5.766   1.116   6.171  2.9936  1.3078  0.8895
  577MOL0     H76121   5.690   1.251   6.271 -0.5787 -0.2478  3.0332
  577MOL0     H76122   5.568   0.982   6.283  2.3378  0.2752 -0.4174
  577MOL0     H76123   5.516   1.132   6.350  2.0468 -0.5637  2.0237
  577MOL0     H76124   5.568   1.121   6.051 -0.2536  0.0133 -0.2110
  577MOL0     H76125   5.452   1.219   6.143 -0.6891 -0.4050  0.5490
  577MOL0     H76126   5.262   0.927   5.912  0.7139  1.7825 -1.0524
  577MOL0     H76127   5.017   0.917   5.916  0.2223  0.0701 -1.0597
  577MOL0     H76128   4.704   0.905   5.768  1.2155 -0.2704  1.0000
  577MOL0     H76129   4.467   0.886   5.691 -4.9168  1.1582 -0.5511
  577MOL0     H76130   4.243   0.981   5.609 -1.7762 -0.0911 -1.2755
  577MOL0     H76131   4.323   1.127   5.643  0.8867  0.0992  2.1981
  577MOL0     H76132   4.098   1.244   5.678 -3.4827 -0.0507 -2.9553
  577MOL0     H76133   4.025   1.090   5.730  0.7542 -1.4780  1.3242
  577MOL0     H76134   4.044   1.015   5.496 -2.2691 -1.5553  3.9701
  577MOL0     H76135   4.084   1.181   5.434  0.7911  0.1438  0.3307
  577MOL0     H76136   3.841   1.087   5.590  0.3154 -1.0793 -1.2915
  577MOL0     H76137   3.883   1.252   5.565 -2.0626 -0.1902  1.3603
  577MOL0     H76138   3.721   1.099   5.393 -0.4659  0.1213  2.4127
  577MOL0     H76139   3.870   1.050   5.326  0.9484 -0.0240  1.2610
  577MOL0     H76140   3.949   1.247   5.260  1.1410 -0.4051  4.3695
  577MOL0     H76141   3.835   1.349   5.328  0.8295  0.6537 -0.9751
  577MOL0     H76142   3.788   1.317   5.096 -3.9348  1.4779 -0.2428
  577MOL0     H76143   3.779   1.139   5.116  0.4539 -0.2232 -0.3382
  577MOL0     H76144   3.578   1.172   5.257  0.9446  0.5825  1.8872
  577MOL0     H76145   3.574   1.251   5.089 -0.6968 -1.5327 -0.6332
  577MOL0     H76146   4.343   1.142   6.009 -0.1292 -1.0838 -0.2554
  577MOL0     H76147   4.566   1.158   6.091  1.4277  1.0647 -0.9311
  577MOL0     H76148   5.009   1.182   6.261  2.8479 -1.6981  3.3650
  577MOL0     H76149   5.260   1.158   6.282  2.0607  0.4231 -0.6143
  577MOL0     H76150   7.178   1.448   6.325 -1.4064  0.0811 -0.5685
  577MOL0     H76151   7.396   1.438   6.390  2.8675 -1.6872  0.4637
  577MOL0     H76152   7.907   1.069   6.253  3.2927 -0.7265  1.4935
  577MOL0     H76153   8.135   1.141   6.288 -0.4526 -0.3278 -0.1452
  577MOL0     H76154   8.291   1.329   6.278 -1.4231 -0.0356  1.2950
  577MOL0     H76155   8.334   1.201   6.410  1.9750  0.3095  2.3188
  577MOL0     H76156   8.433   1.478   6.407  0.1113  0.5217 -0.2551
  577MOL0     H76157   8.449   1.350   6.538  1.6891  0.4110 -0.6063
  577MOL0     H76158   8.576   1.310   6.260 -1.4206  3.0639 -0.0079
  577MOL0     H76159   8.603   1.226   6.424  0.4121  1.3260  3.2430
  577MOL0     H76160   8.792   1.353   6.389 -0.5962 -0.6156  1.9165
  577MOL0     H76161   8.703   1.497   6.332 -1.0122  0.9852  0.6621
  577MOL0     H76162   8.696   1.517   6.755  0.6747 -0.0133 -0.0821
  577MOL0     H76163   7.985   1.449   6.554  0.2912  1.1091 -0.3848
  577MOL0     H76164   7.755   1.355   6.530 -0.9994 -1.7865 -0.1919
  578MOL0     O76165   5.577   7.819  11.126  0.9960  0.4348 -0.3377
  578MOL0     C76166   5.583   7.908  11.203 -0.2303 -0.6273 -0.0988
  578MOL0     O76167   5.474   7.959  11.275 -0.2199 -0.1615 -0.0990
  578MOL0     C76168   5.349   7.900  11.252 -0.1906 -0.7314  0.6586
  578MOL0     C76169   5.321   7.768  11.227 -0.2549  0.3662 -0.2798
  578MOL0     C76170   5.188   7.723  11.229  1.1877 -0.9468  0.5328
  578MOL0     C76171   5.078   7.806  11.255  1.5078  1.1735 -0.5926
  578MOL0     O76172   4.949   7.769  11.260 -0.1525 -1.0657 -0.2164
  578MOL0     C76173   4.917   7.635  11.299 -0.4031 -0.5444 -0.9547
  578MOL0     C76174   4.768   7.614  11.323  0.1497 -0.4529 -0.7148
  578MOL0     C76175   4.712   7.699  11.432 -0.0563 -0.8283  0.4957
  578MOL0     C76176   4.562   7.677  11.451  0.5046 -1.3430 -0.1932
  578MOL0     C76177   4.499   7.767  11.562  0.9586  0.6038  0.3797
  578MOL0     C76178   4.543   7.712  11.701  0.5079  0.1388  0.6463
  578MOL0     C76179   4.495   7.806  11.810  0.1071  0.3472  0.2498
  578MOL0     C76180   4.573   7.779  11.945 -0.0761 -0.1450  0.4579
  578MOL0     N76181   4.480   7.714  12.053 -0.1722  0.1038  0.2725
  578MOL0     C76182   4.406   7.594  12.033 -0.0229 -0.4890  0.3059
  578MOL0     C76183   4.324   7.596  12.138  0.0235 -0.8193 -0.2390
  578MOL0     C76184   4.223   7.494  12.172 -1.0675  0.2722  0.0642
  578MOL0     C76185   4.130   7.483  12.055  0.2469  0.1031 -0.5234
  578MOL0     C76186   4.015   7.386  12.095 -0.2692  0.2828 -0.2412
  578MOL0     C76187   3.895   7.358  11.999 -0.0092 -0.2208 -0.8416
  578MOL0     O76188   3.839   7.486  11.957 -0.0152  0.2330  0.2615
  578MOL0     C76189   3.745   7.495  11.865  0.1770  0.5531 -0.1979
  578MOL0     C76190   3.650   7.386  11.844  0.1154 -0.0432  0.2163
  578MOL0     C76191   3.543   7.399  11.763  0.2105 -0.2297  0.3018
  578MOL0     C76192   3.532   7.514  11.682  0.5364 -0.6761 -0.4683
  578MOL0     C76193   3.424   7.524  11.582  0.2314 -0.6264  0.4096
  578MOL0     O76194   3.373   7.409  11.526  0.0764 -0.2347  0.0698
  578MOL0     C76195   3.272   7.418  11.442 -0.3413  0.4156  0.3917
  578MOL0     C76196   3.301   7.390  11.312  0.7884 -1.3027  0.4033
  578MOL0     C76197   3.200   7.411  11.209 -0.3767 -0.5644  0.0969
  578MOL0     C76198   3.078   7.472  11.239 -0.5957 -0.3203  0.4051
  578MOL0     O76199   2.988   7.488  11.141  0.7185 -0.0245  0.2597
  578MOL0     C76200   2.903   7.605  11.145 -0.5002  0.9438 -0.7929
  578MOL0     C76201   2.836   7.600  11.010  0.9883 -0.2250  0.3147
  578MOL0     C76202   2.729   7.719  11.011 -1.0026 -0.3625 -0.6296
  578MOL0     C76203   2.642   7.736  10.888  0.3704 -0.0588 -0.4853
  578MOL0     C76204   2.570   7.601  10.859  0.3688  0.8005  0.0291
  578MOL0     C76205   2.485   7.609  10.731  0.2800 -0.5717 -0.0791
  578MOL0     C76206   2.371   7.712  10.726  0.3602  0.3341  0.5809
  578MOL0     C76207   2.274   7.681  10.612 -0.6622 -0.1326 -0.2802
  578MOL0    Cl76208   2.195   7.533  10.629  0.1430  0.4385  0.4400
  578MOL0     C76209   3.053   7.497  11.372  0.3105 -0.4248  0.2165
  578MOL0     C76210   3.142   7.465  11.476 -0.4799 -0.2759  0.1213
  578MOL0     O76211   3.389   7.637  11.556 -0.3747  0.7706  0.3300
  578MOL0     C76212   3.617   7.624  11.709  0.0457 -0.2771  1.0896
  578MOL0     C76213   3.722   7.616  11.801  0.0496 -0.2538 -0.5262
  578MOL0     N76214   4.355   7.695  12.232 -0.2233 -0.9242  0.1438
  578MOL0     N76215   4.451   7.763  12.176  0.5446 -0.3172 -0.2591
  578MOL0     C76216   5.102   7.941  11.285  1.1248  0.2497  1.1723
  578MOL0     C76217   5.233   7.984  11.291 -1.0798  0.4772  1.0733
  578MOL0     C76218   5.709   7.973  11.221 -0.2659  0.0351  0.4301
  578MOL0     C76219   5.728   8.062  11.319 -0.3059  0.1084 -0.3554
  578MOL0     C76220   5.852   8.129  11.328 -0.0877  0.4067 -0.2021
  578MOL0     C76221   5.952   8.118  11.230  0.0083 -0.1140  0.5446
  578MOL0     O76222   6.066   8.189  11.252  0.2321 -0.0175 -0.7321
  578MOL0     C76223   6.148   8.220  11.141 -0.1009  0.0132 -0.5487
  578MOL0     C76224   6.179   8.371  11.135 -0.2947 -0.1000 -0.0342
  578MOL0     C76225   6.307   8.403  11.053 -0.0304  0.4355  1.1612
  578MOL0     C76226   6.424   8.342  11.128 -1.1529 -0.3922 -0.2326
  578MOL0     C76227   6.540   8.376  11.047 -0.2722 -1.0515 -0.3309
  578MOL0     C76228   6.627   8.417  10.968  0.0034  1.2614  0.0886
  578MOL0     C76229   5.936   8.015  11.131 -0.1774 -0.1749  0.4048
  578MOL0     C76230   5.818   7.943  11.134  0.0281  0.2312 -0.1549
  578MOL0     H76231   5.401   7.696  11.217 -2.0471 -1.4649 -2.6250
  578MOL0     H76232   5.176   7.620  11.196  1.2505 -0.9860  0.6333
  578MOL0     H76233   4.962   7.601  11.393 -1.7479  0.8083  0.2326
  578MOL0     H76234   4.938   7.567  11.215  5.2083  2.6496 -2.6540
  578MOL0     H76235   4.752   7.508  11.347  0.8644 -0.4992 -0.4265
  578MOL0     H76236   4.715   7.637  11.230 -1.9809 -0.3635  0.4331
  578MOL0     H76237   4.739   7.802  11.405  0.9395 -1.3861 -0.7352
  578MOL0     H76238   4.771   7.680  11.522 -0.2040 -3.3243  0.1323
  578MOL0     H76239   4.509   7.693  11.357 -1.2764  1.1744  1.1147
  578MOL0     H76240   4.532   7.577  11.484 -0.4126 -0.0698  3.3612
  578MOL0     H76241   4.391   7.762  11.548  0.3517  0.2916  4.1745
  578MOL0     H76242   4.525   7.872  11.546 -1.7380  1.2311 -0.4365
  578MOL0     H76243   4.651   7.702  11.713  0.5957 -2.3614 -1.3039
  578MOL0     H76244   4.501   7.611  11.710 -0.9965  0.4514 -1.8034
  578MOL0     H76245   4.497   7.912  11.785 -1.3460  0.1512 -0.8217
  578MOL0     H76246   4.389   7.786  11.825  0.0179  1.0307  0.5295
  578MOL0     H76247   4.612   7.870  11.990  2.4936  0.2493 -2.2253
  578MOL0     H76248   4.657   7.715  11.914 -0.7071  0.4051 -2.7679
  578MOL0     H76249   4.412   7.531  11.944 -1.0926 -0.9280  0.5251
  578MOL0     H76250   4.164   7.526  12.258 -2.1742 -0.8826 -0.2310
  578MOL0     H76251   4.270   7.401  12.206 -0.5330  0.5696  0.1395
  578MOL0     H76252   4.182   7.441  11.969  0.7043 -0.4207 -0.0021
  578MOL0     H76253   4.081   7.573  12.018  1.4155  0.1946 -1.8950
  578MOL0     H76254   4.066   7.289  12.099  0.7528  0.7234 -1.7254
  578MOL0     H76255   3.968   7.413  12.190 -0.6926  3.0176 -1.1478
  578MOL0     H76256   3.820   7.296  12.050 -1.5857  0.3725 -2.3290
  578MOL0     H76257   3.941   7.301  11.918  0.0098  0.9867 -1.7046
  578MOL0     H76258   3.658   7.296  11.903  0.8642 -0.1852 -0.0828
  578MOL0     H76259   3.470   7.321  11.745 -0.2047  0.5137 -1.3679
  578MOL0     H76260   3.402   7.357  11.293  1.2701  1.4166 -2.6579
  578MOL0     H76261   3.221   7.405  11.103  2.7309 -0.7369  0.6383
  578MOL0     H76262   2.964   7.696  11.148  0.1589  0.5097 -0.6815
  578MOL0     H76263   2.834   7.592  11.228 -1.4771  0.7263 -1.6228
  578MOL0     H76264   2.782   7.505  11.004 -1.1084  0.9027  0.4321
  578MOL0     H76265   2.902   7.598  10.923 -0.7802  0.4390 -1.1158
  578MOL0     H76266   2.785   7.812  11.022  0.6982 -1.5843  1.9365
  578MOL0     H76267   2.668   7.707  11.101  0.5183 -0.2825  0.4266
  578MOL0     H76268   2.557   7.800  10.915 -0.9078 -2.8888  3.0578
  578MOL0     H76269   2.699   7.764  10.799  1.0979  1.4564  0.4254
  578MOL0     H76270   2.505   7.571  10.942  2.2007 -3.8848  0.0905
  578MOL0     H76271   2.639   7.516  10.854 -1.6599 -1.0021  0.9658
  578MOL0     H76272   2.437   7.512  10.717 -2.5383  1.0179 -2.3945
  578MOL0     H76273   2.557   7.615  10.649 -2.1076  1.2449 -2.1745
  578MOL0     H76274   2.309   7.720  10.815 -1.7903 -2.6362 -0.4831
  578MOL0     H76275   2.417   7.810  10.711  1.1476 -0.3594 -2.0655
  578MOL0     H76276   2.331   7.679  10.519 -2.5260 -1.8293 -1.4923
  578MOL0     H76277   2.204   7.765  10.603 -0.1688  0.4219  0.8417
  578MOL0     H76278   2.963   7.550  11.400  1.0506  0.8606  0.2377
  578MOL0     H76279   3.108   7.501  11.572 -0.5589  2.2065 -0.7582
  578MOL0     H76280   3.597   7.714  11.652 -0.1922 -1.0040 -0.0103
  578MOL0     H76281   3.795   7.691  11.828  1.5397 -1.0977 -2.0218
  578MOL0     H76282   5.027   8.012  11.318 -0.4283 -1.3049  1.1627
  578MOL0     H76283   5.265   8.079  11.332 -0.3530  0.9331 -0.5143
  578MOL0     H76284   5.645   8.090  11.384  0.1946  1.5226 -0.3014
  578MOL0     H76285   5.877   8.198  11.409  0.1416  2.6210 -2.0483
  578MOL0     H76286   6.096   8.196  11.048 -0.5401 -1.4832  0.0471
  578MOL0     H76287   6.240   8.164  11.158 -0.3769 -0.7511 -1.5214
  578MOL0     H76288   6.105   8.431  11.082 -0.5340  1.2732  1.7635
  578MOL0     H76289   6.188   8.420  11.232 -0.0678  0.7867 -0.4872
  578MOL0     H76290   6.310   8.512  11.044  0.6818  0.4987  2.0089
  578MOL0     H76291   6.295   8.358  10.954 -2.3066 -0.7219  1.8753
  578MOL0     H76292   6.430   8.390  11.226 -1.0101  3.7316 -2.0531
  578MOL0     H76293   6.428   8.235  11.152  0.0747 -0.5212 -0.9023
  578MOL0     H76294   6.707   8.448  10.903  1.2927 -0.9801  0.5038
  578MOL0     H76295   6.004   7.992  11.050  0.8576 -0.4039  1.3214
  578MOL0     H76296   5.804   7.860  11.066  0.2231  1.1820 -1.3909
  579MOL0     O76297   4.853   5.981   3.394  0.0730  0.4283 -0.1633
  579MOL0     C76298   4.867   5.944   3.282 -0.3909  0.3448 -0.9363
  579MOL0     O76299   4.771   5.946   3.183  0.5073 -0.0025 -0.6432
  579MOL0     C76300   4.635   5.971   3.206 -0.4856 -0.0313 -0.1106
  579MOL0     C76301   4.562   5.949   3.327  0.3491 -0.2843 -0.1603
  579MOL0     C76302   4.429   5.979   3.341  0.5123 -0.3593 -0.5971
  579MOL0     C76303   4.354   6.010   3.226  0.3137  0.5040 -0.3349
  579MOL0     O76304   4.224   6.050   3.221 -0.1806 -0.1046  0.4858
  579MOL0     C76305   4.135   5.988   3.311  0.1199  0.4593 -0.0396
  579MOL0     C76306   3.987   5.998   3.262  0.4879 -0.7290 -0.3570
  579MOL0     C76307   3.896   6.066   3.371  0.9059  0.2100  0.3863
  579MOL0     C76308   3.750   6.058   3.335  0.3310 -0.3160 -0.2983
  579MOL0     C76309   3.663   6.133   3.432 -0.8609 -0.7254 -0.5584
  579MOL0     C76310   3.512   6.131   3.398 -0.8498  0.3489 -0.1319
  579MOL0     C76311   3.491   6.224   3.278 -0.0987 -0.1801  1.2229
  579MOL0     C76312   3.344   6.277   3.262 -0.4022  0.5402 -0.1428
  579MOL0     N76313   3.337   6.373   3.152  1.1647 -0.1484 -0.1131
  579MOL0     C76314   3.342   6.343   3.020 -0.0499  0.4245 -0.2173
  579MOL0     C76315   3.322   6.452   2.950  0.0648 -0.0820  0.2058
  579MOL0     C76316   3.301   6.464   2.801  0.2139 -0.5730 -1.3093
  579MOL0     C76317   3.164   6.526   2.765  0.7087  0.3168  1.0536
  579MOL0     C76318   3.146   6.526   2.607  0.1200  0.0381 -0.0699
  579MOL0     C76319   3.045   6.627   2.556 -0.2168  0.2698 -0.8528
  579MOL0     O76320   2.918   6.593   2.626 -0.0190  0.3467  0.6826
  579MOL0     C76321   2.802   6.611   2.546  0.0321  0.2488 -0.3049
  579MOL0     C76322   2.689   6.531   2.581  0.5487 -0.2004 -0.4424
  579MOL0     C76323   2.568   6.558   2.525  0.8456  0.1431  0.0050
  579MOL0     C76324   2.547   6.657   2.424 -0.6960  0.0993 -0.3383
  579MOL0     C76325   2.414   6.688   2.365 -0.1524 -0.2893 -0.0605
  579MOL0     O76326   2.410   6.777   2.261 -0.1637  0.5616 -0.8464
  579MOL0     C76327   2.294   6.803   2.191  0.1487  1.3310 -0.0971
  579MOL0     C76328   2.215   6.700   2.133  0.8799  0.2415 -0.2296
  579MOL0     C76329   2.094   6.731   2.070  1.5349 -0.3469  0.7375
  579MOL0     C76330   2.054   6.869   2.063 -0.3442  0.1327 -0.1159
  579MOL0     O76331   1.945   6.908   1.993 -0.7531  0.1981  0.3509
  579MOL0     C76332   1.848   6.971   2.071 -0.2559  0.0321 -0.1078
  579MOL0     C76333   1.711   6.955   1.998 -0.0838  0.2383 -0.3203
  579MOL0     C76334   1.661   6.806   2.002 -0.7200 -0.2348  0.2210
  579MOL0     C76335   1.552   6.803   1.898  0.0345 -0.6112 -0.1153
  579MOL0     C76336   1.457   6.684   1.911 -0.2241  0.6051 -0.6974
  579MOL0     C76337   1.332   6.694   1.816 -0.6763 -0.0481 -0.1563
  579MOL0     C76338   1.236   6.587   1.838 -0.3422  0.2296  0.9271
  579MOL0     C76339   1.110   6.598   1.758 -0.6947  0.2207 -0.0995
  579MOL0    Cl76340   1.009   6.452   1.793 -0.2447 -0.0123 -0.1841
  579MOL0     C76341   2.148   6.964   2.093  0.2888 -1.0724  0.0807
  579MOL0     C76342   2.262   6.935   2.164 -0.0334 -0.2110 -0.0176
  579MOL0     O76343   2.321   6.644   2.432  0.1546 -0.0714  0.6133
  579MOL0     C76344   2.657   6.740   2.393 -1.1200 -0.0338 -0.4988
  579MOL0     C76345   2.781   6.718   2.454 -0.0867  0.6960 -0.8935
  579MOL0     N76346   3.336   6.559   3.031 -0.6500  0.5750 -0.2396
  579MOL0     N76347   3.350   6.510   3.154  0.3115  0.3253  0.0304
  579MOL0     C76348   4.413   6.005   3.095  0.0618 -0.4755 -0.3452
  579MOL0     C76349   4.558   5.985   3.089  0.2002 -0.5453 -0.1724
  579MOL0     C76350   5.011   5.916   3.245  0.2176 -0.5393  0.0587
  579MOL0     C76351   5.104   5.891   3.345  0.2052 -0.0553 -0.2144
  579MOL0     C76352   5.238   5.873   3.302  0.4177 -0.8606 -0.2019
  579MOL0     C76353   5.275   5.881   3.165 -0.3443  0.7286  0.1442
  579MOL0     O76354   5.407   5.842   3.140  0.1870 -0.2602  0.4226
  579MOL0     C76355   5.438   5.839   3.003 -0.2257 -0.6244 -0.6617
  579MOL0     C76356   5.587   5.836   2.982 -0.5516 -0.8321  0.2303
  579MOL0     C76357   5.672   5.962   3.017 -0.1905 -0.4759  0.4304
  579MOL0     C76358   5.823   5.939   2.986 -0.0945 -0.1345 -0.0339
  579MOL0     C76359   5.850   5.931   2.843  0.5321  0.9454  0.1533
  579MOL0     C76360   5.877   5.928   2.726  0.6873  0.6627 -0.1216
  579MOL0     C76361   5.177   5.901   3.071 -0.2828 -0.8514 -0.0729
  579MOL0     C76362   5.044   5.915   3.111 -0.7278  0.3103  0.0084
  579MOL0     H76363   4.620   5.919   3.414 -0.5822 -3.7870 -0.5828
  579MOL0     H76364   4.386   5.987   3.441  1.4962 -3.0622  0.1423
  579MOL0     H76365   4.141   6.037   3.408 -0.1417 -0.2504  0.3385
  579MOL0     H76366   4.161   5.883   3.330  1.4409  0.5941 -0.9182
  579MOL0     H76367   3.946   5.897   3.251 -2.9861 -0.0005  3.6715
  579MOL0     H76368   3.984   6.063   3.174 -1.3011  1.6845  1.3777
  579MOL0     H76369   3.931   6.169   3.377  0.4648  0.2830  2.2803
  579MOL0     H76370   3.901   6.021   3.470 -0.6232 -1.6997 -0.3427
  579MOL0     H76371   3.721   6.101   3.239 -3.2052 -2.0564 -0.1792
  579MOL0     H76372   3.723   5.952   3.328  1.0998 -0.6872  1.7107
  579MOL0     H76373   3.712   6.230   3.445 -0.9385 -0.9733  2.2691
  579MOL0     H76374   3.659   6.086   3.531 -2.5348  2.0102  0.7953
  579MOL0     H76375   3.473   6.177   3.489 -0.4740 -2.0997  1.3903
  579MOL0     H76376   3.476   6.031   3.373  1.7407 -0.6232 -0.3386
  579MOL0     H76377   3.560   6.308   3.289 -2.2814  1.4642  3.4128
  579MOL0     H76378   3.506   6.169   3.185 -1.8439  1.1202  0.1215
  579MOL0     H76379   3.302   6.318   3.354  3.0339  1.1248  1.3351
  579MOL0     H76380   3.283   6.192   3.229  0.7426 -0.4379  0.1627
  579MOL0     H76381   3.338   6.241   2.981  0.1207  0.5512 -0.5735
  579MOL0     H76382   3.328   6.367   2.758  0.0772 -0.9726 -0.5330
  579MOL0     H76383   3.381   6.529   2.766  1.8863  0.3274  3.4559
  579MOL0     H76384   3.148   6.629   2.798 -0.6429  0.7005 -0.6289
  579MOL0     H76385   3.082   6.464   2.802  1.2442 -0.8212  0.3864
  579MOL0     H76386   3.245   6.547   2.566  2.4177 -4.8586  2.1028
  579MOL0     H76387   3.112   6.425   2.583 -1.0178 -0.1655  2.1568
  579MOL0     H76388   3.037   6.629   2.447  4.0261  1.9651 -1.3137
  579MOL0     H76389   3.092   6.724   2.572  1.3734 -0.6240  0.1753
  579MOL0     H76390   2.690   6.460   2.663 -3.2782  1.1120  0.9577
  579MOL0     H76391   2.481   6.505   2.560  1.9704 -4.1902 -2.8932
  579MOL0     H76392   2.247   6.596   2.140  1.9902  0.6570  1.7751
  579MOL0     H76393   2.040   6.648   2.027  1.8851 -0.5652  0.7148
  579MOL0     H76394   1.859   7.079   2.066 -1.9187  0.4878  3.2149
  579MOL0     H76395   1.845   6.932   2.173 -1.2401 -1.6385 -0.7266
  579MOL0     H76396   1.710   6.996   1.897 -1.8127 -0.2624 -0.5338
  579MOL0     H76397   1.629   7.003   2.052 -1.7584  1.7278 -3.8748
  579MOL0     H76398   1.617   6.784   2.100  0.0306  1.5398  1.0104
  579MOL0     H76399   1.746   6.738   1.989 -0.1613 -0.1367  2.7915
  579MOL0     H76400   1.490   6.892   1.890 -0.7863 -1.1788 -0.2345
  579MOL0     H76401   1.606   6.798   1.803  2.7099 -3.8309  1.3583
  579MOL0     H76402   1.409   6.689   2.009 -1.6225 -0.1896 -1.3143
  579MOL0     H76403   1.506   6.589   1.885 -0.1455  0.8700 -1.5693
  579MOL0     H76404   1.371   6.700   1.714  1.3981  0.5047  0.6211
  579MOL0     H76405   1.284   6.791   1.834  0.9126  0.7070  0.1845
  579MOL0     H76406   1.285   6.492   1.811  2.3663  1.6390  0.5158
  579MOL0     H76407   1.210   6.586   1.944 -0.0604  0.3225  0.9980
  579MOL0     H76408   1.125   6.603   1.650  1.2487 -0.9722  0.0590
  579MOL0     H76409   1.068   6.691   1.796  2.3429  1.2410  1.0864
  579MOL0     H76410   2.121   7.067   2.070  5.4117  0.7499  0.8847
  579MOL0     H76411   2.322   7.019   2.199 -0.1476  0.9920 -2.4567
  579MOL0     H76412   2.654   6.820   2.319  2.0990  1.6583  0.9738
  579MOL0     H76413   2.855   6.785   2.411  1.2008 -0.5701 -0.7214
  579MOL0     H76414   4.359   6.016   3.002 -0.3310  0.1539 -0.0471
  579MOL0     H76415   4.605   5.973   2.992  1.0799  2.4422 -0.2276
  579MOL0     H76416   5.069   5.875   3.447  2.7579  0.9353  0.9146
  579MOL0     H76417   5.307   5.857   3.385 -0.7307 -3.8535  0.3188
  579MOL0     H76418   5.407   5.931   2.954  2.0383 -0.6467 -2.2452
  579MOL0     H76419   5.391   5.758   2.946 -0.6349 -0.1126 -1.0543
  579MOL0     H76420   5.629   5.744   3.024 -3.4067 -2.3530  0.0120
  579MOL0     H76421   5.601   5.823   2.874 -0.5060  0.9837 -0.0029
  579MOL0     H76422   5.661   5.994   3.121  2.8224  1.2985  0.2986
  579MOL0     H76423   5.641   6.042   2.949  1.2931 -0.9510 -0.8713
  579MOL0     H76424   5.873   6.031   3.014 -2.5152  1.9351 -1.9376
  579MOL0     H76425   5.862   5.856   3.045 -0.4882  1.6550  2.9456
  579MOL0     H76426   5.906   5.924   2.623  2.7223 -0.1192  0.4240
  579MOL0     H76427   5.200   5.906   2.965 -0.3922  0.0807 -0.0569
  579MOL0     H76428   4.967   5.930   3.036 -0.6477 -1.9052 -0.5810
  580MOL0     O76429   2.847   5.051   8.807 -0.1030  0.1395 -0.0689
  580MOL0     C76430   2.894   5.123   8.895 -0.0786  0.6812 -1.3510
  580MOL0     O76431   2.891   5.104   9.033  0.4926 -0.1665  0.6893
  580MOL0     C76432   2.808   5.004   9.071 -0.4919 -0.0791 -0.4695
  580MOL0     C76433   2.878   4.895   9.112 -0.0934  0.4501 -0.5548
  580MOL0     C76434   2.792   4.780   9.142 -0.2588 -0.1585 -0.4564
  580MOL0     C76435   2.652   4.791   9.145  0.7987 -0.2203 -0.2380
  580MOL0     O76436   2.571   4.680   9.176 -0.4436 -0.6264  0.3848
  580MOL0     C76437   2.493   4.689   9.289  0.8426 -0.4739 -0.2317
  580MOL0     C76438   2.473   4.558   9.349  0.3725 -0.0463 -0.2735
  580MOL0     C76439   2.382   4.474   9.264 -0.0618  0.1622  0.2944
  580MOL0     C76440   2.358   4.332   9.313 -0.1386  0.5959 -1.4026
  580MOL0     C76441   2.296   4.321   9.450 -0.6075  0.1346  0.2414
  580MOL0     C76442   2.242   4.179   9.477 -0.3425  0.7544 -0.7316
  580MOL0     C76443   2.210   4.151   9.622 -0.3212  0.1074 -0.1698
  580MOL0     C76444   2.185   4.001   9.646 -0.8152 -0.1385  0.3869
  580MOL0     N76445   2.114   3.998   9.776  0.1681 -0.2490 -0.2320
  580MOL0     C76446   2.019   3.898   9.796  0.2132 -0.5029  0.3418
  580MOL0     C76447   2.026   3.870   9.921  0.6540 -0.8132 -0.1351
  580MOL0     C76448   1.964   3.756   9.991  0.2882  0.3055  0.1847
  580MOL0     C76449   1.819   3.784  10.050 -0.3241  0.8612 -0.3602
  580MOL0     C76450   1.750   3.659  10.117  0.2258 -0.3683  0.2043
  580MOL0     C76451   1.598   3.682  10.120 -0.3948  0.0849  0.1924
  580MOL0     O76452   1.528   3.580  10.194 -0.6581  0.0005  0.0076
  580MOL0     C76453   1.388   3.577  10.199 -0.4588 -0.0632 -0.6067
  580MOL0     C76454   1.328   3.486  10.287  0.1327 -0.5632 -0.0734
  580MOL0     C76455   1.187   3.475  10.291  0.3709 -0.7061 -0.8007
  580MOL0     C76456   1.105   3.564  10.223  0.3318  0.4011 -0.2282
  580MOL0     C76457   0.960   3.563  10.228 -0.6511 -0.5661  0.0811
  580MOL0     O76458   0.892   3.679  10.196 -0.5629  0.3044 -0.2789
  580MOL0     C76459   0.762   3.678  10.183 -0.0792  0.4684  0.3139
  580MOL0     C76460   0.672   3.677  10.288  0.1887  1.0895  0.0473
  580MOL0     C76461   0.540   3.679  10.257  0.5032  0.1059 -0.3983
  580MOL0     C76462   0.484   3.705  10.129  0.4540  0.1212 -0.0570
  580MOL0     O76463   0.358   3.738  10.096  0.4126 -0.8122  0.3208
  580MOL0     C76464   0.252   3.727  10.187  0.7502 -0.6581 -0.4595
  580MOL0     C76465   0.138   3.776  10.103  0.4427 -0.3074 -0.2908
  580MOL0     C76466   0.011   3.762  10.185  0.6862 -0.1930  0.2107
  580MOL0     C76467  -0.109   3.775  10.086  0.3293  0.2945  0.0902
  580MOL0     C76468  -0.241   3.803  10.149 -0.1818 -0.0447  0.5125
  580MOL0     C76469  -0.359   3.802  10.059  0.3250  0.1742 -0.7551
  580MOL0     C76470  -0.480   3.838  10.145 -0.8778 -0.4118 -0.1289
  580MOL0     C76471  -0.604   3.859  10.059 -0.5224  0.3480 -0.1658
  580MOL0    Cl76472  -0.715   3.984  10.129 -0.0407  0.0476  0.3582
  580MOL0     C76473   0.576   3.712  10.028 -0.0986 -0.8808  0.4555
  580MOL0     C76474   0.711   3.702  10.048  0.0217  0.7163 -0.4432
  580MOL0     O76475   0.904   3.461  10.266 -0.8319 -0.9537 -0.4686
  580MOL0     C76476   1.162   3.651  10.136  0.0363 -0.3010  0.0020
  580MOL0     C76477   1.303   3.664  10.127  0.0744  0.1856 -0.1927
  580MOL0     N76478   2.121   3.940   9.986  0.1820 -0.3049 -0.1831
  580MOL0     N76479   2.176   4.014   9.899 -0.5140 -0.6580  0.0905
  580MOL0     C76480   2.587   4.897   9.099  0.5006  0.1829 -0.7841
  580MOL0     C76481   2.666   5.006   9.068 -0.2140  0.0440 -0.1018
  580MOL0     C76482   2.976   5.238   8.859  0.1156 -0.1454 -0.3406
  580MOL0     C76483   2.983   5.280   8.723  0.1295  0.0997  0.1569
  580MOL0     C76484   3.078   5.376   8.682 -0.1835  0.7982  0.8500
  580MOL0     C76485   3.147   5.450   8.773  0.1628  1.2783 -0.0400
  580MOL0     O76486   3.216   5.563   8.737 -0.5679  0.2431  0.5305
  580MOL0     C76487   3.283   5.584   8.611  0.4710 -0.0685  0.0321
  580MOL0     C76488   3.353   5.720   8.603 -0.1119  0.3800  0.2910
  580MOL0     C76489   3.445   5.723   8.483 -0.2531  0.5555  0.5098
  580MOL0     C76490   3.483   5.866   8.455 -0.6313 -0.8152 -0.3559
  580MOL0     C76491   3.593   5.882   8.357 -0.1379 -0.6890  0.3619
  580MOL0     C76492   3.693   5.903   8.293 -0.3565  0.5997  0.1335
  580MOL0     C76493   3.128   5.422   8.910 -0.1101 -1.7273  0.0181
  580MOL0     C76494   3.051   5.311   8.957  0.8598 -0.4435  0.0820
  580MOL0     H76495   2.986   4.896   9.118 -0.1075 -1.3369  1.6566
  580MOL0     H76496   2.835   4.682   9.160  1.8226  0.0159 -3.6259
  580MOL0     H76497   2.397   4.735   9.264  0.3969 -0.0705  2.0547
  580MOL0     H76498   2.538   4.742   9.373  0.6030 -1.3232  0.4491
  580MOL0     H76499   2.420   4.579   9.443  2.0404 -1.9929  1.1893
  580MOL0     H76500   2.566   4.503   9.360  0.6902 -0.5689 -4.2034
  580MOL0     H76501   2.414   4.484   9.159 -0.0029  1.8521  0.4420
  580MOL0     H76502   2.283   4.520   9.265 -0.3180 -0.3849  0.3677
  580MOL0     H76503   2.305   4.267   9.242 -0.2196  0.9007 -1.6239
  580MOL0     H76504   2.462   4.299   9.316 -0.6899 -1.2781  1.4252
  580MOL0     H76505   2.220   4.397   9.468  1.2853  1.8564  1.3649
  580MOL0     H76506   2.365   4.352   9.529 -2.5706  0.5436  1.8787
  580MOL0     H76507   2.321   4.108   9.450 -0.7555  0.4917 -1.2962
  580MOL0     H76508   2.156   4.166   9.410  0.0828  1.1676 -1.3693
  580MOL0     H76509   2.286   4.189   9.692  1.8481  0.1346 -2.4044
  580MOL0     H76510   2.126   4.215   9.652 -2.2683 -1.5361 -1.8050
  580MOL0     H76511   2.277   3.945   9.663  0.5133  2.1870  1.4177
  580MOL0     H76512   2.134   3.950   9.563  0.5053 -1.9806  0.6628
  580MOL0     H76513   1.957   3.840   9.729  0.2511 -0.1732  0.0188
  580MOL0     H76514   2.018   3.712  10.075  1.0147 -0.7479 -0.8078
  580MOL0     H76515   1.953   3.673   9.920  1.9516  1.3982 -1.4446
  580MOL0     H76516   1.759   3.817   9.965  2.3399  2.3250 -1.8052
  580MOL0     H76517   1.829   3.867  10.121  1.0863 -1.5204  2.4424
  580MOL0     H76518   1.767   3.572  10.053 -1.6882  0.0150 -0.8987
  580MOL0     H76519   1.792   3.631  10.214  3.1983 -0.0111 -0.8707
  580MOL0     H76520   1.569   3.687  10.014  2.9124 -1.1708 -0.9138
  580MOL0     H76521   1.566   3.774  10.169  0.2274  1.4480 -1.8188
  580MOL0     H76522   1.387   3.418  10.347 -2.9531 -1.3355  2.3137
  580MOL0     H76523   1.152   3.397  10.358  1.0244 -1.4717 -1.3445
  580MOL0     H76524   0.704   3.662  10.391 -1.1094 -0.1920  0.2978
  580MOL0     H76525   0.472   3.661  10.340  2.5224  0.2416  1.3935
  580MOL0     H76526   0.253   3.792  10.275 -0.7833  0.1637 -1.0036
  580MOL0     H76527   0.240   3.625  10.224 -3.3705 -0.2556 -0.2287
  580MOL0     H76528   0.129   3.712  10.015 -0.3159 -1.8245  0.8451
  580MOL0     H76529   0.160   3.875  10.062  1.6166 -0.3657  0.1755
  580MOL0     H76530   0.020   3.850  10.250  1.6467  0.7592 -1.1598
  580MOL0     H76531   0.008   3.669  10.242  2.1784  0.9096  2.2636
  580MOL0     H76532  -0.097   3.855  10.011  1.7588  1.1125  1.1495
  580MOL0     H76533  -0.118   3.685  10.025 -1.1966  0.4011  0.1044
  580MOL0     H76534  -0.232   3.907  10.183 -0.0036 -0.1234  0.7099
  580MOL0     H76535  -0.262   3.744  10.239 -1.7468  0.3562  0.4487
  580MOL0     H76536  -0.374   3.707  10.008 -2.9404  0.7647 -1.0689
  580MOL0     H76537  -0.339   3.877   9.982  1.1165  1.5666  0.7505
  580MOL0     H76538  -0.504   3.763  10.222 -0.6909 -1.2692 -0.8807
  580MOL0     H76539  -0.449   3.934  10.187  2.3918 -1.2073 -0.4893
  580MOL0     H76540  -0.666   3.769  10.059  1.4517 -1.0988 -1.1141
  580MOL0     H76541  -0.588   3.881   9.953 -1.9540  0.2367 -0.4270
  580MOL0     H76542   0.552   3.722   9.922 -0.6284  0.8566  0.7115
  580MOL0     H76543   0.782   3.713   9.966  0.1405 -0.8324 -0.5796
  580MOL0     H76544   1.098   3.710  10.071 -1.5109 -2.6958 -0.8052
  580MOL0     H76545   1.338   3.743  10.062  1.1973 -2.1749 -2.6346
  580MOL0     H76546   2.479   4.908   9.097  0.4129  0.3362  1.6781
  580MOL0     H76547   2.625   5.104   9.044 -2.0487 -0.7072 -0.2058
  580MOL0     H76548   2.918   5.228   8.654 -0.9068  1.0285  0.4014
  580MOL0     H76549   3.079   5.384   8.574  0.1885  2.1747  0.9372
  580MOL0     H76550   3.198   5.567   8.545 -1.0053  1.8645  1.3176
  580MOL0     H76551   3.362   5.509   8.604 -0.7997 -1.4476  0.1875
  580MOL0     H76552   3.265   5.784   8.591  0.1311  0.6600 -0.0310
  580MOL0     H76553   3.405   5.758   8.692  0.4277  1.5535 -0.5018
  580MOL0     H76554   3.396   5.681   8.394  0.1033 -1.2559  1.1183
  580MOL0     H76555   3.536   5.669   8.509 -1.7494 -2.0890  0.6235
  580MOL0     H76556   3.395   5.910   8.406  0.9575 -0.2266 -2.8268
  580MOL0     H76557   3.511   5.924   8.544  2.9004  0.0945 -1.9113
  580MOL0     H76558   3.787   5.913   8.243 -0.1090  0.0527  0.4746
  580MOL0     H76559   3.177   5.484   8.985  0.3768 -0.3896 -1.3525
  580MOL0     H76560   3.042   5.281   9.061  0.3805 -0.8845 -0.0809
  581MOL0     O76561   3.059   4.824  10.515 -0.5001 -0.2370  0.4907
  581MOL0     C76562   3.088   4.943  10.528 -0.2595 -0.6056 -0.7898
  581MOL0     O76563   3.028   5.026  10.622 -0.3962 -0.0025  0.0333
  581MOL0     C76564   2.916   4.975  10.697 -0.1625 -1.0098 -0.4705
  581MOL0     C76565   2.931   4.863  10.785 -0.8502 -0.1754 -0.1110
  581MOL0     C76566   2.821   4.816  10.860  0.2418  0.5100 -0.3272
  581MOL0     C76567   2.701   4.885  10.855  0.8118  0.7130 -0.1335
  581MOL0     O76568   2.591   4.843  10.921 -0.1903  0.6015 -0.2585
  581MOL0     C76569   2.466   4.827  10.840 -0.2071  0.5707 -0.1176
  581MOL0     C76570   2.395   4.697  10.881  0.5259  0.6866 -0.3454
  581MOL0     C76571   2.340   4.696  11.025  0.5249  0.4594 -0.8978
  581MOL0     C76572   2.204   4.769  11.036  0.2632 -0.2397 -0.3231
  581MOL0     C76573   2.137   4.774  11.180 -0.8501 -0.0675  0.3560
  581MOL0     C76574   2.091   4.632  11.222 -0.0556  0.7026  0.2269
  581MOL0     C76575   2.029   4.622  11.358 -0.3742  0.0252 -0.1131
  581MOL0     C76576   1.978   4.479  11.394 -0.8544 -1.2504 -0.0597
  581MOL0     N76577   1.896   4.470  11.519 -0.3723 -0.6673  1.0277
  581MOL0     C76578   1.883   4.563  11.620  0.0822  0.0115  0.6843
  581MOL0     C76579   1.811   4.497  11.715  0.8524 -1.0245  0.2067
  581MOL0     C76580   1.782   4.535  11.861  0.0904  0.3208 -0.2629
  581MOL0     C76581   1.633   4.551  11.886 -1.1124 -0.5448 -0.8583
  581MOL0     C76582   1.563   4.430  11.942  0.2392  0.2963  0.1713
  581MOL0     C76583   1.416   4.461  11.987  0.3911  0.2700 -0.1412
  581MOL0     O76584   1.399   4.565  12.084 -0.4660  0.6447 -0.0542
  581MOL0     C76585   1.279   4.591  12.136 -0.1453  0.1773  0.1591
  581MOL0     C76586   1.294   4.652  12.264  0.1593  0.2638  0.7955
  581MOL0     C76587   1.176   4.682  12.337 -1.0808 -0.3460 -0.2017
  581MOL0     C76588   1.052   4.633  12.302 -0.2197  0.2136  0.9662
  581MOL0     C76589   0.931   4.642  12.384  0.2191  0.9798 -0.5461
  581MOL0     O76590   0.823   4.566  12.345 -0.4513 -0.0526 -0.5302
  581MOL0     C76591   0.698   4.582  12.395 -0.6763 -0.1120 -0.9953
  581MOL0     C76592   0.672   4.614  12.530 -0.2952  0.2456  0.3681
  581MOL0     C76593   0.540   4.630  12.567 -0.9544 -1.3530 -0.3493
  581MOL0     C76594   0.433   4.612  12.479  0.4130 -0.1856 -0.4425
  581MOL0     O76595   0.300   4.621  12.500  0.3824  1.0888 -0.5419
  581MOL0     C76596   0.257   4.568  12.628  0.7533 -0.2291 -0.5135
  581MOL0     C76597   0.104   4.580  12.648 -0.0031  0.7783 -0.2331
  581MOL0     C76598   0.032   4.538  12.518 -0.0478  0.4221 -0.2197
  581MOL0     C76599  -0.120   4.559  12.523  0.3381  0.1224 -0.1239
  581MOL0     C76600  -0.199   4.456  12.433 -0.0188 -0.8034 -0.2968
  581MOL0     C76601  -0.350   4.459  12.472 -0.1398 -0.0550  0.2114
  581MOL0     C76602  -0.385   4.394  12.616  0.6651  0.0027 -0.0231
  581MOL0     C76603  -0.508   4.305  12.618  0.2243  0.3153 -0.7608
  581MOL0    Cl76604  -0.647   4.399  12.547  0.0585 -0.4108  0.1007
  581MOL0     C76605   0.458   4.575  12.339  0.5301  0.4596  0.0943
  581MOL0     C76606   0.593   4.567  12.299 -0.7191 -0.5424  0.8210
  581MOL0     O76607   0.943   4.707  12.486 -0.3501 -0.1983 -0.0135
  581MOL0     C76608   1.047   4.562  12.172  0.9204 -0.4350  0.4719
  581MOL0     C76609   1.155   4.544  12.100 -0.1828  0.5476  0.4160
  581MOL0     N76610   1.761   4.379  11.667  0.1482 -0.0685  0.2368
  581MOL0     N76611   1.812   4.366  11.546 -0.0665 -0.1000  0.6188
  581MOL0     C76612   2.686   4.991  10.769 -0.8288 -0.8401  0.3997
  581MOL0     C76613   2.790   5.043  10.686  0.5622 -0.5420 -0.5289
  581MOL0     C76614   3.193   4.995  10.437  0.0410 -0.0071 -0.5576
  581MOL0     C76615   3.273   4.900  10.373 -0.8510  0.4510 -0.1183
  581MOL0     C76616   3.391   4.945  10.300 -0.0416 -0.4652  0.9573
  581MOL0     C76617   3.419   5.083  10.287 -0.0981  0.4641  0.2710
  581MOL0     O76618   3.511   5.144  10.209  1.2368  0.9250  0.5163
  581MOL0     C76619   3.593   5.063  10.110  0.3168 -1.1298  0.9413
  581MOL0     C76620   3.672   5.175  10.034 -0.2387 -0.0496 -0.2188
  581MOL0     C76621   3.750   5.105   9.912 -0.5286 -0.2348 -0.7301
  581MOL0     C76622   3.870   5.198   9.869 -0.0833  0.0881  0.1802
  581MOL0     C76623   3.834   5.295   9.768 -0.7142  0.3574  0.4007
  581MOL0     C76624   3.787   5.367   9.688 -0.5478  0.2050  0.4330
  581MOL0     C76625   3.324   5.172  10.344  0.7874 -0.2682 -0.1153
  581MOL0     C76626   3.209   5.134  10.416 -0.0842 -0.1043 -0.1793
  581MOL0     H76627   3.023   4.807  10.804 -0.0740  2.1583  4.4928
  581MOL0     H76628   2.837   4.738  10.933  1.5580  2.4738  1.6077
  581MOL0     H76629   2.490   4.812  10.735  1.8817  0.2896  0.3657
  581MOL0     H76630   2.408   4.917  10.863  2.5012  1.4712  4.4069
  581MOL0     H76631   2.466   4.616  10.862 -0.3819 -0.1163 -0.4265
  581MOL0     H76632   2.307   4.681  10.817 -0.6956  2.0676  0.9072
  581MOL0     H76633   2.414   4.746  11.088 -0.2696  1.2134 -0.5438
  581MOL0     H76634   2.339   4.594  11.063  0.4164  1.1804  1.1489
  581MOL0     H76635   2.220   4.873  11.008  0.0681  0.6622  2.6026
  581MOL0     H76636   2.136   4.741  10.955  1.0097  0.3763 -1.1816
  581MOL0     H76637   2.056   4.846  11.196 -1.7376 -0.3920 -2.1988
  581MOL0     H76638   2.220   4.794  11.248  0.5998  1.3903 -1.7174
  581MOL0     H76639   2.178   4.567  11.223  0.6563  1.3179 -3.8652
  581MOL0     H76640   2.020   4.592  11.148  2.4472  0.0989 -2.0210
  581MOL0     H76641   2.104   4.629  11.437  1.1896 -1.2639 -1.3874
  581MOL0     H76642   1.954   4.700  11.376  2.7965  2.4637  4.6682
  581MOL0     H76643   2.064   4.413  11.406 -0.8633 -1.0295  1.4356
  581MOL0     H76644   1.910   4.447  11.315 -0.9869  0.9762 -0.9096
  581MOL0     H76645   1.953   4.642  11.644  1.2899 -1.0078  0.6004
  581MOL0     H76646   1.837   4.629  11.874 -0.9081  1.3710 -2.9136
  581MOL0     H76647   1.821   4.458  11.929 -4.2629 -2.2076 -0.2512
  581MOL0     H76648   1.587   4.583  11.792  0.2980  1.1384 -1.0029
  581MOL0     H76649   1.625   4.628  11.963  3.5462 -2.2197  1.6977
  581MOL0     H76650   1.560   4.354  11.864  0.8975 -0.4498  0.8614
  581MOL0     H76651   1.618   4.382  12.024  1.5886  0.4480 -0.6247
  581MOL0     H76652   1.359   4.370  12.010 -1.7207  1.3743 -0.7640
  581MOL0     H76653   1.372   4.502  11.895  0.2884  0.4622 -0.0055
  581MOL0     H76654   1.386   4.686  12.309  0.2989  0.7827  0.1304
  581MOL0     H76655   1.191   4.741  12.427 -0.0001  2.6335 -2.1876
  581MOL0     H76656   0.747   4.624  12.609 -1.7259 -3.0784  2.3635
  581MOL0     H76657   0.509   4.661  12.667  1.7931 -1.5176  0.6523
  581MOL0     H76658   0.311   4.608  12.715 -0.5606 -0.3899  0.3950
  581MOL0     H76659   0.279   4.461  12.622  2.2472 -0.3308  3.6207
  581MOL0     H76660   0.093   4.687  12.669  1.8830  0.9615  0.0112
  581MOL0     H76661   0.078   4.508  12.726 -0.6780  0.0818 -1.0867
  581MOL0     H76662   0.066   4.442  12.478  0.5945  0.1609  0.9230
  581MOL0     H76663   0.068   4.606  12.440  2.8344  1.8840  2.1970
  581MOL0     H76664  -0.163   4.546  12.623 -2.4397  0.5612 -1.1644
  581MOL0     H76665  -0.149   4.655  12.481 -3.4535 -1.0191 -0.5605
  581MOL0     H76666  -0.163   4.356  12.458  1.2547  0.1887  2.2459
  581MOL0     H76667  -0.178   4.484  12.330  1.1194 -1.6047 -0.2915
  581MOL0     H76668  -0.409   4.399  12.402 -1.3529  0.3669  0.8428
  581MOL0     H76669  -0.387   4.560  12.452  0.9624  0.0575 -1.4817
  581MOL0     H76670  -0.299   4.341  12.656 -1.4525 -1.2669  3.2335
  581MOL0     H76671  -0.417   4.468  12.691 -0.4224 -1.2263  0.7620
  581MOL0     H76672  -0.525   4.285  12.725  0.0516  2.5786 -0.3189
  581MOL0     H76673  -0.497   4.213  12.559 -1.1969 -0.6516  0.4175
  581MOL0     H76674   0.373   4.575  12.272  0.1472  0.9001  0.5678
  581MOL0     H76675   0.619   4.538  12.198 -0.7558  2.7923 -0.2629
  581MOL0     H76676   0.950   4.526  12.140  1.1059  0.6640 -1.4523
  581MOL0     H76677   1.156   4.508  11.998 -1.0940 -0.6304  0.8010
  581MOL0     H76678   2.592   5.043  10.751 -1.1813 -2.2274 -2.3636
  581MOL0     H76679   2.790   5.120  10.610  1.7184 -1.0406 -1.0616
  581MOL0     H76680   3.252   4.793  10.381  0.0255  0.2061 -0.8591
  581MOL0     H76681   3.459   4.873  10.254  0.0228  0.5999 -0.6878
  581MOL0     H76682   3.536   5.002  10.038 -0.1196  1.3094 -0.9052
  581MOL0     H76683   3.657   4.991  10.161 -3.0698 -2.5486  3.6427
  581MOL0     H76684   3.614   5.256   9.988  1.1964  0.3210 -1.4816
  581MOL0     H76685   3.734   5.228  10.106 -1.6036 -0.9946  1.7459
  581MOL0     H76686   3.683   5.092   9.827 -3.7638  2.3850  1.1662
  581MOL0     H76687   3.789   5.007   9.940 -0.3159 -0.2596 -1.1026
  581MOL0     H76688   3.914   5.246   9.957 -0.3747  0.1334  0.2990
  581MOL0     H76689   3.950   5.135   9.830 -0.6988  0.0514 -1.0567
  581MOL0     H76690   3.753   5.429   9.607  1.0802  0.0889 -0.3847
  581MOL0     H76691   3.348   5.277  10.327  1.3897 -0.2688  0.7155
  581MOL0     H76692   3.148   5.211  10.463 -0.5731 -1.1558  0.9414
  582MOL0     O76693   0.991   4.532  10.617 -0.3202 -0.2092  0.0854
  582MOL0     C76694   1.059   4.432  10.646  0.0403  0.1825 -0.2153
  582MOL0     O76695   1.031   4.315  10.714  0.3302 -0.5144 -0.1859
  582MOL0     C76696   0.916   4.292  10.786  0.4217 -0.2707 -0.2458
  582MOL0     C76697   0.900   4.162  10.842 -0.2663 -0.2102  0.7308
  582MOL0     C76698   0.777   4.128  10.902 -0.3446  0.7374 -0.7724
  582MOL0     C76699   0.677   4.223  10.921  0.5558  0.0714 -0.7253
  582MOL0     O76700   0.576   4.188  10.998  0.0530  0.1227 -0.4748
  582MOL0     C76701   0.442   4.217  10.957 -0.2164 -0.2772  0.0563
  582MOL0     C76702   0.325   4.151  11.040 -0.5559  0.2309 -0.0742
  582MOL0     C76703   0.295   4.004  11.016  0.1641 -0.4759  0.0482
  582MOL0     C76704   0.155   3.967  11.083 -0.9862  0.2153  0.1413
  582MOL0     C76705   0.140   3.813  11.078  0.1523 -1.1779  0.1745
  582MOL0     C76706  -0.004   3.778  11.121 -0.4201 -0.2812  0.6212
  582MOL0     C76707  -0.118   3.840  11.046  0.2682  0.2104  0.3326
  582MOL0     C76708  -0.259   3.777  11.062 -0.0880  0.4823  0.0629
  582MOL0     N76709  -0.360   3.848  10.980  0.0776 -0.2202  0.2913
  582MOL0     C76710  -0.380   3.830  10.851  0.2966 -0.1840  0.1309
  582MOL0     C76711  -0.493   3.897  10.817  0.0591  0.1538  0.1290
  582MOL0     C76712  -0.552   3.920  10.684  0.3345 -0.2400 -0.5221
  582MOL0     C76713  -0.672   3.832  10.649 -0.7817  0.8264  0.0913
  582MOL0     C76714  -0.671   3.821  10.495  0.0729 -0.0526 -0.5281
  582MOL0     C76715  -0.811   3.761  10.447 -0.8483 -0.1386 -0.6442
  582MOL0     O76716  -0.900   3.873  10.450 -1.1049  0.4546 -0.5768
  582MOL0     C76717  -1.038   3.848  10.451  0.1397 -1.1248  0.6496
  582MOL0     C76718  -1.093   3.719  10.417 -0.5083 -0.0929  0.2673
  582MOL0     C76719  -1.232   3.710  10.403  0.2090  0.1905 -0.0456
  582MOL0     C76720  -1.320   3.825  10.425  0.2035 -0.4376 -0.2321
  582MOL0     C76721  -1.463   3.808  10.408  0.2636 -1.1497 -0.1878
  582MOL0     O76722  -1.543   3.896  10.475 -0.4254  0.4137 -0.2194
  582MOL0     C76723  -1.681   3.900  10.444 -0.4864  0.1405  1.2608
  582MOL0     C76724  -1.724   4.021  10.390 -0.2827  1.0710 -0.5184
  582MOL0     C76725  -1.856   4.045  10.359  0.9099 -0.8171 -0.0576
  582MOL0     C76726  -1.944   3.942  10.379  0.4617  0.4655  0.8379
  582MOL0     O76727  -2.082   3.962  10.370 -0.2917 -0.4254  0.6549
  582MOL0     C76728  -2.143   4.056  10.275 -0.5992  1.0203  0.0171
  582MOL0     C76729  -2.292   4.044  10.284 -1.4349 -0.0460 -0.3781
  582MOL0     C76730  -2.346   3.902  10.270 -0.2926 -0.1957  1.3385
  582MOL0     C76731  -2.498   3.912  10.278  0.3134  0.6361  0.2223
  582MOL0     C76732  -2.579   3.783  10.286 -0.4383  0.4382 -1.0049
  582MOL0     C76733  -2.566   3.697  10.158  0.1770  1.1069  0.2872
  582MOL0     C76734  -2.656   3.578  10.164 -0.0751 -0.3924  0.2286
  582MOL0     C76735  -2.659   3.488  10.040 -0.2896 -0.5329  0.0471
  582MOL0    Cl76736  -2.739   3.576   9.910 -0.0506  0.1971 -0.2065
  582MOL0     C76737  -1.906   3.819  10.436 -1.1868 -0.6310 -0.9125
  582MOL0     C76738  -1.768   3.803  10.461  0.0265 -0.0009 -0.9689
  582MOL0     O76739  -1.508   3.724  10.334  0.0094  0.0733  0.5973
  582MOL0     C76740  -1.262   3.941  10.463  0.2527 -0.5284  0.4868
  582MOL0     C76741  -1.126   3.958  10.480  0.0800  0.5346  0.3874
  582MOL0     N76742  -0.546   3.949  10.934 -0.8486  0.3673  0.1103
  582MOL0     N76743  -0.463   3.923  11.026 -0.3080  0.0283 -0.3492
  582MOL0     C76744   0.687   4.346  10.864 -0.6615  0.5770 -0.1461
  582MOL0     C76745   0.808   4.381  10.795  0.0794 -0.1481 -0.5698
  582MOL0     C76746   1.189   4.433  10.591 -0.0316  0.6719  0.3389
  582MOL0     C76747   1.232   4.552  10.522 -0.2540 -0.1905 -0.3682
  582MOL0     C76748   1.354   4.566  10.456 -0.5957 -0.7416 -0.2388
  582MOL0     C76749   1.448   4.460  10.468  0.7733 -0.7316 -0.6289
  582MOL0     O76750   1.575   4.487  10.427  0.1817  0.3708  0.5129
  582MOL0     C76751   1.678   4.397  10.467  0.2869  0.0897  0.5581
  582MOL0     C76752   1.810   4.448  10.402  0.0377  0.1288 -0.1693
  582MOL0     C76753   1.929   4.345  10.421  0.1721  0.1182 -0.4856
  582MOL0     C76754   1.990   4.370  10.557 -0.3471 -0.0115 -0.1380
  582MOL0     C76755   2.056   4.498  10.563 -0.0450 -0.8981  0.1849
  582MOL0     C76756   2.126   4.596  10.579 -0.6050  0.2043  0.8990
  582MOL0     C76757   1.402   4.340  10.530  1.0465 -0.1052 -0.0791
  582MOL0     C76758   1.280   4.325  10.590 -0.0807  0.6729 -0.5729
  582MOL0     H76759   0.989   4.101  10.837  0.3725  0.8071 -0.9032
  582MOL0     H76760   0.768   4.031  10.950  1.7375  0.2799 -1.2374
  582MOL0     H76761   0.433   4.184  10.853 -1.4988 -0.0194  0.0662
  582MOL0     H76762   0.422   4.325  10.962 -1.3539 -0.5342  2.1551
  582MOL0     H76763   0.232   4.203  11.012 -1.2984 -1.1972 -0.3452
  582MOL0     H76764   0.336   4.164  11.148  2.3738 -0.3457 -0.2133
  582MOL0     H76765   0.364   3.926  11.051 -1.7438 -1.5621  1.6229
  582MOL0     H76766   0.283   3.981  10.910  0.0155 -2.2525  0.4152
  582MOL0     H76767   0.157   4.000  11.188 -0.7604 -0.8792  0.4921
  582MOL0     H76768   0.069   4.018  11.039 -0.7548  1.2566  0.8589
  582MOL0     H76769   0.213   3.778  11.152 -0.8109 -2.8792  0.3745
  582MOL0     H76770   0.159   3.768  10.980 -0.0497 -1.3485  0.2121
  582MOL0     H76771  -0.003   3.807  11.226  2.7415  0.3343  0.5201
  582MOL0     H76772  -0.024   3.671  11.114 -4.9979  0.4481 -1.4574
  582MOL0     H76773  -0.126   3.943  11.081 -2.3617  0.7608 -1.6062
  582MOL0     H76774  -0.101   3.840  10.938  0.9114 -0.7590  0.4157
  582MOL0     H76775  -0.295   3.775  11.165  1.4096  1.6069  0.6441
  582MOL0     H76776  -0.251   3.670  11.042  1.8577  0.5566  0.1898
  582MOL0     H76777  -0.325   3.762  10.787  1.2952 -0.6749  1.4581
  582MOL0     H76778  -0.476   3.907  10.606 -1.0535 -1.7515 -1.6800
  582MOL0     H76779  -0.598   4.019  10.689 -0.9347 -0.8467  0.3144
  582MOL0     H76780  -0.767   3.875  10.683 -0.9110  0.6404 -0.0285
  582MOL0     H76781  -0.672   3.737  10.704  0.1474  1.6882  1.6386
  582MOL0     H76782  -0.659   3.919  10.448 -1.8610  1.3995  1.7273
  582MOL0     H76783  -0.596   3.745  10.470 -1.7096 -1.6829 -1.1715
  582MOL0     H76784  -0.835   3.676  10.511  3.1428 -2.1360 -1.4416
  582MOL0     H76785  -0.788   3.721  10.347  0.8446 -0.0249 -0.3270
  582MOL0     H76786  -1.041   3.632  10.379 -2.2089 -0.2627 -1.9113
  582MOL0     H76787  -1.285   3.618  10.383 -0.7250  0.6557  0.2214
  582MOL0     H76788  -1.661   4.108  10.378 -0.5452  1.6235  1.7051
  582MOL0     H76789  -1.895   4.139  10.322 -1.8170 -2.2779 -1.1725
  582MOL0     H76790  -2.115   4.030  10.172 -2.6509  4.4004 -1.5489
  582MOL0     H76791  -2.111   4.159  10.290 -0.3986  1.0016 -0.2835
  582MOL0     H76792  -2.318   4.101  10.194  0.9803  1.8471  0.0234
  582MOL0     H76793  -2.325   4.094  10.375  3.6491  0.4795  1.4678
  582MOL0     H76794  -2.304   3.828  10.339  1.0029 -1.9774 -1.2382
  582MOL0     H76795  -2.311   3.864  10.174  4.3695 -0.8707  3.0244
  582MOL0     H76796  -2.530   3.969  10.366  2.4406  0.9295  0.8607
  582MOL0     H76797  -2.535   3.964  10.189  2.2357 -2.0656 -2.3301
  582MOL0     H76798  -2.686   3.809  10.285  0.5124  5.4362 -1.8333
  582MOL0     H76799  -2.546   3.721  10.370 -2.1746  1.5988  0.6255
  582MOL0     H76800  -2.458   3.680  10.152  0.1328  0.8750  0.1497
  582MOL0     H76801  -2.589   3.761  10.073  0.2104  0.2951 -0.3429
  582MOL0     H76802  -2.623   3.518  10.250  2.7186 -0.5401 -0.8504
  582MOL0     H76803  -2.760   3.610  10.168  0.3250  0.8587  1.4931
  582MOL0     H76804  -2.714   3.403  10.082 -0.2229  0.1123  1.4970
  582MOL0     H76805  -2.560   3.459  10.003  0.1360  0.1752  0.6149
  582MOL0     H76806  -1.979   3.744  10.464  1.4396 -1.3958  5.2944
  582MOL0     H76807  -1.727   3.714  10.510 -1.6307 -0.2922 -0.0523
  582MOL0     H76808  -1.325   4.026  10.487  0.3268 -0.4192  0.3007
  582MOL0     H76809  -1.094   4.058  10.507 -0.5747  0.4502  1.5065
  582MOL0     H76810   0.618   4.429  10.869 -0.4289  0.8222 -0.8323
  582MOL0     H76811   0.813   4.485  10.764 -1.8956 -0.1774 -1.1091
  582MOL0     H76812   1.175   4.643  10.533  1.6602  0.8759  1.4424
  582MOL0     H76813   1.389   4.658  10.410 -0.0287 -0.5335  0.5950
  582MOL0     H76814   1.661   4.293  10.439  0.1173  0.2979 -0.1412
  582MOL0     H76815   1.684   4.398  10.576  2.4614 -0.2281  0.4873
  582MOL0     H76816   1.787   4.474  10.298 -0.3072  3.7809  0.6880
  582MOL0     H76817   1.830   4.543  10.452  2.0109 -1.2223  1.8457
  582MOL0     H76818   1.996   4.343  10.335  0.2498  1.5057 -0.4814
  582MOL0     H76819   1.891   4.243  10.432 -0.5008  0.1795 -1.9680
  582MOL0     H76820   1.920   4.363  10.640 -0.1841 -2.2196 -0.1262
  582MOL0     H76821   2.066   4.293  10.574 -1.5542 -1.6139 -1.6184
  582MOL0     H76822   2.186   4.684  10.585  3.6740 -2.2399 -1.6197
  582MOL0     H76823   1.455   4.246  10.530 -0.1361 -0.7930 -0.9747
  582MOL0     H76824   1.255   4.225  10.624  4.1095 -0.7954 -1.1732
  583MOL0     O76825   8.492   0.543   8.551 -0.3601 -0.2831  0.6817
  583MOL0     C76826   8.480   0.509   8.666 -0.0868  0.7500 -0.1823
  583MOL0     O76827   8.360   0.496   8.731 -0.3401 -0.2377 -0.5049
  583MOL0     C76828   8.242   0.526   8.665 -0.0280  0.2339  0.0208
  583MOL0     C76829   8.130   0.438   8.674 -0.0915  0.6120  0.0245
  583MOL0     C76830   7.995   0.482   8.635  0.4921 -0.0482 -0.2775
  583MOL0     C76831   7.973   0.611   8.593 -0.3339 -0.7175 -0.2056
  583MOL0     O76832   7.848   0.647   8.555  0.3213  0.9376  0.4203
  583MOL0     C76833   7.813   0.766   8.485  0.3548  0.2897  0.3607
  583MOL0     C76834   7.668   0.763   8.452  0.3456 -0.7187  1.1692
  583MOL0     C76835   7.616   0.874   8.359 -0.4083  0.1028 -0.0668
  583MOL0     C76836   7.467   0.856   8.340  0.4181 -0.0785  0.3086
  583MOL0     C76837   7.405   0.931   8.222 -0.8943 -0.7133  0.8072
  583MOL0     C76838   7.264   0.870   8.194 -0.8605 -0.2420 -0.5378
  583MOL0     C76839   7.186   0.972   8.109 -0.6276 -0.0193  0.6299
  583MOL0     C76840   7.047   0.915   8.069  0.3268  0.5202  0.2571
  583MOL0     N76841   6.955   1.010   8.009  0.2889  0.1982  0.4669
  583MOL0     C76842   6.905   1.129   8.065 -0.2031 -0.0391  0.5028
  583MOL0     C76843   6.787   1.160   7.997  0.0085 -0.5868 -0.0037
  583MOL0     C76844   6.667   1.244   8.034 -0.1189 -0.1698 -0.3440
  583MOL0     C76845   6.584   1.174   8.133 -0.7832  0.3266 -0.0746
  583MOL0     C76846   6.653   1.143   8.267 -0.3981  1.0514 -0.5517
  583MOL0     C76847   6.547   1.081   8.357 -0.0862  0.8887 -0.3373
  583MOL0     O76848   6.518   0.945   8.315 -0.0482  0.4079  0.2101
  583MOL0     C76849   6.385   0.933   8.284 -0.4200  0.0737 -1.5432
  583MOL0     C76850   6.277   0.992   8.353  1.0347  0.3428 -0.1662
  583MOL0     C76851   6.147   0.983   8.294 -0.1341  0.1431 -0.2575
  583MOL0     C76852   6.125   0.912   8.182 -0.8512  0.1545 -0.4311
  583MOL0     C76853   5.990   0.898   8.128 -0.4601 -0.6424 -0.4845
  583MOL0     O76854   5.887   0.972   8.190 -0.2943  0.7987  0.6771
  583MOL0     C76855   5.762   0.939   8.148 -0.7226  0.6964  0.0564
  583MOL0     C76856   5.705   0.809   8.150  0.5001  0.2840  0.3969
  583MOL0     C76857   5.581   0.784   8.110  0.3385 -0.2901  0.4822
  583MOL0     C76858   5.491   0.888   8.076 -0.0372 -0.0217  0.6966
  583MOL0     O76859   5.363   0.853   8.052 -0.3236  0.2348  0.0045
  583MOL0     C76860   5.274   0.933   7.976 -0.4335  0.4348  0.1583
  583MOL0     C76861   5.139   0.847   7.960  0.1626 -0.2304  0.3636
  583MOL0     C76862   5.028   0.938   7.911 -0.1180 -0.6329 -0.2163
  583MOL0     C76863   4.893   0.870   7.911 -0.4091  0.4644  0.2652
  583MOL0     C76864   4.778   0.963   7.865 -0.4873 -0.7151 -0.3934
  583MOL0     C76865   4.655   0.930   7.949  0.2609 -0.0448  0.2266
  583MOL0     C76866   4.534   1.001   7.909 -0.0341  0.0604  0.1049
  583MOL0     C76867   4.479   0.937   7.781 -0.3656  0.9467  0.6124
  583MOL0    Cl76868   4.325   1.010   7.722  0.2539 -0.0710  0.0202
  583MOL0     C76869   5.547   1.018   8.070 -0.1609  0.1844  0.9665
  583MOL0     C76870   5.680   1.044   8.104  0.2166 -0.3649  0.1559
  583MOL0     O76871   5.982   0.838   8.024  0.2227  0.1773  0.2829
  583MOL0     C76872   6.242   0.854   8.115  0.7395 -0.2781 -0.0233
  583MOL0     C76873   6.365   0.865   8.165  0.0012 -0.4635  0.0596
  583MOL0     N76874   6.772   1.063   7.904  0.7269 -0.0064 -0.0827
  583MOL0     N76875   6.872   0.981   7.905 -0.0478  0.7925 -0.2100
  583MOL0     C76876   8.086   0.698   8.592  0.4971 -0.1745  0.4601
  583MOL0     C76877   8.216   0.659   8.621 -0.5215  0.0433  0.4948
  583MOL0     C76878   8.606   0.470   8.733 -0.0109  0.0231 -0.3762
  583MOL0     C76879   8.603   0.414   8.860  0.6788  0.1393  0.3907
  583MOL0     C76880   8.719   0.378   8.940 -0.1956 -0.1907  0.4491
  583MOL0     C76881   8.837   0.403   8.888  0.3748 -0.4705  0.8274
  583MOL0     O76882   8.956   0.367   8.941  0.2235 -0.2489  0.3568
  583MOL0     C76883   8.967   0.226   8.988 -0.0902 -0.3399 -0.4201
  583MOL0     C76884   8.928   0.117   8.887 -0.2996  0.3856  0.2062
  583MOL0     C76885   9.004   0.132   8.759  0.2741  0.1209 -0.4523
  583MOL0     C76886   9.154   0.120   8.783 -0.9613  0.0708 -0.4353
  583MOL0     C76887   9.194  -0.006   8.846 -0.0019  0.1323 -0.1930
  583MOL0     C76888   9.207  -0.114   8.895 -0.6454  0.1536  0.4376
  583MOL0     C76889   8.841   0.473   8.760  0.2225 -0.4409 -0.1727
  583MOL0     C76890   8.729   0.497   8.686 -0.7192  0.5016 -0.3147
  583MOL0     H76891   8.146   0.340   8.719 -1.4053 -0.3286 -1.4173
  583MOL0     H76892   7.912   0.416   8.660  1.0169  0.1446  2.2229
  583MOL0     H76893   7.862   0.772   8.387 -0.0949 -0.7696  0.0537
  583MOL0     H76894   7.835   0.860   8.537 -1.0285  1.0123 -0.3013
  583MOL0     H76895   7.626   0.785   8.551  0.6005  0.8301  0.9534
  583MOL0     H76896   7.633   0.666   8.415 -0.6279 -0.4874  1.4777
  583MOL0     H76897   7.665   0.863   8.262 -1.2457 -2.3117 -0.2883
  583MOL0     H76898   7.633   0.972   8.405  0.5152  0.2738 -0.7601
  583MOL0     H76899   7.442   0.754   8.309 -0.7824  0.8093 -1.8349
  583MOL0     H76900   7.412   0.881   8.431  1.6870  2.3265  0.4873
  583MOL0     H76901   7.462   0.921   8.129 -1.5956  1.2877  0.0999
  583MOL0     H76902   7.388   1.036   8.248  0.7940 -0.2705  0.2113
  583MOL0     H76903   7.219   0.850   8.292  2.1756 -3.3185  0.4387
  583MOL0     H76904   7.276   0.773   8.146 -2.0028 -0.2159 -0.8908
  583MOL0     H76905   7.169   1.065   8.163 -3.2173 -0.7181  1.1449
  583MOL0     H76906   7.232   0.993   8.012 -3.0078  0.5125 -0.4510
  583MOL0     H76907   6.996   0.882   8.160  0.6874  0.5821  0.4832
  583MOL0     H76908   7.053   0.832   7.997 -1.3880  0.0978  0.5493
  583MOL0     H76909   6.945   1.174   8.155  2.3572  1.9677 -1.4627
  583MOL0     H76910   6.609   1.266   7.945 -1.0127 -3.1531 -0.6215
  583MOL0     H76911   6.698   1.339   8.079 -1.7617  1.5906 -2.7193
  583MOL0     H76912   6.535   1.084   8.094  0.2384 -1.1283  1.8292
  583MOL0     H76913   6.502   1.243   8.150 -0.0660  1.1443  0.1442
  583MOL0     H76914   6.725   1.061   8.252 -1.2403 -0.1139  1.4536
  583MOL0     H76915   6.697   1.233   8.312 -0.1698  0.6197  0.1154
  583MOL0     H76916   6.461   1.148   8.348 -3.8510 -3.4948 -0.8499
  583MOL0     H76917   6.573   1.076   8.463  3.5941 -1.8639 -1.1596
  583MOL0     H76918   6.292   1.056   8.439  0.6118  3.1396 -2.0390
  583MOL0     H76919   6.060   1.018   8.350  0.1711 -0.5925  0.7152
  583MOL0     H76920   5.776   0.733   8.181  0.0472  0.6374  2.4682
  583MOL0     H76921   5.542   0.682   8.117 -0.3754 -0.2336 -1.9098
  583MOL0     H76922   5.314   0.953   7.876 -2.7500 -1.3997 -1.2496
  583MOL0     H76923   5.257   1.022   8.036  0.0703  0.5139  0.1853
  583MOL0     H76924   5.117   0.812   8.062 -0.1912  1.0949  0.7683
  583MOL0     H76925   5.144   0.765   7.888 -1.3942  0.8229 -1.0150
  583MOL0     H76926   5.057   0.979   7.814 -0.7457  0.3252 -0.0141
  583MOL0     H76927   5.024   1.020   7.984 -0.0933 -0.3185 -0.5684
  583MOL0     H76928   4.877   0.773   7.862  0.2821  0.2515  0.4541
  583MOL0     H76929   4.884   0.851   8.018 -0.9755  3.3870  0.8249
  583MOL0     H76930   4.764   0.955   7.756 -1.0686 -0.8234 -0.3126
  583MOL0     H76931   4.791   1.070   7.882 -3.5130 -0.1921 -0.7850
  583MOL0     H76932   4.678   0.951   8.053 -2.3647  0.1393  0.8403
  583MOL0     H76933   4.653   0.820   7.943  3.3288 -0.1786  0.4200
  583MOL0     H76934   4.451   1.003   7.981 -0.3776 -1.6668 -0.1952
  583MOL0     H76935   4.559   1.107   7.899  0.5806  0.1361  2.1218
  583MOL0     H76936   4.472   0.830   7.806 -0.0627  0.1756 -2.2731
  583MOL0     H76937   4.552   0.941   7.700  0.5949 -4.3561  0.8419
  583MOL0     H76938   5.487   1.105   8.046 -1.2237 -0.6564  0.5210
  583MOL0     H76939   5.716   1.146   8.114 -0.8252  0.1410 -1.0332
  583MOL0     H76940   6.225   0.810   8.017  2.7445  1.2232 -1.1169
  583MOL0     H76941   6.449   0.825   8.109  1.3185  0.9804  0.8943
  583MOL0     H76942   8.071   0.803   8.568  3.6896 -0.2462 -2.6243
  583MOL0     H76943   8.294   0.734   8.610 -0.9645  0.2605 -1.7617
  583MOL0     H76944   8.506   0.392   8.904  1.1868 -2.3074  0.4143
  583MOL0     H76945   8.723   0.340   9.042  1.2575 -1.3523 -0.0008
  583MOL0     H76946   8.909   0.212   9.079  1.4094  1.7473  0.9693
  583MOL0     H76947   9.071   0.205   9.014  0.7059  1.6298 -1.7775
  583MOL0     H76948   8.944   0.018   8.932  2.2398  0.5650 -0.1504
  583MOL0     H76949   8.822   0.127   8.866 -0.5068 -2.6116 -0.7275
  583MOL0     H76950   8.983   0.229   8.713  2.2448  1.9125  2.0791
  583MOL0     H76951   8.975   0.045   8.700 -0.9555 -0.2820  0.7159
  583MOL0     H76952   9.207   0.133   8.688  1.5804  4.5226  1.2904
  583MOL0     H76953   9.186   0.202   8.847 -0.9282 -1.0211  0.9913
  583MOL0     H76954   9.231  -0.203   8.949 -0.1827  0.7534  1.2537
  583MOL0     H76955   8.941   0.506   8.732  1.1227 -0.3984  2.8087
  583MOL0     H76956   8.738   0.535   8.585  1.6972  0.5052 -0.1725
  584MOL0     O76957   7.867   2.665   8.116 -0.2062  1.0351 -0.2255
  584MOL0     C76958   7.773   2.655   8.192 -0.4202  0.4329 -0.2161
  584MOL0     O76959   7.650   2.718   8.182  0.8747  0.1586 -0.6604
  584MOL0     C76960   7.602   2.785   8.063  0.1082 -0.1932 -0.2914
  584MOL0     C76961   7.629   2.748   7.936  0.4689 -0.0027 -0.1977
  584MOL0     C76962   7.569   2.812   7.825  0.6107 -0.2709 -0.4104
  584MOL0     C76963   7.477   2.912   7.838 -0.3069  1.1452  0.3152
  584MOL0     O76964   7.426   2.966   7.721  0.5497 -0.2248  0.0587
  584MOL0     C76965   7.296   3.023   7.723  0.2208 -0.6572 -0.5739
  584MOL0     C76966   7.273   3.106   7.597  0.7958  0.6307 -0.0596
  584MOL0     C76967   7.277   3.028   7.465 -1.2644  0.0152  0.9723
  584MOL0     C76968   7.269   3.130   7.348  0.2157 -0.3548 -0.0839
  584MOL0     C76969   7.256   3.061   7.207  0.5246 -0.7086  0.2814
  584MOL0     C76970   7.233   3.177   7.099 -0.8236  0.8700 -0.9776
  584MOL0     C76971   7.087   3.218   7.113 -0.1432 -0.2470  0.2800
  584MOL0     C76972   7.053   3.316   6.998  0.6502  0.9418  0.3298
  584MOL0     N76973   6.917   3.369   7.012 -0.2093  0.3119  0.6299
  584MOL0     C76974   6.799   3.294   6.996 -0.4647 -0.0823  0.4218
  584MOL0     C76975   6.703   3.385   6.996 -0.0906 -0.6713 -0.6167
  584MOL0     C76976   6.565   3.340   6.982 -0.0847  0.5002  0.1661
  584MOL0     C76977   6.466   3.457   6.950  0.0414 -0.2736  0.1109
  584MOL0     C76978   6.324   3.397   6.968 -0.2396 -0.3980  0.3989
  584MOL0     C76979   6.215   3.503   6.967  0.7953 -0.6755 -0.6783
  584MOL0     O76980   6.091   3.459   7.023 -0.0942 -0.1153 -0.1419
  584MOL0     C76981   5.969   3.511   6.981 -0.5723  0.0944 -0.0711
  584MOL0     C76982   5.953   3.611   6.880  0.5187  0.2500 -0.4716
  584MOL0     C76983   5.822   3.646   6.844 -1.0868  0.6403 -0.1318
  584MOL0     C76984   5.714   3.587   6.911  0.0194 -0.4736  0.5354
  584MOL0     C76985   5.580   3.643   6.881 -0.6176  0.4022  0.0861
  584MOL0     O76986   5.484   3.569   6.922 -0.0930 -0.0194 -0.0977
  584MOL0     C76987   5.361   3.621   6.942 -0.2895  0.4878  0.4812
  584MOL0     C76988   5.266   3.616   6.842 -0.6316  0.2201  0.0823
  584MOL0     C76989   5.135   3.655   6.870 -0.7179  0.9856 -0.1086
  584MOL0     C76990   5.097   3.706   6.988  0.9695  0.5541  0.4000
  584MOL0     O76991   4.966   3.747   6.988 -0.2899  0.0653  0.6600
  584MOL0     C76992   4.913   3.810   7.107  0.5471 -0.1162 -0.0074
  584MOL0     C76993   4.769   3.849   7.107  0.2110 -0.7272 -0.1750
  584MOL0     C76994   4.687   3.730   7.060 -0.1344 -0.0128  0.0096
  584MOL0     C76995   4.539   3.766   7.052  0.3854  0.3170  0.3732
  584MOL0     C76996   4.448   3.658   6.997  0.4917  0.3689 -0.1297
  584MOL0     C76997   4.307   3.712   7.013 -0.2806  0.3861  0.2044
  584MOL0     C76998   4.219   3.618   6.931  0.2529 -0.3652  0.1755
  584MOL0     C76999   4.093   3.695   6.881 -1.2068  0.2189  0.2171
  584MOL0    Cl77000   4.010   3.591   6.755  0.1999  0.1686 -0.2566
  584MOL0     C77001   5.188   3.708   7.093  0.2246  0.8708  0.0651
  584MOL0     C77002   5.323   3.669   7.073 -1.1560 -0.1676 -0.4411
  584MOL0     O77003   5.568   3.749   6.814  0.5964 -0.3059 -0.3771
  584MOL0     C77004   5.735   3.489   7.007  0.2632  0.4204 -1.1556
  584MOL0     C77005   5.865   3.445   7.039  0.4661  0.2333 -0.8895
  584MOL0     N77006   6.758   3.508   7.036  0.6942 -0.1007 -0.0836
  584MOL0     N77007   6.882   3.500   7.035  0.4913  0.6782 -0.0763
  584MOL0     C77008   7.447   2.952   7.977  0.6133 -0.7357  0.3077
  584MOL0     C77009   7.510   2.890   8.087  0.6661 -0.2095 -0.0565
  584MOL0     C77010   7.779   2.566   8.304 -1.1047  0.0694 -0.1284
  584MOL0     C77011   7.900   2.534   8.365 -0.1166 -0.7250  0.7882
  584MOL0     C77012   7.908   2.438   8.468  0.6155  0.1854 -0.2822
  584MOL0     C77013   7.785   2.383   8.512  0.0667 -0.0563 -0.4239
  584MOL0     O77014   7.781   2.285   8.608 -0.1040 -0.1524 -0.5851
  584MOL0     C77015   7.880   2.260   8.698  0.4023 -0.6393  0.4305
  584MOL0     C77016   7.951   2.130   8.652 -0.8644  0.2946  0.0651
  584MOL0     C77017   7.897   2.006   8.734  0.8565 -0.6229  0.1014
  584MOL0     C77018   7.753   1.981   8.691 -0.5744 -0.0407 -0.4091
  584MOL0     C77019   7.720   1.923   8.557 -0.1460  0.2616 -1.1369
  584MOL0     C77020   7.682   1.875   8.458 -0.4598  0.3462 -0.5252
  584MOL0     C77021   7.660   2.424   8.457  0.0148  0.0165 -0.0278
  584MOL0     C77022   7.656   2.508   8.351  0.5779  0.0096  0.8558
  584MOL0     H77023   7.702   2.669   7.919  2.0741  1.3399  0.2378
  584MOL0     H77024   7.592   2.771   7.727 -2.3232 -1.2397 -0.7923
  584MOL0     H77025   7.284   3.097   7.804 -3.0152 -0.1848 -1.3504
  584MOL0     H77026   7.224   2.945   7.748 -0.8160  1.4768  4.6272
  584MOL0     H77027   7.351   3.183   7.602  1.4399 -0.1083  1.7491
  584MOL0     H77028   7.174   3.148   7.620  0.6087  1.3968 -1.9784
  584MOL0     H77029   7.207   2.944   7.458  0.1812 -1.1748  0.1471
  584MOL0     H77030   7.373   2.975   7.458 -0.1426  2.1549 -1.9279
  584MOL0     H77031   7.180   3.193   7.362  0.9673  0.7363 -0.1577
  584MOL0     H77032   7.358   3.193   7.344 -0.0021 -0.1239 -2.0030
  584MOL0     H77033   7.175   2.988   7.212 -0.1784  0.0726  0.5914
  584MOL0     H77034   7.354   3.015   7.193  1.1223  0.6179  0.0010
  584MOL0     H77035   7.269   3.136   7.004  1.9595 -0.5868  0.6014
  584MOL0     H77036   7.299   3.263   7.110  0.6440 -0.0599 -2.0683
  584MOL0     H77037   7.027   3.126   7.109  0.5798 -0.8483  2.1501
  584MOL0     H77038   7.068   3.268   7.209 -0.4717  0.1906 -0.0084
  584MOL0     H77039   7.059   3.267   6.900  1.2044  0.3252  0.6616
  584MOL0     H77040   7.132   3.391   6.994  2.7692 -1.1250  1.1192
  584MOL0     H77041   6.790   3.187   6.985 -2.1677 -0.2075  2.3268
  584MOL0     H77042   6.536   3.300   7.080 -1.3969  1.0781  0.0309
  584MOL0     H77043   6.558   3.257   6.910  3.3355  1.7923 -1.8824
  584MOL0     H77044   6.485   3.494   6.849 -0.9897 -0.1569 -0.0541
  584MOL0     H77045   6.472   3.544   7.016 -1.0033  3.2411 -3.9657
  584MOL0     H77046   6.298   3.331   6.885 -1.6795 -0.4513  0.8558
  584MOL0     H77047   6.310   3.340   7.060 -1.3572 -0.9793 -0.1087
  584MOL0     H77048   6.204   3.539   6.864 -0.7620  0.3837 -0.1704
  584MOL0     H77049   6.249   3.587   7.029  3.1354 -0.4133 -2.1673
  584MOL0     H77050   6.036   3.656   6.827  0.9645 -0.0874 -0.0656
  584MOL0     H77051   5.810   3.707   6.755  0.0262  0.8016 -0.1769
  584MOL0     H77052   5.285   3.587   6.739  1.5418  0.6220  0.3246
  584MOL0     H77053   5.066   3.659   6.786  0.8188 -0.0123 -1.5028
  584MOL0     H77054   4.980   3.893   7.136 -0.0637  1.0135 -1.7123
  584MOL0     H77055   4.932   3.733   7.182 -2.0666 -0.5227  0.3039
  584MOL0     H77056   4.763   3.946   7.058  0.6942 -0.4270  0.3450
  584MOL0     H77057   4.747   3.873   7.211 -2.2538 -1.9176 -0.3654
  584MOL0     H77058   4.701   3.647   7.129  0.3302 -0.4640 -0.6144
  584MOL0     H77059   4.722   3.693   6.963 -0.4056 -1.0221  0.2830
  584MOL0     H77060   4.511   3.793   7.154  2.9227 -3.4062  2.2601
  584MOL0     H77061   4.539   3.852   6.983  2.1210  0.2984  0.3124
  584MOL0     H77062   4.453   3.573   7.066  0.2498  1.0916  0.7897
  584MOL0     H77063   4.480   3.620   6.899  2.0808  1.9817 -0.2671
  584MOL0     H77064   4.300   3.812   6.971  0.2900  0.5529  0.4885
  584MOL0     H77065   4.273   3.709   7.117 -0.0068 -2.1815  0.2922
  584MOL0     H77066   4.283   3.591   6.846  1.4082  1.0977  0.5223
  584MOL0     H77067   4.187   3.529   6.984  0.5860 -0.1270  0.7877
  584MOL0     H77068   4.134   3.779   6.823  1.5707 -0.6170  0.7960
  584MOL0     H77069   4.030   3.718   6.967 -0.6209  0.6366  0.5483
  584MOL0     H77070   5.153   3.744   7.190 -1.6156  0.1826 -0.3120
  584MOL0     H77071   5.396   3.663   7.152  0.2001 -1.3870 -1.7102
  584MOL0     H77072   5.659   3.442   7.068  0.1843  0.1746 -1.4389
  584MOL0     H77073   5.884   3.365   7.109  0.6252  1.4873  0.5611
  584MOL0     H77074   7.372   3.030   7.991 -0.6123 -1.9424  0.6153
  584MOL0     H77075   7.472   2.928   8.181 -0.8623  0.7656 -1.0246
  584MOL0     H77076   7.992   2.576   8.325 -0.7330  1.7823  1.8131
  584MOL0     H77077   7.999   2.399   8.513 -0.1607 -0.1268  1.0911
  584MOL0     H77078   7.836   2.258   8.799  0.9998  0.6117  0.7300
  584MOL0     H77079   7.954   2.340   8.704  1.2977 -1.2692 -1.4545
  584MOL0     H77080   7.936   2.108   8.546  2.4113  0.5372 -0.5332
  584MOL0     H77081   8.059   2.148   8.658 -0.2989 -2.4553 -0.4310
  584MOL0     H77082   7.907   2.025   8.841  1.6455 -1.8210  0.2691
  584MOL0     H77083   7.961   1.921   8.705  2.1731  0.9994 -2.1076
  584MOL0     H77084   7.706   1.915   8.764 -1.6804  0.9614 -0.1936
  584MOL0     H77085   7.695   2.072   8.704 -0.9363 -0.6119  2.9938
  584MOL0     H77086   7.653   1.846   8.359  2.7057 -1.6350 -1.0271
  584MOL0     H77087   7.573   2.378   8.502 -0.2609 -0.8709 -1.4108
  584MOL0     H77088   7.558   2.531   8.311  0.0744  1.0118  2.5674
  585MOL0     O77089   4.610   0.641   1.713 -0.5122  0.6546 -0.1352
  585MOL0     C77090   4.664   0.560   1.628 -0.7571 -0.7336 -1.1689
  585MOL0     O77091   4.592   0.477   1.546 -0.3568 -0.6278  0.1329
  585MOL0     C77092   4.458   0.482   1.552 -0.0518 -0.1164  0.2874
  585MOL0     C77093   4.387   0.602   1.554  0.2329 -0.3170  0.1070
  585MOL0     C77094   4.249   0.599   1.576 -0.8327 -0.5590 -0.4884
  585MOL0     C77095   4.172   0.473   1.579  0.1664 -0.4056 -0.2438
  585MOL0     O77096   4.033   0.490   1.572 -0.7170  0.5789 -0.1961
  585MOL0     C77097   3.952   0.382   1.616 -0.3858  0.7208 -0.6359
  585MOL0     C77098   3.803   0.418   1.624  0.0556 -0.6579 -0.2048
  585MOL0     C77099   3.761   0.531   1.717 -0.1308  0.1525  0.6028
  585MOL0     C77100   3.847   0.537   1.847  0.4592 -0.1800 -0.4337
  585MOL0     C77101   3.823   0.661   1.926  0.7655 -0.7613 -0.5919
  585MOL0     C77102   3.905   0.675   2.053  0.3600 -0.5765  0.3112
  585MOL0     C77103   4.062   0.687   2.037 -0.9306 -0.0968 -0.8579
  585MOL0     C77104   4.144   0.635   2.151  0.0060 -0.1224 -0.3857
  585MOL0     N77105   4.108   0.712   2.272 -0.1107 -0.3123 -0.6317
  585MOL0     C77106   4.098   0.658   2.397 -0.3275  0.0128 -0.4576
  585MOL0     C77107   4.109   0.769   2.474  0.1634 -0.0843  0.0507
  585MOL0     C77108   4.135   0.785   2.621 -0.3015 -0.0308 -0.6324
  585MOL0     C77109   4.280   0.733   2.650  0.3776  0.0057  1.5420
  585MOL0     C77110   4.400   0.806   2.600 -1.2047 -0.4475 -0.2152
  585MOL0     C77111   4.440   0.783   2.450 -0.0466 -0.2354 -0.7764
  585MOL0     O77112   4.456   0.650   2.413  0.3553  0.4135  0.4362
  585MOL0     C77113   4.583   0.604   2.423 -0.2181 -0.1382 -0.0822
  585MOL0     C77114   4.699   0.668   2.386 -0.9257  0.5977 -0.8104
  585MOL0     C77115   4.824   0.602   2.397 -0.6378  0.6710 -0.1886
  585MOL0     C77116   4.842   0.470   2.450 -0.5898 -0.4298  0.2668
  585MOL0     C77117   4.973   0.412   2.469  0.0728 -0.7866 -1.4065
  585MOL0     O77118   5.077   0.487   2.442 -0.8337  0.1492  0.3157
  585MOL0     C77119   5.202   0.423   2.467  0.0021 -0.2241 -1.1182
  585MOL0     C77120   5.247   0.299   2.421 -0.8040 -0.3658  0.7826
  585MOL0     C77121   5.377   0.252   2.453  0.1754 -0.1206 -0.1302
  585MOL0     C77122   5.468   0.332   2.523  0.3236 -0.3539  0.3486
  585MOL0     O77123   5.589   0.282   2.567 -0.9693  0.4138  0.0381
  585MOL0     C77124   5.568   0.161   2.644  0.1780  0.7034  0.1731
  585MOL0     C77125   5.693   0.164   2.736 -0.1285 -0.8481 -0.7965
  585MOL0     C77126   5.831   0.171   2.670  0.1038  0.0703  0.8868
  585MOL0     C77127   5.948   0.180   2.772 -0.6974  0.2247 -0.2601
  585MOL0     C77128   6.071   0.142   2.701  0.7277 -0.0905 -0.4173
  585MOL0     C77129   6.115   0.267   2.619  0.1612 -0.3353 -0.6651
  585MOL0     C77130   6.265   0.261   2.596 -0.5819  0.4189  0.6389
  585MOL0     C77131   6.321   0.128   2.535  0.2356 -0.0229  0.5109
  585MOL0    Cl77132   6.487   0.168   2.448  0.0076  0.0111  0.4262
  585MOL0     C77133   5.429   0.464   2.558  1.0650 -0.3345  0.1489
  585MOL0     C77134   5.296   0.501   2.537  0.6914  0.1291 -0.4045
  585MOL0     O77135   4.975   0.295   2.516 -0.2690 -0.0384  1.0907
  585MOL0     C77136   4.728   0.404   2.487  0.5976 -0.3054  0.8074
  585MOL0     C77137   4.599   0.471   2.470 -0.5087  0.3475  0.5812
  585MOL0     N77138   4.083   0.878   2.400  0.0838 -0.4985  0.3880
  585MOL0     N77139   4.089   0.846   2.276  0.2501  0.1417  0.4895
  585MOL0     C77140   4.243   0.355   1.570  1.0430 -0.1553  0.3286
  585MOL0     C77141   4.388   0.363   1.554  0.0994 -0.7663  1.0376
  585MOL0     C77142   4.808   0.565   1.612  0.3459 -0.1580 -0.5512
  585MOL0     C77143   4.881   0.689   1.631 -0.2662 -0.1563 -0.3071
  585MOL0     C77144   5.023   0.689   1.620 -0.0509 -0.8448 -0.2751
  585MOL0     C77145   5.086   0.574   1.572 -0.3759  0.1090  0.4008
  585MOL0     O77146   5.221   0.579   1.561  0.2813 -0.0090 -0.6899
  585MOL0     C77147   5.303   0.470   1.527  0.4273  0.4285 -0.3296
  585MOL0     C77148   5.428   0.465   1.612  0.2877 -0.0100  0.1273
  585MOL0     C77149   5.509   0.591   1.616  0.6639 -0.7188  0.2486
  585MOL0     C77150   5.659   0.564   1.589  0.6327 -0.5623  0.4355
  585MOL0     C77151   5.743   0.679   1.616 -0.2783 -0.1221  0.7522
  585MOL0     C77152   5.821   0.773   1.630  0.9718 -0.1343  0.2695
  585MOL0     C77153   5.007   0.462   1.541  0.0238  0.5733 -0.1902
  585MOL0     C77154   4.875   0.469   1.555 -0.3677  0.4026  0.0707
  585MOL0     H77155   4.445   0.688   1.521  3.7264 -2.2926  0.5902
  585MOL0     H77156   4.203   0.697   1.568  1.1105  0.3200 -1.7860
  585MOL0     H77157   3.991   0.356   1.715  1.0093  4.2218 -0.1288
  585MOL0     H77158   3.980   0.305   1.544 -0.9939  0.2139 -0.3461
  585MOL0     H77159   3.763   0.325   1.666 -1.5301 -0.2551 -0.7623
  585MOL0     H77160   3.761   0.435   1.525  2.1433 -0.5449 -1.1131
  585MOL0     H77161   3.656   0.523   1.747  0.1219  0.1405  1.5024
  585MOL0     H77162   3.768   0.623   1.658 -0.4807 -0.8422 -1.0774
  585MOL0     H77163   3.825   0.453   1.913 -1.7721  3.3223  3.7702
  585MOL0     H77164   3.953   0.539   1.820  0.8229  1.7773  0.9098
  585MOL0     H77165   3.716   0.661   1.950  0.1941  2.3318 -2.4572
  585MOL0     H77166   3.833   0.744   1.855 -0.7968  0.6178  0.7235
  585MOL0     H77167   3.881   0.585   2.110 -2.5616  0.1150  0.3635
  585MOL0     H77168   3.876   0.767   2.105  0.4252 -0.3364 -0.0722
  585MOL0     H77169   4.094   0.616   1.959  2.4320 -1.3925  1.4516
  585MOL0     H77170   4.097   0.784   2.003  1.0549 -0.2598  0.5441
  585MOL0     H77171   4.251   0.626   2.130  0.6424  0.9928  1.9905
  585MOL0     H77172   4.122   0.529   2.163  0.9040 -0.5436 -2.0839
  585MOL0     H77173   4.108   0.556   2.434  0.8597 -0.1755 -1.2111
  585MOL0     H77174   4.056   0.725   2.667 -0.6982 -0.2399 -1.5672
  585MOL0     H77175   4.113   0.885   2.661 -0.4208 -1.2927  2.8435
  585MOL0     H77176   4.281   0.627   2.621 -1.3401  0.1827  0.7098
  585MOL0     H77177   4.287   0.739   2.759 -2.0682  0.1095  1.7364
  585MOL0     H77178   4.401   0.913   2.622  0.9695 -1.0116  3.2103
  585MOL0     H77179   4.490   0.773   2.653 -0.0067  1.6516 -0.8528
  585MOL0     H77180   4.524   0.849   2.427 -1.3976  2.0772  0.5111
  585MOL0     H77181   4.355   0.818   2.390  0.3506  1.1196 -0.6008
  585MOL0     H77182   4.708   0.770   2.350 -0.0874  0.5074 -0.8706
  585MOL0     H77183   4.918   0.653   2.378 -0.7273  0.5664 -0.9278
  585MOL0     H77184   5.191   0.241   2.348 -2.6204  0.4633  1.4827
  585MOL0     H77185   5.404   0.153   2.416  1.2720  1.1155 -2.9071
  585MOL0     H77186   5.565   0.073   2.579 -0.0519 -0.6652  1.9571
  585MOL0     H77187   5.474   0.157   2.698  1.1753 -3.4435  1.9841
  585MOL0     H77188   5.693   0.076   2.801 -1.7505  0.0924  0.5501
  585MOL0     H77189   5.676   0.253   2.798 -2.0474 -0.8473 -1.2546
  585MOL0     H77190   5.830   0.257   2.602  1.8460 -1.6293 -1.4863
  585MOL0     H77191   5.851   0.085   2.605  1.5897  2.3812 -1.9619
  585MOL0     H77192   5.952   0.280   2.815  0.7990 -0.3684  1.1116
  585MOL0     H77193   5.926   0.104   2.848 -3.6603  1.4203  0.2176
  585MOL0     H77194   6.065   0.045   2.652 -1.7634  0.8414 -2.1602
  585MOL0     H77195   6.153   0.140   2.773  1.4986 -0.3094 -1.2892
  585MOL0     H77196   6.087   0.359   2.671  0.1094  0.5302 -2.1591
  585MOL0     H77197   6.066   0.267   2.521  1.3620  0.6656 -1.2968
  585MOL0     H77198   6.288   0.341   2.526  0.8544 -0.3646  0.1765
  585MOL0     H77199   6.312   0.280   2.693 -0.8595  1.8532  0.5103
  585MOL0     H77200   6.251   0.097   2.457  3.2835 -1.6501 -1.8269
  585MOL0     H77201   6.312   0.047   2.607 -2.2962  1.7685  2.3563
  585MOL0     H77202   5.488   0.539   2.610 -1.9862  1.4479  1.2784
  585MOL0     H77203   5.272   0.606   2.554  1.5704  0.3189 -0.2516
  585MOL0     H77204   4.735   0.307   2.535  1.0495  0.6216  2.7266
  585MOL0     H77205   4.511   0.420   2.510 -1.2841  2.9518  2.4278
  585MOL0     H77206   4.191   0.261   1.555 -0.7046  0.7627  0.3889
  585MOL0     H77207   4.445   0.272   1.539 -1.1638 -1.3649 -0.5133
  585MOL0     H77208   4.825   0.775   1.666  1.3007  1.4261 -1.4750
  585MOL0     H77209   5.080   0.779   1.636 -5.1494  2.8959 -0.6281
  585MOL0     H77210   5.323   0.478   1.420  0.2103 -3.2208 -0.7898
  585MOL0     H77211   5.256   0.372   1.534 -0.8825  0.9921 -0.9515
  585MOL0     H77212   5.387   0.438   1.709 -1.3290 -1.0994 -0.8097
  585MOL0     H77213   5.493   0.386   1.573 -0.2725 -1.3327  1.7513
  585MOL0     H77214   5.501   0.637   1.715  1.6320  1.3511 -0.5785
  585MOL0     H77215   5.480   0.668   1.544  1.6882 -1.7783 -1.3354
  585MOL0     H77216   5.691   0.478   1.648 -0.0611 -0.8437  0.4036
  585MOL0     H77217   5.680   0.538   1.484 -0.6071 -0.8924  0.2550
  585MOL0     H77218   5.901   0.843   1.645 -2.0361  3.3001  1.7056
  585MOL0     H77219   5.049   0.368   1.506 -0.2315  0.0789  0.8097
  585MOL0     H77220   4.818   0.382   1.523  0.3338  0.3668 -1.1672
  586MOL0     O77221   0.476   9.590   5.457 -0.6270 -0.9677 -0.3194
  586MOL0     C77222   0.534   9.696   5.424 -0.3266 -0.8206  0.3372
  586MOL0     O77223   0.477   9.805   5.354  0.2793 -0.1274 -0.5513
  586MOL0     C77224   0.350   9.792   5.306 -0.1891 -0.5167  0.0997
  586MOL0     C77225   0.319   9.756   5.172 -0.5103  0.1377  0.5564
  586MOL0     C77226   0.191   9.761   5.125 -0.1321  0.2339 -0.0324
  586MOL0     C77227   0.084   9.795   5.203 -0.0580 -0.7550  0.2563
  586MOL0     O77228  -0.040   9.798   5.141  0.1084 -0.3438  1.1500
  586MOL0     C77229  -0.148   9.861   5.212 -0.5525 -0.5426 -0.0800
  586MOL0     C77230  -0.279   9.876   5.125  0.4289  0.4714 -0.1004
  586MOL0     C77231  -0.402   9.850   5.211 -1.1762 -0.1266 -0.4992
  586MOL0     C77232  -0.547   9.867   5.151 -0.7041  0.2624 -0.0494
  586MOL0     C77233  -0.597   9.732   5.103 -0.1107  0.3030 -0.5693
  586MOL0     C77234  -0.741   9.745   5.080  0.8498 -0.5904  0.3854
  586MOL0     C77235  -0.814   9.627   5.015 -0.4564  0.3901  0.5642
  586MOL0     C77236  -0.827   9.509   5.116  0.8737  0.9860  0.3808
  586MOL0     N77237  -0.894   9.393   5.057  0.5013 -0.3850 -0.1981
  586MOL0     C77238  -1.025   9.402   5.004 -0.5867  0.2720 -0.4172
  586MOL0     C77239  -1.045   9.278   4.952 -0.3058 -0.3459  0.8515
  586MOL0     C77240  -1.167   9.219   4.888  0.2320  0.2957 -0.3908
  586MOL0     C77241  -1.268   9.155   4.983  0.5464  0.1307  0.5405
  586MOL0     C77242  -1.369   9.257   5.045  0.1949 -0.4188  0.2623
  586MOL0     C77243  -1.477   9.307   4.952  0.2635  0.4446  0.6837
  586MOL0     O77244  -1.564   9.194   4.921 -0.0686  0.0214 -0.1573
  586MOL0     C77245  -1.699   9.205   4.965 -0.2719 -0.7923  0.4774
  586MOL0     C77246  -1.743   9.253   5.088 -1.2720 -0.5579 -0.9349
  586MOL0     C77247  -1.879   9.263   5.122 -0.0043 -0.9509  0.3060
  586MOL0     C77248  -1.981   9.235   5.029 -0.4809 -0.4213 -0.6333
  586MOL0     C77249  -2.117   9.258   5.062  0.2857 -0.3712  0.4779
  586MOL0     O77250  -2.202   9.221   4.961 -0.5111 -0.4092  0.2821
  586MOL0     C77251  -2.338   9.237   4.972  1.2136  0.8976 -0.0994
  586MOL0     C77252  -2.411   9.225   4.851 -0.4673 -0.4140  0.5901
  586MOL0     C77253  -2.544   9.189   4.851 -0.4593 -0.1739 -0.1214
  586MOL0     C77254  -2.616   9.170   4.968 -0.0331  0.0330  1.0102
  586MOL0     O77255  -2.748   9.146   4.984 -0.8437  0.2964  0.1328
  586MOL0     C77256  -2.821   9.161   4.860 -0.6459  0.5698 -0.7029
  586MOL0     C77257  -2.958   9.230   4.877  0.0679  0.9918 -0.8804
  586MOL0     C77258  -3.072   9.132   4.903 -0.4194  0.3708 -0.3378
  586MOL0     C77259  -3.181   9.192   4.993 -0.5969  0.0187  0.0541
  586MOL0     C77260  -3.266   9.298   4.922  0.4689 -0.0799  0.3291
  586MOL0     C77261  -3.344   9.383   5.018 -0.5113  0.3092 -0.2417
  586MOL0     C77262  -3.467   9.305   5.067 -0.0492 -0.5539 -0.2418
  586MOL0     C77263  -3.573   9.404   5.117  0.5516  0.3567  0.2850
  586MOL0    Cl77264  -3.515   9.526   5.240 -0.4662  0.0298 -0.4907
  586MOL0     C77265  -2.551   9.182   5.092 -0.5385  0.5519 -0.8096
  586MOL0     C77266  -2.409   9.204   5.094 -0.2138  0.2741  0.3632
  586MOL0     O77267  -2.152   9.304   5.171  0.1487 -0.4276 -0.7259
  586MOL0     C77268  -1.932   9.194   4.904  0.8704  0.9899  0.3937
  586MOL0     C77269  -1.799   9.177   4.875  0.0351  0.1840 -0.8432
  586MOL0     N77270  -0.934   9.199   4.986  0.1501  0.5706 -0.5052
  586MOL0     N77271  -0.843   9.269   5.042  0.2966  0.4405  0.1109
  586MOL0     C77272   0.114   9.832   5.333  0.9478 -0.2320  0.0850
  586MOL0     C77273   0.243   9.827   5.389 -0.0714 -0.2708 -0.4418
  586MOL0     C77274   0.681   9.701   5.439 -0.2057 -0.0087 -0.6345
  586MOL0     C77275   0.752   9.593   5.496 -0.2559  0.7274  0.4987
  586MOL0     C77276   0.890   9.614   5.527  0.9264  0.3428  0.5883
  586MOL0     C77277   0.959   9.731   5.512  0.3577 -0.2174 -0.5845
  586MOL0     O77278   1.089   9.740   5.559 -0.0561  0.0359 -0.0697
  586MOL0     C77279   1.125   9.862   5.613 -0.0376 -0.8433  0.2149
  586MOL0     C77280   1.249   9.831   5.700  0.2165 -1.7600 -0.3058
  586MOL0     C77281   1.269   9.941   5.803 -0.1352 -0.3782  0.6183
  586MOL0     C77282   1.347  10.068   5.734  1.4059 -0.3626 -0.4303
  586MOL0     C77283   1.483  10.042   5.746 -1.0835  1.0424  0.2943
  586MOL0     C77284   1.601  10.023   5.768  0.0392  0.0137 -0.5689
  586MOL0     C77285   0.890   9.840   5.453  0.1535 -0.0403 -0.2311
  586MOL0     C77286   0.754   9.824   5.419 -0.0325 -0.3603 -0.6464
  586MOL0     H77287   0.406   9.735   5.109 -1.1009  1.8824 -0.9291
  586MOL0     H77288   0.171   9.733   5.022  3.1687  4.4797 -2.1247
  586MOL0     H77289  -0.116   9.962   5.236 -1.5585  0.6304 -3.1737
  586MOL0     H77290  -0.163   9.794   5.298 -0.0761 -0.1894  0.2806
  586MOL0     H77291  -0.282   9.827   5.027 -2.1606 -0.4076  0.3523
  586MOL0     H77292  -0.281   9.981   5.095 -1.4167  0.2094 -1.0351
  586MOL0     H77293  -0.401   9.929   5.287  1.2584  1.0176 -1.5994
  586MOL0     H77294  -0.394   9.754   5.263 -0.6301  0.4118  0.4494
  586MOL0     H77295  -0.610   9.922   5.222 -1.4816  0.6952 -1.0414
  586MOL0     H77296  -0.537   9.931   5.063  4.7494 -0.4722 -0.2950
  586MOL0     H77297  -0.572   9.663   5.184  0.6873  2.6253  1.2839
  586MOL0     H77298  -0.540   9.715   5.011 -2.3052 -0.3133 -1.8858
  586MOL0     H77299  -0.759   9.836   5.021  0.9031 -0.7657  0.0943
  586MOL0     H77300  -0.786   9.748   5.180  1.0666 -1.1706  0.5025
  586MOL0     H77301  -0.916   9.657   4.992 -0.7876  0.0288  1.5395
  586MOL0     H77302  -0.768   9.604   4.918  0.4768  2.6833  0.3949
  586MOL0     H77303  -0.882   9.550   5.201  0.8386  1.0139  0.3441
  586MOL0     H77304  -0.734   9.479   5.164 -0.0880 -0.5879  1.3546
  586MOL0     H77305  -1.097   9.482   5.020  1.6390  1.7979  3.3526
  586MOL0     H77306  -1.124   9.146   4.818 -1.0763 -0.2029 -0.7027
  586MOL0     H77307  -1.220   9.292   4.826  0.1012  1.1569  0.7073
  586MOL0     H77308  -1.223   9.094   5.061 -0.0795 -2.1545 -0.7867
  586MOL0     H77309  -1.323   9.082   4.923 -0.1871 -3.3670  4.9168
  586MOL0     H77310  -1.410   9.203   5.131 -0.2353 -1.3201 -0.4934
  586MOL0     H77311  -1.313   9.337   5.094 -1.2020  0.8470 -0.1352
  586MOL0     H77312  -1.429   9.346   4.862  0.3469  0.4299  0.7225
  586MOL0     H77313  -1.535   9.387   4.999  1.2723 -1.1610  5.1337
  586MOL0     H77314  -1.681   9.290   5.169 -4.5166 -0.1665  1.5754
  586MOL0     H77315  -1.909   9.308   5.216  0.4339  1.3251 -0.5773
  586MOL0     H77316  -2.357   9.240   4.758  1.7242  2.0372  2.1086
  586MOL0     H77317  -2.592   9.172   4.756 -4.2398 -3.3084  2.0764
  586MOL0     H77318  -2.838   9.063   4.813  0.8172 -0.4888  0.8892
  586MOL0     H77319  -2.769   9.223   4.786  1.4820  0.3169  0.5204
  586MOL0     H77320  -2.986   9.280   4.783  3.9172  2.3172 -1.5269
  586MOL0     H77321  -2.948   9.314   4.947  0.5437  0.6633 -0.5512
  586MOL0     H77322  -3.042   9.046   4.964 -0.8737 -0.7396 -1.6225
  586MOL0     H77323  -3.107   9.093   4.806 -0.2701 -1.3523  0.2678
  586MOL0     H77324  -3.246   9.108   5.020  1.9900 -1.9064  0.6238
  586MOL0     H77325  -3.143   9.238   5.084 -0.6626 -0.7659  0.4870
  586MOL0     H77326  -3.333   9.261   4.843  2.0870 -1.8236 -0.3180
  586MOL0     H77327  -3.208   9.372   4.866 -1.0550  0.4054 -0.6658
  586MOL0     H77328  -3.370   9.477   4.968  0.2319  0.8449  0.3417
  586MOL0     H77329  -3.280   9.398   5.106 -1.6225 -2.8310  1.2431
  586MOL0     H77330  -3.510   9.248   4.984  0.9665 -1.1991 -0.3373
  586MOL0     H77331  -3.444   9.235   5.148  3.5714  1.7116  0.9316
  586MOL0     H77332  -3.632   9.330   5.173 -1.6546  1.7093 -0.1449
  586MOL0     H77333  -3.623   9.457   5.036 -1.6004 -1.3262  0.4077
  586MOL0     H77334  -2.591   9.163   5.191  0.6664  1.3785 -0.1315
  586MOL0     H77335  -2.367   9.198   5.194 -1.8190 -2.1903  0.9954
  586MOL0     H77336  -2.005   9.165   4.829 -1.7558  1.4846  2.6270
  586MOL0     H77337  -1.776   9.141   4.775 -0.3975 -0.5493 -0.6858
  586MOL0     H77338   0.029   9.860   5.396 -0.3513 -0.6822 -1.4011
  586MOL0     H77339   0.267   9.851   5.492  0.6700 -0.7798 -0.4928
  586MOL0     H77340   0.700   9.498   5.508  0.6304  0.2907  1.0463
  586MOL0     H77341   0.950   9.541   5.580  0.6797  0.0904  0.5238
  586MOL0     H77342   1.050   9.907   5.679  0.5852 -0.6089  0.7698
  586MOL0     H77343   1.150   9.942   5.542  2.3619  0.0367  1.9480
  586MOL0     H77344   1.229   9.742   5.761  1.4029 -0.6699  1.8179
  586MOL0     H77345   1.337   9.814   5.638 -0.7526 -1.3647 -1.8324
  586MOL0     H77346   1.330   9.892   5.880  0.9650 -0.1410 -0.0696
  586MOL0     H77347   1.166   9.957   5.835 -0.4584 -1.3734  0.1161
  586MOL0     H77348   1.314  10.090   5.632 -1.3010  0.1846  0.4591
  586MOL0     H77349   1.318  10.159   5.789  0.9823 -0.6987 -0.0908
  586MOL0     H77350   1.700   9.993   5.795 -1.1683 -3.7925  0.2467
  586MOL0     H77351   0.943   9.934   5.442 -0.0218 -0.0550 -1.2646
  586MOL0     H77352   0.696   9.907   5.380 -0.3900  0.3464  1.3011
  587MOL0     O77353   8.085   3.551   1.983  0.1645  0.4717 -0.1836
  587MOL0     C77354   8.112   3.541   1.865  0.1267 -0.8724  0.1579
  587MOL0     O77355   8.036   3.594   1.760 -0.4456 -0.0373  0.3290
  587MOL0     C77356   7.919   3.654   1.791 -0.8594 -0.3048 -0.0643
  587MOL0     C77357   7.814   3.581   1.839  0.2273  0.1990  1.4864
  587MOL0     C77358   7.692   3.639   1.873  0.0481 -0.3411  0.8466
  587MOL0     C77359   7.681   3.784   1.851 -0.4539 -0.3066 -0.0164
  587MOL0     O77360   7.556   3.838   1.880 -0.4641 -0.8575 -0.3497
  587MOL0     C77361   7.536   3.978   1.852 -0.6775 -0.0555  0.0658
  587MOL0     C77362   7.387   4.013   1.880 -0.1566 -0.2171  0.1704
  587MOL0     C77363   7.362   4.158   1.849 -0.5163 -0.2389 -0.1145
  587MOL0     C77364   7.246   4.209   1.935 -0.1227  0.1380  0.3182
  587MOL0     C77365   7.214   4.354   1.904 -0.3192  0.0086 -0.0335
  587MOL0     C77366   7.085   4.395   1.977 -0.5745  0.1847 -0.2542
  587MOL0     C77367   7.033   4.544   1.956 -0.5918 -0.7346  0.4825
  587MOL0     C77368   7.135   4.655   2.009  0.1490 -0.2608 -0.4347
  587MOL0     N77369   7.066   4.782   1.991 -0.0882  0.7181  0.3924
  587MOL0     C77370   7.118   4.907   2.022 -0.4770 -0.1281 -0.5299
  587MOL0     C77371   7.037   4.997   1.972  0.1512 -0.2980  0.3859
  587MOL0     C77372   7.059   5.146   1.962  0.0038 -1.5211  0.3524
  587MOL0     C77373   6.972   5.227   1.866  0.8106  0.2026 -0.2870
  587MOL0     C77374   7.001   5.212   1.717 -0.2219 -0.6213 -0.2346
  587MOL0     C77375   6.886   5.174   1.627  0.8558  0.2597 -1.1147
  587MOL0     O77376   6.934   5.197   1.490 -0.2227  0.0169 -0.4988
  587MOL0     C77377   6.839   5.220   1.394 -0.2754 -0.9202 -0.2104
  587MOL0     C77378   6.702   5.236   1.407  0.5043  1.0293 -0.2074
  587MOL0     C77379   6.612   5.264   1.300 -0.3043  0.5910  0.3136
  587MOL0     C77380   6.668   5.264   1.172 -0.1082  0.4498 -0.2853
  587MOL0     C77381   6.585   5.302   1.059  0.4259 -0.4807  0.2969
  587MOL0     O77382   6.454   5.349   1.079 -0.2286  0.0547 -0.1216
  587MOL0     C77383   6.369   5.370   0.980  0.2555  0.1138  0.2852
  587MOL0     C77384   6.316   5.502   0.959  0.4284  0.4148  0.2583
  587MOL0     C77385   6.217   5.532   0.871 -0.3091  0.1259  0.2943
  587MOL0     C77386   6.165   5.429   0.800  0.1072  0.6515 -1.1340
  587MOL0     O77387   6.062   5.474   0.711 -0.2509  0.1370  0.5890
  587MOL0     C77388   5.960   5.380   0.660  0.4019  0.3775  0.8496
  587MOL0     C77389   5.827   5.460   0.632  0.0948 -0.0458  0.7298
  587MOL0     C77390   5.707   5.365   0.586 -0.4543  0.1383  0.1053
  587MOL0     C77391   5.587   5.448   0.554  0.5834  0.0642  0.2181
  587MOL0     C77392   5.459   5.367   0.523  0.4418 -0.3157 -0.0464
  587MOL0     C77393   5.345   5.464   0.470 -1.5232  0.5381 -0.4147
  587MOL0     C77394   5.225   5.379   0.434  0.2061  1.1033 -0.2470
  587MOL0     C77395   5.163   5.304   0.550 -0.4745  0.4418  0.0889
  587MOL0    Cl77396   5.000   5.256   0.499 -0.0397 -0.4722 -0.0347
  587MOL0     C77397   6.210   5.296   0.810 -0.1142  0.6066 -0.2861
  587MOL0     C77398   6.316   5.267   0.902  0.5000 -0.4467 -0.5157
  587MOL0     O77399   6.635   5.287   0.951  0.2326  0.0078  0.1836
  587MOL0     C77400   6.808   5.246   1.154 -0.2619  0.1606 -0.2350
  587MOL0     C77401   6.887   5.223   1.258 -0.2091 -0.5432 -0.4243
  587MOL0     N77402   6.928   4.927   1.913  0.2657 -0.8027  0.4929
  587MOL0     N77403   6.952   4.807   1.926 -0.1836 -0.5821  0.5205
  587MOL0     C77404   7.792   3.861   1.804 -0.1230  0.1530  1.0279
  587MOL0     C77405   7.905   3.787   1.767  0.2878 -0.6841 -0.0031
  587MOL0     C77406   8.234   3.469   1.824  0.5572  0.7622  0.4368
  587MOL0     C77407   8.258   3.409   1.699  0.0426 -0.6232  0.7623
  587MOL0     C77408   8.384   3.351   1.662  0.1181  0.0438  0.0525
  587MOL0     C77409   8.491   3.352   1.758 -0.3461 -0.2798 -0.3516
  587MOL0     O77410   8.620   3.288   1.738 -0.6603 -0.3912  0.5571
  587MOL0     C77411   8.648   3.239   1.602  0.0559  0.4456  0.0604
  587MOL0     C77412   8.673   3.345   1.504 -0.1147  0.2701  0.7759
  587MOL0     C77413   8.658   3.282   1.368 -0.1497  0.8778  0.5452
  587MOL0     C77414   8.648   3.383   1.247 -0.8675 -0.2747 -0.4611
  587MOL0     C77415   8.771   3.458   1.223 -0.4098  0.1516  0.6998
  587MOL0     C77416   8.877   3.516   1.195  0.3506 -0.1050  0.2774
  587MOL0     C77417   8.465   3.406   1.882 -0.7585 -0.9642 -0.3549
  587MOL0     C77418   8.346   3.462   1.915  0.4466  0.4489 -0.9662
  587MOL0     H77419   7.835   3.475   1.845  2.0712  0.3999 -0.1513
  587MOL0     H77420   7.611   3.572   1.901  0.7535 -1.5389  0.0883
  587MOL0     H77421   7.563   3.998   1.748  1.8359 -0.3196  0.6012
  587MOL0     H77422   7.604   4.036   1.915  4.6616 -0.3225 -4.6409
  587MOL0     H77423   7.367   3.982   1.983  0.8665  1.4163  0.9040
  587MOL0     H77424   7.312   3.962   1.818 -0.6005  0.0886  0.4445
  587MOL0     H77425   7.329   4.166   1.745 -1.0290  1.3826  0.1469
  587MOL0     H77426   7.450   4.219   1.871 -0.4155  0.5460 -2.4230
  587MOL0     H77427   7.157   4.150   1.910 -1.0140  0.4653  2.4465
  587MOL0     H77428   7.264   4.200   2.042  2.6103  1.9075  0.1197
  587MOL0     H77429   7.210   4.363   1.795  1.1954  1.5159 -0.0104
  587MOL0     H77430   7.299   4.417   1.935  0.7452 -0.1968 -2.3507
  587MOL0     H77431   7.089   4.377   2.084 -4.1012  0.2046 -0.0230
  587MOL0     H77432   7.011   4.328   1.932 -0.4958  2.0037 -3.4138
  587MOL0     H77433   7.003   4.560   1.852  3.7485  1.3569 -0.6747
  587MOL0     H77434   6.942   4.526   2.013 -0.2391 -1.1709  0.9190
  587MOL0     H77435   7.221   4.655   1.942 -1.4738  1.4036 -2.6697
  587MOL0     H77436   7.162   4.630   2.112  1.6697  3.2836  0.1569
  587MOL0     H77437   7.210   4.935   2.072  0.0797 -1.1377 -0.9554
  587MOL0     H77438   7.163   5.163   1.933 -0.9342  0.8537 -2.0315
  587MOL0     H77439   7.049   5.190   2.062  0.7215 -3.3579  1.2905
  587MOL0     H77440   6.986   5.330   1.900  1.1275 -0.3918  1.4831
  587MOL0     H77441   6.866   5.205   1.883  0.4660  0.7215 -1.5976
  587MOL0     H77442   7.045   5.308   1.688  0.2502 -0.4952  0.8442
  587MOL0     H77443   7.087   5.147   1.704 -0.0881 -0.5021  0.0425
  587MOL0     H77444   6.804   5.244   1.650  0.9039  0.3845 -1.3246
  587MOL0     H77445   6.850   5.073   1.647 -0.7574  1.1021  0.6294
  587MOL0     H77446   6.654   5.249   1.504 -0.2937 -2.0479 -0.1128
  587MOL0     H77447   6.508   5.287   1.320 -0.1181 -0.2344  2.6154
  587MOL0     H77448   6.354   5.576   1.029 -0.3940  1.4803 -0.3872
  587MOL0     H77449   6.188   5.636   0.859  0.1546  0.4482  1.6798
  587MOL0     H77450   5.943   5.306   0.739 -2.2313  1.7661  1.7051
  587MOL0     H77451   6.003   5.333   0.572 -2.2981 -2.2155  0.7249
  587MOL0     H77452   5.842   5.540   0.559 -1.5787 -0.7745 -0.4774
  587MOL0     H77453   5.802   5.510   0.726  3.2926 -1.8811  2.7641
  587MOL0     H77454   5.691   5.297   0.670  1.9149  0.9103  1.2519
  587MOL0     H77455   5.734   5.311   0.495  2.6115 -0.9146  1.5071
  587MOL0     H77456   5.562   5.505   0.644 -2.2428 -1.7482  0.7289
  587MOL0     H77457   5.610   5.503   0.462  3.2373  0.1715  0.8670
  587MOL0     H77458   5.419   5.319   0.613 -0.6719 -0.4455 -0.5926
  587MOL0     H77459   5.494   5.285   0.460  1.4173 -0.2276  0.3617
  587MOL0     H77460   5.383   5.514   0.381  0.0500 -1.9765 -1.2670
  587MOL0     H77461   5.326   5.545   0.542 -2.9399  0.5771 -0.8152
  587MOL0     H77462   5.149   5.450   0.402 -2.6281 -1.4708  0.2901
  587MOL0     H77463   5.253   5.319   0.347  0.2113 -2.9854  2.3141
  587MOL0     H77464   5.161   5.372   0.635  2.0368 -2.5403  2.7671
  587MOL0     H77465   5.218   5.215   0.583  0.4361  1.4279  1.3299
  587MOL0     H77466   6.160   5.217   0.756  1.0970 -1.3187  1.2947
  587MOL0     H77467   6.360   5.168   0.916 -1.8090 -1.1169  3.0840
  587MOL0     H77468   6.855   5.259   1.057 -0.6174 -0.2468 -0.4650
  587MOL0     H77469   6.993   5.224   1.234 -0.0750 -1.9983 -0.0170
  587MOL0     H77470   7.799   3.968   1.789 -3.3670  0.4694  1.1314
  587MOL0     H77471   7.994   3.827   1.720 -0.4113  2.1030  0.8968
  587MOL0     H77472   8.182   3.414   1.623 -1.7911 -3.7849  2.1990
  587MOL0     H77473   8.399   3.302   1.567  3.8612 -0.9220  1.0029
  587MOL0     H77474   8.564   3.171   1.584  0.8589 -0.9037  1.2678
  587MOL0     H77475   8.737   3.177   1.615  1.0852  1.7014 -0.6733
  587MOL0     H77476   8.596   3.422   1.514 -1.9381 -1.5733  1.7655
  587MOL0     H77477   8.774   3.386   1.508  0.5893 -1.2246 -0.6908
  587MOL0     H77478   8.573   3.214   1.354  1.9325 -1.4390 -1.9714
  587MOL0     H77479   8.747   3.224   1.341 -1.2532 -1.8221  2.1896
  587MOL0     H77480   8.613   3.329   1.158 -2.3309 -1.5777  0.8230
  587MOL0     H77481   8.564   3.449   1.271 -0.3013 -0.1674  1.3394
  587MOL0     H77482   8.971   3.564   1.176  0.5946 -1.2601 -1.6338
  587MOL0     H77483   8.548   3.427   1.949  1.5154 -1.9204 -2.6852
  587MOL0     H77484   8.340   3.514   2.010 -0.1855  0.6350 -1.1020
  588MOL0     O77485   9.411   4.588   5.011 -0.4475 -0.3488 -0.2313
  588MOL0     C77486   9.463   4.515   5.094 -1.2401 -0.9125  0.1359
  588MOL0     O77487   9.400   4.421   5.160 -0.6819 -0.1991 -0.3744
  588MOL0     C77488   9.271   4.392   5.136  0.2149  0.7324 -0.4550
  588MOL0     C77489   9.211   4.326   5.246  0.7362 -0.6032 -0.8164
  588MOL0     C77490   9.077   4.289   5.233 -0.7999  0.5103  0.1863
  588MOL0     C77491   9.009   4.322   5.117  0.9528 -0.1878  0.2692
  588MOL0     O77492   8.879   4.291   5.121  0.0777  0.0649  0.1958
  588MOL0     C77493   8.806   4.272   4.996  0.1328  0.2237 -0.1956
  588MOL0     C77494   8.668   4.198   5.008 -0.0438  0.3011 -0.5255
  588MOL0     C77495   8.602   4.185   4.875  0.4361 -0.1590  0.2104
  588MOL0     C77496   8.451   4.182   4.888 -0.5318 -0.6840  1.5631
  588MOL0     C77497   8.378   4.172   4.754  0.0536 -0.1498 -0.4411
  588MOL0     C77498   8.231   4.189   4.775  0.5755  0.4637 -0.2646
  588MOL0     C77499   8.166   4.178   4.632  0.2293  0.6549  0.0435
  588MOL0     C77500   8.014   4.167   4.644  0.0811  0.8602  0.3383
  588MOL0     N77501   7.964   4.039   4.710 -0.3411  0.6520  0.5413
  588MOL0     C77502   7.990   3.913   4.654 -0.6226  0.5533  0.8468
  588MOL0     C77503   7.920   3.823   4.727 -0.1991 -0.5642  0.3666
  588MOL0     C77504   7.922   3.675   4.700  0.3962  0.9857  0.4599
  588MOL0     C77505   7.814   3.604   4.790 -0.0040  0.2618  0.1131
  588MOL0     C77506   7.682   3.636   4.726  0.1591 -0.6549  0.0146
  588MOL0     C77507   7.573   3.571   4.805  0.0925  0.0797 -0.0317
  588MOL0     O77508   7.441   3.607   4.760 -0.3126  0.5730  0.6841
  588MOL0     C77509   7.334   3.596   4.846 -0.5561 -0.4571 -0.0467
  588MOL0     C77510   7.322   3.503   4.959  0.5202 -0.5635  0.9720
  588MOL0     C77511   7.200   3.492   5.037 -0.0682 -0.0112  0.4852
  588MOL0     C77512   7.083   3.555   4.999  0.4410 -0.9643  0.1817
  588MOL0     C77513   6.949   3.551   5.065 -0.3005  0.2134  1.3039
  588MOL0     O77514   6.837   3.571   4.983 -0.7032 -0.4374 -0.2050
  588MOL0     C77515   6.707   3.552   5.025 -0.7212  0.3768 -0.1922
  588MOL0     C77516   6.609   3.517   4.931 -0.1618 -0.7241  0.3528
  588MOL0     C77517   6.483   3.488   4.970  0.3888 -0.5086 -0.7697
  588MOL0     C77518   6.444   3.497   5.104  0.6654  0.5529  0.3176
  588MOL0     O77519   6.321   3.450   5.140  0.3102  0.0280 -0.7633
  588MOL0     C77520   6.211   3.425   5.053  0.1109  0.1042 -0.6072
  588MOL0     C77521   6.074   3.469   5.106  0.6956  0.7631  0.5130
  588MOL0     C77522   5.965   3.455   5.000 -0.2957  0.2257 -0.0034
  588MOL0     C77523   5.847   3.553   5.013 -0.4951  0.1397  0.4763
  588MOL0     C77524   5.760   3.527   5.137  0.3473  0.1489 -0.3417
  588MOL0     C77525   5.657   3.641   5.149  0.2069  0.4299  0.4659
  588MOL0     C77526   5.549   3.613   5.259 -0.1793 -0.3847 -0.1868
  588MOL0     C77527   5.448   3.727   5.269  0.5089  0.8484 -0.0128
  588MOL0    Cl77528   5.527   3.891   5.307  0.2675  0.0823  0.2239
  588MOL0     C77529   6.533   3.541   5.201  0.3075  0.3114  0.8412
  588MOL0     C77530   6.663   3.561   5.160 -0.1112 -0.1832 -0.1587
  588MOL0     O77531   6.953   3.539   5.185 -0.1890 -0.5474 -0.4629
  588MOL0     C77532   7.096   3.636   4.879  0.7138  0.3186  0.1560
  588MOL0     C77533   7.215   3.651   4.800  0.6532  0.3210  0.2182
  588MOL0     N77534   7.852   3.891   4.824  0.1151  0.6928 -0.9402
  588MOL0     N77535   7.881   4.015   4.816  0.0891 -0.3055  0.0586
  588MOL0     C77536   9.073   4.377   5.002 -0.2869 -0.6843 -0.0607
  588MOL0     C77537   9.195   4.410   5.015  0.0922  0.3600 -0.0908
  588MOL0     C77538   9.606   4.530   5.123  0.2469  0.3052 -0.2247
  588MOL0     C77539   9.681   4.601   5.036 -0.2404  0.7799  0.1867
  588MOL0     C77540   9.806   4.649   5.056 -0.6776  0.7194 -0.9374
  588MOL0     C77541   9.872   4.620   5.184 -0.4381  0.3693  0.2645
  588MOL0     O77542   9.993   4.677   5.217  0.8729  0.2263  0.4820
  588MOL0     C77543  10.091   4.614   5.301  0.1575  0.3788  0.6153
  588MOL0     C77544  10.178   4.534   5.209 -0.1865  0.2603  0.1441
  588MOL0     C77545  10.119   4.405   5.139 -0.0042 -0.2593  1.3961
  588MOL0     C77546  10.223   4.355   5.040  0.3562 -0.2455 -0.0973
  588MOL0     C77547  10.173   4.222   5.006  0.0685  0.3010 -0.0564
  588MOL0     C77548  10.129   4.112   5.000  0.3473  0.2912 -0.0024
  588MOL0     C77549   9.807   4.528   5.271 -0.0162  0.1607 -0.9682
  588MOL0     C77550   9.676   4.481   5.247  0.6750 -0.1648  0.0595
  588MOL0     H77551   9.261   4.301   5.339 -1.1039  1.9626  1.0189
  588MOL0     H77552   9.017   4.243   5.311 -2.6137 -1.4804 -2.2113
  588MOL0     H77553   8.874   4.227   4.924  1.7069  0.6720  0.9374
  588MOL0     H77554   8.783   4.370   4.954 -1.6266 -0.4373 -0.8653
  588MOL0     H77555   8.609   4.257   5.079  0.3502 -1.5544  1.4781
  588MOL0     H77556   8.664   4.096   5.049  0.7783  0.3870 -0.2026
  588MOL0     H77557   8.640   4.096   4.824  0.7005  0.1895 -0.2095
  588MOL0     H77558   8.626   4.273   4.815 -0.5684  1.4224  1.9904
  588MOL0     H77559   8.422   4.091   4.941  0.9965 -2.0861  0.1007
  588MOL0     H77560   8.410   4.269   4.941 -3.3208  0.5072 -2.1382
  588MOL0     H77561   8.400   4.080   4.699  0.0627 -0.2955 -0.1912
  588MOL0     H77562   8.427   4.248   4.691  2.9741  0.1173  1.8946
  588MOL0     H77563   8.199   4.280   4.827  0.3243  0.7112 -0.8428
  588MOL0     H77564   8.191   4.103   4.829  1.4660  0.2327  0.0460
  588MOL0     H77565   8.194   4.267   4.576  0.0602  0.5326 -0.2402
  588MOL0     H77566   8.208   4.099   4.569  0.2961 -0.6153  1.6026
  588MOL0     H77567   7.979   4.163   4.541  0.1186 -0.9915  0.3698
  588MOL0     H77568   7.970   4.252   4.698 -0.5849 -0.9262  2.8138
  588MOL0     H77569   8.045   3.893   4.563 -1.7916 -1.8002  0.5762
  588MOL0     H77570   8.019   3.630   4.722 -1.0246 -2.5582  0.0916
  588MOL0     H77571   7.909   3.663   4.592  0.5243  3.1336  0.1611
  588MOL0     H77572   7.809   3.647   4.890  1.6521  1.1529 -0.1451
  588MOL0     H77573   7.833   3.497   4.790  1.1021  0.4275 -1.0816
  588MOL0     H77574   7.670   3.744   4.719 -0.1555 -0.7618 -1.3166
  588MOL0     H77575   7.676   3.584   4.629 -2.4143 -1.3565  0.4519
  588MOL0     H77576   7.587   3.599   4.910  2.2255  1.8814 -0.6970
  588MOL0     H77577   7.580   3.463   4.788  1.5354  0.4758 -2.5136
  588MOL0     H77578   7.408   3.439   4.977  1.3304 -0.3633 -1.7402
  588MOL0     H77579   7.201   3.413   5.111 -2.9412  1.2646  2.0741
  588MOL0     H77580   6.639   3.513   4.827  1.3744 -0.3989  0.7722
  588MOL0     H77581   6.409   3.442   4.906 -0.0059 -0.8414 -0.0918
  588MOL0     H77582   6.201   3.321   5.022 -0.9144  0.8275 -2.9201
  588MOL0     H77583   6.226   3.480   4.959  3.2404  0.9934  0.2952
  588MOL0     H77584   6.072   3.576   5.130  0.2348  1.0576 -0.7725
  588MOL0     H77585   6.032   3.425   5.196 -0.6246 -0.4370 -0.6365
  588MOL0     H77586   5.931   3.352   4.983  1.4529 -0.5768  1.1685
  588MOL0     H77587   6.015   3.484   4.907 -2.7871 -0.1716 -1.5671
  588MOL0     H77588   5.886   3.654   5.028 -2.5186  1.1082 -0.3987
  588MOL0     H77589   5.783   3.553   4.924  2.0141  1.9502 -1.4751
  588MOL0     H77590   5.823   3.540   5.226  1.1002  0.6478 -0.9265
  588MOL0     H77591   5.701   3.436   5.141  1.6160 -0.6564  2.7029
  588MOL0     H77592   5.602   3.652   5.055  1.9930  3.5117 -0.3472
  588MOL0     H77593   5.709   3.736   5.163  2.0152 -0.4042 -0.3454
  588MOL0     H77594   5.490   3.526   5.228 -0.0236  0.3070 -2.6422
  588MOL0     H77595   5.584   3.584   5.359  0.2536 -1.8679 -0.7479
  588MOL0     H77596   5.379   3.701   5.350  1.2463  0.8597  0.6282
  588MOL0     H77597   5.390   3.736   5.176  0.0307  0.6964  0.2687
  588MOL0     H77598   6.499   3.556   5.303  0.3733 -0.4389  0.9806
  588MOL0     H77599   6.734   3.580   5.240  0.3512 -3.4115  0.3225
  588MOL0     H77600   6.996   3.668   4.851 -0.2774 -1.3450  1.5892
  588MOL0     H77601   7.220   3.715   4.712  1.1490 -1.4399 -1.1096
  588MOL0     H77602   9.009   4.409   4.920 -0.6213  3.2649  1.5460
  588MOL0     H77603   9.241   4.451   4.926  0.5818  2.0592  0.9076
  588MOL0     H77604   9.642   4.632   4.939 -1.2547 -2.1153 -0.4158
  588MOL0     H77605   9.859   4.703   4.979 -0.2123  1.5209 -0.0824
  588MOL0     H77606  10.057   4.549   5.382 -0.3300 -0.1927 -0.0262
  588MOL0     H77607  10.161   4.686   5.344  1.4782 -0.7998  0.5358
  588MOL0     H77608  10.214   4.604   5.133  3.1578  1.1008  2.3098
  588MOL0     H77609  10.262   4.502   5.272 -0.0572  0.2354 -0.0408
  588MOL0     H77610  10.030   4.425   5.078  1.2754 -1.5668 -1.0301
  588MOL0     H77611  10.101   4.341   5.226  0.6772  1.3298  2.7563
  588MOL0     H77612  10.217   4.416   4.950 -0.3656 -1.4258 -0.8844
  588MOL0     H77613  10.321   4.352   5.089 -0.5049  1.3459  1.8810
  588MOL0     H77614  10.093   4.011   5.000 -1.4149  0.8912 -1.3562
  588MOL0     H77615   9.840   4.503   5.371  1.0626 -0.3613 -1.4352
  588MOL0     H77616   9.624   4.421   5.321  1.3085  1.1167  1.6129
  589MOL0     O77617   6.602   4.655   3.099  0.5994 -0.4427 -0.6508
  589MOL0     C77618   6.647   4.539   3.091  0.4993 -0.0956  0.3643
  589MOL0     O77619   6.573   4.422   3.072  0.5810  0.2047  0.1543
  589MOL0     C77620   6.444   4.425   3.031  0.5259 -1.1172  0.0068
  589MOL0     C77621   6.371   4.539   2.991 -0.5476  0.0880  0.2566
  589MOL0     C77622   6.233   4.535   2.955 -0.4390 -0.6394  0.0674
  589MOL0     C77623   6.170   4.415   2.973 -0.2322 -0.0495 -0.1493
  589MOL0     O77624   6.037   4.396   2.947 -0.0663 -0.2194  0.8424
  589MOL0     C77625   5.950   4.482   3.024 -0.4292  0.1171 -0.1252
  589MOL0     C77626   5.821   4.407   3.057 -0.4009 -0.8668  0.3306
  589MOL0     C77627   5.748   4.370   2.925  0.2492 -0.4907  0.1546
  589MOL0     C77628   5.614   4.308   2.964 -0.4532  0.1030  0.0468
  589MOL0     C77629   5.506   4.282   2.859 -0.3472 -0.5079 -0.1780
  589MOL0     C77630   5.487   4.404   2.756 -0.2923  0.1502 -0.6368
  589MOL0     C77631   5.360   4.375   2.675 -0.2525  0.4451  0.8222
  589MOL0     C77632   5.226   4.415   2.737 -0.6581  0.0478 -0.4950
  589MOL0     N77633   5.114   4.351   2.660  0.1919 -0.5633  0.9908
  589MOL0     C77634   5.073   4.398   2.536  0.8855 -1.0037  0.8080
  589MOL0     C77635   4.971   4.313   2.510 -0.5605  0.3886  0.1601
  589MOL0     C77636   4.897   4.315   2.388  0.1553  0.1320 -0.0285
  589MOL0     C77637   4.746   4.264   2.404 -0.1537 -0.7038 -0.1365
  589MOL0     C77638   4.670   4.281   2.279  0.3620 -0.2456  0.4494
  589MOL0     C77639   4.550   4.196   2.269  0.5039 -0.2112 -0.2484
  589MOL0     O77640   4.502   4.204   2.135 -0.7818  0.1722  0.2189
  589MOL0     C77641   4.379   4.159   2.094  0.2047  0.1537 -0.2357
  589MOL0     C77642   4.292   4.090   2.179  0.2054 -0.2011 -0.9539
  589MOL0     C77643   4.167   4.038   2.137 -0.1146  0.0287  1.0184
  589MOL0     C77644   4.127   4.066   2.007 -0.1121 -0.9292 -0.0130
  589MOL0     C77645   3.992   4.017   1.960  0.2966 -0.9588 -0.8506
  589MOL0     O77646   3.936   3.921   2.033 -0.1931  0.2525  0.0041
  589MOL0     C77647   3.828   3.852   1.995 -0.6598 -0.1123 -0.4786
  589MOL0     C77648   3.713   3.912   1.931 -0.2737  0.1402 -0.2725
  589MOL0     C77649   3.614   3.834   1.885  0.3518 -0.6187 -0.5723
  589MOL0     C77650   3.611   3.698   1.909 -0.1202  0.6876 -0.3052
  589MOL0     O77651   3.518   3.612   1.864 -0.1605  0.1738 -1.1169
  589MOL0     C77652   3.450   3.642   1.746 -0.1369  0.2582 -0.1690
  589MOL0     C77653   3.346   3.526   1.732  0.6088 -0.3668  0.1989
  589MOL0     C77654   3.235   3.530   1.837  0.0753  0.1002  0.1910
  589MOL0     C77655   3.140   3.420   1.815  0.4684  1.1543  0.2118
  589MOL0     C77656   3.030   3.419   1.928 -0.8053  0.4155  0.4478
  589MOL0     C77657   2.914   3.317   1.908 -0.0149 -0.1099 -0.1751
  589MOL0     C77658   2.804   3.373   1.814 -0.0472 -0.5096 -0.1083
  589MOL0     C77659   2.692   3.277   1.804 -0.6045 -0.1679  0.4306
  589MOL0    Cl77660   2.607   3.289   1.652  0.0523 -0.3773  0.2532
  589MOL0     C77661   3.707   3.642   1.990  0.2790 -0.9913  0.1760
  589MOL0     C77662   3.820   3.714   2.018 -0.4214 -0.6718  0.4710
  589MOL0     O77663   3.949   4.062   1.853  0.3373  0.1258 -0.9410
  589MOL0     C77664   4.207   4.129   1.919 -0.3816 -1.2048 -0.0969
  589MOL0     C77665   4.332   4.167   1.957 -0.5115  0.3225 -0.4225
  589MOL0     N77666   4.948   4.225   2.617 -0.6306 -0.2465 -0.1854
  589MOL0     N77667   5.032   4.254   2.706  0.3598 -0.1260 -0.4385
  589MOL0     C77668   6.240   4.303   3.024  0.7657 -0.1264  0.7937
  589MOL0     C77669   6.375   4.306   3.052  0.4734  0.5419  0.9495
  589MOL0     C77670   6.791   4.524   3.117 -0.5080 -0.5418  0.0534
  589MOL0     C77671   6.860   4.402   3.127 -0.4329 -0.2634  0.7364
  589MOL0     C77672   6.999   4.388   3.162 -0.0907  0.1405  0.0441
  589MOL0     C77673   7.080   4.498   3.173 -0.2119 -0.7921  0.5400
  589MOL0     O77674   7.215   4.484   3.186 -0.2223  0.7722 -0.7843
  589MOL0     C77675   7.305   4.595   3.177 -0.0208  1.0963  0.5750
  589MOL0     C77676   7.437   4.521   3.194 -0.1280 -0.0240 -0.1418
  589MOL0     C77677   7.549   4.626   3.206  0.2135 -0.1295 -0.6516
  589MOL0     C77678   7.691   4.577   3.204 -0.1480  0.5059  0.6481
  589MOL0     C77679   7.747   4.533   3.076 -0.4613  0.7764  0.9153
  589MOL0     C77680   7.771   4.483   2.971 -0.0982  0.6571  0.6381
  589MOL0     C77681   7.012   4.625   3.159  0.3580 -0.4820 -0.2178
  589MOL0     C77682   6.876   4.639   3.136  0.9508 -0.0632 -0.7891
  589MOL0     H77683   6.417   4.636   2.972 -1.0507  0.5730  1.4278
  589MOL0     H77684   6.186   4.628   2.925 -0.6486 -0.6944  0.2201
  589MOL0     H77685   5.934   4.574   2.967  0.5595 -0.2405 -1.0201
  589MOL0     H77686   6.001   4.502   3.119  1.5394  0.8340 -1.2503
  589MOL0     H77687   5.768   4.472   3.127  1.1113 -0.6051  1.2751
  589MOL0     H77688   5.854   4.320   3.115 -2.4178 -1.0594  1.2772
  589MOL0     H77689   5.815   4.297   2.880  0.2166 -0.7061  0.4479
  589MOL0     H77690   5.737   4.453   2.856 -0.1195 -1.2940 -0.7725
  589MOL0     H77691   5.643   4.208   2.997  1.1705  0.4819 -0.1540
  589MOL0     H77692   5.566   4.354   3.051 -1.1644  1.2372 -0.9087
  589MOL0     H77693   5.411   4.272   2.910 -1.3175 -1.9613 -2.1262
  589MOL0     H77694   5.532   4.194   2.799 -2.0310 -0.2337 -1.3858
  589MOL0     H77695   5.573   4.423   2.691  0.8799  1.1195  1.1251
  589MOL0     H77696   5.465   4.491   2.819 -2.4966 -1.4391  0.9437
  589MOL0     H77697   5.363   4.420   2.576  0.3503  2.4810  1.7242
  589MOL0     H77698   5.362   4.265   2.670 -0.4796  0.5035 -0.9464
  589MOL0     H77699   5.219   4.524   2.745  4.1045  0.4155  3.0260
  589MOL0     H77700   5.213   4.388   2.842  0.9600  1.2346  0.0527
  589MOL0     H77701   5.117   4.476   2.475  2.9414 -1.6827  1.3658
  589MOL0     H77702   4.953   4.259   2.312 -1.8103 -0.7169 -0.9053
  589MOL0     H77703   4.891   4.420   2.359  1.7555  0.0033 -0.9813
  589MOL0     H77704   4.702   4.319   2.487  0.8962  0.2403 -0.1791
  589MOL0     H77705   4.755   4.156   2.420 -1.4179 -1.4396 -3.4510
  589MOL0     H77706   4.641   4.386   2.262  0.2202  0.1881  3.0155
  589MOL0     H77707   4.741   4.252   2.202  0.6570 -1.5002  1.1650
  589MOL0     H77708   4.466   4.217   2.337  0.2365 -3.0853  0.4255
  589MOL0     H77709   4.581   4.094   2.293  1.6943  0.0516 -0.6212
  589MOL0     H77710   4.331   4.066   2.277 -2.1166 -2.7248 -0.5322
  589MOL0     H77711   4.100   3.979   2.198  0.8475 -2.9126 -0.5771
  589MOL0     H77712   3.695   4.018   1.918 -4.0094 -0.0136  2.0155
  589MOL0     H77713   3.534   3.886   1.833  0.9360  2.0089  1.0198
  589MOL0     H77714   3.522   3.635   1.664 -1.4137 -1.1163 -1.2302
  589MOL0     H77715   3.405   3.741   1.755  2.9976  1.5945  3.4125
  589MOL0     H77716   3.400   3.432   1.743  0.1250 -0.6676  0.0200
  589MOL0     H77717   3.298   3.530   1.634 -2.8637 -3.7428  1.5129
  589MOL0     H77718   3.177   3.621   1.817 -0.4522 -0.4629 -0.9295
  589MOL0     H77719   3.271   3.535   1.940  1.6036  1.7056 -0.3676
  589MOL0     H77720   3.089   3.434   1.719  0.5487 -2.0053 -0.4272
  589MOL0     H77721   3.190   3.322   1.814  0.1711  1.0013 -0.3135
  589MOL0     H77722   3.000   3.521   1.954  0.6695  0.9336  0.2117
  589MOL0     H77723   3.085   3.384   2.016 -0.6600 -3.3786 -0.9405
  589MOL0     H77724   2.872   3.293   2.005 -0.5060  0.2756 -0.2904
  589MOL0     H77725   2.958   3.231   1.856  0.1715  0.1739 -0.4913
  589MOL0     H77726   2.773   3.472   1.849 -1.3891 -0.9028 -0.1058
  589MOL0     H77727   2.843   3.390   1.713 -1.5408  1.0233 -0.4775
  589MOL0     H77728   2.621   3.301   1.884 -0.5673 -1.3992  0.8580
  589MOL0     H77729   2.724   3.173   1.811 -0.9636 -0.3948 -0.9369
  589MOL0     H77730   3.703   3.536   2.013 -3.0242 -1.3427 -1.3736
  589MOL0     H77731   3.896   3.665   2.077  0.5290  0.5821  0.3356
  589MOL0     H77732   4.179   4.130   1.814 -0.7337  0.6736 -0.0135
  589MOL0     H77733   4.395   4.220   1.887  0.0005 -1.2229 -1.1693
  589MOL0     H77734   6.201   4.202   3.036  0.2531 -0.5484 -3.1454
  589MOL0     H77735   6.427   4.222   3.095  2.7475  1.4638  0.1533
  589MOL0     H77736   6.798   4.316   3.105 -0.4253  0.1227 -0.9512
  589MOL0     H77737   7.043   4.290   3.174 -1.5952 -0.7045 -1.0173
  589MOL0     H77738   7.287   4.659   3.264 -0.8365 -0.4272  1.5655
  589MOL0     H77739   7.296   4.645   3.080  3.1864 -0.5064 -0.7116
  589MOL0     H77740   7.432   4.462   3.286  2.8948  0.9398  0.7549
  589MOL0     H77741   7.465   4.474   3.100  1.1296 -1.2621  0.8132
  589MOL0     H77742   7.528   4.670   3.304 -3.2327 -2.0514 -0.3524
  589MOL0     H77743   7.533   4.707   3.135  0.2698  2.2756  1.9094
  589MOL0     H77744   7.755   4.659   3.239 -0.9610  0.5093  2.2111
  589MOL0     H77745   7.704   4.503   3.284  2.6324 -0.6989 -0.7813
  589MOL0     H77746   7.800   4.442   2.877  2.2260  1.7378  0.7976
  589MOL0     H77747   7.070   4.716   3.154 -1.7237  1.2076  2.8696
  589MOL0     H77748   6.823   4.733   3.128  1.0977  0.3370  1.8857
  590MOL0     O77749   6.750   4.023   9.993  0.4218  0.1696  0.3349
  590MOL0     C77750   6.754   3.901   9.986  1.0435  0.5651  1.5679
  590MOL0     O77751   6.647   3.821   9.954 -0.2656 -0.1174 -0.5454
  590MOL0     C77752   6.547   3.884   9.875 -0.0335  0.9288  0.1696
  590MOL0     C77753   6.418   3.886   9.905 -0.1752  0.1837 -0.7679
  590MOL0     C77754   6.323   3.953   9.827  0.5437 -0.9554 -0.1850
  590MOL0     C77755   6.359   4.033   9.721  0.8062 -0.8285 -0.1285
  590MOL0     O77756   6.264   4.098   9.650  0.8076 -0.1638 -0.5238
  590MOL0     C77757   6.289   4.113   9.508 -0.4360 -0.2940  0.1105
  590MOL0     C77758   6.183   4.199   9.442  0.1746  0.2386  0.3339
  590MOL0     C77759   6.183   4.183   9.287  0.2326  0.6785 -0.1533
  590MOL0     C77760   6.171   4.049   9.220 -0.2671 -0.0652  0.3578
  590MOL0     C77761   6.040   3.968   9.225  0.1793 -0.1946 -0.3984
  590MOL0     C77762   5.940   4.016   9.120  0.6444  0.4050  0.4959
  590MOL0     C77763   5.802   3.946   9.136  0.4539 -0.1398  0.9009
  590MOL0     C77764   5.700   3.988   9.026 -0.0939  0.5089 -0.1260
  590MOL0     N77765   5.755   3.952   8.893  1.0001  0.5059  0.1755
  590MOL0     C77766   5.828   3.839   8.851 -0.2166 -0.4499  0.0178
  590MOL0     C77767   5.849   3.853   8.713  0.6394  0.3155  0.5848
  590MOL0     C77768   5.920   3.759   8.627  0.1171  0.1949  0.2319
  590MOL0     C77769   5.851   3.625   8.627  0.4999 -0.3936  0.8848
  590MOL0     C77770   5.889   3.547   8.493  0.7598 -0.1649 -0.6332
  590MOL0     C77771   6.037   3.513   8.483 -0.2625 -0.4065 -0.2753
  590MOL0     O77772   6.072   3.424   8.372  0.5341  0.8659  0.0649
  590MOL0     C77773   6.204   3.393   8.343  0.8367 -0.9875 -0.3833
  590MOL0     C77774   6.205   3.330   8.220  0.1824  0.1864  0.8905
  590MOL0     C77775   6.334   3.314   8.158  0.0372  0.7624 -0.5117
  590MOL0     C77776   6.454   3.344   8.225 -0.8567  0.1764  0.0028
  590MOL0     C77777   6.595   3.293   8.176  0.2556  0.2657  0.8752
  590MOL0     O77778   6.707   3.367   8.210 -0.9528  0.6727 -1.9975
  590MOL0     C77779   6.833   3.319   8.194  0.4659  0.4501 -0.3968
  590MOL0     C77780   6.944   3.402   8.189 -0.4193  1.0215 -0.3249
  590MOL0     C77781   7.072   3.343   8.174  0.1816 -0.9220  0.1397
  590MOL0     C77782   7.092   3.208   8.198 -0.4608  0.3122 -0.0342
  590MOL0     O77783   7.206   3.148   8.169 -0.3061  0.3448  0.1979
  590MOL0     C77784   7.309   3.180   8.264  0.9027 -0.5363  0.1018
  590MOL0     C77785   7.296   3.088   8.387 -0.0066  0.2464 -0.3640
  590MOL0     C77786   7.405   3.093   8.495  0.3003 -0.6040  0.8266
  590MOL0     C77787   7.403   3.237   8.554 -0.4063 -0.1971  0.4691
  590MOL0     C77788   7.520   3.271   8.653  0.9593 -0.2226  0.3965
  590MOL0     C77789   7.557   3.165   8.753  0.3903 -0.3936 -0.7713
  590MOL0     C77790   7.446   3.114   8.840  0.2595  1.0026 -0.1755
  590MOL0     C77791   7.502   2.988   8.915  0.4332  0.1154  0.6056
  590MOL0    Cl77792   7.391   2.940   9.038 -0.3586  0.0023  0.2625
  590MOL0     C77793   6.980   3.127   8.230  0.9260 -0.0545 -0.6824
  590MOL0     C77794   6.851   3.186   8.232  0.6994  0.4338 -0.5066
  590MOL0     O77795   6.596   3.204   8.088  0.6330  0.4347 -0.2232
  590MOL0     C77796   6.448   3.406   8.353  0.1803  1.1167 -0.2689
  590MOL0     C77797   6.321   3.428   8.410 -0.2274 -0.3156  0.0242
  590MOL0     N77798   5.768   3.961   8.673  0.7284  0.0849 -0.1923
  590MOL0     N77799   5.707   4.016   8.781  0.1068  0.5147 -0.4949
  590MOL0     C77800   6.488   4.023   9.686  0.3739 -0.1380  0.7210
  590MOL0     C77801   6.585   3.943   9.751 -0.0649 -0.1917 -0.6508
  590MOL0     C77802   6.873   3.837  10.038  0.2857 -0.0366 -0.1143
  590MOL0     C77803   6.881   3.699  10.038  0.2287  0.2526  0.2788
  590MOL0     C77804   6.998   3.642  10.092 -0.4228  0.0463  0.5731
  590MOL0     C77805   7.099   3.719  10.147 -0.4457  0.2383  0.3498
  590MOL0     O77806   7.217   3.669  10.199  0.1659 -0.2322  0.8781
  590MOL0     C77807   7.216   3.585  10.316 -0.4817  0.0810 -0.4966
  590MOL0     C77808   7.131   3.647  10.431 -0.5608 -0.2129  0.3374
  590MOL0     C77809   7.216   3.765  10.495 -0.2354  0.3901 -0.3931
  590MOL0     C77810   7.145   3.811  10.620 -0.5692  0.5079 -0.4582
  590MOL0     C77811   7.195   3.930  10.688 -0.2225  0.3197  0.5940
  590MOL0     C77812   7.238   4.030  10.749  0.3384  0.3198 -0.1157
  590MOL0     C77813   7.087   3.856  10.149  0.0091  0.5338 -0.0583
  590MOL0     C77814   6.976   3.917  10.095 -0.1084 -0.2353  0.0881
  590MOL0     H77815   6.385   3.833   9.994  0.2689  0.8230 -0.2135
  590MOL0     H77816   6.219   3.951   9.858  0.8130 -2.1872  0.7445
  590MOL0     H77817   6.298   4.017   9.456 -3.1422 -0.9026  0.5919
  590MOL0     H77818   6.384   4.166   9.496 -1.4675  1.9236  1.0177
  590MOL0     H77819   6.197   4.305   9.464 -1.9083  0.7110 -0.3990
  590MOL0     H77820   6.082   4.175   9.477  1.5507 -0.6545  4.2384
  590MOL0     H77821   6.280   4.225   9.259  0.5408  1.0627  1.3806
  590MOL0     H77822   6.100   4.245   9.252  0.0628  1.6816  1.8524
  590MOL0     H77823   6.193   4.071   9.115  0.9130  0.2178  0.6454
  590MOL0     H77824   6.253   3.980   9.240 -0.2275 -1.1742 -2.9800
  590MOL0     H77825   5.987   3.978   9.321 -1.4816 -1.5300 -1.1217
  590MOL0     H77826   6.069   3.864   9.210  0.5597  0.0076 -1.0975
  590MOL0     H77827   5.983   3.984   9.025 -0.9350 -1.2149  0.2550
  590MOL0     H77828   5.927   4.124   9.130 -0.9971  0.1112  2.0467
  590MOL0     H77829   5.805   3.837   9.128 -2.9435 -0.2959 -0.2037
  590MOL0     H77830   5.762   3.963   9.236 -1.1124  3.7782 -0.1711
  590MOL0     H77831   5.689   4.097   9.037 -1.1603  0.3251  0.8186
  590MOL0     H77832   5.602   3.944   9.046 -0.4645  1.1696 -0.4513
  590MOL0     H77833   5.882   3.778   8.923  0.2522  0.3239  0.3359
  590MOL0     H77834   6.023   3.756   8.665  1.5202  1.4880 -3.0701
  590MOL0     H77835   5.925   3.796   8.524  2.1914 -3.6470 -1.2793
  590MOL0     H77836   5.742   3.630   8.634  0.4854 -0.4015  0.6857
  590MOL0     H77837   5.883   3.560   8.709 -1.7353 -1.8902  0.6785
  590MOL0     H77838   5.844   3.448   8.488  0.3032 -0.0340  0.6635
  590MOL0     H77839   5.854   3.605   8.407 -3.2630  0.6748  1.3106
  590MOL0     H77840   6.064   3.484   8.585 -2.2639  2.4273  1.1960
  590MOL0     H77841   6.092   3.606   8.468 -0.8129 -0.0409 -0.0478
  590MOL0     H77842   6.119   3.311   8.157 -1.1069  0.0940  2.6169
  590MOL0     H77843   6.334   3.295   8.051 -2.8757  2.1267 -0.8540
  590MOL0     H77844   6.925   3.507   8.164  3.4850  1.8629 -0.3624
  590MOL0     H77845   7.147   3.405   8.127 -1.1549  0.8690  0.2266
  590MOL0     H77846   7.297   3.286   8.288  6.1622  0.3662 -0.0752
  590MOL0     H77847   7.407   3.168   8.216  1.0583 -3.0937  0.9097
  590MOL0     H77848   7.308   2.988   8.344 -2.1737 -0.0941 -0.3177
  590MOL0     H77849   7.200   3.106   8.437  1.3884  1.2314  2.1202
  590MOL0     H77850   7.498   3.076   8.441  0.9287  1.5107  1.1653
  590MOL0     H77851   7.390   3.026   8.580 -1.5208  0.4277  1.3981
  590MOL0     H77852   7.405   3.314   8.477  3.2548 -0.4013  0.2042
  590MOL0     H77853   7.312   3.256   8.611  0.5952  2.3838  1.3091
  590MOL0     H77854   7.505   3.372   8.693  1.2625 -0.7905  2.0052
  590MOL0     H77855   7.606   3.280   8.585 -0.2119 -1.7176 -1.3721
  590MOL0     H77856   7.633   3.208   8.818 -0.7763 -0.6823  0.8377
  590MOL0     H77857   7.609   3.088   8.695  1.2173  1.1671 -2.1861
  590MOL0     H77858   7.411   3.186   8.915 -2.7227  0.0422 -0.5234
  590MOL0     H77859   7.354   3.094   8.785 -2.1189  4.3034  2.1675
  590MOL0     H77860   7.597   3.018   8.959  1.5289 -0.5512 -1.1947
  590MOL0     H77861   7.506   2.905   8.843 -2.5804  2.1092 -2.1330
  590MOL0     H77862   7.000   3.022   8.252 -0.6331  0.1370  2.0435
  590MOL0     H77863   6.770   3.118   8.255 -0.5852  1.8214 -0.7159
  590MOL0     H77864   6.537   3.435   8.408 -0.4097  0.4947  1.0783
  590MOL0     H77865   6.305   3.481   8.503  0.9482  0.4225 -0.1710
  590MOL0     H77866   6.534   4.081   9.608 -0.3993  1.8737  1.6910
  590MOL0     H77867   6.690   3.937   9.724  0.9222  3.8956  1.3700
  590MOL0     H77868   6.805   3.633   9.997  0.1339  0.6084 -0.1358
  590MOL0     H77869   6.993   3.533  10.089 -0.1417  0.0459 -0.1578
  590MOL0     H77870   7.316   3.561  10.353 -1.2692 -2.8734  0.0050
  590MOL0     H77871   7.165   3.492  10.287 -1.3913  0.1267  0.8852
  590MOL0     H77872   7.038   3.681  10.384  0.1082 -0.7303 -1.4231
  590MOL0     H77873   7.103   3.572  10.506 -0.7491 -0.5757 -0.0949
  590MOL0     H77874   7.205   3.849  10.427  3.6694  0.8427 -0.7084
  590MOL0     H77875   7.320   3.735  10.512 -1.1555 -3.0910 -0.0226
  590MOL0     H77876   7.044   3.848  10.598 -0.3670  1.7099  0.5334
  590MOL0     H77877   7.133   3.722  10.682  1.3622  0.3401 -0.2514
  590MOL0     H77878   7.296   4.103  10.802  1.2692  0.7129 -1.5961
  590MOL0     H77879   7.154   3.913  10.212 -2.1579 -0.3792  3.3644
  590MOL0     H77880   6.967   4.025  10.103 -1.7707 -0.4246  1.3384
  591MOL0     O77881   0.310  10.342   1.782  0.1818  0.6848  0.3683
  591MOL0     C77882   0.343  10.421   1.689  0.7469  0.4064 -1.0583
  591MOL0     O77883   0.258  10.494   1.618  0.4084 -0.6041  0.5945
  591MOL0     C77884   0.124  10.486   1.644 -0.4786  0.8868  0.4438
  591MOL0     C77885   0.064  10.606   1.661  0.9417 -0.0758  0.3083
  591MOL0     C77886  -0.071  10.608   1.695  0.6911 -0.0621  0.0585
  591MOL0     C77887  -0.141  10.492   1.740 -0.9532 -0.1016  0.0039
  591MOL0     O77888  -0.261  10.514   1.807 -0.2312  0.5923 -0.2798
  591MOL0     C77889  -0.343  10.402   1.844  0.2132  0.4466  0.4250
  591MOL0     C77890  -0.495  10.443   1.862 -0.4620 -0.7362 -0.3919
  591MOL0     C77891  -0.530  10.519   1.986  0.1821 -0.4358 -0.5042
  591MOL0     C77892  -0.666  10.579   1.969  0.3622 -0.4336  0.3136
  591MOL0     C77893  -0.786  10.482   1.972  0.0617  0.3352  0.4656
  591MOL0     C77894  -0.859  10.460   2.105  0.4739  0.3114 -0.3285
  591MOL0     C77895  -0.993  10.374   2.107 -0.2415  0.2381  0.3348
  591MOL0     C77896  -1.052  10.349   2.246  0.0365  0.0816  0.0787
  591MOL0     N77897  -1.184  10.304   2.241 -1.2019  0.0935 -0.7506
  591MOL0     C77898  -1.288  10.377   2.192 -0.2826 -0.1293 -0.1161
  591MOL0     C77899  -1.392  10.290   2.194  0.2163  0.4739  0.0065
  591MOL0     C77900  -1.533  10.299   2.141  0.7383  0.1326 -0.0954
  591MOL0     C77901  -1.642  10.322   2.251 -0.0017  0.7367  0.1620
  591MOL0     C77902  -1.668  10.472   2.265  0.1844 -0.5481  0.7229
  591MOL0     C77903  -1.783  10.501   2.370 -0.3226 -0.0356  0.1541
  591MOL0     O77904  -1.907  10.450   2.327  0.3264 -0.0482  1.1776
  591MOL0     C77905  -2.021  10.465   2.410  0.5253  0.7192 -1.1528
  591MOL0     C77906  -2.138  10.430   2.357  0.3788 -0.9278  0.2378
  591MOL0     C77907  -2.261  10.440   2.425 -0.1931  0.8221 -0.7220
  591MOL0     C77908  -2.265  10.489   2.557 -1.3045 -0.5771  0.5990
  591MOL0     C77909  -2.386  10.482   2.637  0.3171  1.0417  0.1514
  591MOL0     O77910  -2.497  10.462   2.560 -0.1894 -0.1597  0.7480
  591MOL0     C77911  -2.620  10.488   2.617  0.2966 -0.5140 -0.5932
  591MOL0     C77912  -2.722  10.412   2.571 -0.0272  0.2013  0.3710
  591MOL0     C77913  -2.851  10.435   2.602 -0.6678 -0.4485 -0.5573
  591MOL0     C77914  -2.886  10.525   2.708 -0.8371  1.1933 -0.1786
  591MOL0     O77915  -3.018  10.545   2.734  0.1828  0.2347  0.1233
  591MOL0     C77916  -3.057  10.637   2.837 -0.5085 -0.8853  1.1690
  591MOL0     C77917  -3.211  10.613   2.866 -0.4009  0.5484  0.6650
  591MOL0     C77918  -3.267  10.727   2.959 -0.0354 -0.2446 -0.1306
  591MOL0     C77919  -3.415  10.706   3.002 -0.8667 -0.4782 -0.3753
  591MOL0     C77920  -3.478  10.841   3.042 -0.4959  0.1472 -0.1257
  591MOL0     C77921  -3.628  10.825   3.081 -1.1741  1.0944 -0.4862
  591MOL0     C77922  -3.720  10.807   2.955  0.1322  0.3425  0.6190
  591MOL0     C77923  -3.865  10.827   3.000 -0.6178 -0.9640  0.3718
  591MOL0    Cl77924  -3.969  10.815   2.850  0.5579  0.4253  0.1650
  591MOL0     C77925  -2.785  10.608   2.753 -0.2663  0.8133 -0.3433
  591MOL0     C77926  -2.650  10.593   2.707  0.2352 -0.2846 -0.2897
  591MOL0     O77927  -2.387  10.494   2.762 -0.3448  0.6837 -0.0962
  591MOL0     C77928  -2.130  10.523   2.611  0.2212  0.0122 -0.5453
  591MOL0     C77929  -2.016  10.508   2.541 -0.2387  0.3144  0.5855
  591MOL0     N77930  -1.349  10.174   2.263 -0.1326 -0.5184  0.8046
  591MOL0     N77931  -1.225  10.185   2.298 -0.2971  0.3020  0.3769
  591MOL0     C77932  -0.077  10.366   1.721  0.3556 -1.1332  0.1890
  591MOL0     C77933   0.048  10.364   1.666 -0.0335  0.8450 -1.1248
  591MOL0     C77934   0.485  10.419   1.647 -0.1866 -0.3131  0.0278
  591MOL0     C77935   0.519  10.480   1.523 -0.4121  0.0157 -0.1170
  591MOL0     C77936   0.661  10.495   1.489 -0.3020 -0.0177 -0.1155
  591MOL0     C77937   0.760  10.446   1.583  0.1795  0.5460 -0.3021
  591MOL0     O77938   0.891  10.478   1.571  0.0019  0.0524 -0.2265
  591MOL0     C77939   0.928  10.569   1.468 -0.1650 -0.2863 -0.0882
  591MOL0     C77940   1.077  10.609   1.482 -0.1673 -0.5828  0.0984
  591MOL0     C77941   1.125  10.690   1.361 -0.8990  0.3865  0.8335
  591MOL0     C77942   1.269  10.720   1.371  0.2509  0.2927  0.5669
  591MOL0     C77943   1.309  10.804   1.487 -0.0703  0.3703  0.5133
  591MOL0     C77944   1.342  10.888   1.571  0.6833 -0.2407 -0.3038
  591MOL0     C77945   0.716  10.377   1.693  0.9694  0.1152 -0.5433
  591MOL0     C77946   0.577  10.361   1.722  0.3858 -0.5852 -0.5234
  591MOL0     H77947   0.125  10.695   1.651  1.2892 -0.3990 -0.5431
  591MOL0     H77948  -0.116  10.706   1.711 -0.8684 -0.6062 -0.7093
  591MOL0     H77949  -0.296  10.343   1.923 -0.1253 -1.9195 -1.0295
  591MOL0     H77950  -0.352  10.337   1.756  1.6698  0.1969  0.4303
  591MOL0     H77951  -0.556  10.353   1.874  0.5313 -1.4420 -0.5402
  591MOL0     H77952  -0.531  10.493   1.772 -1.6591 -2.2476 -0.7928
  591MOL0     H77953  -0.454  10.593   2.013  0.4124 -0.4654 -1.0641
  591MOL0     H77954  -0.535  10.454   2.074  1.8517  0.0562 -0.0086
  591MOL0     H77955  -0.680  10.659   2.043 -0.2330 -0.9012  0.7114
  591MOL0     H77956  -0.671  10.635   1.875  0.6398 -1.7883 -0.5276
  591MOL0     H77957  -0.758  10.388   1.922 -0.4589  0.4696 -0.0923
  591MOL0     H77958  -0.858  10.528   1.905  0.0281 -2.4367 -1.6012
  591MOL0     H77959  -0.880  10.562   2.140  1.4838 -0.1337  1.7214
  591MOL0     H77960  -0.785  10.424   2.177 -1.1663 -2.4228  0.1146
  591MOL0     H77961  -1.072  10.429   2.054 -2.0510 -0.8471  1.7849
  591MOL0     H77962  -0.973  10.279   2.057  1.7193  0.2533  0.9957
  591MOL0     H77963  -1.043  10.444   2.300 -0.0494  0.0634  0.1255
  591MOL0     H77964  -0.986  10.281   2.302  1.9115  1.5392 -0.2567
  591MOL0     H77965  -1.292  10.478   2.152  1.4266 -0.5953 -1.6226
  591MOL0     H77966  -1.551  10.203   2.092  0.7125  0.0985 -0.0189
  591MOL0     H77967  -1.540  10.379   2.066 -1.2603  1.0800  1.0231
  591MOL0     H77968  -1.610  10.285   2.349  1.8706 -1.0105 -1.0249
  591MOL0     H77969  -1.732  10.264   2.230  0.2404  0.0513  0.9599
  591MOL0     H77970  -1.581  10.531   2.295 -0.8537  2.0522 -1.0478
  591MOL0     H77971  -1.697  10.509   2.167  0.2035  0.4779  1.0917
  591MOL0     H77972  -1.781  10.609   2.383  3.3880  0.0891 -0.1365
  591MOL0     H77973  -1.766  10.460   2.471 -1.4870 -0.1939  0.2984
  591MOL0     H77974  -2.129  10.401   2.253 -1.2215 -0.2677 -0.1155
  591MOL0     H77975  -2.355  10.405   2.384 -0.4651  1.4431 -0.6358
  591MOL0     H77976  -2.706  10.336   2.495 -0.3528  1.5036 -1.0593
  591MOL0     H77977  -2.929  10.363   2.577 -1.7591  0.0507  1.1872
  591MOL0     H77978  -3.037  10.742   2.813  0.9319 -1.1466  1.1294
  591MOL0     H77979  -2.999  10.611   2.926  2.2983  1.7002  0.2579
  591MOL0     H77980  -3.239  10.513   2.902 -1.4711 -1.1209 -4.0244
  591MOL0     H77981  -3.267  10.627   2.773  0.0855  1.4048  0.4904
  591MOL0     H77982  -3.261  10.829   2.919  0.4226  0.2185  1.0683
  591MOL0     H77983  -3.208  10.731   3.051  0.7041  0.7755 -0.6318
  591MOL0     H77984  -3.476  10.652   2.928 -1.7476 -0.6324  0.4376
  591MOL0     H77985  -3.401  10.635   3.085 -0.4031  1.7229  1.5196
  591MOL0     H77986  -3.466  10.914   2.961  0.1479  1.2462  0.9398
  591MOL0     H77987  -3.427  10.893   3.123  0.2474 -0.4780 -0.1791
  591MOL0     H77988  -3.653  10.920   3.129  0.3320  1.2109  0.1317
  591MOL0     H77989  -3.637  10.737   3.145 -1.5961  0.2601 -1.6582
  591MOL0     H77990  -3.688  10.869   2.871 -0.2965 -2.6304 -1.9436
  591MOL0     H77991  -3.716  10.705   2.915 -0.7049 -0.1336  1.7043
  591MOL0     H77992  -3.882  10.921   3.053  1.2321  0.7012 -1.7909
  591MOL0     H77993  -3.900  10.749   3.068  0.2385  0.8505  3.0756
  591MOL0     H77994  -2.807  10.673   2.837 -0.7332 -2.0565  1.9139
  591MOL0     H77995  -2.564  10.649   2.743 -0.1515 -0.8946  1.6909
  591MOL0     H77996  -2.127  10.552   2.716 -0.8068 -1.6789 -0.0009
  591MOL0     H77997  -1.936  10.541   2.607 -0.9760  4.3013 -0.2112
  591MOL0     H77998  -0.121  10.272   1.752 -0.7122 -0.7106 -0.0158
  591MOL0     H77999   0.088  10.263   1.659  1.8946  1.4571  0.3219
  591MOL0     H78000   0.453  10.514   1.444  1.3818 -2.3943 -2.9069
  591MOL0     H78001   0.694  10.549   1.401  0.2277 -0.5278 -0.2312
  591MOL0     H78002   0.868  10.660   1.462 -1.2921 -0.9091  1.0778
  591MOL0     H78003   0.925  10.529   1.366 -1.9140  2.4181 -1.2097
  591MOL0     H78004   1.084  10.681   1.564  0.9929  0.7964 -1.1734
  591MOL0     H78005   1.134  10.522   1.517  0.0429  0.0714  1.4472
  591MOL0     H78006   1.068  10.783   1.355 -3.8104 -1.1752  1.8214
  591MOL0     H78007   1.106  10.638   1.266 -0.7599 -1.7311  1.9089
  591MOL0     H78008   1.329  10.629   1.379 -1.6177 -1.2040 -1.5963
  591MOL0     H78009   1.308  10.781   1.288  1.3741  0.7784  1.4120
  591MOL0     H78010   1.377  10.958   1.644  1.8997  0.2798 -1.3445
  591MOL0     H78011   0.790  10.343   1.764  1.4383  1.2896 -0.4549
  591MOL0     H78012   0.565  10.321   1.823  2.5637 -1.2824 -0.4909
  592MOL0     O78013  10.699   4.635   9.173  0.3174  0.2083 -0.4574
  592MOL0     C78014  10.778   4.647   9.080 -0.1567  0.3301 -0.6961
  592MOL0     O78015  10.745   4.635   8.951  0.2596 -0.1438 -0.0327
  592MOL0     C78016  10.612   4.627   8.921  0.0971 -0.9053  0.0802
  592MOL0     C78017  10.535   4.742   8.912  0.0176 -0.2838 -0.1400
  592MOL0     C78018  10.400   4.738   8.881  0.3973  0.2439 -0.0110
  592MOL0     C78019  10.338   4.616   8.855 -0.4099  0.4969  0.5962
  592MOL0     O78020  10.206   4.622   8.829  0.5016  0.0285  0.2288
  592MOL0     C78021  10.153   4.519   8.740 -0.8199 -0.8735 -0.3629
  592MOL0     C78022  10.006   4.549   8.690  0.4509  0.1437  0.2645
  592MOL0     C78023   9.893   4.487   8.778 -0.6446  0.2773 -0.0394
  592MOL0     C78024   9.746   4.523   8.733 -0.3892  0.0189 -0.2590
  592MOL0     C78025   9.638   4.458   8.827 -0.2389 -0.1229 -0.2930
  592MOL0     C78026   9.623   4.310   8.798  0.6196  0.0083  0.6936
  592MOL0     C78027   9.494   4.257   8.866  0.8268  1.0840  1.5371
  592MOL0     C78028   9.441   4.118   8.813  0.1331  0.0632 -0.3273
  592MOL0     N78029   9.302   4.099   8.834  0.8038 -0.0003 -0.0442
  592MOL0     C78030   9.243   3.988   8.872 -0.5682  0.5180 -0.0227
  592MOL0     C78031   9.112   4.000   8.849  0.2613  0.7610  0.2216
  592MOL0     C78032   9.000   3.904   8.873  0.1743  0.8639  0.1620
  592MOL0     C78033   8.967   3.879   9.023  0.2743 -0.3606 -0.2266
  592MOL0     C78034   8.935   3.998   9.112  0.5955  0.1924 -0.2578
  592MOL0     C78035   8.809   4.071   9.060  0.4544 -0.1994 -0.7859
  592MOL0     O78036   8.737   4.112   9.179 -0.0592 -0.0735 -0.1592
  592MOL0     C78037   8.599   4.133   9.172 -0.1412  0.6473  0.3283
  592MOL0     C78038   8.532   4.173   9.289 -0.4978  0.2983  0.2248
  592MOL0     C78039   8.392   4.198   9.297 -0.5518  0.6986 -0.1442
  592MOL0     C78040   8.310   4.191   9.185  1.0313  0.1530 -0.6340
  592MOL0     C78041   8.164   4.221   9.198  0.2675 -0.3661 -0.7698
  592MOL0     O78042   8.114   4.256   9.316  0.2435 -0.5007  0.3262
  592MOL0     C78043   7.980   4.264   9.344 -0.2012  0.4722  0.7298
  592MOL0     C78044   7.886   4.315   9.254  0.1211 -0.3569  0.8305
  592MOL0     C78045   7.746   4.320   9.288 -0.0467 -0.3836  0.3911
  592MOL0     C78046   7.698   4.257   9.401  0.0706 -0.0950 -0.1280
  592MOL0     O78047   7.566   4.238   9.432 -0.3934 -0.0005 -1.3060
  592MOL0     C78048   7.499   4.360   9.468  0.1707  1.0653  0.1938
  592MOL0     C78049   7.364   4.328   9.529 -0.1730 -0.1639 -0.4144
  592MOL0     C78050   7.273   4.275   9.422 -0.2683  0.5221 -0.4205
  592MOL0     C78051   7.122   4.286   9.463 -0.1044  0.2166 -0.1045
  592MOL0     C78052   7.028   4.213   9.368 -0.2244 -0.4245 -0.7378
  592MOL0     C78053   6.888   4.179   9.432  0.3353 -0.3362  0.3167
  592MOL0     C78054   6.791   4.096   9.344 -0.5268 -0.1446  1.0398
  592MOL0     C78055   6.844   3.950   9.329 -0.1899  0.3203 -0.1044
  592MOL0    Cl78056   6.703   3.893   9.235 -0.1865  0.2821 -0.3431
  592MOL0     C78057   7.793   4.193   9.483 -0.4810 -0.7323 -0.5916
  592MOL0     C78058   7.938   4.214   9.465  0.2825  0.1780 -1.1744
  592MOL0     O78059   8.097   4.190   9.099 -0.1010 -0.3937 -0.3758
  592MOL0     C78060   8.374   4.160   9.065  0.3741 -0.6003 -0.6297
  592MOL0     C78061   8.512   4.123   9.060  0.2672  0.8034  0.2333
  592MOL0     N78062   9.099   4.121   8.795 -0.2964  0.5099 -0.3325
  592MOL0     N78063   9.215   4.174   8.775 -0.1000  0.3837 -0.0281
  592MOL0     C78064  10.419   4.495   8.869 -0.8236 -0.3220  0.8720
  592MOL0     C78065  10.556   4.501   8.897 -0.4636 -0.5534 -0.2880
  592MOL0     C78066  10.925   4.671   9.116  0.4917 -0.2127 -0.7686
  592MOL0     C78067  10.964   4.682   9.247  0.2645 -0.3011  0.0684
  592MOL0     C78068  11.092   4.717   9.279  0.5169 -0.2870 -0.0182
  592MOL0     C78069  11.179   4.765   9.182 -0.8878  0.0419  0.1780
  592MOL0     O78070  11.308   4.810   9.213  0.3400  0.2712 -0.3173
  592MOL0     C78071  11.352   4.791   9.354 -0.0322  0.5978  0.5295
  592MOL0     C78072  11.488   4.843   9.377  0.3169 -0.2842  0.0728
  592MOL0     C78073  11.580   4.751   9.317 -0.2803  0.9751 -0.1851
  592MOL0     C78074  11.730   4.796   9.341 -0.1420  0.1499  0.3111
  592MOL0     C78075  11.827   4.703   9.283 -0.7061 -0.4134 -0.1914
  592MOL0     C78076  11.906   4.636   9.221  0.3429 -0.2030  0.1722
  592MOL0     C78077  11.141   4.767   9.050 -0.3244 -0.4135  0.4878
  592MOL0     C78078  11.017   4.714   9.014 -0.1515  0.2490 -0.3741
  592MOL0     H78079  10.576   4.839   8.935 -0.8688  1.0354 -3.5057
  592MOL0     H78080  10.338   4.827   8.883  0.5153  0.4539  4.3721
  592MOL0     H78081  10.154   4.435   8.810  3.8524 -1.0427 -0.3205
  592MOL0     H78082  10.218   4.499   8.655  0.7947 -0.4301  0.7171
  592MOL0     H78083  10.008   4.494   8.596 -0.0639  0.7070 -0.0793
  592MOL0     H78084  10.010   4.658   8.679  3.0221 -0.1161 -2.8093
  592MOL0     H78085   9.914   4.523   8.879  2.2611  0.2559 -0.5491
  592MOL0     H78086   9.907   4.378   8.779 -0.1501  0.2874 -1.6709
  592MOL0     H78087   9.732   4.630   8.751  0.1849 -0.0075  0.3755
  592MOL0     H78088   9.725   4.507   8.627 -0.2988 -1.6065 -0.0600
  592MOL0     H78089   9.541   4.505   8.812  0.2379  0.5795 -1.2897
  592MOL0     H78090   9.660   4.489   8.930 -1.2032  3.2105 -0.9770
  592MOL0     H78091   9.716   4.261   8.831 -0.3421 -1.1736  1.7360
  592MOL0     H78092   9.620   4.302   8.689  4.2933 -0.8537  0.5024
  592MOL0     H78093   9.505   4.250   8.974 -2.1584 -2.4299  1.8224
  592MOL0     H78094   9.416   4.331   8.842 -0.2700 -0.0787  1.4307
  592MOL0     H78095   9.501   4.045   8.868  0.4755  1.0171  0.6016
  592MOL0     H78096   9.461   4.087   8.710  3.3817  3.4500 -0.9449
  592MOL0     H78097   9.292   3.900   8.913 -0.0387 -1.0437 -3.6706
  592MOL0     H78098   9.014   3.803   8.833 -5.4968  0.5738 -2.0615
  592MOL0     H78099   8.905   3.931   8.825 -0.8870 -1.6274  0.6800
  592MOL0     H78100   9.057   3.836   9.069 -1.0776 -2.8610  0.2556
  592MOL0     H78101   8.889   3.805   9.042  0.6438 -0.0722  2.9552
  592MOL0     H78102   8.918   3.969   9.216  0.6803 -0.8179 -0.5154
  592MOL0     H78103   9.019   4.067   9.119  3.2867 -2.8028 -0.9152
  592MOL0     H78104   8.747   4.006   8.999  1.1129 -0.5272 -1.1157
  592MOL0     H78105   8.825   4.159   8.997  0.8369  0.3567  0.0603
  592MOL0     H78106   8.587   4.192   9.380  0.3637 -0.1910 -0.1814
  592MOL0     H78107   8.343   4.224   9.391 -0.6270 -1.6872  0.5534
  592MOL0     H78108   7.920   4.351   9.158  0.3066  1.1299  1.4190
  592MOL0     H78109   7.680   4.368   9.216  0.6093  0.1498  0.1297
  592MOL0     H78110   7.486   4.420   9.378  1.6503  0.7538 -0.2592
  592MOL0     H78111   7.558   4.424   9.534 -0.0134  1.6881 -0.2403
  592MOL0     H78112   7.330   4.422   9.573  3.4222  0.7120  0.8540
  592MOL0     H78113   7.383   4.257   9.610  0.0432 -0.9720 -1.1577
  592MOL0     H78114   7.297   4.173   9.392 -1.8398 -0.1698  0.5848
  592MOL0     H78115   7.290   4.347   9.340  1.3340  0.9862  0.2720
  592MOL0     H78116   7.113   4.234   9.559 -0.0712  0.1126 -0.1572
  592MOL0     H78117   7.093   4.390   9.481  2.0205  0.5803  1.7304
  592MOL0     H78118   7.072   4.118   9.336  0.4817 -0.8921  1.4648
  592MOL0     H78119   7.025   4.279   9.281  1.3994 -1.2164 -1.4432
  592MOL0     H78120   6.840   4.278   9.435 -0.5625 -0.5464 -3.1660
  592MOL0     H78121   6.907   4.146   9.535  1.9681  1.2589  0.5890
  592MOL0     H78122   6.690   4.112   9.383 -0.1003  2.9665  1.1643
  592MOL0     H78123   6.791   4.145   9.245  1.8756  2.6612  2.2653
  592MOL0     H78124   6.865   3.901   9.425 -0.8199 -0.9851 -0.6011
  592MOL0     H78125   6.932   3.942   9.264 -1.1307 -3.0325 -1.1944
  592MOL0     H78126   7.745   4.131   9.558 -1.5699 -1.0560 -1.5443
  592MOL0     H78127   8.014   4.178   9.533 -1.4437 -1.6936 -0.1318
  592MOL0     H78128   8.325   4.146   8.969  1.3081  1.2804 -1.4266
  592MOL0     H78129   8.560   4.093   8.968 -0.4491  0.6531 -0.1007
  592MOL0     H78130  10.370   4.405   8.832  0.0109 -0.7882  0.8773
  592MOL0     H78131  10.617   4.411   8.893 -2.7696 -2.1753 -3.3037
  592MOL0     H78132  10.884   4.668   9.319  0.5504 -0.1662  0.4119
  592MOL0     H78133  11.108   4.714   9.386 -0.5407 -1.1555  0.1359
  592MOL0     H78134  11.349   4.684   9.376 -2.7991  0.3555 -0.5943
  592MOL0     H78135  11.286   4.848   9.420  1.7029  4.2245 -0.6022
  592MOL0     H78136  11.484   4.940   9.328 -2.6686 -0.5458 -0.4105
  592MOL0     H78137  11.504   4.861   9.483 -1.8661  0.7255  0.2730
  592MOL0     H78138  11.558   4.732   9.212 -3.4990 -1.5949  0.7770
  592MOL0     H78139  11.569   4.653   9.364 -0.5590  1.9925  2.0338
  592MOL0     H78140  11.752   4.893   9.296 -2.5748  0.3599 -0.5298
  592MOL0     H78141  11.756   4.815   9.446 -1.5862  2.5342  0.3148
  592MOL0     H78142  11.973   4.572   9.167  2.5667  1.4188  0.8805
  592MOL0     H78143  11.214   4.811   8.983 -2.1681  5.4065  1.6654
  592MOL0     H78144  10.980   4.711   8.912 -0.5109  2.5093 -0.3571
  593MOL0     O78145   3.571   3.903   1.511 -0.5963  0.3263  0.1289
  593MOL0     C78146   3.643   3.880   1.413 -0.8451 -0.1338  0.0833
  593MOL0     O78147   3.610   3.814   1.300  0.7741  0.3608  0.8217
  593MOL0     C78148   3.489   3.757   1.316 -0.6300  0.5513  0.7458
  593MOL0     C78149   3.507   3.624   1.336 -0.2465  0.5656 -0.1596
  593MOL0     C78150   3.392   3.543   1.353  0.3224 -0.5426  0.3562
  593MOL0     C78151   3.262   3.594   1.344  0.2479 -0.7358  0.3779
  593MOL0     O78152   3.164   3.499   1.362  0.1681 -0.0292 -0.2332
  593MOL0     C78153   3.031   3.551   1.407  0.0139  0.2156 -0.5657
  593MOL0     C78154   2.930   3.438   1.421 -0.0426  0.2815  0.3247
  593MOL0     C78155   2.925   3.361   1.286  0.4996  1.0702  0.1284
  593MOL0     C78156   2.840   3.233   1.311  0.1335 -0.2887 -0.1905
  593MOL0     C78157   2.809   3.167   1.180 -0.2621  0.0200  0.1067
  593MOL0     C78158   2.687   3.077   1.179  0.5017  0.9074 -0.2583
  593MOL0     C78159   2.655   2.990   1.060 -0.0062  0.1223  0.6383
  593MOL0     C78160   2.703   2.850   1.097 -0.6804  0.5753  0.1188
  593MOL0     N78161   2.614   2.780   1.195  0.5224 -0.1613  0.6231
  593MOL0     C78162   2.639   2.766   1.327  0.1771  0.5404 -0.4145
  593MOL0     C78163   2.552   2.670   1.375  0.4366  0.2218  1.0004
  593MOL0     C78164   2.555   2.603   1.507 -0.9399 -0.1217 -1.0663
  593MOL0     C78165   2.548   2.450   1.505  0.4426 -0.1964 -0.6250
  593MOL0     C78166   2.557   2.394   1.646 -0.4650  0.4901  0.1388
  593MOL0     C78167   2.563   2.240   1.646  0.0403  0.4386 -0.2595
  593MOL0     O78168   2.440   2.191   1.590 -0.0675  0.3761 -0.1821
  593MOL0     C78169   2.354   2.112   1.666  0.1665  0.3289 -0.0678
  593MOL0     C78170   2.223   2.127   1.634 -0.2627 -0.0336  0.6858
  593MOL0     C78171   2.125   2.057   1.708  0.6180 -0.3932  1.2511
  593MOL0     C78172   2.164   1.973   1.811  0.9427  0.5574  0.7777
  593MOL0     C78173   2.070   1.891   1.887 -0.5969 -0.4114  0.9497
  593MOL0     O78174   2.117   1.817   1.985  0.1866 -0.3221 -0.1239
  593MOL0     C78175   2.028   1.760   2.068 -0.2003 -0.0138  0.9952
  593MOL0     C78176   2.047   1.780   2.201  0.1352  0.8004  0.0571
  593MOL0     C78177   1.958   1.713   2.293  0.4084 -1.0111 -0.8265
  593MOL0     C78178   1.850   1.635   2.246 -1.2581  0.2930 -0.6085
  593MOL0     O78179   1.763   1.578   2.335  0.0939 -0.5032  0.2883
  593MOL0     C78180   1.674   1.466   2.302  0.6252 -0.3613  0.7648
  593MOL0     C78181   1.610   1.428   2.440  0.2197 -0.3664 -0.0744
  593MOL0     C78182   1.704   1.370   2.540 -0.2624 -0.5265  0.0686
  593MOL0     C78183   1.643   1.349   2.675 -0.4478  0.4243 -0.1065
  593MOL0     C78184   1.737   1.283   2.769 -0.1862  0.1751  0.1512
  593MOL0     C78185   1.743   1.136   2.744 -0.1391 -0.5756 -1.0115
  593MOL0     C78186   1.781   1.059   2.876  0.8832 -0.0442 -0.0835
  593MOL0     C78187   1.844   0.926   2.836 -0.6770  0.0837 -0.7658
  593MOL0    Cl78188   1.712   0.828   2.746 -0.3462  0.0693  0.2476
  593MOL0     C78189   1.852   1.605   2.107 -0.0628  0.9091 -0.0843
  593MOL0     C78190   1.936   1.672   2.019 -0.3476  0.0055  0.0161
  593MOL0     O78191   1.947   1.918   1.871 -0.2492 -0.2808 -0.7172
  593MOL0     C78192   2.305   1.962   1.836 -0.0841  0.8612  0.1539
  593MOL0     C78193   2.396   2.032   1.761  0.5625  0.7390 -0.0366
  593MOL0     N78194   2.463   2.647   1.275  0.0165  0.5569  0.5119
  593MOL0     N78195   2.504   2.704   1.163  0.2541  0.3065 -0.4762
  593MOL0     C78196   3.243   3.740   1.317 -0.7936 -0.0257 -0.1002
  593MOL0     C78197   3.357   3.821   1.310 -0.0946 -1.1024 -0.0284
  593MOL0     C78198   3.780   3.931   1.414  0.6592 -0.8038 -0.1029
  593MOL0     C78199   3.869   3.894   1.309  0.2205 -0.0610  0.3130
  593MOL0     C78200   4.007   3.945   1.321 -0.4325  0.5027 -0.3326
  593MOL0     C78201   4.054   4.018   1.435 -0.3978  0.4985  0.1874
  593MOL0     O78202   4.186   4.063   1.443 -0.3955  0.7788 -0.0162
  593MOL0     C78203   4.278   4.062   1.341 -0.1457 -0.5264 -0.0351
  593MOL0     C78204   4.385   4.167   1.377 -0.1255 -0.0424  0.4832
  593MOL0     C78205   4.484   4.202   1.261 -0.7277  0.2482 -0.9202
  593MOL0     C78206   4.600   4.287   1.311  0.7156 -0.1131 -0.1543
  593MOL0     C78207   4.698   4.298   1.203  0.7760 -0.3559 -0.1190
  593MOL0     C78208   4.776   4.327   1.114 -0.3569  0.9929 -0.3177
  593MOL0     C78209   3.965   4.045   1.536 -0.0282  0.8271 -0.3192
  593MOL0     C78210   3.835   3.999   1.526  0.8460  0.4328  0.0959
  593MOL0     H78211   3.602   3.573   1.349  0.3294  1.6264 -0.1549
  593MOL0     H78212   3.388   3.435   1.362 -2.5420 -0.5530 -0.0872
  593MOL0     H78213   2.997   3.625   1.334  0.3802  1.7574  0.7700
  593MOL0     H78214   3.042   3.600   1.504  0.3575 -1.1638  0.1138
  593MOL0     H78215   2.834   3.479   1.454  0.0648  0.9164 -0.1432
  593MOL0     H78216   2.960   3.368   1.500  0.4163 -0.1097 -0.1889
  593MOL0     H78217   3.026   3.327   1.264 -0.7078 -0.8757 -3.0293
  593MOL0     H78218   2.891   3.424   1.203  0.5409 -0.1808 -0.8581
  593MOL0     H78219   2.893   3.168   1.381 -0.2696 -1.0354 -0.5683
  593MOL0     H78220   2.748   3.274   1.355  1.8046  3.4303  0.2465
  593MOL0     H78221   2.899   3.113   1.150  1.1590  1.8756  0.8122
  593MOL0     H78222   2.796   3.246   1.104  0.1781 -0.6251 -0.6536
  593MOL0     H78223   2.597   3.140   1.185 -0.0562  0.1784 -0.8174
  593MOL0     H78224   2.691   3.014   1.269  0.7768 -2.9320 -2.7525
  593MOL0     H78225   2.545   2.987   1.059  0.0014 -1.3669 -1.1560
  593MOL0     H78226   2.690   3.021   0.961  0.1403 -2.1154 -0.0830
  593MOL0     H78227   2.807   2.853   1.131 -0.2590  1.8836 -1.1567
  593MOL0     H78228   2.703   2.781   1.012 -2.2867  0.5956  0.0790
  593MOL0     H78229   2.725   2.800   1.383  1.5372 -0.7419 -1.6514
  593MOL0     H78230   2.483   2.643   1.579  1.2645  1.0388  0.6035
  593MOL0     H78231   2.646   2.630   1.561 -2.6447 -0.8621  2.5248
  593MOL0     H78232   2.621   2.412   1.433  0.3728  0.3557 -0.9931
  593MOL0     H78233   2.451   2.415   1.467 -0.5899  0.9178  0.8571
  593MOL0     H78234   2.641   2.442   1.697 -0.2694  2.5627 -2.0215
  593MOL0     H78235   2.470   2.433   1.699 -0.5943  3.2106 -1.8924
  593MOL0     H78236   2.588   2.194   1.742  2.3147 -2.9882 -2.2403
  593MOL0     H78237   2.647   2.222   1.578  1.1331  2.4127  0.4906
  593MOL0     H78238   2.201   2.192   1.550  0.0713 -0.6236  0.1319
  593MOL0     H78239   2.022   2.062   1.677  1.4847  3.4134 -1.7753
  593MOL0     H78240   2.115   1.849   2.250 -1.7774  1.1729  2.3883
  593MOL0     H78241   1.970   1.723   2.400 -1.5010  0.7124 -0.7304
  593MOL0     H78242   1.723   1.383   2.251 -1.1766 -1.0012  0.0021
  593MOL0     H78243   1.595   1.494   2.232 -0.2499 -1.7158  1.1743
  593MOL0     H78244   1.515   1.376   2.425 -1.0811  2.5075 -3.2001
  593MOL0     H78245   1.583   1.526   2.482  1.2915 -1.0363  2.3706
  593MOL0     H78246   1.797   1.428   2.538 -0.6207  0.1747  1.6209
  593MOL0     H78247   1.741   1.278   2.495  1.4285  1.0347 -1.9214
  593MOL0     H78248   1.629   1.448   2.719  2.3561  1.1947 -0.7553
  593MOL0     H78249   1.550   1.292   2.664 -0.0146 -0.4287  0.5057
  593MOL0     H78250   1.694   1.299   2.868 -1.0432 -1.5747  0.0845
  593MOL0     H78251   1.837   1.328   2.772 -0.1831  0.2026 -0.2504
  593MOL0     H78252   1.814   1.110   2.665  2.7546 -1.2684  1.6489
  593MOL0     H78253   1.646   1.093   2.715 -0.4329 -0.5210 -0.1423
  593MOL0     H78254   1.857   1.114   2.932  0.1308  0.2436  0.6735
  593MOL0     H78255   1.695   1.043   2.941  0.5668 -2.1080 -0.9241
  593MOL0     H78256   1.874   0.872   2.926 -3.0286  3.3553  2.2785
  593MOL0     H78257   1.927   0.947   2.769 -0.4952 -0.7328 -0.8031
  593MOL0     H78258   1.787   1.532   2.060  1.8866  0.3440 -2.0967
  593MOL0     H78259   1.939   1.647   1.914  1.2561  2.0136 -0.4785
  593MOL0     H78260   2.335   1.894   1.915 -0.1552  0.4036 -0.2059
  593MOL0     H78261   2.502   2.012   1.771  0.6257  1.5949  1.1676
  593MOL0     H78262   3.143   3.783   1.312 -0.3630  1.1339  0.8415
  593MOL0     H78263   3.356   3.927   1.285 -0.9440 -1.2821 -0.7726
  593MOL0     H78264   3.842   3.832   1.225 -1.5957 -0.9258  1.4640
  593MOL0     H78265   4.073   3.923   1.238 -1.9729 -1.9787 -0.9905
  593MOL0     H78266   4.221   4.089   1.253 -1.4210 -3.1796 -0.1071
  593MOL0     H78267   4.329   3.967   1.324  0.3340 -0.1106 -0.9785
  593MOL0     H78268   4.334   4.257   1.413 -0.3897 -0.6577  1.7216
  593MOL0     H78269   4.442   4.141   1.467 -1.8372 -1.2400  1.2711
  593MOL0     H78270   4.429   4.249   1.179 -1.5145  0.9410 -0.0062
  593MOL0     H78271   4.528   4.103   1.240  0.3088 -0.6123  4.0221
  593MOL0     H78272   4.565   4.384   1.350  1.7802 -0.4584  1.8125
  593MOL0     H78273   4.640   4.236   1.399 -2.1082 -0.7363  0.8991
  593MOL0     H78274   4.854   4.343   1.042  0.3387  1.0771  0.4449
  593MOL0     H78275   3.995   4.095   1.628  0.6682  0.8960 -0.5738
  593MOL0     H78276   3.760   4.031   1.598  0.4861  1.2699 -0.6407
  594MOL0     O78277   1.378   6.463   8.497 -0.2483  0.6547  0.0540
  594MOL0     C78278   1.468   6.444   8.580 -0.7353 -0.9868 -0.1274
  594MOL0     O78279   1.462   6.377   8.699  0.5496  0.0095  0.6353
  594MOL0     C78280   1.334   6.324   8.724 -1.4964  0.3266  0.4582
  594MOL0     C78281   1.232   6.397   8.789  0.2904  0.4775 -0.3943
  594MOL0     C78282   1.102   6.338   8.804  0.1149  0.4168  0.3211
  594MOL0     C78283   1.080   6.201   8.763 -0.1143 -0.6181  0.2500
  594MOL0     O78284   0.952   6.161   8.778  0.4512  1.2381  0.0979
  594MOL0     C78285   0.923   6.052   8.682  0.5424 -0.1953 -0.1645
  594MOL0     C78286   0.776   6.063   8.678  0.9995 -0.1358  0.0222
  594MOL0     C78287   0.708   5.962   8.582  0.0942 -0.4065  0.5621
  594MOL0     C78288   0.562   5.980   8.597  0.1034 -0.0072  1.1669
  594MOL0     C78289   0.498   5.913   8.477  0.0537 -0.6114  0.3208
  594MOL0     C78290   0.350   5.928   8.459 -0.7199  0.0957  0.4163
  594MOL0     C78291   0.255   5.877   8.571 -0.1769 -0.5587 -0.4450
  594MOL0     C78292   0.115   5.861   8.507 -1.0675  0.0556 -0.0381
  594MOL0     N78293   0.016   5.858   8.616 -0.5320  0.5588 -0.3992
  594MOL0     C78294   0.009   5.752   8.717  0.4387 -0.4353  0.1554
  594MOL0     C78295  -0.098   5.793   8.797 -0.1950 -0.6706  0.6728
  594MOL0     C78296  -0.161   5.723   8.911 -0.7312  0.5449  1.2115
  594MOL0     C78297  -0.313   5.704   8.891  0.0513  0.4439  0.3184
  594MOL0     C78298  -0.390   5.677   9.026 -0.6570 -0.0038  0.4369
  594MOL0     C78299  -0.526   5.615   8.979 -0.1493  0.0265 -0.2929
  594MOL0     O78300  -0.593   5.694   8.879 -0.5216 -0.1368  0.1172
  594MOL0     C78301  -0.724   5.701   8.881  0.2800 -0.1157 -0.3357
  594MOL0     C78302  -0.791   5.819   8.897  0.5386 -0.0915  0.2286
  594MOL0     C78303  -0.933   5.823   8.907 -0.7920 -0.2308 -0.6354
  594MOL0     C78304  -1.006   5.707   8.902 -0.4997 -0.5417 -0.1308
  594MOL0     C78305  -1.153   5.707   8.903 -0.1461 -0.2180 -0.6309
  594MOL0     O78306  -1.209   5.828   8.938  0.8226 -0.2579  0.9282
  594MOL0     C78307  -1.343   5.827   8.954  0.2626 -0.0908 -0.6236
  594MOL0     C78308  -1.438   5.870   8.859 -1.0186 -0.7543  0.1907
  594MOL0     C78309  -1.570   5.866   8.885 -0.5897 -0.6589 -0.1182
  594MOL0     C78310  -1.618   5.810   9.005 -0.0959  0.4755  0.6361
  594MOL0     O78311  -1.752   5.807   9.023  0.9651  0.2311  0.1503
  594MOL0     C78312  -1.803   5.716   9.113 -0.6809  0.2717  0.8352
  594MOL0     C78313  -1.943   5.667   9.078 -0.5500 -0.5494 -0.1538
  594MOL0     C78314  -2.039   5.788   9.090  0.6396  0.6618 -0.1645
  594MOL0     C78315  -2.176   5.739   9.036  0.4419 -0.3304  0.6870
  594MOL0     C78316  -2.241   5.605   9.102 -0.2154 -0.5898 -0.2296
  594MOL0     C78317  -2.386   5.589   9.061 -0.5554 -0.9133 -1.0953
  594MOL0     C78318  -2.445   5.448   9.080  0.1986 -0.0733  0.8969
  594MOL0     C78319  -2.600   5.454   9.056 -0.4979  0.5314  0.5212
  594MOL0    Cl78320  -2.658   5.288   9.060 -0.6262  0.1296 -0.2817
  594MOL0     C78321  -1.530   5.775   9.102 -0.2504 -0.4897 -0.2445
  594MOL0     C78322  -1.398   5.790   9.076  0.4752 -0.1470  0.6521
  594MOL0     O78323  -1.212   5.604   8.884  0.2453  0.0912 -0.1429
  594MOL0     C78324  -0.938   5.590   8.882  0.7419  1.1878  0.0588
  594MOL0     C78325  -0.802   5.582   8.869  0.5842  0.2833  0.4769
  594MOL0     N78326  -0.147   5.915   8.748 -0.1841 -0.1461  0.8175
  594MOL0     N78327  -0.085   5.947   8.640 -0.1712  0.0744  0.1567
  594MOL0     C78328   1.184   6.131   8.707 -0.4636  0.4298  0.3500
  594MOL0     C78329   1.312   6.192   8.684 -0.2428 -0.2026  0.4146
  594MOL0     C78330   1.593   6.514   8.542  0.3756  0.2146 -0.6538
  594MOL0     C78331   1.628   6.575   8.420  0.5121  0.0680  0.0052
  594MOL0     C78332   1.740   6.651   8.399  0.1674 -0.2921  0.6635
  594MOL0     C78333   1.835   6.664   8.495  0.5915 -0.8085  0.7013
  594MOL0     O78334   1.928   6.766   8.466 -0.0207 -0.3610  0.7045
  594MOL0     C78335   2.025   6.808   8.558 -0.0424 -0.3645 -0.2000
  594MOL0     C78336   2.160   6.752   8.533 -0.4520  0.4532 -0.0634
  594MOL0     C78337   2.222   6.806   8.411 -0.0567 -0.8531  0.2704
  594MOL0     C78338   2.353   6.739   8.369  0.2381 -0.5712 -0.2862
  594MOL0     C78339   2.465   6.812   8.427 -0.2102  0.0814 -0.1884
  594MOL0     C78340   2.548   6.888   8.482 -0.3557  0.7431  0.5109
  594MOL0     C78341   1.808   6.597   8.618  0.1043  0.3108 -0.1409
  594MOL0     C78342   1.692   6.524   8.642 -0.2864  0.6013  0.1516
  594MOL0     H78343   1.254   6.500   8.815  1.7261 -0.0078  0.4349
  594MOL0     H78344   1.030   6.401   8.856  0.8140 -2.0898  4.8529
  594MOL0     H78345   0.955   5.953   8.716  2.8554  1.1563  2.0002
  594MOL0     H78346   0.956   6.078   8.581  0.2958 -2.7202 -0.9406
  594MOL0     H78347   0.740   6.163   8.656  3.1567  0.6284 -0.2463
  594MOL0     H78348   0.737   6.026   8.773 -2.1623 -1.1712 -1.5046
  594MOL0     H78349   0.735   5.862   8.618  0.7927  0.0673  1.3983
  594MOL0     H78350   0.748   5.987   8.483  3.5914  1.5994  2.2755
  594MOL0     H78351   0.523   5.924   8.682  1.9562 -3.1566  0.1141
  594MOL0     H78352   0.531   6.085   8.602  1.7120  0.9490 -3.4857
  594MOL0     H78353   0.518   5.805   8.473 -2.0127 -1.0228 -0.0501
  594MOL0     H78354   0.545   5.959   8.389 -3.0847 -0.7595 -1.5733
  594MOL0     H78355   0.326   5.864   8.373 -3.0284  0.5157  0.6723
  594MOL0     H78356   0.324   6.034   8.449 -1.1926 -0.1095 -0.6470
  594MOL0     H78357   0.293   5.787   8.620  0.0502 -0.6862 -0.8479
  594MOL0     H78358   0.238   5.953   8.647 -1.2159 -1.3122  0.0978
  594MOL0     H78359   0.097   5.772   8.447 -2.4605  1.7514 -2.3266
  594MOL0     H78360   0.089   5.952   8.451 -1.7457 -0.2627 -0.2489
  594MOL0     H78361   0.069   5.662   8.727  1.8196  0.4246 -0.1504
  594MOL0     H78362  -0.136   5.777   9.003 -3.4168  0.3391  2.1466
  594MOL0     H78363  -0.116   5.624   8.902 -0.8787  0.6516 -1.6762
  594MOL0     H78364  -0.332   5.614   8.832 -2.7389  0.0654  1.6128
  594MOL0     H78365  -0.357   5.789   8.838 -0.4578 -0.6182 -1.0193
  594MOL0     H78366  -0.355   5.595   9.090  1.7960  1.2743  0.8776
  594MOL0     H78367  -0.411   5.767   9.084 -1.5715 -0.4687  0.8389
  594MOL0     H78368  -0.589   5.606   9.067 -1.0913 -1.8188 -1.1107
  594MOL0     H78369  -0.503   5.514   8.943 -1.6581  0.0475 -1.4116
  594MOL0     H78370  -0.733   5.911   8.898 -2.0020  1.6810 -2.0974
  594MOL0     H78371  -0.979   5.921   8.920  0.8040  0.6794 -1.4602
  594MOL0     H78372  -1.404   5.925   8.771  0.3697  1.9971  2.3093
  594MOL0     H78373  -1.647   5.898   8.816 -1.1589 -1.7973 -0.0275
  594MOL0     H78374  -1.809   5.778   9.203  0.1179  2.2332 -0.4216
  594MOL0     H78375  -1.749   5.625   9.143 -1.8432  0.1688  2.8042
  594MOL0     H78376  -1.971   5.586   9.145  0.9942 -1.7801 -0.9329
  594MOL0     H78377  -1.939   5.637   8.973  2.2482  1.1612 -0.6468
  594MOL0     H78378  -2.005   5.873   9.030 -1.7814  0.0321 -2.6269
  594MOL0     H78379  -2.056   5.830   9.190  1.0320 -0.5165  0.4110
  594MOL0     H78380  -2.244   5.824   9.048  0.5447  0.4522 -3.0254
  594MOL0     H78381  -2.164   5.725   8.928 -0.1280  1.8227  0.3004
  594MOL0     H78382  -2.237   5.605   9.212 -3.1374  0.4493 -0.0537
  594MOL0     H78383  -2.184   5.517   9.071 -0.1373  0.3593 -3.0187
  594MOL0     H78384  -2.384   5.614   8.954  1.6165 -0.6018 -1.0196
  594MOL0     H78385  -2.446   5.669   9.104  0.8484  0.6457 -1.9215
  594MOL0     H78386  -2.400   5.380   9.007 -0.2838 -0.3657  0.8669
  594MOL0     H78387  -2.425   5.413   9.182  0.2921 -2.1176  0.2302
  594MOL0     H78388  -2.622   5.510   8.965  2.0075  1.9232  0.6764
  594MOL0     H78389  -2.643   5.511   9.139  0.3226  0.3973  1.0517
  594MOL0     H78390  -1.562   5.734   9.197  0.6689  0.7694  0.6479
  594MOL0     H78391  -1.327   5.778   9.158  1.6802  0.4723 -0.2561
  594MOL0     H78392  -1.000   5.501   8.883 -0.2662  1.8823  0.6818
  594MOL0     H78393  -0.753   5.487   8.851  3.8998  2.0501 -0.6762
  594MOL0     H78394   1.178   6.026   8.681  0.8413  0.4438 -0.1270
  594MOL0     H78395   1.390   6.140   8.629 -0.3117 -1.7552  1.7388
  594MOL0     H78396   1.562   6.572   8.334  0.7502 -0.0499 -0.1766
  594MOL0     H78397   1.745   6.694   8.300  1.0073  0.9653  1.2169
  594MOL0     H78398   2.002   6.784   8.662  1.9686  0.9539  0.6200
  594MOL0     H78399   2.032   6.917   8.550 -1.5361 -0.3705 -2.2252
  594MOL0     H78400   2.233   6.779   8.611  2.0122 -1.2316 -1.6245
  594MOL0     H78401   2.163   6.642   8.532 -3.1650  0.3050  0.2463
  594MOL0     H78402   2.251   6.911   8.425 -1.4850 -0.3103 -0.5827
  594MOL0     H78403   2.153   6.799   8.327  0.5916  0.0013 -0.3501
  594MOL0     H78404   2.357   6.635   8.403 -0.9727 -0.4053  0.4082
  594MOL0     H78405   2.372   6.744   8.261  2.4157 -0.3545  0.0671
  594MOL0     H78406   2.605   6.969   8.523  0.5965  0.5170 -0.3253
  594MOL0     H78407   1.876   6.609   8.701  1.6809  1.8392 -1.5820
  594MOL0     H78408   1.677   6.478   8.739 -1.8271 -0.8009 -0.6890
  595MOL0     O78409   1.160   4.541   9.254  0.1507 -0.0938 -0.4147
  595MOL0     C78410   1.231   4.492   9.165  0.2884 -0.4256 -0.3109
  595MOL0     O78411   1.194   4.395   9.084  0.1614  0.1540 -0.9737
  595MOL0     C78412   1.078   4.322   9.111 -0.7689  0.5612  0.0217
  595MOL0     C78413   0.947   4.368   9.127  0.7268  0.3676  0.0164
  595MOL0     C78414   0.845   4.282   9.158  0.0494 -0.7773  0.3218
  595MOL0     C78415   0.857   4.144   9.157  1.1839 -0.0559  0.0218
  595MOL0     O78416   0.740   4.069   9.176 -0.6689 -0.1035  0.2817
  595MOL0     C78417   0.740   3.927   9.143  0.2154 -0.6271  0.2825
  595MOL0     C78418   0.614   3.861   9.188  0.5635 -0.3800  0.4326
  595MOL0     C78419   0.610   3.801   9.333  0.5710 -0.3876 -0.2548
  595MOL0     C78420   0.537   3.670   9.337 -0.6120 -0.1321  0.5135
  595MOL0     C78421   0.385   3.680   9.307 -0.3397  0.5798  0.1100
  595MOL0     C78422   0.320   3.781   9.396  0.1783  0.4001 -0.1687
  595MOL0     C78423   0.170   3.783   9.371  0.3798 -0.3379  0.1740
  595MOL0     C78424   0.089   3.852   9.486  0.2429 -0.8776 -0.1108
  595MOL0     N78425  -0.057   3.826   9.468  0.4588  0.3965 -0.1147
  595MOL0     C78426  -0.131   3.888   9.372  0.0137 -0.8041  0.3514
  595MOL0     C78427  -0.248   3.808   9.364  0.0855 -0.1002 -0.7121
  595MOL0     C78428  -0.361   3.826   9.268  0.6806  0.2698  0.4560
  595MOL0     C78429  -0.499   3.876   9.321  0.4220  0.1995  0.5792
  595MOL0     C78430  -0.548   3.797   9.450 -0.5112 -0.5992  0.3961
  595MOL0     C78431  -0.676   3.843   9.512  0.1802 -0.1487  0.3002
  595MOL0     O78432  -0.658   3.953   9.606 -0.9733  0.5011  0.0576
  595MOL0     C78433  -0.774   4.012   9.647  1.0215 -1.4874  0.6908
  595MOL0     C78434  -0.899   4.031   9.581 -0.0964  0.2725 -0.2052
  595MOL0     C78435  -1.010   4.093   9.642 -0.6741  0.1385  0.2244
  595MOL0     C78436  -1.003   4.126   9.775  0.5891  0.6078  0.2649
  595MOL0     C78437  -1.125   4.164   9.846 -0.6141  0.6700  0.1358
  595MOL0     O78438  -1.119   4.203   9.973 -0.2453 -0.0725 -0.4408
  595MOL0     C78439  -1.223   4.278  10.032  0.8797  0.0616 -0.9540
  595MOL0     C78440  -1.345   4.336   9.985 -0.1034  0.2919  0.0277
  595MOL0     C78441  -1.445   4.383  10.069  0.1823  0.3158  0.1044
  595MOL0     C78442  -1.427   4.387  10.213 -0.0614 -0.1362  0.8371
  595MOL0     O78443  -1.533   4.447  10.284  0.4996 -0.4014  0.2525
  595MOL0     C78444  -1.539   4.430  10.425 -0.0495 -0.0150 -0.4400
  595MOL0     C78445  -1.665   4.490  10.491 -0.2190  0.2437  0.0718
  595MOL0     C78446  -1.791   4.429  10.438 -1.2074  0.1734  0.4135
  595MOL0     C78447  -1.907   4.461  10.529  0.2285 -0.3869 -0.1459
  595MOL0     C78448  -2.037   4.405  10.473 -0.2482  1.0397 -0.2785
  595MOL0     C78449  -2.157   4.425  10.580  0.9342 -0.1466  0.9261
  595MOL0     C78450  -2.297   4.366  10.530  0.3953  0.0650  0.2769
  595MOL0     C78451  -2.351   4.388  10.394  0.2459  0.0796  0.6415
  595MOL0    Cl78452  -2.394   4.565  10.357 -0.1222  0.4541  0.3087
  595MOL0     C78453  -1.301   4.347  10.261 -0.1034  0.5959 -0.5129
  595MOL0     C78454  -1.208   4.286  10.172  0.3957 -0.2962 -0.6165
  595MOL0     O78455  -1.231   4.156   9.782  0.7768 -0.0750 -0.1405
  595MOL0     C78456  -0.885   4.102   9.843 -0.9766 -0.8580 -0.6837
  595MOL0     C78457  -0.769   4.042   9.782  0.2143  0.1064 -1.2320
  595MOL0     N78458  -0.234   3.710   9.463  0.3069 -0.2305  0.3469
  595MOL0     N78459  -0.120   3.722   9.522 -0.6478 -0.3052  0.5557
  595MOL0     C78460   0.991   4.091   9.132 -0.0003 -0.0323 -0.7966
  595MOL0     C78461   1.092   4.181   9.115 -0.1045  1.0065 -0.4064
  595MOL0     C78462   1.344   4.580   9.122  0.5216  0.5590  0.5551
  595MOL0     C78463   1.378   4.689   9.202  0.0548 -0.0187  0.9589
  595MOL0     C78464   1.503   4.750   9.184 -0.3480  0.5797  0.6381
  595MOL0     C78465   1.595   4.707   9.083  0.4039  0.1994  0.5356
  595MOL0     O78466   1.712   4.780   9.071 -0.0473  0.4209 -0.0151
  595MOL0     C78467   1.822   4.747   8.980 -0.2522 -0.0898  0.7863
  595MOL0     C78468   1.871   4.883   8.938 -0.0308  0.2147 -0.9299
  595MOL0     C78469   1.776   4.939   8.837 -0.1285 -0.0078  0.7151
  595MOL0     C78470   1.847   5.062   8.772  0.0134  0.0681 -0.1543
  595MOL0     C78471   1.876   5.171   8.866  0.4142 -0.2782 -0.3929
  595MOL0     C78472   1.918   5.265   8.937 -0.2122  1.0638  0.0916
  595MOL0     C78473   1.552   4.598   8.994  0.7508  0.4905  0.1788
  595MOL0     C78474   1.429   4.543   9.022 -0.8475  0.2804 -0.8454
  595MOL0     H78475   0.925   4.474   9.123 -0.4904  0.1568  0.5337
  595MOL0     H78476   0.747   4.329   9.165  1.0990  1.6214 -0.2193
  595MOL0     H78477   0.819   3.876   9.198  1.1806  1.4485  0.9403
  595MOL0     H78478   0.758   3.917   9.036 -1.8712  1.9903 -0.4373
  595MOL0     H78479   0.595   3.781   9.115  1.1775 -0.8360  0.7700
  595MOL0     H78480   0.529   3.930   9.177  0.1450 -0.6172  1.9760
  595MOL0     H78481   0.575   3.873   9.407  0.0404 -0.2265 -0.6514
  595MOL0     H78482   0.708   3.769   9.371  0.1722  2.2696  3.5908
  595MOL0     H78483   0.578   3.602   9.262  0.2906  2.1189 -1.1464
  595MOL0     H78484   0.544   3.614   9.431  1.1355  1.4222  1.3821
  595MOL0     H78485   0.342   3.581   9.327  0.9279  0.2318  1.3136
  595MOL0     H78486   0.366   3.703   9.202  1.6234  0.6025 -0.2892
  595MOL0     H78487   0.355   3.883   9.378  2.6879 -0.3428  0.1354
  595MOL0     H78488   0.344   3.753   9.499  1.4077 -2.4971 -1.1543
  595MOL0     H78489   0.152   3.837   9.277 -1.8936  2.2877  1.9543
  595MOL0     H78490   0.133   3.681   9.352  0.0554 -0.8888  3.2609
  595MOL0     H78491   0.113   3.959   9.489 -0.8553 -0.5886 -0.8163
  595MOL0     H78492   0.126   3.803   9.576  0.7003  0.9375  0.7435
  595MOL0     H78493  -0.113   3.978   9.313  0.3043 -1.7587 -1.0655
  595MOL0     H78494  -0.390   3.734   9.216  0.9134  1.4149 -1.8050
  595MOL0     H78495  -0.330   3.903   9.196  1.1656 -0.7560 -0.4558
  595MOL0     H78496  -0.573   3.873   9.241 -0.2522  0.6873  1.1740
  595MOL0     H78497  -0.497   3.980   9.354 -1.7647 -0.7693  4.2676
  595MOL0     H78498  -0.562   3.694   9.414 -2.6336  0.2541 -1.4613
  595MOL0     H78499  -0.471   3.817   9.525  0.7308  0.9646 -1.2231
  595MOL0     H78500  -0.716   3.761   9.572  0.1309  0.7647  1.5493
  595MOL0     H78501  -0.745   3.866   9.430  0.1515 -0.5904  0.1992
  595MOL0     H78502  -0.904   3.999   9.477  1.8451 -2.1030  0.3427
  595MOL0     H78503  -1.102   4.093   9.583 -0.2389 -1.8032 -0.5359
  595MOL0     H78504  -1.360   4.330   9.877  0.6551  2.0474 -0.2119
  595MOL0     H78505  -1.540   4.420  10.033  0.5213 -1.0219 -2.3309
  595MOL0     H78506  -1.444   4.472  10.460 -1.3111  0.9820  2.0773
  595MOL0     H78507  -1.543   4.323  10.449  1.6730  0.1894  1.0179
  595MOL0     H78508  -1.666   4.599  10.483  1.6297  0.2445 -0.8559
  595MOL0     H78509  -1.653   4.458  10.595  0.9819 -0.9414 -0.3957
  595MOL0     H78510  -1.780   4.321  10.427  0.8070  0.1578  1.9998
  595MOL0     H78511  -1.830   4.459  10.340 -2.1108  0.8057  0.9553
  595MOL0     H78512  -1.885   4.418  10.627  1.7922  0.2945 -0.1593
  595MOL0     H78513  -1.913   4.567  10.556  1.5395 -0.1577 -0.6662
  595MOL0     H78514  -2.032   4.296  10.459 -0.7316  1.3756 -4.0059
  595MOL0     H78515  -2.049   4.455  10.377  5.3755  1.4206 -1.1399
  595MOL0     H78516  -2.166   4.533  10.592 -3.5457 -0.3792  1.4899
  595MOL0     H78517  -2.142   4.389  10.682  2.3197 -1.1496  0.4070
  595MOL0     H78518  -2.278   4.258  10.524 -0.7015 -0.0523 -2.1773
  595MOL0     H78519  -2.369   4.394  10.607 -1.9737 -0.1365 -1.7380
  595MOL0     H78520  -2.428   4.314  10.375  0.6353  0.0938 -1.2950
  595MOL0     H78521  -2.269   4.356  10.328  1.5330 -4.0562  3.8023
  595MOL0     H78522  -1.274   4.337  10.366  1.7546  1.4510 -0.8683
  595MOL0     H78523  -1.112   4.246  10.205  0.4292  2.1586  2.8069
  595MOL0     H78524  -0.885   4.110   9.951 -3.4256  0.5054 -0.7180
  595MOL0     H78525  -0.687   4.017   9.850 -0.2049  0.9043 -0.4103
  595MOL0     H78526   1.009   3.985   9.146  0.2980  0.0801 -0.3086
  595MOL0     H78527   1.191   4.139   9.103 -0.2435  0.1700  1.2012
  595MOL0     H78528   1.312   4.733   9.275  0.2123  2.6123 -0.3411
  595MOL0     H78529   1.529   4.833   9.249 -0.0822  2.1097 -1.3525
  595MOL0     H78530   1.800   4.697   8.886  0.5710 -0.7653  0.9451
  595MOL0     H78531   1.896   4.687   9.034  0.0989  0.1436  0.5680
  595MOL0     H78532   1.889   4.956   9.018  2.0958 -0.9941 -0.2263
  595MOL0     H78533   1.973   4.871   8.901  0.5868 -0.2767  0.8566
  595MOL0     H78534   1.675   4.954   8.875 -1.1628 -2.9028 -0.6172
  595MOL0     H78535   1.765   4.865   8.758 -3.1494 -2.6450  3.3144
  595MOL0     H78536   1.931   5.033   8.709 -1.8534 -1.8221 -1.9556
  595MOL0     H78537   1.779   5.100   8.694 -1.3834 -0.1244  0.9236
  595MOL0     H78538   1.963   5.343   8.994  0.6228  1.1511 -0.6524
  595MOL0     H78539   1.621   4.559   8.919 -1.2608  1.3947 -2.2831
  595MOL0     H78540   1.404   4.451   8.971  2.0151 -2.5046  2.2743
  596MOL0     O78541  10.234  10.237   5.465  0.0716 -0.7892  0.4184
  596MOL0     C78542  10.326  10.243   5.384 -0.2277 -0.5302 -0.1639
  596MOL0     O78543  10.314  10.284   5.259  0.1968 -0.1159  0.0203
  596MOL0     C78544  10.200  10.359   5.231  0.7619 -0.3164 -0.1940
  596MOL0     C78545  10.075  10.296   5.234  0.6300  0.7292 -0.7737
  596MOL0     C78546   9.958  10.365   5.191 -0.4524 -0.1586 -0.2866
  596MOL0     C78547   9.965  10.499   5.148  0.1638 -0.4602 -0.0949
  596MOL0     O78548   9.851  10.558   5.101  0.3251  0.1861  0.1994
  596MOL0     C78549   9.841  10.700   5.088  0.0674 -0.0576  0.0714
  596MOL0     C78550   9.740  10.731   4.986 -0.0219 -0.6610  0.8961
  596MOL0     C78551   9.599  10.728   5.053 -0.4019  0.2755  0.4366
  596MOL0     C78552   9.490  10.737   4.935  1.7183  0.2060  0.7528
  596MOL0     C78553   9.489  10.622   4.836 -1.0970  0.5268 -0.4777
  596MOL0     C78554   9.369  10.619   4.743  0.4357  1.3766  0.4890
  596MOL0     C78555   9.235  10.626   4.819 -0.5670  0.5894  0.5391
  596MOL0     C78556   9.121  10.582   4.719  0.3933  0.3526  0.0286
  596MOL0     N78557   8.991  10.597   4.776  0.0070 -0.0305 -0.4413
  596MOL0     C78558   8.945  10.516   4.873  0.0205  0.2684  0.2768
  596MOL0     C78559   8.823  10.552   4.909  0.0407 -0.1732 -1.6039
  596MOL0     C78560   8.750  10.493   5.028 -0.5282 -0.7792 -0.8955
  596MOL0     C78561   8.601  10.474   4.992  0.4687 -0.7375 -0.0251
  596MOL0     C78562   8.510  10.429   5.113  0.2787 -0.2359 -0.3284
  596MOL0     C78563   8.369  10.397   5.074 -0.4737 -0.2197  0.6172
  596MOL0     O78564   8.293  10.515   5.066  0.6732  0.4661 -0.1907
  596MOL0     C78565   8.160  10.518   5.053  0.5908 -1.0803 -0.5655
  596MOL0     C78566   8.110  10.624   4.984 -0.1689 -0.2512  1.2894
  596MOL0     C78567   7.976  10.624   4.951 -0.0562  0.1918  0.5042
  596MOL0     C78568   7.882  10.533   4.994 -0.1828  0.7398 -0.4375
  596MOL0     C78569   7.733  10.545   4.975  0.0783 -1.2155 -0.7640
  596MOL0     O78570   7.656  10.438   5.022  0.2046 -0.9425  0.5080
  596MOL0     C78571   7.518  10.446   4.999  0.9592 -0.2962 -0.8053
  596MOL0     C78572   7.442  10.401   5.104 -0.4999 -0.1405 -0.5912
  596MOL0     C78573   7.301  10.387   5.089 -0.6611  0.6022 -0.0885
  596MOL0     C78574   7.241  10.414   4.966 -0.7414  0.0278 -0.5792
  596MOL0     O78575   7.105  10.416   4.940 -0.1229  0.1549  0.1477
  596MOL0     C78576   7.017  10.403   5.045 -0.6685  0.3670  0.8293
  596MOL0     C78577   6.876  10.425   5.012 -0.0829 -0.4489  0.1135
  596MOL0     C78578   6.781  10.389   5.121 -0.1059  0.5319 -0.5473
  596MOL0     C78579   6.638  10.427   5.088  0.5459 -0.0531  0.3418
  596MOL0     C78580   6.533  10.392   5.187  0.7708 -0.5550  0.4439
  596MOL0     C78581   6.389  10.447   5.151  0.5630 -0.7315  0.0606
  596MOL0     C78582   6.295  10.416   5.267  0.5621  0.0952  0.1917
  596MOL0     C78583   6.156  10.472   5.250  0.6410  0.7952 -0.0250
  596MOL0    Cl78584   6.055  10.422   5.398 -0.1447  0.1516  0.3713
  596MOL0     C78585   7.323  10.465   4.860  0.0207  0.2305 -0.8118
  596MOL0     C78586   7.456  10.464   4.868 -0.2131  1.0323 -0.1639
  596MOL0     O78587   7.696  10.635   4.903 -0.4395  0.3373  0.1904
  596MOL0     C78588   7.935  10.430   5.083  0.1296 -0.6029  0.2871
  596MOL0     C78589   8.074  10.420   5.101  0.3401  0.3392 -1.1880
  596MOL0     N78590   8.796  10.659   4.829  0.4170 -0.3203  0.2534
  596MOL0     N78591   8.895  10.689   4.750  0.3038 -0.8359  0.8838
  596MOL0     C78592  10.092  10.561   5.160 -0.0501 -0.1183  0.1259
  596MOL0     C78593  10.206  10.498   5.202 -0.2989 -0.2810 -0.1775
  596MOL0     C78594  10.463  10.200   5.437  0.4748  1.3420 -0.3853
  596MOL0     C78595  10.572  10.191   5.356  0.7264 -0.5646  0.2937
  596MOL0     C78596  10.700  10.160   5.404 -0.5886  0.0590  0.8102
  596MOL0     C78597  10.734  10.131   5.533  0.5522  0.0891  0.3967
  596MOL0     O78598  10.868  10.114   5.565  0.7701 -0.2312  0.3131
  596MOL0     C78599  10.903  10.108   5.708  0.5469 -0.6523 -0.2615
  596MOL0     C78600  11.052  10.102   5.722  0.1867  0.2068 -0.9342
  596MOL0     C78601  11.129  10.068   5.596 -0.6187  0.1730 -0.0733
  596MOL0     C78602  11.154  10.191   5.504 -0.1995 -0.5123 -0.8995
  596MOL0     C78603  11.257  10.285   5.561 -0.1368  0.6432 -0.4463
  596MOL0     C78604  11.356  10.347   5.590  0.1472  0.2975 -0.3867
  596MOL0     C78605  10.623  10.139   5.622 -0.0403  0.3500  0.1280
  596MOL0     C78606  10.487  10.171   5.569 -0.6210 -0.0475 -0.1840
  596MOL0     H78607  10.065  10.191   5.261  0.6347  0.7521 -0.6846
  596MOL0     H78608   9.865  10.309   5.199 -1.7932  1.8785 -0.8156
  596MOL0     H78609   9.938  10.744   5.067  0.1892 -0.7022 -0.7835
  596MOL0     H78610   9.796  10.743   5.178  0.3274  0.4318 -0.0319
  596MOL0     H78611   9.740  10.655   4.908  2.3470 -0.1081  0.2897
  596MOL0     H78612   9.756  10.832   4.947  0.5461 -0.6890  1.0510
  596MOL0     H78613   9.586  10.801   5.134  0.7884 -1.3067  2.1551
  596MOL0     H78614   9.591  10.626   5.092  2.9765  0.0792  0.8954
  596MOL0     H78615   9.395  10.732   4.989  0.0961 -0.0014 -1.9329
  596MOL0     H78616   9.494  10.837   4.891  1.1465  0.2837  0.8691
  596MOL0     H78617   9.491  10.524   4.885 -0.4158  1.1421  0.7841
  596MOL0     H78618   9.575  10.630   4.769 -2.1449 -0.7842 -2.0591
  596MOL0     H78619   9.379  10.526   4.686  1.5648  2.2275 -0.7712
  596MOL0     H78620   9.371  10.701   4.670  0.4464 -0.0893 -1.2166
  596MOL0     H78621   9.232  10.555   4.902 -2.3989  0.3679  0.3165
  596MOL0     H78622   9.220  10.727   4.857  2.4613  1.5919 -0.5762
  596MOL0     H78623   9.135  10.475   4.704  0.1880  0.2259  0.7377
  596MOL0     H78624   9.133  10.629   4.620 -0.8256 -2.0017 -1.3268
  596MOL0     H78625   9.000  10.437   4.921 -0.9068  0.7748  2.2702
  596MOL0     H78626   8.759  10.558   5.115  2.5712 -0.6293 -1.2069
  596MOL0     H78627   8.796  10.396   5.053 -0.2146 -0.7831 -1.4635
  596MOL0     H78628   8.594  10.391   4.921 -2.5652 -0.6216 -0.0020
  596MOL0     H78629   8.555  10.566   4.954  2.0995  0.1637  0.0728
  596MOL0     H78630   8.561  10.336   5.139  0.4942 -0.5598 -1.7884
  596MOL0     H78631   8.526  10.490   5.202  1.7905 -1.6680  0.4353
  596MOL0     H78632   8.332  10.325   5.147 -0.8506 -0.9835 -0.3053
  596MOL0     H78633   8.368  10.356   4.973  0.3023  1.9543 -0.3542
  596MOL0     H78634   8.181  10.696   4.945  0.6369 -1.3213  0.7191
  596MOL0     H78635   7.942  10.704   4.886 -1.6985 -0.4537  0.5139
  596MOL0     H78636   7.497  10.371   5.193  1.2013 -0.1731 -1.6188
  596MOL0     H78637   7.250  10.361   5.181 -1.3952 -1.0576 -0.9094
  596MOL0     H78638   7.031  10.490   5.110  1.0857  1.6702 -1.1348
  596MOL0     H78639   7.017  10.309   5.100 -1.2447 -0.7556 -1.0100
  596MOL0     H78640   6.856  10.366   4.921  0.9435  0.8328 -0.9892
  596MOL0     H78641   6.859  10.528   4.982 -4.4727 -0.4200  1.9588
  596MOL0     H78642   6.799  10.443   5.214 -1.7752  1.1505 -0.5499
  596MOL0     H78643   6.786  10.284   5.152 -0.1525  1.0040  1.1591
  596MOL0     H78644   6.625  10.535   5.080  0.2464 -0.0744  0.5082
  596MOL0     H78645   6.600  10.390   4.992 -0.4980  2.4053 -0.2783
  596MOL0     H78646   6.551  10.432   5.287  1.8971  0.1245 -0.0190
  596MOL0     H78647   6.530  10.283   5.193  2.3958 -0.6915 -0.7640
  596MOL0     H78648   6.351  10.404   5.059 -0.1065 -0.6374  0.2855
  596MOL0     H78649   6.396  10.555   5.133  2.0926 -0.7161  0.5510
  596MOL0     H78650   6.273  10.309   5.266  0.9145 -0.0032  1.3604
  596MOL0     H78651   6.339  10.442   5.364 -0.5944 -0.5022  0.9089
  596MOL0     H78652   6.106  10.431   5.162 -2.3147 -0.0837  1.9026
  596MOL0     H78653   6.138  10.579   5.241  0.1391  0.7792  0.6717
  596MOL0     H78654   7.274  10.489   4.766 -0.2617  0.6118 -0.5717
  596MOL0     H78655   7.522  10.483   4.784  0.1533  1.5340  0.2266
  596MOL0     H78656   7.870  10.352   5.121  1.5795 -1.4936  1.0372
  596MOL0     H78657   8.113  10.334   5.154 -2.5274 -0.4231 -0.0860
  596MOL0     H78658  10.107  10.662   5.124  1.2089 -0.3774 -0.1283
  596MOL0     H78659  10.305  10.543   5.205  0.7116 -2.3060 -0.9559
  596MOL0     H78660  10.563  10.207   5.249 -0.6132 -2.0064  0.1528
  596MOL0     H78661  10.785  10.167   5.337 -1.0225  2.1297  0.4305
  596MOL0     H78662  10.870  10.019   5.762  3.3094  0.0490  2.9294
  596MOL0     H78663  10.862  10.193   5.763  1.5814 -0.3740  0.1073
  596MOL0     H78664  11.089  10.194   5.768 -0.2081  1.8421 -3.6251
  596MOL0     H78665  11.075  10.027   5.798  1.6398 -0.0624 -1.6048
  596MOL0     H78666  11.080   9.986   5.541  2.8036 -1.3208 -1.1789
  596MOL0     H78667  11.224  10.027   5.630 -1.1526 -0.7524  0.3590
  596MOL0     H78668  11.183  10.163   5.402  2.6820 -2.7103  0.3675
  596MOL0     H78669  11.061  10.246   5.489  0.2897  1.2350  1.7425
  596MOL0     H78670  11.442  10.408   5.610 -0.2499  0.0688  2.2970
  596MOL0     H78671  10.639  10.109   5.725  0.6533 -1.2192 -0.4115
  596MOL0     H78672  10.398  10.180   5.630 -2.1564 -0.0048 -2.2977
  597MOL0     O78673   4.098   2.286  10.701 -0.7304  0.0852 -0.1734
  597MOL0     C78674   4.091   2.299  10.578  0.8725 -0.1445 -0.9340
  597MOL0     O78675   3.998   2.239  10.497 -1.1931  0.1645 -0.5262
  597MOL0     C78676   3.895   2.173  10.563  0.0761  0.2213  0.3559
  597MOL0     C78677   3.772   2.233  10.577  0.0210 -0.2254  0.1659
  597MOL0     C78678   3.673   2.167  10.647 -0.3520  0.8440 -0.3770
  597MOL0     C78679   3.691   2.040  10.704 -1.1994  0.4375 -0.7348
  597MOL0     O78680   3.586   1.969  10.760 -0.8204  0.6042 -0.1725
  597MOL0     C78681   3.592   1.828  10.753 -0.1622 -0.2143  0.3086
  597MOL0     C78682   3.469   1.767  10.814 -0.3672  1.0175  0.6152
  597MOL0     C78683   3.361   1.749  10.696 -0.1166 -0.5140 -1.4599
  597MOL0     C78684   3.262   1.638  10.719  0.0052  0.2997  0.3469
  597MOL0     C78685   3.145   1.652  10.819 -0.4955 -0.6477  0.0648
  597MOL0     C78686   3.076   1.787  10.808  0.1338 -0.3144 -0.0796
  597MOL0     C78687   2.943   1.781  10.895 -0.9563 -0.0313 -0.0671
  597MOL0     C78688   2.858   1.911  10.879 -0.2780 -0.7312  0.1500
  597MOL0     N78689   2.722   1.894  10.930  0.0467 -0.0626  0.6072
  597MOL0     C78690   2.670   1.911  11.056 -0.6083 -0.4730  0.4370
  597MOL0     C78691   2.542   1.875  11.046 -0.6437  0.0882 -0.1689
  597MOL0     C78692   2.455   1.847  11.164  0.1774  0.0140 -0.3707
  597MOL0     C78693   2.312   1.916  11.161 -0.0036 -0.3696 -0.2626
  597MOL0     C78694   2.234   1.881  11.288  0.4711 -1.0091 -0.2533
  597MOL0     C78695   2.090   1.936  11.279 -0.8467  1.0722  0.0992
  597MOL0     O78696   2.005   1.874  11.372 -0.6561  0.0791  0.0033
  597MOL0     C78697   1.868   1.882  11.376 -0.3329  0.7035 -0.1435
  597MOL0     C78698   1.797   1.967  11.295 -0.1339 -0.3350 -0.8550
  597MOL0     C78699   1.654   1.984  11.305 -1.3529  0.3832  0.7678
  597MOL0     C78700   1.597   1.919  11.418  0.0242  0.1609 -0.3818
  597MOL0     C78701   1.456   1.938  11.453  0.5562 -0.0847  0.6281
  597MOL0     O78702   1.406   1.912  11.573 -0.3529 -0.5274  0.0784
  597MOL0     C78703   1.276   1.934  11.603 -0.7976 -0.1124 -0.1781
  597MOL0     C78704   1.240   2.009  11.722 -0.2264  0.2746  0.0186
  597MOL0     C78705   1.107   2.025  11.748 -0.3060 -0.7269  0.2523
  597MOL0     C78706   1.007   1.976  11.653  0.2558  0.7623  0.1260
  597MOL0     O78707   0.873   1.981  11.672 -0.1757  0.6817 -0.6974
  597MOL0     C78708   0.819   2.049  11.787  0.5865 -0.0411  0.3538
  597MOL0     C78709   0.665   2.040  11.794 -0.3241 -0.0265  0.4824
  597MOL0     C78710   0.599   1.899  11.755 -0.1808 -0.3929  0.5718
  597MOL0     C78711   0.447   1.920  11.764 -0.2327  0.1363  0.6848
  597MOL0     C78712   0.385   1.811  11.680 -0.3296  0.1524 -0.5716
  597MOL0     C78713   0.233   1.796  11.698  0.3575  0.2019  1.3147
  597MOL0     C78714   0.201   1.745  11.834 -0.3358  0.4090  0.3469
  597MOL0     C78715   0.056   1.699  11.841  0.0078  0.4054 -0.3306
  597MOL0    Cl78716   0.037   1.606  11.993 -0.3612 -0.0880 -0.4399
  597MOL0     C78717   1.038   1.901  11.544  0.3975  0.0849 -0.0567
  597MOL0     C78718   1.171   1.873  11.522  0.2390 -0.1572  0.1809
  597MOL0     O78719   1.397   1.983  11.351  0.5098  0.7931  0.1215
  597MOL0     C78720   1.677   1.841  11.504 -0.3257 -0.3290  0.9217
  597MOL0     C78721   1.807   1.817  11.480  0.2573 -0.2846 -0.1951
  597MOL0     N78722   2.521   1.826  10.916 -0.1875 -0.1554 -0.1577
  597MOL0     N78723   2.626   1.847  10.850 -0.0404 -0.1218  0.3098
  597MOL0     C78724   3.823   1.987  10.695 -0.1899 -0.1513  0.2871
  597MOL0     C78725   3.920   2.044  10.620  0.2173 -0.1856 -0.3475
  597MOL0     C78726   4.192   2.379  10.523 -0.7197 -0.7904 -0.1236
  597MOL0     C78727   4.210   2.377  10.382  0.0512  0.8412 -0.1262
  597MOL0     C78728   4.291   2.470  10.322 -1.2017 -0.8362  0.0457
  597MOL0     C78729   4.360   2.567  10.399  0.2747  0.1549  0.6912
  597MOL0     O78730   4.429   2.669  10.342 -0.0792 -0.0020 -0.2045
  597MOL0     C78731   4.400   2.728  10.209 -0.2605  0.6152  0.9536
  597MOL0     C78732   4.264   2.780  10.194  1.0932 -0.4439  1.0069
  597MOL0     C78733   4.219   2.893  10.296  0.9320  0.6384  0.1074
  597MOL0     C78734   4.228   3.030  10.238 -0.0624  0.1011 -0.6688
  597MOL0     C78735   4.357   3.086  10.192  0.4936  0.0978 -0.3200
  597MOL0     C78736   4.458   3.120  10.133  0.1498  0.6151  0.1554
  597MOL0     C78737   4.352   2.567  10.546 -0.6534 -0.3285  1.2088
  597MOL0     C78738   4.261   2.477  10.605  0.1641  0.2176 -0.4828
  597MOL0     H78739   3.764   2.329  10.527 -0.6292 -0.2587  0.1939
  597MOL0     H78740   3.570   2.198  10.657 -1.0143 -1.6339  1.5694
  597MOL0     H78741   3.682   1.811  10.813 -1.2449  1.9755  2.8011
  597MOL0     H78742   3.618   1.791  10.654  4.0741 -2.4495  1.9933
  597MOL0     H78743   3.438   1.829  10.898 -1.6594 -0.5124  1.3268
  597MOL0     H78744   3.503   1.671  10.854  0.3625  1.9099  2.2187
  597MOL0     H78745   3.409   1.723  10.601 -0.7360  0.5828 -2.0967
  597MOL0     H78746   3.313   1.846  10.680 -0.0413  0.2625  2.1197
  597MOL0     H78747   3.201   1.628  10.629 -2.2595 -0.4857  1.8603
  597MOL0     H78748   3.319   1.545  10.733 -1.9975 -1.1822 -0.6724
  597MOL0     H78749   3.172   1.629  10.922 -1.8001 -1.1961  0.3135
  597MOL0     H78750   3.070   1.577  10.792  0.3386 -1.5051  0.0726
  597MOL0     H78751   3.047   1.805  10.704 -0.2631 -0.5075 -0.0069
  597MOL0     H78752   3.146   1.864  10.839 -0.5263 -0.3468  1.6008
  597MOL0     H78753   2.876   1.703  10.858 -0.7764  1.0013 -2.7506
  597MOL0     H78754   2.953   1.769  11.003 -1.9068 -1.4908 -0.1107
  597MOL0     H78755   2.859   1.926  10.771  1.3242 -2.7634 -0.1727
  597MOL0     H78756   2.898   1.999  10.929  0.4782 -1.5082  0.9336
  597MOL0     H78757   2.716   1.939  11.150  0.5448  1.9762 -0.7563
  597MOL0     H78758   2.512   1.869  11.254 -0.6057 -0.5929  0.2919
  597MOL0     H78759   2.435   1.740  11.170  0.8008 -0.1473 -1.1073
  597MOL0     H78760   2.252   1.888  11.074 -2.4136  3.8387 -0.2622
  597MOL0     H78761   2.322   2.025  11.171 -2.6024 -0.1374  0.6358
  597MOL0     H78762   2.231   1.772  11.294  1.6406 -1.0136  0.8312
  597MOL0     H78763   2.289   1.921  11.374 -0.5468 -1.7480  0.7676
  597MOL0     H78764   2.054   1.910  11.179  2.0041 -0.9482 -0.5359
  597MOL0     H78765   2.091   2.045  11.282  0.7780  1.1592 -1.5772
  597MOL0     H78766   1.846   2.035  11.225  1.7289  0.2558  0.9501
  597MOL0     H78767   1.592   2.048  11.242 -3.2260  2.2014  4.1909
  597MOL0     H78768   1.310   2.054  11.792  0.0432 -2.5965  1.7311
  597MOL0     H78769   1.072   2.058  11.845  0.6879 -0.5170  0.5494
  597MOL0     H78770   0.849   2.153  11.773 -0.2333  0.0625 -0.7798
  597MOL0     H78771   0.856   2.013  11.883 -0.0797  0.4425  0.8035
  597MOL0     H78772   0.636   2.119  11.723  1.7329  2.4850  2.2247
  597MOL0     H78773   0.632   2.079  11.891 -0.1286  2.5942 -0.4036
  597MOL0     H78774   0.645   1.827  11.823 -0.3185 -1.3037 -0.2780
  597MOL0     H78775   0.625   1.857  11.658 -0.6823 -2.0056  1.1161
  597MOL0     H78776   0.427   1.932  11.871  1.5271  1.4846  0.9018
  597MOL0     H78777   0.416   2.014  11.718 -2.6112 -1.0093 -0.2277
  597MOL0     H78778   0.431   1.714  11.699  1.6542  0.9485 -1.0433
  597MOL0     H78779   0.406   1.823  11.573  1.1730 -1.7401 -0.5360
  597MOL0     H78780   0.186   1.739  11.617 -3.4815  3.1938  1.1185
  597MOL0     H78781   0.190   1.896  11.687  1.6621  0.6334 -0.2714
  597MOL0     H78782   0.268   1.662  11.856  2.0209  1.5587 -1.9974
  597MOL0     H78783   0.213   1.820  11.913  1.9338 -0.7535  1.2068
  597MOL0     H78784   0.032   1.625  11.764  1.5903  0.0762 -0.5264
  597MOL0     H78785  -0.013   1.784  11.849 -1.6661 -0.9227  0.0561
  597MOL0     H78786   0.963   1.862  11.475 -2.3251  1.1652  2.0888
  597MOL0     H78787   1.216   1.823  11.437 -0.4781  0.2689 -0.4605
  597MOL0     H78788   1.640   1.792  11.594 -1.1080  0.4745  1.0528
  597MOL0     H78789   1.867   1.768  11.556  2.8695  0.4356 -1.6353
  597MOL0     H78790   3.849   1.890  10.738 -4.0670 -2.1746 -1.4248
  597MOL0     H78791   4.020   2.012  10.593 -0.8631 -1.7942 -2.9134
  597MOL0     H78792   4.153   2.313  10.315  0.7617  0.8985 -0.8024
  597MOL0     H78793   4.303   2.452  10.215 -2.1701 -2.2457  0.1457
  597MOL0     H78794   4.424   2.650  10.136 -0.9221  0.1809  1.1951
  597MOL0     H78795   4.476   2.805  10.189 -1.8365  2.4966  1.9281
  597MOL0     H78796   4.264   2.826  10.095 -1.8734 -1.4141  0.4582
  597MOL0     H78797   4.190   2.700  10.191 -1.1094  1.5055  0.4911
  597MOL0     H78798   4.294   2.891  10.376  4.6345 -3.2794 -2.9845
  597MOL0     H78799   4.118   2.869  10.331  1.3732  0.0807  1.0424
  597MOL0     H78800   4.171   3.036  10.145  2.5342  2.4567 -2.2763
  597MOL0     H78801   4.182   3.100  10.309 -2.0479 -2.2222  0.4751
  597MOL0     H78802   4.544   3.127  10.070 -0.0659 -3.0551 -0.7736
  597MOL0     H78803   4.411   2.631  10.611  1.8027 -0.2096 -0.9613
  597MOL0     H78804   4.247   2.477  10.712 -0.9194 -0.6052 -0.6156
  598MOL0     O78805   2.847   6.429   8.188 -0.3155  0.7688  0.6327
  598MOL0     C78806   2.892   6.466   8.295  0.2373 -0.0684 -0.1025
  598MOL0     O78807   2.819   6.479   8.411  0.5463 -0.1671  0.1113
  598MOL0     C78808   2.708   6.404   8.438 -0.0906  0.3029 -0.2119
  598MOL0     C78809   2.579   6.430   8.379 -0.7508 -0.4427 -0.5537
  598MOL0     C78810   2.469   6.365   8.422 -0.4335 -0.6951 -0.3601
  598MOL0     C78811   2.476   6.257   8.513 -0.1748 -0.2346 -0.0236
  598MOL0     O78812   2.363   6.195   8.549  0.3530  0.0233 -1.3984
  598MOL0     C78813   2.375   6.059   8.592  0.4106 -0.1227  0.3990
  598MOL0     C78814   2.233   6.002   8.599 -0.0484  0.0809 -0.6458
  598MOL0     C78815   2.154   5.994   8.459 -0.3950 -0.4835 -0.6591
  598MOL0     C78816   2.007   5.951   8.480 -0.5079 -0.2051 -0.4403
  598MOL0     C78817   1.932   5.950   8.345  0.0370 -0.3219 -0.0669
  598MOL0     C78818   1.782   5.926   8.352  0.6220 -0.8412  0.4995
  598MOL0     C78819   1.704   6.043   8.420 -0.2090 -0.2448 -0.6628
  598MOL0     C78820   1.551   6.031   8.426 -0.0241 -0.4488  0.6845
  598MOL0     N78821   1.514   5.924   8.522  0.1768  0.0536 -0.0136
  598MOL0     C78822   1.412   5.829   8.506 -0.1242 -0.2934 -0.5624
  598MOL0     C78823   1.382   5.791   8.632  0.1946 -0.5191  0.1779
  598MOL0     C78824   1.279   5.691   8.662 -0.5151  0.3473  0.4580
  598MOL0     C78825   1.153   5.761   8.692  0.0078 -0.7720  0.4652
  598MOL0     C78826   1.036   5.664   8.716 -0.6290  0.3017  0.7797
  598MOL0     C78827   1.029   5.636   8.865  0.4009 -0.2370  0.6248
  598MOL0     O78828   0.927   5.542   8.903  0.0581 -0.7621 -0.2258
  598MOL0     C78829   0.806   5.587   8.940 -0.1690 -0.0470 -0.0184
  598MOL0     C78830   0.766   5.617   9.070  0.2366  0.0862 -0.0953
  598MOL0     C78831   0.636   5.668   9.086 -0.0398 -0.2577  0.3591
  598MOL0     C78832   0.545   5.677   8.981  0.3974  0.0323 -0.2288
  598MOL0     C78833   0.398   5.708   9.007  0.2643  0.7024 -0.0756
  598MOL0     O78834   0.360   5.716   9.138 -0.0938 -0.4293  0.1240
  598MOL0     C78835   0.232   5.758   9.161  0.2535 -0.4747 -0.1799
  598MOL0     C78836   0.135   5.660   9.203  0.7412  1.1042  0.4567
  598MOL0     C78837   0.011   5.695   9.263 -0.3696  0.1895 -0.7280
  598MOL0     C78838  -0.027   5.833   9.258 -0.1789  0.1386 -0.9162
  598MOL0     O78839  -0.148   5.871   9.308  0.1523 -0.2539 -0.1349
  598MOL0     C78840  -0.196   6.009   9.313  0.2008 -0.3421  0.4411
  598MOL0     C78841  -0.325   6.003   9.377  0.5439  0.1055 -0.0996
  598MOL0     C78842  -0.441   5.967   9.290  0.0586  0.2390  0.8241
  598MOL0     C78843  -0.563   6.022   9.350  0.0856  0.0947  0.6929
  598MOL0     C78844  -0.683   5.956   9.291  0.4433 -0.3471  0.3343
  598MOL0     C78845  -0.827   5.983   9.353 -0.8623  0.2866  0.1324
  598MOL0     C78846  -0.883   6.126   9.307 -0.4969  0.8272  0.6179
  598MOL0     C78847  -1.025   6.152   9.358  0.3290 -0.2379  0.0434
  598MOL0    Cl78848  -1.030   6.150   9.534  0.5398  0.5426 -0.4118
  598MOL0     C78849   0.059   5.917   9.189 -0.1203 -0.2046  0.8401
  598MOL0     C78850   0.186   5.884   9.151 -0.7569 -0.6218 -0.4304
  598MOL0     O78851   0.325   5.735   8.913  0.1499 -0.0506  0.3549
  598MOL0     C78852   0.590   5.640   8.855 -0.5892  0.3283  0.1080
  598MOL0     C78853   0.719   5.601   8.832 -0.0196  0.2208 -0.9284
  598MOL0     N78854   1.472   5.842   8.722 -0.3878  0.2352 -0.3679
  598MOL0     N78855   1.541   5.933   8.656 -0.6532  0.0120 -0.1493
  598MOL0     C78856   2.600   6.228   8.572 -0.1558  0.3553 -1.0348
  598MOL0     C78857   2.713   6.302   8.537  0.0353  0.1348  0.7027
  598MOL0     C78858   3.029   6.510   8.307 -0.7061  0.0260 -0.6560
  598MOL0     C78859   3.081   6.581   8.418 -0.0043 -0.6223  0.1381
  598MOL0     C78860   3.216   6.625   8.433  0.1785  0.2040  0.2848
  598MOL0     C78861   3.309   6.591   8.330  0.1333 -0.3948  0.0754
  598MOL0     O78862   3.439   6.623   8.333 -0.3109 -0.2543 -0.0380
  598MOL0     C78863   3.504   6.644   8.211  0.0863  0.2740 -1.0141
  598MOL0     C78864   3.442   6.765   8.131 -0.0995 -0.0614  0.2250
  598MOL0     C78865   3.426   6.900   8.210 -0.5382 -0.8679  0.0962
  598MOL0     C78866   3.564   6.949   8.270 -0.3326 -0.5607  0.1778
  598MOL0     C78867   3.551   7.086   8.324  0.2864 -0.6752 -0.3551
  598MOL0     C78868   3.560   7.206   8.360 -0.2024 -0.3821 -0.4919
  598MOL0     C78869   3.253   6.514   8.227 -0.2542  0.4398 -0.2019
  598MOL0     C78870   3.118   6.469   8.215 -0.7571 -1.1049  0.5013
  598MOL0     H78871   2.570   6.515   8.312 -2.4552 -0.2710 -0.1590
  598MOL0     H78872   2.367   6.392   8.395 -0.2409 -0.1614 -0.5477
  598MOL0     H78873   2.429   6.042   8.685 -0.6922  0.4242  1.1520
  598MOL0     H78874   2.428   6.007   8.511 -1.8348 -0.6395 -0.8238
  598MOL0     H78875   2.182   6.073   8.665 -0.2821 -0.1257 -0.5987
  598MOL0     H78876   2.224   5.907   8.654  3.7380  0.4667  0.8885
  598MOL0     H78877   2.201   5.918   8.396 -0.0606 -0.2934 -0.6409
  598MOL0     H78878   2.160   6.092   8.410 -0.4481 -1.3451 -2.4878
  598MOL0     H78879   2.003   5.854   8.530 -0.5359  0.8010  1.5750
  598MOL0     H78880   1.960   6.017   8.553  0.6222  1.4306 -1.1404
  598MOL0     H78881   1.973   5.865   8.289  0.4277 -2.1215  2.7330
  598MOL0     H78882   1.958   6.045   8.298 -2.0355  0.3507  0.0716
  598MOL0     H78883   1.761   5.828   8.396  2.4235 -0.5694  2.0861
  598MOL0     H78884   1.751   5.924   8.247  3.4383  1.0910 -0.4935
  598MOL0     H78885   1.742   6.060   8.521  1.0878  0.3289 -1.2353
  598MOL0     H78886   1.733   6.133   8.367  1.1900  1.3296  2.5205
  598MOL0     H78887   1.514   6.009   8.326  0.0726  0.8473  0.3465
  598MOL0     H78888   1.511   6.127   8.463  0.2622 -0.7224  1.7297
  598MOL0     H78889   1.355   5.806   8.417  0.1252 -0.7608 -0.6035
  598MOL0     H78890   1.303   5.636   8.753 -0.3828 -0.6008 -0.1341
  598MOL0     H78891   1.277   5.615   8.583 -0.7209  1.2598 -0.4294
  598MOL0     H78892   1.130   5.823   8.604 -1.0370 -2.4036 -0.4652
  598MOL0     H78893   1.154   5.828   8.778  1.7215  1.1490 -0.9473
  598MOL0     H78894   0.946   5.713   8.680 -0.0690  0.4515 -0.4770
  598MOL0     H78895   1.052   5.569   8.664  1.6407 -1.2064  3.8765
  598MOL0     H78896   1.035   5.728   8.923  0.9933  2.9380 -3.9324
  598MOL0     H78897   1.129   5.596   8.884  1.6014  2.4770  0.5199
  598MOL0     H78898   0.831   5.601   9.155  2.0411 -0.3489 -1.4931
  598MOL0     H78899   0.595   5.684   9.185  0.8960  0.0928  0.7038
  598MOL0     H78900   0.166   5.557   9.192  0.8779  1.0867  1.0070
  598MOL0     H78901  -0.056   5.623   9.310 -0.3062  1.2900  1.1504
  598MOL0     H78902  -0.209   6.066   9.220  1.2900 -0.6295  0.0987
  598MOL0     H78903  -0.130   6.063   9.381 -0.3213  1.7097 -0.6044
  598MOL0     H78904  -0.338   6.102   9.421  1.5256 -0.4933  1.6419
  598MOL0     H78905  -0.327   5.930   9.459 -4.1582  0.7202  0.6159
  598MOL0     H78906  -0.448   5.857   9.286  0.7707  0.2256 -0.3825
  598MOL0     H78907  -0.434   6.004   9.188 -2.1868  1.2591  0.9731
  598MOL0     H78908  -0.562   5.995   9.456 -0.4762  0.7896  0.8839
  598MOL0     H78909  -0.577   6.130   9.339  0.3742  0.0677  0.0206
  598MOL0     H78910  -0.678   5.847   9.303 -0.3198 -0.1656  2.7341
  598MOL0     H78911  -0.689   5.979   9.184 -1.1932  0.3647  0.5442
  598MOL0     H78912  -0.813   5.982   9.462  2.3835  0.5446 -0.2007
  598MOL0     H78913  -0.897   5.906   9.318  1.6698 -1.5796 -1.1790
  598MOL0     H78914  -0.811   6.205   9.331 -0.9856  2.2208 -2.1237
  598MOL0     H78915  -0.898   6.144   9.200 -2.4224 -0.2587  0.6593
  598MOL0     H78916  -1.095   6.083   9.309  0.4884  1.2865 -2.5256
  598MOL0     H78917  -1.056   6.254   9.333  2.5416  0.4027 -0.2485
  598MOL0     H78918   0.041   6.023   9.175  2.7623  0.3369  0.7962
  598MOL0     H78919   0.257   5.949   9.100 -0.1509 -0.7239  0.2687
  598MOL0     H78920   0.521   5.626   8.773 -0.8228  1.0247  0.1841
  598MOL0     H78921   0.754   5.575   8.732 -2.2233 -0.5423 -1.5670
  598MOL0     H78922   2.619   6.148   8.643 -1.3784 -0.2010 -1.3064
  598MOL0     H78923   2.807   6.290   8.591  0.6074  0.5687 -0.1758
  598MOL0     H78924   3.006   6.619   8.485  0.3284 -1.2137  0.8558
  598MOL0     H78925   3.247   6.678   8.523  1.3014  0.2565 -0.1187
  598MOL0     H78926   3.501   6.546   8.161 -0.5388 -0.9514  1.3144
  598MOL0     H78927   3.608   6.657   8.242 -0.9989  1.6651  2.5623
  598MOL0     H78928   3.507   6.800   8.050  0.7366  1.3411  1.4414
  598MOL0     H78929   3.350   6.731   8.083  1.4843 -1.2678 -2.0910
  598MOL0     H78930   3.352   6.886   8.289 -1.9844 -0.1778 -1.0843
  598MOL0     H78931   3.374   6.967   8.140 -1.4893 -2.3060 -0.6170
  598MOL0     H78932   3.603   6.885   8.350 -0.3564  2.5419  2.9058
  598MOL0     H78933   3.653   6.953   8.207  1.7627 -1.2130  2.8887
  598MOL0     H78934   3.578   7.304   8.399  1.9494 -0.9023 -0.0362
  598MOL0     H78935   3.313   6.472   8.146  0.7767  1.0153  0.2529
  598MOL0     H78936   3.088   6.411   8.130  0.9709 -1.0646 -0.1816
  599MOL0     O78937   0.460   8.819   3.746  0.3889  1.2037  0.6785
  599MOL0     C78938   0.460   8.891   3.844  0.0863  0.7680  0.3639
  599MOL0     O78939   0.368   8.988   3.871 -0.4806 -0.3863  0.9045
  599MOL0     C78940   0.265   9.020   3.790 -0.7146  0.4885 -0.9460
  599MOL0     C78941   0.141   8.955   3.801  0.2242  0.0314 -1.1572
  599MOL0     C78942   0.035   9.001   3.729 -1.0108  0.7041  0.6633
  599MOL0     C78943   0.049   9.113   3.640 -0.0508  0.3845 -1.0445
  599MOL0     O78944  -0.042   9.166   3.552  0.1009 -0.5028 -0.4148
  599MOL0     C78945  -0.150   9.088   3.522 -0.4597  0.1910 -0.4647
  599MOL0     C78946  -0.265   9.115   3.624 -0.6859  0.2942  0.0209
  599MOL0     C78947  -0.331   9.248   3.605  0.1643  0.1859  0.0622
  599MOL0     C78948  -0.436   9.276   3.708  0.1671 -0.1234 -0.4155
  599MOL0     C78949  -0.565   9.184   3.682  0.0830  0.1884  0.7088
  599MOL0     C78950  -0.687   9.234   3.763 -0.0629 -0.6479 -0.1727
  599MOL0     C78951  -0.675   9.209   3.919 -0.5356 -0.7644 -0.1444
  599MOL0     C78952  -0.814   9.226   3.979  0.0530 -0.5733  0.5639
  599MOL0     N78953  -0.798   9.211   4.126  0.6361 -0.0249  1.0172
  599MOL0     C78954  -0.826   9.095   4.196 -0.8536  0.4055  0.5468
  599MOL0     C78955  -0.806   9.124   4.328 -0.8130  0.2541 -0.4767
  599MOL0     C78956  -0.810   9.041   4.448 -0.5928  0.0432  1.1074
  599MOL0     C78957  -0.711   9.088   4.556 -0.5160 -0.5224  0.5624
  599MOL0     C78958  -0.726   9.003   4.685  0.1101 -0.5281 -0.5155
  599MOL0     C78959  -0.861   8.971   4.728  0.4839  0.6215 -0.5011
  599MOL0     O78960  -0.912   8.855   4.660  0.6834 -0.0054 -0.3308
  599MOL0     C78961  -1.042   8.822   4.671  0.5417  0.0692 -0.2305
  599MOL0     C78962  -1.100   8.754   4.561  0.3698 -0.7577 -0.0794
  599MOL0     C78963  -1.233   8.739   4.544 -0.1134  0.0594 -0.2064
  599MOL0     C78964  -1.325   8.773   4.644  0.7760 -0.6393 -0.0578
  599MOL0     C78965  -1.468   8.763   4.617  0.0424 -0.9788  0.9515
  599MOL0     O78966  -1.545   8.785   4.723 -0.1948  0.6074  0.3581
  599MOL0     C78967  -1.684   8.782   4.712 -0.0374 -0.1595 -0.3233
  599MOL0     C78968  -1.740   8.860   4.809  0.2185 -0.3732  0.2872
  599MOL0     C78969  -1.882   8.876   4.819  0.8520  0.0138  0.1346
  599MOL0     C78970  -1.970   8.814   4.729 -0.3476 -0.0475 -0.0889
  599MOL0     O78971  -2.105   8.816   4.737  0.2134  0.0996 -0.5810
  599MOL0     C78972  -2.162   8.877   4.858 -0.3683  0.4125 -0.3032
  599MOL0     C78973  -2.310   8.907   4.842  0.7828 -0.8647 -0.7856
  599MOL0     C78974  -2.394   8.773   4.832 -0.2246 -0.0245 -0.1392
  599MOL0     C78975  -2.545   8.788   4.875  0.8661  0.7945 -0.0203
  599MOL0     C78976  -2.616   8.665   4.929 -0.0633 -0.6810  0.4123
  599MOL0     C78977  -2.752   8.676   4.994  0.6477 -0.2506  0.3202
  599MOL0     C78978  -2.843   8.749   4.893 -1.0418  0.2962 -0.7607
  599MOL0     C78979  -2.992   8.697   4.897  0.3991 -0.0661 -0.1588
  599MOL0    Cl78980  -3.007   8.523   4.841 -0.2592  0.0597  0.2506
  599MOL0     C78981  -1.911   8.743   4.629  0.3477 -0.5762  0.2820
  599MOL0     C78982  -1.776   8.728   4.616 -0.1333 -0.4278 -0.0673
  599MOL0     O78983  -1.510   8.727   4.502  1.3058 -0.3670 -1.2341
  599MOL0     C78984  -1.273   8.831   4.759 -0.0399  0.6068  0.0201
  599MOL0     C78985  -1.140   8.849   4.772 -0.0541  0.2084 -0.1306
  599MOL0     N78986  -0.764   9.253   4.331 -0.3121 -0.1516  0.5038
  599MOL0     N78987  -0.754   9.299   4.209 -1.4850 -0.1864 -0.0771
  599MOL0     C78988   0.172   9.182   3.632  1.0378  0.6751 -0.3874
  599MOL0     C78989   0.278   9.136   3.714 -0.8094 -0.2262 -0.6863
  599MOL0     C78990   0.576   8.870   3.938 -0.3100 -0.8270 -1.5693
  599MOL0     C78991   0.613   8.980   4.020  0.1969 -0.1068 -0.2116
  599MOL0     C78992   0.719   8.967   4.102  0.3488 -0.0390 -0.3862
  599MOL0     C78993   0.803   8.851   4.110 -0.3605  0.2347 -0.0521
  599MOL0     O78994   0.911   8.854   4.190  1.0236 -0.1547 -0.4022
  599MOL0     C78995   0.932   8.725   4.264  0.2455 -0.5575  0.1868
  599MOL0     C78996   1.046   8.639   4.193  0.1532  0.1403 -0.4109
  599MOL0     C78997   1.172   8.725   4.168 -0.5385  0.3623  1.1604
  599MOL0     C78998   1.284   8.639   4.114  0.2473  0.9180  0.3939
  599MOL0     C78999   1.247   8.571   3.990 -0.2937 -0.2081 -0.0889
  599MOL0     C79000   1.225   8.511   3.884 -0.2096  0.2933 -0.5530
  599MOL0     C79001   0.764   8.744   4.025  0.2875 -0.1908  0.3730
  599MOL0     C79002   0.650   8.752   3.944 -0.3080  0.1568  0.2882
  599MOL0     H79003   0.123   8.869   3.866 -1.6325  0.0142 -1.6460
  599MOL0     H79004  -0.056   8.942   3.729  1.4360 -3.4892 -1.0418
  599MOL0     H79005  -0.131   8.980   3.522 -0.9003  0.0991  0.6873
  599MOL0     H79006  -0.176   9.116   3.419  1.6715 -0.1162 -1.1397
  599MOL0     H79007  -0.232   9.121   3.728  0.9498 -0.0528 -0.4456
  599MOL0     H79008  -0.327   9.029   3.597 -0.6553  0.5267 -0.8335
  599MOL0     H79009  -0.370   9.252   3.503 -1.6161  0.4055  0.7087
  599MOL0     H79010  -0.253   9.321   3.626  1.4799 -0.9810 -0.6247
  599MOL0     H79011  -0.398   9.266   3.810  2.7794  1.6906 -1.1295
  599MOL0     H79012  -0.469   9.380   3.699  2.5664  0.9449  1.8763
  599MOL0     H79013  -0.555   9.077   3.701 -2.3519 -0.0561  0.9039
  599MOL0     H79014  -0.589   9.195   3.576 -0.4569  0.2184  0.8320
  599MOL0     H79015  -0.772   9.180   3.721  1.2174 -2.9868  0.0592
  599MOL0     H79016  -0.706   9.340   3.748 -1.3761 -0.8632 -0.2093
  599MOL0     H79017  -0.637   9.107   3.935  2.0692 -0.3607 -2.7126
  599MOL0     H79018  -0.609   9.286   3.958 -3.2266  0.7046  1.8341
  599MOL0     H79019  -0.888   9.153   3.945 -1.5273  1.5837 -0.9234
  599MOL0     H79020  -0.841   9.331   3.961  0.5787 -0.1532  2.0784
  599MOL0     H79021  -0.851   9.000   4.149  4.4906 -0.3667 -1.4200
  599MOL0     H79022  -0.800   8.938   4.414 -0.6235  0.3345  0.1969
  599MOL0     H79023  -0.907   9.054   4.499  0.1752 -0.8632  2.8805
  599MOL0     H79024  -0.720   9.195   4.578 -2.0589 -0.1432 -1.6028
  599MOL0     H79025  -0.610   9.080   4.514 -1.4297  0.1093 -1.9404
  599MOL0     H79026  -0.662   8.915   4.675  2.1228  0.9030 -0.8662
  599MOL0     H79027  -0.687   9.077   4.757  1.2022  0.2773 -1.8946
  599MOL0     H79028  -0.924   9.057   4.707 -0.8143 -0.2246 -0.1966
  599MOL0     H79029  -0.862   8.947   4.835  2.0853 -1.4851 -0.8912
  599MOL0     H79030  -1.033   8.710   4.488 -0.6511  1.1548 -2.2621
  599MOL0     H79031  -1.264   8.679   4.459 -0.1491 -2.5322  1.5252
  599MOL0     H79032  -1.679   8.927   4.869 -0.1752  1.4653 -1.2839
  599MOL0     H79033  -1.910   8.933   4.908  1.7960  2.2595 -0.9243
  599MOL0     H79034  -2.108   8.969   4.882  2.6316 -0.9679 -1.2801
  599MOL0     H79035  -2.156   8.809   4.944  0.4392  1.2030  0.2856
  599MOL0     H79036  -2.331   8.968   4.754 -1.6397 -0.9417 -0.3155
  599MOL0     H79037  -2.346   8.948   4.937 -2.6427 -2.8045 -1.0871
  599MOL0     H79038  -2.350   8.697   4.897 -1.3107 -1.0618 -0.5733
  599MOL0     H79039  -2.385   8.737   4.729  0.2824  0.9610 -0.4424
  599MOL0     H79040  -2.555   8.866   4.951 -2.3422  0.5317 -0.0085
  599MOL0     H79041  -2.597   8.831   4.789 -1.4256  0.6177  1.1945
  599MOL0     H79042  -2.552   8.617   5.003  1.6630  2.3215  1.0125
  599MOL0     H79043  -2.636   8.593   4.849 -1.9856  0.3231 -0.0677
  599MOL0     H79044  -2.742   8.751   5.073 -0.9899  1.4766 -1.0339
  599MOL0     H79045  -2.794   8.580   5.024 -2.2645  0.8712  0.1978
  599MOL0     H79046  -2.847   8.856   4.916  0.0473 -0.1959  2.1908
  599MOL0     H79047  -2.805   8.720   4.795 -1.1632 -0.5089 -0.5789
  599MOL0     H79048  -3.053   8.760   4.831 -0.9564 -0.5980  0.5279
  599MOL0     H79049  -3.044   8.708   4.993 -1.1456 -1.4933 -0.7812
  599MOL0     H79050  -1.972   8.711   4.545  0.0590  1.3739 -0.3093
  599MOL0     H79051  -1.729   8.673   4.535  4.3108  2.7600 -0.0328
  599MOL0     H79052  -1.347   8.862   4.832  0.0819 -3.9203  2.3934
  599MOL0     H79053  -1.119   8.886   4.872 -2.4690 -2.1867  1.3813
  599MOL0     H79054   0.182   9.267   3.565 -2.5581 -0.0270 -2.0653
  599MOL0     H79055   0.381   9.171   3.714 -0.3979 -1.3575  0.0634
  599MOL0     H79056   0.563   9.076   4.025 -0.6985 -0.6249  0.9172
  599MOL0     H79057   0.755   9.051   4.161  1.0392 -1.7698  1.7743
  599MOL0     H79058   0.836   8.672   4.271 -0.6577  1.0602  0.5009
  599MOL0     H79059   0.980   8.748   4.359  1.8553  0.6417 -0.8531
  599MOL0     H79060   1.073   8.554   4.256 -1.3857 -0.3924 -0.4168
  599MOL0     H79061   1.015   8.599   4.096 -1.5500 -0.1856  0.2331
  599MOL0     H79062   1.207   8.788   4.250 -0.8040  1.8931  0.1392
  599MOL0     H79063   1.149   8.797   4.088 -1.4808 -0.6976  0.4446
  599MOL0     H79064   1.373   8.700   4.101  1.1419 -0.7913 -2.5023
  599MOL0     H79065   1.309   8.568   4.193 -0.8790  0.9698  0.8160
  599MOL0     H79066   1.200   8.461   3.793 -1.9329 -0.9193  0.5079
  599MOL0     H79067   0.814   8.648   4.012  2.1972  0.8562 -0.4372
  599MOL0     H79068   0.633   8.670   3.875  1.2662 -0.9254  1.0951
  600MOL0     O79069   7.220   0.787   7.662 -0.1049  0.1921 -0.1807
  600MOL0     C79070   7.222   0.678   7.720 -0.0427 -0.0671  0.1316
  600MOL0     O79071   7.147   0.571   7.692 -0.0549 -0.2305 -0.7431
  600MOL0     C79072   7.032   0.587   7.619  0.3850 -1.0935  0.3300
  600MOL0     C79073   7.010   0.523   7.496  0.2632  0.8008 -0.0389
  600MOL0     C79074   6.908   0.572   7.413  0.5729  0.1061  0.5827
  600MOL0     C79075   6.814   0.662   7.460 -0.0809 -0.3613 -0.5127
  600MOL0     O79076   6.710   0.710   7.379  0.6938 -0.0945  0.4571
  600MOL0     C79077   6.699   0.656   7.242  0.2245  0.9192 -0.4693
  600MOL0     C79078   6.597   0.722   7.143  0.2911 -0.0977  0.2159
  600MOL0     C79079   6.455   0.709   7.205 -0.0522  0.8608  0.5392
  600MOL0     C79080   6.345   0.764   7.113 -0.2391 -0.3938 -0.2232
  600MOL0     C79081   6.209   0.721   7.162  0.0951  0.1341  0.6931
  600MOL0     C79082   6.084   0.786   7.082  0.5068  0.1766 -0.2026
  600MOL0     C79083   5.950   0.759   7.152  0.6384 -0.4571  0.1256
  600MOL0     C79084   5.827   0.841   7.113  0.3415 -0.3288  0.1660
  600MOL0     N79085   5.711   0.789   7.185  0.2976 -0.4372  0.2068
  600MOL0     C79086   5.622   0.878   7.239  0.6763  0.2487 -0.6081
  600MOL0     C79087   5.521   0.801   7.285 -0.7034 -0.4320  0.5423
  600MOL0     C79088   5.401   0.844   7.354  0.1918 -0.5801 -0.4512
  600MOL0     C79089   5.301   0.904   7.263  0.4961  0.2142 -0.6693
  600MOL0     C79090   5.219   0.798   7.190  0.2902 -1.1355  0.3498
  600MOL0     C79091   5.087   0.855   7.130 -0.6150 -0.1139 -0.7421
  600MOL0     O79092   5.122   0.943   7.023  0.1087  0.1048 -0.3715
  600MOL0     C79093   5.003   0.983   6.957 -0.2762 -0.2577 -1.1902
  600MOL0     C79094   5.019   1.070   6.858 -0.8291 -0.0318  0.3916
  600MOL0     C79095   4.915   1.122   6.772 -0.9983  0.3607 -1.0458
  600MOL0     C79096   4.788   1.079   6.804 -0.2237 -1.3791  0.3275
  600MOL0     C79097   4.677   1.115   6.717 -0.5118 -0.1221 -0.3783
  600MOL0     O79098   4.704   1.191   6.606 -0.2014 -0.0474 -0.8495
  600MOL0     C79099   4.601   1.239   6.523 -0.5990 -0.8056  0.0355
  600MOL0     C79100   4.482   1.284   6.570 -0.1274 -0.6036  0.0300
  600MOL0     C79101   4.396   1.361   6.490 -0.1442 -0.3092 -0.1263
  600MOL0     C79102   4.428   1.392   6.358 -0.4119  0.2162  0.1594
  600MOL0     O79103   4.333   1.456   6.281  0.6464 -0.9702  0.1088
  600MOL0     C79104   4.368   1.525   6.154  0.2004 -0.0144 -0.1062
  600MOL0     C79105   4.238   1.599   6.093  0.9637  0.3059  0.5903
  600MOL0     C79106   4.250   1.630   5.940 -0.9149 -0.3572  0.4288
  600MOL0     C79107   4.144   1.735   5.896  0.8922 -0.4014  0.1870
  600MOL0     C79108   3.997   1.699   5.928 -0.7418  0.8139 -0.0369
  600MOL0     C79109   3.947   1.595   5.833  1.0141  0.4485  0.2782
  600MOL0     C79110   3.805   1.563   5.862 -0.0873  0.0066 -1.6500
  600MOL0     C79111   3.758   1.452   5.767 -0.1572 -0.2443  0.1277
  600MOL0    Cl79112   3.775   1.292   5.829  0.4721 -0.5035  0.2033
  600MOL0     C79113   4.556   1.342   6.307  0.8388  0.4795 -0.0155
  600MOL0     C79114   4.635   1.268   6.389 -0.5029  0.1638 -0.4800
  600MOL0     O79115   4.570   1.059   6.740  0.3026 -0.2368 -0.3527
  600MOL0     C79116   4.770   0.997   6.916 -0.3314 -0.6677 -0.7517
  600MOL0     C79117   4.874   0.952   6.996  0.4277 -0.5566  0.5573
  600MOL0     N79118   5.547   0.668   7.259 -0.1208  0.2514 -0.3377
  600MOL0     N79119   5.662   0.662   7.199 -0.0304 -0.5380  0.0210
  600MOL0     C79120   6.818   0.707   7.595  0.4314  0.0245  0.2994
  600MOL0     C79121   6.931   0.675   7.667 -0.6870  1.3463 -0.2685
  600MOL0     C79122   7.313   0.664   7.834  0.4984 -0.6755  0.2738
  600MOL0     C79123   7.303   0.551   7.911  0.1631 -0.4646 -0.2986
  600MOL0     C79124   7.402   0.518   8.003  0.9395  0.8020 -0.3694
  600MOL0     C79125   7.508   0.601   8.032  0.5181 -0.4126  0.1790
  600MOL0     O79126   7.591   0.572   8.137  0.2372  0.5801 -0.6420
  600MOL0     C79127   7.731   0.584   8.122  0.2636 -0.0215  0.3776
  600MOL0     C79128   7.799   0.446   8.109  0.1085 -0.5024 -0.2426
  600MOL0     C79129   7.800   0.361   8.240 -1.1791  0.9414 -0.2518
  600MOL0     C79130   7.872   0.229   8.213  0.7240  0.1958 -0.2888
  600MOL0     C79131   7.924   0.183   8.344 -0.3566  0.3505  1.1689
  600MOL0     C79132   7.977   0.145   8.448  0.6107  0.0102 -0.1630
  600MOL0     C79133   7.511   0.727   7.967 -0.7538 -0.1267 -0.1148
  600MOL0     C79134   7.414   0.754   7.867  0.3106 -0.7411 -0.0338
  600MOL0     H79135   7.094   0.459   7.469  2.2381  2.8563  0.8884
  600MOL0     H79136   6.884   0.526   7.318  2.9363  2.1664 -1.1111
  600MOL0     H79137   6.666   0.553   7.255 -0.6775  1.0857 -1.3056
  600MOL0     H79138   6.797   0.650   7.194  0.2797 -2.5764 -0.1670
  600MOL0     H79139   6.597   0.663   7.051 -1.7060 -1.6164  1.1093
  600MOL0     H79140   6.627   0.826   7.125  2.6688 -0.7596  0.0166
  600MOL0     H79141   6.445   0.760   7.301  0.9184  2.3651 -0.1233
  600MOL0     H79142   6.436   0.607   7.241  2.0137  1.2825  3.0543
  600MOL0     H79143   6.347   0.873   7.109  1.8594 -0.2892  1.5292
  600MOL0     H79144   6.358   0.721   7.013 -0.1658 -0.4062 -0.2085
  600MOL0     H79145   6.200   0.752   7.267 -1.2789  1.8285  0.1097
  600MOL0     H79146   6.196   0.612   7.159 -1.0385  0.1963 -3.9807
  600MOL0     H79147   6.084   0.758   6.976 -2.5050 -0.4417 -0.1233
  600MOL0     H79148   6.115   0.891   7.080  2.8398 -0.4599 -1.2187
  600MOL0     H79149   5.919   0.656   7.133 -0.1381  0.1099 -2.0176
  600MOL0     H79150   5.966   0.778   7.258  3.0105  0.6811 -0.3750
  600MOL0     H79151   5.815   0.827   7.005 -2.6971 -0.0257  0.3546
  600MOL0     H79152   5.840   0.944   7.148 -2.6667  0.0210  0.5452
  600MOL0     H79153   5.626   0.987   7.239  0.1170  0.2721 -0.0284
  600MOL0     H79154   5.437   0.916   7.428  1.4997 -2.7951  1.2240
  600MOL0     H79155   5.354   0.765   7.413 -2.7574  0.6229 -1.0462
  600MOL0     H79156   5.330   0.982   7.193 -3.5146  1.1545 -1.5632
  600MOL0     H79157   5.230   0.968   7.316  1.7811  1.3626 -0.2775
  600MOL0     H79158   5.285   0.773   7.107  1.2969 -1.2691  1.1605
  600MOL0     H79159   5.200   0.710   7.252 -1.9233 -1.0248 -0.1172
  600MOL0     H79160   5.042   0.924   7.203 -0.3864  1.9095 -2.3992
  600MOL0     H79161   5.015   0.778   7.102 -3.0653  2.0676 -0.8383
  600MOL0     H79162   5.123   1.091   6.834 -0.8998 -2.2656 -2.5070
  600MOL0     H79163   4.926   1.190   6.688 -2.5227  0.1115 -1.4631
  600MOL0     H79164   4.472   1.278   6.678 -0.0876  0.0898  0.0723
  600MOL0     H79165   4.304   1.404   6.530  1.1554  2.1724  0.4175
  600MOL0     H79166   4.401   1.445   6.088 -0.5921 -0.6156  0.2117
  600MOL0     H79167   4.448   1.599   6.163  0.9393 -0.7503 -0.5413
  600MOL0     H79168   4.230   1.691   6.152  4.0086  0.8817  0.2824
  600MOL0     H79169   4.147   1.543   6.116 -0.1431  1.4913 -0.7416
  600MOL0     H79170   4.253   1.547   5.870  2.5975  0.1207 -0.1352
  600MOL0     H79171   4.343   1.686   5.927 -1.4920  0.9424  1.6096
  600MOL0     H79172   4.164   1.827   5.952  0.4402 -0.5213  0.5539
  600MOL0     H79173   4.145   1.756   5.789  0.3675  2.0507  0.5969
  600MOL0     H79174   3.943   1.792   5.909 -1.8321  0.4579  1.1497
  600MOL0     H79175   3.988   1.663   6.031  0.0034  0.0291 -0.2317
  600MOL0     H79176   4.003   1.501   5.832 -2.6687 -2.1329  3.6942
  600MOL0     H79177   3.946   1.640   5.734 -2.3931  0.4490  0.1987
  600MOL0     H79178   3.791   1.519   5.962 -0.6560  0.5419 -1.4880
  600MOL0     H79179   3.743   1.653   5.853 -0.8984 -0.5391 -1.6659
  600MOL0     H79180   3.808   1.449   5.670 -2.1554 -2.7212 -0.9309
  600MOL0     H79181   3.656   1.478   5.737  0.2790  1.7705  0.2336
  600MOL0     H79182   4.574   1.356   6.201  1.2378  0.8204  0.0957
  600MOL0     H79183   4.727   1.224   6.353  0.8012 -0.0086  2.7458
  600MOL0     H79184   4.668   0.965   6.932 -1.0706  2.1221  0.8264
  600MOL0     H79185   4.848   0.907   7.091 -2.9814 -1.5962 -0.7165
  600MOL0     H79186   6.743   0.777   7.629  0.2584  0.4921 -1.0196
  600MOL0     H79187   6.932   0.721   7.765 -0.3661 -0.2987  0.5329
  600MOL0     H79188   7.217   0.487   7.897 -1.8317  1.3515  2.6697
  600MOL0     H79189   7.393   0.435   8.073 -0.1064  0.2909 -1.0841
  600MOL0     H79190   7.770   0.641   8.207 -0.5521  0.6019  0.3502
  600MOL0     H79191   7.763   0.651   8.042  4.2866 -1.6275  0.3929
  600MOL0     H79192   7.737   0.398   8.033  0.2916  0.6795 -1.1809
  600MOL0     H79193   7.896   0.463   8.062 -1.1839  1.5016 -2.4287
  600MOL0     H79194   7.701   0.334   8.279 -0.4020  0.0181  1.1600
  600MOL0     H79195   7.862   0.413   8.313  3.8108 -1.7966 -2.0476
  600MOL0     H79196   7.788   0.166   8.179  0.7517 -0.1968  0.3519
  600MOL0     H79197   7.955   0.245   8.143  1.0907  1.3554  0.3858
  600MOL0     H79198   8.016   0.128   8.547 -0.6478 -0.8988  0.1977
  600MOL0     H79199   7.588   0.798   7.999 -1.0191 -0.3573  1.0785
  600MOL0     H79200   7.420   0.839   7.800 -0.3920 -0.4861  0.2209
  601MOL0     O79201   6.449   9.237   0.275 -0.1556 -0.4248 -0.4822
  601MOL0     C79202   6.459   9.304   0.381  0.1578 -0.0935 -0.1520
  601MOL0     O79203   6.556   9.383   0.410  0.3287 -0.4863 -0.1444
  601MOL0     C79204   6.676   9.377   0.342 -1.0227  0.0835 -0.0401
  601MOL0     C79205   6.679   9.416   0.207  0.3730  0.1067 -0.3646
  601MOL0     C79206   6.811   9.441   0.148  0.3817  0.0587 -1.4804
  601MOL0     C79207   6.925   9.405   0.216 -0.4590  0.6547 -0.1673
  601MOL0     O79208   7.054   9.418   0.161  0.0184 -0.7524 -0.0404
  601MOL0     C79209   7.077   9.328   0.052 -0.1700 -0.6295 -0.6598
  601MOL0     C79210   7.200   9.359  -0.027  0.6514  0.1779  0.3015
  601MOL0     C79211   7.240   9.227  -0.105  0.2552  0.0944  0.0797
  601MOL0     C79212   7.352   9.252  -0.216  0.4684  0.6850 -0.1005
  601MOL0     C79213   7.386   9.123  -0.301  0.0856 -0.2461 -0.8882
  601MOL0     C79214   7.287   9.101  -0.425 -0.2178 -0.6623  0.7034
  601MOL0     C79215   7.360   9.140  -0.558 -0.1218  0.5947  0.3825
  601MOL0     C79216   7.275   9.147  -0.683 -0.2779 -0.0972 -0.3060
  601MOL0     N79217   7.234   9.009  -0.732  0.5188 -0.1863 -0.2744
  601MOL0     C79218   7.107   8.980  -0.789 -0.2862  0.7867  0.5883
  601MOL0     C79219   7.122   8.850  -0.834 -0.0008  0.8462 -0.9584
  601MOL0     C79220   7.023   8.773  -0.922 -1.2172 -0.6368 -0.1623
  601MOL0     C79221   6.882   8.766  -0.855  0.1249 -0.3672 -0.3139
  601MOL0     C79222   6.873   8.656  -0.752  0.6056 -0.6942 -0.7499
  601MOL0     C79223   6.740   8.676  -0.672  0.1132 -0.6439  0.0320
  601MOL0     O79224   6.646   8.576  -0.705  0.4865  0.5003  0.2931
  601MOL0     C79225   6.524   8.577  -0.644  0.6660 -0.5046 -0.1382
  601MOL0     C79226   6.446   8.465  -0.679 -0.1574  0.9452 -0.5261
  601MOL0     C79227   6.309   8.459  -0.634 -0.1296  0.1512  0.3992
  601MOL0     C79228   6.251   8.565  -0.560  0.3627  0.0499 -0.0411
  601MOL0     C79229   6.109   8.578  -0.539 -0.2075  0.4262 -0.7730
  601MOL0     O79230   6.032   8.473  -0.580 -0.2255 -0.0177 -0.0483
  601MOL0     C79231   5.898   8.482  -0.562 -0.3446 -0.1269  0.5231
  601MOL0     C79232   5.806   8.498  -0.667  0.3998 -1.1115 -1.0252
  601MOL0     C79233   5.670   8.505  -0.640 -0.2434 -0.0802 -0.1404
  601MOL0     C79234   5.615   8.486  -0.512 -0.1372  0.0532 -0.0934
  601MOL0     O79235   5.485   8.510  -0.478  0.2881 -0.5116 -0.2103
  601MOL0     C79236   5.406   8.563  -0.584 -0.2945  0.0639 -0.0783
  601MOL0     C79237   5.266   8.599  -0.532  0.0538 -0.6904  0.5114
  601MOL0     C79238   5.176   8.670  -0.637 -1.1748  0.5218  0.5291
  601MOL0     C79239   5.034   8.697  -0.576  0.7700  0.9176  0.9117
  601MOL0     C79240   4.930   8.740  -0.672 -0.2492  0.2354  0.5363
  601MOL0     C79241   4.803   8.809  -0.615 -0.1638  0.1267  0.3349
  601MOL0     C79242   4.719   8.881  -0.724 -0.0584  0.3136  0.9327
  601MOL0     C79243   4.580   8.923  -0.670  0.4062  0.8561  0.0077
  601MOL0    Cl79244   4.582   9.078  -0.580 -0.2299  0.3224  0.3167
  601MOL0     C79245   5.704   8.464  -0.410 -0.5367  0.6557 -0.5783
  601MOL0     C79246   5.844   8.456  -0.431 -0.6161  0.5044  0.2966
  601MOL0     O79247   6.064   8.681  -0.478  0.2574  1.4176 -0.6959
  601MOL0     C79248   6.341   8.669  -0.528  0.2366 -0.7743 -0.3435
  601MOL0     C79249   6.473   8.678  -0.566  0.6266 -0.2560 -0.0349
  601MOL0     N79250   7.242   8.802  -0.795 -0.0439 -0.8368 -0.3207
  601MOL0     N79251   7.313   8.900  -0.737  0.9651  0.7940  0.3987
  601MOL0     C79252   6.912   9.350   0.346 -0.4731  0.9465  0.2213
  601MOL0     C79253   6.791   9.352   0.411  0.4618  0.6994  0.0391
  601MOL0     C79254   6.352   9.283   0.486  0.4788  0.2122 -0.7296
  601MOL0     C79255   6.363   9.337   0.618  0.4333  0.3688 -0.1785
  601MOL0     C79256   6.262   9.313   0.718 -0.0183 -0.2095 -1.2260
  601MOL0     C79257   6.162   9.216   0.689  0.0989  0.3147 -0.6236
  601MOL0     O79258   6.065   9.175   0.773  0.2772  0.5682 -0.0849
  601MOL0     C79259   5.998   9.273   0.844 -0.0237 -0.9549 -0.1554
  601MOL0     C79260   5.868   9.213   0.897  0.6775  0.3601 -0.5427
  601MOL0     C79261   5.776   9.316   0.956  0.3062 -0.0839 -0.7673
  601MOL0     C79262   5.802   9.351   1.106 -0.7011 -0.3179  0.1270
  601MOL0     C79263   5.720   9.269   1.191  0.6016 -0.0303  0.0237
  601MOL0     C79264   5.649   9.198   1.252  0.7199  0.5439  0.9477
  601MOL0     C79265   6.151   9.164   0.558  0.3048 -0.3812 -0.4127
  601MOL0     C79266   6.242   9.197   0.459  0.2998  0.1039  0.3273
  601MOL0     H79267   6.584   9.434   0.156 -1.2575  1.5904  2.9021
  601MOL0     H79268   6.832   9.473   0.046  0.6490 -0.8935 -1.7355
  601MOL0     H79269   6.996   9.343  -0.020 -2.1220  0.3335  1.5957
  601MOL0     H79270   7.083   9.227   0.092  1.6604 -0.5804 -0.7310
  601MOL0     H79271   7.274   9.404   0.040 -1.8081  3.4189  1.1505
  601MOL0     H79272   7.190   9.440  -0.100 -0.8485 -0.0865  0.1677
  601MOL0     H79273   7.152   9.180  -0.151 -0.6612  3.1861 -1.6253
  601MOL0     H79274   7.269   9.153  -0.029 -0.1461 -0.1220  0.0256
  601MOL0     H79275   7.316   9.327  -0.287 -3.7099  1.0945  2.1453
  601MOL0     H79276   7.440   9.290  -0.163  1.3192 -1.2935 -0.0155
  601MOL0     H79277   7.379   9.034  -0.238 -1.3268  1.4524  1.5303
  601MOL0     H79278   7.492   9.135  -0.325  0.6795 -0.9893  1.1679
  601MOL0     H79279   7.192   9.153  -0.413 -1.4192 -2.6076  0.1282
  601MOL0     H79280   7.258   8.996  -0.432 -3.9004  0.2861 -0.8631
  601MOL0     H79281   7.405   9.240  -0.548 -0.3208  0.5208  2.4226
  601MOL0     H79282   7.433   9.060  -0.575  1.8107  2.7827 -2.7522
  601MOL0     H79283   7.322   9.207  -0.761  0.6589  0.2275  0.4933
  601MOL0     H79284   7.183   9.200  -0.655  0.1698  0.5509 -0.0487
  601MOL0     H79285   7.022   9.044  -0.809 -2.1396 -1.9245 -0.8738
  601MOL0     H79286   7.061   8.671  -0.932  2.8031  0.5558  0.9568
  601MOL0     H79287   7.011   8.822  -1.019  1.3400 -0.6145 -0.5334
  601MOL0     H79288   6.821   8.732  -0.939  1.7863 -1.5917 -1.0957
  601MOL0     H79289   6.841   8.862  -0.824  1.1251 -0.1418  0.3619
  601MOL0     H79290   6.871   8.555  -0.793 -1.4909 -2.0006  2.2137
  601MOL0     H79291   6.954   8.661  -0.678  0.2677 -0.6059 -0.3770
  601MOL0     H79292   6.691   8.774  -0.675 -2.6269 -1.9063  0.5315
  601MOL0     H79293   6.772   8.661  -0.569 -0.7988 -1.7034  0.1746
  601MOL0     H79294   6.494   8.394  -0.746 -1.0300  0.5303 -0.7308
  601MOL0     H79295   6.248   8.377  -0.669 -0.3673  0.4804  0.0367
  601MOL0     H79296   5.834   8.513  -0.771 -0.6016  1.6331 -0.9891
  601MOL0     H79297   5.606   8.514  -0.728  1.6787 -0.2638 -1.6311
  601MOL0     H79298   5.381   8.484  -0.655 -2.3821  0.7378 -0.1778
  601MOL0     H79299   5.453   8.649  -0.633  2.0762  0.7264  2.9976
  601MOL0     H79300   5.288   8.679  -0.460  3.6909  0.5994 -1.7633
  601MOL0     H79301   5.212   8.513  -0.491 -1.6819  0.3200  0.4555
  601MOL0     H79302   5.164   8.597  -0.717  1.1725  1.1903 -0.5056
  601MOL0     H79303   5.222   8.757  -0.683 -0.0515  0.3861  1.3471
  601MOL0     H79304   4.986   8.606  -0.538 -2.6332  1.2620 -2.0608
  601MOL0     H79305   5.031   8.768  -0.493  1.8370  0.0072  1.7545
  601MOL0     H79306   4.909   8.653  -0.735  2.1270 -0.0847  0.0936
  601MOL0     H79307   4.970   8.821  -0.733  0.3190  0.3963  1.1060
  601MOL0     H79308   4.828   8.878  -0.534  0.0838 -1.5002  1.6937
  601MOL0     H79309   4.734   8.739  -0.568 -1.3430  0.6702 -0.5509
  601MOL0     H79310   4.773   8.973  -0.746 -1.3722  0.2787 -3.2803
  601MOL0     H79311   4.714   8.828  -0.819  2.4108  0.7837  0.4694
  601MOL0     H79312   4.543   8.851  -0.597  1.0251 -0.5165 -0.9775
  601MOL0     H79313   4.503   8.923  -0.747  0.5348  0.1678 -0.1345
  601MOL0     H79314   5.674   8.448  -0.306  0.2888  0.9908 -0.2787
  601MOL0     H79315   5.897   8.431  -0.340 -1.9218 -1.2910  0.6272
  601MOL0     H79316   6.290   8.754  -0.483  0.1091 -0.3256 -1.2895
  601MOL0     H79317   6.530   8.765  -0.533  0.5862 -0.3625  0.3255
  601MOL0     H79318   7.002   9.337   0.405 -1.3603  1.0527  1.6438
  601MOL0     H79319   6.783   9.326   0.516 -1.9232 -0.8845 -0.4558
  601MOL0     H79320   6.449   9.392   0.654  1.7561 -0.8502 -1.3439
  601MOL0     H79321   6.284   9.355   0.816 -1.7672 -0.3476 -0.7473
  601MOL0     H79322   5.981   9.371   0.798 -1.4367 -0.6263  0.9853
  601MOL0     H79323   6.051   9.298   0.936  1.1896 -0.6361 -0.9178
  601MOL0     H79324   5.818   9.151   0.823  1.3277 -0.3055 -0.4467
  601MOL0     H79325   5.894   9.146   0.979 -2.0641  0.8514  0.8421
  601MOL0     H79326   5.675   9.276   0.946  0.5308 -0.0515 -4.8639
  601MOL0     H79327   5.774   9.412   0.905  0.3660 -0.5646 -1.6842
  601MOL0     H79328   5.907   9.333   1.132 -0.8691 -0.2892  0.8463
  601MOL0     H79329   5.800   9.457   1.131  1.7035  0.0006 -0.7470
  601MOL0     H79330   5.585   9.128   1.302  0.4756  1.2551  1.6468
  601MOL0     H79331   6.068   9.101   0.529  2.1372 -2.3959 -1.6785
  601MOL0     H79332   6.235   9.157   0.358  4.3455 -2.9341  1.0164
  602MOL0     O79333   9.890  10.107   0.010  0.0937  0.2675 -0.4264
  602MOL0     C79334   9.951  10.166  -0.079 -0.0101  0.5609 -0.0994
  602MOL0     O79335   9.890  10.270  -0.157 -0.0848 -0.0133 -0.5816
  602MOL0     C79336   9.762  10.303  -0.118  0.2764 -0.2259  0.1269
  602MOL0     C79337   9.753  10.413  -0.023  0.6466 -1.0126  0.6006
  602MOL0     C79338   9.625  10.450   0.014  0.5803 -0.0535  0.8764
  602MOL0     C79339   9.511  10.374  -0.018 -0.3748  0.0042  1.4659
  602MOL0     O79340   9.384  10.397   0.026  0.6411 -0.2165 -0.2540
  602MOL0     C79341   9.364  10.493   0.137 -0.0618  0.2561 -0.7705
  602MOL0     C79342   9.218  10.484   0.166  0.5514 -0.6464 -0.2890
  602MOL0     C79343   9.131  10.556   0.063 -0.3830  0.8900  0.5160
  602MOL0     C79344   8.996  10.556   0.121  0.1559 -0.5906  0.3524
  602MOL0     C79345   8.886  10.617   0.025  0.5388  1.0351 -0.2944
  602MOL0     C79346   8.745  10.612   0.076  0.1094 -0.0678  0.4954
  602MOL0     C79347   8.642  10.687  -0.002  0.0354 -0.8826  0.8162
  602MOL0     C79348   8.645  10.667  -0.150  0.2804  0.6761  0.5002
  602MOL0     N79349   8.531  10.744  -0.218  0.6225  0.3345 -0.6778
  602MOL0     C79350   8.514  10.879  -0.209  0.8042 -0.7302  0.1606
  602MOL0     C79351   8.392  10.908  -0.263 -0.0096  0.6081  0.2300
  602MOL0     C79352   8.327  11.040  -0.289  0.7064 -0.0374 -0.4502
  602MOL0     C79353   8.183  11.029  -0.346  0.3121  0.8150  0.1653
  602MOL0     C79354   8.098  11.157  -0.339 -0.6814  0.1213  0.6727
  602MOL0     C79355   7.968  11.128  -0.426 -0.2871  0.1738 -0.4458
  602MOL0     O79356   7.906  11.014  -0.387  0.4729 -0.0650  0.5250
  602MOL0     C79357   7.766  11.022  -0.410  0.0962  0.7161  0.4850
  602MOL0     C79358   7.707  11.109  -0.501 -0.4742  0.4102  0.6785
  602MOL0     C79359   7.571  11.114  -0.525 -0.0131  0.8860  0.1005
  602MOL0     C79360   7.486  11.024  -0.461  0.3615  0.5682 -0.0670
  602MOL0     C79361   7.341  11.042  -0.485 -0.5027  0.4228 -0.4060
  602MOL0     O79362   7.290  11.149  -0.559 -0.4687  0.2955  0.2692
  602MOL0     C79363   7.157  11.156  -0.566 -0.2114  0.7310  0.9496
  602MOL0     C79364   7.088  11.224  -0.466  0.5287  0.8464 -0.3877
  602MOL0     C79365   6.948  11.235  -0.472  0.1076 -0.3813 -0.9810
  602MOL0     C79366   6.875  11.186  -0.581  0.4479  0.1182  0.5230
  602MOL0     O79367   6.744  11.201  -0.610  0.2235 -0.2678  0.3556
  602MOL0     C79368   6.683  11.310  -0.537  0.5004 -0.4738  0.3312
  602MOL0     C79369   6.537  11.319  -0.581  0.8892  0.1470  0.1529
  602MOL0     C79370   6.444  11.196  -0.544  0.0001  0.0441 -0.3398
  602MOL0     C79371   6.302  11.234  -0.587  0.0667  0.1129 -0.1085
  602MOL0     C79372   6.199  11.122  -0.533 -0.8695  0.4366  0.6619
  602MOL0     C79373   6.064  11.160  -0.583 -0.4475 -0.4282 -0.1499
  602MOL0     C79374   5.944  11.071  -0.536 -0.1335  0.3670 -0.7228
  602MOL0     C79375   5.930  10.942  -0.628 -0.2994 -0.5881  0.6822
  602MOL0    Cl79376   6.003  10.806  -0.548 -0.5316  0.2212  0.2279
  602MOL0     C79377   6.949  11.114  -0.678  0.1289 -0.4095 -0.5356
  602MOL0     C79378   7.089  11.097  -0.674 -0.4715 -0.0861 -0.4313
  602MOL0     O79379   7.274  10.947  -0.447  0.1160 -0.3866  0.4302
  602MOL0     C79380   7.540  10.930  -0.373 -0.8575 -0.3366 -0.7291
  602MOL0     C79381   7.677  10.934  -0.349  0.8869  0.6348  0.3076
  602MOL0     N79382   8.339  10.783  -0.293 -0.4439 -0.2596  0.2703
  602MOL0     N79383   8.412  10.690  -0.265  0.0250 -1.1104  0.4180
  602MOL0     C79384   9.529  10.254  -0.105  0.6063 -1.1946  1.2802
  602MOL0     C79385   9.656  10.221  -0.148 -0.3820 -0.3772  0.3844
  602MOL0     C79386  10.092  10.143  -0.098  0.2463  0.4756 -0.2918
  602MOL0     C79387  10.157  10.038  -0.025 -0.5750 -0.5880 -0.2176
  602MOL0     C79388  10.283  10.006  -0.057  0.4658 -0.4511  0.2844
  602MOL0     C79389  10.354  10.087  -0.152  0.3038 -0.3556  0.2855
  602MOL0     O79390  10.488  10.068  -0.187  0.2952 -0.0385 -0.2139
  602MOL0     C79391  10.547   9.943  -0.142  0.3445  0.5960  0.0016
  602MOL0     C79392  10.687   9.923  -0.197  0.2226  0.8453  0.5033
  602MOL0     C79393  10.783  10.028  -0.151  0.2591  0.6156  0.1893
  602MOL0     C79394  10.928   9.987  -0.186 -0.6790 -0.4446  0.4256
  602MOL0     C79395  11.012  10.103  -0.226 -0.1085  0.3331  0.4115
  602MOL0     C79396  11.077  10.201  -0.262  0.4105  0.3998 -0.8912
  602MOL0     C79397  10.291  10.187  -0.223  0.2900 -0.9006 -0.4201
  602MOL0     C79398  10.159  10.213  -0.201 -0.1403 -0.2150  0.9465
  602MOL0     H79399   9.845  10.465   0.001  2.9396 -2.8611 -3.1776
  602MOL0     H79400   9.609  10.529   0.087 -0.7487  1.2909 -0.7910
  602MOL0     H79401   9.410  10.592   0.128  1.4111 -0.2332  0.9555
  602MOL0     H79402   9.414  10.450   0.224 -2.3124 -2.4564 -0.7009
  602MOL0     H79403   9.197  10.536   0.260 -2.7999  0.5650 -1.5804
  602MOL0     H79404   9.193  10.378   0.173  0.1868 -0.9833 -4.1806
  602MOL0     H79405   9.139  10.492  -0.025 -0.7939 -0.0205  1.1227
  602MOL0     H79406   9.185  10.644   0.028  2.4663 -1.8238 -2.6278
  602MOL0     H79407   8.965  10.452   0.139  1.7393 -0.9608  1.1121
  602MOL0     H79408   8.994  10.620   0.209  2.7560 -0.0076  0.0660
  602MOL0     H79409   8.873  10.554  -0.063  0.7505 -1.5238  1.4194
  602MOL0     H79410   8.903  10.720  -0.008 -0.2637  1.5871  0.9324
  602MOL0     H79411   8.735  10.635   0.182 -3.5670 -0.4334  0.3665
  602MOL0     H79412   8.717  10.506   0.079 -1.3671  0.3021  0.8384
  602MOL0     H79413   8.539  10.669   0.029  0.2642 -0.1202  2.0914
  602MOL0     H79414   8.661  10.795   0.010  1.3092 -0.9157 -0.6373
  602MOL0     H79415   8.626  10.563  -0.176 -0.3477  1.3578 -2.0649
  602MOL0     H79416   8.737  10.701  -0.198  0.6631 -1.8732 -0.7186
  602MOL0     H79417   8.599  10.943  -0.189  0.5921 -0.9535  1.8721
  602MOL0     H79418   8.389  11.095  -0.360  0.3801  2.4175  1.0416
  602MOL0     H79419   8.303  11.086  -0.192 -0.1970  1.4279 -1.3392
  602MOL0     H79420   8.128  10.950  -0.293 -0.7136  0.0257 -1.9375
  602MOL0     H79421   8.190  10.986  -0.447 -2.6554  0.7018 -0.1045
  602MOL0     H79422   8.076  11.186  -0.236 -2.5020  2.0683 -0.1722
  602MOL0     H79423   8.160  11.235  -0.385 -0.3407 -0.6295 -0.1777
  602MOL0     H79424   7.995  11.126  -0.532 -1.0911 -3.2696 -0.6838
  602MOL0     H79425   7.905  11.215  -0.406 -2.5449 -1.7225  1.1695
  602MOL0     H79426   7.766  11.172  -0.566 -4.5435  2.7809 -1.0985
  602MOL0     H79427   7.535  11.198  -0.584  1.3385  3.0688  2.1926
  602MOL0     H79428   7.140  11.272  -0.384  0.7125 -0.2054  0.1308
  602MOL0     H79429   6.903  11.310  -0.408 -0.7424  0.8491 -2.9498
  602MOL0     H79430   6.734  11.405  -0.555  1.1034 -0.8900 -0.1967
  602MOL0     H79431   6.682  11.280  -0.431 -2.7113  0.7497  0.7531
  602MOL0     H79432   6.535  11.325  -0.690  4.1585 -0.3971 -0.0555
  602MOL0     H79433   6.493  11.411  -0.543 -0.4968 -0.8407  1.0052
  602MOL0     H79434   6.460  11.168  -0.440  1.5084 -1.2262 -0.8683
  602MOL0     H79435   6.467  11.105  -0.601  2.9239  1.6174 -1.9363
  602MOL0     H79436   6.263  11.324  -0.538  1.4558 -0.3293  1.9457
  602MOL0     H79437   6.305  11.237  -0.696 -2.5016 -3.4426 -0.4525
  602MOL0     H79438   6.200  11.127  -0.424 -1.8350  1.1694  0.6435
  602MOL0     H79439   6.230  11.025  -0.574 -1.3246  0.5722 -0.0253
  602MOL0     H79440   6.066  11.162  -0.692  1.8961 -0.7312 -0.1683
  602MOL0     H79441   6.043  11.264  -0.555 -1.0479 -0.9329  1.3962
  602MOL0     H79442   5.961  11.052  -0.429  0.1503 -2.5490 -1.2197
  602MOL0     H79443   5.855  11.134  -0.550  0.6729  1.5492 -0.7083
  602MOL0     H79444   5.967  10.964  -0.729 -0.8550 -2.0606  0.1365
  602MOL0     H79445   5.823  10.922  -0.642  0.1490 -0.8210 -4.9208
  602MOL0     H79446   6.894  11.073  -0.763 -0.1573  0.4005 -0.7484
  602MOL0     H79447   7.154  11.042  -0.742  2.1766  0.5160  1.4519
  602MOL0     H79448   7.476  10.854  -0.330  1.3028 -3.4988 -2.6693
  602MOL0     H79449   7.725  10.853  -0.294  1.2290  0.8927  0.3906
  602MOL0     H79450   9.446  10.188  -0.130  1.7128 -1.7977 -1.1006
  602MOL0     H79451   9.672  10.130  -0.205 -0.0301 -0.1311  0.0828
  602MOL0     H79452  10.102   9.977   0.045  0.6842 -1.2684  0.2145
  602MOL0     H79453  10.337   9.927  -0.007  0.8818 -0.0055  0.5556
  602MOL0     H79454  10.489   9.860  -0.185  0.4650  0.0943  0.7912
  602MOL0     H79455  10.542   9.932  -0.033 -2.6979  2.8401  0.2430
  602MOL0     H79456  10.721   9.823  -0.171  1.2548 -0.2889 -4.2286
  602MOL0     H79457  10.683   9.938  -0.306  1.2958  0.4377  0.3982
  602MOL0     H79458  10.766  10.023  -0.043 -0.9349 -0.8102 -0.0413
  602MOL0     H79459  10.756  10.127  -0.191  4.0321  1.5179 -0.4759
  602MOL0     H79460  10.962   9.930  -0.099 -2.0718 -0.8106  0.7583
  602MOL0     H79461  10.937   9.922  -0.273  1.4680  0.0127  0.2481
  602MOL0     H79462  11.136  10.289  -0.275  2.2003 -0.7947 -1.1828
  602MOL0     H79463  10.347  10.232  -0.303 -0.7864 -2.2034 -1.9803
  602MOL0     H79464  10.103  10.272  -0.274  0.1721 -0.9391  0.0940
  603MOL0     O79465   7.757   8.171   2.018  0.0707  0.6012 -0.3380
  603MOL0     C79466   7.802   8.104   1.924  0.2168  0.8713 -0.3613
  603MOL0     O79467   7.741   7.989   1.877  0.4956 -0.1310 -0.2626
  603MOL0     C79468   7.612   7.964   1.908 -0.3612  0.4202 -1.0419
  603MOL0     C79469   7.575   7.835   1.953 -0.7083 -0.2228 -0.3483
  603MOL0     C79470   7.443   7.792   1.959  1.4770 -0.1480  0.2267
  603MOL0     C79471   7.339   7.879   1.924 -0.0648  0.0318  0.6513
  603MOL0     O79472   7.209   7.826   1.928  0.3611  0.2037 -0.0170
  603MOL0     C79473   7.111   7.889   1.854  0.6005 -1.3176  0.4741
  603MOL0     C79474   6.990   7.798   1.835  0.4891 -0.1805  0.9332
  603MOL0     C79475   6.906   7.768   1.957  0.1847  0.9825 -0.3309
  603MOL0     C79476   6.776   7.692   1.914  0.4640 -0.4906 -0.0417
  603MOL0     C79477   6.694   7.646   2.038 -0.7350  1.0585  0.3552
  603MOL0     C79478   6.603   7.748   2.097 -0.3356  0.5147 -1.2275
  603MOL0     C79479   6.485   7.799   2.011  0.9465 -0.0949 -1.2897
  603MOL0     C79480   6.431   7.930   2.071 -0.7632  0.4672 -0.4991
  603MOL0     N79481   6.306   7.984   2.007  0.1254  0.6855  0.2676
  603MOL0     C79482   6.178   7.952   2.046 -1.0797  0.5604  0.0644
  603MOL0     C79483   6.098   8.015   1.962  0.3801  0.1671  0.8401
  603MOL0     C79484   5.953   8.005   1.945  0.2992 -0.4704 -0.5728
  603MOL0     C79485   5.902   7.979   1.800  0.0846  0.4177 -0.7296
  603MOL0     C79486   5.750   7.980   1.794 -0.6077  0.1716  0.4469
  603MOL0     C79487   5.710   7.926   1.651  0.7173  0.2401 -0.1352
  603MOL0     O79488   5.566   7.913   1.647 -0.7424 -0.1306 -0.4338
  603MOL0     C79489   5.508   7.796   1.678  1.0415  0.6496  1.3577
  603MOL0     C79490   5.554   7.688   1.749 -1.0010 -0.3432 -0.5088
  603MOL0     C79491   5.466   7.580   1.772 -0.4336  0.0724 -0.2913
  603MOL0     C79492   5.333   7.575   1.735  0.0240  0.8795 -0.2199
  603MOL0     C79493   5.252   7.458   1.766  0.7840  0.0706  1.0256
  603MOL0     O79494   5.309   7.347   1.828 -0.5794  0.0619 -0.1297
  603MOL0     C79495   5.221   7.261   1.890 -0.0378 -0.3409  0.1434
  603MOL0     C79496   5.105   7.299   1.966 -0.6197  0.7115 -0.2748
  603MOL0     C79497   5.023   7.198   2.025 -0.2771 -0.3028  0.1428
  603MOL0     C79498   5.068   7.064   2.030 -0.5487  0.1133  0.1610
  603MOL0     O79499   4.999   6.965   2.084  0.1673  0.1632  0.2999
  603MOL0     C79500   5.018   6.935   2.221  0.0138  0.4981 -0.1076
  603MOL0     C79501   4.976   6.790   2.228 -0.1677  0.4889  0.3546
  603MOL0     C79502   5.069   6.700   2.144  0.5209  0.5928 -0.8110
  603MOL0     C79503   5.037   6.550   2.165  0.2688 -1.6362  0.4940
  603MOL0     C79504   4.900   6.511   2.089 -1.3433 -0.3145  0.1273
  603MOL0     C79505   4.889   6.360   2.094  0.3480 -0.2087  0.3715
  603MOL0     C79506   4.764   6.320   2.003 -0.2918  0.1636  0.4667
  603MOL0     C79507   4.633   6.311   2.080 -0.3176 -0.1241 -0.2121
  603MOL0    Cl79508   4.496   6.241   1.983 -0.0419 -0.2558  0.5251
  603MOL0     C79509   5.172   7.028   1.943 -0.3747 -0.0992 -0.9720
  603MOL0     C79510   5.248   7.127   1.883  0.0151  0.7696  0.3869
  603MOL0     O79511   5.134   7.470   1.736  0.5274 -0.0838 -0.3819
  603MOL0     C79512   5.287   7.673   1.654 -0.2182 -0.0007  0.3192
  603MOL0     C79513   5.375   7.782   1.626  0.1906 -0.1099 -0.5966
  603MOL0     N79514   6.176   8.100   1.881 -0.4127 -0.3397 -0.0072
  603MOL0     N79515   6.302   8.077   1.913  0.3966  0.8130 -0.4978
  603MOL0     C79516   7.371   8.010   1.887 -0.9933  0.1539  0.7865
  603MOL0     C79517   7.510   8.051   1.880 -0.6045 -0.1478  0.9244
  603MOL0     C79518   7.923   8.144   1.863 -0.5531 -0.3845  0.0481
  603MOL0     C79519   7.971   8.275   1.865 -0.4065  0.0070  0.1852
  603MOL0     C79520   8.088   8.307   1.790 -0.3857  0.0570 -0.4984
  603MOL0     C79521   8.157   8.209   1.718  0.1029 -0.1587 -0.1217
  603MOL0     O79522   8.272   8.227   1.652 -0.0083 -0.2735  0.9561
  603MOL0     C79523   8.331   8.357   1.650 -0.8603 -0.3665 -0.3312
  603MOL0     C79524   8.410   8.374   1.775 -0.4297  0.2106  0.1149
  603MOL0     C79525   8.515   8.485   1.771  0.6227  0.0464 -0.7877
  603MOL0     C79526   8.645   8.426   1.712  0.6179  0.1866 -0.1768
  603MOL0     C79527   8.660   8.493   1.582  0.1159 -0.2737 -0.7402
  603MOL0     C79528   8.674   8.556   1.484  0.0334 -0.1275  0.4412
  603MOL0     C79529   8.115   8.077   1.731  0.2728 -0.3975  0.4178
  603MOL0     C79530   7.999   8.043   1.806 -1.0542  0.1171 -0.8048
  603MOL0     H79531   7.658   7.767   1.969  0.8718  1.6161 -0.3740
  603MOL0     H79532   7.419   7.693   1.998 -0.4790  0.3092  0.3102
  603MOL0     H79533   7.155   7.916   1.758  0.0251 -2.6121 -0.1800
  603MOL0     H79534   7.079   7.983   1.900  0.1280 -0.5120 -1.4146
  603MOL0     H79535   7.023   7.703   1.791 -3.9433 -1.5054 -0.0532
  603MOL0     H79536   6.927   7.848   1.760 -1.7487  1.1042  3.4674
  603MOL0     H79537   6.886   7.864   2.005  2.1252  0.8795  0.7817
  603MOL0     H79538   6.962   7.700   2.021 -1.1053  0.1329 -0.0828
  603MOL0     H79539   6.719   7.761   1.851  0.9445 -1.8490 -2.0521
  603MOL0     H79540   6.798   7.605   1.852 -1.6236 -1.0601 -0.0742
  603MOL0     H79541   6.757   7.613   2.121  0.1116  3.1935  0.6168
  603MOL0     H79542   6.628   7.560   2.021  0.1138  0.8015 -2.0333
  603MOL0     H79543   6.667   7.829   2.133  2.1360 -3.0045  3.3512
  603MOL0     H79544   6.560   7.702   2.186  1.5223  1.0876  0.0150
  603MOL0     H79545   6.523   7.823   1.911  1.4533 -1.5157 -1.4634
  603MOL0     H79546   6.402   7.728   2.009  1.6189 -0.9028 -1.0618
  603MOL0     H79547   6.513   8.003   2.069 -1.2680  1.0997  0.5504
  603MOL0     H79548   6.421   7.909   2.178  1.1387  0.8910 -0.1892
  603MOL0     H79549   6.153   7.877   2.121  0.0709 -1.4136 -1.4331
  603MOL0     H79550   5.918   8.106   1.970  1.3007 -0.2112 -0.2006
  603MOL0     H79551   5.898   7.946   2.020 -1.3766  1.8806  0.1872
  603MOL0     H79552   5.942   7.884   1.764 -1.1118  0.8443 -3.4521
  603MOL0     H79553   5.930   8.056   1.727 -1.2993  1.7407  0.0680
  603MOL0     H79554   5.710   7.910   1.868  0.0202  2.4230  3.0821
  603MOL0     H79555   5.709   8.080   1.812 -1.6262 -0.2029  0.3136
  603MOL0     H79556   5.758   7.830   1.628 -1.5304 -0.5129 -2.0049
  603MOL0     H79557   5.738   8.002   1.577  1.3709 -1.0515 -1.2528
  603MOL0     H79558   5.648   7.700   1.802 -1.6820  2.3086  0.2218
  603MOL0     H79559   5.514   7.502   1.830  1.3793  1.1152 -0.3045
  603MOL0     H79560   5.093   7.404   1.988  0.4386  1.3629 -2.5586
  603MOL0     H79561   4.929   7.241   2.057  0.3037  2.1267 -1.1811
  603MOL0     H79562   4.967   7.004   2.288 -0.4473 -0.1049  0.1713
  603MOL0     H79563   5.122   6.940   2.254  0.2921 -0.2279 -0.8111
  603MOL0     H79564   4.870   6.774   2.204 -0.0327 -2.0454  1.1429
  603MOL0     H79565   4.981   6.768   2.335 -1.3528  3.0388  1.0139
  603MOL0     H79566   5.170   6.718   2.181  0.7472 -1.9895 -0.0120
  603MOL0     H79567   5.068   6.720   2.036  0.6274 -0.0026 -0.9235
  603MOL0     H79568   5.118   6.483   2.133  1.1999 -0.7546  0.9757
  603MOL0     H79569   5.012   6.527   2.269 -2.4478 -5.0211 -0.7049
  603MOL0     H79570   4.891   6.546   1.985 -1.5763 -3.8049 -1.1849
  603MOL0     H79571   4.815   6.548   2.145  0.2669  1.0159  1.8082
  603MOL0     H79572   4.883   6.323   2.196  1.6106 -1.0464  0.1644
  603MOL0     H79573   4.984   6.324   2.054  1.1342  1.0452  1.0390
  603MOL0     H79574   4.751   6.389   1.919 -1.8700  0.2993  0.7952
  603MOL0     H79575   4.797   6.224   1.962  2.0456  1.3531 -0.6798
  603MOL0     H79576   4.597   6.407   2.117 -2.4006 -1.6204  2.0028
  603MOL0     H79577   4.647   6.249   2.170 -0.4866  0.4331  0.2017
  603MOL0     H79578   5.199   6.923   1.930 -1.1180 -0.9053  2.8420
  603MOL0     H79579   5.330   7.094   1.820 -0.0094  0.3554  0.5683
  603MOL0     H79580   5.188   7.664   1.610  0.5791 -0.9698 -1.3476
  603MOL0     H79581   5.340   7.873   1.577 -0.9746 -0.4940 -0.5210
  603MOL0     H79582   7.292   8.083   1.866 -0.8097 -0.0561 -0.7631
  603MOL0     H79583   7.532   8.149   1.839  2.6121 -0.5023  1.5355
  603MOL0     H79584   7.912   8.360   1.898  0.2350  1.2342 -1.6762
  603MOL0     H79585   8.111   8.413   1.786  0.1083  0.0265  0.9803
  603MOL0     H79586   8.257   8.437   1.647 -0.3998  0.2306  2.1529
  603MOL0     H79587   8.392   8.366   1.559 -0.5362  0.7797 -0.0151
  603MOL0     H79588   8.343   8.394   1.859  0.4082  0.3232  0.7742
  603MOL0     H79589   8.476   8.290   1.797  1.2790  1.2610 -0.8396
  603MOL0     H79590   8.537   8.514   1.874 -0.0744  1.4249 -0.9943
  603MOL0     H79591   8.481   8.581   1.731 -0.5560 -0.2592 -0.5724
  603MOL0     H79592   8.718   8.458   1.788  1.5796  0.2396 -1.0969
  603MOL0     H79593   8.656   8.317   1.703  1.0922  0.2730 -0.7257
  603MOL0     H79594   8.691   8.628   1.407  0.2528  1.3891  1.8349
  603MOL0     H79595   8.170   7.990   1.696  3.0425  1.0494  0.9457
  603MOL0     H79596   7.986   7.936   1.821  2.9575 -0.3909  0.4071
  604MOL0     O79597   6.047   2.716  10.631 -0.3362 -0.1945  0.5364
  604MOL0     C79598   6.038   2.798  10.724 -0.2495 -0.2129  0.0739
  604MOL0     O79599   5.935   2.883  10.741  0.4087 -0.8265  0.2753
  604MOL0     C79600   5.834   2.899  10.638 -0.6670 -0.6438 -0.2462
  604MOL0     C79601   5.755   2.794  10.597  0.8031 -0.0458 -0.3027
  604MOL0     C79602   5.654   2.815  10.499  0.3087 -0.8241 -0.1409
  604MOL0     C79603   5.629   2.940  10.446 -0.5426 -0.1996  0.5896
  604MOL0     O79604   5.528   2.970  10.354 -0.2311 -0.3672 -0.0902
  604MOL0     C79605   5.398   2.921  10.392 -0.5364 -0.7146 -0.0438
  604MOL0     C79606   5.298   3.023  10.355  0.6784  0.2761 -0.5352
  604MOL0     C79607   5.170   2.997  10.437 -0.5207  0.6351 -0.3954
  604MOL0     C79608   5.059   3.106  10.408 -0.6113 -0.6886  0.0111
  604MOL0     C79609   4.930   3.074  10.493 -0.0515  0.2381 -0.5502
  604MOL0     C79610   4.833   3.195  10.474 -0.3718 -0.0502 -0.5320
  604MOL0     C79611   4.712   3.171  10.560  0.1752 -0.2713 -0.0482
  604MOL0     C79612   4.608   3.077  10.498  0.2745 -0.1094 -0.5950
  604MOL0     N79613   4.495   3.039  10.593  0.0014 -0.2074 -0.3003
  604MOL0     C79614   4.363   3.073  10.579  0.5459  1.5765  0.4549
  604MOL0     C79615   4.301   2.992  10.664  0.0848  0.1229  0.0700
  604MOL0     C79616   4.157   3.000  10.704  0.6861 -0.3071  0.1598
  604MOL0     C79617   4.064   2.926  10.609  0.4237  0.6463  0.2906
  604MOL0     C79618   4.090   2.771  10.608  0.1741 -0.6643  0.0160
  604MOL0     C79619   3.966   2.694  10.567 -0.0960  0.4374 -0.0026
  604MOL0     O79620   3.930   2.721  10.432  0.7332 -0.0783  0.6529
  604MOL0     C79621   3.824   2.657  10.374 -0.3373  0.1746 -0.3583
  604MOL0     C79622   3.812   2.673  10.242 -0.2954  0.8814  1.4462
  604MOL0     C79623   3.712   2.609  10.167  0.0208  0.1774  0.4859
  604MOL0     C79624   3.623   2.519  10.229  0.1330 -1.0163 -0.0627
  604MOL0     C79625   3.520   2.449  10.152  0.3221  0.0667  0.6111
  604MOL0     O79626   3.440   2.366  10.220  0.0512  0.0961 -0.0489
  604MOL0     C79627   3.321   2.325  10.172 -1.4059 -0.8787 -0.7452
  604MOL0     C79628   3.289   2.295  10.041 -0.1846  0.1293 -0.2384
  604MOL0     C79629   3.166   2.258   9.995 -0.1226 -0.0728 -0.5831
  604MOL0     C79630   3.063   2.232  10.090 -0.0546  0.1154  0.1504
  604MOL0     O79631   2.935   2.181  10.045 -0.1824  0.2927  0.1331
  604MOL0     C79632   2.822   2.238  10.112  0.5021 -0.1323 -0.1680
  604MOL0     C79633   2.694   2.191  10.046 -0.0020  0.4024  0.4518
  604MOL0     C79634   2.667   2.039  10.054 -0.3841  0.4533 -0.4850
  604MOL0     C79635   2.576   1.991   9.938 -0.1006  0.0822  0.3305
  604MOL0     C79636   2.595   1.840   9.922 -0.6974  0.7291 -0.9555
  604MOL0     C79637   2.577   1.759  10.052  0.0887  0.0231 -0.1662
  604MOL0     C79638   2.612   1.605  10.045 -0.3353  0.1867 -0.1086
  604MOL0     C79639   2.522   1.522  10.134 -0.3224 -0.1391  0.0261
  604MOL0    Cl79640   2.391   1.449  10.033 -0.0952  0.2189 -0.2584
  604MOL0     C79641   3.088   2.261  10.227 -0.4576  0.1163  1.0820
  604MOL0     C79642   3.216   2.307  10.261 -0.9421  0.6109 -0.4258
  604MOL0     O79643   3.500   2.481  10.033 -0.3565  0.1782 -0.1173
  604MOL0     C79644   3.633   2.505  10.365  1.2186 -0.7609 -0.6541
  604MOL0     C79645   3.733   2.570  10.436 -1.3419  0.1983  0.3485
  604MOL0     N79646   4.388   2.902  10.723  0.8194 -0.6249 -0.3383
  604MOL0     N79647   4.503   2.935  10.679  0.5699  0.2015 -0.4318
  604MOL0     C79648   5.701   3.045  10.500 -0.0857  0.0996 -0.2405
  604MOL0     C79649   5.809   3.020  10.586  0.3162  0.4696 -0.2692
  604MOL0     C79650   6.130   2.777  10.836 -0.2163 -0.7437 -0.2423
  604MOL0     C79651   6.113   2.852  10.959  0.3822 -0.5743 -0.7547
  604MOL0     C79652   6.194   2.838  11.068 -0.2994  0.1807  0.4781
  604MOL0     C79653   6.307   2.751  11.058 -0.1405  0.4913 -0.2781
  604MOL0     O79654   6.397   2.715  11.154  0.5624  0.1736 -0.1988
  604MOL0     C79655   6.393   2.791  11.282 -0.0433 -0.5388 -1.1365
  604MOL0     C79656   6.462   2.700  11.384 -0.1639  0.3968 -0.8387
  604MOL0     C79657   6.588   2.621  11.324  0.4211  0.3293 -0.1519
  604MOL0     C79658   6.698   2.684  11.226 -0.2301 -0.4130 -0.2739
  604MOL0     C79659   6.782   2.772  11.309  1.3919  0.7997  0.1187
  604MOL0     C79660   6.864   2.835  11.376 -0.3664 -0.6029 -0.1289
  604MOL0     C79661   6.313   2.671  10.944 -0.4671  0.1487  0.3163
  604MOL0     C79662   6.224   2.680  10.838 -0.4691  0.2549  0.0704
  604MOL0     H79663   5.772   2.691  10.626 -1.0982 -0.0413  0.9731
  604MOL0     H79664   5.586   2.739  10.463 -1.7938  0.6371  0.5746
  604MOL0     H79665   5.389   2.899  10.499  1.1287  0.8010  0.4784
  604MOL0     H79666   5.379   2.829  10.337 -0.1301 -0.4301 -0.6784
  604MOL0     H79667   5.292   3.030  10.246 -0.0184  1.2683 -0.4429
  604MOL0     H79668   5.339   3.117  10.391 -1.3593 -0.0761  3.0668
  604MOL0     H79669   5.191   2.996  10.544  1.5961  2.7116 -0.7062
  604MOL0     H79670   5.127   2.900  10.412 -0.4879  0.3263  0.7272
  604MOL0     H79671   5.094   3.208  10.426 -0.0329 -1.0370  0.9358
  604MOL0     H79672   5.037   3.100  10.301 -0.3617  0.6352 -0.1303
  604MOL0     H79673   4.953   3.065  10.599  2.1325 -0.6094 -1.0490
  604MOL0     H79674   4.884   2.983  10.454  0.8524  0.1901 -1.5375
  604MOL0     H79675   4.811   3.220  10.370  1.1958  0.7204 -0.7200
  604MOL0     H79676   4.883   3.287  10.507 -1.6518  1.4090 -2.4445
  604MOL0     H79677   4.731   3.131  10.660 -1.7769 -0.2338  0.3782
  604MOL0     H79678   4.666   3.269  10.573  3.3990  1.5343 -1.1298
  604MOL0     H79679   4.666   2.985  10.482  1.2862 -0.1169  2.4472
  604MOL0     H79680   4.562   3.121  10.409 -2.1130  1.2045  1.1635
  604MOL0     H79681   4.320   3.159  10.529  1.3442  0.7357 -1.7558
  604MOL0     H79682   4.126   3.105  10.698  0.6668 -0.4136 -2.5054
  604MOL0     H79683   4.149   2.974  10.810 -0.5716  0.0639  0.1719
  604MOL0     H79684   4.085   2.961  10.508  0.8622 -0.8774 -0.1687
  604MOL0     H79685   3.961   2.952  10.637  0.4038  2.0765 -1.0143
  604MOL0     H79686   4.162   2.741  10.531  3.1607  0.2340  2.2642
  604MOL0     H79687   4.127   2.746  10.708 -0.3070  1.3896  0.7527
  604MOL0     H79688   3.891   2.718  10.644  0.3357  0.1531  0.5165
  604MOL0     H79689   3.996   2.590  10.580 -1.7668 -0.1552 -0.6341
  604MOL0     H79690   3.880   2.739  10.189  0.0709  1.9243  3.1715
  604MOL0     H79691   3.705   2.625  10.060 -0.1407 -2.0824  0.0934
  604MOL0     H79692   3.374   2.275   9.975 -1.0754 -3.6772 -0.4390
  604MOL0     H79693   3.153   2.217   9.895  1.9085 -0.5066 -0.6973
  604MOL0     H79694   2.826   2.346  10.100  1.0370  0.0248  1.2573
  604MOL0     H79695   2.809   2.233  10.220 -1.4841  0.1449 -0.3584
  604MOL0     H79696   2.681   2.233   9.946  1.8679  1.0555  0.4309
  604MOL0     H79697   2.616   2.248  10.096  1.3949 -0.1324  3.4447
  604MOL0     H79698   2.621   2.013  10.150 -0.7699  0.7890 -0.5755
  604MOL0     H79699   2.762   1.985  10.050 -1.4741 -1.4823 -2.0553
  604MOL0     H79700   2.473   2.023   9.957 -0.0470  0.7179 -0.4090
  604MOL0     H79701   2.620   2.041   9.851  0.3976 -2.6344 -1.0650
  604MOL0     H79702   2.695   1.821   9.884 -0.6032 -1.9594  0.4111
  604MOL0     H79703   2.512   1.812   9.857 -0.8888  0.9685 -0.8161
  604MOL0     H79704   2.471   1.758  10.081 -0.7514 -3.1207 -2.7488
  604MOL0     H79705   2.643   1.802  10.128 -0.2908  0.0226  0.1711
  604MOL0     H79706   2.593   1.576   9.941  1.3048  0.4684 -0.5084
  604MOL0     H79707   2.717   1.582  10.064  0.2294  1.8937 -0.9767
  604MOL0     H79708   2.469   1.585  10.206  0.1003  0.1934  0.0526
  604MOL0     H79709   2.579   1.441  10.182  1.7629  0.2243 -1.6610
  604MOL0     H79710   3.013   2.258  10.305  0.2533 -3.0387  1.7796
  604MOL0     H79711   3.237   2.326  10.366  0.1601 -1.9124 -0.1195
  604MOL0     H79712   3.561   2.445  10.420  1.6834  0.7326  1.7371
  604MOL0     H79713   3.744   2.530  10.537 -1.1415 -2.8415 -0.7677
  604MOL0     H79714   5.672   3.148  10.481  0.9144  0.2500 -1.0245
  604MOL0     H79715   5.876   3.101  10.616 -1.0554  1.8499 -0.8150
  604MOL0     H79716   6.028   2.918  10.950 -1.0232 -2.5362 -3.0680
  604MOL0     H79717   6.166   2.887  11.162 -1.8717  0.6548 -0.2050
  604MOL0     H79718   6.295   2.816  11.324  0.8557 -1.0062  1.4297
  604MOL0     H79719   6.456   2.880  11.273  1.5299 -1.3641  0.8263
  604MOL0     H79720   6.495   2.759  11.470  0.0469 -0.8372 -0.0502
  604MOL0     H79721   6.389   2.626  11.417  0.3582  0.6954  1.0724
  604MOL0     H79722   6.531   2.545  11.269 -1.4974  1.5020  0.1250
  604MOL0     H79723   6.637   2.563  11.403  1.7488  0.9255 -0.5074
  604MOL0     H79724   6.764   2.603  11.194  0.0520 -0.2783 -0.0429
  604MOL0     H79725   6.652   2.730  11.138 -2.0547 -0.1235  0.7769
  604MOL0     H79726   6.929   2.902  11.429 -0.6210 -0.4927  0.0438
  604MOL0     H79727   6.386   2.590  10.941  0.6849  1.2041 -2.0991
  604MOL0     H79728   6.240   2.620  10.749 -0.0669  0.2454  0.1494
  605MOL0     O79729   1.642   5.692   4.894 -0.2671 -0.3200 -0.1960
  605MOL0     C79730   1.641   5.647   4.779 -0.4223 -0.7860 -0.0904
  605MOL0     O79731   1.754   5.622   4.698 -0.3691  0.4169 -0.1315
  605MOL0     C79732   1.887   5.636   4.742  0.6423 -0.0472 -0.3941
  605MOL0     C79733   1.934   5.736   4.835  0.4133  0.2225  0.6369
  605MOL0     C79734   2.069   5.732   4.865  0.1991 -0.6616  0.0993
  605MOL0     C79735   2.162   5.640   4.804  0.0478 -0.0736 -0.0459
  605MOL0     O79736   2.292   5.626   4.846  0.3242  0.5145  0.2774
  605MOL0     C79737   2.315   5.647   4.986  0.6862  0.7958 -0.3921
  605MOL0     C79738   2.443   5.576   5.032 -0.1445  0.3356  0.2739
  605MOL0     C79739   2.573   5.646   4.990 -0.0191  0.6127 -0.1991
  605MOL0     C79740   2.683   5.637   5.097 -0.0513 -1.1383 -0.5997
  605MOL0     C79741   2.820   5.664   5.045  0.7643 -0.4681 -0.0715
  605MOL0     C79742   2.927   5.672   5.149 -0.8330 -0.2862 -0.3587
  605MOL0     C79743   3.065   5.657   5.074  0.3481 -0.3120 -0.6027
  605MOL0     C79744   3.179   5.681   5.182  0.9450  0.2498 -0.4415
  605MOL0     N79745   3.312   5.729   5.143 -0.2306 -0.2584  0.0594
  605MOL0     C79746   3.415   5.643   5.103 -0.3174  0.7129  0.3120
  605MOL0     C79747   3.523   5.713   5.105  0.1543  0.4741  0.4319
  605MOL0     C79748   3.663   5.663   5.065 -0.1892 -0.3191  1.1100
  605MOL0     C79749   3.750   5.626   5.179  0.1223  0.6436  0.1667
  605MOL0     C79750   3.700   5.506   5.261  0.1300  1.1049  0.2555
  605MOL0     C79751   3.784   5.491   5.389 -0.9829 -0.2322  0.0933
  605MOL0     O79752   3.743   5.377   5.470  0.4315 -0.0652  0.1806
  605MOL0     C79753   3.802   5.259   5.431 -0.5596  0.1445  0.0198
  605MOL0     C79754   3.737   5.153   5.368 -0.1736  0.5431  0.2555
  605MOL0     C79755   3.803   5.032   5.344 -0.2824 -0.3555 -0.4505
  605MOL0     C79756   3.935   5.016   5.382 -0.8887 -0.1091 -0.2825
  605MOL0     C79757   4.004   4.885   5.377  0.0752 -0.4765  1.2984
  605MOL0     O79758   4.136   4.884   5.408 -0.0246  0.4206 -0.1675
  605MOL0     C79759   4.205   4.767   5.409 -0.1700 -0.1919  0.9458
  605MOL0     C79760   4.162   4.644   5.459 -0.1404  0.0915  0.6439
  605MOL0     C79761   4.243   4.536   5.470 -0.4021 -0.4367  0.3434
  605MOL0     C79762   4.376   4.539   5.427  0.2472 -0.1768 -0.0611
  605MOL0     O79763   4.474   4.433   5.443  0.1249 -0.4070  0.3894
  605MOL0     C79764   4.438   4.309   5.514 -0.2073 -0.8306  0.3530
  605MOL0     C79765   4.550   4.206   5.506 -0.0159  0.0158 -0.2909
  605MOL0     C79766   4.573   4.153   5.364 -0.2147  0.8992 -0.7330
  605MOL0     C79767   4.687   4.051   5.366  0.5093  0.2146 -0.2370
  605MOL0     C79768   4.762   4.061   5.230 -0.8066 -1.1613 -1.1621
  605MOL0     C79769   4.891   3.985   5.236  0.2090  0.2613  0.0944
  605MOL0     C79770   5.002   4.043   5.309 -0.1139 -0.4800 -0.4107
  605MOL0     C79771   5.133   3.980   5.285 -0.0145  0.0199  0.1302
  605MOL0    Cl79772   5.118   3.817   5.350 -0.3944  0.2249 -0.0207
  605MOL0     C79773   4.423   4.655   5.373  0.3426 -1.0971  0.9656
  605MOL0     C79774   4.338   4.775   5.366 -0.4009 -0.4589 -0.0767
  605MOL0     O79775   3.932   4.787   5.356  0.3853  0.0508  0.6150
  605MOL0     C79776   4.003   5.126   5.447  0.1778 -1.1147 -0.3186
  605MOL0     C79777   3.934   5.242   5.475  0.2424 -0.4373  0.0288
  605MOL0     N79778   3.494   5.840   5.138 -0.4153 -0.8782  0.0223
  605MOL0     N79779   3.368   5.846   5.169 -0.4552  0.1027 -0.6906
  605MOL0     C79780   2.109   5.548   4.712 -0.1088 -0.1680 -0.7163
  605MOL0     C79781   1.974   5.544   4.680 -0.4731 -0.1055  0.0872
  605MOL0     C79782   1.517   5.634   4.705 -0.1033 -0.1025 -0.4336
  605MOL0     C79783   1.411   5.723   4.725 -0.3291 -1.0945  0.6390
  605MOL0     C79784   1.301   5.728   4.634  0.2252  0.8156 -0.3092
  605MOL0     C79785   1.293   5.644   4.520 -0.3686  0.1717 -0.6783
  605MOL0     O79786   1.184   5.670   4.439 -0.2954 -0.4549  0.5933
  605MOL0     C79787   1.120   5.548   4.411 -0.4248  0.4484  0.2134
  605MOL0     C79788   1.093   5.537   4.263  0.5527  0.2817  0.4950
  605MOL0     C79789   1.220   5.488   4.184 -0.4534 -0.7230 -0.1162
  605MOL0     C79790   1.183   5.469   4.034  0.8679  0.4121  0.1253
  605MOL0     C79791   1.112   5.340   4.017 -0.1425  0.3166  0.7138
  605MOL0     C79792   1.045   5.241   3.995 -0.3325 -0.3093 -0.8877
  605MOL0     C79793   1.396   5.551   4.502  0.9408 -0.0331  0.2556
  605MOL0     C79794   1.510   5.550   4.588  0.9424  0.2085 -0.2648
  605MOL0     H79795   1.866   5.808   4.881  2.0088  1.0518  1.8042
  605MOL0     H79796   2.105   5.801   4.941  0.4905  0.5290 -1.0819
  605MOL0     H79797   2.237   5.607   5.051  0.1624  2.9029  0.3458
  605MOL0     H79798   2.313   5.754   5.006  0.0192  1.1867 -2.3329
  605MOL0     H79799   2.450   5.475   4.990  0.2838 -0.3089  1.7916
  605MOL0     H79800   2.438   5.564   5.141 -0.2149 -1.2003  0.1289
  605MOL0     H79801   2.558   5.752   4.966 -1.4643  0.4907  0.0707
  605MOL0     H79802   2.598   5.606   4.891 -2.5370 -1.1719 -0.2062
  605MOL0     H79803   2.672   5.713   5.176 -0.6779  0.7185 -2.3731
  605MOL0     H79804   2.686   5.535   5.135 -1.3485 -1.0032 -0.0910
  605MOL0     H79805   2.820   5.762   4.998  0.4165  0.7038  2.2419
  605MOL0     H79806   2.853   5.603   4.960  0.8136 -0.2142 -0.2341
  605MOL0     H79807   2.933   5.589   5.219 -0.2566 -0.4238 -0.5634
  605MOL0     H79808   2.926   5.767   5.204  1.0659  0.5011 -1.5461
  605MOL0     H79809   3.072   5.562   5.022  2.4909  0.8645 -2.6435
  605MOL0     H79810   3.073   5.732   4.995  1.2791 -0.0190 -0.2436
  605MOL0     H79811   3.194   5.589   5.240  0.9334  0.4345 -0.1428
  605MOL0     H79812   3.130   5.750   5.252  0.0008 -1.8784  1.1331
  605MOL0     H79813   3.405   5.539   5.074 -1.0610  0.7494  0.4084
  605MOL0     H79814   3.716   5.743   5.012 -3.0926 -0.6821 -2.8409
  605MOL0     H79815   3.653   5.590   4.983  0.4245 -0.2540  0.9742
  605MOL0     H79816   3.764   5.713   5.245  0.5869  0.0427  0.8832
  605MOL0     H79817   3.846   5.604   5.132 -0.6467  0.9243 -1.5772
  605MOL0     H79818   3.593   5.512   5.283 -0.2183  1.5894 -1.4323
  605MOL0     H79819   3.704   5.422   5.191 -3.5676  1.9291 -1.1891
  605MOL0     H79820   3.775   5.581   5.450  0.7891 -0.2484  0.4313
  605MOL0     H79821   3.887   5.485   5.354 -0.9008  0.9843  0.0944
  605MOL0     H79822   3.633   5.142   5.340  0.5809 -0.1672 -2.6224
  605MOL0     H79823   3.756   4.947   5.295 -1.3710  0.0626 -0.1572
  605MOL0     H79824   4.064   4.630   5.504 -1.7434  0.8605 -2.3309
  605MOL0     H79825   4.198   4.445   5.508 -0.4142 -0.3418  0.5597
  605MOL0     H79826   4.356   4.261   5.460  1.3958 -2.0597 -1.1155
  605MOL0     H79827   4.416   4.323   5.620  0.1866  0.3202  0.2923
  605MOL0     H79828   4.533   4.134   5.586  2.4618 -2.1004 -1.5044
  605MOL0     H79829   4.643   4.256   5.538  1.2242 -1.8732 -0.7612
  605MOL0     H79830   4.597   4.244   5.307 -1.4559  1.2921 -0.6500
  605MOL0     H79831   4.479   4.108   5.330 -0.2123  1.1684 -1.1043
  605MOL0     H79832   4.763   4.064   5.443 -0.4208  1.5429  0.4898
  605MOL0     H79833   4.642   3.952   5.380  0.9485 -0.0038 -0.3370
  605MOL0     H79834   4.786   4.166   5.214 -1.8707 -0.8419 -0.7155
  605MOL0     H79835   4.697   4.025   5.149 -0.7039 -1.6856 -1.0143
  605MOL0     H79836   4.934   3.981   5.135 -0.7271 -0.7621 -0.2733
  605MOL0     H79837   4.875   3.884   5.274  2.7059 -0.7580 -1.3298
  605MOL0     H79838   5.010   4.147   5.277  0.2738  0.8050  3.3016
  605MOL0     H79839   4.981   4.060   5.415 -1.8910  1.6462 -1.0422
  605MOL0     H79840   5.217   4.035   5.329  1.6055 -2.2753  0.0306
  605MOL0     H79841   5.157   3.973   5.179  0.0656 -1.5654  0.2334
  605MOL0     H79842   4.526   4.671   5.345 -0.4679  1.9507 -0.8442
  605MOL0     H79843   4.380   4.870   5.337 -3.9128  0.9341 -1.0615
  605MOL0     H79844   4.102   5.125   5.492  0.4083  1.8265 -0.5265
  605MOL0     H79845   3.972   5.324   5.535  0.7777 -1.0937  0.5890
  605MOL0     H79846   2.185   5.492   4.659 -0.8493 -0.4558 -1.5122
  605MOL0     H79847   1.952   5.473   4.601 -0.9157  0.0947  0.0329
  605MOL0     H79848   1.424   5.785   4.812  1.3073 -1.6288  0.7984
  605MOL0     H79849   1.225   5.803   4.652  0.8306  1.3026  0.2973
  605MOL0     H79850   1.031   5.546   4.473  0.4275 -0.1339  1.4426
  605MOL0     H79851   1.173   5.457   4.439 -0.4223  0.5408  0.5123
  605MOL0     H79852   1.007   5.469   4.260  0.2783  0.6312  0.3999
  605MOL0     H79853   1.070   5.635   4.220  4.0580  0.0305 -2.4255
  605MOL0     H79854   1.265   5.397   4.221  2.7859  0.7779 -0.0455
  605MOL0     H79855   1.305   5.556   4.192 -0.8231 -0.3074  0.3179
  605MOL0     H79856   1.120   5.554   4.008  1.0290  1.1633  2.0107
  605MOL0     H79857   1.281   5.458   3.988 -0.6203 -2.6060 -2.7514
  605MOL0     H79858   1.002   5.147   3.965  0.8935 -1.0286 -0.4673
  605MOL0     H79859   1.389   5.493   4.411 -0.3423 -0.7669  0.7941
  605MOL0     H79860   1.594   5.490   4.555  3.1604  1.4749  2.6591
  606MOL0     O79861   3.958   2.369   0.919  0.9548  0.3536 -0.4393
  606MOL0     C79862   4.008   2.394   0.812 -0.0950  0.1326  0.0126
  606MOL0     O79863   3.961   2.354   0.694 -0.0787 -0.3162 -0.3332
  606MOL0     C79864   3.838   2.305   0.661 -0.5743 -0.3461 -0.4396
  606MOL0     C79865   3.827   2.245   0.537 -0.0553  0.7395 -0.3237
  606MOL0     C79866   3.705   2.175   0.501 -0.4369  0.1409  0.2610
  606MOL0     C79867   3.606   2.173   0.599 -0.4280 -0.3400  1.1426
  606MOL0     O79868   3.480   2.125   0.580 -0.2818  0.4104  0.2785
  606MOL0     C79869   3.447   2.066   0.452  0.3295 -0.6518 -0.0526
  606MOL0     C79870   3.297   2.033   0.434  0.8118 -0.8050  0.0783
  606MOL0     C79871   3.279   1.938   0.311 -0.6523 -0.3962 -0.3763
  606MOL0     C79872   3.147   1.873   0.290 -0.2757 -0.8458 -1.1747
  606MOL0     C79873   3.150   1.789   0.166 -0.7679  0.0263 -0.5596
  606MOL0     C79874   3.064   1.667   0.178  1.2223  0.7219 -0.0701
  606MOL0     C79875   3.040   1.620   0.035 -0.6002  0.4201  0.2562
  606MOL0     C79876   2.946   1.490   0.035 -0.6300  0.0581  0.7935
  606MOL0     N79877   2.809   1.531   0.085  0.1828  0.1580  0.1440
  606MOL0     C79878   2.765   1.512   0.212  0.1716  0.5690 -0.0857
  606MOL0     C79879   2.635   1.537   0.212 -0.4453  0.3204  0.4403
  606MOL0     C79880   2.546   1.521   0.328 -0.3093  0.0424  1.0308
  606MOL0     C79881   2.396   1.565   0.309  0.6093  0.3463 -0.2765
  606MOL0     C79882   2.332   1.478   0.200  0.2849  0.4864  0.6346
  606MOL0     C79883   2.181   1.488   0.200  0.1271 -0.8409  0.4291
  606MOL0     O79884   2.124   1.410   0.318 -0.0436  0.6588 -0.4105
  606MOL0     C79885   1.988   1.397   0.326  0.0013 -0.2030 -0.4930
  606MOL0     C79886   1.927   1.289   0.397  0.0718 -0.6771  0.0743
  606MOL0     C79887   1.797   1.266   0.412  0.3663  0.7407 -0.9628
  606MOL0     C79888   1.704   1.355   0.355  0.9593  0.1940 -0.6853
  606MOL0     C79889   1.568   1.335   0.379  0.6535  0.6533 -0.3195
  606MOL0     O79890   1.479   1.439   0.351 -0.1547  0.5165  0.1056
  606MOL0     C79891   1.347   1.433   0.384 -0.1653  0.2940 -0.6911
  606MOL0     C79892   1.279   1.316   0.361  1.3628 -0.2964  0.2997
  606MOL0     C79893   1.145   1.306   0.396  0.1048 -0.2019  0.6094
  606MOL0     C79894   1.074   1.419   0.434 -0.0702  0.4650  0.6020
  606MOL0     O79895   0.943   1.404   0.465 -0.1864  0.0495  0.4453
  606MOL0     C79896   0.879   1.467   0.577 -0.5730  0.0205  0.7326
  606MOL0     C79897   0.748   1.397   0.597 -0.1188  0.1513 -0.2672
  606MOL0     C79898   0.679   1.480   0.702  0.1163  0.0029 -0.0123
  606MOL0     C79899   0.537   1.436   0.746 -0.3691 -0.3521 -0.1629
  606MOL0     C79900   0.470   1.535   0.841  0.5136 -0.9340 -0.0115
  606MOL0     C79901   0.328   1.482   0.878  0.3273 -0.8964 -1.1639
  606MOL0     C79902   0.339   1.363   0.967  0.2841 -0.0500 -0.0788
  606MOL0     C79903   0.210   1.338   1.056  0.2917  0.6431 -0.6364
  606MOL0    Cl79904   0.068   1.268   0.964  0.0504  0.3789 -0.3839
  606MOL0     C79905   1.140   1.542   0.451 -0.6995 -0.0524  0.8301
  606MOL0     C79906   1.280   1.545   0.415  0.5903  0.2148  0.7782
  606MOL0     O79907   1.534   1.223   0.420  0.1757  0.2757  0.0696
  606MOL0     C79908   1.751   1.468   0.288  0.3139 -0.2280  0.1956
  606MOL0     C79909   1.893   1.485   0.267  1.1559  0.4154  0.1596
  606MOL0     N79910   2.598   1.585   0.093  0.0200  0.6638  0.3522
  606MOL0     N79911   2.699   1.578   0.022  0.4455 -0.3739  0.1899
  606MOL0     C79912   3.614   2.244   0.714 -0.0960 -0.0289 -0.4641
  606MOL0     C79913   3.730   2.316   0.744  0.4611 -1.0077 -0.5869
  606MOL0     C79914   4.125   2.479   0.799 -0.5672  0.7475 -0.2241
  606MOL0     C79915   4.152   2.548   0.679 -0.5709  0.3470 -0.7556
  606MOL0     C79916   4.281   2.609   0.672  0.4464 -0.3887 -0.3761
  606MOL0     C79917   4.372   2.610   0.778 -0.4723 -0.0826  0.6905
  606MOL0     O79918   4.496   2.669   0.778 -0.2821 -0.0920  0.6166
  606MOL0     C79919   4.509   2.788   0.707  0.5272 -0.5872 -0.4013
  606MOL0     C79920   4.566   2.743   0.571  0.1709 -0.2466 -0.3426
  606MOL0     C79921   4.720   2.712   0.573 -0.0769 -1.0420 -0.0000
  606MOL0     C79922   4.800   2.844   0.590  0.6540 -0.0078 -0.3001
  606MOL0     C79923   4.944   2.810   0.611  0.6147  0.0497  0.1429
  606MOL0     C79924   5.061   2.778   0.625 -0.8777  0.0247 -0.1718
  606MOL0     C79925   4.329   2.560   0.899  0.7557  0.4566  0.2358
  606MOL0     C79926   4.207   2.497   0.911 -0.2141 -0.3842 -0.3845
  606MOL0     H79927   3.903   2.254   0.460  0.4934 -1.8245 -0.1658
  606MOL0     H79928   3.686   2.131   0.403 -3.2916  2.1088 -0.1814
  606MOL0     H79929   3.504   1.976   0.427  0.6460 -0.5270  0.2115
  606MOL0     H79930   3.460   2.144   0.375  0.3186 -0.5221  0.0764
  606MOL0     H79931   3.228   2.118   0.426 -0.4177 -1.7792  0.0554
  606MOL0     H79932   3.261   1.979   0.522 -2.4178  1.7438  0.5292
  606MOL0     H79933   3.352   1.857   0.304 -2.5525 -2.1264 -1.3133
  606MOL0     H79934   3.297   1.988   0.216 -0.1143 -2.4943 -1.4427
  606MOL0     H79935   3.123   1.809   0.376  0.5692 -2.4167 -2.0693
  606MOL0     H79936   3.072   1.953   0.284  1.4621  1.4970  3.1787
  606MOL0     H79937   3.254   1.760   0.149 -1.3792 -2.0538 -1.0758
  606MOL0     H79938   3.116   1.842   0.076  1.5622  3.4911  0.4294
  606MOL0     H79939   2.967   1.693   0.220 -0.6529 -1.3958 -2.7234
  606MOL0     H79940   3.109   1.585   0.234 -0.6911  0.9361  1.9021
  606MOL0     H79941   2.985   1.700  -0.015 -1.5171  0.1869  0.8725
  606MOL0     H79942   3.132   1.594  -0.019 -2.4702 -2.8492 -1.6279
  606MOL0     H79943   2.994   1.414   0.099 -2.0661  0.1054  1.9641
  606MOL0     H79944   2.941   1.447  -0.066 -0.6582  0.7202  0.5124
  606MOL0     H79945   2.832   1.467   0.284  1.7976  1.3982 -1.0235
  606MOL0     H79946   2.587   1.585   0.407  0.1446  0.0943  0.7551
  606MOL0     H79947   2.537   1.418   0.364 -0.4179 -0.2715  0.1316
  606MOL0     H79948   2.388   1.671   0.286  4.3052  0.3713 -2.1671
  606MOL0     H79949   2.348   1.528   0.401  2.8598 -0.8911  0.4687
  606MOL0     H79950   2.367   1.499   0.099  0.6808  0.6943  0.8106
  606MOL0     H79951   2.355   1.374   0.224 -0.6664  0.3408  0.9470
  606MOL0     H79952   2.143   1.447   0.107  1.6290  0.3705 -0.7653
  606MOL0     H79953   2.144   1.591   0.194 -0.4559 -1.0569  0.2276
  606MOL0     H79954   1.998   1.224   0.447  1.3404 -0.2507 -1.1167
  606MOL0     H79955   1.779   1.177   0.472  2.1456  2.7756  2.9226
  606MOL0     H79956   1.325   1.228   0.318  2.5118  1.0252 -1.3257
  606MOL0     H79957   1.074   1.224   0.400 -0.5384  0.3106 -0.0489
  606MOL0     H79958   0.862   1.573   0.558 -1.5342 -0.2734 -0.1139
  606MOL0     H79959   0.943   1.453   0.665  0.2028  0.8349  0.3218
  606MOL0     H79960   0.763   1.299   0.643 -1.2339  0.7179  1.3970
  606MOL0     H79961   0.699   1.395   0.500  1.8809  0.9290 -1.3453
  606MOL0     H79962   0.677   1.585   0.672  1.9507 -0.1440 -0.7688
  606MOL0     H79963   0.735   1.483   0.796 -1.2755  2.9663  0.8623
  606MOL0     H79964   0.479   1.434   0.654 -1.6975 -1.3135  0.6484
  606MOL0     H79965   0.531   1.338   0.795 -2.5600  0.0154  0.4109
  606MOL0     H79966   0.453   1.633   0.797 -1.8000  0.8438  4.2481
  606MOL0     H79967   0.538   1.538   0.927  0.3402 -2.8817  0.2578
  606MOL0     H79968   0.274   1.469   0.784 -0.7138  0.0531 -0.7352
  606MOL0     H79969   0.280   1.569   0.924  0.9045 -0.3057 -1.6655
  606MOL0     H79970   0.358   1.272   0.909  2.0667  2.1521 -3.2400
  606MOL0     H79971   0.432   1.363   1.025  1.1936 -1.1210 -1.4835
  606MOL0     H79972   0.182   1.424   1.119  3.7393  0.2202  1.7489
  606MOL0     H79973   0.230   1.263   1.133 -1.0324 -0.4375 -1.3036
  606MOL0     H79974   1.088   1.633   0.479 -0.0578 -0.0854  2.2709
  606MOL0     H79975   1.340   1.635   0.413  0.1657  0.5023 -0.6812
  606MOL0     H79976   1.675   1.538   0.254  0.2318 -0.1198  0.5976
  606MOL0     H79977   1.931   1.562   0.201  1.3984 -1.6534 -2.3239
  606MOL0     H79978   3.540   2.251   0.793  0.1441 -2.0731 -0.0082
  606MOL0     H79979   3.735   2.368   0.839  0.2923 -0.0789 -1.0845
  606MOL0     H79980   4.085   2.555   0.593  0.5057 -1.6840 -1.8207
  606MOL0     H79981   4.310   2.663   0.583 -0.2717  1.8660  0.6571
  606MOL0     H79982   4.563   2.868   0.758 -1.1094  2.2362 -2.7007
  606MOL0     H79983   4.418   2.841   0.677  0.1957  0.5906  2.3712
  606MOL0     H79984   4.507   2.655   0.543 -0.2362  0.9021 -3.4356
  606MOL0     H79985   4.549   2.808   0.484  0.4010 -0.3081 -0.4331
  606MOL0     H79986   4.761   2.656   0.489 -1.1382 -0.6661 -0.7867
  606MOL0     H79987   4.743   2.653   0.662 -0.9889  1.3555  1.9631
  606MOL0     H79988   4.789   2.913   0.507 -0.4595  1.1194  0.7462
  606MOL0     H79989   4.769   2.888   0.685  1.8768  0.3907 -0.0689
  606MOL0     H79990   5.162   2.758   0.657 -0.6538 -0.3618 -1.0917
  606MOL0     H79991   4.397   2.557   0.984  2.5582  0.0325 -1.1470
  606MOL0     H79992   4.183   2.468   1.013 -1.1393  1.0233 -0.1639
  607MOL0     O79993   0.931  10.072   3.268 -0.0173  0.0499 -0.3607
  607MOL0     C79994   1.015  10.052   3.360  0.4919 -0.4535  0.0659
  607MOL0     O79995   0.987   9.987   3.476  0.1350  0.9376  0.2254
  607MOL0     C79996   0.863   9.927   3.493  0.7523 -0.5440  0.5180
  607MOL0     C79997   0.860   9.801   3.557  0.0221  0.0133  0.3254
  607MOL0     C79998   0.740   9.731   3.589  0.0726  0.5351  0.8001
  607MOL0     C79999   0.614   9.779   3.534 -0.0555 -0.6382 -0.1644
  607MOL0     O80000   0.499   9.717   3.561 -0.3197 -0.1401  0.4823
  607MOL0     C80001   0.488   9.591   3.492  0.7520 -0.8858 -1.4043
  607MOL0     C80002   0.352   9.524   3.512  0.8413  0.7152  0.1292
  607MOL0     C80003   0.228   9.582   3.444  0.4486  0.0503 -0.8214
  607MOL0     C80004   0.091   9.529   3.492  0.7959  0.1181  0.3780
  607MOL0     C80005  -0.034   9.568   3.408 -0.3633  0.3369  0.1721
  607MOL0     C80006  -0.032   9.504   3.272 -0.2692  0.3027  0.1766
  607MOL0     C80007  -0.017   9.351   3.279  0.3139 -0.1986 -0.0635
  607MOL0     C80008  -0.077   9.275   3.153  0.0871  0.1631  0.3471
  607MOL0     N80009   0.010   9.275   3.039  0.4846  0.6434 -0.3903
  607MOL0     C80010   0.050   9.379   2.969  0.6277  0.3760 -0.2835
  607MOL0     C80011   0.133   9.330   2.869  0.6291  0.0923 -0.3517
  607MOL0     C80012   0.204   9.421   2.765  0.4860  0.5963 -0.0885
  607MOL0     C80013   0.281   9.357   2.655 -0.1403 -0.2919  0.0187
  607MOL0     C80014   0.408   9.449   2.622 -0.8311  0.5883  0.2217
  607MOL0     C80015   0.534   9.375   2.583 -0.2912 -1.2582 -0.3162
  607MOL0     O80016   0.643   9.469   2.552 -0.1207 -1.0471  0.7747
  607MOL0     C80017   0.768   9.419   2.535 -0.9883  0.1154 -1.0241
  607MOL0     C80018   0.876   9.510   2.536  0.9368 -0.4464  0.1596
  607MOL0     C80019   1.002   9.472   2.523 -0.6961  0.3046  0.1983
  607MOL0     C80020   1.036   9.336   2.506 -0.3420  0.3836 -0.4476
  607MOL0     C80021   1.177   9.297   2.486  0.1532  0.2075 -1.2064
  607MOL0     O80022   1.204   9.173   2.435  0.3071  0.0305 -0.3306
  607MOL0     C80023   1.334   9.133   2.441  0.5331 -0.0012 -0.2735
  607MOL0     C80024   1.417   9.134   2.330 -0.3001 -0.3986 -0.2070
  607MOL0     C80025   1.551   9.113   2.346 -0.1767  0.9152 -0.2673
  607MOL0     C80026   1.607   9.088   2.467  0.6127  0.8106  0.1860
  607MOL0     O80027   1.745   9.074   2.470 -0.8528  0.2084 -0.5157
  607MOL0     C80028   1.788   9.000   2.583  0.7588 -0.4214 -0.2609
  607MOL0     C80029   1.938   8.966   2.579 -0.0977 -0.6925 -0.0832
  607MOL0     C80030   2.017   9.097   2.557 -0.7418 -0.3852  0.5349
  607MOL0     C80031   2.166   9.050   2.550 -0.1743 -0.4592  0.2873
  607MOL0     C80032   2.247   9.172   2.518  0.1692 -0.5111 -0.5445
  607MOL0     C80033   2.220   9.222   2.376 -0.6419 -0.8194 -0.4555
  607MOL0     C80034   2.316   9.335   2.329  0.6085  0.2776  0.4054
  607MOL0     C80035   2.311   9.470   2.403 -0.4675  0.1047  0.5904
  607MOL0    Cl80036   2.469   9.544   2.376 -0.0770 -0.1114 -0.1492
  607MOL0     C80037   1.524   9.079   2.583 -0.6154  0.1944 -0.0590
  607MOL0     C80038   1.382   9.098   2.566 -0.1411  0.3807 -0.8012
  607MOL0     O80039   1.263   9.367   2.539  0.2792 -0.1476 -0.4660
  607MOL0     C80040   0.931   9.243   2.512  0.6713 -0.4146  0.4304
  607MOL0     C80041   0.799   9.283   2.528  0.3791 -0.0079  0.3004
  607MOL0     N80042   0.131   9.194   2.883  0.0734  0.2732 -0.0365
  607MOL0     N80043   0.055   9.161   2.979 -0.1988 -0.0195 -0.3588
  607MOL0     C80044   0.612   9.902   3.473 -0.2406 -0.1485  0.9402
  607MOL0     C80045   0.735   9.979   3.443  0.2139 -0.2986 -0.1196
  607MOL0     C80046   1.156  10.120   3.343  0.1917 -0.4765 -0.5781
  607MOL0     C80047   1.180  10.227   3.248  0.5895 -0.0335  0.2009
  607MOL0     C80048   1.311  10.265   3.225 -0.2885 -0.9371 -0.0339
  607MOL0     C80049   1.414  10.216   3.306  0.1013 -0.0498 -0.4820
  607MOL0     O80050   1.542  10.248   3.281  0.6074  0.4962 -0.0361
  607MOL0     C80051   1.599  10.196   3.160  0.5079 -0.0142  0.5051
  607MOL0     C80052   1.664  10.067   3.184  1.1392  0.9552  0.4213
  607MOL0     C80053   1.780  10.073   3.290  0.4428 -0.6370 -0.4566
  607MOL0     C80054   1.869  10.198   3.269  0.1079  0.2759 -0.8372
  607MOL0     C80055   1.929  10.197   3.138  0.5493  0.3644  0.5396
  607MOL0     C80056   1.965  10.212   3.018 -0.8778 -0.2111 -0.5769
  607MOL0     C80057   1.388  10.125   3.416  0.6041  0.5963 -0.0477
  607MOL0     C80058   1.255  10.083   3.443 -0.1032 -0.0333  0.7637
  607MOL0     H80059   0.949   9.755   3.600 -0.6560 -1.9973 -0.2783
  607MOL0     H80060   0.748   9.635   3.639  1.8927  0.6002  0.7243
  607MOL0     H80061   0.566   9.524   3.528 -0.5822 -0.9935  1.5406
  607MOL0     H80062   0.496   9.608   3.384 -2.4248  2.3014 -1.3479
  607MOL0     H80063   0.314   9.529   3.614 -4.3693  4.6425 -1.5713
  607MOL0     H80064   0.357   9.420   3.476 -1.6133  1.6469 -3.5618
  607MOL0     H80065   0.235   9.572   3.335 -0.3587 -2.0202 -0.7208
  607MOL0     H80066   0.229   9.689   3.466 -2.7903 -0.5065  3.3211
  607MOL0     H80067   0.092   9.421   3.507 -0.4899  0.4118  3.3621
  607MOL0     H80068   0.069   9.576   3.589 -0.9482  2.0840 -0.8949
  607MOL0     H80069  -0.032   9.676   3.389 -1.7051  0.3862  0.2000
  607MOL0     H80070  -0.127   9.546   3.462 -0.6236 -0.0100 -0.4047
  607MOL0     H80071   0.049   9.540   3.209 -0.0612 -1.9593 -0.9161
  607MOL0     H80072  -0.122   9.527   3.214 -0.2236 -0.9813 -0.4211
  607MOL0     H80073   0.084   9.323   3.310 -0.3448  0.0602  2.5624
  607MOL0     H80074  -0.081   9.316   3.360 -1.3189  1.5553 -0.5313
  607MOL0     H80075  -0.172   9.321   3.126 -0.5243 -0.8691  0.7111
  607MOL0     H80076  -0.089   9.170   3.181  2.3116 -0.0696  0.6403
  607MOL0     H80077   0.034   9.483   2.994 -1.3585 -0.2731  1.4086
  607MOL0     H80078   0.273   9.487   2.817  2.2552  1.0141 -2.7686
  607MOL0     H80079   0.130   9.488   2.720 -2.1637 -0.4272  2.3904
  607MOL0     H80080   0.218   9.345   2.567  0.2050 -3.1499  0.0739
  607MOL0     H80081   0.317   9.256   2.678 -0.6648 -0.7794 -1.2306
  607MOL0     H80082   0.387   9.518   2.539  3.5471  2.4310  0.3489
  607MOL0     H80083   0.437   9.506   2.710 -3.0420 -0.2315  1.5642
  607MOL0     H80084   0.521   9.316   2.492 -1.1716  0.1329 -1.1416
  607MOL0     H80085   0.573   9.319   2.668 -0.5658 -1.7174 -0.4881
  607MOL0     H80086   0.846   9.614   2.532  1.8102 -0.2037 -0.6646
  607MOL0     H80087   1.071   9.556   2.517  1.3149 -1.2172  0.6717
  607MOL0     H80088   1.378   9.148   2.230  0.1948 -0.4254 -0.4044
  607MOL0     H80089   1.607   9.089   2.256  2.0423 -1.3705  1.5984
  607MOL0     H80090   1.735   8.904   2.585 -0.1176  0.0692  0.7625
  607MOL0     H80091   1.765   9.051   2.677 -1.7508 -0.3124 -0.8679
  607MOL0     H80092   1.967   8.899   2.498 -0.6975 -1.1727  0.0974
  607MOL0     H80093   1.977   8.922   2.671  1.2247 -1.5659 -1.0227
  607MOL0     H80094   2.008   9.175   2.633  2.5323 -1.1930  1.9298
  607MOL0     H80095   1.988   9.159   2.472  0.8026  0.6278  0.7228
  607MOL0     H80096   2.193   9.012   2.650 -2.0987  0.1041  1.0684
  607MOL0     H80097   2.189   8.974   2.475  0.7353  1.3837 -1.3845
  607MOL0     H80098   2.353   9.144   2.521  0.7473  1.6003  1.0758
  607MOL0     H80099   2.237   9.252   2.592  4.5196  1.2588 -1.5470
  607MOL0     H80100   2.119   9.261   2.359 -0.5574 -0.1374  0.5388
  607MOL0     H80101   2.233   9.142   2.301  0.0292 -0.5051 -0.6821
  607MOL0     H80102   2.420   9.303   2.340  0.2887 -0.9916 -0.0190
  607MOL0     H80103   2.308   9.344   2.220  2.7230  0.0085  0.1887
  607MOL0     H80104   2.291   9.444   2.507 -1.1385 -0.4798  0.3252
  607MOL0     H80105   2.224   9.533   2.381 -0.2702  0.4480  0.8002
  607MOL0     H80106   1.555   9.073   2.687 -0.2768 -1.4346 -0.2323
  607MOL0     H80107   1.313   9.097   2.650  1.8523  0.9092  0.9685
  607MOL0     H80108   0.952   9.137   2.501 -2.3235 -1.2894  2.0508
  607MOL0     H80109   0.709   9.223   2.513 -0.3300  1.5141 -2.1420
  607MOL0     H80110   0.517   9.948   3.448 -0.3536 -1.2501 -0.8784
  607MOL0     H80111   0.736  10.076   3.395 -1.9911 -0.5728 -0.8266
  607MOL0     H80112   1.099  10.282   3.200  0.2650 -0.5362  0.1590
  607MOL0     H80113   1.334  10.327   3.138 -1.6229 -2.3149 -1.4326
  607MOL0     H80114   1.667  10.264   3.108 -2.5864  1.6722 -1.5969
  607MOL0     H80115   1.518  10.173   3.092 -0.4728 -2.6364  2.3796
  607MOL0     H80116   1.590   9.998   3.224  0.1451  0.9715 -1.3018
  607MOL0     H80117   1.697  10.024   3.089 -0.8864  0.4507 -0.0840
  607MOL0     H80118   1.841   9.982   3.293  2.0156  0.3160 -1.8223
  607MOL0     H80119   1.740  10.078   3.392  2.2352  2.6501  0.2277
  607MOL0     H80120   1.815  10.291   3.292 -3.5328 -1.1475 -2.9163
  607MOL0     H80121   1.955  10.200   3.337 -0.1568 -0.0287 -0.4874
  607MOL0     H80122   2.006  10.204   2.920  0.1977  0.9125 -0.2335
  607MOL0     H80123   1.460  10.085   3.487 -0.2702  0.1856  0.6283
  607MOL0     H80124   1.228  10.010   3.519  1.9850 -1.9923 -0.2550
  608MOL0     O80125   4.700   2.252   5.534 -0.3419 -0.8882  0.2773
  608MOL0     C80126   4.723   2.369   5.564  0.7480 -0.4576 -0.7395
  608MOL0     O80127   4.657   2.481   5.514 -0.0354  0.5841  0.0117
  608MOL0     C80128   4.552   2.466   5.432  0.6008 -0.3648 -0.5761
  608MOL0     C80129   4.459   2.576   5.440  0.2034 -0.1371  0.3206
  608MOL0     C80130   4.351   2.572   5.355  0.4514 -0.3056  0.3904
  608MOL0     C80131   4.320   2.470   5.258 -0.2144 -0.8989  0.3614
  608MOL0     O80132   4.206   2.452   5.189 -0.3852  1.0496  0.2450
  608MOL0     C80133   4.090   2.510   5.252 -0.3081  0.2034  0.4417
  608MOL0     C80134   3.961   2.471   5.180  0.0748  0.9487  0.1139
  608MOL0     C80135   3.935   2.319   5.165  0.7696  0.3296  0.1359
  608MOL0     C80136   3.787   2.275   5.137 -0.4457  0.7451 -0.1670
  608MOL0     C80137   3.684   2.309   5.247 -0.0489  0.8536 -0.1157
  608MOL0     C80138   3.552   2.246   5.197 -0.3457  0.3819 -0.2255
  608MOL0     C80139   3.441   2.284   5.292 -0.4088 -0.0589  0.9852
  608MOL0     C80140   3.306   2.261   5.225 -0.2137  1.0409  0.2571
  608MOL0     N80141   3.197   2.304   5.314 -0.3918  0.0078  0.1729
  608MOL0     C80142   3.110   2.404   5.277 -0.6899 -0.6972  0.4265
  608MOL0     C80143   3.026   2.407   5.383  0.0390 -0.1934  0.0221
  608MOL0     C80144   2.913   2.503   5.416 -0.1671  0.5533 -0.0762
  608MOL0     C80145   2.772   2.433   5.410  0.2604  0.1713  0.7134
  608MOL0     C80146   2.713   2.375   5.540  0.7758  0.3961 -0.2816
  608MOL0     C80147   2.561   2.353   5.532  0.0183  0.5510 -0.0071
  608MOL0     O80148   2.531   2.248   5.442 -0.8522 -0.2240  0.6369
  608MOL0     C80149   2.401   2.217   5.458  0.5687 -0.1973  0.5637
  608MOL0     C80150   2.297   2.310   5.434  0.3419 -0.3352 -0.1315
  608MOL0     C80151   2.162   2.274   5.432 -0.6764 -0.2638  0.4951
  608MOL0     C80152   2.129   2.147   5.472 -0.1231  0.3297  0.7133
  608MOL0     C80153   1.983   2.094   5.472 -0.3103  0.8853 -0.0816
  608MOL0     O80154   1.877   2.176   5.439 -0.3411 -0.1815 -0.3205
  608MOL0     C80155   1.746   2.145   5.464 -0.4175 -0.3705  0.0222
  608MOL0     C80156   1.695   2.105   5.587 -0.1372 -0.3510  0.5054
  608MOL0     C80157   1.561   2.077   5.598  1.0137  0.6438 -0.2013
  608MOL0     C80158   1.469   2.093   5.485 -1.0061 -0.8544  0.1413
  608MOL0     O80159   1.338   2.089   5.484  0.7478  0.2134 -0.2498
  608MOL0     C80160   1.261   1.998   5.560 -0.1201 -0.2090  0.7839
  608MOL0     C80161   1.205   2.063   5.684 -0.1081  0.5619 -0.2199
  608MOL0     C80162   1.122   1.958   5.749 -0.7797  0.3126 -0.3852
  608MOL0     C80163   1.083   1.991   5.890 -0.4460  0.3075  0.2937
  608MOL0     C80164   0.976   1.900   5.936  0.4361  0.0881 -0.6341
  608MOL0     C80165   0.938   1.948   6.074 -0.3448  0.2188 -0.4344
  608MOL0     C80166   0.812   1.865   6.121  1.0077 -0.1148  0.6679
  608MOL0     C80167   0.717   1.952   6.201 -0.0937 -0.4063 -0.5928
  608MOL0    Cl80168   0.815   1.996   6.352  0.0237  0.6392  0.5069
  608MOL0     C80169   1.518   2.124   5.354  1.0122 -0.0624 -0.5764
  608MOL0     C80170   1.658   2.149   5.346 -0.3294  0.2632 -0.0236
  608MOL0     O80171   1.963   1.979   5.514  0.7196  0.8092  0.1351
  608MOL0     C80172   2.234   2.050   5.495 -0.7008  0.2840 -0.0957
  608MOL0     C80173   2.368   2.083   5.480 -0.4830 -0.3914  0.1692
  608MOL0     N80174   3.055   2.308   5.478 -0.4197 -0.2885  0.2308
  608MOL0     N80175   3.157   2.252   5.437 -0.4652 -0.0511  0.4523
  608MOL0     C80176   4.422   2.374   5.246 -0.7908  0.1480  0.6703
  608MOL0     C80177   4.534   2.372   5.331  0.1723  0.9133  0.7627
  608MOL0     C80178   4.848   2.386   5.655 -0.1473 -0.1301  0.6445
  608MOL0     C80179   4.943   2.283   5.658  0.3817  0.2553  0.2375
  608MOL0     C80180   5.063   2.294   5.735  0.2565  0.8212 -0.8311
  608MOL0     C80181   5.094   2.403   5.816  0.5278  0.7881  0.2824
  608MOL0     O80182   5.211   2.412   5.893  0.3277 -0.0819  0.3114
  608MOL0     C80183   5.313   2.306   5.899  0.4299  0.1997 -0.1156
  608MOL0     C80184   5.429   2.349   5.981  0.0001  0.4339 -1.0234
  608MOL0     C80185   5.538   2.246   6.002  0.8171  0.1576  0.6469
  608MOL0     C80186   5.649   2.316   6.061 -0.5960 -0.6331 -0.0911
  608MOL0     C80187   5.759   2.222   6.101  0.4607  0.3629 -0.0093
  608MOL0     C80188   5.855   2.151   6.121 -0.2627 -0.5549  0.3148
  608MOL0     C80189   5.002   2.506   5.809 -0.0795  0.2107  0.0216
  608MOL0     C80190   4.885   2.505   5.729 -0.2367  0.3254  0.3543
  608MOL0     H80191   4.466   2.655   5.514  0.6468 -1.6674  1.9857
  608MOL0     H80192   4.282   2.656   5.363  2.0109  1.2829 -1.6813
  608MOL0     H80193   4.100   2.618   5.245 -1.8242  0.2642 -2.1062
  608MOL0     H80194   4.085   2.480   5.357  1.5112  0.2666  0.5766
  608MOL0     H80195   3.947   2.515   5.081 -3.1201 -1.2974 -0.6254
  608MOL0     H80196   3.879   2.521   5.233  1.6211  2.7689  0.8712
  608MOL0     H80197   3.957   2.271   5.261 -0.1648 -0.1125  0.1399
  608MOL0     H80198   3.998   2.272   5.089 -1.2114  0.6196 -1.7538
  608MOL0     H80199   3.759   2.307   5.036 -0.7591 -1.0908 -0.6859
  608MOL0     H80200   3.782   2.167   5.126 -5.1430  0.7804 -0.4545
  608MOL0     H80201   3.676   2.415   5.271  0.6227  0.8260  0.2247
  608MOL0     H80202   3.717   2.248   5.331 -1.0785 -0.6857 -0.7624
  608MOL0     H80203   3.559   2.137   5.189 -0.3749  0.2518  1.3304
  608MOL0     H80204   3.529   2.302   5.105  0.8265  1.1230 -0.0871
  608MOL0     H80205   3.440   2.223   5.383  0.3288 -1.6743 -0.0396
  608MOL0     H80206   3.459   2.388   5.321  1.6330 -1.0604  3.8030
  608MOL0     H80207   3.293   2.153   5.211 -0.7989  0.7574  2.5653
  608MOL0     H80208   3.295   2.310   5.129  1.0872  0.6053 -0.1284
  608MOL0     H80209   3.113   2.477   5.196  1.5619 -1.6029 -0.3806
  608MOL0     H80210   2.922   2.582   5.341  0.9102 -0.3011 -0.8804
  608MOL0     H80211   2.934   2.550   5.513 -1.4550  1.4132 -0.1848
  608MOL0     H80212   2.761   2.361   5.328 -4.1714  1.0908  0.2465
  608MOL0     H80213   2.700   2.512   5.387  0.5630  0.4340  0.6700
  608MOL0     H80214   2.770   2.290   5.578 -2.1614  0.2400  4.5237
  608MOL0     H80215   2.720   2.449   5.620 -0.7273  0.8483 -0.5403
  608MOL0     H80216   2.515   2.444   5.493  2.5950  2.3273  0.7856
  608MOL0     H80217   2.519   2.335   5.632 -0.8478 -1.2747 -0.6478
  608MOL0     H80218   2.322   2.413   5.409 -0.1780 -0.2910 -0.4888
  608MOL0     H80219   2.079   2.340   5.413 -2.1096 -1.9869  0.4912
  608MOL0     H80220   1.763   2.112   5.671  1.9136 -0.5193 -1.0530
  608MOL0     H80221   1.524   2.038   5.692  1.3328  1.2020  0.1642
  608MOL0     H80222   1.316   1.906   5.581  0.3993 -0.3683 -1.0915
  608MOL0     H80223   1.180   1.967   5.492  1.0858 -1.2951 -0.1965
  608MOL0     H80224   1.144   2.153   5.667 -1.6619 -0.2650  0.7403
  608MOL0     H80225   1.287   2.098   5.747 -0.8139  2.0150 -0.0794
  608MOL0     H80226   1.172   1.861   5.749 -1.5833 -0.3446 -5.0121
  608MOL0     H80227   1.035   1.944   5.684 -0.2118  0.0962 -1.1159
  608MOL0     H80228   1.178   1.995   5.945 -0.1913 -0.8311 -0.0385
  608MOL0     H80229   1.038   2.091   5.895 -2.2199 -0.4932  1.2224
  608MOL0     H80230   1.015   1.799   5.945  0.9999  0.5364  3.7019
  608MOL0     H80231   0.887   1.904   5.872 -0.3686 -1.7963  0.2951
  608MOL0     H80232   0.918   2.055   6.059 -0.4400  0.6488  2.2553
  608MOL0     H80233   1.017   1.941   6.150 -0.4109  2.8633  0.0009
  608MOL0     H80234   0.754   1.820   6.040 -0.6973  1.2000  1.1039
  608MOL0     H80235   0.847   1.786   6.188  0.4935 -0.5364  0.4458
  608MOL0     H80236   0.634   1.890   6.236 -1.9565  1.3865 -1.6309
  608MOL0     H80237   0.687   2.047   6.155  4.0160  0.8221 -1.1505
  608MOL0     H80238   1.450   2.119   5.270  0.2519 -1.1899  0.0886
  608MOL0     H80239   1.713   2.172   5.255  1.7447  0.7863  1.2982
  608MOL0     H80240   2.197   1.952   5.523  0.1862  0.3010  1.2160
  608MOL0     H80241   2.447   2.010   5.494  0.0651  0.7174  4.3719
  608MOL0     H80242   4.418   2.298   5.168 -0.3889  2.2562 -1.4886
  608MOL0     H80243   4.605   2.293   5.309  2.8534  3.1281  0.9546
  608MOL0     H80244   4.935   2.200   5.589 -2.9133  2.0855 -1.8097
  608MOL0     H80245   5.135   2.215   5.717  0.2620  0.6386 -0.0208
  608MOL0     H80246   5.353   2.298   5.797  0.3563 -0.6537 -0.0837
  608MOL0     H80247   5.278   2.209   5.935  0.6010  0.6685  1.3826
  608MOL0     H80248   5.479   2.436   5.938  1.9838  0.2647  0.7903
  608MOL0     H80249   5.390   2.389   6.075 -0.6744 -0.2615 -0.9929
  608MOL0     H80250   5.562   2.195   5.908 -1.6440  1.2126 -0.6488
  608MOL0     H80251   5.497   2.177   6.077 -0.2513 -0.5879 -0.5863
  608MOL0     H80252   5.686   2.404   6.008 -2.8426  1.9026  2.2653
  608MOL0     H80253   5.611   2.359   6.154 -1.0125  0.1606 -0.6195
  608MOL0     H80254   5.929   2.084   6.160 -1.3624 -0.9051  1.8775
  608MOL0     H80255   5.032   2.597   5.860 -0.5733  0.2440  0.2571
  608MOL0     H80256   4.817   2.588   5.716 -2.1733 -1.4311 -1.3276
  609MOL0     O80257   0.160   7.099   7.413 -0.2769  0.1616  0.4362
  609MOL0     C80258   0.252   7.024   7.384 -0.3720 -0.2794  0.4344
  609MOL0     O80259   0.245   6.892   7.372  0.2773  0.9603 -0.1919
  609MOL0     C80260   0.128   6.830   7.399 -0.6009 -0.1203 -0.2073
  609MOL0     C80261   0.060   6.840   7.525 -0.0771  0.5224  0.4119
  609MOL0     C80262  -0.046   6.750   7.557 -0.2775  0.0943  0.3324
  609MOL0     C80263  -0.087   6.654   7.471  0.4259 -0.0811  0.1848
  609MOL0     O80264  -0.179   6.560   7.509 -0.2044 -0.3197  0.6750
  609MOL0     C80265  -0.320   6.594   7.538  0.0471 -0.3337 -0.4579
  609MOL0     C80266  -0.396   6.597   7.410  0.5216  0.2982  0.1145
  609MOL0     C80267  -0.544   6.632   7.417 -0.0409 -0.7132 -0.2997
  609MOL0     C80268  -0.594   6.638   7.272 -0.3840 -0.5682  0.2560
  609MOL0     C80269  -0.739   6.696   7.279 -0.0034  0.7817 -0.1645
  609MOL0     C80270  -0.731   6.852   7.271  0.0776  0.6729  1.0695
  609MOL0     C80271  -0.875   6.907   7.261 -0.4663  0.0525  1.0139
  609MOL0     C80272  -0.879   7.051   7.226 -0.0165 -0.3194  0.7301
  609MOL0     N80273  -1.017   7.091   7.217  0.6512 -0.2969  0.2647
  609MOL0     C80274  -1.088   7.151   7.319 -0.2777 -0.4183  0.2100
  609MOL0     C80275  -1.200   7.211   7.260  0.8065 -0.3570  0.1368
  609MOL0     C80276  -1.295   7.289   7.332  0.1379  0.6752 -0.3086
  609MOL0     C80277  -1.428   7.310   7.257 -0.0973 -0.7375  0.3224
  609MOL0     C80278  -1.519   7.394   7.347  0.5705 -0.4014  0.0950
  609MOL0     C80279  -1.665   7.394   7.288 -0.4624 -0.0043 -0.2857
  609MOL0     O80280  -1.757   7.439   7.390  0.2900  0.1692  0.5101
  609MOL0     C80281  -1.887   7.458   7.342  0.3119 -0.0950  0.3215
  609MOL0     C80282  -1.976   7.504   7.434 -0.5977  0.1684  0.0682
  609MOL0     C80283  -2.112   7.519   7.410  0.1173  0.3930  0.1213
  609MOL0     C80284  -2.161   7.484   7.283 -0.4041 -0.2723  0.0619
  609MOL0     C80285  -2.301   7.493   7.248  0.0657 -0.7801  0.5960
  609MOL0     O80286  -2.371   7.580   7.312 -0.2795  0.0101 -1.0839
  609MOL0     C80287  -2.504   7.606   7.285 -0.6823 -1.1047 -0.1189
  609MOL0     C80288  -2.554   7.734   7.282  0.3400  0.3264 -0.2341
  609MOL0     C80289  -2.688   7.767   7.254  0.3017  0.1931 -0.0470
  609MOL0     C80290  -2.774   7.654   7.229 -0.1632  0.3332 -0.0810
  609MOL0     O80291  -2.911   7.658   7.208  0.3112 -0.2508  0.8863
  609MOL0     C80292  -2.982   7.783   7.221  0.0495  0.1964 -0.1053
  609MOL0     C80293  -3.125   7.751   7.186 -0.7346 -0.2528  0.7663
  609MOL0     C80294  -3.208   7.866   7.224  0.0928 -0.4567  0.2540
  609MOL0     C80295  -3.350   7.861   7.156  1.5199 -0.4511 -0.2998
  609MOL0     C80296  -3.449   7.973   7.216 -0.3413  1.2433 -0.5790
  609MOL0     C80297  -3.433   8.112   7.145  0.2876 -0.6386  0.2930
  609MOL0     C80298  -3.500   8.108   7.020 -1.0766  0.9042  0.5358
  609MOL0     C80299  -3.628   8.180   7.031 -0.3166 -0.1489  0.8587
  609MOL0    Cl80300  -3.718   8.133   6.883  0.2051  0.4010  0.5100
  609MOL0     C80301  -2.729   7.526   7.233  0.2295  0.0540 -0.3324
  609MOL0     C80302  -2.597   7.497   7.256 -0.6592  0.2478  0.5619
  609MOL0     O80303  -2.335   7.430   7.144 -0.0267 -0.0013  0.0643
  609MOL0     C80304  -2.073   7.440   7.176 -0.8970 -0.0588 -0.3323
  609MOL0     C80305  -1.930   7.435   7.211  0.3302 -0.5366 -0.0756
  609MOL0     N80306  -1.187   7.183   7.123 -0.1285  0.1537  0.3992
  609MOL0     N80307  -1.080   7.115   7.090 -0.0544  0.2511 -0.2830
  609MOL0     C80308  -0.021   6.636   7.347 -0.1854 -0.8264  0.2482
  609MOL0     C80309   0.076   6.729   7.317 -0.7851  0.0238  0.1533
  609MOL0     C80310   0.391   7.084   7.368 -0.0948  0.5628 -0.0800
  609MOL0     C80311   0.506   7.002   7.339  0.9271 -0.6765 -0.1091
  609MOL0     C80312   0.628   7.057   7.307  0.1131  0.5878  0.3180
  609MOL0     C80313   0.653   7.199   7.304 -0.3549 -0.1761 -0.1519
  609MOL0     O80314   0.766   7.278   7.271  0.0401 -0.0217  0.2418
  609MOL0     C80315   0.881   7.212   7.210 -0.2869  0.1727  0.0848
  609MOL0     C80316   0.969   7.148   7.311  0.0485  0.0461  1.3783
  609MOL0     C80317   1.076   7.048   7.252  0.1765 -0.8277  0.4197
  609MOL0     C80318   1.021   6.923   7.185  0.0000 -0.3872 -0.3434
  609MOL0     C80319   0.924   6.842   7.257  0.4989 -0.1961  0.5749
  609MOL0     C80320   0.846   6.782   7.323 -0.4583 -0.0548  0.5511
  609MOL0     C80321   0.554   7.280   7.350  1.6905  0.1050 -0.5813
  609MOL0     C80322   0.420   7.225   7.373 -0.8850  0.3256 -0.7039
  609MOL0     H80323   0.079   6.924   7.591  1.2097  2.2920 -2.0076
  609MOL0     H80324  -0.100   6.760   7.650 -0.8044  3.2340 -0.2025
  609MOL0     H80325  -0.332   6.684   7.600  0.2525 -1.6799  1.6656
  609MOL0     H80326  -0.373   6.519   7.598  1.9478 -0.9524  0.5471
  609MOL0     H80327  -0.389   6.499   7.362 -0.9902  0.4886 -0.5730
  609MOL0     H80328  -0.342   6.676   7.357  0.6166  0.5481  0.5740
  609MOL0     H80329  -0.548   6.731   7.464 -0.5342 -1.3126  0.9754
  609MOL0     H80330  -0.602   6.559   7.473  2.7192 -1.8293  1.2867
  609MOL0     H80331  -0.541   6.699   7.198 -3.0738  1.0880 -0.4537
  609MOL0     H80332  -0.605   6.540   7.224 -0.0982 -0.3813 -0.1957
  609MOL0     H80333  -0.791   6.660   7.368 -1.5057  0.1026 -1.2787
  609MOL0     H80334  -0.791   6.653   7.194 -0.6987 -2.7593  1.8854
  609MOL0     H80335  -0.668   6.878   7.185 -1.1028  4.3958  1.1512
  609MOL0     H80336  -0.684   6.886   7.363 -3.5180 -0.1711  3.4320
  609MOL0     H80337  -0.929   6.845   7.190  3.2917 -0.8514 -1.3638
  609MOL0     H80338  -0.909   6.892   7.364  1.9444  0.3154  1.9169
  609MOL0     H80339  -0.826   7.072   7.132  0.8516 -0.1483  1.2401
  609MOL0     H80340  -0.832   7.110   7.306 -0.7936  0.0168  0.9434
  609MOL0     H80341  -1.056   7.156   7.422  0.8999  3.0350 -0.1795
  609MOL0     H80342  -1.256   7.388   7.360 -1.5708  1.6903 -1.3807
  609MOL0     H80343  -1.317   7.240   7.427 -1.4086  0.7962 -0.5906
  609MOL0     H80344  -1.472   7.213   7.235 -2.2341  0.3222 -0.3175
  609MOL0     H80345  -1.411   7.362   7.162 -0.7801  0.4242  0.8067
  609MOL0     H80346  -1.523   7.343   7.443  2.0087  0.3730  0.5946
  609MOL0     H80347  -1.472   7.493   7.345 -0.2129 -0.0270 -1.0001
  609MOL0     H80348  -1.695   7.296   7.249 -1.3025  0.3366 -0.5239
  609MOL0     H80349  -1.673   7.463   7.203  0.4873 -2.3558 -2.4515
  609MOL0     H80350  -1.941   7.524   7.535  0.5874 -0.7857 -0.1451
  609MOL0     H80351  -2.175   7.567   7.485  1.2819  0.4276  1.1142
  609MOL0     H80352  -2.493   7.822   7.300 -1.3348  1.1409  1.9190
  609MOL0     H80353  -2.734   7.865   7.256 -1.8837 -0.7730  1.1719
  609MOL0     H80354  -2.932   7.862   7.165 -0.5529 -0.1156 -1.0966
  609MOL0     H80355  -2.986   7.816   7.325 -1.0472 -0.7510  0.1685
  609MOL0     H80356  -3.150   7.663   7.245  1.0459 -1.4127 -0.1372
  609MOL0     H80357  -3.128   7.728   7.079  6.0630  0.3920  0.0341
  609MOL0     H80358  -3.168   7.965   7.199 -1.7006 -0.0491 -1.2629
  609MOL0     H80359  -3.210   7.858   7.333  1.9801  0.9203  0.4343
  609MOL0     H80360  -3.337   7.872   7.048  1.7644 -2.8809 -0.5817
  609MOL0     H80361  -3.392   7.761   7.171  1.4189 -0.9688 -3.3918
  609MOL0     H80362  -3.431   7.976   7.324  1.9593  0.2187 -0.8666
  609MOL0     H80363  -3.552   7.940   7.202  0.1528  0.0690 -1.6718
  609MOL0     H80364  -3.328   8.141   7.143  0.2812 -0.6503 -1.1637
  609MOL0     H80365  -3.482   8.184   7.212  1.5915 -1.2258  1.9322
  609MOL0     H80366  -3.439   8.159   6.944 -1.7013  1.5874  0.4780
  609MOL0     H80367  -3.509   8.007   6.978  1.9796  1.3828 -1.6111
  609MOL0     H80368  -3.608   8.287   7.032 -4.8416  0.9152  1.1938
  609MOL0     H80369  -3.681   8.144   7.120 -1.5657 -2.7402 -0.8013
  609MOL0     H80370  -2.798   7.443   7.218 -0.3774  0.9872 -3.4442
  609MOL0     H80371  -2.562   7.395   7.252  1.1182  0.8409 -2.5704
  609MOL0     H80372  -2.101   7.425   7.072  0.0777 -0.5718 -0.5425
  609MOL0     H80373  -1.860   7.412   7.132  1.0797 -1.0465  0.7103
  609MOL0     H80374  -0.038   6.556   7.276 -1.3716  1.3168 -2.0043
  609MOL0     H80375   0.135   6.708   7.228  1.0684 -1.0891  1.5719
  609MOL0     H80376   0.501   6.895   7.324  2.9657 -0.7343 -0.6660
  609MOL0     H80377   0.719   7.003   7.283  1.0739  2.5195 -0.6248
  609MOL0     H80378   0.936   7.282   7.147 -1.6340  0.4728 -0.7818
  609MOL0     H80379   0.850   7.136   7.138 -3.6118  2.0921 -0.6912
  609MOL0     H80380   1.014   7.237   7.356 -0.0073  0.4875  0.5822
  609MOL0     H80381   0.907   7.096   7.384  0.5920 -2.2028  0.3181
  609MOL0     H80382   1.137   7.019   7.338  1.6133  3.2936  0.9856
  609MOL0     H80383   1.127   7.110   7.178 -2.3347  0.5589 -0.2838
  609MOL0     H80384   0.974   6.953   7.091  1.3830 -1.9198 -1.5796
  609MOL0     H80385   1.110   6.864   7.161  2.3248  3.5467 -2.4365
  609MOL0     H80386   0.781   6.700   7.345 -1.2757 -0.1150 -1.8339
  609MOL0     H80387   0.579   7.385   7.353 -3.9742  1.7630 -0.0071
  609MOL0     H80388   0.328   7.280   7.390 -1.5814 -0.9112 -0.3068
  610MOL0     O80389   4.579  10.861   5.813  0.3807  0.5389 -0.3478
  610MOL0     C80390   4.649  10.815   5.718  0.4793 -0.4160  0.5920
  610MOL0     O80391   4.602  10.808   5.582  0.1902  0.2887 -0.2495
  610MOL0     C80392   4.490  10.885   5.562 -1.2273 -0.2479 -0.5606
  610MOL0     C80393   4.401  10.829   5.469  0.0783 -0.6195  0.9104
  610MOL0     C80394   4.296  10.918   5.421 -0.0598 -0.3412 -0.3894
  610MOL0     C80395   4.273  11.049   5.466  0.3265  0.3947  0.0844
  610MOL0     O80396   4.171  11.125   5.420  0.8792 -0.7278  0.2150
  610MOL0     C80397   4.051  11.081   5.359  0.4526  0.4782  0.2098
  610MOL0     C80398   3.949  11.202   5.345 -0.2970  1.2318 -0.4240
  610MOL0     C80399   3.815  11.144   5.300  1.1114  0.4716  0.0063
  610MOL0     C80400   3.711  11.256   5.325 -0.1059 -0.6901 -0.0656
  610MOL0     C80401   3.576  11.225   5.269 -0.5647  0.0503 -0.1864
  610MOL0     C80402   3.511  11.354   5.234  0.0320  0.4191  0.4934
  610MOL0     C80403   3.366  11.333   5.181 -0.2369  0.8609  0.2042
  610MOL0     C80404   3.309  11.476   5.140 -0.5951  0.2017 -0.1532
  610MOL0     N80405   3.165  11.459   5.120 -0.2000  0.2682 -0.7013
  610MOL0     C80406   3.083  11.455   5.237 -0.9497 -1.0860 -0.2746
  610MOL0     C80407   2.963  11.472   5.178  0.5232  0.0565 -0.8243
  610MOL0     C80408   2.831  11.466   5.247  1.2525  0.0050  0.3601
  610MOL0     C80409   2.787  11.606   5.287  0.6393  0.2026 -0.1930
  610MOL0     C80410   2.653  11.627   5.375 -0.0138  0.4550  0.9622
  610MOL0     C80411   2.654  11.550   5.504 -0.7442  0.7250  1.0149
  610MOL0     O80412   2.552  11.583   5.595  0.5174 -0.3007  0.5314
  610MOL0     C80413   2.424  11.541   5.592 -0.1979  0.7288 -0.0972
  610MOL0     C80414   2.316  11.636   5.594  0.1809  0.4219  0.3036
  610MOL0     C80415   2.186  11.582   5.588 -0.6414 -0.1333  0.4006
  610MOL0     C80416   2.154  11.446   5.586 -0.2752 -0.6575  0.2270
  610MOL0     C80417   2.017  11.390   5.583  0.2341  0.4542 -0.6912
  610MOL0     O80418   2.001  11.252   5.580 -0.0940  0.1646 -0.3681
  610MOL0     C80419   1.873  11.215   5.577  0.2211 -0.4629  0.1013
  610MOL0     C80420   1.801  11.159   5.681 -0.1978 -0.6815 -0.1164
  610MOL0     C80421   1.663  11.131   5.660 -0.2464 -0.0714  0.5813
  610MOL0     C80422   1.606  11.155   5.530 -0.2403 -0.9139 -0.3348
  610MOL0     O80423   1.475  11.146   5.501 -0.0406 -0.4818 -0.5060
  610MOL0     C80424   1.370  11.171   5.599 -0.3491  0.1142  0.4816
  610MOL0     C80425   1.310  11.308   5.575 -0.4944 -0.3791  1.4924
  610MOL0     C80426   1.193  11.336   5.669 -0.4372  0.8056  0.4755
  610MOL0     C80427   1.129  11.473   5.663 -0.1465 -0.2225  0.3785
  610MOL0     C80428   0.984  11.480   5.711 -0.0338  0.2078  0.5993
  610MOL0     C80429   0.959  11.463   5.868 -0.8353 -0.1204  0.1414
  610MOL0     C80430   0.818  11.411   5.902  1.0971 -0.3307  0.3647
  610MOL0     C80431   0.790  11.267   5.899  0.1753  0.8486  0.5063
  610MOL0    Cl80432   0.610  11.240   5.930 -0.2286 -0.0795 -0.0471
  610MOL0     C80433   1.689  11.193   5.421 -0.6888 -0.7149 -0.1857
  610MOL0     C80434   1.819  11.213   5.446  0.2897 -0.0596 -0.2125
  610MOL0     O80435   1.929  11.476   5.582 -0.5202 -0.5356 -0.1250
  610MOL0     C80436   2.267  11.362   5.583 -0.1373 -0.0154  0.2497
  610MOL0     C80437   2.401  11.407   5.588 -0.0475  1.0892  0.5942
  610MOL0     N80438   2.971  11.477   5.035  0.6574 -0.3114 -0.8623
  610MOL0     N80439   3.091  11.469   5.006  0.0058 -0.3573  0.9354
  610MOL0     C80440   4.367  11.104   5.554  0.0850 -0.0127  0.4931
  610MOL0     C80441   4.482  11.026   5.599 -0.0637  0.1439  0.2488
  610MOL0     C80442   4.789  10.773   5.743  0.9512  0.6206  0.3551
  610MOL0     C80443   4.859  10.710   5.646 -0.0494  0.0291  1.0191
  610MOL0     C80444   4.994  10.689   5.664  0.2508 -0.1512  0.8643
  610MOL0     C80445   5.064  10.704   5.783  0.2251 -0.5049  0.7950
  610MOL0     O80446   5.198  10.661   5.789 -0.1564  0.1018 -1.0026
  610MOL0     C80447   5.273  10.667   5.915 -0.9439 -0.0712  0.1953
  610MOL0     C80448   5.246  10.541   5.998 -0.1190 -0.5660 -0.1002
  610MOL0     C80449   5.313  10.416   5.943 -0.2053 -0.4816  0.7711
  610MOL0     C80450   5.462  10.421   5.977  0.3224 -0.2596  0.1584
  610MOL0     C80451   5.518  10.291   5.933  0.4855  0.3669  0.6480
  610MOL0     C80452   5.564  10.181   5.895 -0.0522 -0.1667 -0.2342
  610MOL0     C80453   4.991  10.757   5.890 -0.0444  0.0606 -0.7782
  610MOL0     C80454   4.853  10.791   5.869 -0.6588 -0.1598  0.6563
  610MOL0     H80455   4.401  10.731   5.423 -0.3518  0.6790 -2.0802
  610MOL0     H80456   4.233  10.881   5.341  1.1283  0.5955 -1.8304
  610MOL0     H80457   4.005  10.992   5.403  1.7417  0.4765  1.6163
  610MOL0     H80458   4.077  11.061   5.254  0.8426  2.6147 -0.1378
  610MOL0     H80459   3.986  11.279   5.277  1.4262  1.9071  1.1973
  610MOL0     H80460   3.945  11.251   5.443 -1.4898  1.7018 -0.6964
  610MOL0     H80461   3.789  11.057   5.361 -0.1279  0.7338 -0.1250
  610MOL0     H80462   3.805  11.107   5.197 -1.2407 -0.4123  0.4855
  610MOL0     H80463   3.697  11.260   5.433  1.6499  0.6314  0.1509
  610MOL0     H80464   3.755  11.352   5.297  0.0185 -0.0846  2.0682
  610MOL0     H80465   3.514  11.159   5.331  1.9421 -1.7218  0.6274
  610MOL0     H80466   3.595  11.173   5.175 -2.0473 -1.8050  0.4556
  610MOL0     H80467   3.564  11.412   5.158 -0.0102 -0.3407 -0.1221
  610MOL0     H80468   3.511  11.415   5.325 -0.3073  0.4670  0.4625
  610MOL0     H80469   3.364  11.259   5.100  0.2499  3.4481 -2.3578
  610MOL0     H80470   3.311  11.301   5.269  1.8729 -1.6699  0.7287
  610MOL0     H80471   3.354  11.518   5.050 -0.0481 -3.2088 -1.6529
  610MOL0     H80472   3.334  11.548   5.218  0.4965  2.7062 -2.6685
  610MOL0     H80473   3.097  11.449   5.344  1.3295  0.0376 -0.4544
  610MOL0     H80474   2.822  11.406   5.338  1.6203 -0.1990  0.2647
  610MOL0     H80475   2.764  11.419   5.175 -0.5472  4.3934 -1.1619
  610MOL0     H80476   2.766  11.651   5.189  1.1195  0.4633 -0.1769
  610MOL0     H80477   2.875  11.650   5.333  2.8064 -3.9393  0.1121
  610MOL0     H80478   2.637  11.735   5.382 -0.1032  0.6353 -1.3395
  610MOL0     H80479   2.572  11.595   5.308  2.8201 -0.5161 -2.2867
  610MOL0     H80480   2.749  11.569   5.554 -0.2511  4.6159 -1.0291
  610MOL0     H80481   2.644  11.442   5.488 -2.1015  1.1990 -2.1265
  610MOL0     H80482   2.338  11.742   5.585 -1.8850  0.7211 -2.2761
  610MOL0     H80483   2.101  11.650   5.589  0.3434  1.1507 -0.7333
  610MOL0     H80484   1.840  11.149   5.782  0.6774 -5.2355 -0.6948
  610MOL0     H80485   1.596  11.090   5.734 -1.6854 -0.7343 -1.0173
  610MOL0     H80486   1.411  11.172   5.700 -1.9013 -0.8125  1.1684
  610MOL0     H80487   1.291  11.095   5.596  2.2281 -2.7553 -0.2521
  610MOL0     H80488   1.263  11.305   5.476  1.3931  0.0635  0.5397
  610MOL0     H80489   1.381  11.391   5.570 -2.2533  1.1182 -0.2693
  610MOL0     H80490   1.234  11.314   5.768 -0.3443  2.0245  0.7339
  610MOL0     H80491   1.116  11.259   5.664  3.1750 -3.0477 -1.4016
  610MOL0     H80492   1.189  11.542   5.723 -0.4333  0.1766  0.2067
  610MOL0     H80493   1.120  11.501   5.557  0.2858  4.8342  1.4167
  610MOL0     H80494   0.926  11.403   5.659  0.1964 -0.5647  1.4706
  610MOL0     H80495   0.950  11.580   5.683 -0.0715  0.3002  0.9796
  610MOL0     H80496   0.984  11.555   5.922 -0.6504  1.3153 -2.2646
  610MOL0     H80497   1.035  11.392   5.902  0.0504  0.0595 -1.3722
  610MOL0     H80498   0.790  11.456   5.998  0.5965  3.0185 -1.2081
  610MOL0     H80499   0.747  11.456   5.833  2.7540 -1.2590 -2.0580
  610MOL0     H80500   0.851  11.218   5.976  1.7761  2.8552  0.5942
  610MOL0     H80501   0.818  11.223   5.803  2.1081 -1.0833  1.8461
  610MOL0     H80502   1.641  11.220   5.327  1.9859  0.2928 -1.3558
  610MOL0     H80503   1.874  11.250   5.359  1.0428  2.6748  1.2983
  610MOL0     H80504   2.247  11.255   5.582 -1.8113  0.2745  0.4513
  610MOL0     H80505   2.473  11.326   5.603 -1.1210  0.2388  1.2951
  610MOL0     H80506   4.355  11.200   5.604 -2.2105  0.2622 -0.4714
  610MOL0     H80507   4.557  11.068   5.665 -0.0206 -0.1066  0.3585
  610MOL0     H80508   4.818  10.696   5.546  2.1613  0.4623 -0.0227
  610MOL0     H80509   5.052  10.657   5.578 -0.2529 -1.9045  1.1314
  610MOL0     H80510   5.267  10.753   5.981  0.0641  0.0811  0.1097
  610MOL0     H80511   5.377  10.672   5.882  0.2533 -1.3457  3.4398
  610MOL0     H80512   5.276  10.552   6.103 -1.9956 -1.4547  0.5694
  610MOL0     H80513   5.138  10.523   6.004 -0.2637  0.0362 -0.7443
  610MOL0     H80514   5.291  10.405   5.836 -2.4956 -2.5348  1.3458
  610MOL0     H80515   5.264  10.336   6.000 -2.0519  0.3122  0.3683
  610MOL0     H80516   5.512  10.503   5.925 -2.4780  2.1032  0.9163
  610MOL0     H80517   5.478  10.420   6.085  0.1024 -4.2128  0.3024
  610MOL0     H80518   5.599  10.085   5.862 -1.4035 -0.7678  0.0329
  610MOL0     H80519   5.037  10.766   5.988  1.8952  1.9502 -1.7806
  610MOL0     H80520   4.793  10.833   5.949 -0.4814 -1.2087  1.3617
  611MOL0     O80521   4.845   2.164   7.112 -0.8475 -0.5041 -0.6112
  611MOL0     C80522   4.816   2.055   7.076 -0.0842  0.6053  0.4347
  611MOL0     O80523   4.693   2.023   7.027  0.6189  0.3212 -0.1167
  611MOL0     C80524   4.574   2.084   7.060 -0.6584  1.0694  0.0677
  611MOL0     C80525   4.467   2.033   6.983  0.4605 -0.2536  0.1798
  611MOL0     C80526   4.342   2.086   7.001  0.7829 -0.0980  0.6080
  611MOL0     C80527   4.316   2.185   7.094 -0.1218 -0.0163  0.8995
  611MOL0     O80528   4.198   2.248   7.113  0.3663 -0.8606 -0.7963
  611MOL0     C80529   4.080   2.230   7.038 -0.6106  0.0731 -0.2514
  611MOL0     C80530   3.972   2.310   7.118 -0.0277  0.9786  0.3994
  611MOL0     C80531   3.833   2.298   7.063  0.5171 -1.1295  0.7722
  611MOL0     C80532   3.789   2.161   7.014  0.4535  0.3066  0.0989
  611MOL0     C80533   3.664   2.166   6.923 -0.0746  0.4490  0.5399
  611MOL0     C80534   3.706   2.197   6.772  0.1086 -0.0621  0.3464
  611MOL0     C80535   3.580   2.239   6.693  0.2541 -0.4010  0.1993
  611MOL0     C80536   3.468   2.139   6.695 -0.2417 -0.2289 -0.1827
  611MOL0     N80537   3.347   2.189   6.637  0.4528 -0.2209  0.1193
  611MOL0     C80538   3.283   2.152   6.521  0.1002 -0.1179 -0.1774
  611MOL0     C80539   3.176   2.234   6.506 -0.6163  0.7233  0.2446
  611MOL0     C80540   3.087   2.248   6.390  0.1852 -0.2129 -0.1070
  611MOL0     C80541   3.029   2.111   6.348 -0.8694 -0.0102  0.1621
  611MOL0     C80542   2.919   2.142   6.242  0.2028 -0.8411 -0.0999
  611MOL0     C80543   2.821   2.026   6.211 -0.0045 -0.9187  0.6589
  611MOL0     O80544   2.705   2.090   6.146  0.3061  0.2572 -0.3829
  611MOL0     C80545   2.623   1.998   6.078 -0.0224 -0.1900  0.1526
  611MOL0     C80546   2.505   1.963   6.141 -0.4386  0.8537  0.6642
  611MOL0     C80547   2.429   1.865   6.085  0.3599  0.3824 -0.6581
  611MOL0     C80548   2.449   1.823   5.953  0.7947  0.7357 -0.1434
  611MOL0     C80549   2.344   1.767   5.866  0.7581  0.2462 -1.6408
  611MOL0     O80550   2.247   1.703   5.942 -0.0198 -0.4451  0.1792
  611MOL0     C80551   2.127   1.679   5.871 -0.7945 -0.2457 -0.1948
  611MOL0     C80552   2.036   1.779   5.858  0.6570 -0.0725 -0.0707
  611MOL0     C80553   1.930   1.758   5.765 -0.4791  0.1609 -0.1428
  611MOL0     C80554   1.910   1.637   5.700  0.4669  0.1448 -0.2275
  611MOL0     O80555   1.801   1.606   5.619 -0.2999 -0.2420  0.0894
  611MOL0     C80556   1.711   1.710   5.574  0.2731  0.0014 -0.6660
  611MOL0     C80557   1.606   1.666   5.474 -0.7435  0.0411  0.7565
  611MOL0     C80558   1.510   1.567   5.535  0.5431 -0.5489  0.3311
  611MOL0     C80559   1.394   1.536   5.438  0.2042 -0.6189 -0.6054
  611MOL0     C80560   1.278   1.476   5.520  0.4613 -0.2038 -0.0876
  611MOL0     C80561   1.164   1.460   5.418  0.2932 -0.2596  0.8547
  611MOL0     C80562   1.023   1.453   5.477 -0.0798 -0.5574 -0.3453
  611MOL0     C80563   0.989   1.569   5.565  0.3157  0.9584 -0.7578
  611MOL0    Cl80564   1.026   1.728   5.490  0.0725  0.1862 -0.0473
  611MOL0     C80565   1.997   1.533   5.729 -0.7212 -0.8660 -0.0049
  611MOL0     C80566   2.106   1.556   5.806 -0.1066  0.0087 -0.0065
  611MOL0     O80567   2.341   1.778   5.744  0.4020 -0.3175  0.3847
  611MOL0     C80568   2.570   1.854   5.896 -0.7949 -0.0918 -0.1475
  611MOL0     C80569   2.662   1.939   5.958 -0.0958 -0.0418  0.0995
  611MOL0     N80570   3.182   2.320   6.608  0.6653 -0.3742  0.0806
  611MOL0     N80571   3.272   2.289   6.693  0.4496  0.3197  0.2155
  611MOL0     C80572   4.423   2.224   7.181 -0.5126  0.8205  0.4798
  611MOL0     C80573   4.552   2.173   7.160 -0.6714  0.1868  0.0387
  611MOL0     C80574   4.928   1.952   7.099  0.0293  0.9916  0.7907
  611MOL0     C80575   4.935   1.834   7.014 -0.6546 -1.1627  0.3688
  611MOL0     C80576   5.047   1.753   7.025  0.2075 -0.3256 -0.3491
  611MOL0     C80577   5.154   1.779   7.118  1.0371  0.6480  0.2391
  611MOL0     O80578   5.262   1.689   7.133 -0.0774  0.2454  0.1476
  611MOL0     C80579   5.391   1.740   7.149  0.3029  0.0265 -0.1464
  611MOL0     C80580   5.486   1.721   7.034 -0.6460 -0.1559 -0.4577
  611MOL0     C80581   5.631   1.739   7.084 -0.0005 -0.2563  0.4690
  611MOL0     C80582   5.742   1.735   6.976 -0.1759  0.6863  0.3649
  611MOL0     C80583   5.871   1.759   7.052  0.1818 -0.8073 -0.3734
  611MOL0     C80584   5.979   1.777   7.101 -0.4394 -0.0066  0.6470
  611MOL0     C80585   5.146   1.896   7.190  0.4301 -0.4093 -0.3925
  611MOL0     C80586   5.027   1.974   7.188 -0.3729 -0.0429 -1.1630
  611MOL0     H80587   4.480   1.954   6.910 -1.6649 -0.0195 -0.5289
  611MOL0     H80588   4.260   2.036   6.952  0.0647  0.8852  0.7913
  611MOL0     H80589   4.062   2.124   7.018 -0.1823  0.4774 -3.2601
  611MOL0     H80590   4.098   2.269   6.937  2.3633 -1.1775 -0.2945
  611MOL0     H80591   4.003   2.415   7.127  1.5164  0.6533 -0.7241
  611MOL0     H80592   3.974   2.278   7.222 -0.0083 -1.1407 -0.2171
  611MOL0     H80593   3.835   2.366   6.977  2.3986 -4.1257 -1.8190
  611MOL0     H80594   3.765   2.338   7.138  1.8004 -3.1462  3.1738
  611MOL0     H80595   3.865   2.108   6.955  0.1157 -2.8950  2.2939
  611MOL0     H80596   3.770   2.106   7.107  1.7561 -1.4601 -0.6060
  611MOL0     H80597   3.585   2.237   6.949  0.1311  1.2250 -0.8333
  611MOL0     H80598   3.622   2.065   6.916  0.7824  0.1507 -0.7424
  611MOL0     H80599   3.758   2.116   6.720 -0.8296 -0.7972  0.5127
  611MOL0     H80600   3.765   2.288   6.782  1.0740 -0.7119  0.7128
  611MOL0     H80601   3.537   2.332   6.731 -4.6800 -3.0530  2.0055
  611MOL0     H80602   3.618   2.251   6.591  0.6431 -2.2510  0.0905
  611MOL0     H80603   3.448   2.112   6.799  0.2760  0.3906  0.0855
  611MOL0     H80604   3.500   2.049   6.641  0.0015 -0.8514  0.9551
  611MOL0     H80605   3.317   2.079   6.448 -0.9248 -1.6960  0.8526
  611MOL0     H80606   3.147   2.292   6.309 -1.9184 -0.6242 -1.9819
  611MOL0     H80607   3.007   2.315   6.419 -0.7020 -1.5224  0.5813
  611MOL0     H80608   2.988   2.057   6.433  0.4658 -1.8863 -0.3146
  611MOL0     H80609   3.096   2.032   6.312 -3.0823 -1.8385 -0.1666
  611MOL0     H80610   2.852   2.222   6.276 -0.2326 -1.2457 -0.0031
  611MOL0     H80611   2.967   2.184   6.153  0.7400  0.8414  0.9240
  611MOL0     H80612   2.792   1.970   6.300  1.8115 -1.7201  0.7871
  611MOL0     H80613   2.873   1.954   6.147  0.5302  0.1820 -0.1883
  611MOL0     H80614   2.477   1.996   6.241 -0.4625 -2.8760  2.0425
  611MOL0     H80615   2.347   1.830   6.147  1.1862  0.4470  0.5042
  611MOL0     H80616   2.046   1.870   5.916  0.2154  1.6903 -2.5890
  611MOL0     H80617   1.860   1.841   5.757 -1.5348 -0.7679 -0.7920
  611MOL0     H80618   1.771   1.791   5.530  1.4210  1.6967  3.5329
  611MOL0     H80619   1.667   1.756   5.663  4.5925 -0.9001  2.2225
  611MOL0     H80620   1.660   1.622   5.390  0.8497 -0.5320  2.0297
  611MOL0     H80621   1.552   1.752   5.432  1.3022  1.4008  0.7479
  611MOL0     H80622   1.466   1.617   5.622  0.6042 -0.6391  0.4146
  611MOL0     H80623   1.553   1.474   5.574 -0.3189 -0.3898  1.7578
  611MOL0     H80624   1.362   1.628   5.388  1.2359  0.0934  0.0180
  611MOL0     H80625   1.418   1.465   5.358 -0.5354  0.4048 -1.7698
  611MOL0     H80626   1.250   1.544   5.602  0.6671 -0.4395  0.1809
  611MOL0     H80627   1.322   1.384   5.559 -0.6576 -0.1989  1.2890
  611MOL0     H80628   1.194   1.375   5.355  1.4931  0.4749  0.3971
  611MOL0     H80629   1.173   1.547   5.352  1.4194 -1.2777 -0.4028
  611MOL0     H80630   0.954   1.433   5.394 -1.9488  1.0501  0.7446
  611MOL0     H80631   1.005   1.359   5.530  0.2464 -1.7876 -2.3019
  611MOL0     H80632   1.042   1.567   5.661 -1.0850  0.1569  0.0308
  611MOL0     H80633   0.879   1.570   5.569  0.2435  0.3900 -2.1360
  611MOL0     H80634   1.979   1.432   5.693 -1.5215 -0.1448 -1.6813
  611MOL0     H80635   2.184   1.484   5.827 -1.3663 -1.2258  0.6016
  611MOL0     H80636   2.585   1.818   5.794  0.1449 -1.4568  0.4466
  611MOL0     H80637   2.759   1.974   5.925  0.1027  2.1869  2.6579
  611MOL0     H80638   4.394   2.294   7.259 -0.6896 -1.1686  2.2745
  611MOL0     H80639   4.639   2.200   7.218 -0.3889 -0.4553 -0.0686
  611MOL0     H80640   4.876   1.827   6.923 -1.5289  2.4518  0.5046
  611MOL0     H80641   5.069   1.673   6.954  1.9097  1.3019 -1.7427
  611MOL0     H80642   5.425   1.683   7.236 -1.7774 -0.2848  0.5183
  611MOL0     H80643   5.399   1.844   7.183  4.7091  0.2714 -1.3799
  611MOL0     H80644   5.471   1.616   7.005  1.3681 -0.2879 -1.1397
  611MOL0     H80645   5.463   1.775   6.941  4.0779 -2.2462 -3.1838
  611MOL0     H80646   5.661   1.670   7.164 -1.3516 -2.4825 -0.8430
  611MOL0     H80647   5.637   1.841   7.123  1.8064 -1.1029  2.6419
  611MOL0     H80648   5.739   1.644   6.916  0.4941 -0.2618  1.7308
  611MOL0     H80649   5.731   1.823   6.911 -0.4962  1.2883  1.2108
  611MOL0     H80650   6.081   1.786   7.132  0.3808 -2.2215 -1.1046
  611MOL0     H80651   5.228   1.930   7.253 -1.3041  1.0376  1.2016
  611MOL0     H80652   5.027   2.062   7.251  2.8152 -0.1768 -0.8079
  612MOL0     O80653   3.723   6.522   4.997 -0.2832  0.8841  0.4289
  612MOL0     C80654   3.748   6.557   5.112  0.2237 -0.6475 -0.6629
  612MOL0     O80655   3.651   6.568   5.216 -0.8516 -0.3511 -0.4343
  612MOL0     C80656   3.519   6.575   5.186 -0.1155 -0.2483  0.3809
  612MOL0     C80657   3.433   6.477   5.234 -0.5422 -0.4902  0.7010
  612MOL0     C80658   3.298   6.464   5.192  0.5718  0.4401 -0.0209
  612MOL0     C80659   3.241   6.567   5.113  0.7836  0.1868  0.2693
  612MOL0     O80660   3.100   6.551   5.087  0.3072 -1.0662  0.6793
  612MOL0     C80661   3.052   6.582   4.949  0.9836 -0.1167  0.0285
  612MOL0     C80662   2.920   6.516   4.892 -0.5410 -0.3138 -0.9382
  612MOL0     C80663   2.808   6.515   4.994  0.8104  0.2394  0.2798
  612MOL0     C80664   2.681   6.463   4.917 -0.5441  0.0184 -0.7214
  612MOL0     C80665   2.562   6.445   5.013  0.3578 -0.5684 -0.3694
  612MOL0     C80666   2.436   6.429   4.930 -0.3183  0.8835  0.3868
  612MOL0     C80667   2.310   6.447   5.023  0.3053  0.1081 -0.5506
  612MOL0     C80668   2.178   6.391   4.969 -0.5000 -0.8721 -0.9147
  612MOL0     N80669   2.181   6.264   4.901  0.2233  0.3091 -0.0704
  612MOL0     C80670   2.234   6.249   4.777  0.1715  0.1102  0.2236
  612MOL0     C80671   2.268   6.117   4.773 -0.7323 -0.5751  0.5987
  612MOL0     C80672   2.357   6.064   4.669  0.1613  0.4359  0.3687
  612MOL0     C80673   2.286   6.041   4.531 -0.7825  0.4232  0.4170
  612MOL0     C80674   2.179   5.932   4.534  0.0344 -0.8104  0.5822
  612MOL0     C80675   2.047   5.968   4.602  0.6521  0.1339  0.2017
  612MOL0     O80676   1.982   6.082   4.546  0.2127 -0.0959  0.4411
  612MOL0     C80677   1.860   6.105   4.589  0.4566  0.5846 -0.7804
  612MOL0     C80678   1.844   6.237   4.631 -0.2438 -0.2967 -0.2625
  612MOL0     C80679   1.726   6.282   4.692 -0.5773  0.3732 -0.2989
  612MOL0     C80680   1.623   6.193   4.714  1.2364 -0.4476  0.2430
  612MOL0     C80681   1.502   6.241   4.790 -0.4634 -0.0079 -0.7881
  612MOL0     O80682   1.419   6.139   4.834 -0.5033  0.2062 -0.9973
  612MOL0     C80683   1.306   6.171   4.899 -0.2957 -0.0365  0.5308
  612MOL0     C80684   1.248   6.285   4.943 -0.2281  0.2236  0.1580
  612MOL0     C80685   1.123   6.289   5.008  0.3474  0.2581  0.5984
  612MOL0     C80686   1.057   6.166   5.034 -0.8430 -0.6760  0.5615
  612MOL0     O80687   0.931   6.172   5.094  0.5334 -0.4015 -0.0634
  612MOL0     C80688   0.884   6.048   5.147  0.3053  0.8165 -0.2809
  612MOL0     C80689   0.743   6.084   5.168  0.2847 -0.2950 -0.5765
  612MOL0     C80690   0.709   6.163   5.289  0.7227 -0.6756  0.1235
  612MOL0     C80691   0.557   6.177   5.310 -0.0048 -0.3441  0.1838
  612MOL0     C80692   0.511   6.309   5.244 -0.0453 -0.9038  0.1102
  612MOL0     C80693   0.363   6.359   5.249  0.0914 -0.2543  0.2673
  612MOL0     C80694   0.270   6.239   5.262  0.3599  0.5036  0.0813
  612MOL0     C80695   0.125   6.273   5.278  0.3072  1.1410 -0.1459
  612MOL0    Cl80696   0.113   6.351   5.432 -0.1532 -0.3216  0.0705
  612MOL0     C80697   1.112   6.048   4.983  0.1098 -0.2671 -0.2634
  612MOL0     C80698   1.235   6.052   4.910  0.7455  0.1430 -0.3742
  612MOL0     O80699   1.486   6.363   4.801 -0.1468  0.4247  0.1081
  612MOL0     C80700   1.625   6.061   4.667  0.6952 -0.0064 -0.0420
  612MOL0     C80701   1.747   6.014   4.609 -0.2376 -0.2000  0.7899
  612MOL0     N80702   2.235   6.049   4.886  0.3119  0.0672 -0.0476
  612MOL0     N80703   2.180   6.138   4.970  0.0680 -0.1036 -0.1053
  612MOL0     C80704   3.324   6.669   5.073  0.3224  0.0549 -0.9583
  612MOL0     C80705   3.458   6.683   5.114 -0.2593  0.5668  0.9566
  612MOL0     C80706   3.891   6.576   5.152 -0.2073 -0.8684  0.6519
  612MOL0     C80707   3.990   6.599   5.059 -0.4402 -0.2079  1.0685
  612MOL0     C80708   4.124   6.610   5.100  0.6208  0.3462  0.4730
  612MOL0     C80709   4.163   6.601   5.230  0.1509  0.8420 -1.0677
  612MOL0     O80710   4.292   6.601   5.282  0.7134  0.4153  0.8594
  612MOL0     C80711   4.402   6.611   5.182  0.6856 -0.3546 -1.1442
  612MOL0     C80712   4.530   6.609   5.267 -0.7020 -0.3711  0.5441
  612MOL0     C80713   4.655   6.572   5.187 -0.4891  0.7712  0.4393
  612MOL0     C80714   4.783   6.617   5.251  0.5624  0.0281  0.2061
  612MOL0     C80715   4.802   6.765   5.260  0.6220 -0.7515  0.6990
  612MOL0     C80716   4.812   6.888   5.271 -0.4722  0.2734  0.0245
  612MOL0     C80717   4.065   6.586   5.329 -0.6741  0.0621  0.1196
  612MOL0     C80718   3.936   6.573   5.288 -0.2903  0.2423  0.1589
  612MOL0     H80719   3.480   6.408   5.303  2.1155  3.9535  3.8677
  612MOL0     H80720   3.235   6.386   5.232  0.5191  0.6308  0.2733
  612MOL0     H80721   3.134   6.558   4.880  0.3898 -1.0720 -0.3603
  612MOL0     H80722   3.049   6.691   4.955  2.1224 -0.1074  0.9854
  612MOL0     H80723   2.946   6.413   4.866  1.7089 -1.1028  3.5313
  612MOL0     H80724   2.906   6.577   4.802 -0.1892  0.2848 -0.5962
  612MOL0     H80725   2.798   6.608   5.051 -1.6212 -0.1207  0.5564
  612MOL0     H80726   2.838   6.436   5.063  0.5447 -1.3610 -1.3502
  612MOL0     H80727   2.659   6.539   4.842 -2.9258  1.3560  1.2207
  612MOL0     H80728   2.697   6.367   4.867 -2.3473 -1.3358  1.1300
  612MOL0     H80729   2.551   6.534   5.076 -0.6983 -1.0210  0.1078
  612MOL0     H80730   2.575   6.356   5.076 -1.2553  0.2302  1.1639
  612MOL0     H80731   2.442   6.331   4.882  1.8472  1.1782 -0.0528
  612MOL0     H80732   2.427   6.501   4.848 -1.5630 -1.2582 -1.4716
  612MOL0     H80733   2.330   6.382   5.108 -1.2424  0.4851  0.1291
  612MOL0     H80734   2.296   6.550   5.056  1.9642  0.0093  0.5712
  612MOL0     H80735   2.140   6.461   4.894 -1.0335 -0.0979  0.0410
  612MOL0     H80736   2.118   6.384   5.061  2.8191 -0.4327  1.4671
  612MOL0     H80737   2.260   6.330   4.710  2.5315  1.4421  2.5403
  612MOL0     H80738   2.393   5.964   4.693 -2.4160  0.0632  3.1502
  612MOL0     H80739   2.446   6.127   4.653 -1.4011  2.0302 -2.9839
  612MOL0     H80740   2.359   6.004   4.458 -1.4221  0.7512 -0.4025
  612MOL0     H80741   2.250   6.132   4.482  2.2538  1.4963 -0.0304
  612MOL0     H80742   2.151   5.899   4.433 -0.3838 -1.0900  0.7865
  612MOL0     H80743   2.225   5.846   4.583  1.2555 -0.5080 -0.0115
  612MOL0     H80744   2.059   5.985   4.709 -0.4349 -0.8312  0.4948
  612MOL0     H80745   1.983   5.880   4.591  0.4426  0.5310 -2.4598
  612MOL0     H80746   1.925   6.308   4.619  0.2372 -0.6942  0.5442
  612MOL0     H80747   1.717   6.388   4.712  2.2206  0.5542  0.4141
  612MOL0     H80748   1.301   6.376   4.915 -2.3907  2.1970  2.0767
  612MOL0     H80749   1.073   6.383   5.025  0.0723  0.0449  0.9713
  612MOL0     H80750   0.944   6.019   5.234 -0.5925  0.3727  0.1969
  612MOL0     H80751   0.884   5.962   5.080 -3.5906  1.6408 -1.5505
  612MOL0     H80752   0.692   5.989   5.186 -1.7389  0.7478 -0.6072
  612MOL0     H80753   0.702   6.125   5.076  0.3921  0.0120 -0.4916
  612MOL0     H80754   0.760   6.260   5.280  0.2286 -0.5268 -1.2584
  612MOL0     H80755   0.753   6.122   5.381  0.2314  0.8752  1.0735
  612MOL0     H80756   0.499   6.090   5.275 -0.4575 -0.8985  2.1844
  612MOL0     H80757   0.537   6.180   5.417  0.6057  0.6623  0.2806
  612MOL0     H80758   0.546   6.322   5.141 -0.9068  1.3809  0.0504
  612MOL0     H80759   0.566   6.387   5.297 -1.8791  1.1845 -0.9418
  612MOL0     H80760   0.339   6.417   5.160 -1.9792 -0.1145  0.8526
  612MOL0     H80761   0.342   6.432   5.327 -1.2710  2.9784 -2.8748
  612MOL0     H80762   0.276   6.167   5.179 -2.0624 -0.6770  0.8381
  612MOL0     H80763   0.310   6.187   5.349  1.3187  3.0798  1.2631
  612MOL0     H80764   0.064   6.184   5.264  0.0344  1.3968 -0.5712
  612MOL0     H80765   0.104   6.337   5.192 -0.4071 -0.1032 -0.9256
  612MOL0     H80766   1.056   5.954   4.982  2.4337 -1.8477  2.5395
  612MOL0     H80767   1.278   5.957   4.879 -0.2472 -0.3067 -0.4255
  612MOL0     H80768   1.539   5.997   4.683  1.7498 -1.9984 -1.7914
  612MOL0     H80769   1.755   5.908   4.585 -0.5230  0.2518 -1.4466
  612MOL0     H80770   3.285   6.745   5.007  0.4310  0.4708 -0.5497
  612MOL0     H80771   3.528   6.756   5.078 -0.5318  0.1699 -0.4466
  612MOL0     H80772   3.966   6.604   4.953 -1.0304  0.4795  1.2256
  612MOL0     H80773   4.190   6.615   5.014  2.2758 -0.2178  1.6708
  612MOL0     H80774   4.389   6.700   5.119  0.1187  0.2944 -0.1391
  612MOL0     H80775   4.386   6.532   5.109  0.9199 -1.3224 -0.1759
  612MOL0     H80776   4.540   6.706   5.317  0.4906 -1.1881  1.9679
  612MOL0     H80777   4.510   6.539   5.349  0.6792 -1.2472  0.1792
  612MOL0     H80778   4.652   6.626   5.092 -0.7832 -1.4129 -0.8550
  612MOL0     H80779   4.651   6.463   5.175 -3.1397  0.8972 -0.5713
  612MOL0     H80780   4.785   6.573   5.351 -1.3676  0.8297  0.6404
  612MOL0     H80781   4.863   6.582   5.186  0.7132 -0.2179  0.5205
  612MOL0     H80782   4.812   6.995   5.282  1.8072  0.2110  1.3518
  612MOL0     H80783   4.084   6.569   5.434 -1.2486  0.0171  0.2230
  612MOL0     H80784   3.860   6.546   5.361 -0.2225 -1.2714 -0.2954
  613MOL0     O80785   1.502   1.924   9.061 -0.3595 -1.3368  0.7147
  613MOL0     C80786   1.505   1.813   9.002  0.6780 -0.7771  0.8210
  613MOL0     O80787   1.415   1.777   8.902 -0.7746  0.2659  0.9277
  613MOL0     C80788   1.296   1.837   8.873  0.5569  0.5429 -0.1761
  613MOL0     C80789   1.212   1.898   8.965  0.3697 -0.1961 -0.0617
  613MOL0     C80790   1.081   1.930   8.926 -0.0180  0.2460  0.1539
  613MOL0     C80791   1.046   1.910   8.793 -0.6799 -0.3403  0.5442
  613MOL0     O80792   0.935   1.961   8.727  0.3641 -0.1715 -0.5595
  613MOL0     C80793   0.850   2.037   8.812 -0.0551 -0.1731  0.4037
  613MOL0     C80794   0.731   2.079   8.734  0.2233 -0.7138 -0.0551
  613MOL0     C80795   0.760   2.181   8.628 -0.9510  0.2827 -0.1351
  613MOL0     C80796   0.628   2.264   8.588 -0.6131 -0.0918  0.1480
  613MOL0     C80797   0.626   2.343   8.461 -0.1543  0.1220  0.6894
  613MOL0     C80798   0.756   2.432   8.452 -0.1027  0.0734  0.6235
  613MOL0     C80799   0.767   2.482   8.312  0.3338 -0.0747  0.3298
  613MOL0     C80800   0.783   2.369   8.215  0.0189 -0.0159 -0.2009
  613MOL0     N80801   0.890   2.404   8.120 -0.2243 -0.2124  0.7182
  613MOL0     C80802   1.025   2.404   8.141  0.2171 -0.6693 -0.7717
  613MOL0     C80803   1.076   2.460   8.030  0.1394  0.2848  0.1758
  613MOL0     C80804   1.211   2.504   7.998 -0.4011 -0.2140 -0.0510
  613MOL0     C80805   1.245   2.607   8.092 -0.1636 -0.1713 -0.2138
  613MOL0     C80806   1.380   2.677   8.050  0.7071 -1.1115  0.1936
  613MOL0     C80807   1.400   2.795   8.144  0.3020 -0.1017 -0.1803
  613MOL0     O80808   1.524   2.862   8.100  0.5987  0.0706 -0.6084
  613MOL0     C80809   1.649   2.811   8.116 -1.2817  0.4676  0.1903
  613MOL0     C80810   1.687   2.693   8.184  0.4333 -0.8942 -1.8653
  613MOL0     C80811   1.820   2.649   8.191  0.1765 -0.6446  0.3938
  613MOL0     C80812   1.920   2.729   8.131  0.9408 -0.5327 -0.3142
  613MOL0     C80813   2.063   2.688   8.138  0.1971  0.8318  0.2009
  613MOL0     O80814   2.152   2.754   8.070 -0.3500 -0.3081 -0.7256
  613MOL0     C80815   2.280   2.708   8.058 -1.0220  0.7725 -0.5456
  613MOL0     C80816   2.363   2.663   8.168  0.0939 -0.4290  0.9308
  613MOL0     C80817   2.499   2.635   8.152  0.1535  0.8897 -0.2059
  613MOL0     C80818   2.552   2.650   8.025 -1.1918  1.0357  0.5635
  613MOL0     O80819   2.691   2.632   8.004 -0.2546 -0.3624 -0.0153
  613MOL0     C80820   2.773   2.548   8.095 -0.1868  0.4380 -0.0886
  613MOL0     C80821   2.903   2.534   8.022  0.5175 -0.1907  0.0075
  613MOL0     C80822   3.001   2.455   8.098  0.7770 -0.1493 -0.2586
  613MOL0     C80823   3.145   2.468   8.043 -0.0001 -0.9334  0.8929
  613MOL0     C80824   3.232   2.407   8.147  0.0178 -0.0794 -0.7269
  613MOL0     C80825   3.374   2.394   8.102 -0.6412 -0.8564 -0.2189
  613MOL0     C80826   3.463   2.357   8.226  1.2171 -0.2160 -0.0009
  613MOL0     C80827   3.595   2.297   8.190  0.2388 -0.1240  0.5117
  613MOL0    Cl80828   3.707   2.413   8.104 -0.0633 -0.1036 -0.0995
  613MOL0     C80829   2.469   2.690   7.919 -0.1018 -0.0960 -0.2151
  613MOL0     C80830   2.337   2.720   7.934  0.0733  0.1539  0.0800
  613MOL0     O80831   2.078   2.568   8.183  0.0625 -0.6870 -0.3721
  613MOL0     C80832   1.882   2.853   8.080 -0.2289  0.1912 -0.0369
  613MOL0     C80833   1.747   2.893   8.064 -0.1702  0.0149  0.2929
  613MOL0     N80834   0.969   2.478   7.940 -0.4290 -0.0188 -1.0070
  613MOL0     N80835   0.858   2.445   7.998  0.0028  0.1708 -0.6740
  613MOL0     C80836   1.140   1.849   8.707  0.1750 -0.0853  0.0100
  613MOL0     C80837   1.260   1.816   8.746 -0.2632  1.5246  0.7599
  613MOL0     C80838   1.606   1.708   9.044  0.0220  0.0528  0.4873
  613MOL0     C80839   1.609   1.580   8.982  0.0756 -0.0913 -0.2990
  613MOL0     C80840   1.700   1.485   9.016  0.1054  0.0738 -0.6539
  613MOL0     C80841   1.803   1.519   9.107 -1.1142 -0.3851  0.0118
  613MOL0     O80842   1.906   1.431   9.107 -1.0764  0.6427  0.6580
  613MOL0     C80843   2.030   1.460   9.176 -0.2587  0.4754  0.5056
  613MOL0     C80844   2.144   1.380   9.128 -0.6894  0.8965  0.1399
  613MOL0     C80845   2.276   1.403   9.197 -0.6717  0.0141 -0.6632
  613MOL0     C80846   2.308   1.301   9.309 -0.1753  0.1362 -0.2258
  613MOL0     C80847   2.205   1.293   9.414  0.0851  0.4563 -0.7209
  613MOL0     C80848   2.128   1.277   9.507 -0.7837  0.3999 -0.0334
  613MOL0     C80849   1.800   1.642   9.170  0.4342 -0.7045 -0.4201
  613MOL0     C80850   1.694   1.735   9.146 -0.4176  0.5072  0.4918
  613MOL0     H80851   1.251   1.909   9.065 -1.5634  1.3550  0.5931
  613MOL0     H80852   1.014   1.977   8.997  1.2308  3.7405 -0.7745
  613MOL0     H80853   0.906   2.125   8.845 -1.0227  0.2675  0.8861
  613MOL0     H80854   0.824   1.973   8.897  1.9226 -0.8718  0.5404
  613MOL0     H80855   0.652   2.116   8.801  0.7130  0.8932 -0.3204
  613MOL0     H80856   0.692   1.993   8.680  0.4628  0.1676 -1.6809
  613MOL0     H80857   0.802   2.132   8.540  0.4703  0.2407  0.5427
  613MOL0     H80858   0.831   2.256   8.664 -0.6232  0.4282 -1.0598
  613MOL0     H80859   0.540   2.199   8.593 -1.6784  1.2184 -0.5905
  613MOL0     H80860   0.612   2.336   8.669  1.1905  2.0505 -1.2583
  613MOL0     H80861   0.537   2.407   8.455 -0.2785 -0.0932  0.1176
  613MOL0     H80862   0.620   2.275   8.375  0.3879  0.6355  0.2330
  613MOL0     H80863   0.842   2.366   8.463 -1.8224 -2.7019 -1.2713
  613MOL0     H80864   0.755   2.511   8.528  1.0329  1.7549 -1.0032
  613MOL0     H80865   0.680   2.539   8.277  0.5407 -0.1401 -0.3054
  613MOL0     H80866   0.854   2.548   8.307 -0.3727  0.8690  0.3028
  613MOL0     H80867   0.681   2.358   8.176  0.9977 -0.9517 -2.7438
  613MOL0     H80868   0.805   2.273   8.262 -1.0909  0.1264  0.6615
  613MOL0     H80869   1.073   2.376   8.235 -1.3324  1.2509  0.6907
  613MOL0     H80870   1.214   2.531   7.892 -0.2649 -2.4403 -0.6758
  613MOL0     H80871   1.282   2.422   8.015 -1.3391 -0.9203  0.5807
  613MOL0     H80872   1.259   2.573   8.195  1.1027  5.5925  1.9380
  613MOL0     H80873   1.160   2.675   8.099 -0.6391 -0.7462 -0.3790
  613MOL0     H80874   1.459   2.602   8.066  0.2292 -1.1396  2.7991
  613MOL0     H80875   1.384   2.724   7.951  1.6338  1.9458  1.5593
  613MOL0     H80876   1.410   2.772   8.250 -1.2253  4.3605  1.1109
  613MOL0     H80877   1.316   2.864   8.135  0.5749  0.4450  1.3047
  613MOL0     H80878   1.608   2.643   8.240  0.9066 -0.8598 -1.1528
  613MOL0     H80879   1.848   2.556   8.239  1.2994 -1.1554 -1.1618
  613MOL0     H80880   2.318   2.667   8.267  1.2538 -0.4360  1.4764
  613MOL0     H80881   2.555   2.613   8.242 -1.3308  2.0379  1.0603
  613MOL0     H80882   2.723   2.451   8.106 -0.1394  0.3369 -0.7564
  613MOL0     H80883   2.779   2.587   8.197  1.4849 -2.7841  1.1800
  613MOL0     H80884   2.946   2.628   7.988  0.2058 -0.1567 -0.2988
  613MOL0     H80885   2.878   2.478   7.931 -0.7135  0.3235  0.0085
  613MOL0     H80886   2.960   2.353   8.094 -2.2525  0.8797  1.4542
  613MOL0     H80887   2.995   2.485   8.203  0.0355 -2.0460  0.2942
  613MOL0     H80888   3.156   2.422   7.944 -0.6939 -1.1904  0.9352
  613MOL0     H80889   3.166   2.575   8.052 -2.6283 -0.4133  1.6212
  613MOL0     H80890   3.189   2.314   8.184 -0.6869  0.9493  1.2272
  613MOL0     H80891   3.209   2.466   8.237 -1.3744 -1.9555  0.2089
  613MOL0     H80892   3.423   2.482   8.061  0.9840 -1.3334  0.6045
  613MOL0     H80893   3.383   2.311   8.031 -1.4838 -0.7092 -0.5056
  613MOL0     H80894   3.472   2.448   8.286  0.3976 -0.7521  0.9717
  613MOL0     H80895   3.403   2.283   8.279 -2.2035  1.8274 -0.7509
  613MOL0     H80896   3.589   2.203   8.134 -0.1173  0.8370 -1.1397
  613MOL0     H80897   3.646   2.272   8.283  0.0714 -2.4225  0.0467
  613MOL0     H80898   2.513   2.709   7.821 -0.1258 -0.3044 -0.2661
  613MOL0     H80899   2.276   2.762   7.855  1.0602  2.9056  0.6733
  613MOL0     H80900   1.955   2.920   8.035 -1.9373  1.6344 -0.8140
  613MOL0     H80901   1.725   2.987   8.015 -0.2775 -1.0947 -1.9057
  613MOL0     H80902   1.108   1.833   8.605  0.3168  2.3058 -0.4586
  613MOL0     H80903   1.332   1.779   8.673 -0.9494  0.6215  0.5256
  613MOL0     H80904   1.526   1.560   8.915  0.2545  2.1882 -1.2916
  613MOL0     H80905   1.697   1.387   8.969  1.6012 -0.6396  0.6308
  613MOL0     H80906   2.004   1.427   9.276 -0.3417 -1.2907 -0.0677
  613MOL0     H80907   2.042   1.569   9.172  1.5060  0.2811 -1.6732
  613MOL0     H80908   2.110   1.278   9.146 -1.2372  0.0047 -4.6626
  613MOL0     H80909   2.159   1.396   9.020 -1.6823 -2.6092 -0.6418
  613MOL0     H80910   2.280   1.507   9.232  0.3107  0.7770 -2.8466
  613MOL0     H80911   2.357   1.394   9.124 -0.1781  0.7176 -0.2241
  613MOL0     H80912   2.312   1.198   9.272  1.0391 -0.6727  1.9543
  613MOL0     H80913   2.403   1.329   9.355 -0.2446  0.5271 -0.3172
  613MOL0     H80914   2.062   1.268   9.591  1.7168  0.2171  2.0596
  613MOL0     H80915   1.860   1.657   9.259  0.4449 -4.0405  0.2699
  613MOL0     H80916   1.667   1.816   9.212 -1.2685  2.0998 -1.6888
  614MOL0     O80917   3.558  10.634   7.698 -0.8755 -0.1688  0.7580
  614MOL0     C80918   3.593  10.549   7.785 -0.5139 -0.1926  0.2599
  614MOL0     O80919   3.505  10.481   7.861 -0.7677 -0.0734  0.3304
  614MOL0     C80920   3.366  10.482   7.840  0.1259  0.7948 -0.1782
  614MOL0     C80921   3.292  10.432   7.950  0.3272 -0.3091  0.2139
  614MOL0     C80922   3.157  10.414   7.945  0.1520  0.3377  0.4708
  614MOL0     C80923   3.084  10.439   7.828 -0.1363  0.5792 -0.6737
  614MOL0     O80924   2.956  10.406   7.839  0.2013  0.1598  0.7380
  614MOL0     C80925   2.871  10.419   7.716  0.4398  0.1998  0.1325
  614MOL0     C80926   2.721  10.389   7.733 -0.6776  0.0548 -0.4047
  614MOL0     C80927   2.664  10.459   7.850  0.0617 -1.4975 -0.3730
  614MOL0     C80928   2.523  10.435   7.892  0.3121 -0.4333 -0.0335
  614MOL0     C80929   2.483  10.502   8.027 -0.0682  0.7932 -0.1783
  614MOL0     C80930   2.337  10.460   8.048  0.2637  0.1082  0.8185
  614MOL0     C80931   2.234  10.575   7.996 -0.3436  0.3736 -0.4001
  614MOL0     C80932   2.096  10.556   8.057 -0.8667  0.4562  0.1222
  614MOL0     N80933   2.050  10.430   8.009 -0.1995  0.4567 -1.1489
  614MOL0     C80934   1.989  10.406   7.886  0.4343 -0.2255 -1.0060
  614MOL0     C80935   1.951  10.274   7.885 -0.2114 -0.0954  0.7388
  614MOL0     C80936   1.875  10.196   7.787  0.3520 -0.2194  0.6868
  614MOL0     C80937   1.742  10.258   7.741 -0.0394 -0.1810 -0.1245
  614MOL0     C80938   1.758  10.344   7.612 -0.4172 -0.3197  0.1855
  614MOL0     C80939   1.653  10.456   7.591 -0.6136 -0.0721 -0.0752
  614MOL0     O80940   1.528  10.438   7.664 -0.8543  0.4908 -0.2244
  614MOL0     C80941   1.438  10.352   7.617 -0.4276  0.5886 -0.1921
  614MOL0     C80942   1.323  10.348   7.695 -0.2427  0.0383 -0.3492
  614MOL0     C80943   1.218  10.260   7.665 -0.6530  0.5829  0.6747
  614MOL0     C80944   1.230  10.160   7.567 -0.1165  0.6319  0.0003
  614MOL0     C80945   1.122  10.067   7.550 -0.2347 -1.0393 -0.1269
  614MOL0     O80946   1.024  10.063   7.654  0.0844 -0.7211  0.5909
  614MOL0     C80947   0.911   9.979   7.644 -0.1736 -0.4292  0.2747
  614MOL0     C80948   0.813  10.015   7.727 -0.0924  0.7926 -0.1225
  614MOL0     C80949   0.687   9.955   7.718 -0.2422 -0.0884  0.2009
  614MOL0     C80950   0.659   9.852   7.635  0.0045  0.1867  0.4525
  614MOL0     O80951   0.526   9.800   7.636  0.3569 -0.1118 -0.4031
  614MOL0     C80952   0.492   9.686   7.573  0.7166  0.4049  0.2680
  614MOL0     C80953   0.348   9.660   7.618  0.0072 -0.2814  0.1424
  614MOL0     C80954   0.334   9.600   7.760  0.2657 -0.2384  0.7789
  614MOL0     C80955   0.375   9.452   7.757  0.0376  0.0577  0.3493
  614MOL0     C80956   0.297   9.380   7.866 -0.5772 -1.0785  1.0190
  614MOL0     C80957   0.297   9.234   7.844  0.7411 -0.1355  0.3949
  614MOL0     C80958   0.229   9.179   7.964 -0.3671  0.0788 -0.2587
  614MOL0     C80959   0.141   9.061   7.919 -0.5117  0.0748  0.7105
  614MOL0    Cl80960   0.047   8.997   8.053  0.2871  0.1706  0.2692
  614MOL0     C80961   0.760   9.812   7.543 -0.0833  0.2278  0.6988
  614MOL0     C80962   0.881   9.877   7.546 -0.7738  0.2155  0.4049
  614MOL0     O80963   1.125   9.996   7.449  0.4813 -0.6973  0.2617
  614MOL0     C80964   1.351  10.155   7.486  1.0475  0.1078 -0.3871
  614MOL0     C80965   1.445  10.256   7.506 -0.5554 -0.2199  0.2067
  614MOL0     N80966   1.993  10.222   8.004 -0.0593  0.3136  0.5122
  614MOL0     N80967   2.047  10.313   8.081  0.5961 -0.4974 -1.3392
  614MOL0     C80968   3.155  10.482   7.711 -0.5800  0.2443 -0.6517
  614MOL0     C80969   3.296  10.499   7.722  0.6576  0.3003  0.2771
  614MOL0     C80970   3.740  10.528   7.806  0.8633 -0.2123  0.5071
  614MOL0     C80971   3.839  10.605   7.740 -0.2928 -0.6350  0.4298
  614MOL0     C80972   3.972  10.563   7.747  0.7473 -0.1990  0.0661
  614MOL0     C80973   4.019  10.457   7.832  0.2413 -1.1871 -0.9089
  614MOL0     O80974   4.153  10.430   7.840  0.1608 -0.5445  0.2855
  614MOL0     C80975   4.189  10.290   7.871  0.3013 -0.9847 -0.2377
  614MOL0     C80976   4.330  10.248   7.848 -0.1848 -0.1827 -0.7502
  614MOL0     C80977   4.424  10.324   7.941 -0.2977  0.1852 -0.0134
  614MOL0     C80978   4.574  10.279   7.938 -0.0566 -0.8078 -0.1774
  614MOL0     C80979   4.596  10.132   7.939 -0.1558 -0.1212 -0.2409
  614MOL0     C80980   4.623  10.009   7.934  0.7599 -0.3703 -0.0656
  614MOL0     C80981   3.922  10.387   7.904 -0.4637  0.4735 -0.2265
  614MOL0     C80982   3.788  10.426   7.896 -0.0766  0.3650  0.8515
  614MOL0     H80983   3.354  10.402   8.034 -0.1746  1.0696  1.1123
  614MOL0     H80984   3.117  10.363   8.032  0.5880 -2.0523 -0.6383
  614MOL0     H80985   2.911  10.357   7.635 -1.7111 -0.4540 -0.5013
  614MOL0     H80986   2.865  10.521   7.678 -0.6823 -0.1894 -0.8177
  614MOL0     H80987   2.711  10.282   7.754 -0.5669  0.0629 -0.3093
  614MOL0     H80988   2.669  10.419   7.641  1.4783 -1.1365 -2.1092
  614MOL0     H80989   2.670  10.566   7.831  0.8393 -1.3115  0.8135
  614MOL0     H80990   2.721  10.435   7.941  0.3056  0.9411  0.1978
  614MOL0     H80991   2.444  10.467   7.823 -1.9193 -2.1102  1.5850
  614MOL0     H80992   2.506  10.327   7.890 -0.5571 -0.3881  2.0723
  614MOL0     H80993   2.499  10.610   8.033  3.0149  0.3644  1.6440
  614MOL0     H80994   2.557  10.455   8.093 -0.7187  0.9476  0.6624
  614MOL0     H80995   2.316  10.450   8.155  0.5148 -1.9825  0.7209
  614MOL0     H80996   2.298  10.369   8.000 -2.9766  3.0650 -2.8560
  614MOL0     H80997   2.276  10.674   8.019 -0.7168  0.8198 -1.5594
  614MOL0     H80998   2.226  10.575   7.887  2.7879  0.5177 -0.7006
  614MOL0     H80999   2.022  10.633   8.032  0.0434  1.1970 -0.3397
  614MOL0     H81000   2.113  10.565   8.164 -0.0866 -0.6347  0.0994
  614MOL0     H81001   1.978  10.471   7.800  1.0368  1.5562  0.2095
  614MOL0     H81002   1.849  10.095   7.819 -2.2639 -0.0129 -0.5218
  614MOL0     H81003   1.946  10.178   7.705  0.0665 -0.1696  0.4249
  614MOL0     H81004   1.707  10.316   7.827  2.1501  1.5545 -0.3098
  614MOL0     H81005   1.668  10.184   7.713 -0.6412 -0.2475  1.5095
  614MOL0     H81006   1.855  10.393   7.622 -1.1164  0.7904  2.0784
  614MOL0     H81007   1.748  10.278   7.525 -1.4774 -0.3490  0.3228
  614MOL0     H81008   1.633  10.487   7.488  1.4408  2.8497  0.3067
  614MOL0     H81009   1.705  10.542   7.633 -1.7444  0.7149 -0.2644
  614MOL0     H81010   1.311  10.421   7.774 -0.2745  1.0612 -1.2802
  614MOL0     H81011   1.133  10.270   7.733  0.1268  0.4190  1.6941
  614MOL0     H81012   0.819  10.105   7.787 -0.1716  0.1038  0.9624
  614MOL0     H81013   0.609   9.992   7.783  0.9071  0.3893  1.3502
  614MOL0     H81014   0.561   9.606   7.601  0.1382 -0.2927 -0.2532
  614MOL0     H81015   0.499   9.708   7.466  2.0760  2.7391  0.7676
  614MOL0     H81016   0.309   9.586   7.548 -2.1465 -1.6068  2.5548
  614MOL0     H81017   0.282   9.746   7.603 -0.8281 -1.2193 -2.0302
  614MOL0     H81018   0.226   9.614   7.775 -0.0163  2.2929 -2.5389
  614MOL0     H81019   0.391   9.656   7.835  0.9357 -1.6789  1.3706
  614MOL0     H81020   0.361   9.408   7.658  0.9628  1.4589 -0.4578
  614MOL0     H81021   0.480   9.435   7.784 -0.0994  0.4060  1.1195
  614MOL0     H81022   0.191   9.408   7.859 -0.5793 -1.4706 -1.3213
  614MOL0     H81023   0.329   9.421   7.962 -0.0419 -0.2752  0.5185
  614MOL0     H81024   0.396   9.191   7.826  0.2429 -2.0652  1.9646
  614MOL0     H81025   0.233   9.218   7.757 -1.2720 -1.1140  1.9876
  614MOL0     H81026   0.301   9.135   8.033  0.5415  1.7301 -0.1051
  614MOL0     H81027   0.165   9.251   8.017  0.4017 -0.9805  2.2438
  614MOL0     H81028   0.213   8.992   7.874  0.8381  1.1986  1.0447
  614MOL0     H81029   0.067   9.093   7.845 -1.3357 -1.6291  0.7569
  614MOL0     H81030   0.721   9.745   7.467 -1.0860  0.5253  0.9377
  614MOL0     H81031   0.939   9.854   7.457 -0.7640  1.2569  0.1297
  614MOL0     H81032   1.366  10.079   7.410 -0.7125 -0.6480 -0.0222
  614MOL0     H81033   1.539  10.247   7.452  0.3385 -0.8127  1.7981
  614MOL0     H81034   3.102  10.489   7.617 -0.1394 -1.0303 -1.0206
  614MOL0     H81035   3.356  10.513   7.634  0.7024  1.3468  0.4640
  614MOL0     H81036   3.816  10.696   7.687  1.6569 -0.6378 -0.5254
  614MOL0     H81037   4.039  10.611   7.676  0.3825 -0.9661 -0.8287
  614MOL0     H81038   4.124  10.228   7.808 -0.3108 -1.2151  0.6058
  614MOL0     H81039   4.161  10.273   7.976 -0.7288 -1.2898 -0.5465
  614MOL0     H81040   4.333  10.141   7.872 -0.9176  0.2604  1.6150
  614MOL0     H81041   4.357  10.260   7.743  1.1782  1.3127 -0.2726
  614MOL0     H81042   4.376  10.300   8.036 -1.8830  2.5871 -0.1089
  614MOL0     H81043   4.406  10.432   7.946  1.2707  0.4416  0.8773
  614MOL0     H81044   4.634  10.338   7.868  0.0089 -1.5520 -0.7588
  614MOL0     H81045   4.605  10.312   8.038 -0.7086  0.8120 -0.4679
  614MOL0     H81046   4.648   9.905   7.933  1.7008 -0.2149  2.0942
  614MOL0     H81047   3.942  10.305   7.972 -0.2155  1.0702  0.4343
  614MOL0     H81048   3.711  10.374   7.952 -0.7558 -1.6413 -1.7333
  615MOL0     O81049   8.498   5.064   2.266  0.6370  0.0966 -0.3801
  615MOL0     C81050   8.559   5.158   2.306 -0.2229  0.4425 -1.3617
  615MOL0     O81051   8.502   5.263   2.367  0.4710  0.3985  0.2837
  615MOL0     C81052   8.366   5.286   2.376  0.0729 -0.0351 -0.6142
  615MOL0     C81053   8.320   5.413   2.396 -0.1856  0.8878 -1.3511
  615MOL0     C81054   8.186   5.440   2.402  0.6799 -0.5780  0.3507
  615MOL0     C81055   8.090   5.343   2.417  0.6192 -0.1532 -0.0056
  615MOL0     O81056   7.952   5.363   2.414  0.0277  0.1412  0.4516
  615MOL0     C81057   7.909   5.393   2.548  0.5494 -0.0707 -0.3187
  615MOL0     C81058   7.770   5.338   2.562  0.0275 -0.2996 -0.5526
  615MOL0     C81059   7.693   5.354   2.696  0.3553 -0.1935  0.4518
  615MOL0     C81060   7.548   5.311   2.687  0.4651 -0.4550  0.9913
  615MOL0     C81061   7.446   5.419   2.640 -0.9664  0.2394 -0.2579
  615MOL0     C81062   7.307   5.360   2.605 -0.1607 -0.5934 -0.6045
  615MOL0     C81063   7.241   5.274   2.707 -0.0887  0.0533 -0.3549
  615MOL0     C81064   7.113   5.220   2.645 -0.8687 -0.4026 -0.0507
  615MOL0     N81065   7.002   5.319   2.634 -0.0998  1.0060  0.6184
  615MOL0     C81066   6.909   5.319   2.740 -0.9706 -0.1842  0.8367
  615MOL0     C81067   6.804   5.384   2.687 -0.4483 -0.7638  0.0524
  615MOL0     C81068   6.685   5.436   2.754  0.0113 -0.1773 -0.0465
  615MOL0     C81069   6.563   5.364   2.716 -0.0441  0.1173  0.1559
  615MOL0     C81070   6.442   5.437   2.789 -0.6946 -0.0526  0.3547
  615MOL0     C81071   6.310   5.389   2.727  0.2747  0.1850 -0.1420
  615MOL0     O81072   6.215   5.487   2.768  0.4069 -0.0230 -0.3330
  615MOL0     C81073   6.084   5.487   2.712  0.0092 -0.6458 -0.1955
  615MOL0     C81074   6.032   5.376   2.638 -0.2781 -0.2846 -0.7764
  615MOL0     C81075   5.896   5.362   2.612 -0.1172 -0.3102  0.3140
  615MOL0     C81076   5.805   5.454   2.653 -0.2140  0.1865  0.8574
  615MOL0     C81077   5.654   5.434   2.656  0.6841 -0.1181  1.1470
  615MOL0     O81078   5.603   5.340   2.577  0.1811  0.1353 -0.2928
  615MOL0     C81079   5.473   5.300   2.580  0.3244 -0.7196 -1.0149
  615MOL0     C81080   5.436   5.165   2.589  0.0998  0.7179 -0.1531
  615MOL0     C81081   5.300   5.134   2.586  0.8528 -0.2376  0.3530
  615MOL0     C81082   5.197   5.237   2.580 -0.3015 -0.3934  0.1032
  615MOL0     O81083   5.064   5.214   2.569 -0.1172 -0.9514 -0.2559
  615MOL0     C81084   5.023   5.097   2.504  0.7834  0.3907  0.1248
  615MOL0     C81085   4.874   5.126   2.464  0.3840  0.3241  0.0410
  615MOL0     C81086   4.785   5.135   2.580  0.1319 -0.2985  0.1876
  615MOL0     C81087   4.643   5.184   2.543  0.1307  0.1776 -0.4405
  615MOL0     C81088   4.551   5.080   2.464 -0.3542 -0.0647  0.8692
  615MOL0     C81089   4.564   4.941   2.515 -1.5421  0.1778  0.2904
  615MOL0     C81090   4.462   4.857   2.451 -0.3264 -0.6758 -0.5437
  615MOL0     C81091   4.476   4.712   2.514  0.7633 -0.3248 -0.3298
  615MOL0    Cl81092   4.608   4.624   2.455 -0.2964  0.3256 -0.4979
  615MOL0     C81093   5.247   5.361   2.566 -0.0163  0.7626  0.1649
  615MOL0     C81094   5.375   5.402   2.564  0.1315 -0.2404 -0.7997
  615MOL0     O81095   5.587   5.508   2.725  0.3240 -0.0249 -1.0034
  615MOL0     C81096   5.862   5.573   2.708  0.7265 -0.2651  0.3998
  615MOL0     C81097   6.002   5.593   2.736  1.0575 -0.4067 -0.9682
  615MOL0     N81098   6.837   5.419   2.555  0.4391  0.1529 -0.2586
  615MOL0     N81099   6.949   5.369   2.521 -0.1565 -0.0490  0.0534
  615MOL0     C81100   8.136   5.214   2.394  0.3484  0.1158 -0.5319
  615MOL0     C81101   8.270   5.181   2.380 -0.2849  0.2659  0.0287
  615MOL0     C81102   8.701   5.163   2.277 -0.9725  0.0609  0.5785
  615MOL0     C81103   8.777   5.066   2.198  0.1240 -1.0232  0.5623
  615MOL0     C81104   8.905   5.077   2.168 -0.2647 -0.3352 -0.6741
  615MOL0     C81105   8.967   5.191   2.212 -0.5562  0.4802  0.4984
  615MOL0     O81106   9.097   5.220   2.193  0.5646  0.7554 -0.5256
  615MOL0     C81107   9.181   5.124   2.132  0.7222  0.7726 -0.8493
  615MOL0     C81108   9.310   5.193   2.090 -0.6887  0.9320 -0.9827
  615MOL0     C81109   9.410   5.228   2.203 -0.4808 -1.5251  0.2389
  615MOL0     C81110   9.541   5.276   2.149  0.0093 -0.5477 -0.7668
  615MOL0     C81111   9.606   5.187   2.059 -0.7919  0.0311  0.0588
  615MOL0     C81112   9.652   5.113   1.972 -0.6434 -0.3253 -0.6282
  615MOL0     C81113   8.909   5.287   2.295  0.4198 -0.0288 -0.3760
  615MOL0     C81114   8.771   5.280   2.316 -0.1696  0.7429  0.0413
  615MOL0     H81115   8.390   5.496   2.402  0.9291 -0.1066  1.7067
  615MOL0     H81116   8.147   5.541   2.407 -1.3765 -0.9053 -4.0915
  615MOL0     H81117   7.909   5.502   2.559  1.0192  0.1051 -1.7769
  615MOL0     H81118   7.969   5.356   2.631  1.4892  1.3460 -0.3232
  615MOL0     H81119   7.772   5.230   2.548 -3.4045 -0.8744  2.1904
  615MOL0     H81120   7.716   5.387   2.480  0.3424  0.7808 -0.1408
  615MOL0     H81121   7.699   5.458   2.729 -0.0496 -0.0943  0.2164
  615MOL0     H81122   7.745   5.297   2.773  0.3736  1.5151  1.7727
  615MOL0     H81123   7.532   5.222   2.626 -0.0183  0.0929  0.3033
  615MOL0     H81124   7.525   5.275   2.788  0.6777 -0.5280  1.0148
  615MOL0     H81125   7.484   5.468   2.550  0.2097 -0.6811 -0.2855
  615MOL0     H81126   7.429   5.501   2.711  0.9701 -1.8886  2.9076
  615MOL0     H81127   7.321   5.298   2.515  0.3641 -0.9064 -0.3144
  615MOL0     H81128   7.237   5.438   2.576  0.6056 -0.2168 -1.5101
  615MOL0     H81129   7.310   5.193   2.731 -0.3343 -0.6413 -1.8473
  615MOL0     H81130   7.207   5.339   2.788  0.0725  0.3983 -0.5622
  615MOL0     H81131   7.073   5.133   2.697  1.1585 -3.0249 -2.5599
  615MOL0     H81132   7.137   5.191   2.542 -0.3376  0.1486 -0.0867
  615MOL0     H81133   6.925   5.273   2.837  2.7532 -1.3523 -0.1310
  615MOL0     H81134   6.677   5.541   2.723  1.3342 -0.9780 -3.5641
  615MOL0     H81135   6.698   5.428   2.863 -1.6793 -0.4970  0.1575
  615MOL0     H81136   6.574   5.263   2.756 -1.3860  0.1466  0.6787
  615MOL0     H81137   6.550   5.367   2.608 -1.3138 -2.0389  0.1955
  615MOL0     H81138   6.456   5.412   2.895 -1.0429  0.0296  0.4206
  615MOL0     H81139   6.462   5.544   2.782  3.4416 -0.6269  0.6053
  615MOL0     H81140   6.299   5.287   2.764 -0.5806  0.0180 -0.8397
  615MOL0     H81141   6.324   5.402   2.620  0.4146  1.1189 -0.0281
  615MOL0     H81142   6.105   5.300   2.614 -0.2770  0.1848 -2.3513
  615MOL0     H81143   5.854   5.271   2.568  0.3341 -0.6925  0.6702
  615MOL0     H81144   5.517   5.093   2.592  0.3871  1.0629  0.5454
  615MOL0     H81145   5.272   5.029   2.587 -1.4999  0.2132 -3.0347
  615MOL0     H81146   5.019   5.010   2.571  0.9274 -1.6216 -2.3331
  615MOL0     H81147   5.083   5.081   2.414  2.0729 -1.4200  1.2375
  615MOL0     H81148   4.854   5.049   2.390  1.7931  0.5011 -0.5556
  615MOL0     H81149   4.876   5.225   2.417 -0.0810 -0.4085 -1.5524
  615MOL0     H81150   4.825   5.199   2.659  0.3840  0.2373 -0.3664
  615MOL0     H81151   4.781   5.036   2.627  0.9178 -1.5760 -2.2652
  615MOL0     H81152   4.591   5.208   2.636  0.5100 -0.2229 -0.1225
  615MOL0     H81153   4.635   5.278   2.488 -1.9362  0.2701 -0.0539
  615MOL0     H81154   4.582   5.080   2.359  2.2535 -0.6576  1.5682
  615MOL0     H81155   4.452   5.126   2.470  0.4469  1.6028  1.8236
  615MOL0     H81156   4.564   4.935   2.624  4.3686 -0.6786  0.5934
  615MOL0     H81157   4.668   4.917   2.490 -0.7420  2.8757  0.6676
  615MOL0     H81158   4.365   4.901   2.475  1.2338  2.8669 -0.1041
  615MOL0     H81159   4.470   4.859   2.342 -1.7431  0.9289 -0.6619
  615MOL0     H81160   4.392   4.656   2.473  0.6000 -0.2498 -0.0985
  615MOL0     H81161   4.478   4.704   2.623 -0.8536 -0.0885 -0.2613
  615MOL0     H81162   5.172   5.439   2.554  0.3335  1.2088  0.8210
  615MOL0     H81163   5.396   5.505   2.540 -0.4486  0.5797  1.8381
  615MOL0     H81164   5.793   5.653   2.735  2.9595  2.1652 -0.7126
  615MOL0     H81165   6.034   5.684   2.787 -2.8721 -0.1063  1.4055
  615MOL0     H81166   8.066   5.131   2.392  0.7110 -0.4878  3.5493
  615MOL0     H81167   8.311   5.080   2.383  1.6727  1.0439  0.9169
  615MOL0     H81168   8.718   4.992   2.145 -0.9063  0.0496  0.1682
  615MOL0     H81169   8.946   4.999   2.106  0.4271  0.7636 -1.6425
  615MOL0     H81170   9.134   5.081   2.044 -0.9380  0.8093 -0.0165
  615MOL0     H81171   9.204   5.039   2.197 -2.2789 -0.2851 -1.0419
  615MOL0     H81172   9.362   5.123   2.023 -1.1674 -2.1027  1.5618
  615MOL0     H81173   9.272   5.283   2.042 -1.6449  0.0554 -1.9343
  615MOL0     H81174   9.418   5.146   2.274  0.2559 -0.7299  1.1100
  615MOL0     H81175   9.375   5.312   2.264  3.1163 -0.3869  0.9892
  615MOL0     H81176   9.527   5.366   2.088 -1.0454 -1.9292 -2.7087
  615MOL0     H81177   9.603   5.300   2.236 -2.2703  2.1502  0.2764
  615MOL0     H81178   9.675   5.052   1.887 -1.2316  0.5943 -1.4695
  615MOL0     H81179   8.968   5.374   2.322 -0.2328 -0.2775  2.0796
  615MOL0     H81180   8.709   5.353   2.366 -2.9057 -1.2950 -0.0677
  616MOL0     O81181   0.650   9.316   0.801  0.1323 -0.1610 -0.4674
  616MOL0     C81182   0.660   9.404   0.714 -0.4005 -0.5485 -0.7841
  616MOL0     O81183   0.563   9.505   0.688  0.4547 -0.0122  0.6906
  616MOL0     C81184   0.442   9.490   0.747  0.7691  0.5785  0.2257
  616MOL0     C81185   0.319   9.479   0.666 -0.0042  0.1871  0.8747
  616MOL0     C81186   0.202   9.459   0.730 -0.5536 -0.3561 -0.1769
  616MOL0     C81187   0.191   9.461   0.876 -0.1498  0.0529 -0.2437
  616MOL0     O81188   0.068   9.423   0.930  0.1023 -0.1463 -0.1906
  616MOL0     C81189   0.070   9.347   1.049  0.4086  0.0938 -0.5350
  616MOL0     C81190  -0.063   9.266   1.060 -1.1333 -0.0558  0.5728
  616MOL0     C81191  -0.172   9.355   1.124  0.5328 -0.8695  0.8711
  616MOL0     C81192  -0.300   9.270   1.133 -0.3451 -0.1941 -0.8728
  616MOL0     C81193  -0.437   9.349   1.148 -0.0384 -0.1675 -0.0079
  616MOL0     C81194  -0.553   9.252   1.155  0.5487  0.4200  0.8982
  616MOL0     C81195  -0.686   9.322   1.153  0.2981 -0.3738 -0.4810
  616MOL0     C81196  -0.792   9.211   1.157  0.1343 -0.5612  0.7811
  616MOL0     N81197  -0.927   9.270   1.167 -0.6169 -0.5028 -1.5039
  616MOL0     C81198  -0.976   9.337   1.277  0.0124 -0.3270  0.2623
  616MOL0     C81199  -1.092   9.393   1.242  0.4447  0.1294 -0.3761
  616MOL0     C81200  -1.192   9.471   1.324  0.7977  0.4069 -0.1793
  616MOL0     C81201  -1.326   9.401   1.317  0.5271 -0.0196 -0.2704
  616MOL0     C81202  -1.406   9.444   1.202  0.0378 -0.5562  0.6744
  616MOL0     C81203  -1.550   9.407   1.211  0.0806 -0.0096 -0.1640
  616MOL0     O81204  -1.624   9.460   1.104 -1.0659 -0.2678 -0.4613
  616MOL0     C81205  -1.758   9.456   1.107  0.5018  0.3812 -0.5042
  616MOL0     C81206  -1.831   9.390   1.207 -0.0555  0.1573 -0.8281
  616MOL0     C81207  -1.972   9.399   1.214 -0.5385  0.1822  0.0208
  616MOL0     C81208  -2.055   9.463   1.115  0.1746  0.2357 -0.2303
  616MOL0     C81209  -2.208   9.452   1.111 -0.0646  0.3070  0.5213
  616MOL0     O81210  -2.271   9.354   1.175 -0.6305  0.2352 -0.7050
  616MOL0     C81211  -2.411   9.348   1.168  0.6331  0.6214  0.2898
  616MOL0     C81212  -2.474   9.304   1.284 -0.0849  1.0385  0.7285
  616MOL0     C81213  -2.614   9.261   1.295  0.1491  0.0275 -0.4479
  616MOL0     C81214  -2.696   9.286   1.181 -0.3025  0.2286 -0.9452
  616MOL0     O81215  -2.826   9.248   1.175 -0.4348 -0.1479 -0.2538
  616MOL0     C81216  -2.903   9.356   1.227 -0.2706  0.7592  0.0302
  616MOL0     C81217  -3.030   9.308   1.299 -0.0569  0.4377 -0.2529
  616MOL0     C81218  -3.128   9.215   1.222 -0.2149  0.1354  1.1260
  616MOL0     C81219  -3.239   9.174   1.316  0.3142 -0.4212 -0.4015
  616MOL0     C81220  -3.354   9.126   1.229 -0.0133 -0.0231  0.6270
  616MOL0     C81221  -3.472   9.074   1.313  0.2839 -0.0210  0.0075
  616MOL0     C81222  -3.560   9.180   1.386  0.4960 -0.4051  0.1115
  616MOL0     C81223  -3.694   9.119   1.430 -1.1750  0.2907 -0.3676
  616MOL0    Cl81224  -3.786   9.093   1.289 -0.7602 -0.1651 -0.0757
  616MOL0     C81225  -2.630   9.340   1.069  0.9280  0.9457  0.2665
  616MOL0     C81226  -2.492   9.363   1.061  0.1349  0.4274  0.7009
  616MOL0     O81227  -2.263   9.534   1.041  0.0276 -0.0882  0.1947
  616MOL0     C81228  -1.981   9.527   1.011  0.4929 -0.1278 -0.1406
  616MOL0     C81229  -1.838   9.523   1.011  0.2928  0.3078  0.1375
  616MOL0     N81230  -1.110   9.358   1.110 -0.9229 -1.2262 -0.1834
  616MOL0     N81231  -1.006   9.291   1.063 -0.3593 -0.3781  0.1331
  616MOL0     C81232   0.302   9.485   0.958 -0.8755 -0.3353 -0.6104
  616MOL0     C81233   0.427   9.488   0.885  0.0020 -0.1500 -0.2229
  616MOL0     C81234   0.790   9.414   0.639  0.1027  0.0477  0.2041
  616MOL0     C81235   0.805   9.484   0.513  0.2995 -0.2606 -0.0050
  616MOL0     C81236   0.927   9.478   0.442 -0.6238 -0.3058 -0.1733
  616MOL0     C81237   1.042   9.411   0.503  0.1606 -0.8457  0.1379
  616MOL0     O81238   1.157   9.396   0.435 -0.4913  0.1553  0.2467
  616MOL0     C81239   1.226   9.274   0.444 -0.4761  0.6621 -1.0883
  616MOL0     C81240   1.296   9.235   0.316 -0.1364 -0.1175 -0.0326
  616MOL0     C81241   1.380   9.349   0.252 -0.2085  0.1813 -0.1201
  616MOL0     C81242   1.451   9.307   0.130 -0.6240  0.8210  0.3191
  616MOL0     C81243   1.565   9.219   0.168 -0.2753 -0.2813  0.4939
  616MOL0     C81244   1.648   9.140   0.197 -1.0610  0.4089 -0.7089
  616MOL0     C81245   1.028   9.362   0.631 -0.0486 -0.2415  0.8153
  616MOL0     C81246   0.903   9.350   0.696  0.7095 -0.7341 -0.2679
  616MOL0     H81247   0.334   9.476   0.559  1.1378 -0.5133  1.0287
  616MOL0     H81248   0.117   9.426   0.672 -0.2174 -3.4200  0.8568
  616MOL0     H81249   0.085   9.415   1.134 -0.2015 -1.3362  0.7492
  616MOL0     H81250   0.151   9.275   1.039 -0.0491 -0.0972 -4.4760
  616MOL0     H81251  -0.052   9.172   1.116 -0.0362  0.7504  1.7692
  616MOL0     H81252  -0.091   9.243   0.956 -3.0233 -1.0317  1.2384
  616MOL0     H81253  -0.197   9.440   1.060  1.9268  1.0349  2.7528
  616MOL0     H81254  -0.145   9.401   1.219 -3.4429  2.4169  0.6623
  616MOL0     H81255  -0.306   9.206   1.045 -0.4897 -0.3038 -0.7834
  616MOL0     H81256  -0.293   9.203   1.220 -4.4500  1.7825  1.2361
  616MOL0     H81257  -0.447   9.414   1.060 -4.2777  0.5246  0.7526
  616MOL0     H81258  -0.441   9.414   1.235 -0.3221 -2.3432  1.6734
  616MOL0     H81259  -0.540   9.188   1.243  0.3274 -0.4874  0.2860
  616MOL0     H81260  -0.535   9.185   1.070  1.6507  1.5465  0.2032
  616MOL0     H81261  -0.686   9.388   1.240  2.4889  2.0944 -2.2176
  616MOL0     H81262  -0.697   9.384   1.064  0.7122 -1.9906 -1.7091
  616MOL0     H81263  -0.786   9.134   1.234 -4.8371 -2.9132 -0.7803
  616MOL0     H81264  -0.794   9.158   1.062 -1.6429 -0.6253  0.8158
  616MOL0     H81265  -0.938   9.363   1.375 -1.3002  3.3915 -0.0500
  616MOL0     H81266  -1.202   9.578   1.301  1.2425  0.8102  1.3886
  616MOL0     H81267  -1.155   9.465   1.427  0.7251 -2.7113 -0.2335
  616MOL0     H81268  -1.380   9.427   1.409 -1.8947 -0.6667 -1.4283
  616MOL0     H81269  -1.319   9.291   1.320  0.5272 -0.0805  4.3210
  616MOL0     H81270  -1.396   9.552   1.199 -2.0977 -0.3013  0.6830
  616MOL0     H81271  -1.361   9.407   1.109  0.0135  2.9822 -0.8827
  616MOL0     H81272  -1.594   9.434   1.308  0.4181 -0.7127  0.1959
  616MOL0     H81273  -1.562   9.299   1.197  1.8962 -0.3619  0.6398
  616MOL0     H81274  -1.783   9.339   1.290  0.7362 -1.5135 -2.2619
  616MOL0     H81275  -2.025   9.356   1.298 -3.0052  2.1018 -0.4154
  616MOL0     H81276  -2.404   9.298   1.367  0.9673 -0.3716 -0.2077
  616MOL0     H81277  -2.654   9.228   1.390 -0.0280  0.1528 -0.4780
  616MOL0     H81278  -2.928   9.397   1.129 -3.1641 -0.3421  0.1919
  616MOL0     H81279  -2.845   9.429   1.283  1.3249  1.3251 -2.2020
  616MOL0     H81280  -3.092   9.396   1.319 -4.5841 -1.5348 -3.7470
  616MOL0     H81281  -3.001   9.250   1.387 -0.8803 -0.6056 -0.6423
  616MOL0     H81282  -3.077   9.134   1.169 -1.0907  0.0924  0.3222
  616MOL0     H81283  -3.173   9.278   1.144 -1.0917  0.3450  1.7773
  616MOL0     H81284  -3.203   9.108   1.396 -1.1097 -0.6892  0.0478
  616MOL0     H81285  -3.260   9.265   1.373 -0.9240 -0.2962 -1.0133
  616MOL0     H81286  -3.312   9.064   1.149 -0.5437 -0.4079  0.6394
  616MOL0     H81287  -3.398   9.212   1.177 -2.7009 -0.7115  1.5506
  616MOL0     H81288  -3.436   9.010   1.394  0.4000  0.5818  0.4373
  616MOL0     H81289  -3.528   9.008   1.247  2.7208 -2.0887 -0.1656
  616MOL0     H81290  -3.510   9.214   1.477 -0.3223 -2.1709  1.2708
  616MOL0     H81291  -3.581   9.269   1.326 -1.5694 -2.4021 -2.3174
  616MOL0     H81292  -3.751   9.191   1.489  0.1975  2.2706 -1.3469
  616MOL0     H81293  -3.686   9.025   1.485 -0.4180  0.9640  0.7000
  616MOL0     H81294  -2.689   9.362   0.981 -1.4095  0.9104  1.7510
  616MOL0     H81295  -2.449   9.388   0.964 -1.0759 -0.3662 -0.0718
  616MOL0     H81296  -2.048   9.574   0.941 -3.8344 -2.3774  2.0962
  616MOL0     H81297  -1.789   9.563   0.923 -0.4971  0.2357 -0.3466
  616MOL0     H81298   0.297   9.485   1.067  0.5100  0.5274 -0.5312
  616MOL0     H81299   0.517   9.481   0.946  1.0113  0.5208 -1.5992
  616MOL0     H81300   0.724   9.534   0.462  0.7046 -1.0961 -1.5610
  616MOL0     H81301   0.934   9.518   0.342  0.5728 -2.1134 -0.8771
  616MOL0     H81302   1.165   9.187   0.468  0.1179  0.3157 -0.7925
  616MOL0     H81303   1.300   9.281   0.525 -0.8340  0.7242 -0.7661
  616MOL0     H81304   1.366   9.161   0.355 -1.9709 -3.4524 -2.5342
  616MOL0     H81305   1.226   9.195   0.243 -1.1621  0.3438  0.6628
  616MOL0     H81306   1.455   9.385   0.322 -1.4327  0.8390  0.9051
  616MOL0     H81307   1.314   9.431   0.222  0.2000  0.8754  0.8268
  616MOL0     H81308   1.392   9.255   0.055 -1.0525  1.3197  0.2975
  616MOL0     H81309   1.493   9.397   0.084 -1.7383  1.2731  0.1680
  616MOL0     H81310   1.716   9.058   0.213 -3.8972 -2.7562 -3.3199
  616MOL0     H81311   1.122   9.326   0.671  1.6491 -0.2841 -2.8237
  616MOL0     H81312   0.911   9.292   0.787 -2.1888  0.4453  0.8614
  617MOL0     O81313  10.965   3.778   0.667  0.6327  0.4550  0.1501
  617MOL0     C81314  11.058   3.713   0.609 -0.2842 -0.2713  0.8150
  617MOL0     O81315  11.051   3.602   0.527 -0.0087 -0.6928  0.9083
  617MOL0     C81316  10.917   3.553   0.506  0.0822 -0.9180  0.0283
  617MOL0     C81317  10.814   3.637   0.467 -0.1651 -0.4270 -0.4165
  617MOL0     C81318  10.692   3.582   0.430  0.6488  0.3648 -0.9947
  617MOL0     C81319  10.673   3.445   0.439  0.5016  0.3312  0.6534
  617MOL0     O81320  10.550   3.419   0.391  0.9142  0.4196 -0.3454
  617MOL0     C81321  10.521   3.282   0.355  0.0690 -1.0579  0.0763
  617MOL0     C81322  10.371   3.261   0.364  0.5492 -0.5958 -0.1438
  617MOL0     C81323  10.297   3.328   0.249  0.6300 -0.7116  0.1420
  617MOL0     C81324  10.147   3.301   0.262  0.2569  0.8915  0.6606
  617MOL0     C81325  10.083   3.367   0.138  0.1918 -0.1833 -0.2071
  617MOL0     C81326   9.931   3.353   0.158  1.1899 -0.7416  0.2633
  617MOL0     C81327   9.848   3.422   0.045 -0.1817 -0.7981  0.2364
  617MOL0     C81328   9.850   3.567   0.090  0.2617  0.0881 -0.0369
  617MOL0     N81329   9.785   3.662   0.002 -1.1851 -0.9193  0.2987
  617MOL0     C81330   9.659   3.644  -0.065  0.0525  0.3922  0.5099
  617MOL0     C81331   9.659   3.765  -0.128  0.2070  0.1740  0.8859
  617MOL0     C81332   9.550   3.811  -0.233  0.9453 -0.0141 -0.4909
  617MOL0     C81333   9.449   3.700  -0.264 -0.3369 -0.3245 -0.4695
  617MOL0     C81334   9.352   3.760  -0.369  0.0745  0.6150  0.4265
  617MOL0     C81335   9.295   3.645  -0.457  0.0255 -0.2122 -0.2262
  617MOL0     O81336   9.186   3.708  -0.534 -0.9633 -0.7221  0.1957
  617MOL0     C81337   9.056   3.701  -0.494  1.4829  0.5772 -0.3183
  617MOL0     C81338   8.950   3.741  -0.580  0.3911  0.0135  0.5001
  617MOL0     C81339   8.819   3.728  -0.557 -0.1968 -0.1174  0.4143
  617MOL0     C81340   8.774   3.658  -0.438  0.1189 -0.4731 -0.1902
  617MOL0     C81341   8.629   3.632  -0.420 -0.0692  0.6499  0.4682
  617MOL0     O81342   8.596   3.537  -0.329 -0.3864 -0.0471 -0.1145
  617MOL0     C81343   8.471   3.535  -0.275  0.5369 -0.3694 -0.0616
  617MOL0     C81344   8.438   3.415  -0.215  0.5050 -0.0643  0.7167
  617MOL0     C81345   8.321   3.399  -0.141 -0.4775 -0.4896 -0.4819
  617MOL0     C81346   8.229   3.505  -0.128  0.1619 -0.5799  0.4797
  617MOL0     O81347   8.105   3.502  -0.067 -0.4661 -0.6109  0.2028
  617MOL0     C81348   8.071   3.384   0.003 -0.0121  0.5532  0.3813
  617MOL0     C81349   7.940   3.418   0.076 -0.2882  0.2900 -0.2862
  617MOL0     C81350   7.875   3.289   0.141  0.0177  0.3775 -0.7110
  617MOL0     C81351   7.741   3.319   0.224 -0.6172 -0.4997  0.4041
  617MOL0     C81352   7.676   3.195   0.283 -1.1958  0.0441  0.2840
  617MOL0     C81353   7.566   3.229   0.378  0.2746 -0.9032  0.4380
  617MOL0     C81354   7.530   3.105   0.461 -0.6946 -0.0877  0.4504
  617MOL0     C81355   7.404   3.041   0.407 -0.1055  0.5350  0.4486
  617MOL0    Cl81356   7.250   3.127   0.437  0.1460  0.3984 -0.0545
  617MOL0     C81357   8.255   3.623  -0.198 -0.0372  0.2141 -0.1976
  617MOL0     C81358   8.375   3.641  -0.271  0.1155 -0.3112  0.2060
  617MOL0     O81359   8.545   3.692  -0.487 -0.5983 -0.3435 -0.3860
  617MOL0     C81360   8.874   3.613  -0.347 -0.4517  0.1808  0.6956
  617MOL0     C81361   9.008   3.632  -0.381  0.1818 -0.8173 -0.2156
  617MOL0     N81362   9.769   3.838  -0.121  0.1912  0.2037 -0.0525
  617MOL0     N81363   9.844   3.777  -0.029  1.1348  0.4700 -0.1314
  617MOL0     C81364  10.775   3.360   0.487 -0.5117  0.1036  0.2818
  617MOL0     C81365  10.896   3.414   0.522 -0.2622 -0.5305 -0.6287
  617MOL0     C81366  11.191   3.777   0.616 -0.1800 -0.0912  0.0416
  617MOL0     C81367  11.207   3.902   0.678  0.1674 -0.0409 -0.0432
  617MOL0     C81368  11.337   3.959   0.677  0.4175 -0.4257  1.7268
  617MOL0     C81369  11.444   3.892   0.626  0.0428  0.0893  0.1068
  617MOL0     O81370  11.559   3.957   0.646  0.0128 -0.0920 -0.1940
  617MOL0     C81371  11.682   3.893   0.629 -0.5409 -0.2044  0.3964
  617MOL0     C81372  11.738   3.917   0.482 -0.4649  0.1834  0.2589
  617MOL0     C81373  11.889   3.913   0.464  0.5482 -0.4936 -0.0361
  617MOL0     C81374  11.953   3.776   0.484 -0.1507  0.2615 -0.5314
  617MOL0     C81375  11.899   3.670   0.397 -0.5820 -0.5890  0.2043
  617MOL0     C81376  11.860   3.582   0.320 -0.8191  0.3573  0.7234
  617MOL0     C81377  11.420   3.767   0.563 -0.3939 -0.4765 -0.1541
  617MOL0     C81378  11.290   3.709   0.553 -0.7547 -0.1536 -0.5661
  617MOL0     H81379  10.834   3.741   0.442  0.1753 -1.2975 -4.4130
  617MOL0     H81380  10.621   3.645   0.379  1.8465  2.8576  0.2318
  617MOL0     H81381  10.568   3.210   0.422  0.7080  0.0961  0.9008
  617MOL0     H81382  10.561   3.266   0.255  1.2631 -0.5161  0.4490
  617MOL0     H81383  10.330   3.304   0.457 -0.3226 -0.5976 -0.5197
  617MOL0     H81384  10.345   3.155   0.364 -2.9206  0.1092  0.6191
  617MOL0     H81385  10.333   3.298   0.150 -0.9838 -1.7025 -0.1758
  617MOL0     H81386  10.306   3.436   0.261  0.5141 -0.7880  0.9877
  617MOL0     H81387  10.133   3.194   0.248 -0.9613  1.1080  0.0366
  617MOL0     H81388  10.105   3.340   0.355  0.3181  1.1757  0.5722
  617MOL0     H81389  10.118   3.319   0.046 -0.2625  2.1361 -1.6778
  617MOL0     H81390  10.124   3.468   0.130  1.2979 -0.4857  1.2782
  617MOL0     H81391   9.907   3.384   0.260  3.0583 -0.9710  0.8245
  617MOL0     H81392   9.913   3.245   0.151  3.2930 -1.0817 -1.0755
  617MOL0     H81393   9.891   3.405  -0.054 -0.7840 -0.4409 -0.0889
  617MOL0     H81394   9.745   3.387   0.038 -0.7396  1.0645 -2.7268
  617MOL0     H81395   9.949   3.606   0.111 -0.1014  0.7609  0.4642
  617MOL0     H81396   9.792   3.568   0.183  1.0389 -2.7859  0.5765
  617MOL0     H81397   9.588   3.563  -0.062  1.7543 -1.1479  1.1406
  617MOL0     H81398   9.589   3.849  -0.328  0.5407  0.6539 -0.3918
  617MOL0     H81399   9.498   3.898  -0.193 -1.4067 -0.2670 -2.7759
  617MOL0     H81400   9.385   3.668  -0.181 -0.5486 -1.0955 -0.9228
  617MOL0     H81401   9.509   3.621  -0.310 -0.9117 -1.0435 -0.0005
  617MOL0     H81402   9.272   3.805  -0.310 -0.3468 -2.6530  2.6622
  617MOL0     H81403   9.400   3.836  -0.431 -0.4233  1.3894  0.9681
  617MOL0     H81404   9.254   3.569  -0.389  0.3001 -1.9045 -1.8691
  617MOL0     H81405   9.367   3.599  -0.525 -0.8594 -2.6888  0.3758
  617MOL0     H81406   8.966   3.797  -0.671 -0.1886 -2.1004 -0.9731
  617MOL0     H81407   8.751   3.763  -0.634  1.1688  1.2142 -0.2469
  617MOL0     H81408   8.508   3.332  -0.218 -0.5017 -0.8924 -0.9819
  617MOL0     H81409   8.287   3.304  -0.099 -1.9757 -0.5550 -1.7327
  617MOL0     H81410   8.149   3.355   0.074  3.4281  1.3013 -2.7687
  617MOL0     H81411   8.059   3.309  -0.076  0.6472  1.9906 -1.1232
  617MOL0     H81412   7.865   3.451   0.003 -2.0266  2.6421  2.3375
  617MOL0     H81413   7.970   3.495   0.148  1.8814  0.5748 -1.3974
  617MOL0     H81414   7.947   3.237   0.204 -1.7891 -2.6939 -0.9681
  617MOL0     H81415   7.858   3.211   0.066  0.5355 -0.5152  0.0689
  617MOL0     H81416   7.766   3.392   0.302 -2.5864  0.3221  0.3062
  617MOL0     H81417   7.666   3.371   0.165 -1.8934  0.6051  2.8659
  617MOL0     H81418   7.756   3.139   0.331 -2.1944 -0.9763  0.7902
  617MOL0     H81419   7.641   3.143   0.194 -0.6848 -0.3198  0.2937
  617MOL0     H81420   7.481   3.255   0.313  0.8872  0.3977  0.1368
  617MOL0     H81421   7.590   3.314   0.442  1.3778 -1.0059  0.1680
  617MOL0     H81422   7.601   3.024   0.440 -2.8740 -1.7406 -1.0276
  617MOL0     H81423   7.517   3.128   0.567 -0.4224 -2.2786  1.0143
  617MOL0     H81424   7.383   2.943   0.449 -1.8330 -0.0075 -1.4855
  617MOL0     H81425   7.420   3.029   0.299  1.5729  2.5445  0.4020
  617MOL0     H81426   8.185   3.706  -0.190  0.2278  0.3488  0.8938
  617MOL0     H81427   8.381   3.743  -0.307 -5.3961  0.1935 -0.1587
  617MOL0     H81428   8.848   3.554  -0.260  1.0263  2.3085  2.6806
  617MOL0     H81429   9.080   3.585  -0.315 -1.0496 -2.3713  0.0955
  617MOL0     H81430  10.773   3.252   0.496 -0.4593 -0.0676 -1.4582
  617MOL0     H81431  10.979   3.354   0.557 -0.2841 -0.4324 -0.4078
  617MOL0     H81432  11.127   3.942   0.738 -0.6972 -1.4487 -0.2212
  617MOL0     H81433  11.339   4.058   0.722 -1.3792  1.8944 -2.6066
  617MOL0     H81434  11.677   3.787   0.656 -3.1003 -0.4582 -0.7819
  617MOL0     H81435  11.760   3.938   0.692  1.7866 -1.4860 -1.3984
  617MOL0     H81436  11.690   3.844   0.417 -3.2893  0.9992  1.2998
  617MOL0     H81437  11.721   4.020   0.449  2.6165  0.5959 -0.3278
  617MOL0     H81438  11.945   3.988   0.520 -3.2009  0.6252  2.6234
  617MOL0     H81439  11.904   3.935   0.358 -1.7472  0.0923 -0.2882
  617MOL0     H81440  12.059   3.789   0.462 -0.2895  2.8221  0.0347
  617MOL0     H81441  11.951   3.739   0.587  1.4955  1.7209  0.0563
  617MOL0     H81442  11.827   3.510   0.248  0.8206  0.9231 -0.6573
  617MOL0     H81443  11.504   3.704   0.534 -0.7598 -0.9432 -0.2084
  617MOL0     H81444  11.279   3.608   0.515 -3.1275 -0.4532  0.7530
  618MOL0     O81445   7.608   2.496   4.445 -0.5711 -0.0833 -0.8734
  618MOL0     C81446   7.622   2.490   4.323 -0.7233 -0.1742  1.1009
  618MOL0     O81447   7.739   2.498   4.255 -0.1723 -0.3710 -0.2189
  618MOL0     C81448   7.857   2.470   4.321  0.5518  0.1137 -0.1978
  618MOL0     C81449   7.890   2.335   4.369  0.2957 -0.7780  0.3514
  618MOL0     C81450   8.012   2.318   4.432 -0.7088 -0.0301 -0.5630
  618MOL0     C81451   8.108   2.423   4.448 -0.3977 -0.6171  0.0574
  618MOL0     O81452   8.216   2.393   4.527  0.5472 -0.4107  0.0506
  618MOL0     C81453   8.300   2.502   4.582  0.5352  0.2664 -0.4362
  618MOL0     C81454   8.434   2.461   4.643 -0.3976 -0.0031 -0.6986
  618MOL0     C81455   8.538   2.376   4.563  0.1156 -0.1562 -0.2795
  618MOL0     C81456   8.642   2.288   4.636 -0.3672  0.8229 -0.4485
  618MOL0     C81457   8.687   2.157   4.559 -0.7264  0.2911  0.0448
  618MOL0     C81458   8.800   2.081   4.638 -0.7996 -0.4866  0.0364
  618MOL0     C81459   8.761   2.038   4.777  0.2082 -0.5807  0.7400
  618MOL0     C81460   8.857   1.938   4.844 -0.4927 -0.8001  0.1678
  618MOL0     N81461   9.000   1.979   4.850 -0.9663  0.0800  0.2379
  618MOL0     C81462   9.060   2.097   4.912 -0.7044  0.3451  0.0416
  618MOL0     C81463   9.192   2.072   4.892  0.1346  0.1776 -0.7283
  618MOL0     C81464   9.310   2.151   4.955  0.2931 -0.1596 -0.4965
  618MOL0     C81465   9.277   2.298   4.950  0.3937  0.1036  0.2791
  618MOL0     C81466   9.212   2.357   5.071 -0.2183 -0.3325 -0.2617
  618MOL0     C81467   9.108   2.461   5.037  0.4761 -0.3063  0.0796
  618MOL0     O81468   8.985   2.394   5.037 -0.0540  0.1341  0.5211
  618MOL0     C81469   8.869   2.470   5.062 -0.0161 -0.0063  0.1853
  618MOL0     C81470   8.858   2.610   5.089 -0.4094 -0.2439 -0.1138
  618MOL0     C81471   8.729   2.663   5.093 -0.3845 -0.0182  0.0438
  618MOL0     C81472   8.609   2.591   5.089  0.3458  0.2552 -0.0324
  618MOL0     C81473   8.471   2.647   5.102  0.1003 -0.5571  0.7495
  618MOL0     O81474   8.367   2.570   5.059 -0.4888  0.4059 -0.4924
  618MOL0     C81475   8.240   2.613   5.090 -0.3963 -0.7932  0.0230
  618MOL0     C81476   8.139   2.628   4.995  0.3848  0.0910  0.9805
  618MOL0     C81477   8.006   2.670   5.024  0.4838 -1.0832 -0.5364
  618MOL0     C81478   7.980   2.710   5.161 -0.1509  0.0615  1.8002
  618MOL0     O81479   7.862   2.757   5.196  1.1463  0.2054 -0.2011
  618MOL0     C81480   7.745   2.692   5.134 -0.1571  0.3065 -0.0796
  618MOL0     C81481   7.639   2.747   5.229 -0.3240  0.3740  0.2562
  618MOL0     C81482   7.495   2.691   5.216 -0.1494  0.8173 -0.0096
  618MOL0     C81483   7.398   2.737   5.327  0.5891  0.6836 -0.5222
  618MOL0     C81484   7.249   2.716   5.294  0.8704 -0.0433 -0.1472
  618MOL0     C81485   7.156   2.794   5.382 -0.5670 -0.6553 -0.1286
  618MOL0     C81486   7.008   2.776   5.351  0.6030  0.4516  0.7131
  618MOL0     C81487   6.920   2.863   5.442 -1.1483  0.3815 -0.0409
  618MOL0    Cl81488   6.752   2.845   5.412 -0.0020 -0.2201  0.0803
  618MOL0     C81489   8.078   2.700   5.254 -1.0271 -0.8033 -0.3899
  618MOL0     C81490   8.208   2.655   5.226 -0.5393  0.4317  0.4125
  618MOL0     O81491   8.465   2.763   5.138  0.4785 -0.4349 -0.6876
  618MOL0     C81492   8.619   2.450   5.081 -0.7285  0.7916 -0.1862
  618MOL0     C81493   8.747   2.395   5.058  0.6421  0.1815  0.2489
  618MOL0     N81494   9.208   1.967   4.803  0.0176  0.1733  0.6851
  618MOL0     N81495   9.098   1.916   4.786  0.1531  0.2536  0.3728
  618MOL0     C81496   8.085   2.551   4.387 -0.1482 -0.3790 -0.5729
  618MOL0     C81497   7.958   2.569   4.329  0.7463 -0.4461 -0.3258
  618MOL0     C81498   7.501   2.497   4.248  0.7696  0.5642  0.7024
  618MOL0     C81499   7.505   2.485   4.103 -0.4793 -1.0418 -0.0764
  618MOL0     C81500   7.385   2.480   4.032 -0.6861  0.4019 -0.5310
  618MOL0     C81501   7.264   2.499   4.092  0.4545  1.2522  0.1113
  618MOL0     O81502   7.149   2.511   4.012  0.1495 -0.0739 -0.3757
  618MOL0     C81503   7.020   2.510   4.080  0.4365 -0.0293  0.3255
  618MOL0     C81504   6.913   2.571   3.987  0.4508 -0.2868  0.4167
  618MOL0     C81505   6.788   2.623   4.048  0.1051 -0.0194 -0.2074
  618MOL0     C81506   6.678   2.657   3.945 -1.5282 -0.0499  1.2125
  618MOL0     C81507   6.545   2.664   4.007 -0.2340 -0.5562  0.7663
  618MOL0     C81508   6.435   2.678   4.054  0.2453  0.2181  0.5046
  618MOL0     C81509   7.259   2.494   4.229 -0.3185 -0.4626 -0.3600
  618MOL0     C81510   7.375   2.500   4.310 -0.2063 -0.0564  0.7053
  618MOL0     H81511   7.812   2.261   4.357 -1.9826  1.4812  0.3489
  618MOL0     H81512   8.034   2.228   4.488 -1.3536  1.0966  1.6085
  618MOL0     H81513   8.247   2.551   4.665  0.3443 -1.7911  0.7313
  618MOL0     H81514   8.334   2.573   4.507  1.8924  0.1179  0.0168
  618MOL0     H81515   8.400   2.389   4.718 -0.0911  0.8640  0.3053
  618MOL0     H81516   8.487   2.552   4.673  0.1668  0.6413 -3.4172
  618MOL0     H81517   8.593   2.433   4.488  3.8389 -2.4351  0.4460
  618MOL0     H81518   8.477   2.311   4.498  1.1996 -0.4049 -1.0761
  618MOL0     H81519   8.726   2.355   4.652 -1.5142  1.8325  2.0058
  618MOL0     H81520   8.624   2.270   4.743 -0.6389 -2.6002 -0.9498
  618MOL0     H81521   8.731   2.202   4.469  1.9962  2.2097  2.1623
  618MOL0     H81522   8.603   2.089   4.540 -1.6278  0.7170  2.1745
  618MOL0     H81523   8.889   2.143   4.655 -0.1429 -1.4958  0.3840
  618MOL0     H81524   8.842   2.001   4.576 -0.4480 -0.5205  0.3141
  618MOL0     H81525   8.744   2.129   4.835 -0.8520  0.4556 -1.1341
  618MOL0     H81526   8.662   1.992   4.777  0.2910 -0.8453 -1.1209
  618MOL0     H81527   8.854   1.837   4.801 -0.8938 -0.3953 -0.7824
  618MOL0     H81528   8.828   1.934   4.949  0.2180 -2.0045  0.3497
  618MOL0     H81529   9.008   2.168   4.976 -1.2270 -1.6140  1.8929
  618MOL0     H81530   9.396   2.127   4.892  0.8198  0.6468 -0.1026
  618MOL0     H81531   9.331   2.119   5.058 -1.1774  0.3456 -0.0138
  618MOL0     H81532   9.213   2.316   4.863  0.4383 -2.6556 -0.4221
  618MOL0     H81533   9.374   2.345   4.930  0.1474  0.8972  0.9024
  618MOL0     H81534   9.177   2.282   5.142  0.5856  0.9551  1.5685
  618MOL0     H81535   9.292   2.402   5.130 -0.3566 -2.6191  1.8181
  618MOL0     H81536   9.128   2.505   4.939 -0.7905 -2.2508 -1.1045
  618MOL0     H81537   9.116   2.540   5.113  1.9022 -2.3278  2.1615
  618MOL0     H81538   8.949   2.668   5.100 -0.5054 -0.5618  3.7962
  618MOL0     H81539   8.723   2.771   5.086  4.7530  0.4451 -1.0117
  618MOL0     H81540   8.176   2.597   4.897  1.0545  1.9221  0.6167
  618MOL0     H81541   7.931   2.667   4.945 -0.2045  0.9642 -0.0219
  618MOL0     H81542   7.751   2.585   5.152 -1.2309  0.3675  0.6988
  618MOL0     H81543   7.739   2.721   5.029  1.0789 -0.8348 -0.4924
  618MOL0     H81544   7.635   2.856   5.217 -3.9250  0.2865 -0.4064
  618MOL0     H81545   7.680   2.742   5.330  1.8654  3.1500 -0.3728
  618MOL0     H81546   7.513   2.584   5.221 -2.7148  0.3371  0.1383
  618MOL0     H81547   7.450   2.726   5.123  0.3283  1.1117 -0.1319
  618MOL0     H81548   7.423   2.689   5.422 -0.0809 -2.4122 -1.8188
  618MOL0     H81549   7.411   2.846   5.329  0.1084  0.7459 -0.6536
  618MOL0     H81550   7.223   2.610   5.293 -3.4199  0.6411 -5.0682
  618MOL0     H81551   7.226   2.746   5.191  1.2843 -0.0791 -0.2496
  618MOL0     H81552   7.181   2.900   5.375 -2.7628 -0.1276 -0.5256
  618MOL0     H81553   7.176   2.768   5.487 -1.1066  0.4635  0.2609
  618MOL0     H81554   6.992   2.821   5.253  0.4198 -2.1539 -0.5471
  618MOL0     H81555   6.978   2.671   5.344  0.6151  0.5029 -0.3313
  618MOL0     H81556   6.946   2.969   5.433  0.5523  0.0721  0.6725
  618MOL0     H81557   6.940   2.832   5.545 -2.1972  2.6616  0.9129
  618MOL0     H81558   8.060   2.718   5.359  1.5445 -3.4072  0.6600
  618MOL0     H81559   8.293   2.640   5.292 -1.1345 -2.0314  0.6937
  618MOL0     H81560   8.530   2.391   5.060 -2.1088  2.3184  1.0996
  618MOL0     H81561   8.755   2.287   5.054  1.3318  0.2254  0.1372
  618MOL0     H81562   8.159   2.629   4.401 -2.7186  2.1947 -0.2090
  618MOL0     H81563   7.924   2.662   4.285  0.7712  0.7327  2.0063
  618MOL0     H81564   7.597   2.484   4.045 -1.0647 -1.0767 -1.0418
  618MOL0     H81565   7.395   2.489   3.924 -0.2872 -0.6979 -0.6008
  618MOL0     H81566   7.014   2.566   4.174 -2.5214  1.7369 -0.7726
  618MOL0     H81567   7.000   2.404   4.096  0.9978 -0.3743 -1.1366
  618MOL0     H81568   6.956   2.655   3.931 -2.4335  1.0375  0.0350
  618MOL0     H81569   6.892   2.492   3.915  0.3765  0.0661  0.0507
  618MOL0     H81570   6.814   2.712   4.106  0.7973 -1.1810  1.3144
  618MOL0     H81571   6.747   2.545   4.113 -1.6887 -1.3906 -2.7930
  618MOL0     H81572   6.696   2.760   3.913 -1.4626  0.2013  2.0222
  618MOL0     H81573   6.686   2.587   3.861 -0.7739  1.0064  0.3733
  618MOL0     H81574   6.341   2.693   4.102 -0.2695 -1.0928 -0.0428
  618MOL0     H81575   7.166   2.471   4.279 -1.6733  0.2980 -2.4119
  618MOL0     H81576   7.376   2.508   4.418  0.6907  1.3906  0.6195
  619MOL0     O81577  10.825   4.957   2.196 -0.7324 -0.4193 -0.5404
  619MOL0     C81578  10.815   5.072   2.148 -0.2412  0.1894  0.2338
  619MOL0     O81579  10.916   5.159   2.101  0.4056  0.3105 -0.3349
  619MOL0     C81580  11.035   5.106   2.109 -0.7314 -0.3982 -0.6946
  619MOL0     C81581  11.098   5.066   2.232  0.8826 -0.0475  0.1286
  619MOL0     C81582  11.227   5.007   2.239  0.0269 -0.6860  0.0457
  619MOL0     C81583  11.304   5.003   2.121 -0.2244 -0.3316  0.2729
  619MOL0     O81584  11.435   4.963   2.128 -0.1984  0.3247  0.2183
  619MOL0     C81585  11.527   5.036   2.037  0.1495 -0.0318 -0.1828
  619MOL0     C81586  11.655   5.028   2.122  0.4104 -0.1245 -0.4057
  619MOL0     C81587  11.762   5.123   2.077 -0.2277 -0.0816  0.1895
  619MOL0     C81588  11.880   5.122   2.181 -0.4347 -0.5388  0.0755
  619MOL0     C81589  12.005   5.188   2.136 -0.0774  0.3550 -0.1780
  619MOL0     C81590  12.059   5.126   2.010  0.9429  0.0144 -0.3972
  619MOL0     C81591  12.207   5.155   2.012  0.3417 -0.4604  0.1148
  619MOL0     C81592  12.246   5.306   1.988 -0.1385 -0.0015  0.2208
  619MOL0     N81593  12.388   5.313   1.972 -0.3895  0.5456 -0.7038
  619MOL0     C81594  12.464   5.380   2.071  0.3138  1.3064  0.1747
  619MOL0     C81595  12.584   5.392   2.016 -0.6150 -0.6295  0.3466
  619MOL0     C81596  12.710   5.448   2.082 -0.1122 -0.0310 -0.8930
  619MOL0     C81597  12.761   5.360   2.207 -0.5668  0.1132  0.0419
  619MOL0     C81598  12.821   5.222   2.160 -0.0121 -0.8262 -0.0602
  619MOL0     C81599  12.862   5.132   2.286 -0.0872  0.2989  0.2716
  619MOL0     O81600  12.752   5.094   2.373 -0.5411  0.5134  0.3592
  619MOL0     C81601  12.659   5.012   2.316 -0.3021 -0.5236 -0.2094
  619MOL0     C81602  12.687   4.876   2.287 -0.0152 -0.7033 -0.1978
  619MOL0     C81603  12.588   4.796   2.236  0.3673 -0.4989  0.2929
  619MOL0     C81604  12.453   4.848   2.238 -0.8718 -0.8932 -0.0279
  619MOL0     C81605  12.338   4.771   2.205  0.0254  0.3702 -0.4425
  619MOL0     O81606  12.231   4.791   2.290 -0.1807 -0.3625 -0.1615
  619MOL0     C81607  12.155   4.682   2.309 -0.4347 -0.4473 -0.1711
  619MOL0     C81608  12.029   4.690   2.240 -0.0750  0.3105  0.0283
  619MOL0     C81609  11.943   4.585   2.251  0.8498 -0.0619 -0.3407
  619MOL0     C81610  11.970   4.473   2.326  0.8286 -0.2682 -0.9422
  619MOL0     O81611  11.885   4.365   2.332  0.2664 -0.6263 -0.5096
  619MOL0     C81612  11.902   4.251   2.414  1.0503 -0.2765  0.5498
  619MOL0     C81613  11.780   4.156   2.402  0.9044  0.5502  0.6124
  619MOL0     C81614  11.661   4.178   2.488  0.2374 -0.0234  0.4506
  619MOL0     C81615  11.554   4.083   2.440 -0.2415  0.5847  0.8559
  619MOL0     C81616  11.441   4.065   2.544 -0.0755  0.3690  0.0864
  619MOL0     C81617  11.370   3.927   2.528  0.4828 -0.1838  0.2367
  619MOL0     C81618  11.270   3.901   2.645  0.7199  0.0588  0.3622
  619MOL0     C81619  11.163   3.787   2.599 -0.4236 -0.0403 -0.3595
  619MOL0    Cl81620  11.041   3.759   2.728 -0.3175  0.1014  0.0068
  619MOL0     C81621  12.091   4.474   2.406  0.0106  0.5130  0.0754
  619MOL0     C81622  12.185   4.575   2.395 -0.2903  0.0074  0.6652
  619MOL0     O81623  12.347   4.693   2.115  1.0846 -0.4953  0.3044
  619MOL0     C81624  12.431   4.987   2.262 -0.5743  0.0022 -0.6118
  619MOL0     C81625  12.534   5.070   2.301 -0.9521  0.0367  0.4291
  619MOL0     N81626  12.587   5.327   1.899  1.4778 -0.6378  0.0703
  619MOL0     N81627  12.471   5.284   1.868 -0.3592  0.2904  0.1332
  619MOL0     C81628  11.249   5.057   2.000 -0.0508 -0.1271 -0.7240
  619MOL0     C81629  11.118   5.108   1.995  0.0140  0.0347 -0.2831
  619MOL0     C81630  10.681   5.123   2.127 -0.2347  0.6766  0.5295
  619MOL0     C81631  10.568   5.055   2.185 -0.1815 -0.4180 -0.4983
  619MOL0     C81632  10.444   5.113   2.175  0.5755  0.3697  0.2798
  619MOL0     C81633  10.407   5.224   2.108 -0.0155  0.8267  0.1144
  619MOL0     O81634  10.284   5.284   2.102 -0.4475 -0.3445 -0.6100
  619MOL0     C81635  10.195   5.276   2.212 -0.3836  0.1473 -0.0073
  619MOL0     C81636  10.046   5.285   2.155 -0.2124 -0.4710  0.2448
  619MOL0     C81637  10.036   5.428   2.086  0.4154 -0.6384 -0.3856
  619MOL0     C81638   9.899   5.447   2.022 -0.4203 -0.0200  0.3902
  619MOL0     C81639   9.878   5.587   1.989 -0.2550  0.7025 -0.3846
  619MOL0     C81640   9.865   5.711   1.979  0.0124 -0.1901  0.3504
  619MOL0     C81641  10.517   5.288   2.046  0.8546 -0.5401  0.2150
  619MOL0     C81642  10.649   5.243   2.054  0.1802 -0.1320 -0.0443
  619MOL0     H81643  11.035   5.060   2.320  2.0022 -0.8447  0.9222
  619MOL0     H81644  11.267   4.970   2.333 -2.6785 -0.8814  1.2067
  619MOL0     H81645  11.511   5.141   2.011 -0.4831 -0.4942 -1.7718
  619MOL0     H81646  11.529   4.976   1.946 -1.8153  0.7628 -0.8012
  619MOL0     H81647  11.690   4.924   2.118 -1.7142 -1.0031  1.5642
  619MOL0     H81648  11.628   5.054   2.225 -2.2789 -0.2523 -0.9969
  619MOL0     H81649  11.717   5.223   2.078 -1.2278 -0.5255  0.7330
  619MOL0     H81650  11.792   5.089   1.977 -0.5140  0.4988 -0.1038
  619MOL0     H81651  11.844   5.184   2.263 -3.0908  2.0765 -2.8012
  619MOL0     H81652  11.901   5.019   2.212 -0.6094 -0.7206 -0.4124
  619MOL0     H81653  12.085   5.189   2.210  1.1142  2.1717 -1.4205
  619MOL0     H81654  11.979   5.294   2.127 -3.5463 -0.5547 -3.5396
  619MOL0     H81655  12.011   5.166   1.920 -2.2587  0.6554  1.4537
  619MOL0     H81656  12.051   5.017   2.016  0.0139  0.1143  0.4198
  619MOL0     H81657  12.257   5.124   2.104 -0.6875  1.8038  1.5262
  619MOL0     H81658  12.247   5.095   1.930 -1.3089 -4.1989  1.7878
  619MOL0     H81659  12.211   5.365   2.074  1.5809 -0.0337  0.9919
  619MOL0     H81660  12.204   5.352   1.898  0.2426  0.1686  0.1255
  619MOL0     H81661  12.434   5.417   2.169 -1.1334  0.1760  0.1980
  619MOL0     H81662  12.690   5.548   2.121  1.4392 -0.2155  0.5082
  619MOL0     H81663  12.785   5.452   2.002 -1.8722  0.7520 -2.5892
  619MOL0     H81664  12.680   5.332   2.275  1.0141 -1.8749  1.2496
  619MOL0     H81665  12.838   5.420   2.257 -1.7853  1.1056  0.7734
  619MOL0     H81666  12.749   5.163   2.102  0.2518 -0.3285 -0.9112
  619MOL0     H81667  12.909   5.253   2.103 -1.5038  1.9752 -1.0228
  619MOL0     H81668  12.934   5.194   2.340  1.2641 -0.0109 -1.0994
  619MOL0     H81669  12.913   5.041   2.252  1.4232 -0.3390  3.8493
  619MOL0     H81670  12.790   4.843   2.288 -0.3462 -1.9026 -1.4115
  619MOL0     H81671  12.616   4.696   2.203  0.3140 -0.4772  0.1822
  619MOL0     H81672  12.013   4.782   2.185 -1.1170  0.6727  0.9105
  619MOL0     H81673  11.844   4.590   2.207  1.5992  2.1307 -1.9779
  619MOL0     H81674  11.912   4.280   2.519  0.4787 -2.7503  1.3405
  619MOL0     H81675  11.992   4.198   2.383  2.1703  1.6862  0.2706
  619MOL0     H81676  11.815   4.053   2.406 -0.2621  0.0712 -0.6672
  619MOL0     H81677  11.752   4.164   2.296  2.3764 -0.6527  0.0938
  619MOL0     H81678  11.627   4.281   2.475 -3.7329 -1.1745  0.4818
  619MOL0     H81679  11.694   4.178   2.593  2.1218  4.2996  0.0560
  619MOL0     H81680  11.505   4.122   2.350  0.1803 -0.0809  0.3272
  619MOL0     H81681  11.593   3.983   2.418  1.0825  1.2467  0.0671
  619MOL0     H81682  11.369   4.147   2.544  0.4092  0.8803  2.7225
  619MOL0     H81683  11.494   4.067   2.639 -1.8335  1.4999  1.1057
  619MOL0     H81684  11.447   3.851   2.541  0.4090 -0.1192  1.1649
  619MOL0     H81685  11.321   3.917   2.431 -0.2446  0.0293  0.5745
  619MOL0     H81686  11.321   3.868   2.737 -0.6063  0.4380  1.2585
  619MOL0     H81687  11.217   3.994   2.667 -0.2102 -0.4115  0.1409
  619MOL0     H81688  11.214   3.690   2.591 -0.8761 -0.1540 -3.1371
  619MOL0     H81689  11.109   3.824   2.511 -0.6824 -0.0393 -0.2027
  619MOL0     H81690  12.116   4.392   2.471 -1.2703 -0.0902 -0.1454
  619MOL0     H81691  12.287   4.571   2.430  0.5568 -4.2453 -1.6022
  619MOL0     H81692  12.332   5.030   2.271  0.1938  2.1621 -1.7908
  619MOL0     H81693  12.504   5.169   2.335 -1.0591 -0.0768  0.6630
  619MOL0     H81694  11.321   5.076   1.920  0.2899 -0.6594 -0.5522
  619MOL0     H81695  11.084   5.158   1.905  0.1352  1.7728  0.5995
  619MOL0     H81696  10.590   4.963   2.239  1.1851  0.3479  0.3040
  619MOL0     H81697  10.369   5.068   2.238 -1.7849  3.2150 -0.2920
  619MOL0     H81698  10.219   5.363   2.274  0.6142  0.5932 -0.9825
  619MOL0     H81699  10.204   5.192   2.282 -3.1701 -1.6994 -1.7014
  619MOL0     H81700  10.033   5.208   2.077 -1.5073 -1.9932  1.8777
  619MOL0     H81701   9.973   5.268   2.234 -0.2266  0.8261  0.5212
  619MOL0     H81702  10.105   5.443   2.003 -2.2381  2.6903 -2.2446
  619MOL0     H81703  10.042   5.508   2.160 -1.4126 -0.8406  0.0446
  619MOL0     H81704   9.898   5.382   1.934  0.4705  0.6067 -0.0910
  619MOL0     H81705   9.820   5.411   2.089  2.1204 -3.2100  1.9444
  619MOL0     H81706   9.864   5.818   1.980 -0.9767 -0.0408 -3.3172
  619MOL0     H81707  10.500   5.386   2.003 -1.9293 -0.6849  0.7783
  619MOL0     H81708  10.723   5.292   1.992 -0.0482 -0.2296 -0.3945
  620MOL0     O81709   1.079   5.457   3.061  0.9006  0.4339  0.0764
  620MOL0     C81710   1.098   5.575   3.069  0.4127 -0.3762  0.0101
  620MOL0     O81711   1.002   5.670   3.092  0.7686  0.1787  0.3794
  620MOL0     C81712   0.875   5.637   3.078 -0.0293 -0.2665  0.2173
  620MOL0     C81713   0.823   5.609   2.953  0.7951  0.0339 -0.2162
  620MOL0     C81714   0.693   5.565   2.950 -0.7232 -0.4993 -0.0898
  620MOL0     C81715   0.611   5.535   3.069  0.3653  0.0735  0.0024
  620MOL0     O81716   0.482   5.490   3.060 -0.0233 -0.2768 -0.4497
  620MOL0     C81717   0.401   5.456   3.178  0.2639 -0.5647 -0.8984
  620MOL0     C81718   0.274   5.385   3.130  0.4718 -0.7656  0.4498
  620MOL0     C81719   0.190   5.474   3.038 -0.4420  0.4946 -0.2028
  620MOL0     C81720   0.047   5.412   3.017 -1.3974  0.5362  0.0816
  620MOL0     C81721  -0.018   5.487   2.898 -0.4525 -0.0713 -0.0002
  620MOL0     C81722  -0.172   5.483   2.886  0.0153 -0.7584 -1.4040
  620MOL0     C81723  -0.229   5.355   2.937 -0.0243 -0.1352 -0.4616
  620MOL0     C81724  -0.382   5.334   2.925 -0.2784  0.2378  0.4963
  620MOL0     N81725  -0.450   5.402   3.031  0.7105  0.3072 -0.2358
  620MOL0     C81726  -0.498   5.531   3.009  0.8790  0.4173  0.0166
  620MOL0     C81727  -0.496   5.583   3.135  0.7973 -0.3061 -0.2088
  620MOL0     C81728  -0.529   5.727   3.168  0.1608 -0.1659 -0.2978
  620MOL0     C81729  -0.666   5.753   3.102 -0.8078 -0.5256 -0.5538
  620MOL0     C81730  -0.725   5.891   3.140  0.6704 -0.1943 -0.5216
  620MOL0     C81731  -0.776   5.889   3.285  0.0571  0.5587  0.7389
  620MOL0     O81732  -0.894   5.799   3.299  0.5737 -0.5011 -0.4593
  620MOL0     C81733  -1.022   5.833   3.269  0.6333  0.8142  0.1557
  620MOL0     C81734  -1.120   5.729   3.260  0.6350  0.5044 -0.2286
  620MOL0     C81735  -1.257   5.768   3.236  0.5283  0.4092 -1.2536
  620MOL0     C81736  -1.300   5.904   3.213 -0.4792  0.3548  0.5109
  620MOL0     C81737  -1.447   5.931   3.196 -0.1629  0.3719 -0.2069
  620MOL0     O81738  -1.535   5.828   3.153  0.3213 -0.1379 -0.4743
  620MOL0     C81739  -1.668   5.847   3.154  1.0247  0.9886  0.3804
  620MOL0     C81740  -1.732   5.953   3.213 -0.7532  0.1906 -0.0474
  620MOL0     C81741  -1.872   5.955   3.224 -0.9538  0.5733 -0.1975
  620MOL0     C81742  -1.946   5.852   3.161 -0.7863  0.4410 -0.5454
  620MOL0     O81743  -2.085   5.837   3.167  0.0933  0.5901  0.4550
  620MOL0     C81744  -2.163   5.918   3.252 -1.2437 -0.1419  0.0244
  620MOL0     C81745  -2.315   5.889   3.244  0.1952 -0.5157 -0.1614
  620MOL0     C81746  -2.345   5.745   3.299 -0.0746 -1.1420  0.1865
  620MOL0     C81747  -2.481   5.720   3.249  0.2920  0.4397 -0.4145
  620MOL0     C81748  -2.518   5.568   3.266  0.5275 -0.5240 -0.4884
  620MOL0     C81749  -2.662   5.552   3.237  1.1624 -1.0494  0.1205
  620MOL0     C81750  -2.713   5.413   3.257 -0.5535 -0.3178 -0.3023
  620MOL0     C81751  -2.869   5.407   3.232  0.0020  0.5162  0.0905
  620MOL0    Cl81752  -2.956   5.495   3.376 -0.1813  0.2229 -0.0489
  620MOL0     C81753  -1.878   5.746   3.097 -0.7123  0.2822  0.4842
  620MOL0     C81754  -1.735   5.740   3.091  0.4208 -0.4942 -0.4504
  620MOL0     O81755  -1.474   6.050   3.185 -0.4332 -0.7363  0.4684
  620MOL0     C81756  -1.197   6.002   3.213  0.7958 -0.2786 -0.3935
  620MOL0     C81757  -1.062   5.967   3.240  0.8467  1.2025 -0.2730
  620MOL0     N81758  -0.444   5.499   3.228 -0.0086 -0.5498 -0.7129
  620MOL0     N81759  -0.411   5.395   3.160  0.3876 -0.1350  0.0862
  620MOL0     C81760   0.672   5.557   3.192 -0.6421 -0.3476 -0.0504
  620MOL0     C81761   0.796   5.620   3.194 -0.5988  0.7470  0.0898
  620MOL0     C81762   1.235   5.632   3.068  0.2110 -0.0052 -0.7368
  620MOL0     C81763   1.253   5.768   3.081  0.4129  1.0484  0.3782
  620MOL0     C81764   1.374   5.828   3.052 -0.2066  0.5042  0.4800
  620MOL0     C81765   1.488   5.752   3.025  0.0236  0.0611 -0.3759
  620MOL0     O81766   1.609   5.808   2.985  0.5299  0.5025  0.0381
  620MOL0     C81767   1.615   5.949   2.947  0.8583 -0.3490 -0.6703
  620MOL0     C81768   1.752   5.995   2.904 -0.3259  0.1761  0.1516
  620MOL0     C81769   1.819   5.910   2.801 -0.3390  0.2502  0.4130
  620MOL0     C81770   1.969   5.950   2.790 -0.5141  0.4036  0.3697
  620MOL0     C81771   2.033   5.914   2.664  0.1668  0.1227  0.1732
  620MOL0     C81772   2.094   5.897   2.562 -0.1237 -0.7785 -0.1332
  620MOL0     C81773   1.473   5.616   3.035  0.7116  0.6308  1.1480
  620MOL0     C81774   1.347   5.552   3.050  0.4593  0.2750 -0.3333
  620MOL0     H81775   0.884   5.614   2.863  0.8261  1.5301 -0.1382
  620MOL0     H81776   0.640   5.551   2.856 -1.4383 -0.1833  0.2553
  620MOL0     H81777   0.372   5.546   3.233  1.1045 -0.8502  0.0446
  620MOL0     H81778   0.464   5.389   3.237 -2.9739 -2.3525  0.8073
  620MOL0     H81779   0.216   5.359   3.218 -1.1466  2.0012  0.3089
  620MOL0     H81780   0.304   5.290   3.084 -0.8770 -0.0617 -2.1138
  620MOL0     H81781   0.231   5.463   2.938 -1.7370  1.7932 -0.9199
  620MOL0     H81782   0.192   5.579   3.069 -2.3102 -0.1853  2.6706
  620MOL0     H81783   0.063   5.305   3.001  1.8013  0.5886  1.9605
  620MOL0     H81784  -0.008   5.421   3.111  1.8034  0.6388  2.1157
  620MOL0     H81785   0.022   5.442   2.807 -2.5632 -1.3653 -0.3586
  620MOL0     H81786   0.014   5.591   2.902 -1.0737  0.0770  2.6706
  620MOL0     H81787  -0.213   5.504   2.786 -3.4679 -0.1393  0.0187
  620MOL0     H81788  -0.208   5.559   2.955  1.3055 -0.2308 -1.2917
  620MOL0     H81789  -0.185   5.267   2.890  2.6603  0.6515  0.4293
  620MOL0     H81790  -0.200   5.338   3.041 -0.8718 -4.7212 -0.7543
  620MOL0     H81791  -0.402   5.226   2.927  1.0063 -0.0551 -0.5321
  620MOL0     H81792  -0.422   5.374   2.831 -0.3266  2.1946  1.3188
  620MOL0     H81793  -0.514   5.586   2.917  0.0679 -1.2146 -0.8632
  620MOL0     H81794  -0.451   5.786   3.119  1.6398 -1.3463  0.5513
  620MOL0     H81795  -0.525   5.747   3.275  0.2888  1.9337 -0.6464
  620MOL0     H81796  -0.737   5.679   3.141  1.7300 -2.0835  1.4459
  620MOL0     H81797  -0.657   5.734   2.995  1.9011 -1.0042 -0.3190
  620MOL0     H81798  -0.645   5.964   3.130 -0.6395  1.6200  1.4530
  620MOL0     H81799  -0.807   5.908   3.069  0.4793  1.9365  0.1599
  620MOL0     H81800  -0.797   5.987   3.328 -0.2827  1.7289 -1.8786
  620MOL0     H81801  -0.702   5.841   3.350  0.1781 -1.1432 -0.5793
  620MOL0     H81802  -1.090   5.625   3.257 -1.4615 -0.1749  0.7050
  620MOL0     H81803  -1.334   5.692   3.237 -0.4991  1.4151 -0.4961
  620MOL0     H81804  -1.687   6.029   3.276  0.6887 -0.9378  0.3281
  620MOL0     H81805  -1.911   6.033   3.288  2.6649  2.6185 -0.2162
  620MOL0     H81806  -2.149   6.021   3.216  0.7761 -0.3119  0.2189
  620MOL0     H81807  -2.135   5.910   3.357 -2.9203 -1.8693  0.3895
  620MOL0     H81808  -2.355   5.902   3.143 -0.0624 -1.5109 -0.1992
  620MOL0     H81809  -2.369   5.964   3.302  0.2988 -0.4691 -0.1255
  620MOL0     H81810  -2.345   5.747   3.409 -0.8863  0.6213  0.1872
  620MOL0     H81811  -2.269   5.676   3.261 -0.8533 -0.6153 -2.5183
  620MOL0     H81812  -2.560   5.770   3.307 -0.4850  0.5100 -1.4929
  620MOL0     H81813  -2.491   5.745   3.143  0.9525  1.8528 -0.1583
  620MOL0     H81814  -2.497   5.542   3.370 -1.1232  0.1075  0.0424
  620MOL0     H81815  -2.464   5.505   3.195 -0.5056 -0.9537 -0.9101
  620MOL0     H81816  -2.667   5.576   3.130  1.3685  0.2318  0.3895
  620MOL0     H81817  -2.729   5.619   3.291 -0.7763 -0.9949 -2.1950
  620MOL0     H81818  -2.664   5.334   3.198 -1.8346 -3.4045  2.4339
  620MOL0     H81819  -2.707   5.378   3.361 -1.8514 -0.2260 -0.1881
  620MOL0     H81820  -2.904   5.303   3.223  0.6597  0.2883  0.1246
  620MOL0     H81821  -2.901   5.446   3.135  0.3265  0.2916 -0.1073
  620MOL0     H81822  -1.941   5.678   3.042  1.7615 -1.4876 -0.3276
  620MOL0     H81823  -1.682   5.659   3.042 -0.1872 -1.8180  1.0050
  620MOL0     H81824  -1.220   6.107   3.199 -0.4373 -0.3280  1.0013
  620MOL0     H81825  -0.987   6.046   3.234 -1.0818  3.5443  3.0407
  620MOL0     H81826   0.614   5.536   3.281 -0.2801  3.1552  1.1360
  620MOL0     H81827   0.843   5.647   3.287 -0.9603 -0.6917  0.7168
  620MOL0     H81828   1.166   5.828   3.104 -1.5987 -1.1248 -1.1130
  620MOL0     H81829   1.368   5.935   3.037 -0.7911  0.2849 -1.0071
  620MOL0     H81830   1.582   6.013   3.030 -0.1925  0.9689 -2.0371
  620MOL0     H81831   1.551   5.961   2.859  0.0092 -0.5030 -0.0945
  620MOL0     H81832   1.738   6.099   2.873  0.3012  0.9429  2.3053
  620MOL0     H81833   1.818   6.002   2.990 -2.6216 -0.7596  2.0946
  620MOL0     H81834   1.765   5.913   2.706  1.0604 -0.4733 -0.4297
  620MOL0     H81835   1.828   5.802   2.819  4.7542  0.5731  1.1786
  620MOL0     H81836   1.963   6.060   2.789 -2.1033  0.3287  0.3880
  620MOL0     H81837   2.031   5.922   2.876  1.3099 -1.7248 -1.5066
  620MOL0     H81838   2.144   5.898   2.468 -0.6621 -0.6830 -0.4236
  620MOL0     H81839   1.556   5.547   3.029 -2.7451 -3.8792 -1.8315
  620MOL0     H81840   1.349   5.444   3.043  3.7810  0.2575 -1.0778
  621MOL0     O81841   7.076  10.359   8.780 -0.0447 -0.0101  0.1744
  621MOL0     C81842   7.134  10.268   8.716 -0.0698  0.3703 -0.9731
  621MOL0     O81843   7.109  10.228   8.591 -0.1480  0.7161 -0.4792
  621MOL0     C81844   6.996  10.260   8.523  0.7299  0.7887 -0.2874
  621MOL0     C81845   6.966  10.381   8.473  0.3206 -0.3994  0.5654
  621MOL0     C81846   6.842  10.400   8.404 -1.1032  0.4593  0.3025
  621MOL0     C81847   6.753  10.295   8.373 -0.1799  0.0724  0.0072
  621MOL0     O81848   6.633  10.321   8.302 -0.2395 -0.2238 -0.7449
  621MOL0     C81849   6.536  10.218   8.284  0.1075 -0.4375 -0.6996
  621MOL0     C81850   6.442  10.211   8.404 -0.2679 -0.4727 -0.3813
  621MOL0     C81851   6.350  10.339   8.418  0.1147  0.3214  0.3287
  621MOL0     C81852   6.249  10.353   8.293  0.9349  0.5600 -0.3494
  621MOL0     C81853   6.159  10.474   8.323 -0.9811 -0.4717  0.4474
  621MOL0     C81854   6.058  10.513   8.215 -0.8705  0.1149 -0.7153
  621MOL0     C81855   6.004  10.658   8.244  0.2956 -0.5030  0.2172
  621MOL0     C81856   5.910  10.649   8.368  0.0572 -0.1134  0.0014
  621MOL0     N81857   5.796  10.556   8.354  0.1015 -0.0885 -0.2897
  621MOL0     C81858   5.693  10.566   8.259 -0.9390 -0.3909 -0.1314
  621MOL0     C81859   5.592  10.493   8.317 -0.4906 -1.1598 -0.5545
  621MOL0     C81860   5.465  10.468   8.254  0.1759  0.2553  0.7974
  621MOL0     C81861   5.350  10.486   8.355 -0.9900 -0.0023 -0.3104
  621MOL0     C81862   5.213  10.454   8.296  0.6511 -0.9167  0.6951
  621MOL0     C81863   5.098  10.471   8.397  0.0139  0.3086 -0.6167
  621MOL0     O81864   4.970  10.426   8.352  0.2289  0.2014 -0.4314
  621MOL0     C81865   4.866  10.509   8.345  0.1806  0.6371 -0.3611
  621MOL0     C81866   4.741  10.450   8.317 -0.6053  0.0168  0.4373
  621MOL0     C81867   4.621  10.527   8.298 -0.4437  0.1437  0.0193
  621MOL0     C81868   4.617  10.668   8.305  0.2839 -0.3013 -0.4995
  621MOL0     C81869   4.493  10.749   8.267  0.8020  0.8053 -0.9947
  621MOL0     O81870   4.385  10.672   8.224 -0.2543  0.0508  0.3542
  621MOL0     C81871   4.257  10.728   8.199  0.1924  0.3933  0.4943
  621MOL0     C81872   4.165  10.626   8.159 -1.0839 -0.7552  0.7254
  621MOL0     C81873   4.034  10.657   8.130 -0.1062 -0.7937 -0.7073
  621MOL0     C81874   3.980  10.785   8.159 -0.2380  0.0893 -0.3849
  621MOL0     O81875   3.851  10.823   8.142 -0.0257 -0.4061 -0.7348
  621MOL0     C81876   3.753  10.717   8.159 -0.6539 -0.6345  0.8710
  621MOL0     C81877   3.618  10.770   8.132  0.2037 -0.2075 -0.7540
  621MOL0     C81878   3.500  10.697   8.190 -0.1979  0.0582 -0.3740
  621MOL0     C81879   3.360  10.766   8.150  0.1960 -0.3352 -0.7134
  621MOL0     C81880   3.255  10.699   8.239 -0.6482 -0.6797 -0.6724
  621MOL0     C81881   3.122  10.765   8.239 -0.2955 -1.2199  0.7311
  621MOL0     C81882   3.126  10.892   8.309  0.2026  0.1789  0.1838
  621MOL0     C81883   3.003  10.925   8.391  0.0630  0.1142 -0.0511
  621MOL0    Cl81884   2.850  10.857   8.322 -0.1582  0.4648  0.5856
  621MOL0     C81885   4.073  10.884   8.196  0.5927 -0.4318 -0.7184
  621MOL0     C81886   4.212  10.860   8.212 -0.6490  1.3693  0.2684
  621MOL0     O81887   4.503  10.867   8.271  0.5523 -0.1551  0.3482
  621MOL0     C81888   4.747  10.731   8.314 -0.2858  0.6828 -0.1755
  621MOL0     C81889   4.868  10.647   8.324 -0.4291  0.1365 -0.3027
  621MOL0     N81890   5.636  10.434   8.434 -0.2256 -0.2484 -0.0311
  621MOL0     N81891   5.758  10.468   8.450  0.7316 -0.0390  0.5995
  621MOL0     C81892   6.793  10.168   8.415  0.1016 -0.2048 -0.6616
  621MOL0     C81893   6.909  10.154   8.492 -0.8304  0.4927 -0.2033
  621MOL0     C81894   7.249  10.224   8.786 -0.9689 -0.1262  0.1465
  621MOL0     C81895   7.336  10.131   8.723 -0.4611 -0.8343 -0.7008
  621MOL0     C81896   7.445  10.076   8.791 -0.5376  0.3089 -0.3286
  621MOL0     C81897   7.484  10.122   8.919  0.3263  0.2169  0.1810
  621MOL0     O81898   7.579  10.058   8.986  0.0992  0.1092  0.2373
  621MOL0     C81899   7.683  10.141   9.028 -0.2668 -0.7053 -0.2077
  621MOL0     C81900   7.812  10.080   8.996 -0.2688 -0.6361  0.0729
  621MOL0     C81901   7.860  10.003   9.114  0.5252 -0.3742  0.3104
  621MOL0     C81902   8.002   9.945   9.108 -0.0515  0.3431 -0.6823
  621MOL0     C81903   8.107  10.046   9.119  0.0764  0.5981 -0.5027
  621MOL0     C81904   8.192  10.129   9.111 -0.3334 -0.3556  0.4259
  621MOL0     C81905   7.405  10.217   8.977  0.2162  0.0624  0.0830
  621MOL0     C81906   7.289  10.274   8.917 -0.0879  0.1905  0.0256
  621MOL0     H81907   7.024  10.469   8.497 -0.7711  1.1398 -2.0228
  621MOL0     H81908   6.806  10.500   8.381 -0.3326  0.1267 -2.8232
  621MOL0     H81909   6.591  10.127   8.258  2.0639  0.3630  0.4409
  621MOL0     H81910   6.476  10.237   8.194 -2.2663  1.2807  1.1306
  621MOL0     H81911   6.509  10.201   8.490  0.9710 -2.1379 -1.4805
  621MOL0     H81912   6.380  10.121   8.397  0.5585 -1.3908  2.5597
  621MOL0     H81913   6.405  10.433   8.425 -0.0213  0.4538 -0.3627
  621MOL0     H81914   6.301  10.317   8.514  0.6237 -1.6231  0.1790
  621MOL0     H81915   6.300  10.371   8.198  0.9612  0.1878 -0.4045
  621MOL0     H81916   6.192  10.260   8.283  1.8082  0.2728 -3.5380
  621MOL0     H81917   6.215  10.563   8.354 -0.6245 -0.9736  1.2624
  621MOL0     H81918   6.101  10.456   8.414  1.8430  2.6819  3.1980
  621MOL0     H81919   5.987  10.429   8.210 -1.6626  0.7770 -0.7795
  621MOL0     H81920   6.103  10.509   8.115  2.7539  2.5931  0.6235
  621MOL0     H81921   6.091  10.724   8.255 -0.9092  1.0430  0.7085
  621MOL0     H81922   5.939  10.683   8.159  1.2254 -0.4267 -0.4909
  621MOL0     H81923   5.869  10.750   8.378 -2.9912 -1.4045  1.7910
  621MOL0     H81924   5.969  10.623   8.456 -0.9057  1.6287  1.2239
  621MOL0     H81925   5.691  10.636   8.177  1.5022  2.3044  1.9106
  621MOL0     H81926   5.456  10.374   8.200 -1.4957  0.8606 -0.0477
  621MOL0     H81927   5.443  10.539   8.174 -1.0612 -0.6393  0.3216
  621MOL0     H81928   5.359  10.586   8.397 -0.7900 -0.6022  1.1174
  621MOL0     H81929   5.363  10.415   8.437 -2.1080  0.3688  0.2021
  621MOL0     H81930   5.202  10.520   8.210 -0.2770 -2.2679 -0.2718
  621MOL0     H81931   5.209  10.347   8.273  0.6332 -0.3263 -2.3970
  621MOL0     H81932   5.103  10.577   8.422  0.1422  0.2980 -0.5944
  621MOL0     H81933   5.124  10.414   8.486 -0.1276  0.6394 -0.3621
  621MOL0     H81934   4.738  10.342   8.310 -0.0788  0.0934 -1.5600
  621MOL0     H81935   4.528  10.477   8.275 -1.8374  2.9627 -1.0454
  621MOL0     H81936   4.196  10.522   8.146  0.3375 -0.2090 -0.5308
  621MOL0     H81937   3.971  10.571   8.107  0.5440 -1.8388  1.1955
  621MOL0     H81938   3.759  10.684   8.263 -0.6987 -0.7902  0.8235
  621MOL0     H81939   3.777  10.638   8.088  0.4454 -0.3489  0.9069
  621MOL0     H81940   3.606  10.766   8.024 -2.1468  1.2926 -0.6096
  621MOL0     H81941   3.615  10.875   8.163 -2.1716 -0.5947  0.5846
  621MOL0     H81942   3.510  10.700   8.299  0.2424 -1.3086 -0.3549
  621MOL0     H81943   3.497  10.593   8.156 -1.7634 -0.2585  0.6253
  621MOL0     H81944   3.359  10.873   8.168  0.0518 -0.6150  1.1063
  621MOL0     H81945   3.335  10.751   8.044  3.0962  0.9809 -1.6671
  621MOL0     H81946   3.292  10.693   8.342 -0.7956 -2.1611 -0.6855
  621MOL0     H81947   3.239  10.594   8.215 -2.6877 -0.9672  1.5670
  621MOL0     H81948   3.056  10.703   8.301  0.8946  0.2403  3.6943
  621MOL0     H81949   3.107  10.773   8.131  1.9308  1.4493  0.5232
  621MOL0     H81950   3.211  10.905   8.377  2.0520  4.1353 -2.5239
  621MOL0     H81951   3.139  10.975   8.240  0.0105 -0.2513 -0.3734
  621MOL0     H81952   2.989  11.033   8.388  0.9398  0.2241 -0.5731
  621MOL0     H81953   3.023  10.886   8.491  1.2993 -2.5259 -1.2295
  621MOL0     H81954   4.029  10.982   8.214  2.4549  0.5127 -1.0729
  621MOL0     H81955   4.266  10.946   8.250 -1.7123  2.3660 -0.4061
  621MOL0     H81956   4.760  10.838   8.308 -1.7432  0.9903  1.3602
  621MOL0     H81957   4.961  10.703   8.327 -0.7171  0.6064  3.3441
  621MOL0     H81958   6.733  10.079   8.403 -0.1507 -0.1438  0.1182
  621MOL0     H81959   6.928  10.049   8.515 -1.1766  0.9839  2.8492
  621MOL0     H81960   7.324  10.104   8.619 -1.6251  1.7320 -1.2989
  621MOL0     H81961   7.503   9.995   8.748  1.4094  1.0680  0.7477
  621MOL0     H81962   7.677  10.172   9.133  3.4446 -0.3490  0.0619
  621MOL0     H81963   7.668  10.235   8.975  0.5476 -0.2335  0.3651
  621MOL0     H81964   7.792  10.006   8.919 -0.8797 -1.0178  0.5830
  621MOL0     H81965   7.879  10.152   8.948  0.9836 -0.7536  1.5828
  621MOL0     H81966   7.797   9.914   9.125  1.7284 -1.2614  0.1995
  621MOL0     H81967   7.859  10.058   9.208  4.8984  0.6895 -0.0449
  621MOL0     H81968   8.021   9.870   9.186  0.6145  1.1525 -0.0378
  621MOL0     H81969   8.006   9.908   9.005  0.5487  1.9239 -1.2537
  621MOL0     H81970   8.268  10.201   9.087 -0.5612 -0.2967 -0.1494
  621MOL0     H81971   7.433  10.236   9.080 -1.1873 -1.4235  0.7863
  621MOL0     H81972   7.232  10.338   8.984  2.5239  1.1883  1.4658
  622MOL0     O81973   5.411   1.034   5.147 -0.6538  0.3713 -0.0893
  622MOL0     C81974   5.409   1.004   5.267  0.1095 -0.2540 -0.2988
  622MOL0     O81975   5.307   0.951   5.341 -0.3689  0.2374  0.5978
  622MOL0     C81976   5.201   0.901   5.280  0.9466 -0.2639 -0.1727
  622MOL0     C81977   5.166   0.770   5.292 -0.2166  0.2984  0.1168
  622MOL0     C81978   5.054   0.727   5.230 -0.5786 -0.0098 -0.2581
  622MOL0     C81979   4.973   0.811   5.146  0.1181  0.3393 -0.0631
  622MOL0     O81980   4.852   0.769   5.087  0.6290 -0.5756 -0.0143
  622MOL0     C81981   4.832   0.627   5.062  0.3312 -0.8208  0.2197
  622MOL0     C81982   4.737   0.608   4.942 -0.3819  0.0437 -0.2502
  622MOL0     C81983   4.594   0.666   4.971 -0.0444 -0.6238 -0.7491
  622MOL0     C81984   4.509   0.658   4.843  1.1522  0.0686  0.2658
  622MOL0     C81985   4.376   0.731   4.853 -0.4437  0.0370 -0.0974
  622MOL0     C81986   4.384   0.874   4.892 -0.1895 -0.3638  0.1989
  622MOL0     C81987   4.262   0.925   4.968  0.1492  0.6567 -0.1030
  622MOL0     C81988   4.267   1.074   5.005  0.7264  0.1929  0.1495
  622MOL0     N81989   4.365   1.105   5.113  0.3954  0.4211 -0.3858
  622MOL0     C81990   4.506   1.112   5.112 -0.5766 -0.4634 -0.6583
  622MOL0     C81991   4.530   1.159   5.240  0.2199 -0.5900  0.3495
  622MOL0     C81992   4.667   1.181   5.301 -0.1863  0.8627  0.3860
  622MOL0     C81993   4.697   1.097   5.423 -0.6607 -0.1126 -0.6666
  622MOL0     C81994   4.742   0.964   5.363  1.0685  0.1820 -0.7608
  622MOL0     C81995   4.745   0.854   5.467  0.0992  1.1491 -0.3952
  622MOL0     O81996   4.832   0.917   5.571  0.2176  0.7500 -0.2914
  622MOL0     C81997   4.938   0.838   5.601  0.8939  0.6421  0.5109
  622MOL0     C81998   4.921   0.700   5.639 -0.9257 -0.4803 -0.3513
  622MOL0     C81999   5.028   0.618   5.679 -0.0231 -0.0360  0.1106
  622MOL0     C82000   5.158   0.667   5.669 -0.7608 -0.6119  0.7106
  622MOL0     C82001   5.274   0.593   5.708  0.3924  0.9359 -0.2272
  622MOL0     O82002   5.398   0.635   5.670  0.8771  0.2475 -0.4218
  622MOL0     C82003   5.517   0.577   5.710  0.3970 -0.2794  0.6080
  622MOL0     C82004   5.550   0.441   5.710  0.7644 -0.5463  0.9333
  622MOL0     C82005   5.675   0.398   5.746 -0.4722 -0.2503 -0.2494
  622MOL0     C82006   5.783   0.487   5.759 -0.4954  0.5179  0.1689
  622MOL0     O82007   5.915   0.434   5.772  0.0352 -0.1323  0.6197
  622MOL0     C82008   5.999   0.490   5.879 -0.0354  1.0374  0.4999
  622MOL0     C82009   6.097   0.384   5.922 -0.5416 -0.1155 -0.7018
  622MOL0     C82010   6.203   0.443   6.010 -0.3055  0.4953  0.2214
  622MOL0     C82011   6.321   0.344   6.051  0.7184  0.2653  0.6337
  622MOL0     C82012   6.448   0.410   6.098  0.3627 -0.8965 -0.1124
  622MOL0     C82013   6.425   0.473   6.237 -0.5721  0.3413 -0.1033
  622MOL0     C82014   6.552   0.554   6.275  0.4104  0.0873 -1.1084
  622MOL0     C82015   6.594   0.573   6.423 -0.0353 -0.1753 -0.5948
  622MOL0    Cl82016   6.455   0.677   6.486 -0.2461  0.1372  0.2464
  622MOL0     C82017   5.749   0.628   5.747 -0.1729 -0.0963 -0.1707
  622MOL0     C82018   5.616   0.672   5.735 -0.0989 -0.3090  0.5244
  622MOL0     O82019   5.254   0.501   5.780 -0.1731  0.4622  0.2888
  622MOL0     C82020   5.183   0.805   5.632  1.0544  0.0280  0.7533
  622MOL0     C82021   5.067   0.889   5.608 -0.0915 -0.7918 -0.2030
  622MOL0     N82022   4.408   1.178   5.311  0.2368 -0.2337  0.1393
  622MOL0     N82023   4.310   1.160   5.226  0.0993  0.1017 -0.2768
  622MOL0     C82024   5.016   0.936   5.123 -0.1220  0.0412  0.1704
  622MOL0     C82025   5.120   0.989   5.199 -0.1584  0.5230 -0.2736
  622MOL0     C82026   5.542   1.009   5.335 -0.5938 -0.5243 -0.4173
  622MOL0     C82027   5.557   1.049   5.469 -0.5752  0.0999 -0.3633
  622MOL0     C82028   5.679   1.059   5.534  0.2141 -0.1338 -0.6571
  622MOL0     C82029   5.793   1.033   5.459 -0.7839  0.1305 -0.7943
  622MOL0     O82030   5.925   1.053   5.502 -1.1825 -0.0410  0.2878
  622MOL0     C82031   5.958   1.087   5.640  0.4111 -0.5860  0.0488
  622MOL0     C82032   6.109   1.132   5.639  0.7007  0.3539  0.1115
  622MOL0     C82033   6.168   1.183   5.776 -0.1685  0.1128  0.6022
  622MOL0     C82034   6.101   1.311   5.820  0.2952  0.2913 -0.8627
  622MOL0     C82035   6.030   1.290   5.943  0.2034  0.4301 -0.3057
  622MOL0     C82036   5.975   1.285   6.047  0.3637  0.0929 -0.5231
  622MOL0     C82037   5.779   0.991   5.322 -0.7350 -0.1623 -0.6381
  622MOL0     C82038   5.659   0.973   5.262  0.1719 -0.4780  0.0202
  622MOL0     H82039   5.216   0.693   5.350 -0.2552 -0.9201 -1.3996
  622MOL0     H82040   5.006   0.632   5.255 -3.3561  1.5639  0.7839
  622MOL0     H82041   4.790   0.580   5.151  0.7550  0.9641  1.3922
  622MOL0     H82042   4.929   0.587   5.033  1.2435  1.4638 -0.0716
  622MOL0     H82043   4.729   0.502   4.916  1.6607 -0.1291 -0.3018
  622MOL0     H82044   4.785   0.655   4.856  2.2932 -3.1054 -0.6974
  622MOL0     H82045   4.608   0.767   5.010 -0.5500 -0.6185 -0.5838
  622MOL0     H82046   4.548   0.612   5.054  0.4850  1.1267  0.7652
  622MOL0     H82047   4.565   0.701   4.759  3.9547  1.0639  2.4757
  622MOL0     H82048   4.485   0.554   4.820  0.1875 -0.1447  2.1204
  622MOL0     H82049   4.321   0.675   4.929 -0.6563  1.5020  0.8760
  622MOL0     H82050   4.315   0.726   4.762  0.1802 -0.5966 -0.4958
  622MOL0     H82051   4.393   0.936   4.803 -0.1703 -0.7949 -0.1049
  622MOL0     H82052   4.473   0.901   4.948  1.4130 -3.3430 -0.6969
  622MOL0     H82053   4.173   0.907   4.905  0.6287  2.5382 -1.4176
  622MOL0     H82054   4.260   0.863   5.058 -0.5056  0.8463  0.0199
  622MOL0     H82055   4.168   1.111   5.033  1.9462  2.0377  2.2946
  622MOL0     H82056   4.301   1.115   4.909  4.0984 -4.0900 -0.8082
  622MOL0     H82057   4.583   1.089   5.038  0.3468  1.8224 -0.4978
  622MOL0     H82058   4.665   1.290   5.312  1.7667  1.4447 -3.3697
  622MOL0     H82059   4.743   1.167   5.224 -0.9925  0.5499 -0.3626
  622MOL0     H82060   4.613   1.093   5.493  0.8752 -1.1757  1.1948
  622MOL0     H82061   4.782   1.149   5.470 -0.9714  0.7245 -1.0014
  622MOL0     H82062   4.680   0.926   5.281 -0.0930  1.2634 -0.4098
  622MOL0     H82063   4.842   0.992   5.328  0.6558  1.3098 -1.0825
  622MOL0     H82064   4.803   0.769   5.433 -1.1703  0.4910 -0.9715
  622MOL0     H82065   4.646   0.823   5.502 -0.2276 -0.0833 -2.2517
  622MOL0     H82066   4.821   0.661   5.625 -1.5503  0.8965  0.1751
  622MOL0     H82067   5.009   0.513   5.699 -3.3624  0.8220  2.2879
  622MOL0     H82068   5.481   0.359   5.692  1.5494 -1.4940  2.0822
  622MOL0     H82069   5.687   0.290   5.739  2.5494  0.0903 -4.1289
  622MOL0     H82070   5.935   0.506   5.967 -0.7523  0.7131  0.0464
  622MOL0     H82071   6.048   0.584   5.853  2.1764  0.4833  2.3102
  622MOL0     H82072   6.145   0.348   5.830  0.4751  1.0454 -0.6485
  622MOL0     H82073   6.057   0.292   5.965  1.7103  0.1761  2.3448
  622MOL0     H82074   6.169   0.483   6.105  2.0685  0.8405  1.0055
  622MOL0     H82075   6.252   0.524   5.955 -0.0465  1.4495  1.7971
  622MOL0     H82076   6.292   0.275   6.130 -1.8833  0.1098 -0.3571
  622MOL0     H82077   6.352   0.287   5.963 -1.9078  1.4259 -1.1513
  622MOL0     H82078   6.484   0.494   6.037 -0.0489  1.4085  2.5920
  622MOL0     H82079   6.530   0.338   6.106  0.0446 -1.1277  1.3151
  622MOL0     H82080   6.406   0.398   6.314  3.2261  0.5523  1.2477
  622MOL0     H82081   6.340   0.541   6.226 -0.3143  0.8304  0.8400
  622MOL0     H82082   6.636   0.503   6.229  0.2941 -0.4147 -0.7776
  622MOL0     H82083   6.555   0.656   6.235 -2.4820  0.7256  0.0490
  622MOL0     H82084   6.687   0.629   6.434 -0.1596 -0.0062 -0.3955
  622MOL0     H82085   6.606   0.476   6.473 -0.6491  0.2247  0.3649
  622MOL0     H82086   5.827   0.702   5.762  2.0080 -2.4618  0.7590
  622MOL0     H82087   5.590   0.778   5.736 -2.7546 -0.8105  3.5954
  622MOL0     H82088   5.281   0.846   5.610  1.0991 -1.7204 -2.8946
  622MOL0     H82089   5.077   0.993   5.580 -2.1280 -0.1642  1.2209
  622MOL0     H82090   4.968   0.995   5.046 -1.8258 -2.5185 -0.9026
  622MOL0     H82091   5.146   1.092   5.176 -2.5808  0.6515 -3.1980
  622MOL0     H82092   5.460   1.076   5.509 -0.2712  2.4729 -1.0935
  622MOL0     H82093   5.672   1.095   5.636 -0.9105 -1.2504 -0.3153
  622MOL0     H82094   5.940   0.998   5.701 -0.9203 -1.0992 -1.0416
  622MOL0     H82095   5.893   1.169   5.673  1.4990  0.3645 -0.0954
  622MOL0     H82096   6.164   1.042   5.609 -0.7374 -1.0637  1.4973
  622MOL0     H82097   6.125   1.211   5.565 -5.8543  1.8776 -0.2828
  622MOL0     H82098   6.271   1.219   5.770  0.1135 -0.7875 -0.0242
  622MOL0     H82099   6.172   1.107   5.854  0.9582  1.6895  2.1749
  622MOL0     H82100   6.164   1.398   5.838  2.1114 -1.1008 -0.1731
  622MOL0     H82101   6.030   1.335   5.740  0.7871  0.7208 -1.1790
  622MOL0     H82102   5.918   1.286   6.138 -1.4624  2.8372 -1.5512
  622MOL0     H82103   5.878   0.965   5.283  0.7657  2.8117  0.8677
  622MOL0     H82104   5.651   0.949   5.156  2.6542 -0.0123 -0.3468
  623MOL0     O82105  10.499   2.185   3.174 -0.8558 -0.4562 -0.2439
  623MOL0     C82106  10.521   2.310   3.178  0.4473 -0.2410  0.1057
  623MOL0     O82107  10.636   2.370   3.220  0.1824  0.2555  0.1694
  623MOL0     C82108  10.753   2.305   3.243  0.1020 -0.5017  0.4956
  623MOL0     C82109  10.820   2.296   3.365 -0.4128 -0.6335 -0.4992
  623MOL0     C82110  10.948   2.232   3.388  0.4146  0.1536  0.4450
  623MOL0     C82111  11.003   2.158   3.283 -0.7954 -0.0005 -0.4272
  623MOL0     O82112  11.127   2.093   3.294  0.1790  0.6616  0.0452
  623MOL0     C82113  11.157   2.044   3.425  0.5955 -0.0607  0.7757
  623MOL0     C82114  11.277   1.954   3.406  0.2564 -0.2229 -0.0292
  623MOL0     C82115  11.419   2.025   3.362  1.1543 -0.0486 -0.2445
  623MOL0     C82116  11.536   1.927   3.332  0.4824  0.6297  0.2473
  623MOL0     C82117  11.657   1.992   3.263  0.5431  0.2638 -0.6844
  623MOL0     C82118  11.723   2.099   3.356  1.1208  0.9213  0.6523
  623MOL0     C82119  11.839   2.172   3.294  0.2822 -0.0857 -0.2662
  623MOL0     C82120  11.944   2.079   3.227  0.2657  0.0252 -0.1238
  623MOL0     N82121  12.051   2.153   3.154  0.2421  0.3565  0.2000
  623MOL0     C82122  12.040   2.236   3.045  0.0896 -0.6299  0.0240
  623MOL0     C82123  12.159   2.306   3.043 -0.6712 -1.1480  0.5942
  623MOL0     C82124  12.188   2.407   2.934 -0.1930  0.1808 -0.5395
  623MOL0     C82125  12.268   2.329   2.824 -0.0225 -0.5509 -0.1532
  623MOL0     C82126  12.310   2.425   2.717 -0.5332 -0.8907  0.9912
  623MOL0     C82127  12.208   2.462   2.611  0.3244 -0.4168 -0.3140
  623MOL0     O82128  12.238   2.591   2.567 -0.1709 -0.2892 -0.2809
  623MOL0     C82129  12.155   2.665   2.485  0.4746 -0.0901 -0.5636
  623MOL0     C82130  12.195   2.795   2.455  0.0242 -0.4812  0.1580
  623MOL0     C82131  12.120   2.869   2.356  0.3215  1.0399 -0.2734
  623MOL0     C82132  12.004   2.811   2.292  0.3724 -0.5095  0.5298
  623MOL0     C82133  11.928   2.886   2.185 -0.3019  0.0499 -1.1157
  623MOL0     O82134  11.813   2.941   2.228  0.0283  0.2103  0.1872
  623MOL0     C82135  11.729   3.021   2.140  0.5441  0.0269  0.1900
  623MOL0     C82136  11.776   3.100   2.040  1.0270  0.0235 -0.2505
  623MOL0     C82137  11.691   3.173   1.965 -0.5704  0.0099  0.1271
  623MOL0     C82138  11.558   3.188   1.986  0.2978  0.0421 -0.5594
  623MOL0     O82139  11.473   3.268   1.908 -0.2127  0.3256 -0.1722
  623MOL0     C82140  11.538   3.377   1.834 -0.3478 -0.6672  0.5164
  623MOL0     C82141  11.423   3.472   1.785  0.1560  0.8799 -0.5423
  623MOL0     C82142  11.350   3.544   1.901 -0.2825  0.1723  0.3713
  623MOL0     C82143  11.280   3.664   1.829  0.6628  0.5776  0.6132
  623MOL0     C82144  11.213   3.756   1.928  0.2209 -0.3033 -0.6903
  623MOL0     C82145  11.140   3.869   1.851  0.2157 -0.0629 -0.1797
  623MOL0     C82146  11.047   3.949   1.933 -0.8356  0.3868 -0.5534
  623MOL0     C82147  11.109   4.043   2.036  0.1430  0.3368 -1.0310
  623MOL0    Cl82148  11.112   3.964   2.194 -0.2452  0.0140 -0.3860
  623MOL0     C82149  11.504   3.118   2.094 -0.1613 -0.1228 -0.2688
  623MOL0     C82150  11.586   3.038   2.172 -1.1884  0.2343 -0.1673
  623MOL0     O82151  11.990   2.912   2.084  1.1831 -1.1055 -0.1732
  623MOL0     C82152  11.960   2.682   2.325  0.7726 -0.1302  0.8735
  623MOL0     C82153  12.032   2.611   2.423 -0.4722 -0.4230  0.4784
  623MOL0     N82154  12.234   2.271   3.155 -0.3043 -0.6324  0.6293
  623MOL0     N82155  12.168   2.176   3.214 -0.1508 -0.5945 -0.5176
  623MOL0     C82156  10.937   2.168   3.158 -0.3297 -0.1168  0.0824
  623MOL0     C82157  10.814   2.239   3.139  0.1312  0.3271 -0.1303
  623MOL0     C82158  10.413   2.406   3.151 -0.0135 -0.5067  0.1587
  623MOL0     C82159  10.422   2.545   3.188  0.3849  0.1716  0.7894
  623MOL0     C82160  10.309   2.628   3.182 -0.0438  0.8097  0.3075
  623MOL0     C82161  10.185   2.577   3.135 -0.4969 -0.6974 -0.1450
  623MOL0     O82162  10.084   2.669   3.127  0.1988 -0.0053  1.0648
  623MOL0     C82163   9.982   2.646   3.032 -0.8730  0.0876  0.0116
  623MOL0     C82164   9.911   2.776   2.995 -0.3348 -0.7521  0.5592
  623MOL0     C82165   9.819   2.736   2.888 -0.0623  0.2456  0.1974
  623MOL0     C82166   9.741   2.860   2.844  1.2573  0.6065  0.6374
  623MOL0     C82167   9.650   2.839   2.725 -0.3041  0.1518 -0.0893
  623MOL0     C82168   9.573   2.829   2.633  0.3335  0.3170  0.0786
  623MOL0     C82169  10.174   2.443   3.103 -0.0882  0.1160  0.8284
  623MOL0     C82170  10.287   2.360   3.107 -0.5164  0.1795  0.2077
  623MOL0     H82171  10.783   2.360   3.445 -2.6635 -0.6925 -1.4012
  623MOL0     H82172  11.000   2.243   3.483 -1.2598  1.3801  1.2667
  623MOL0     H82173  11.066   1.998   3.465  0.5971 -2.0204 -1.2709
  623MOL0     H82174  11.182   2.127   3.492 -5.3531  0.8749  2.3547
  623MOL0     H82175  11.257   1.887   3.321 -0.0609  0.4411 -0.4823
  623MOL0     H82176  11.289   1.895   3.497 -1.3777 -0.4583  0.0595
  623MOL0     H82177  11.451   2.080   3.451 -0.1276  1.5796 -0.7213
  623MOL0     H82178  11.392   2.098   3.284  1.0438 -0.2334 -0.3790
  623MOL0     H82179  11.572   1.887   3.427 -2.0797 -0.1418  0.9500
  623MOL0     H82180  11.490   1.851   3.268 -1.8353  1.4285  0.8796
  623MOL0     H82181  11.626   2.050   3.176  1.9520  0.3780 -1.1341
  623MOL0     H82182  11.723   1.911   3.232 -1.3122 -1.0538 -1.3590
  623MOL0     H82183  11.752   2.030   3.437 -0.2442 -2.8471 -1.7839
  623MOL0     H82184  11.642   2.160   3.398  0.3326 -1.7737  3.5148
  623MOL0     H82185  11.804   2.249   3.224  1.2637 -1.3116 -2.1876
  623MOL0     H82186  11.888   2.214   3.382  1.7047 -1.0267 -0.5762
  623MOL0     H82187  11.903   2.004   3.160 -1.0875 -0.7582  1.4860
  623MOL0     H82188  11.992   2.027   3.310  1.3542  2.2685  0.7470
  623MOL0     H82189  11.956   2.251   2.978  0.3049 -3.1575 -0.8995
  623MOL0     H82190  12.251   2.489   2.968 -1.0557  0.2333  1.0213
  623MOL0     H82191  12.098   2.454   2.893  1.4528  3.4877 -0.6477
  623MOL0     H82192  12.214   2.246   2.777 -0.2769 -0.9049  0.7338
  623MOL0     H82193  12.356   2.281   2.867  1.3353  1.2385 -0.8505
  623MOL0     H82194  12.334   2.522   2.761  1.3605 -1.9374  2.4323
  623MOL0     H82195  12.400   2.387   2.668 -0.7403 -0.1828  0.0361
  623MOL0     H82196  12.110   2.466   2.660  0.1348  0.1936 -0.7348
  623MOL0     H82197  12.210   2.392   2.527 -1.0900 -0.8501 -0.0216
  623MOL0     H82198  12.281   2.841   2.503  0.3362  1.0700 -1.7742
  623MOL0     H82199  12.169   2.963   2.332 -0.9359  2.4835  2.3835
  623MOL0     H82200  11.876   3.106   1.998  0.1572  1.1602 -2.3548
  623MOL0     H82201  11.729   3.242   1.890 -1.3132  0.6306  0.3054
  623MOL0     H82202  11.595   3.342   1.748  4.9193  4.5585  1.2155
  623MOL0     H82203  11.610   3.427   1.900  0.3533 -2.0122  0.8074
  623MOL0     H82204  11.349   3.412   1.731 -1.1776  1.2084  0.8852
  623MOL0     H82205  11.459   3.544   1.710 -0.2059  0.5884 -1.0000
  623MOL0     H82206  11.429   3.588   1.963  0.2943  0.2774 -0.4293
  623MOL0     H82207  11.285   3.478   1.959 -0.9506 -1.3819 -2.0330
  623MOL0     H82208  11.347   3.731   1.775  2.9432 -2.0223  0.0277
  623MOL0     H82209  11.209   3.615   1.761  4.8447 -3.0501 -1.6184
  623MOL0     H82210  11.295   3.795   1.988 -1.4086  4.2408 -1.0827
  623MOL0     H82211  11.146   3.705   1.998  0.4866  3.4619  2.6549
  623MOL0     H82212  11.080   3.816   1.776  0.6661 -1.2460  0.2675
  623MOL0     H82213  11.220   3.920   1.796  0.9248 -1.6362 -0.6728
  623MOL0     H82214  10.988   4.000   1.857 -0.4188  0.9741 -0.4962
  623MOL0     H82215  10.984   3.887   1.997 -1.2488  1.3808  0.0182
  623MOL0     H82216  11.046   4.132   2.040  1.2033  1.1571 -1.9326
  623MOL0     H82217  11.209   4.085   2.022 -0.7697  4.1269  1.9770
  623MOL0     H82218  11.399   3.124   2.123 -0.1268 -3.2345  0.9193
  623MOL0     H82219  11.546   2.993   2.263 -2.3243 -1.4559 -1.4472
  623MOL0     H82220  11.896   2.612   2.272 -0.1917  0.4925  1.1930
  623MOL0     H82221  12.003   2.509   2.444 -0.0561 -0.8995 -1.1197
  623MOL0     H82222  10.998   2.125   3.079  0.6652 -1.5378  1.5665
  623MOL0     H82223  10.777   2.242   3.037 -0.4807  0.4787  0.0967
  623MOL0     H82224  10.515   2.578   3.233  1.6308 -1.3519 -0.5312
  623MOL0     H82225  10.312   2.737   3.186 -1.9839  0.9311 -0.5681
  623MOL0     H82226   9.906   2.581   3.075 -1.3418  1.8448  1.9667
  623MOL0     H82227  10.021   2.606   2.937  0.3523  1.9203 -0.3295
  623MOL0     H82228   9.854   2.810   3.081 -0.4498 -1.4575  0.7703
  623MOL0     H82229   9.979   2.855   2.960 -0.5979 -1.0150 -0.5776
  623MOL0     H82230   9.749   2.656   2.913  0.7692 -0.1008  1.5070
  623MOL0     H82231   9.876   2.682   2.812  2.7127  0.8628  1.6946
  623MOL0     H82232   9.693   2.918   2.923  3.9652  1.9492  1.4147
  623MOL0     H82233   9.814   2.936   2.818 -1.6006  2.8584 -1.4388
  623MOL0     H82234   9.496   2.828   2.558  1.1723 -2.3622 -0.8881
  623MOL0     H82235  10.077   2.408   3.067  1.1716 -3.2580  0.3069
  623MOL0     H82236  10.263   2.257   3.081 -1.6908  0.2789  0.8034
  624MOL0     O82237   2.878   2.732  10.780  0.2028  0.2856 -0.0378
  624MOL0     C82238   2.881   2.699  10.900 -0.0579 -0.2159  0.1139
  624MOL0     O82239   2.763   2.673  10.976 -0.5596  0.0460  0.0368
  624MOL0     C82240   2.640   2.683  10.909  0.7153  0.1648 -0.0197
  624MOL0     C82241   2.611   2.599  10.802 -0.4283 -0.5231  0.7909
  624MOL0     C82242   2.485   2.590  10.749  1.0797 -0.1620 -1.1714
  624MOL0     C82243   2.388   2.678  10.799 -1.3374 -0.0011  0.2064
  624MOL0     O82244   2.260   2.677  10.751 -0.8724  0.4501  0.7081
  624MOL0     C82245   2.243   2.686  10.607  0.1249  0.9687 -0.1754
  624MOL0     C82246   2.090   2.694  10.582  0.0073 -0.4223 -0.1677
  624MOL0     C82247   2.005   2.588  10.665  0.8404 -0.3797 -0.2217
  624MOL0     C82248   1.858   2.570  10.630 -0.0167 -0.4475  0.1176
  624MOL0     C82249   1.792   2.498  10.747 -0.3350  0.1397  0.6014
  624MOL0     C82250   1.641   2.518  10.739  0.2305 -0.3758 -0.4302
  624MOL0     C82251   1.563   2.459  10.857  0.5079 -0.2935 -0.4971
  624MOL0     C82252   1.629   2.499  10.991  0.2639 -0.6200 -0.7286
  624MOL0     N82253   1.527   2.452  11.086  0.5963  0.1592 -0.5119
  624MOL0     C82254   1.425   2.530  11.132  0.2297 -0.8221 -0.0788
  624MOL0     C82255   1.374   2.461  11.240  0.7454  0.0381  0.3368
  624MOL0     C82256   1.280   2.514  11.339  0.2128  0.8781  0.1783
  624MOL0     C82257   1.142   2.440  11.314  0.5365 -0.5283  0.1809
  624MOL0     C82258   1.139   2.291  11.359 -0.8657  0.3415 -0.4942
  624MOL0     C82259   0.999   2.243  11.385  0.4193 -0.5820 -0.1480
  624MOL0     O82260   0.927   2.259  11.268 -0.2337 -0.8071  0.0878
  624MOL0     C82261   0.810   2.207  11.253 -0.1649 -0.7081  0.0752
  624MOL0     C82262   0.760   2.227  11.124 -0.0552  0.7335 -0.4798
  624MOL0     C82263   0.635   2.184  11.090  0.5387  0.3333 -0.3976
  624MOL0     C82264   0.558   2.109  11.181  0.8086 -0.5974  0.2289
  624MOL0     C82265   0.414   2.072  11.143  0.2760  0.1298  0.0293
  624MOL0     O82266   0.342   2.005  11.226  0.4711 -0.7664 -0.0316
  624MOL0     C82267   0.206   1.982  11.210  0.2699  0.9538 -0.8053
  624MOL0     C82268   0.162   1.884  11.295  0.1371  1.0226 -0.3212
  624MOL0     C82269   0.032   1.852  11.311  0.5440 -0.0966  0.6000
  624MOL0     C82270  -0.065   1.910  11.226  0.2079 -0.2114 -0.2232
  624MOL0     O82271  -0.192   1.860  11.244  0.6916 -0.4489  0.3860
  624MOL0     C82272  -0.307   1.888  11.153  0.0392 -0.4868 -0.6774
  624MOL0     C82273  -0.413   1.783  11.180  0.8846 -0.3383 -0.7459
  624MOL0     C82274  -0.371   1.634  11.156 -0.0815 -1.0607  0.7673
  624MOL0     C82275  -0.301   1.556  11.275 -0.0173 -0.7911  0.1252
  624MOL0     C82276  -0.230   1.425  11.231  0.2750  0.0250 -0.6242
  624MOL0     C82277  -0.206   1.325  11.359 -0.0513 -0.4575  0.3631
  624MOL0     C82278  -0.341   1.258  11.396  0.1162  0.6820  0.7566
  624MOL0     C82279  -0.305   1.144  11.495 -0.7035 -0.1215 -0.2128
  624MOL0    Cl82280  -0.442   1.038  11.542 -0.0041 -0.0332  0.3556
  624MOL0     C82281  -0.025   2.017  11.141 -0.3898  0.9713  0.0848
  624MOL0     C82282   0.112   2.057  11.139  0.3842 -0.2917 -0.5167
  624MOL0     O82283   0.381   2.105  11.027  0.1071  0.0145 -0.4551
  624MOL0     C82284   0.606   2.084  11.311 -0.2507 -0.1606 -0.5034
  624MOL0     C82285   0.733   2.141  11.348 -0.2453  0.1867  0.5793
  624MOL0     N82286   1.451   2.342  11.254 -0.4921 -0.0599 -0.0546
  624MOL0     N82287   1.540   2.341  11.159  0.3882  0.3421 -0.4648
  624MOL0     C82288   2.411   2.755  10.909  1.0474 -0.0264  0.2983
  624MOL0     C82289   2.536   2.759  10.958 -0.4857  0.2609 -0.2401
  624MOL0     C82290   3.006   2.691  10.975 -1.1879 -0.0482  0.5735
  624MOL0     C82291   3.010   2.629  11.100  0.1896  0.7499  0.3537
  624MOL0     C82292   3.134   2.603  11.167  0.1511  0.0219 -0.6779
  624MOL0     C82293   3.260   2.627  11.110  0.6244  0.1663 -0.4247
  624MOL0     O82294   3.368   2.596  11.177 -0.2492 -0.3967  0.3875
  624MOL0     C82295   3.483   2.669  11.152  0.4497 -0.9778 -0.5335
  624MOL0     C82296   3.547   2.683  11.298 -0.1639  0.5892  0.5843
  624MOL0     C82297   3.693   2.718  11.290  0.8997 -0.4627  0.0750
  624MOL0     C82298   3.711   2.865  11.251 -0.6795 -0.0138 -0.0672
  624MOL0     C82299   3.847   2.892  11.281 -0.4318 -0.4118  0.1448
  624MOL0     C82300   3.968   2.909  11.309 -0.4037  0.4747 -0.2817
  624MOL0     C82301   3.254   2.691  10.980  0.0531  0.3386 -0.7906
  624MOL0     C82302   3.137   2.721  10.914  0.2902  0.0708  0.2728
  624MOL0     H82303   2.697   2.538  10.777  0.6721  1.1789  0.2436
  624MOL0     H82304   2.454   2.514  10.678  0.3831 -0.8945 -0.1169
  624MOL0     H82305   2.286   2.593  10.568  0.4914  1.0089  0.1236
  624MOL0     H82306   2.286   2.772  10.555  2.5546  1.0791  1.7858
  624MOL0     H82307   2.079   2.677  10.475  2.2086  1.1199 -0.7331
  624MOL0     H82308   2.053   2.794  10.607  0.4162 -0.5801  1.1628
  624MOL0     H82309   2.003   2.626  10.768  0.3652  5.1596 -1.9921
  624MOL0     H82310   2.048   2.487  10.665  1.2378 -0.2616 -2.3191
  624MOL0     H82311   1.821   2.671  10.615  3.2919  1.2185  2.1599
  624MOL0     H82312   1.840   2.509  10.541  0.4237  1.3226 -1.2317
  624MOL0     H82313   1.831   2.529  10.845 -3.9388  2.5687  1.4949
  624MOL0     H82314   1.812   2.392  10.730  0.3284  0.1236  1.3988
  624MOL0     H82315   1.598   2.460  10.657 -2.3520  1.2142 -0.3132
  624MOL0     H82316   1.610   2.622  10.729 -1.4084 -0.8098 -0.1984
  624MOL0     H82317   1.462   2.501  10.846  1.7822  2.6686 -2.0148
  624MOL0     H82318   1.557   2.351  10.840  1.2538 -0.7957  1.9467
  624MOL0     H82319   1.650   2.607  10.995  2.0247 -0.9499 -0.1370
  624MOL0     H82320   1.726   2.451  11.003  0.6350  0.4896  1.0234
  624MOL0     H82321   1.398   2.629  11.096 -2.7832 -1.3571  0.4324
  624MOL0     H82322   1.265   2.621  11.327  1.5489  1.2042  1.2215
  624MOL0     H82323   1.317   2.482  11.437  1.0905 -0.5196 -0.5777
  624MOL0     H82324   1.112   2.442  11.209  2.1064 -0.7565 -0.3056
  624MOL0     H82325   1.070   2.502  11.367 -0.5632 -0.0181 -1.8291
  624MOL0     H82326   1.198   2.237  11.285 -0.0258  1.6334 -0.7855
  624MOL0     H82327   1.190   2.279  11.455 -0.0630 -0.2922 -0.9898
  624MOL0     H82328   0.956   2.301  11.467  1.4860 -0.5282  0.3789
  624MOL0     H82329   1.003   2.138  11.415 -0.4871 -0.3613  0.8082
  624MOL0     H82330   0.816   2.282  11.049  1.0934  0.1339 -0.0950
  624MOL0     H82331   0.596   2.200  10.990 -0.5289 -0.4043 -0.1199
  624MOL0     H82332   0.232   1.826  11.354  1.0390  1.2561 -1.1343
  624MOL0     H82333   0.005   1.775  11.383 -1.2033 -3.2405 -3.0810
  624MOL0     H82334  -0.266   1.882  11.052 -2.7609 -2.0739 -1.8352
  624MOL0     H82335  -0.349   1.988  11.165  0.4561 -0.4565  0.7086
  624MOL0     H82336  -0.498   1.811  11.118 -1.9135 -1.5496  2.2562
  624MOL0     H82337  -0.445   1.786  11.284  1.7073 -2.6042 -0.3614
  624MOL0     H82338  -0.305   1.638  11.069  0.5343  1.3273  1.2784
  624MOL0     H82339  -0.461   1.576  11.135  0.2189 -1.4630  0.5772
  624MOL0     H82340  -0.233   1.615  11.337  1.2015 -0.3683 -1.5291
  624MOL0     H82341  -0.384   1.526  11.339  3.3559 -1.9471  4.4522
  624MOL0     H82342  -0.132   1.460  11.197 -0.5772  0.4620 -2.8110
  624MOL0     H82343  -0.282   1.372  11.150  3.2233  0.2672 -2.8493
  624MOL0     H82344  -0.164   1.371  11.449 -0.5032  0.4972  0.1014
  624MOL0     H82345  -0.126   1.255  11.333  1.0379  0.4972  1.0594
  624MOL0     H82346  -0.422   1.319  11.436 -0.7454  0.2669 -0.2861
  624MOL0     H82347  -0.382   1.210  11.306 -0.0390  0.6717  0.8322
  624MOL0     H82348  -0.250   1.190  11.578  1.5757 -0.4319 -1.4760
  624MOL0     H82349  -0.234   1.081  11.440 -0.3294  1.5508 -1.7743
  624MOL0     H82350  -0.100   2.072  11.085 -0.2584  1.8565  0.7473
  624MOL0     H82351   0.138   2.147  11.085  5.4750 -0.2974  1.4066
  624MOL0     H82352   0.555   2.021  11.383  1.0119 -0.2295  0.3562
  624MOL0     H82353   0.773   2.130  11.448  0.0217 -0.4331  0.4077
  624MOL0     H82354   2.327   2.815  10.942 -0.0186 -1.6822  0.7219
  624MOL0     H82355   2.545   2.820  11.047 -0.8376 -1.8333  1.3076
  624MOL0     H82356   2.916   2.600  11.145  0.5705 -1.8876 -0.4105
  624MOL0     H82357   3.140   2.568  11.270  1.5389  1.0333 -0.3893
  624MOL0     H82358   3.468   2.772  11.120 -0.1691  1.0264  5.0232
  624MOL0     H82359   3.542   2.624  11.072 -0.7657 -0.3594 -1.8092
  624MOL0     H82360   3.478   2.762  11.329  0.5989  1.9175 -0.9188
  624MOL0     H82361   3.536   2.595  11.362  1.0298  0.3908  0.5373
  624MOL0     H82362   3.737   2.663  11.206 -0.4445 -0.0197 -0.9627
  624MOL0     H82363   3.750   2.705  11.382 -0.4407  0.4971  1.0816
  624MOL0     H82364   3.699   2.871  11.143  0.5684 -0.2910 -0.2360
  624MOL0     H82365   3.642   2.934  11.300  0.3948  1.5608 -0.6926
  624MOL0     H82366   4.073   2.922  11.325 -0.3536 -1.4741  1.3529
  624MOL0     H82367   3.353   2.702  10.937  2.0623  0.9167  3.4000
  624MOL0     H82368   3.145   2.754  10.810  1.9547  0.0338  0.3704
  625MOL0     O82369   9.582   5.983   7.175  0.1391 -0.0075 -0.2157
  625MOL0     C82370   9.674   6.044   7.233  0.7580 -0.0518  1.4485
  625MOL0     O82371   9.665   6.127   7.341 -0.7551  0.8802  0.5731
  625MOL0     C82372   9.543   6.152   7.392  0.0193 -0.6587  0.7433
  625MOL0     C82373   9.494   6.281   7.370  1.1207  0.3344 -0.0456
  625MOL0     C82374   9.360   6.319   7.405  0.6487  0.9721 -0.1611
  625MOL0     C82375   9.280   6.220   7.454  0.1270  1.1881  0.2739
  625MOL0     O82376   9.151   6.253   7.475 -0.4921  0.1956 -0.7640
  625MOL0     C82377   9.090   6.207   7.591 -0.7804  0.2482  0.4995
  625MOL0     C82378   8.986   6.303   7.632  0.4065 -0.7895 -0.4071
  625MOL0     C82379   8.884   6.329   7.521 -0.0108 -0.2608  0.7431
  625MOL0     C82380   8.794   6.448   7.541  0.7735  0.0259 -0.6406
  625MOL0     C82381   8.692   6.452   7.668  0.6356 -0.1248  0.0163
  625MOL0     C82382   8.592   6.340   7.671 -0.2451 -0.0901  0.9926
  625MOL0     C82383   8.529   6.314   7.811 -0.4155 -0.1559  1.0284
  625MOL0     C82384   8.445   6.436   7.851  0.6731  0.5779 -0.0828
  625MOL0     N82385   8.368   6.401   7.974  0.6293  0.4524  0.5002
  625MOL0     C82386   8.240   6.463   7.995 -0.8087 -0.6594  0.1843
  625MOL0     C82387   8.194   6.415   8.110  0.2433 -0.0107 -0.0421
  625MOL0     C82388   8.062   6.454   8.180  0.4538 -0.0646  0.1957
  625MOL0     C82389   7.979   6.329   8.212 -0.7566 -0.3355 -0.6349
  625MOL0     C82390   7.850   6.376   8.285 -0.0652  0.5148  0.0882
  625MOL0     C82391   7.729   6.285   8.273  0.1551 -0.3340 -0.6242
  625MOL0     O82392   7.625   6.327   8.371  0.0087 -0.1309  0.3515
  625MOL0     C82393   7.491   6.316   8.338 -0.4343  0.1218  0.1238
  625MOL0     C82394   7.395   6.373   8.422 -0.9311 -0.1438 -0.4820
  625MOL0     C82395   7.259   6.368   8.392  0.5334  0.3488 -0.2510
  625MOL0     C82396   7.215   6.289   8.282  0.6677 -1.0729  0.2208
  625MOL0     C82397   7.068   6.297   8.247 -0.2492 -0.6727  0.3163
  625MOL0     O82398   6.982   6.371   8.327 -0.4004  0.5154 -0.2557
  625MOL0     C82399   6.843   6.352   8.316 -0.5062 -0.6645 -0.2980
  625MOL0     C82400   6.780   6.383   8.199 -0.0064 -0.4505  0.1756
  625MOL0     C82401   6.636   6.386   8.196 -0.3718  0.6884  0.3679
  625MOL0     C82402   6.563   6.383   8.313 -0.4366 -0.3936 -0.1856
  625MOL0     O82403   6.428   6.383   8.326 -0.7280  0.2971 -0.2202
  625MOL0     C82404   6.357   6.419   8.207  0.1108 -0.2242 -0.3300
  625MOL0     C82405   6.208   6.423   8.231 -0.3286 -0.0348  0.2252
  625MOL0     C82406   6.126   6.501   8.126  0.3288 -0.4903  0.3645
  625MOL0     C82407   5.978   6.474   8.151 -0.4550 -0.3078  1.1586
  625MOL0     C82408   5.931   6.507   8.295  0.6318 -0.7264 -0.0887
  625MOL0     C82409   5.776   6.527   8.293  0.4608 -0.1560 -0.3370
  625MOL0     C82410   5.695   6.401   8.259 -0.2223  0.1264 -0.2546
  625MOL0     C82411   5.546   6.431   8.275  0.2580  0.5494 -0.0627
  625MOL0    Cl82412   5.504   6.437   8.445 -0.1539 -0.3080 -0.5810
  625MOL0     C82413   6.635   6.379   8.436 -0.4367  0.1891  0.4693
  625MOL0     C82414   6.774   6.356   8.438  0.8706  0.0767  0.3918
  625MOL0     O82415   7.035   6.223   8.160  0.0948  0.6591 -0.0665
  625MOL0     C82416   7.307   6.230   8.201 -0.5275 -0.0656  0.7797
  625MOL0     C82417   7.440   6.245   8.229 -1.2129 -0.2413  0.0563
  625MOL0     N82418   8.272   6.307   8.142  0.0769  0.4151 -0.5419
  625MOL0     N82419   8.381   6.297   8.066  0.3386  0.7465 -0.3042
  625MOL0     C82420   9.331   6.090   7.484 -0.1260  0.6931  0.3902
  625MOL0     C82421   9.461   6.055   7.455  0.2629 -0.9733  0.7060
  625MOL0     C82422   9.804   6.028   7.169 -0.2104  0.8208  0.1753
  625MOL0     C82423   9.833   5.938   7.063 -0.1566 -0.2646  0.2204
  625MOL0     C82424   9.957   5.936   7.004 -0.0915  0.3753  0.6084
  625MOL0     C82425  10.063   6.015   7.054 -0.6321 -0.1798 -0.1576
  625MOL0     O82426  10.197   5.998   7.018 -0.2947 -0.9047  0.6697
  625MOL0     C82427  10.278   5.944   7.120 -0.8342  0.2067 -0.5600
  625MOL0     C82428  10.422   5.907   7.067  0.0065 -0.6872  0.0434
  625MOL0     C82429  10.519   5.874   7.175 -0.2625  0.9014 -0.2013
  625MOL0     C82430  10.657   5.834   7.110  0.5376 -1.3297  0.1898
  625MOL0     C82431  10.651   5.701   7.052  0.4187 -0.0645 -0.4553
  625MOL0     C82432  10.660   5.590   7.003 -0.4524 -0.4759  0.5562
  625MOL0     C82433  10.038   6.109   7.149 -0.2889  0.4455 -0.3299
  625MOL0     C82434   9.910   6.108   7.209  0.1115 -0.2995  0.8195
  625MOL0     H82435   9.563   6.349   7.322  3.5927 -0.1383  2.5050
  625MOL0     H82436   9.316   6.418   7.402 -1.1364  0.2849  1.2892
  625MOL0     H82437   9.167   6.217   7.668  0.4164 -0.7595 -0.5053
  625MOL0     H82438   9.060   6.102   7.590  3.0775 -1.0769 -1.7390
  625MOL0     H82439   9.031   6.402   7.642 -1.7210  0.5139 -2.7157
  625MOL0     H82440   8.946   6.271   7.729 -1.5794 -1.4423 -1.3805
  625MOL0     H82441   8.832   6.235   7.501  0.1423  0.0136 -1.1879
  625MOL0     H82442   8.940   6.353   7.430  0.6097  1.5865  1.5577
  625MOL0     H82443   8.860   6.535   7.537 -0.1577  0.8254  0.6249
  625MOL0     H82444   8.729   6.460   7.453 -2.7196 -0.9321  1.5969
  625MOL0     H82445   8.636   6.545   7.660  0.6001 -0.3092 -2.5483
  625MOL0     H82446   8.752   6.438   7.759  0.0153  1.1680  0.6415
  625MOL0     H82447   8.639   6.247   7.636  1.3069  1.0192 -0.0415
  625MOL0     H82448   8.522   6.366   7.591  0.7919 -1.0196 -0.2677
  625MOL0     H82449   8.463   6.227   7.818 -1.8034  0.6607 -0.9167
  625MOL0     H82450   8.611   6.304   7.883 -0.1941 -0.4983  0.7320
  625MOL0     H82451   8.370   6.447   7.772  0.3653 -0.9316 -0.0309
  625MOL0     H82452   8.504   6.527   7.865  0.8209  0.6404 -1.0698
  625MOL0     H82453   8.204   6.537   7.925  2.2976 -0.1413 -1.0487
  625MOL0     H82454   8.002   6.509   8.107 -0.5669 -2.8227 -1.2312
  625MOL0     H82455   8.080   6.507   8.274 -1.2761  0.2768  0.3611
  625MOL0     H82456   8.036   6.258   8.273 -3.6640 -2.2768  0.0467
  625MOL0     H82457   7.950   6.280   8.119  0.5154  0.3831 -1.4394
  625MOL0     H82458   7.873   6.379   8.392  2.2293 -0.0395 -0.3331
  625MOL0     H82459   7.820   6.479   8.262 -0.2876  0.0333 -2.0227
  625MOL0     H82460   7.765   6.182   8.288 -4.0225 -1.8432  0.4058
  625MOL0     H82461   7.702   6.299   8.168 -0.6607 -0.5520 -0.4535
  625MOL0     H82462   7.444   6.414   8.510 -1.3882  1.4114 -0.9144
  625MOL0     H82463   7.187   6.413   8.460  0.1660 -0.9345  0.2307
  625MOL0     H82464   6.829   6.405   8.104  0.2965  0.3459  0.5075
  625MOL0     H82465   6.577   6.399   8.106 -1.8816 -0.1166  1.1997
  625MOL0     H82466   6.383   6.347   8.128  0.6246 -1.0549  0.5660
  625MOL0     H82467   6.395   6.518   8.182 -3.7692  1.6239  0.4065
  625MOL0     H82468   6.188   6.454   8.334 -0.1456 -3.5742  1.4832
  625MOL0     H82469   6.169   6.321   8.222 -1.0152  0.2444  0.0256
  625MOL0     H82470   6.140   6.459   8.026  1.0450  0.3668  0.0998
  625MOL0     H82471   6.150   6.607   8.120  0.8313 -0.3859  3.0440
  625MOL0     H82472   5.915   6.533   8.084 -0.9196  0.7338  2.4674
  625MOL0     H82473   5.959   6.368   8.130 -0.4474 -0.0637 -0.1820
  625MOL0     H82474   5.976   6.602   8.325  2.6141 -1.3327 -0.9683
  625MOL0     H82475   5.962   6.429   8.365  3.0040  1.2356  1.1912
  625MOL0     H82476   5.758   6.610   8.224  1.5860  1.4665  1.2512
  625MOL0     H82477   5.745   6.561   8.392 -2.0063  1.8473 -1.6770
  625MOL0     H82478   5.716   6.367   8.158 -0.7871  2.5641 -1.2623
  625MOL0     H82479   5.737   6.319   8.318  1.4540  2.0697  1.4099
  625MOL0     H82480   5.479   6.354   8.235 -1.7406  1.7139  0.8385
  625MOL0     H82481   5.519   6.520   8.217 -0.1546 -1.0647 -2.5230
  625MOL0     H82482   6.587   6.395   8.532  0.3076 -0.3387  0.9363
  625MOL0     H82483   6.825   6.348   8.533 -1.6473 -1.3366  1.7367
  625MOL0     H82484   7.263   6.179   8.116 -2.1197  1.0341  0.9026
  625MOL0     H82485   7.516   6.196   8.168 -0.8117 -1.4934  1.4793
  625MOL0     H82486   9.275   6.009   7.531 -0.5213 -1.0166 -2.7862
  625MOL0     H82487   9.496   5.954   7.473 -2.0758 -1.7750  1.0015
  625MOL0     H82488   9.761   5.861   7.038 -0.3252  0.4549 -1.6066
  625MOL0     H82489   9.971   5.860   6.928 -2.2666  0.0286  0.4830
  625MOL0     H82490  10.235   5.850   7.157  1.0171 -1.4174 -2.2960
  625MOL0     H82491  10.289   6.018   7.198  0.5400 -0.9068  0.3493
  625MOL0     H82492  10.422   5.821   7.000 -0.8474  0.4102 -1.4378
  625MOL0     H82493  10.460   5.994   7.013  1.3630 -0.9302  0.5850
  625MOL0     H82494  10.500   5.779   7.226  1.4808  0.2476 -0.6717
  625MOL0     H82495  10.521   5.961   7.240  1.2421  1.4161 -0.8700
  625MOL0     H82496  10.671   5.905   7.028 -0.0252 -0.5473  0.7611
  625MOL0     H82497  10.746   5.854   7.170  0.0420  0.9891  0.2526
  625MOL0     H82498  10.689   5.492   6.969  1.4197 -0.1176  1.0129
  625MOL0     H82499  10.109   6.178   7.192  1.7036 -2.4503  1.3408
  625MOL0     H82500   9.896   6.182   7.287 -0.0598  0.3216  0.2163
  626MOL0     O82501   8.333   4.413   0.417 -0.3247 -0.7472 -0.5041
  626MOL0     C82502   8.386   4.385   0.524  0.2860  0.2185  1.0569
  626MOL0     O82503   8.317   4.351   0.633 -0.2177 -1.0273 -0.7284
  626MOL0     C82504   8.184   4.386   0.656  0.2090  0.0413  0.2123
  626MOL0     C82505   8.146   4.515   0.614  1.0783 -0.3347 -0.4118
  626MOL0     C82506   8.015   4.570   0.643 -0.2416  0.6506  0.1385
  626MOL0     C82507   7.929   4.494   0.722 -0.1257  0.6532  1.1712
  626MOL0     O82508   7.817   4.554   0.768 -0.4225 -0.2539  0.0945
  626MOL0     C82509   7.722   4.568   0.664  0.1497  0.0169  0.0402
  626MOL0     C82510   7.579   4.509   0.718 -0.1229 -0.1762  0.0037
  626MOL0     C82511   7.464   4.569   0.640  0.6774 -0.3764 -0.5924
  626MOL0     C82512   7.344   4.486   0.662  0.4443  0.5433 -1.2056
  626MOL0     C82513   7.226   4.565   0.612  0.2991  0.8398 -0.0919
  626MOL0     C82514   7.095   4.496   0.667  0.2387  0.2158 -1.4979
  626MOL0     C82515   6.990   4.475   0.559  0.2635  0.0555  0.4814
  626MOL0     C82516   6.872   4.383   0.602  0.6351 -0.8683 -0.0889
  626MOL0     N82517   6.771   4.382   0.494  0.2683  0.2505 -0.1812
  626MOL0     C82518   6.787   4.366   0.355  0.1709 -0.6827  0.0419
  626MOL0     C82519   6.661   4.373   0.309 -0.7805  0.8085 -0.3209
  626MOL0     C82520   6.638   4.362   0.159  0.6446  0.5527  0.1299
  626MOL0     C82521   6.659   4.493   0.082  0.0110  0.5137  0.1793
  626MOL0     C82522   6.573   4.614   0.117 -0.3836  0.4191  0.2788
  626MOL0     C82523   6.430   4.580   0.080 -0.2083  0.5033  0.3332
  626MOL0     O82524   6.424   4.598  -0.067 -0.2323  0.6275 -0.2623
  626MOL0     C82525   6.310   4.547  -0.131  0.0814 -0.0398 -1.1084
  626MOL0     C82526   6.276   4.604  -0.252  0.0756 -0.0636  1.0183
  626MOL0     C82527   6.160   4.577  -0.317  1.1488  0.0612 -0.1456
  626MOL0     C82528   6.066   4.483  -0.265 -0.4402 -0.2444  0.7289
  626MOL0     C82529   5.942   4.457  -0.337  0.3424 -0.6280  0.4010
  626MOL0     O82530   5.915   4.533  -0.439 -0.5097 -0.3851  0.8855
  626MOL0     C82531   5.787   4.543  -0.482  0.1650 -0.5390  0.3194
  626MOL0     C82532   5.682   4.576  -0.395 -0.2636  0.1644 -0.2454
  626MOL0     C82533   5.546   4.580  -0.448 -0.7584 -0.0120 -0.4746
  626MOL0     C82534   5.526   4.550  -0.585 -0.0231  0.2328  0.7559
  626MOL0     O82535   5.399   4.555  -0.642  0.2758 -0.2575 -0.8117
  626MOL0     C82536   5.310   4.667  -0.599 -0.3007  0.1999  0.4261
  626MOL0     C82537   5.186   4.672  -0.679 -0.1709  0.0789  0.7229
  626MOL0     C82538   5.105   4.805  -0.651  0.2968 -0.6311 -0.6196
  626MOL0     C82539   5.005   4.816  -0.769 -0.4677  0.2634 -0.7155
  626MOL0     C82540   4.898   4.916  -0.755  0.9392 -0.5957 -0.8217
  626MOL0     C82541   4.786   4.893  -0.862  0.4106 -0.0172 -0.3487
  626MOL0     C82542   4.682   4.988  -0.829  0.2620 -0.0204  0.1600
  626MOL0     C82543   4.562   4.970  -0.929 -0.1445 -0.1546 -0.8754
  626MOL0    Cl82544   4.429   5.090  -0.909  0.0686  0.1365 -0.0716
  626MOL0     C82545   5.630   4.516  -0.670 -0.3419 -0.5905  0.5246
  626MOL0     C82546   5.761   4.519  -0.619 -0.6905 -0.3822  0.9265
  626MOL0     O82547   5.862   4.376  -0.286 -0.2786 -0.1087  0.0961
  626MOL0     C82548   6.096   4.418  -0.145  0.1408 -0.3555 -0.0956
  626MOL0     C82549   6.222   4.441  -0.082 -0.5864 -0.2944 -0.4506
  626MOL0     N82550   6.573   4.390   0.411  0.8491 -0.5827 -0.6044
  626MOL0     N82551   6.639   4.393   0.517 -0.3655 -0.0617  0.7219
  626MOL0     C82552   7.971   4.365   0.764  0.0146 -0.4833 -0.3321
  626MOL0     C82553   8.096   4.314   0.726  0.2305 -0.0549 -0.2238
  626MOL0     C82554   8.530   4.367   0.544 -0.4671  0.4378  0.1587
  626MOL0     C82555   8.586   4.330   0.670  0.3406  0.5645  0.6536
  626MOL0     C82556   8.724   4.300   0.677 -0.0819 -0.0626  0.6012
  626MOL0     C82557   8.808   4.321   0.567 -0.6335  0.4394 -0.0061
  626MOL0     O82558   8.942   4.287   0.560 -0.1015 -0.6321 -0.2321
  626MOL0     C82559   9.006   4.235   0.679 -0.3732  0.4736  0.2689
  626MOL0     C82560   9.155   4.228   0.662  0.1315  0.0610  1.0054
  626MOL0     C82561   9.215   4.364   0.631  0.5190  0.3796 -0.4490
  626MOL0     C82562   9.352   4.347   0.575 -0.1600  0.1311 -0.0340
  626MOL0     C82563   9.441   4.272   0.670 -0.6175  0.4166  0.5035
  626MOL0     C82564   9.511   4.204   0.754  0.6724 -0.7966 -0.2952
  626MOL0     C82565   8.760   4.383   0.453  0.9120 -0.7395  0.8842
  626MOL0     C82566   8.626   4.411   0.439  1.1773 -0.1887 -1.2203
  626MOL0     H82567   8.224   4.580   0.575  1.4662  0.6723  1.8862
  626MOL0     H82568   7.999   4.677   0.629 -4.3102  0.4588  1.8591
  626MOL0     H82569   7.755   4.519   0.572  0.6972  0.3414  0.0622
  626MOL0     H82570   7.716   4.673   0.634 -0.7284 -0.0396 -0.0134
  626MOL0     H82571   7.559   4.542   0.820 -0.3025  1.2212 -0.4584
  626MOL0     H82572   7.577   4.401   0.703 -0.0926 -0.1278 -0.3585
  626MOL0     H82573   7.492   4.585   0.535 -0.7980 -0.2603 -0.9845
  626MOL0     H82574   7.442   4.668   0.680 -0.7145 -0.1097 -1.9144
  626MOL0     H82575   7.356   4.386   0.620  0.6820 -0.6851  1.5732
  626MOL0     H82576   7.334   4.456   0.767 -1.0345 -1.8769 -1.9483
  626MOL0     H82577   7.219   4.566   0.502 -4.4408  1.0525  0.0135
  626MOL0     H82578   7.232   4.670   0.642  1.5094  1.2066 -1.4935
  626MOL0     H82579   7.046   4.555   0.746 -0.3427  0.0141 -1.7021
  626MOL0     H82580   7.119   4.395   0.701 -3.7013 -0.7014 -0.8915
  626MOL0     H82581   6.945   4.569   0.528 -0.3823 -0.5342 -0.4272
  626MOL0     H82582   7.040   4.422   0.477  2.4443  0.3540  1.5542
  626MOL0     H82583   6.823   4.410   0.696  0.7339 -0.5742 -0.1202
  626MOL0     H82584   6.917   4.285   0.619 -3.7235 -2.9363  0.8145
  626MOL0     H82585   6.885   4.353   0.309  0.2278 -1.5932  0.3930
  626MOL0     H82586   6.538   4.323   0.141  0.6086  1.3587 -1.6869
  626MOL0     H82587   6.700   4.287   0.109 -0.1632 -0.7888  1.0726
  626MOL0     H82588   6.650   4.469  -0.024 -0.0928  2.3839 -0.2676
  626MOL0     H82589   6.765   4.514   0.098  1.4185 -4.2169 -1.1957
  626MOL0     H82590   6.581   4.644   0.222 -2.1990  1.2177  0.2162
  626MOL0     H82591   6.603   4.700   0.057  1.1678  0.2638  0.7832
  626MOL0     H82592   6.355   4.653   0.110 -2.9298 -2.1595  0.5099
  626MOL0     H82593   6.392   4.484   0.115  0.3709 -0.0138 -0.4143
  626MOL0     H82594   6.339   4.684  -0.288 -1.1923  0.0867 -1.1032
  626MOL0     H82595   6.132   4.632  -0.406 -1.0867  1.3995  1.2956
  626MOL0     H82596   5.702   4.600  -0.291  0.5573 -0.4283 -0.2642
  626MOL0     H82597   5.461   4.613  -0.390 -1.1170  0.3171 -1.1909
  626MOL0     H82598   5.369   4.756  -0.622  1.9285 -1.8827 -2.6116
  626MOL0     H82599   5.282   4.662  -0.493 -1.0616 -2.4954  0.1563
  626MOL0     H82600   5.126   4.581  -0.674 -0.1949 -0.0800 -1.4027
  626MOL0     H82601   5.214   4.680  -0.785 -0.1099  2.1441  0.8597
  626MOL0     H82602   5.176   4.888  -0.661 -0.9390  0.6628  0.8855
  626MOL0     H82603   5.046   4.812  -0.560 -1.5030  0.2195 -1.7855
  626MOL0     H82604   5.065   4.848  -0.855  0.5931  1.3074  0.3686
  626MOL0     H82605   4.955   4.721  -0.786 -1.3080  0.1867  1.7133
  626MOL0     H82606   4.934   5.020  -0.752 -1.8309  0.4291  0.7664
  626MOL0     H82607   4.845   4.893  -0.662 -1.9838 -0.5317 -2.3908
  626MOL0     H82608   4.748   4.791  -0.851  0.3632 -0.0833 -1.0903
  626MOL0     H82609   4.822   4.903  -0.965 -1.0673  0.8948 -0.8061
  626MOL0     H82610   4.644   4.973  -0.728 -2.3566 -0.2136 -0.7881
  626MOL0     H82611   4.727   5.088  -0.831  1.9882 -0.6925  1.7599
  626MOL0     H82612   4.520   4.869  -0.924  0.9685 -0.8470 -3.5558
  626MOL0     H82613   4.614   4.983  -1.024  1.4966  0.3850  0.0546
  626MOL0     H82614   5.609   4.510  -0.776  2.0241 -0.1002 -0.0139
  626MOL0     H82615   5.838   4.479  -0.684 -1.2988  0.6212 -0.4558
  626MOL0     H82616   6.015   4.356  -0.107 -1.9559  0.9216 -2.1892
  626MOL0     H82617   6.244   4.386   0.009 -4.2041 -1.7718 -0.2826
  626MOL0     H82618   7.892   4.310   0.815 -1.8652  0.5787 -1.9486
  626MOL0     H82619   8.115   4.213   0.760 -2.7209 -0.3735  0.8018
  626MOL0     H82620   8.516   4.300   0.746 -3.5547 -0.6806 -3.0391
  626MOL0     H82621   8.768   4.262   0.769 -0.4671 -2.4372 -0.1243
  626MOL0     H82622   8.977   4.133   0.705  6.3345 -2.6670 -2.2627
  626MOL0     H82623   8.992   4.297   0.768  0.4008  0.9952  0.0412
  626MOL0     H82624   9.209   4.169   0.736  0.5219  1.2182  1.6690
  626MOL0     H82625   9.163   4.160   0.577 -1.2884  1.9019 -0.6961
  626MOL0     H82626   9.216   4.420   0.724 -1.4539 -1.8941  1.0595
  626MOL0     H82627   9.162   4.426   0.558  1.5314  1.1204 -0.5757
  626MOL0     H82628   9.353   4.298   0.477 -2.4320  1.0968 -0.6017
  626MOL0     H82629   9.399   4.442   0.548 -0.3574 -0.0509 -1.0649
  626MOL0     H82630   9.568   4.147   0.825  0.1442  1.3934  2.0497
  626MOL0     H82631   8.829   4.417   0.377 -1.4237  1.2544 -0.4982
  626MOL0     H82632   8.581   4.445   0.347  0.9017  2.9449 -0.0448
  627MOL0     O82633   8.910   8.148   7.714 -0.1838  0.1683 -0.0905
  627MOL0     C82634   8.893   8.152   7.833 -0.8132 -0.1358 -0.1340
  627MOL0     O82635   8.769   8.163   7.897  0.6334 -0.7505  0.7254
  627MOL0     C82636   8.654   8.134   7.831  0.5785  0.4584 -1.1935
  627MOL0     C82637   8.632   8.110   7.694 -0.5562 -0.3619 -0.9265
  627MOL0     C82638   8.512   8.064   7.646 -0.3241  0.3536  0.2536
  627MOL0     C82639   8.400   8.065   7.732  0.4859 -0.3268 -0.0389
  627MOL0     O82640   8.276   8.044   7.689 -0.1278 -0.1040  0.5861
  627MOL0     C82641   8.222   8.152   7.609 -0.9719 -0.0006  0.7820
  627MOL0     C82642   8.077   8.119   7.588  0.0052  0.3931  0.3401
  627MOL0     C82643   8.019   8.189   7.470 -0.5882 -0.0098 -0.2424
  627MOL0     C82644   7.992   8.337   7.480  0.6387 -0.2463  0.2405
  627MOL0     C82645   7.943   8.392   7.341  0.3467  0.0640 -0.6159
  627MOL0     C82646   7.908   8.542   7.356 -0.0750 -0.1539  0.1878
  627MOL0     C82647   7.774   8.565   7.428 -0.1452 -0.0749 -0.4266
  627MOL0     C82648   7.743   8.708   7.463  0.1269 -0.0907 -0.1486
  627MOL0     N82649   7.595   8.709   7.482  0.4577  0.8716  0.1507
  627MOL0     C82650   7.526   8.662   7.597  0.2965  0.3534 -0.0986
  627MOL0     C82651   7.402   8.703   7.570 -0.1238  1.0191  0.9795
  627MOL0     C82652   7.283   8.683   7.663 -0.2101 -0.7549  0.4080
  627MOL0     C82653   7.254   8.535   7.680  0.1611  0.3677 -0.1599
  627MOL0     C82654   7.193   8.470   7.557 -0.1432  0.0138  0.0002
  627MOL0     C82655   7.056   8.519   7.520  0.4347 -0.0913  0.3771
  627MOL0     O82656   6.968   8.419   7.545  0.8504 -0.4349 -0.3081
  627MOL0     C82657   6.836   8.436   7.536  0.6864  0.8968 -1.6001
  627MOL0     C82658   6.782   8.558   7.511 -0.1313  0.1695 -0.2586
  627MOL0     C82659   6.644   8.580   7.513 -0.1793 -0.9166 -0.2455
  627MOL0     C82660   6.552   8.485   7.558 -0.4482 -0.1269 -1.0813
  627MOL0     C82661   6.405   8.517   7.571 -0.1489 -0.1906 -0.2248
  627MOL0     O82662   6.366   8.643   7.546 -0.0622  0.0557 -0.5030
  627MOL0     C82663   6.231   8.680   7.534 -0.2285  0.8186 -0.3215
  627MOL0     C82664   6.194   8.803   7.581  0.0474  0.7243 -0.4575
  627MOL0     C82665   6.053   8.832   7.570 -0.4578 -0.5538 -0.4638
  627MOL0     C82666   5.961   8.748   7.520  0.7871 -0.5386 -0.9052
  627MOL0     O82667   5.828   8.793   7.532 -0.0814  0.4203  0.2367
  627MOL0     C82668   5.729   8.699   7.507 -0.3870 -0.2353 -0.7827
  627MOL0     C82669   5.603   8.762   7.561 -0.1404 -0.1320  0.5331
  627MOL0     C82670   5.487   8.672   7.586 -0.9543  0.3748  0.2826
  627MOL0     C82671   5.362   8.747   7.626 -0.1443  0.6178  0.1652
  627MOL0     C82672   5.237   8.656   7.629 -0.0273 -0.1153 -0.5626
  627MOL0     C82673   5.107   8.740   7.627  0.5231  0.8303 -0.3023
  627MOL0     C82674   4.982   8.645   7.659  0.0167 -0.3097 -0.4413
  627MOL0     C82675   4.861   8.734   7.709 -0.0445 -1.2122 -0.7962
  627MOL0    Cl82676   4.746   8.616   7.775  0.1080  0.0207  0.1332
  627MOL0     C82677   6.001   8.629   7.459 -0.0322  0.1557  0.5705
  627MOL0     C82678   6.133   8.597   7.475 -0.2619  0.1359  0.1884
  627MOL0     O82679   6.329   8.423   7.599  0.2485  1.1651  0.0111
  627MOL0     C82680   6.606   8.365   7.596 -0.0276  0.6580  0.2281
  627MOL0     C82681   6.742   8.344   7.590 -0.6312  0.0375  0.8229
  627MOL0     N82682   7.397   8.753   7.443  1.2582 -0.4681 -1.2918
  627MOL0     N82683   7.509   8.753   7.391 -0.2275  0.4087 -0.9784
  627MOL0     C82684   8.415   8.106   7.865 -0.0566  0.5441  0.4618
  627MOL0     C82685   8.545   8.118   7.916 -0.6173  0.8319  0.0506
  627MOL0     C82686   9.011   8.153   7.932 -1.1824 -0.0691  0.5777
  627MOL0     C82687   9.145   8.169   7.888 -0.8459  0.4444  0.1280
  627MOL0     C82688   9.245   8.155   7.982  0.1877  0.1683  0.5930
  627MOL0     C82689   9.226   8.137   8.113  0.4908 -0.0022  0.1815
  627MOL0     O82690   9.337   8.106   8.184 -0.1521 -0.4716  0.2193
  627MOL0     C82691   9.325   8.118   8.327 -0.1582  0.2628  1.0632
  627MOL0     C82692   9.467   8.119   8.391  0.4709  0.4250  0.1426
  627MOL0     C82693   9.450   8.163   8.535  0.0483  0.1108 -0.4662
  627MOL0     C82694   9.578   8.203   8.611 -0.1481 -0.4308  0.4433
  627MOL0     C82695   9.624   8.340   8.575 -0.0715 -0.1836  0.1866
  627MOL0     C82696   9.663   8.455   8.558  0.4383 -0.5280 -0.6276
  627MOL0     C82697   9.093   8.150   8.159 -0.6297  0.5728 -0.1304
  627MOL0     C82698   8.984   8.145   8.071 -0.1969 -1.0733 -0.6352
  627MOL0     H82699   8.709   8.107   7.618  0.6489  0.4228  0.2252
  627MOL0     H82700   8.510   8.033   7.542  1.5923 -3.3707  1.1175
  627MOL0     H82701   8.278   8.176   7.519 -1.0379  0.2622  0.8107
  627MOL0     H82702   8.227   8.240   7.673 -3.0511  0.8679 -0.1500
  627MOL0     H82703   8.023   8.141   7.680  1.8393  1.9603  1.1193
  627MOL0     H82704   8.072   8.017   7.548 -1.5959  0.8183 -0.5982
  627MOL0     H82705   7.925   8.139   7.443 -0.6317  0.6634 -1.4092
  627MOL0     H82706   8.096   8.173   7.394  2.2721 -0.0421  2.4551
  627MOL0     H82707   7.909   8.346   7.550  0.4867  4.1642 -0.2444
  627MOL0     H82708   8.081   8.383   7.524  0.4116 -3.0314  4.1209
  627MOL0     H82709   7.855   8.343   7.298  0.4428 -0.3537 -0.3470
  627MOL0     H82710   8.013   8.372   7.259  0.8730 -1.2007  0.1025
  627MOL0     H82711   7.898   8.583   7.256  0.4625 -0.3950  0.0302
  627MOL0     H82712   7.994   8.602   7.389 -1.0717  2.2487 -1.2985
  627MOL0     H82713   7.686   8.531   7.372 -0.3176 -2.0384  0.9701
  627MOL0     H82714   7.787   8.513   7.523 -0.4696  0.4878 -0.0709
  627MOL0     H82715   7.780   8.760   7.375  0.0473  0.6123  0.2272
  627MOL0     H82716   7.790   8.739   7.557  2.2581  0.0967 -1.2117
  627MOL0     H82717   7.575   8.615   7.682 -0.1281 -1.0257 -0.5915
  627MOL0     H82718   7.196   8.739   7.629  1.7629  2.3677  0.0891
  627MOL0     H82719   7.308   8.733   7.757 -0.3199  1.8311 -0.8437
  627MOL0     H82720   7.175   8.538   7.755  0.1393  2.7005 -0.1948
  627MOL0     H82721   7.345   8.480   7.708 -0.3850 -1.4777 -1.7627
  627MOL0     H82722   7.264   8.498   7.478  0.1909 -1.7121 -0.3571
  627MOL0     H82723   7.200   8.363   7.580 -0.9374  0.1023  0.6628
  627MOL0     H82724   7.048   8.542   7.414 -3.1586 -1.8003  0.1390
  627MOL0     H82725   7.034   8.615   7.569  1.2390 -0.1199  0.8199
  627MOL0     H82726   6.844   8.645   7.492  0.0141  0.0607 -0.2876
  627MOL0     H82727   6.605   8.673   7.474  1.4770 -0.9198 -2.0404
  627MOL0     H82728   6.257   8.869   7.639 -1.3150  0.4870  1.3577
  627MOL0     H82729   6.020   8.931   7.601  1.6560  0.7311 -2.0070
  627MOL0     H82730   5.757   8.610   7.565 -0.4475  1.3823  1.8902
  627MOL0     H82731   5.721   8.675   7.400  1.8956 -4.2693 -0.2915
  627MOL0     H82732   5.573   8.840   7.491  2.0656  0.1394 -0.2027
  627MOL0     H82733   5.627   8.812   7.655  0.3316 -1.9329  1.4265
  627MOL0     H82734   5.520   8.591   7.652 -1.1347  0.1464  0.0955
  627MOL0     H82735   5.461   8.636   7.486 -1.6637 -0.2630  0.6889
  627MOL0     H82736   5.370   8.797   7.723 -1.0731 -0.7313  0.9829
  627MOL0     H82737   5.347   8.822   7.548 -0.9494  0.2402 -0.0603
  627MOL0     H82738   5.230   8.589   7.716 -2.7582  0.4161 -0.2715
  627MOL0     H82739   5.239   8.591   7.541 -1.9879  0.4357 -1.0727
  627MOL0     H82740   5.095   8.776   7.525 -1.3889  0.6522 -0.1782
  627MOL0     H82741   5.118   8.823   7.697 -2.2792 -1.7182  3.6824
  627MOL0     H82742   4.945   8.602   7.566 -0.2024  1.4515 -1.2169
  627MOL0     H82743   5.005   8.567   7.732  1.5072 -2.0519 -2.6341
  627MOL0     H82744   4.821   8.783   7.620  0.1949 -0.3637 -0.4498
  627MOL0     H82745   4.878   8.812   7.784 -1.8339 -0.6966 -0.8698
  627MOL0     H82746   5.938   8.552   7.415  0.6640  0.5353 -1.1896
  627MOL0     H82747   6.173   8.510   7.423 -1.5481 -1.4399  1.7155
  627MOL0     H82748   6.543   8.285   7.635 -0.7600  0.3394 -1.5206
  627MOL0     H82749   6.765   8.241   7.619 -0.2553 -0.9427 -2.5963
  627MOL0     H82750   8.326   8.108   7.927  0.2024 -0.4334  0.8931
  627MOL0     H82751   8.569   8.127   8.022  0.5525  0.1281 -0.1315
  627MOL0     H82752   9.155   8.178   7.780 -0.9835 -0.5501  0.0174
  627MOL0     H82753   9.346   8.171   7.945 -0.0284  2.8286  0.9459
  627MOL0     H82754   9.266   8.034   8.365 -0.6430 -0.2057 -0.6583
  627MOL0     H82755   9.277   8.212   8.354  0.1534  1.4453 -2.1166
  627MOL0     H82756   9.514   8.021   8.381 -1.9607 -0.8669  0.4889
  627MOL0     H82757   9.529   8.194   8.342 -1.1932  0.9944 -1.1869
  627MOL0     H82758   9.380   8.094   8.584 -0.0827  0.5563 -0.0282
  627MOL0     H82759   9.387   8.253   8.533  0.0547  0.1194 -0.2383
  627MOL0     H82760   9.564   8.193   8.719  1.8472 -1.2245  0.6793
  627MOL0     H82761   9.658   8.132   8.587 -1.7287 -2.1242 -0.1058
  627MOL0     H82762   9.690   8.557   8.539 -0.8028 -0.0618 -0.0158
  627MOL0     H82763   9.074   8.128   8.264  0.4287  2.1349  0.4141
  627MOL0     H82764   8.885   8.119   8.106 -0.2752  0.7853  0.7101
  628MOL0     O82765   8.731   7.755   5.240  0.1583  0.6069  0.5386
  628MOL0     C82766   8.756   7.727   5.354 -0.6234 -0.3459 -0.0516
  628MOL0     O82767   8.666   7.724   5.460 -0.1713 -0.6777  0.5652
  628MOL0     C82768   8.535   7.719   5.439 -0.1424  0.5894  0.1337
  628MOL0     C82769   8.476   7.845   5.471 -0.0181  1.1355 -0.0675
  628MOL0     C82770   8.335   7.856   5.457  0.6132 -0.5744 -0.5063
  628MOL0     C82771   8.255   7.745   5.423  0.9536  0.4746 -0.8571
  628MOL0     O82772   8.117   7.736   5.412  0.1562 -0.4649  0.3457
  628MOL0     C82773   8.050   7.862   5.417 -0.0777 -0.3543 -0.0601
  628MOL0     C82774   7.917   7.867   5.345 -0.0707  0.3376 -0.0666
  628MOL0     C82775   7.802   7.795   5.414  0.0455 -0.4316  0.4130
  628MOL0     C82776   7.671   7.792   5.336  0.0345  0.3121  0.3411
  628MOL0     C82777   7.547   7.728   5.403  0.7232 -0.1900 -0.4892
  628MOL0     C82778   7.492   7.823   5.519 -0.4197  0.4242 -0.4809
  628MOL0     C82779   7.336   7.819   5.540 -0.4418  0.2342  0.5843
  628MOL0     C82780   7.251   7.822   5.415  0.6722  0.0176  1.0359
  628MOL0     N82781   7.113   7.875   5.424  0.2310 -0.0759  0.4070
  628MOL0     C82782   7.008   7.797   5.451 -0.1709  0.3624 -0.2437
  628MOL0     C82783   6.898   7.866   5.423 -0.4991 -0.1293  0.7667
  628MOL0     C82784   6.753   7.814   5.418 -0.0207 -0.5568  0.2504
  628MOL0     C82785   6.680   7.851   5.542 -0.2180  0.5294 -1.0451
  628MOL0     C82786   6.551   7.765   5.543  0.7368  0.3196  0.1200
  628MOL0     C82787   6.464   7.766   5.667  0.0436  0.3768  0.6415
  628MOL0     O82788   6.334   7.704   5.640  0.0108  0.3200  0.9431
  628MOL0     C82789   6.228   7.731   5.718 -0.1656 -0.6651 -0.1135
  628MOL0     C82790   6.107   7.722   5.657 -0.4890  0.8242 -0.5110
  628MOL0     C82791   5.987   7.736   5.715 -0.3377 -0.4154 -0.5005
  628MOL0     C82792   5.982   7.790   5.846  1.3253  0.0532 -0.3731
  628MOL0     C82793   5.855   7.824   5.906  0.8882 -0.0683  0.0528
  628MOL0     O82794   5.744   7.801   5.827  0.5332  0.3881 -0.1135
  628MOL0     C82795   5.620   7.815   5.896 -0.0323 -0.3033 -0.7234
  628MOL0     C82796   5.532   7.918   5.861  0.0585  0.2784  0.8303
  628MOL0     C82797   5.406   7.923   5.918  1.2000 -0.9869  0.1000
  628MOL0     C82798   5.364   7.823   6.004  0.9401  0.8526  0.3622
  628MOL0     O82799   5.241   7.828   6.071 -0.4173  0.2395 -0.1737
  628MOL0     C82800   5.168   7.711   6.091 -0.5417  0.3892 -0.0704
  628MOL0     C82801   5.021   7.746   6.100  0.2567 -0.6984 -0.1708
  628MOL0     C82802   4.936   7.624   6.064  0.4575  0.3316  0.3251
  628MOL0     C82803   4.786   7.646   6.079 -0.4749  0.1419 -0.1603
  628MOL0     C82804   4.695   7.530   6.051 -0.0110  0.1519 -0.5277
  628MOL0     C82805   4.553   7.581   6.043 -0.4878  0.1944  0.0879
  628MOL0     C82806   4.466   7.474   5.961 -0.6193 -0.6649  0.5963
  628MOL0     C82807   4.316   7.509   5.976  0.8809  0.0708 -0.1289
  628MOL0    Cl82808   4.263   7.453   6.134  0.2437  0.0277  0.1806
  628MOL0     C82809   5.450   7.717   6.037 -0.2705 -0.0841 -0.2790
  628MOL0     C82810   5.575   7.709   5.981  0.3002  0.0530  0.8437
  628MOL0     O82811   5.850   7.862   6.023 -0.1430  0.3974  0.1621
  628MOL0     C82812   6.104   7.800   5.920  0.2381 -0.5843 -0.1126
  628MOL0     C82813   6.224   7.759   5.851 -0.0582  0.0831 -0.0104
  628MOL0     N82814   6.939   7.994   5.389  0.6238  0.5086  0.2317
  628MOL0     N82815   7.075   7.998   5.384 -0.6891 -0.2963  0.3653
  628MOL0     C82816   8.317   7.629   5.387 -0.0195  0.4248 -0.2391
  628MOL0     C82817   8.460   7.614   5.400  0.8117  0.9115 -0.6933
  628MOL0     C82818   8.893   7.726   5.394 -0.2261  0.5697  0.2335
  628MOL0     C82819   8.935   7.721   5.531  0.4300 -0.1432  0.5638
  628MOL0     C82820   9.073   7.723   5.567 -0.5079 -0.3752  0.0929
  628MOL0     C82821   9.173   7.753   5.478 -0.4410 -0.7995 -0.1440
  628MOL0     O82822   9.304   7.780   5.499 -0.2579  0.0728 -0.1590
  628MOL0     C82823   9.347   7.822   5.629 -0.4108  0.8085  0.5347
  628MOL0     C82824   9.402   7.710   5.712 -0.1910 -0.7825 -0.3893
  628MOL0     C82825   9.405   7.748   5.862 -0.2308  0.0355  0.5866
  628MOL0     C82826   9.272   7.700   5.921  0.0648  0.3049  0.0036
  628MOL0     C82827   9.248   7.778   6.038  0.4385  0.6515  0.3473
  628MOL0     C82828   9.210   7.829   6.140  0.9838 -0.3718  0.7556
  628MOL0     C82829   9.131   7.760   5.340  0.4378 -0.2990  0.6415
  628MOL0     C82830   8.993   7.743   5.298 -1.1517 -0.2229 -1.2839
  628MOL0     H82831   8.531   7.934   5.499  0.4810  0.7635  0.1623
  628MOL0     H82832   8.300   7.958   5.467 -0.2263 -0.9433  0.4882
  628MOL0     H82833   8.104   7.949   5.379  0.5674  0.2136  2.0294
  628MOL0     H82834   8.032   7.876   5.524 -1.0349  2.8112 -0.5396
  628MOL0     H82835   7.936   7.849   5.239 -0.0121  3.2462 -0.6419
  628MOL0     H82836   7.896   7.974   5.357  1.5291  0.8401 -1.3159
  628MOL0     H82837   7.781   7.839   5.512  2.1657  1.9510 -0.0743
  628MOL0     H82838   7.839   7.692   5.417 -0.3965 -0.5678  1.9185
  628MOL0     H82839   7.646   7.890   5.294 -0.1896  0.9215  1.8394
  628MOL0     H82840   7.688   7.731   5.247  2.0482  2.5602 -0.9397
  628MOL0     H82841   7.571   7.633   5.452 -0.8885  0.5238  1.9359
  628MOL0     H82842   7.471   7.711   5.327  0.3119 -2.0685  0.2932
  628MOL0     H82843   7.517   7.927   5.495 -0.4057  0.5254 -0.0281
  628MOL0     H82844   7.543   7.799   5.613 -0.2010  0.6366 -0.5449
  628MOL0     H82845   7.307   7.724   5.585 -1.3141  1.1491  1.9865
  628MOL0     H82846   7.314   7.900   5.609  1.2854  0.7850  0.5566
  628MOL0     H82847   7.249   7.727   5.362  1.2944  0.8743 -0.5699
  628MOL0     H82848   7.307   7.886   5.346  1.2214 -0.5257  0.9709
  628MOL0     H82849   7.023   7.694   5.482 -0.8290  0.4281  0.3216
  628MOL0     H82850   6.764   7.705   5.418 -1.4649 -0.7229  0.9132
  628MOL0     H82851   6.697   7.846   5.329  0.5594 -1.5891 -0.5088
  628MOL0     H82852   6.662   7.958   5.559  1.3772  0.2298  3.8889
  628MOL0     H82853   6.740   7.823   5.628  0.4973 -1.6112 -2.1749
  628MOL0     H82854   6.491   7.796   5.457 -0.5432 -0.2141  0.7971
  628MOL0     H82855   6.594   7.665   5.535 -0.2182 -0.3558  2.5663
  628MOL0     H82856   6.458   7.868   5.707 -0.5622  0.4945  0.2686
  628MOL0     H82857   6.519   7.707   5.741  1.3392 -0.1062 -0.6642
  628MOL0     H82858   6.111   7.678   5.557 -2.4637 -0.1333 -0.2067
  628MOL0     H82859   5.915   7.706   5.639  1.9418 -1.7408 -2.2780
  628MOL0     H82860   5.568   8.000   5.799  1.2861 -0.0131  1.1363
  628MOL0     H82861   5.340   8.008   5.905  0.0627 -1.8896 -0.1986
  628MOL0     H82862   5.195   7.656   6.182 -3.6699  0.2112  0.8738
  628MOL0     H82863   5.182   7.647   6.003 -1.3728  2.0044 -1.4326
  628MOL0     H82864   4.986   7.827   6.035 -1.5216  0.7407  2.3890
  628MOL0     H82865   5.000   7.782   6.201  1.3436 -0.4913 -0.0068
  628MOL0     H82866   4.970   7.533   6.114 -1.4338 -0.9705 -0.6346
  628MOL0     H82867   4.949   7.605   5.957  1.2608  1.9514  0.1033
  628MOL0     H82868   4.778   7.690   6.179  0.4333 -1.5788  0.7192
  628MOL0     H82869   4.765   7.729   6.011  0.7040  0.8008  0.2460
  628MOL0     H82870   4.716   7.453   6.126  0.4283  1.6615  0.9481
  628MOL0     H82871   4.718   7.494   5.950 -3.0194  1.7094 -1.9045
  628MOL0     H82872   4.549   7.679   5.994 -0.2059 -0.3256 -1.0038
  628MOL0     H82873   4.506   7.588   6.142 -0.4022 -0.5839  0.1918
  628MOL0     H82874   4.488   7.484   5.854 -3.0448 -1.6184 -0.0805
  628MOL0     H82875   4.490   7.379   6.009  0.9430  0.0421  1.2759
  628MOL0     H82876   4.261   7.455   5.898  1.8766  1.5414 -1.9210
  628MOL0     H82877   4.287   7.614   5.969 -3.1995 -0.8887 -0.1719
  628MOL0     H82878   5.416   7.637   6.103  0.0412  0.3210  0.3761
  628MOL0     H82879   5.639   7.621   5.989  0.8044  0.4594  1.3075
  628MOL0     H82880   6.101   7.813   6.027  0.2951 -3.8851  0.3982
  628MOL0     H82881   6.317   7.774   5.906 -0.7452  1.4963  0.8058
  628MOL0     H82882   8.258   7.540   5.371 -1.1914  0.7161  2.0334
  628MOL0     H82883   8.490   7.512   5.378 -2.3830 -0.6819  1.5309
  628MOL0     H82884   8.869   7.712   5.617 -0.1926  0.6411  0.1791
  628MOL0     H82885   9.087   7.730   5.675 -4.5952  3.7224  0.6975
  628MOL0     H82886   9.279   7.888   5.684 -2.8461 -2.7838  2.2254
  628MOL0     H82887   9.436   7.879   5.602 -0.2416  2.1904  3.5544
  628MOL0     H82888   9.338   7.622   5.710 -3.1798  1.2741 -0.7361
  628MOL0     H82889   9.494   7.677   5.663  1.0456  0.1885  1.1472
  628MOL0     H82890   9.421   7.856   5.871 -1.4753  0.2487  0.4174
  628MOL0     H82891   9.484   7.687   5.906 -1.1374 -1.2811  0.4364
  628MOL0     H82892   9.189   7.702   5.849  1.1878 -3.1967 -1.6281
  628MOL0     H82893   9.287   7.592   5.935 -3.0266 -0.0634  1.2344
  628MOL0     H82894   9.180   7.881   6.228  0.0371  0.4043 -0.0020
  628MOL0     H82895   9.207   7.790   5.269  0.3192 -1.3899  0.0334
  628MOL0     H82896   8.973   7.775   5.197 -2.2975  2.0771 -0.3828
  629MOL0     O82897  10.521  10.680  10.418  0.2494 -0.4993  0.1233
  629MOL0     C82898  10.499  10.795  10.378  0.7545  0.4288 -0.0061
  629MOL0     O82899  10.397  10.874  10.405  0.6192 -0.9184  0.7973
  629MOL0     C82900  10.305  10.833  10.495 -0.6838 -0.2257 -0.3753
  629MOL0     C82901  10.184  10.812  10.448 -0.8795 -0.0617 -0.3067
  629MOL0     C82902  10.074  10.772  10.530 -0.3973 -0.7283  0.9125
  629MOL0     C82903  10.101  10.745  10.667  0.7128  0.0804 -0.3965
  629MOL0     O82904  10.015  10.700  10.764 -0.4201 -0.1758  0.8353
  629MOL0     C82905   9.896  10.640  10.711  0.5341  0.6258  0.9661
  629MOL0     C82906   9.792  10.640  10.827  0.6789  0.0158  0.1429
  629MOL0     C82907   9.656  10.595  10.784 -0.1467  0.4687 -0.5656
  629MOL0     C82908   9.550  10.620  10.902 -0.6767  0.2900 -0.0487
  629MOL0     C82909   9.439  10.523  10.897 -0.5520 -0.0996 -0.3907
  629MOL0     C82910   9.337  10.537  10.783  0.8615  0.0768  0.7355
  629MOL0     C82911   9.206  10.462  10.804 -0.6101 -0.1472  0.8306
  629MOL0     C82912   9.125  10.526  10.917  0.2956 -0.1976  0.1494
  629MOL0     N82913   9.036  10.642  10.877 -0.5637  1.0985 -0.2385
  629MOL0     C82914   8.958  10.651  10.767 -0.2723 -1.2717  0.8171
  629MOL0     C82915   8.903  10.778  10.775 -0.0070 -0.5692  0.6148
  629MOL0     C82916   8.821  10.835  10.664 -0.4231 -0.0234  0.1371
  629MOL0     C82917   8.667  10.817  10.698 -0.0481 -0.0416  0.7371
  629MOL0     C82918   8.581  10.841  10.579 -0.1931 -0.4094  0.2385
  629MOL0     C82919   8.436  10.829  10.617  0.7452  0.1480  0.3605
  629MOL0     O82920   8.376  10.813  10.483 -0.5397 -0.4637 -0.0406
  629MOL0     C82921   8.239  10.816  10.481 -0.3821 -0.2050  0.4422
  629MOL0     C82922   8.166  10.778  10.590  0.8080 -0.4527  0.6282
  629MOL0     C82923   8.033  10.814  10.598 -0.6624  0.6773 -0.6170
  629MOL0     C82924   7.964  10.856  10.489 -0.3687 -0.0208 -0.1610
  629MOL0     C82925   7.825  10.873  10.480  0.0605 -0.5965 -0.1092
  629MOL0     O82926   7.769  10.967  10.407  0.4008 -0.1420 -0.0010
  629MOL0     C82927   7.632  10.982  10.385 -0.0464 -0.0712  0.1119
  629MOL0     C82928   7.532  10.901  10.441 -0.2212 -0.8125 -0.4042
  629MOL0     C82929   7.400  10.934  10.408 -0.1249  0.1915  0.4167
  629MOL0     C82930   7.374  11.031  10.304 -0.1386 -0.3491  0.1993
  629MOL0     O82931   7.245  11.063  10.270  0.9368  0.1711 -0.4207
  629MOL0     C82932   7.220  11.035  10.129 -0.0287  0.6465 -0.8844
  629MOL0     C82933   7.070  11.019  10.114  0.2201  0.6742 -0.0782
  629MOL0     C82934   6.985  11.147  10.143  0.8200  0.5142 -0.3110
  629MOL0     C82935   6.834  11.122  10.130 -0.1581 -0.0232  0.3246
  629MOL0     C82936   6.750  11.246  10.176 -0.4378 -1.0358  0.9670
  629MOL0     C82937   6.602  11.229  10.156  0.2429 -0.4299  0.3745
  629MOL0     C82938   6.522  11.358  10.153  0.6673 -0.5155  0.1463
  629MOL0     C82939   6.368  11.347  10.160  1.1753 -0.4673 -0.1014
  629MOL0    Cl82940   6.339  11.238  10.014  0.2266  0.2742 -0.4486
  629MOL0     C82941   7.483  11.106  10.250  0.5501  0.6261  0.4386
  629MOL0     C82942   7.611  11.077  10.283  0.3752 -0.3200 -0.2257
  629MOL0     O82943   7.764  10.791  10.544  0.1089 -0.5197  0.5844
  629MOL0     C82944   8.037  10.874  10.369  0.3326  0.3072 -0.9555
  629MOL0     C82945   8.170  10.859  10.372 -0.2646  0.4014 -0.0817
  629MOL0     N82946   8.938  10.836  10.894 -0.5571  0.0690  0.3045
  629MOL0     N82947   9.016  10.748  10.951  0.1595  0.1663  0.5962
  629MOL0     C82948  10.227  10.770  10.717 -0.0881  0.3602  0.4335
  629MOL0     C82949  10.334  10.816  10.628  0.3299  0.0218 -0.7237
  629MOL0     C82950  10.587  10.846  10.270 -0.4902  0.2725  0.3828
  629MOL0     C82951  10.584  10.974  10.222 -0.1063  0.3761 -0.4164
  629MOL0     C82952  10.660  11.022  10.122  0.1075  0.2409  0.0271
  629MOL0     C82953  10.747  10.937  10.051  1.0428 -0.0385 -0.4373
  629MOL0     O82954  10.818  10.976   9.948 -0.0076  0.5955 -0.7157
  629MOL0     C82955  10.795  11.114   9.899  0.5757  0.2695  0.3311
  629MOL0     C82956  10.890  11.125   9.783  0.8461 -0.3788  0.3949
  629MOL0     C82957  10.909  11.273   9.729 -0.6061  0.6423  0.3010
  629MOL0     C82958  10.965  11.271   9.585 -0.2933  0.2248  0.2377
  629MOL0     C82959  10.863  11.257   9.487  0.5811  0.6532  0.3359
  629MOL0     C82960  10.765  11.225   9.416  0.6467 -0.2914 -0.2611
  629MOL0     C82961  10.755  10.804  10.099  0.0606 -0.3877 -0.0945
  629MOL0     C82962  10.676  10.761  10.206  0.1592  0.0001  0.0731
  629MOL0     H82963  10.172  10.822  10.340 -0.4481  0.5955 -0.3018
  629MOL0     H82964   9.972  10.772  10.496 -0.3713 -0.0006  0.8238
  629MOL0     H82965   9.906  10.538  10.673 -0.1052  0.0118  2.3910
  629MOL0     H82966   9.846  10.704  10.638  1.2968 -0.7095 -0.7990
  629MOL0     H82967   9.785  10.740  10.871  1.0248 -0.7312  1.9691
  629MOL0     H82968   9.827  10.583  10.913  1.8451  0.8417  0.2508
  629MOL0     H82969   9.657  10.488  10.762 -1.3427  0.5631 -1.1539
  629MOL0     H82970   9.629  10.648  10.692  0.3299 -1.2423 -1.7474
  629MOL0     H82971   9.595  10.607  11.001 -2.9051  0.4569  1.0525
  629MOL0     H82972   9.510  10.722  10.898 -0.2358  0.4525 -0.4393
  629MOL0     H82973   9.390  10.548  10.992 -0.8265  0.9711 -0.8073
  629MOL0     H82974   9.492  10.429  10.912 -1.0353 -0.2480  0.4691
  629MOL0     H82975   9.373  10.483  10.696 -3.1226 -0.0472 -1.0351
  629MOL0     H82976   9.323  10.643  10.759 -1.4817 -0.7568 -2.1261
  629MOL0     H82977   9.160  10.461  10.705 -3.8037 -0.4165  2.1961
  629MOL0     H82978   9.229  10.358  10.830  0.0174 -0.6446 -1.5274
  629MOL0     H82979   9.184  10.546  11.006  1.6626 -2.1554 -0.2574
  629MOL0     H82980   9.052  10.450  10.949  1.1106 -0.5042  1.3262
  629MOL0     H82981   8.952  10.579  10.686 -0.0381 -3.2838  2.4956
  629MOL0     H82982   8.830  10.784  10.568  0.7373  0.5762 -0.0953
  629MOL0     H82983   8.848  10.941  10.658  0.0138  0.1134  3.1868
  629MOL0     H82984   8.641  10.892  10.773  1.2519  0.2531  0.9278
  629MOL0     H82985   8.651  10.717  10.737 -1.4979  0.7753  2.3561
  629MOL0     H82986   8.598  10.942  10.542 -0.7706 -0.2386  0.4192
  629MOL0     H82987   8.603  10.767  10.501  0.7644  1.6071 -1.5034
  629MOL0     H82988   8.398  10.914  10.675 -1.2790  0.0107 -0.6818
  629MOL0     H82989   8.427  10.734  10.670  1.0667  0.9133  1.8688
  629MOL0     H82990   8.213  10.746  10.683 -0.5393  1.9404  2.2424
  629MOL0     H82991   7.981  10.809  10.693 -3.2431  3.7801 -1.7036
  629MOL0     H82992   7.554  10.829  10.519  0.8955 -1.0971 -0.9554
  629MOL0     H82993   7.323  10.871  10.451 -1.1598  1.7078  0.8583
  629MOL0     H82994   7.276  10.950  10.089 -0.4839 -0.6124  0.9878
  629MOL0     H82995   7.258  11.122  10.075  2.1513  0.9986  1.0680
  629MOL0     H82996   7.043  10.954  10.198 -1.0446  1.2625 -0.0018
  629MOL0     H82997   7.056  10.969  10.018  1.1861  1.8622 -0.8692
  629MOL0     H82998   7.017  11.224  10.072  0.4310 -1.7999 -3.1845
  629MOL0     H82999   6.992  11.183  10.246 -1.2504 -0.2079  0.1084
  629MOL0     H83000   6.801  11.082  10.033 -0.6731 -1.0632  0.9094
  629MOL0     H83001   6.800  11.039  10.192  1.8182 -1.3866 -0.3461
  629MOL0     H83002   6.774  11.329  10.109  0.6929 -1.1872  1.1768
  629MOL0     H83003   6.775  11.278  10.278 -1.5078  0.3407  0.8356
  629MOL0     H83004   6.561  11.172  10.240 -1.4381  2.6650  1.8229
  629MOL0     H83005   6.580  11.177  10.063 -2.2623  0.8811  0.1600
  629MOL0     H83006   6.553  11.423  10.236 -0.6944 -0.6766  0.8066
  629MOL0     H83007   6.553  11.400  10.057 -0.1311 -0.0135  0.0984
  629MOL0     H83008   6.317  11.442  10.140  2.6007 -0.0240 -1.9952
  629MOL0     H83009   6.336  11.304  10.255  0.8715  1.6887  0.8237
  629MOL0     H83010   7.451  11.193  10.194  0.7420 -1.0937 -2.5052
  629MOL0     H83011   7.696  11.136  10.248 -0.8375  1.4347 -0.3717
  629MOL0     H83012   7.982  10.900  10.279 -1.9665  0.3358  0.3930
  629MOL0     H83013   8.229  10.887  10.285  0.5549 -0.5818  0.1327
  629MOL0     H83014  10.250  10.755  10.821 -0.3471  0.0052  0.4420
  629MOL0     H83015  10.433  10.836  10.666  0.0918 -1.1969  0.6509
  629MOL0     H83016  10.531  11.050  10.280 -1.4171 -0.4367 -0.5145
  629MOL0     H83017  10.637  11.124  10.094 -1.9309 -0.1465  0.1141
  629MOL0     H83018  10.827  11.195   9.964  1.9783  1.5913 -1.8568
  629MOL0     H83019  10.692  11.119   9.863  0.8532 -0.8297 -0.7211
  629MOL0     H83020  10.989  11.089   9.812  1.1677  1.4543  1.7926
  629MOL0     H83021  10.843  11.064   9.705  0.4569  0.9401 -0.4611
  629MOL0     H83022  10.969  11.324   9.805 -1.4648  0.4019  1.1578
  629MOL0     H83023  10.811  11.322   9.738 -0.2540  1.5702 -0.7367
  629MOL0     H83024  11.015  11.366   9.565  1.6512 -1.0993 -1.6584
  629MOL0     H83025  11.044  11.195   9.582 -0.0173  0.5401 -0.5506
  629MOL0     H83026  10.696  11.191   9.342  1.4088 -1.1917 -0.5717
  629MOL0     H83027  10.815  10.737  10.039 -1.6501 -1.9339 -0.1693
  629MOL0     H83028  10.694  10.660  10.243 -1.1216 -0.5525 -0.7548
  630MOL0     O83029  10.680   9.674   0.540  0.1904  0.6148 -0.6021
  630MOL0     C83030  10.742   9.728   0.631 -0.6516 -0.1887 -0.4845
  630MOL0     O83031  10.682   9.755   0.755 -0.5831  0.5634  0.1147
  630MOL0     C83032  10.543   9.738   0.766 -0.5987  0.6749 -0.1919
  630MOL0     C83033  10.494   9.643   0.858 -0.3927  0.1036 -0.5555
  630MOL0     C83034  10.358   9.623   0.877 -0.0005  0.7896 -0.2228
  630MOL0     C83035  10.264   9.685   0.792 -0.6295  0.0848 -0.6151
  630MOL0     O83036  10.131   9.668   0.793 -0.4515  0.4433  0.1313
  630MOL0     C83037  10.065   9.575   0.872 -0.2351 -0.0792 -0.6250
  630MOL0     C83038   9.922   9.548   0.807  0.0621  0.0274 -0.3458
  630MOL0     C83039   9.815   9.664   0.838  0.1531 -0.5801 -1.2054
  630MOL0     C83040   9.691   9.661   0.762 -1.0633  0.5574 -0.6045
  630MOL0     C83041   9.610   9.779   0.810 -0.1462 -0.2972 -0.3327
  630MOL0     C83042   9.493   9.790   0.712  0.7731  0.2848  0.4514
  630MOL0     C83043   9.399   9.895   0.756  0.2650 -0.7873 -0.0129
  630MOL0     C83044   9.269   9.884   0.683  0.9693 -0.5611  0.1937
  630MOL0     N83045   9.150   9.937   0.747  0.2298  0.2530  0.0628
  630MOL0     C83046   9.105   9.943   0.879 -0.6265 -0.2341  0.5470
  630MOL0     C83047   8.985  10.001   0.883  0.3628 -0.1231 -0.7312
  630MOL0     C83048   8.898  10.033   1.013  0.1988  0.9850 -0.0180
  630MOL0     C83049   8.904   9.913   1.107  0.4757  0.4499 -0.1419
  630MOL0     C83050   8.778   9.897   1.196  0.0905  0.0982 -0.4312
  630MOL0     C83051   8.770   9.759   1.261 -0.5048 -0.0999 -0.2213
  630MOL0     O83052   8.658   9.764   1.350 -0.0901  0.5788  0.0819
  630MOL0     C83053   8.534   9.727   1.311 -0.0255  0.3172  0.5050
  630MOL0     C83054   8.430   9.709   1.404 -1.0388 -0.1181 -0.1198
  630MOL0     C83055   8.298   9.681   1.366 -0.0860 -0.4787  0.5980
  630MOL0     C83056   8.273   9.677   1.225  0.1550  0.0551  0.5601
  630MOL0     C83057   8.132   9.652   1.183 -0.3736 -0.7485  0.4253
  630MOL0     O83058   8.041   9.641   1.276  0.2384  0.7156 -0.6379
  630MOL0     C83059   7.910   9.617   1.236 -0.2228  0.1836  0.2468
  630MOL0     C83060   7.874   9.508   1.154  0.1025 -0.8746 -0.0165
  630MOL0     C83061   7.740   9.492   1.127 -0.9975  0.0532 -0.0786
  630MOL0     C83062   7.647   9.572   1.196  0.3181  0.3720 -0.0351
  630MOL0     O83063   7.505   9.567   1.179 -1.1024  0.0958  0.3012
  630MOL0     C83064   7.461   9.486   1.068 -0.2307 -0.2187 -0.0372
  630MOL0     C83065   7.311   9.469   1.089 -0.6315 -0.2493 -0.1369
  630MOL0     C83066   7.270   9.437   1.237 -0.0388  0.0217  0.4226
  630MOL0     C83067   7.112   9.435   1.239  0.0516 -0.6758 -0.1159
  630MOL0     C83068   7.041   9.401   1.376 -0.0512 -0.5079  0.6852
  630MOL0     C83069   7.036   9.250   1.410  0.8526  0.0167 -0.7294
  630MOL0     C83070   6.946   9.168   1.317 -0.1554  0.2509 -0.0452
  630MOL0     C83071   6.972   9.015   1.329  0.2949  0.2614  0.1861
  630MOL0    Cl83072   7.125   8.990   1.259 -0.3670 -0.1218  0.3108
  630MOL0     C83073   7.682   9.671   1.289 -0.2416  0.4476 -0.2918
  630MOL0     C83074   7.820   9.700   1.302  0.2479  0.3436 -0.5768
  630MOL0     O83075   8.117   9.632   1.063 -0.3319 -0.9395 -0.3459
  630MOL0     C83076   8.371   9.693   1.123 -0.9430  0.3969  0.1219
  630MOL0     C83077   8.495   9.719   1.171  0.0666  0.3909  0.7199
  630MOL0     N83078   8.954  10.051   0.754  0.3278 -0.9774  1.2686
  630MOL0     N83079   9.051  10.009   0.680  0.6188  0.1267  0.4372
  630MOL0     C83080  10.318   9.786   0.705  0.9191  0.0549 -0.3329
  630MOL0     C83081  10.458   9.802   0.685 -0.0668  0.0414 -0.2415
  630MOL0     C83082  10.888   9.740   0.619  0.6839 -0.5712 -0.3592
  630MOL0     C83083  10.945   9.738   0.494 -0.2055 -0.5116  0.3862
  630MOL0     C83084  11.085   9.759   0.484 -0.3749  0.1194  0.1019
  630MOL0     C83085  11.169   9.761   0.599  1.4453 -0.7658  0.5897
  630MOL0     O83086  11.304   9.783   0.601 -0.1883  0.0139 -0.7097
  630MOL0     C83087  11.379   9.783   0.472  0.6276 -0.0903 -0.5855
  630MOL0     C83088  11.519   9.794   0.519  0.2192  0.2578  0.0008
  630MOL0     C83089  11.614   9.803   0.402 -0.1700  1.1247 -0.1618
  630MOL0     C83090  11.761   9.798   0.459  0.1422  0.0251 -0.2239
  630MOL0     C83091  11.850   9.818   0.338  1.0142  0.7405 -0.4734
  630MOL0     C83092  11.916   9.845   0.234  0.4069  0.6583 -0.5664
  630MOL0     C83093  11.111   9.748   0.721  0.4512  0.4260 -0.3285
  630MOL0     C83094  10.973   9.734   0.732  0.1807  0.4477  0.4561
  630MOL0     H83095  10.557   9.575   0.914  2.7590  2.2685 -1.1846
  630MOL0     H83096  10.322   9.548   0.947  1.3753  1.5549  1.3893
  630MOL0     H83097  10.050   9.610   0.975 -1.0779 -0.9117 -0.4515
  630MOL0     H83098  10.111   9.477   0.885  1.7823  0.4082 -3.2684
  630MOL0     H83099   9.881   9.450   0.837 -0.2844 -0.2480 -1.6760
  630MOL0     H83100   9.940   9.535   0.700  1.4705 -2.8138  0.1257
  630MOL0     H83101   9.864   9.757   0.809 -0.7956 -0.1157 -1.3192
  630MOL0     H83102   9.792   9.664   0.945  3.4083  0.3689 -0.3909
  630MOL0     H83103   9.706   9.655   0.654  0.9495  0.5620 -0.3694
  630MOL0     H83104   9.646   9.564   0.782 -0.9742  0.8577  1.2683
  630MOL0     H83105   9.660   9.876   0.811 -1.5478  0.6094  3.9651
  630MOL0     H83106   9.578   9.758   0.913 -1.9598 -1.3837 -1.0633
  630MOL0     H83107   9.433   9.699   0.712  1.0354  0.1065  1.1805
  630MOL0     H83108   9.535   9.811   0.613  1.9901 -2.8505  0.1933
  630MOL0     H83109   9.380   9.883   0.863 -2.4637  0.0355 -0.3333
  630MOL0     H83110   9.443   9.994   0.738 -0.8788 -0.1105  0.7975
  630MOL0     H83111   9.248   9.780   0.655 -0.6439 -0.3771  0.5814
  630MOL0     H83112   9.276   9.951   0.597  1.4040  4.1832  3.5592
  630MOL0     H83113   9.165   9.904   0.961  2.1537  1.4781 -0.5043
  630MOL0     H83114   8.795  10.053   0.981  0.0417  0.3520  0.0803
  630MOL0     H83115   8.940  10.118   1.069  1.5745 -0.6036  1.4568
  630MOL0     H83116   8.994   9.912   1.168 -0.9441 -0.7474  2.1179
  630MOL0     H83117   8.916   9.821   1.049  1.2600 -0.7705  1.8272
  630MOL0     H83118   8.778   9.973   1.275  1.5321 -1.8655  1.5788
  630MOL0     H83119   8.689   9.914   1.136 -0.1725 -0.7263 -0.2732
  630MOL0     H83120   8.864   9.733   1.310 -0.7431 -1.3221 -0.3790
  630MOL0     H83121   8.751   9.675   1.193 -2.8568 -2.0273  2.5664
  630MOL0     H83122   8.455   9.718   1.510  0.7925  1.6810 -0.6439
  630MOL0     H83123   8.218   9.667   1.437  0.9229  1.9040  2.3326
  630MOL0     H83124   7.951   9.444   1.111 -1.1623 -2.8500  0.4944
  630MOL0     H83125   7.719   9.413   1.056  0.0249 -0.8897  0.6166
  630MOL0     H83126   7.504   9.385   1.074  2.1724  0.5806 -2.1877
  630MOL0     H83127   7.472   9.539   0.973 -0.7603 -0.9460 -0.5169
  630MOL0     H83128   7.269   9.400   1.015  1.9427  0.8400 -2.8218
  630MOL0     H83129   7.262   9.565   1.072 -1.6024 -0.7648 -0.3429
  630MOL0     H83130   7.304   9.516   1.304  1.6650 -0.9556  0.7811
  630MOL0     H83131   7.321   9.345   1.267 -2.3304 -1.0462  1.3130
  630MOL0     H83132   7.069   9.529   1.206  1.7426 -0.1176 -0.8438
  630MOL0     H83133   7.079   9.357   1.169  0.6156 -1.2279  0.2208
  630MOL0     H83134   6.940   9.442   1.365  0.2843 -0.2714 -2.6631
  630MOL0     H83135   7.095   9.451   1.457 -0.7719 -1.7424  1.9682
  630MOL0     H83136   6.988   9.245   1.508  0.5278  0.6905 -0.8482
  630MOL0     H83137   7.141   9.218   1.415  1.2386  1.2021 -0.6998
  630MOL0     H83138   6.844   9.203   1.337  0.5788  2.2709  0.4326
  630MOL0     H83139   6.949   9.198   1.212  1.2491  1.1066  0.2157
  630MOL0     H83140   6.906   8.957   1.264  0.3215  2.1988 -1.6566
  630MOL0     H83141   6.969   8.988   1.435 -0.4219 -0.1512  0.0644
  630MOL0     H83142   7.606   9.728   1.342  0.1382 -1.0902  2.0281
  630MOL0     H83143   7.859   9.776   1.369 -0.6147 -1.5958  2.3167
  630MOL0     H83144   8.349   9.684   1.017 -0.3749  1.1224 -0.0641
  630MOL0     H83145   8.576   9.748   1.105  0.9168 -0.4181  1.3824
  630MOL0     H83146  10.254   9.844   0.640 -0.3126 -0.1251  0.6708
  630MOL0     H83147  10.509   9.865   0.613  0.9613 -1.6807 -1.0984
  630MOL0     H83148  10.878   9.731   0.409 -1.2921  1.6523  0.9892
  630MOL0     H83149  11.123   9.755   0.382 -6.5961 -0.6687 -2.6923
  630MOL0     H83150  11.341   9.876   0.430 -2.7427  0.5235  3.1845
  630MOL0     H83151  11.367   9.688   0.419  2.6850 -1.8405  1.8592
  630MOL0     H83152  11.526   9.885   0.579  0.0273  0.4435 -0.2582
  630MOL0     H83153  11.552   9.713   0.585 -0.0074 -0.5702 -0.8814
  630MOL0     H83154  11.591   9.899   0.355  1.3646  2.1416  1.0500
  630MOL0     H83155  11.598   9.723   0.329  1.4909 -0.9541  1.5777
  630MOL0     H83156  11.783   9.869   0.539  1.1592  0.0644 -0.5155
  630MOL0     H83157  11.768   9.697   0.501 -2.5852  0.6406  2.0062
  630MOL0     H83158  11.968   9.855   0.141  2.1690 -0.8999  0.2001
  630MOL0     H83159  11.175   9.748   0.809  1.9463 -0.5726 -1.3800
  630MOL0     H83160  10.932   9.704   0.828  2.1438 -1.7517  0.6984
  631MOL0     O83161   1.570   2.923  10.145  0.1108  0.6280  0.4035
  631MOL0     C83162   1.588   2.851  10.243  0.5604  0.2555  0.4700
  631MOL0     O83163   1.702   2.838  10.314  0.9424 -0.2375  0.5067
  631MOL0     C83164   1.825   2.875  10.260 -0.4126  0.3053 -0.3747
  631MOL0     C83165   1.861   2.866  10.126  0.4307 -0.0247 -0.2204
  631MOL0     C83166   1.990   2.884  10.074 -0.6920 -0.7301  0.2371
  631MOL0     C83167   2.092   2.931  10.170 -0.0514  0.0274 -0.5998
  631MOL0     O83168   2.223   2.960  10.136 -0.2098 -0.7335  0.5358
  631MOL0     C83169   2.292   2.880  10.028  0.0801 -0.2582  0.0529
  631MOL0     C83170   2.450   2.899  10.053  0.0136  0.2256  1.0510
  631MOL0     C83171   2.499   3.045  10.058 -1.0451 -0.4056 -0.2687
  631MOL0     C83172   2.648   3.070  10.074 -0.7293  0.2485 -0.1449
  631MOL0     C83173   2.681   3.222  10.065  0.0123  0.1661 -0.3846
  631MOL0     C83174   2.820   3.258  10.083 -0.0366  0.3827 -0.3528
  631MOL0     C83175   2.810   3.411  10.072 -0.1992  0.9681  0.3864
  631MOL0     C83176   2.949   3.470  10.121  0.5566  0.7899  1.5618
  631MOL0     N83177   2.948   3.619  10.102 -0.1542  0.0431  0.0485
  631MOL0     C83178   2.897   3.712  10.188  0.1676  0.0055 -0.2385
  631MOL0     C83179   2.892   3.827  10.127  0.1818 -0.1807 -0.4167
  631MOL0     C83180   2.856   3.975  10.162  0.5175 -0.0134 -0.4439
  631MOL0     C83181   2.714   3.986  10.214  0.0700  0.2580  0.4358
  631MOL0     C83182   2.611   3.919  10.119  0.2472 -0.1675  0.2802
  631MOL0     C83183   2.459   3.946  10.158 -0.0790  0.4886 -0.6952
  631MOL0     O83184   2.450   3.911  10.298 -0.2385 -0.0098  0.0317
  631MOL0     C83185   2.338   3.923  10.371  0.2392  0.2155 -0.6459
  631MOL0     C83186   2.357   3.904  10.508 -0.6874  0.0925  0.2841
  631MOL0     C83187   2.245   3.915  10.595  0.1274  0.3217 -0.4179
  631MOL0     C83188   2.117   3.956  10.551  0.6108 -0.1406  0.0862
  631MOL0     C83189   2.000   3.960  10.640 -0.0489 -0.1158  0.4042
  631MOL0     O83190   1.879   4.009  10.583 -0.4499  0.3018  0.3941
  631MOL0     C83191   1.762   4.015  10.656 -0.7765  0.1112  0.9101
  631MOL0     C83192   1.713   4.139  10.695  0.2448  0.4245 -0.6065
  631MOL0     C83193   1.611   4.152  10.791  0.0240 -0.3071 -1.0606
  631MOL0     C83194   1.540   4.035  10.829  0.3507 -0.2519 -0.0142
  631MOL0     O83195   1.430   4.053  10.910  0.0865  0.8840 -0.0068
  631MOL0     C83196   1.373   3.942  10.982 -0.0958  0.4414 -0.6312
  631MOL0     C83197   1.252   3.986  11.053 -0.2219 -0.8368 -0.6166
  631MOL0     C83198   1.171   3.858  11.089 -0.6257  0.2015 -0.0473
  631MOL0     C83199   1.055   3.908  11.173  0.3293 -0.1419 -0.6323
  631MOL0     C83200   0.985   3.792  11.243  0.4444  0.1138  0.5408
  631MOL0     C83201   0.923   3.699  11.133 -0.5039  0.2622 -0.3850
  631MOL0     C83202   0.851   3.580  11.209  0.3124 -0.1928 -0.4135
  631MOL0     C83203   0.710   3.559  11.161 -0.3572  0.6583  0.5445
  631MOL0    Cl83204   0.652   3.392  11.199 -0.1916  0.0426  0.2848
  631MOL0     C83205   1.585   3.906  10.779  0.4130  0.1999  0.4292
  631MOL0     C83206   1.697   3.901  10.704 -0.2711 -0.5094 -0.3622
  631MOL0     O83207   2.015   3.912  10.756 -0.0327  0.0427 -0.5983
  631MOL0     C83208   2.107   3.986  10.412 -1.1003  0.0714  0.0606
  631MOL0     C83209   2.214   3.965  10.327  0.4837  0.8568 -0.5040
  631MOL0     N83210   2.930   3.804   9.998 -0.2617  0.1596  0.3565
  631MOL0     N83211   2.953   3.679   9.979 -0.0759  0.5403 -0.6249
  631MOL0     C83212   2.057   2.947  10.310  0.2825  0.7116  0.3608
  631MOL0     C83213   1.925   2.919  10.347 -0.2967  0.2682 -0.4888
  631MOL0     C83214   1.476   2.775  10.298  0.2330  0.3019 -0.3960
  631MOL0     C83215   1.492   2.704  10.420  0.1901 -0.9154  0.5863
  631MOL0     C83216   1.381   2.633  10.464 -0.1904  0.0765 -0.2949
  631MOL0     C83217   1.261   2.622  10.396  0.5263  0.2192 -0.7546
  631MOL0     O83218   1.171   2.539  10.462 -0.6179  0.1756  0.0357
  631MOL0     C83219   1.045   2.520  10.401 -0.1896  0.2273  1.0437
  631MOL0     C83220   0.943   2.639  10.416  0.1770  0.3001 -0.3639
  631MOL0     C83221   0.799   2.628  10.365 -0.6147  0.2204 -0.3961
  631MOL0     C83222   0.743   2.478  10.348  0.4788  1.2495  0.2287
  631MOL0     C83223   0.598   2.467  10.383 -0.5257 -0.5244 -0.2467
  631MOL0     C83224   0.473   2.448  10.397 -0.0941 -0.0534 -0.4240
  631MOL0     C83225   1.249   2.690  10.275 -1.0395  0.5112  0.1624
  631MOL0     C83226   1.350   2.770  10.225 -0.1955 -0.1877 -0.1248
  631MOL0     H83227   1.789   2.826  10.054  1.7324 -1.1707 -0.9356
  631MOL0     H83228   2.005   2.851   9.971 -1.0616  0.2702 -0.1426
  631MOL0     H83229   2.268   2.916   9.927 -0.7456  1.7471  0.9063
  631MOL0     H83230   2.261   2.776  10.040  0.5645 -0.4206 -0.1070
  631MOL0     H83231   2.507   2.849   9.975 -1.4442  1.3048 -0.7961
  631MOL0     H83232   2.474   2.855  10.150  2.1505 -4.1269 -1.1971
  631MOL0     H83233   2.441   3.091  10.138 -0.0845  0.4301 -0.0320
  631MOL0     H83234   2.476   3.084   9.958  2.7085  0.1078 -1.0844
  631MOL0     H83235   2.683   3.025  10.167  1.5105 -0.1434 -1.0981
  631MOL0     H83236   2.706   3.012  10.001 -1.6901 -0.9631  0.0366
  631MOL0     H83237   2.623   3.266  10.147  0.9389 -1.8826  1.4709
  631MOL0     H83238   2.643   3.254   9.968 -1.2661  1.1139  0.3952
  631MOL0     H83239   2.878   3.204  10.008 -1.4300 -0.4410 -0.8964
  631MOL0     H83240   2.853   3.229  10.183 -0.5581 -0.1803 -0.3383
  631MOL0     H83241   2.793   3.441   9.968  0.8719  0.2137 -0.0376
  631MOL0     H83242   2.732   3.447  10.139 -0.8593 -0.1566  0.2565
  631MOL0     H83243   3.035   3.429  10.068 -0.9720 -1.7538  0.8674
  631MOL0     H83244   2.973   3.447  10.225  1.8342  1.6735  1.4847
  631MOL0     H83245   2.871   3.694  10.292 -0.9136  2.2981 -0.0482
  631MOL0     H83246   2.874   4.041  10.076 -2.8304  0.7943 -0.6835
  631MOL0     H83247   2.915   4.012  10.245 -1.9319  0.7530  1.0764
  631MOL0     H83248   2.686   4.091  10.227 -0.4578  0.0768  0.7924
  631MOL0     H83249   2.693   3.932  10.307 -1.2983 -0.7193 -0.4018
  631MOL0     H83250   2.636   3.940  10.014  0.9432  0.3718  0.5429
  631MOL0     H83251   2.634   3.813  10.133  0.7490 -0.0645  0.2668
  631MOL0     H83252   2.397   3.890  10.088 -1.6707  1.2435  0.0454
  631MOL0     H83253   2.434   4.052  10.146  0.9765  0.6583 -1.5867
  631MOL0     H83254   2.454   3.866  10.537 -1.4051 -1.9455  0.1491
  631MOL0     H83255   2.246   3.872  10.694 -1.1404 -1.2705 -1.0349
  631MOL0     H83256   1.771   4.227  10.670  1.2978  0.1566  0.7392
  631MOL0     H83257   1.575   4.246  10.831  1.4261 -0.6398  1.1666
  631MOL0     H83258   1.446   3.905  11.054  1.1024 -0.0253 -2.0241
  631MOL0     H83259   1.362   3.853  10.919 -1.0509  0.0836  0.0307
  631MOL0     H83260   1.196   4.057  10.991  2.3431  0.7165 -1.2989
  631MOL0     H83261   1.278   4.036  11.147  0.7090 -0.0801 -1.2465
  631MOL0     H83262   1.228   3.785  11.147  0.8029 -0.2890 -1.9661
  631MOL0     H83263   1.142   3.812  10.993  2.3843 -0.3615 -0.7755
  631MOL0     H83264   1.088   3.983  11.245  1.0563 -1.9809  1.0508
  631MOL0     H83265   0.975   3.952  11.112  0.0015  1.1058  0.6498
  631MOL0     H83266   0.909   3.832  11.311  1.3436 -0.5979  2.0092
  631MOL0     H83267   1.049   3.740  11.314  0.4897  1.5295  1.5847
  631MOL0     H83268   1.005   3.657  11.075 -0.8048 -0.8431 -0.0244
  631MOL0     H83269   0.850   3.744  11.065  1.0516 -0.9447 -2.9923
  631MOL0     H83270   0.912   3.490  11.203  1.9782  0.8033  0.7253
  631MOL0     H83271   0.848   3.600  11.317 -1.1879  1.2299 -0.6699
  631MOL0     H83272   0.695   3.557  11.053 -2.5557 -0.5222  0.7997
  631MOL0     H83273   0.642   3.639  11.192 -1.7891  0.1020 -1.0019
  631MOL0     H83274   1.545   3.806  10.795  0.1765  0.1979 -0.1243
  631MOL0     H83275   1.739   3.804  10.678 -1.6004 -0.4244 -3.2104
  631MOL0     H83276   2.015   4.018  10.363 -1.9373 -1.0895  0.8113
  631MOL0     H83277   2.205   3.975  10.219 -1.2910 -2.5988 -0.8152
  631MOL0     H83278   2.138   2.969  10.379  2.1363  0.9696 -1.7559
  631MOL0     H83279   1.901   2.930  10.452 -0.0390 -1.5963 -0.2102
  631MOL0     H83280   1.581   2.716  10.480  0.8208  0.3770 -0.5593
  631MOL0     H83281   1.383   2.572  10.554 -1.9895 -0.8097 -0.7953
  631MOL0     H83282   0.999   2.431  10.445  0.3485 -0.3237  0.5121
  631MOL0     H83283   1.057   2.483  10.298  1.6893  2.5430  0.3297
  631MOL0     H83284   0.930   2.658  10.523 -1.0508 -1.7692 -0.0968
  631MOL0     H83285   0.983   2.726  10.363  1.0157 -0.8641 -1.7206
  631MOL0     H83286   0.779   2.684  10.273 -0.8741 -0.0416 -0.5032
  631MOL0     H83287   0.733   2.659  10.446  0.4579 -2.7815  1.8055
  631MOL0     H83288   0.776   2.434  10.254  2.8665 -0.8724  1.9115
  631MOL0     H83289   0.789   2.418  10.428 -1.0727 -2.2039 -1.2741
  631MOL0     H83290   0.369   2.423  10.409  0.3252 -1.6853  0.1199
  631MOL0     H83291   1.159   2.670  10.217  0.1197 -1.0417 -1.1935
  631MOL0     H83292   1.343   2.828  10.133  3.0146  1.5639  0.5668
  632MOL0     O83293   6.346   9.976   3.173  0.1075 -0.4844 -0.0036
  632MOL0     C83294   6.395   9.911   3.076 -0.3753 -0.1251 -0.9505
  632MOL0     O83295   6.324   9.834   2.987 -0.6570 -0.6392 -0.0586
  632MOL0     C83296   6.189   9.826   2.973  0.4347 -0.2005  0.1297
  632MOL0     C83297   6.090   9.857   3.073  0.0462  0.4252 -0.5177
  632MOL0     C83298   5.953   9.861   3.046  0.4798 -0.3529  0.2102
  632MOL0     C83299   5.905   9.836   2.915  0.2683  0.4069  0.5662
  632MOL0     O83300   5.772   9.845   2.871  0.5080  0.3199  0.2547
  632MOL0     C83301   5.669   9.908   2.953  0.1051  0.7030 -0.4052
  632MOL0     C83302   5.532   9.897   2.901  0.7158  0.2018 -0.4283
  632MOL0     C83303   5.507   9.983   2.780 -0.3001  0.2817  1.0158
  632MOL0     C83304   5.398   9.907   2.695  0.4599  0.5693  0.2520
  632MOL0     C83305   5.256   9.942   2.753  0.2243  0.1790  0.2820
  632MOL0     C83306   5.207  10.081   2.712  0.0017 -0.4410  0.2795
  632MOL0     C83307   5.070  10.114   2.779  0.3062 -0.1074  1.1110
  632MOL0     C83308   5.017  10.252   2.738  0.4726  0.6119 -0.0304
  632MOL0     N83309   4.875  10.236   2.739  0.5394  0.0031 -0.1484
  632MOL0     C83310   4.783  10.248   2.841  0.5427  0.2956 -0.2161
  632MOL0     C83311   4.661  10.234   2.786 -0.2198  0.3033 -0.1506
  632MOL0     C83312   4.530  10.239   2.858  0.3147 -0.1285  0.4755
  632MOL0     C83313   4.440  10.336   2.787  1.3094  0.2459  0.0060
  632MOL0     C83314   4.291  10.336   2.835 -0.2367 -0.2266  0.0951
  632MOL0     C83315   4.229  10.206   2.794  0.0075  0.9180 -0.4407
  632MOL0     O83316   4.092  10.206   2.847  0.1023  0.4420 -0.4175
  632MOL0     C83317   3.990  10.282   2.797 -1.0303 -0.2169  0.0361
  632MOL0     C83318   3.873  10.281   2.864 -0.6110  0.0784  0.4658
  632MOL0     C83319   3.762  10.357   2.828 -0.5421 -0.2117  0.1848
  632MOL0     C83320   3.771  10.435   2.707  0.5191  0.2732  0.2913
  632MOL0     C83321   3.657  10.515   2.666 -1.0191 -0.0853  0.3882
  632MOL0     O83322   3.685  10.584   2.549  0.2438 -0.5000  0.2609
  632MOL0     C83323   3.599  10.681   2.512  0.5610  0.4115  0.0843
  632MOL0     C83324   3.609  10.821   2.539 -0.2036  0.0850  0.4931
  632MOL0     C83325   3.507  10.907   2.509  0.0003 -0.0181  0.1150
  632MOL0     C83326   3.385  10.857   2.456 -0.0308 -0.5662 -0.0229
  632MOL0     O83327   3.287  10.948   2.438 -0.3462  0.1176  0.0550
  632MOL0     C83328   3.148  10.914   2.422  0.8707  0.5409 -0.1927
  632MOL0     C83329   3.070  11.042   2.446  0.0679  0.1506 -0.1635
  632MOL0     C83330   2.914  11.026   2.443  0.1001 -0.4689 -0.5091
  632MOL0     C83331   2.845  11.158   2.446 -0.7640  0.4555 -0.2788
  632MOL0     C83332   2.852  11.223   2.582 -0.4006  0.7830 -0.8146
  632MOL0     C83333   2.771  11.359   2.583  0.0695  0.2971  0.3218
  632MOL0     C83334   2.748  11.422   2.718 -0.3829 -0.1300 -0.4349
  632MOL0     C83335   2.871  11.424   2.814 -0.5849  0.3134  0.1515
  632MOL0    Cl83336   2.999  11.541   2.757  0.0042 -0.0288  0.1818
  632MOL0     C83337   3.371  10.723   2.427  0.5452  0.1020 -0.0194
  632MOL0     C83338   3.485  10.636   2.455 -0.6089  0.0695  0.3232
  632MOL0     O83339   3.562  10.534   2.742 -0.1206  0.1829  0.7321
  632MOL0     C83340   3.886  10.426   2.626  0.2140 -0.6129 -0.4557
  632MOL0     C83341   4.000  10.358   2.676 -0.9242 -0.5785  0.3460
  632MOL0     N83342   4.677  10.228   2.649  0.5145 -0.3198  0.3667
  632MOL0     N83343   4.803  10.229   2.620  0.3248  0.1864 -0.0023
  632MOL0     C83344   5.998   9.786   2.819  0.4947 -0.1706 -0.5978
  632MOL0     C83345   6.135   9.770   2.854  0.8821  0.0704  0.4059
  632MOL0     C83346   6.541   9.929   3.058 -0.7940  1.1006 -0.1211
  632MOL0     C83347   6.604   9.840   2.963 -0.5769 -0.0964 -0.0905
  632MOL0     C83348   6.739   9.856   2.945  0.4642  0.3174 -0.2515
  632MOL0     C83349   6.811   9.958   3.007 -0.6356  0.6964  0.4361
  632MOL0     O83350   6.936   9.971   2.948 -0.0400  0.4147  0.1450
  632MOL0     C83351   7.025  10.049   3.028  0.1613  0.2404 -0.3811
  632MOL0     C83352   7.025  10.197   2.990  0.7887  0.4146 -0.2966
  632MOL0     C83353   7.116  10.281   3.081 -0.8317  0.2202  0.0091
  632MOL0     C83354   7.083  10.435   3.075  0.4945 -0.0227 -0.1570
  632MOL0     C83355   7.098  10.490   2.946 -0.3725 -0.6312  0.8396
  632MOL0     C83356   7.130  10.526   2.830  0.3468  0.4999  0.1714
  632MOL0     C83357   6.752  10.035   3.107 -0.7933 -0.5255 -0.3231
  632MOL0     C83358   6.613  10.028   3.126 -0.0425 -0.2574 -0.1932
  632MOL0     H83359   6.125   9.886   3.172  0.5831 -0.3646 -0.4640
  632MOL0     H83360   5.883   9.897   3.121  0.4363  0.0245 -0.0075
  632MOL0     H83361   5.698  10.011   2.979  1.3050 -0.2475  2.4818
  632MOL0     H83362   5.677   9.847   3.043  0.0566  0.9022 -0.2651
  632MOL0     H83363   5.463   9.925   2.981  2.0487  1.1115  0.4431
  632MOL0     H83364   5.517   9.794   2.868  0.3746  0.5527 -1.3933
  632MOL0     H83365   5.601   9.972   2.725  0.7159 -0.0435  2.7385
  632MOL0     H83366   5.481  10.088   2.799  1.9258  1.0264  0.2187
  632MOL0     H83367   5.410   9.959   2.600  3.8513  3.6478  2.0955
  632MOL0     H83368   5.408   9.799   2.679  0.7138  0.7534 -0.9626
  632MOL0     H83369   5.269   9.951   2.861  2.6704  2.1249 -0.0971
  632MOL0     H83370   5.187   9.864   2.717  0.6458  0.4022 -1.0592
  632MOL0     H83371   5.200  10.087   2.603 -1.0282 -2.1051  0.2074
  632MOL0     H83372   5.279  10.161   2.731 -0.6396  0.9546 -2.6693
  632MOL0     H83373   5.002  10.032   2.755  1.5099 -0.9992  0.6607
  632MOL0     H83374   5.079  10.125   2.888  1.2283  2.2784  0.8649
  632MOL0     H83375   5.050  10.267   2.634 -3.2062 -1.8098 -1.7861
  632MOL0     H83376   5.041  10.332   2.808  1.1837  0.8858 -0.5741
  632MOL0     H83377   4.800  10.260   2.947 -2.1950  0.7230  0.2498
  632MOL0     H83378   4.533  10.265   2.964 -0.0903 -1.7290  0.9153
  632MOL0     H83379   4.500  10.134   2.856  0.9249 -0.3350 -1.8837
  632MOL0     H83380   4.427  10.333   2.679 -1.8970 -0.2531  0.3102
  632MOL0     H83381   4.480  10.436   2.807  1.3132  0.4646 -1.0615
  632MOL0     H83382   4.284  10.342   2.944 -0.9946 -1.0079  0.1037
  632MOL0     H83383   4.226  10.422   2.812  0.7715  0.9708  1.5327
  632MOL0     H83384   4.283  10.127   2.848 -1.9613  0.9024  1.6548
  632MOL0     H83385   4.242  10.189   2.687  0.2446  0.2647 -0.3116
  632MOL0     H83386   3.860  10.208   2.943  0.2679 -0.8749 -0.2334
  632MOL0     H83387   3.662  10.353   2.871 -1.6066 -0.1964 -2.1537
  632MOL0     H83388   3.699  10.863   2.582 -0.3813  2.9502 -1.6407
  632MOL0     H83389   3.522  11.013   2.525 -1.2704 -0.1187  2.6320
  632MOL0     H83390   3.114  10.847   2.501 -0.2663  1.6076  0.2629
  632MOL0     H83391   3.126  10.880   2.320  1.0534  1.5633 -0.5876
  632MOL0     H83392   3.096  11.120   2.374 -0.0297 -0.5475 -0.9806
  632MOL0     H83393   3.103  11.071   2.546 -0.4467 -0.8134  0.3051
  632MOL0     H83394   2.884  10.982   2.539 -1.7305  1.3576 -0.1516
  632MOL0     H83395   2.876  10.964   2.361 -1.0076  2.3277 -2.2672
  632MOL0     H83396   2.883  11.230   2.373 -3.4333  3.1075  0.7514
  632MOL0     H83397   2.739  11.140   2.430 -0.6824 -2.1370  1.5183
  632MOL0     H83398   2.957  11.243   2.603  0.0458 -3.5936  2.6115
  632MOL0     H83399   2.817  11.155   2.661  1.8021 -0.7719 -1.0856
  632MOL0     H83400   2.673  11.343   2.538 -1.1046 -1.3366  3.1676
  632MOL0     H83401   2.838  11.425   2.527  0.3412  1.2122  1.6644
  632MOL0     H83402   2.713  11.524   2.701  1.7342  0.5653 -0.8567
  632MOL0     H83403   2.673  11.360   2.769 -2.0022  1.5357 -0.6944
  632MOL0     H83404   2.915  11.324   2.812 -1.2354 -0.0524 -4.1850
  632MOL0     H83405   2.828  11.442   2.913  0.2908 -3.9071  1.5053
  632MOL0     H83406   3.278  10.689   2.382  0.5515  1.9022 -1.5469
  632MOL0     H83407   3.479  10.530   2.435 -4.4758  0.1799  0.0865
  632MOL0     H83408   3.903  10.481   2.534 -0.5239  1.0526  0.3602
  632MOL0     H83409   4.089  10.367   2.615 -1.5170  1.9617 -0.2370
  632MOL0     H83410   5.958   9.761   2.722  1.2529  1.0798 -1.2595
  632MOL0     H83411   6.197   9.743   2.769  0.0544  0.2807 -0.2818
  632MOL0     H83412   6.552   9.771   2.896  0.3876  1.5354 -2.6496
  632MOL0     H83413   6.787   9.791   2.873 -0.0300 -3.7569  2.7493
  632MOL0     H83414   7.125  10.006   3.016  1.3401  2.7116 -0.0010
  632MOL0     H83415   7.011  10.026   3.134  0.5381 -0.0113 -0.3820
  632MOL0     H83416   7.047  10.219   2.885  0.8266  1.0250 -0.1660
  632MOL0     H83417   6.924  10.237   3.007  0.4897  0.2856 -1.6857
  632MOL0     H83418   7.216  10.261   3.042 -0.8137  1.6033 -0.7045
  632MOL0     H83419   7.108  10.246   3.184  0.3304 -0.2082 -0.0306
  632MOL0     H83420   6.977  10.444   3.100  0.9331  0.9401  1.5106
  632MOL0     H83421   7.149  10.491   3.142 -0.2154  1.8310 -0.9417
  632MOL0     H83422   7.167  10.552   2.733  1.1401 -1.5618 -0.1243
  632MOL0     H83423   6.810  10.103   3.169  0.6003 -0.4715 -1.6509
  632MOL0     H83424   6.566  10.095   3.198  0.8495  0.9119 -0.6690
  633MOL0     O83425   8.054   5.871   6.695  0.8780 -0.0557 -0.7395
  633MOL0     C83426   8.042   5.829   6.581 -0.3606  0.3710  0.4351
  633MOL0     O83427   7.922   5.794   6.522 -0.3593  0.6390 -0.3449
  633MOL0     C83428   7.805   5.779   6.599 -0.5343  0.1291 -0.2461
  633MOL0     C83429   7.809   5.704   6.720  0.3582 -0.5726  0.2861
  633MOL0     C83430   7.693   5.688   6.802 -0.0627  0.2199  0.6558
  633MOL0     C83431   7.568   5.731   6.751  0.7724  0.0284 -0.0496
  633MOL0     O83432   7.466   5.710   6.842 -0.1123  0.5656 -0.3139
  633MOL0     C83433   7.339   5.747   6.792 -1.0931 -0.0244 -0.4138
  633MOL0     C83434   7.237   5.700   6.890  0.6899  0.6419 -0.0420
  633MOL0     C83435   7.083   5.721   6.859 -0.5230  0.0186 -0.4588
  633MOL0     C83436   6.986   5.672   6.972 -0.0833 -0.2343  0.2259
  633MOL0     C83437   6.845   5.712   6.960  0.5121  0.0251  0.1574
  633MOL0     C83438   6.796   5.677   6.818 -0.1698 -0.3517  0.4058
  633MOL0     C83439   6.648   5.677   6.782  0.0359  0.2214  0.1065
  633MOL0     C83440   6.570   5.554   6.847 -0.7473  0.2157 -0.2349
  633MOL0     N83441   6.428   5.541   6.800  0.9562 -0.4863  0.2106
  633MOL0     C83442   6.341   5.628   6.731 -0.7924  0.6182 -0.6291
  633MOL0     C83443   6.234   5.555   6.687  0.2606  0.4313 -0.7850
  633MOL0     C83444   6.109   5.606   6.618  0.5644  0.2297  0.6810
  633MOL0     C83445   5.997   5.650   6.715 -0.7273  0.8346 -0.0940
  633MOL0     C83446   5.898   5.537   6.740  1.6602  0.0637 -0.4823
  633MOL0     C83447   5.802   5.506   6.623  0.3084 -0.5153 -0.4919
  633MOL0     O83448   5.706   5.606   6.631 -0.1566 -0.3028  0.0350
  633MOL0     C83449   5.576   5.579   6.671  0.5813 -0.7708  0.1676
  633MOL0     C83450   5.559   5.495   6.783  0.1583 -0.0291  0.5645
  633MOL0     C83451   5.425   5.468   6.819  0.5322  0.6435  0.3772
  633MOL0     C83452   5.307   5.529   6.755 -0.5366 -0.0407 -0.6914
  633MOL0     C83453   5.173   5.506   6.791  1.4125  0.5671  0.1694
  633MOL0     O83454   5.061   5.534   6.707  0.3791  0.6049 -0.9847
  633MOL0     C83455   4.932   5.536   6.762  0.7316 -0.1593  1.0153
  633MOL0     C83456   4.835   5.448   6.709  0.5563  0.7565 -0.4060
  633MOL0     C83457   4.696   5.451   6.749  0.2720 -0.5434  0.3058
  633MOL0     C83458   4.656   5.558   6.831 -0.1390  0.9067 -0.4350
  633MOL0     O83459   4.519   5.567   6.840  0.1685  0.1968  0.6230
  633MOL0     C83460   4.463   5.676   6.916  0.5440 -0.1022 -0.8013
  633MOL0     C83461   4.310   5.688   6.874 -0.7498  0.0779 -0.3542
  633MOL0     C83462   4.263   5.820   6.942  0.3633 -0.3159  0.5697
  633MOL0     C83463   4.107   5.828   6.922  0.7182  1.2152 -0.0243
  633MOL0     C83464   4.050   5.929   7.020 -0.6880 -0.0996 -0.2739
  633MOL0     C83465   4.053   6.072   6.964 -0.5839 -1.0407  0.0904
  633MOL0     C83466   3.947   6.152   7.047  0.0051 -0.0737 -0.0138
  633MOL0     C83467   3.970   6.177   7.194 -0.2300  0.0869  0.0164
  633MOL0    Cl83468   4.146   6.230   7.222 -0.1359  0.1121  0.3581
  633MOL0     C83469   4.751   5.650   6.878  0.7761  0.1130  0.1577
  633MOL0     C83470   4.887   5.643   6.837  0.2654  0.2287 -0.1517
  633MOL0     O83471   5.162   5.451   6.900 -0.9502  0.4844  0.0263
  633MOL0     C83472   5.339   5.617   6.649  0.0784 -0.0628  1.0650
  633MOL0     C83473   5.468   5.646   6.617 -0.3291 -0.1586  1.0740
  633MOL0     N83474   6.251   5.430   6.733  0.2491  0.2285  0.0710
  633MOL0     N83475   6.362   5.421   6.798 -0.0725  0.4261 -0.4272
  633MOL0     C83476   7.563   5.799   6.633 -0.0186  0.3350 -0.0608
  633MOL0     C83477   7.679   5.822   6.558 -0.0121  0.5634  0.1324
  633MOL0     C83478   8.161   5.836   6.495  0.1534 -1.4013 -0.1515
  633MOL0     C83479   8.292   5.855   6.547  0.1792 -0.2069  0.3175
  633MOL0     C83480   8.407   5.865   6.474 -1.1722 -0.1387  0.2335
  633MOL0     C83481   8.402   5.844   6.334  0.2379  0.4383 -0.2299
  633MOL0     O83482   8.518   5.844   6.262  0.4466 -0.4820 -0.5089
  633MOL0     C83483   8.514   5.861   6.115 -0.6293  0.1883  0.6127
  633MOL0     C83484   8.659   5.837   6.062  0.5774 -1.0334  0.1454
  633MOL0     C83485   8.766   5.931   6.120  0.9361  0.0895  0.2759
  633MOL0     C83486   8.908   5.873   6.115 -0.4894 -0.5985 -1.1466
  633MOL0     C83487   9.008   5.960   6.185  1.1589 -0.3949 -0.4309
  633MOL0     C83488   9.076   6.041   6.235 -0.0459 -0.1411 -0.2358
  633MOL0     C83489   8.268   5.824   6.275 -0.4485 -0.8240  0.0177
  633MOL0     C83490   8.156   5.815   6.358 -0.2310  0.2314 -0.6004
  633MOL0     H83491   7.901   5.667   6.763  0.6785 -3.1190 -2.2598
  633MOL0     H83492   7.710   5.635   6.895 -2.6911  0.5026  1.3696
  633MOL0     H83493   7.335   5.693   6.697 -1.2272 -0.2593 -0.2758
  633MOL0     H83494   7.335   5.855   6.778  2.3806  0.0893 -1.5196
  633MOL0     H83495   7.263   5.757   6.979  0.6204 -1.9253  1.7209
  633MOL0     H83496   7.246   5.595   6.918 -0.0248  0.3242 -0.9201
  633MOL0     H83497   7.067   5.673   6.762  1.7617 -1.8546  0.0076
  633MOL0     H83498   7.069   5.829   6.848  1.3833  0.6942  2.6078
  633MOL0     H83499   7.000   5.564   6.960  3.0955  0.2658 -1.7410
  633MOL0     H83500   7.036   5.688   7.068  0.1597  2.6316 -0.2971
  633MOL0     H83501   6.843   5.821   6.964 -1.8318  0.0310  0.2680
  633MOL0     H83502   6.779   5.666   7.034  2.0268 -1.1114  0.8553
  633MOL0     H83503   6.833   5.575   6.806  0.0026 -0.5213  2.0476
  633MOL0     H83504   6.850   5.749   6.757  0.5742 -2.1366 -1.1108
  633MOL0     H83505   6.600   5.763   6.830 -0.9178 -0.7973  1.0383
  633MOL0     H83506   6.633   5.667   6.674  0.9147 -2.0689  0.1544
  633MOL0     H83507   6.586   5.557   6.955 -0.3783  0.3754 -0.2912
  633MOL0     H83508   6.618   5.459   6.822 -1.5402 -0.0126 -0.9730
  633MOL0     H83509   6.359   5.734   6.715  2.0501  0.0062 -2.2056
  633MOL0     H83510   6.067   5.526   6.558 -2.0396  0.8885  1.5118
  633MOL0     H83511   6.126   5.693   6.553 -1.6712 -1.6168 -2.6136
  633MOL0     H83512   5.945   5.735   6.671 -2.2688  2.1843  3.9184
  633MOL0     H83513   6.043   5.680   6.810 -0.0991  2.6925 -0.9440
  633MOL0     H83514   5.961   5.449   6.757  0.1341 -1.2609 -1.3750
  633MOL0     H83515   5.835   5.555   6.828 -0.1474  0.9314 -1.8711
  633MOL0     H83516   5.758   5.406   6.625  0.8014 -0.9237 -3.7709
  633MOL0     H83517   5.845   5.500   6.523 -0.8287  1.7810 -1.1957
  633MOL0     H83518   5.642   5.441   6.826  1.0959  0.4391 -0.5933
  633MOL0     H83519   5.427   5.397   6.901  1.8294  1.3716  1.0184
  633MOL0     H83520   4.867   5.370   6.641 -0.1001  0.8187 -0.7954
  633MOL0     H83521   4.631   5.372   6.714 -1.6026  1.0080  0.0863
  633MOL0     H83522   4.512   5.773   6.907  0.2834  0.3034  1.5460
  633MOL0     H83523   4.464   5.653   7.023 -0.7820  1.0616 -0.5122
  633MOL0     H83524   4.254   5.597   6.900 -1.2853  0.2882 -0.7565
  633MOL0     H83525   4.295   5.706   6.767 -0.4280  0.3210 -0.3576
  633MOL0     H83526   4.319   5.902   6.894  1.4459 -0.4570  1.5562
  633MOL0     H83527   4.294   5.809   7.046  1.3269 -0.9013  0.2373
  633MOL0     H83528   4.075   5.841   6.818  0.2996 -2.3640 -0.4797
  633MOL0     H83529   4.059   5.733   6.946 -2.1614  1.7459 -2.9215
  633MOL0     H83530   4.105   5.910   7.112  0.9608  0.3092 -1.1268
  633MOL0     H83531   3.944   5.908   7.036 -0.5455 -1.5428 -1.0499
  633MOL0     H83532   4.029   6.094   6.860 -0.4716 -0.4839  0.1782
  633MOL0     H83533   4.156   6.105   6.983 -0.4860 -0.2764 -1.6318
  633MOL0     H83534   3.942   6.248   6.994  0.2365 -0.3892 -0.6185
  633MOL0     H83535   3.846   6.114   7.034  0.4595 -0.7889 -1.7721
  633MOL0     H83536   3.956   6.081   7.245 -0.4843 -0.6653 -1.4206
  633MOL0     H83537   3.903   6.244   7.248 -1.1146  1.2291 -2.3810
  633MOL0     H83538   4.717   5.734   6.938 -1.4553  0.4511 -1.4710
  633MOL0     H83539   4.964   5.718   6.856  2.2232 -1.3678 -1.3912
  633MOL0     H83540   5.262   5.664   6.588 -1.4205 -2.7904  0.6955
  633MOL0     H83541   5.482   5.725   6.544 -0.5145 -0.2075  0.9840
  633MOL0     H83542   7.469   5.840   6.595 -1.4404 -2.5107  0.1604
  633MOL0     H83543   7.669   5.890   6.474 -0.6195  1.2542  0.7429
  633MOL0     H83544   8.307   5.866   6.654  1.2614 -3.7000  0.6361
  633MOL0     H83545   8.507   5.880   6.512 -1.0256  0.5527 -0.3960
  633MOL0     H83546   8.475   5.961   6.093 -1.1319 -0.2268 -0.4327
  633MOL0     H83547   8.453   5.791   6.058  1.2731 -0.7604 -0.3468
  633MOL0     H83548   8.679   5.733   6.092 -5.8447 -3.1005 -1.2395
  633MOL0     H83549   8.654   5.842   5.953 -1.0210  0.1084  0.2445
  633MOL0     H83550   8.740   5.951   6.224  3.4519 -0.6847  1.1347
  633MOL0     H83551   8.760   6.021   6.058  1.8694 -0.3887 -0.5524
  633MOL0     H83552   8.899   5.770   6.150 -2.9958 -0.7200 -1.9505
  633MOL0     H83553   8.948   5.859   6.014  1.3320 -0.7633 -0.4525
  633MOL0     H83554   9.139   6.100   6.298 -0.4134  0.7219 -0.6556
  633MOL0     H83555   8.259   5.822   6.167 -1.9707  1.4659  0.0227
  633MOL0     H83556   8.065   5.777   6.313  1.0892 -0.6948 -2.6176
  634MOL0     O83557   6.853  10.660   0.625 -0.5135  0.3862  0.1513
  634MOL0     C83558   6.863  10.535   0.622 -0.0959  1.6014  0.7393
  634MOL0     O83559   6.765  10.447   0.663  0.5426 -0.3127  0.0296
  634MOL0     C83560   6.640  10.505   0.684  1.0005 -0.0351 -0.2099
  634MOL0     C83561   6.580  10.512   0.816 -1.0512  0.2018  0.9712
  634MOL0     C83562   6.455  10.564   0.842  1.0952  1.3311 -0.0178
  634MOL0     C83563   6.390  10.606   0.728 -0.2067 -0.7595 -0.0308
  634MOL0     O83564   6.263  10.650   0.756 -0.2731  0.1605  0.5832
  634MOL0     C83565   6.220  10.773   0.701 -0.5322  0.7061  0.3978
  634MOL0     C83566   6.111  10.838   0.779 -0.3022 -0.4368 -0.2222
  634MOL0     C83567   5.985  10.752   0.809  0.3183 -0.0661 -0.6461
  634MOL0     C83568   5.865  10.828   0.862  0.0033  0.4801  0.7221
  634MOL0     C83569   5.728  10.758   0.848  0.3449  0.1985  0.7120
  634MOL0     C83570   5.619  10.830   0.922  0.3317  0.1932  0.0495
  634MOL0     C83571   5.489  10.745   0.910  0.2037 -1.1489 -0.8350
  634MOL0     C83572   5.493  10.606   0.982 -0.6540  0.0871  0.9515
  634MOL0     N83573   5.362  10.555   0.998  0.6366  0.9602  0.5479
  634MOL0     C83574   5.262  10.612   1.071  0.2633 -1.0044  0.2632
  634MOL0     C83575   5.146  10.544   1.043 -0.1916 -0.2039 -0.6333
  634MOL0     C83576   5.005  10.561   1.104  0.5856 -0.6638  0.1753
  634MOL0     C83577   4.937  10.689   1.064 -0.3994  0.2669 -0.0338
  634MOL0     C83578   4.791  10.704   1.110  0.1181 -0.5080  0.2655
  634MOL0     C83579   4.723  10.831   1.058 -0.5515 -0.0871 -0.8976
  634MOL0     O83580   4.587  10.831   1.091 -0.3571 -0.2053 -0.9143
  634MOL0     C83581   4.507  10.921   1.026 -0.3079 -0.0483  0.2992
  634MOL0     C83582   4.555  11.043   0.976 -0.1613 -1.1948  0.7991
  634MOL0     C83583   4.476  11.140   0.917 -0.1477  0.3570  0.5395
  634MOL0     C83584   4.343  11.113   0.913  0.0240 -0.8896 -0.4396
  634MOL0     C83585   4.252  11.206   0.843 -0.5503 -0.2416 -1.0591
  634MOL0     O83586   4.309  11.305   0.776 -0.7498 -0.2726  0.8662
  634MOL0     C83587   4.239  11.393   0.701 -0.1944  0.0895 -0.0689
  634MOL0     C83588   4.162  11.363   0.596 -0.0866  0.8259 -0.2272
  634MOL0     C83589   4.087  11.457   0.525  0.2751  0.2287 -0.4611
  634MOL0     C83590   4.095  11.596   0.553 -0.4866  0.8025 -0.0005
  634MOL0     O83591   4.045  11.692   0.470 -0.0787 -0.2530  0.0007
  634MOL0     C83592   4.139  11.794   0.420 -0.4558  0.0819 -0.4781
  634MOL0     C83593   4.052  11.894   0.337  0.4942  0.3828  0.3921
  634MOL0     C83594   3.951  11.813   0.244 -0.1616 -0.2294 -0.1412
  634MOL0     C83595   3.926  11.899   0.128  0.6025 -0.4576  0.8466
  634MOL0     C83596   3.792  11.889   0.056  0.2703 -2.0404  0.8440
  634MOL0     C83597   3.751  11.756  -0.006  0.4196 -0.6455  0.4881
  634MOL0     C83598   3.613  11.756  -0.074  0.5683 -0.3458 -0.6708
  634MOL0     C83599   3.600  11.650  -0.184 -0.2247 -0.2430  0.5405
  634MOL0    Cl83600   3.442  11.654  -0.259  0.4710 -0.5948  0.0692
  634MOL0     C83601   4.178  11.625   0.670 -0.4871  0.6457  0.3270
  634MOL0     C83602   4.258  11.528   0.736  0.3505  0.5605 -0.0744
  634MOL0     O83603   4.130  11.187   0.858  0.1673 -0.4392  0.2494
  634MOL0     C83604   4.286  10.998   0.973 -0.3074 -0.3218  0.4182
  634MOL0     C83605   4.373  10.911   1.033 -0.4873 -0.6906  0.2798
  634MOL0     N83606   5.175  10.458   0.944 -0.0347 -0.9047 -0.4839
  634MOL0     N83607   5.301  10.465   0.907  0.0651  0.0680  0.6980
  634MOL0     C83608   6.436  10.612   0.597 -0.3171 -1.2140  0.0067
  634MOL0     C83609   6.568  10.565   0.578  0.8935 -0.7678 -0.1579
  634MOL0     C83610   6.980  10.478   0.548  0.2085 -0.4183 -0.9872
  634MOL0     C83611   7.070  10.565   0.492  0.3429  0.0346  0.6687
  634MOL0     C83612   7.181  10.521   0.415 -0.1726  0.1332 -1.0090
  634MOL0     C83613   7.208  10.383   0.414  0.6704  1.2086  0.3459
  634MOL0     O83614   7.304  10.320   0.346  0.8733  0.9106  0.2246
  634MOL0     C83615   7.404  10.383   0.283  0.3885  0.2032 -0.6929
  634MOL0     C83616   7.524  10.281   0.278 -0.4882 -0.4475 -0.1534
  634MOL0     C83617   7.652  10.350   0.215  0.2977  0.3106 -0.5115
  634MOL0     C83618   7.738  10.435   0.317  0.0391 -0.2738 -0.1629
  634MOL0     C83619   7.845  10.491   0.242 -0.8363  0.4595  0.5303
  634MOL0     C83620   7.944  10.533   0.189  0.1274 -0.2212 -0.0963
  634MOL0     C83621   7.124  10.284   0.481  0.7634  0.5831 -1.2707
  634MOL0     C83622   7.008  10.341   0.544  0.0927 -0.2524 -0.5896
  634MOL0     H83623   6.644  10.489   0.901  1.2444 -0.4316 -0.8067
  634MOL0     H83624   6.414  10.576   0.942 -1.2550 -0.4156 -0.6796
  634MOL0     H83625   6.194  10.755   0.597  4.0426 -0.8513 -0.7200
  634MOL0     H83626   6.306  10.840   0.691 -1.0838  0.9905 -4.2691
  634MOL0     H83627   6.082  10.916   0.709  1.3058 -0.7031 -1.2388
  634MOL0     H83628   6.153  10.887   0.868  0.1046 -0.9005 -0.1551
  634MOL0     H83629   6.003  10.673   0.882  0.7739 -0.0429 -0.7305
  634MOL0     H83630   5.947  10.701   0.720 -3.3134 -0.3106  0.8965
  634MOL0     H83631   5.881  10.849   0.969 -0.1076 -2.4360  1.3767
  634MOL0     H83632   5.865  10.920   0.803 -3.2150  0.5758  0.6952
  634MOL0     H83633   5.741  10.654   0.880 -0.6111  0.1810  1.0840
  634MOL0     H83634   5.709  10.748   0.741  1.1541 -0.6269  0.6295
  634MOL0     H83635   5.603  10.930   0.881  0.4216 -0.6067 -2.0513
  634MOL0     H83636   5.651  10.837   1.026 -3.7663  0.4198  1.4741
  634MOL0     H83637   5.413  10.802   0.965  0.8180 -0.5418 -0.6112
  634MOL0     H83638   5.467  10.740   0.803 -0.1224  4.5424 -1.3114
  634MOL0     H83639   5.550  10.598   1.074 -0.3136  1.1441  0.8486
  634MOL0     H83640   5.540  10.539   0.910  0.5929  0.3669  1.4949
  634MOL0     H83641   5.267  10.687   1.149 -2.3892 -0.7143  0.2699
  634MOL0     H83642   5.012  10.554   1.213  1.3048  0.3880  0.2126
  634MOL0     H83643   4.945  10.475   1.075  1.3277 -0.6804 -1.4353
  634MOL0     H83644   4.943  10.701   0.955 -0.8172 -2.6392 -0.4556
  634MOL0     H83645   4.995  10.769   1.113  2.9768 -2.7809  1.4179
  634MOL0     H83646   4.739  10.621   1.060 -0.1650 -1.4481  2.0153
  634MOL0     H83647   4.776  10.690   1.217 -1.9447 -1.8543 -0.1257
  634MOL0     H83648   4.739  10.822   0.950  4.1854 -0.6428 -0.3615
  634MOL0     H83649   4.778  10.919   1.092  0.0489 -0.3949 -1.0660
  634MOL0     H83650   4.660  11.067   0.985  0.0921 -1.5194 -0.8911
  634MOL0     H83651   4.521  11.230   0.878  2.1147  0.1796  2.5433
  634MOL0     H83652   4.144  11.264   0.555  1.0680  0.2440  0.6146
  634MOL0     H83653   4.022  11.414   0.449  1.6764 -2.5300 -0.2534
  634MOL0     H83654   4.206  11.737   0.355  1.2811  0.4750  0.8927
  634MOL0     H83655   4.198  11.844   0.497 -0.9621  1.2054 -0.7900
  634MOL0     H83656   4.128  11.942   0.275  1.2336  1.2539  1.8908
  634MOL0     H83657   3.998  11.968   0.397  0.8259  2.3381 -1.6105
  634MOL0     H83658   3.862  11.801   0.306  1.3579 -2.1120  1.8124
  634MOL0     H83659   3.977  11.709   0.222  3.2799  0.5133 -0.2361
  634MOL0     H83660   3.928  12.004   0.159 -1.6582 -0.6909  2.0683
  634MOL0     H83661   4.014  11.886   0.065  0.6274 -0.2738  0.8437
  634MOL0     H83662   3.796  11.964  -0.025 -2.4333 -2.1985  0.4523
  634MOL0     H83663   3.713  11.935   0.117  0.4567  2.2871 -1.6821
  634MOL0     H83664   3.754  11.681   0.073  0.2528 -1.7057 -0.4776
  634MOL0     H83665   3.831  11.725  -0.075 -0.8643 -1.5833 -0.6429
  634MOL0     H83666   3.531  11.727  -0.007  2.9714 -1.3307  2.0699
  634MOL0     H83667   3.587  11.855  -0.112  1.2279 -0.4185 -1.3390
  634MOL0     H83668   3.608  11.554  -0.132 -0.8691  0.9842  3.0368
  634MOL0     H83669   3.682  11.659  -0.256  2.2985 -1.0027  3.1206
  634MOL0     H83670   4.183  11.725   0.712 -1.4139  0.6415  0.4592
  634MOL0     H83671   4.318  11.552   0.823  2.4188 -0.4959 -1.1207
  634MOL0     H83672   4.180  10.975   0.980  0.0838 -2.0297  1.1924
  634MOL0     H83673   4.340  10.824   1.089  0.6812  0.9745  3.8502
  634MOL0     H83674   6.381  10.640   0.508  1.1667 -1.5207 -1.0451
  634MOL0     H83675   6.611  10.563   0.479  2.0784  0.7683  0.2722
  634MOL0     H83676   7.056  10.672   0.485  2.4572  0.3256  0.2583
  634MOL0     H83677   7.251  10.595   0.376  1.7789 -1.3623 -0.5442
  634MOL0     H83678   7.424  10.482   0.324 -0.7031  0.3635 -0.5309
  634MOL0     H83679   7.367  10.400   0.181  0.5634 -0.5523 -0.8884
  634MOL0     H83680   7.552  10.232   0.372  2.1400  4.5424  2.0588
  634MOL0     H83681   7.494  10.202   0.209  0.2397 -0.5045 -0.4077
  634MOL0     H83682   7.632  10.417   0.131  2.2529  1.8004  0.1405
  634MOL0     H83683   7.709  10.265   0.174  1.7603  1.3285 -0.6750
  634MOL0     H83684   7.679  10.512   0.366 -1.8102 -2.3952  1.1291
  634MOL0     H83685   7.779  10.370   0.394  2.1960  0.8506 -0.2909
  634MOL0     H83686   8.026  10.585   0.143 -1.1067  0.4821 -1.6319
  634MOL0     H83687   7.130  10.177   0.463 -0.0077  0.3765 -0.3461
  634MOL0     H83688   6.945  10.274   0.601  0.6726  1.5880  2.3994
  635MOL0     O83689   6.990   4.163   0.845  0.7148  0.0388  0.0136
  635MOL0     C83690   7.052   4.090   0.764  0.0075  1.0978 -0.1915
  635MOL0     O83691   6.997   4.000   0.672 -0.7508  0.8595  0.5536
  635MOL0     C83692   6.865   3.994   0.662  0.2178 -0.5652  0.1801
  635MOL0     C83693   6.783   3.933   0.746  0.5641  0.3203 -0.2641
  635MOL0     C83694   6.647   3.918   0.734  0.7449  0.4433 -0.1098
  635MOL0     C83695   6.578   3.983   0.637 -1.0055  0.8992  1.3823
  635MOL0     O83696   6.442   3.996   0.618 -0.1327 -0.2439  0.4865
  635MOL0     C83697   6.346   3.935   0.700 -0.2841 -0.0342  0.0526
  635MOL0     C83698   6.206   3.945   0.637  0.8463  0.5208  0.3270
  635MOL0     C83699   6.104   3.858   0.709  0.0859 -0.6306  0.2919
  635MOL0     C83700   6.060   3.916   0.845 -0.1417 -0.7716 -0.0628
  635MOL0     C83701   5.955   3.827   0.917  0.8253 -0.0789 -0.5444
  635MOL0     C83702   5.826   3.800   0.828  0.1886 -0.5528 -0.8383
  635MOL0     C83703   5.753   3.932   0.795  0.2242  0.5931  0.0402
  635MOL0     C83704   5.671   3.966   0.922 -0.4013  0.2071 -0.3835
  635MOL0     N83705   5.533   3.982   0.907 -0.0401  0.6025  0.0927
  635MOL0     C83706   5.472   4.094   0.946 -1.3462 -0.2614  0.4064
  635MOL0     C83707   5.346   4.074   0.925  0.2083 -0.9765 -0.7272
  635MOL0     C83708   5.239   4.188   0.920 -0.8127 -0.1776 -0.1763
  635MOL0     C83709   5.096   4.140   0.927  0.1125  0.4145 -0.3409
  635MOL0     C83710   5.053   4.098   0.791 -0.1049  0.8842 -0.3129
  635MOL0     C83711   4.910   4.043   0.801  0.6246 -0.1006 -0.0727
  635MOL0     O83712   4.811   4.152   0.808 -0.5395 -0.3235  1.1556
  635MOL0     C83713   4.679   4.109   0.815  0.6318  0.0119 -0.9705
  635MOL0     C83714   4.639   3.980   0.854  0.6416  0.2839  0.5767
  635MOL0     C83715   4.508   3.950   0.873  1.0016  0.6222 -0.1195
  635MOL0     C83716   4.405   4.052   0.873  0.4605  0.1226 -0.0562
  635MOL0     C83717   4.259   4.019   0.897  0.4329  0.1015  0.6865
  635MOL0     O83718   4.167   4.124   0.873 -0.1651 -0.1210  0.2439
  635MOL0     C83719   4.033   4.078   0.888  0.3661  0.7552 -0.4045
  635MOL0     C83720   3.973   4.090   1.010 -0.0605  0.1108 -0.3476
  635MOL0     C83721   3.836   4.052   1.025 -0.8902  0.5714 -0.5190
  635MOL0     C83722   3.759   4.000   0.918  0.6417  0.2358  0.1244
  635MOL0     O83723   3.623   3.971   0.944 -0.1552  0.1585  0.0639
  635MOL0     C83724   3.564   3.872   0.859  0.9424  0.4222 -0.5590
  635MOL0     C83725   3.429   3.832   0.926 -0.8269  0.0799 -0.0961
  635MOL0     C83726   3.353   3.720   0.852 -0.4228 -0.2225 -0.2653
  635MOL0     C83727   3.228   3.692   0.941  1.0742  0.5577  0.7535
  635MOL0     C83728   3.135   3.589   0.875 -0.2347 -0.3991  0.0703
  635MOL0     C83729   3.067   3.502   0.979  0.0156 -0.3122 -0.4844
  635MOL0     C83730   2.979   3.383   0.920 -0.2158 -0.1523 -0.3418
  635MOL0     C83731   2.843   3.437   0.878 -0.6998  0.4259  0.3176
  635MOL0    Cl83732   2.741   3.306   0.811  0.0756  0.4677 -0.2276
  635MOL0     C83733   3.829   3.989   0.801 -0.1458 -0.8161  0.2443
  635MOL0     C83734   3.954   4.036   0.782  0.4595 -0.3611  0.7141
  635MOL0     O83735   4.233   3.909   0.946  0.3326 -0.2280 -0.4021
  635MOL0     C83736   4.447   4.179   0.831 -0.0851 -0.5147  0.5417
  635MOL0     C83737   4.577   4.208   0.801  0.2126 -0.2010 -0.2660
  635MOL0     N83738   5.325   3.945   0.888 -0.8475  0.1278  0.2075
  635MOL0     N83739   5.440   3.889   0.887 -0.5865 -0.5874  0.2273
  635MOL0     C83740   6.659   4.054   0.548  0.0209 -0.8340  0.0220
  635MOL0     C83741   6.802   4.058   0.559 -0.0632 -0.8689 -0.9421
  635MOL0     C83742   7.202   4.095   0.761  0.5950  0.2611 -0.1625
  635MOL0     C83743   7.276   4.155   0.863 -0.8538  0.5334  0.4312
  635MOL0     C83744   7.416   4.160   0.864  0.1807 -0.1431  1.1512
  635MOL0     C83745   7.481   4.097   0.754 -0.7939  0.5284  0.5433
  635MOL0     O83746   7.620   4.083   0.767 -0.0015  0.6580 -0.0712
  635MOL0     C83747   7.690   3.996   0.683 -0.3924 -0.1942  0.2659
  635MOL0     C83748   7.834   3.975   0.733 -0.2631 -0.0851  0.6437
  635MOL0     C83749   7.837   3.947   0.890  0.5615 -0.8486 -0.0514
  635MOL0     C83750   7.975   3.981   0.956  0.5345 -0.6497  0.3946
  635MOL0     C83751   8.078   3.886   0.922  0.4527  0.1874  0.7606
  635MOL0     C83752   8.141   3.784   0.892 -0.1576 -0.2683 -0.3332
  635MOL0     C83753   7.404   4.038   0.645  0.2246 -0.0299  0.3919
  635MOL0     C83754   7.271   4.039   0.646 -0.2995 -0.6225  0.0221
  635MOL0     H83755   6.823   3.902   0.842  0.7391  1.6041  0.0865
  635MOL0     H83756   6.594   3.886   0.824  0.6034 -0.9667 -0.6782
  635MOL0     H83757   6.342   3.982   0.798  2.6128 -1.3513  0.8955
  635MOL0     H83758   6.366   3.828   0.707  2.5079  0.2927 -1.4284
  635MOL0     H83759   6.227   3.898   0.540 -0.8260 -1.4655  0.8698
  635MOL0     H83760   6.176   4.050   0.627  1.1379  0.4882 -1.2736
  635MOL0     H83761   6.139   3.758   0.733 -1.9000 -1.4928 -0.2034
  635MOL0     H83762   6.022   3.857   0.636  2.3350 -0.2511 -2.3737
  635MOL0     H83763   6.145   3.937   0.911 -1.3505 -0.0215  1.3136
  635MOL0     H83764   6.022   4.017   0.831  2.5222  0.3841  0.3906
  635MOL0     H83765   5.922   3.865   1.014  2.6303 -0.2838  0.2035
  635MOL0     H83766   6.010   3.738   0.950  1.2411  0.6121  0.6990
  635MOL0     H83767   5.757   3.730   0.874  1.3653 -1.0843  0.1954
  635MOL0     H83768   5.855   3.751   0.734  1.1209  2.6346 -2.3630
  635MOL0     H83769   5.812   4.014   0.752 -0.3862  1.5506  0.9849
  635MOL0     H83770   5.678   3.915   0.717  0.9324  2.2036 -1.0540
  635MOL0     H83771   5.715   4.052   0.973  2.3833 -0.9748 -0.5957
  635MOL0     H83772   5.683   3.884   0.994 -0.6633 -0.7883 -1.4534
  635MOL0     H83773   5.530   4.183   0.970 -0.1989 -1.0174  0.4911
  635MOL0     H83774   5.250   4.239   0.824 -1.7194  0.0065 -0.1927
  635MOL0     H83775   5.261   4.265   0.994  1.3458  2.6099 -3.4131
  635MOL0     H83776   5.046   4.226   0.972 -1.1820 -1.2993  1.7515
  635MOL0     H83777   5.077   4.059   0.999 -0.0695  0.1301 -0.7012
  635MOL0     H83778   5.049   4.185   0.726 -3.0777  1.2164  0.1663
  635MOL0     H83779   5.117   4.021   0.746 -0.7181  0.9818 -1.3700
  635MOL0     H83780   4.910   3.973   0.885  3.0355 -1.1586 -0.8786
  635MOL0     H83781   4.887   3.993   0.707 -1.1099 -0.9430  0.7556
  635MOL0     H83782   4.711   3.901   0.867 -0.1304 -0.6161 -0.4157
  635MOL0     H83783   4.478   3.847   0.891 -1.9861  1.5428  0.7931
  635MOL0     H83784   4.027   4.122   1.099 -1.1070  0.6640  0.1083
  635MOL0     H83785   3.783   4.078   1.116 -0.2822 -0.6343  0.1921
  635MOL0     H83786   3.628   3.784   0.844  0.4330 -0.1924  0.7482
  635MOL0     H83787   3.541   3.914   0.760  0.5305  0.9391 -0.2450
  635MOL0     H83788   3.369   3.924   0.924  0.3388  0.8599 -1.5172
  635MOL0     H83789   3.439   3.808   1.032  0.5082 -1.7219 -0.5922
  635MOL0     H83790   3.413   3.629   0.858 -1.4469 -0.9299 -0.4553
  635MOL0     H83791   3.327   3.750   0.750 -1.5086 -1.8562 -0.5096
  635MOL0     H83792   3.262   3.648   1.036 -1.3574  0.4491  1.6399
  635MOL0     H83793   3.177   3.787   0.959  0.0513 -0.0080  0.8718
  635MOL0     H83794   3.203   3.525   0.819  1.9035 -1.2920  3.3793
  635MOL0     H83795   3.063   3.642   0.812  0.2472  0.5299  0.2794
  635MOL0     H83796   3.008   3.573   1.036  0.0975 -0.1777 -0.5674
  635MOL0     H83797   3.142   3.462   1.048 -2.4741  0.4915  2.9327
  635MOL0     H83798   3.032   3.330   0.840 -0.0954 -0.7430  0.1200
  635MOL0     H83799   2.966   3.317   1.007  1.4073  0.0749  0.0979
  635MOL0     H83800   2.855   3.510   0.796  0.1691  1.5311  1.3895
  635MOL0     H83801   2.791   3.489   0.959 -0.5880  1.1239 -0.0513
  635MOL0     H83802   3.777   3.949   0.714 -1.7191 -0.1044  0.8243
  635MOL0     H83803   3.988   4.045   0.679 -2.2256 -0.7668 -0.2808
  635MOL0     H83804   4.377   4.262   0.841  0.3595  0.0358 -0.7592
  635MOL0     H83805   4.592   4.314   0.781 -3.6365  0.6073  0.3321
  635MOL0     H83806   6.608   4.115   0.475 -0.0949  0.9019  1.4836
  635MOL0     H83807   6.869   4.095   0.483  2.1382  1.9562  2.0827
  635MOL0     H83808   7.224   4.206   0.943 -1.2327  0.5060  0.2055
  635MOL0     H83809   7.473   4.213   0.940 -1.6401 -0.0063  2.4610
  635MOL0     H83810   7.680   4.043   0.585  1.4311 -0.2526  0.0236
  635MOL0     H83811   7.643   3.899   0.662 -2.3387  1.3663 -3.3637
  635MOL0     H83812   7.890   3.892   0.687 -1.0139 -0.1455 -0.1916
  635MOL0     H83813   7.886   4.069   0.715 -2.4535  1.4833  2.0355
  635MOL0     H83814   7.804   3.845   0.914  0.7444 -1.1951 -1.2194
  635MOL0     H83815   7.766   4.017   0.935 -0.5920  0.0543 -3.0554
  635MOL0     H83816   7.996   4.084   0.926 -3.6274  0.5415  0.8966
  635MOL0     H83817   7.969   3.984   1.065  1.5407  2.1403  0.4491
  635MOL0     H83818   8.207   3.700   0.886 -0.3630 -0.4051 -0.6470
  635MOL0     H83819   7.453   4.000   0.556  2.2143 -0.2937  1.5453
  635MOL0     H83820   7.209   4.010   0.561 -2.1382 -0.3843  1.2241
  636MOL0     O83821   0.415   7.865   2.199 -0.0229 -0.6064 -0.6425
  636MOL0     C83822   0.487   7.920   2.288 -0.3179 -0.2727 -0.4685
  636MOL0     O83823   0.453   7.983   2.410  0.0845  0.8498  0.1673
  636MOL0     C83824   0.322   7.986   2.450  0.5049 -0.4529 -0.3265
  636MOL0     C83825   0.207   8.005   2.363 -0.2280  0.3559 -0.3349
  636MOL0     C83826   0.082   8.007   2.416  0.2017  0.7859 -0.2957
  636MOL0     C83827   0.056   7.972   2.558  0.1105  0.1964  0.2975
  636MOL0     O83828  -0.074   7.988   2.597  0.2369  0.1406  0.0306
  636MOL0     C83829  -0.121   7.896   2.700 -0.1427  0.6465 -0.0054
  636MOL0     C83830  -0.271   7.916   2.719 -0.2754 -0.4822  0.0468
  636MOL0     C83831  -0.305   8.063   2.758  0.2490  0.3136  0.0344
  636MOL0     C83832  -0.452   8.092   2.776  0.2967  0.5887  0.7097
  636MOL0     C83833  -0.520   8.002   2.880 -0.8524  0.4605 -0.5683
  636MOL0     C83834  -0.676   8.043   2.897 -0.5940  1.2022  0.0776
  636MOL0     C83835  -0.688   8.179   2.959 -0.3815  0.7565 -0.1903
  636MOL0     C83836  -0.819   8.211   3.027 -0.4445 -0.0865 -0.5010
  636MOL0     N83837  -0.934   8.201   2.928 -0.3547  0.5501 -0.7707
  636MOL0     C83838  -0.958   8.288   2.841 -0.0687 -0.0025  0.1939
  636MOL0     C83839  -1.064   8.243   2.778  0.9737  0.8334 -0.6997
  636MOL0     C83840  -1.133   8.313   2.658 -0.6830  0.5270 -0.2847
  636MOL0     C83841  -1.264   8.243   2.619 -0.6809 -0.3779 -0.1956
  636MOL0     C83842  -1.363   8.345   2.565  0.9424  0.1262  0.3205
  636MOL0     C83843  -1.497   8.273   2.520 -1.0508 -0.4711 -0.5174
  636MOL0     O83844  -1.589   8.377   2.476 -0.2978  0.2571  0.4825
  636MOL0     C83845  -1.715   8.340   2.431 -0.9250  0.6081  0.7794
  636MOL0     C83846  -1.815   8.435   2.419 -0.3484  0.5863 -0.4131
  636MOL0     C83847  -1.945   8.400   2.389  0.1616 -0.0089  0.5026
  636MOL0     C83848  -1.973   8.273   2.351  0.4346 -0.6597 -0.4315
  636MOL0     C83849  -2.110   8.238   2.299  1.0050  0.1761 -0.0651
  636MOL0     O83850  -2.210   8.319   2.301  0.1727 -0.6741 -0.6023
  636MOL0     C83851  -2.331   8.287   2.242 -0.6626 -0.2358  0.4137
  636MOL0     C83852  -2.360   8.323   2.113  0.7770 -0.2517  0.1499
  636MOL0     C83853  -2.492   8.300   2.060 -0.2450  0.2984 -0.8761
  636MOL0     C83854  -2.579   8.234   2.142  0.3544  0.4635 -0.3669
  636MOL0     O83855  -2.703   8.214   2.081 -0.4539 -0.1179 -0.1389
  636MOL0     C83856  -2.804   8.146   2.159 -0.3592  0.2514 -0.0801
  636MOL0     C83857  -2.912   8.110   2.050 -0.7450  0.4812 -0.3740
  636MOL0     C83858  -3.017   8.030   2.110  0.0177 -0.5239 -0.3735
  636MOL0     C83859  -3.101   8.096   2.217 -0.0348 -0.2339 -0.5782
  636MOL0     C83860  -3.220   8.028   2.264  0.7473  1.0770 -0.4828
  636MOL0     C83861  -3.179   7.895   2.327  0.6263 -0.1546 -0.6748
  636MOL0     C83862  -3.306   7.815   2.350 -0.1564  0.3707 -0.7034
  636MOL0     C83863  -3.402   7.866   2.462 -0.3962  0.9054 -0.5288
  636MOL0    Cl83864  -3.326   7.847   2.621  0.0072 -0.0420  0.1445
  636MOL0     C83865  -2.547   8.195   2.269  0.0901 -0.3476 -0.5793
  636MOL0     C83866  -2.423   8.230   2.323 -0.4845  0.1963  0.2003
  636MOL0     O83867  -2.118   8.121   2.245  0.4773 -0.2438 -0.7609
  636MOL0     C83868  -1.877   8.175   2.354 -0.0378  0.1097  0.3848
  636MOL0     C83869  -1.748   8.203   2.401  0.0419  0.2759 -0.6234
  636MOL0     N83870  -1.099   8.121   2.832  0.0210 -0.0364  0.4556
  636MOL0     N83871  -1.019   8.099   2.928  0.0307  0.3720  0.2949
  636MOL0     C83872   0.164   7.950   2.635 -0.2966 -0.5777 -0.1182
  636MOL0     C83873   0.297   7.965   2.587  0.0290 -0.8443  0.8806
  636MOL0     C83874   0.622   7.939   2.243 -0.9343 -0.0226  0.0380
  636MOL0     C83875   0.712   8.013   2.313 -0.1676  0.1431 -1.0114
  636MOL0     C83876   0.844   8.031   2.275 -0.0149  0.2422 -0.0669
  636MOL0     C83877   0.902   7.957   2.176 -0.6717  1.0561  0.2768
  636MOL0     O83878   1.032   7.973   2.134  0.5229 -0.5321  0.2109
  636MOL0     C83879   1.119   8.048   2.219 -0.5183 -0.0323  0.4240
  636MOL0     C83880   1.251   8.074   2.136 -0.6401 -0.1467 -0.6428
  636MOL0     C83881   1.357   8.139   2.227 -0.0133 -0.4429  0.2278
  636MOL0     C83882   1.324   8.281   2.298  0.2739  0.1266 -0.4485
  636MOL0     C83883   1.265   8.364   2.200 -0.0965  0.3844 -0.0599
  636MOL0     C83884   1.205   8.440   2.124  0.4002 -0.3155  0.6247
  636MOL0     C83885   0.823   7.867   2.106 -0.1004  0.1065  0.5837
  636MOL0     C83886   0.689   7.860   2.135  0.2604 -1.3272  0.3173
  636MOL0     H83887   0.209   8.028   2.257 -2.3156  1.0675 -0.2794
  636MOL0     H83888  -0.008   8.024   2.358  0.8155  0.7709 -1.2799
  636MOL0     H83889  -0.067   7.910   2.794 -0.7494  1.1868  0.2659
  636MOL0     H83890  -0.097   7.794   2.667 -0.5005  0.4901  0.2131
  636MOL0     H83891  -0.300   7.843   2.796  1.6243 -0.5943  0.7169
  636MOL0     H83892  -0.320   7.890   2.625  0.0578  1.8805 -0.8304
  636MOL0     H83893  -0.267   8.127   2.677  0.8215 -0.8920 -0.6835
  636MOL0     H83894  -0.251   8.086   2.851 -0.7784 -0.2774  0.7947
  636MOL0     H83895  -0.461   8.196   2.808 -2.3185  1.2903 -1.9282
  636MOL0     H83896  -0.503   8.091   2.679 -2.2705 -1.7019  1.9395
  636MOL0     H83897  -0.466   8.017   2.973 -1.4329  1.0260 -0.3180
  636MOL0     H83898  -0.501   7.897   2.856  2.4619  1.1329 -1.4112
  636MOL0     H83899  -0.723   7.972   2.966  1.4312  1.0996  1.4380
  636MOL0     H83900  -0.735   8.039   2.805 -1.0793  3.5900  0.2210
  636MOL0     H83901  -0.614   8.187   3.039 -1.2740 -0.7749  0.8509
  636MOL0     H83902  -0.675   8.246   2.873  1.3245 -0.5896 -1.0399
  636MOL0     H83903  -0.824   8.307   3.081 -1.0082 -1.2809  1.6918
  636MOL0     H83904  -0.829   8.132   3.102 -2.4330 -0.1228 -0.7483
  636MOL0     H83905  -0.908   8.384   2.825 -2.3888  1.5295  1.5032
  636MOL0     H83906  -1.063   8.307   2.574  0.8469  1.0745  0.8948
  636MOL0     H83907  -1.145   8.420   2.676  3.5532  1.2964 -0.8841
  636MOL0     H83908  -1.306   8.185   2.702  1.5832 -0.1021  1.2116
  636MOL0     H83909  -1.236   8.163   2.550 -0.5877 -2.4547  2.1102
  636MOL0     H83910  -1.397   8.417   2.641 -1.6580 -1.5182  0.8732
  636MOL0     H83911  -1.320   8.406   2.485  2.3675  0.5270  1.3642
  636MOL0     H83912  -1.537   8.219   2.606  0.1338  0.9627  1.0025
  636MOL0     H83913  -1.470   8.195   2.448  0.3888 -0.4410 -0.0579
  636MOL0     H83914  -1.795   8.536   2.454  1.8656  0.4502 -1.1400
  636MOL0     H83915  -2.021   8.476   2.372 -1.2815 -1.9764 -3.0500
  636MOL0     H83916  -2.280   8.351   2.044 -0.5304 -1.1067 -1.7953
  636MOL0     H83917  -2.530   8.323   1.961  1.8201  0.2034 -1.7415
  636MOL0     H83918  -2.846   8.220   2.228  2.3226  2.0219 -0.2351
  636MOL0     H83919  -2.776   8.052   2.206  0.7242  0.8515  0.5107
  636MOL0     H83920  -2.876   8.053   1.965 -0.2382  0.0167  0.1454
  636MOL0     H83921  -2.946   8.200   1.997  0.2922 -0.1538 -2.1773
  636MOL0     H83922  -2.971   7.939   2.149 -0.4726 -0.4748  0.3345
  636MOL0     H83923  -3.075   7.990   2.026 -0.9590  3.6832 -1.9434
  636MOL0     H83924  -3.048   8.114   2.311 -1.2057 -1.7715  0.4145
  636MOL0     H83925  -3.134   8.188   2.167  0.8366 -0.3959 -1.4921
  636MOL0     H83926  -3.296   8.029   2.185  1.3130  1.8664 -1.0355
  636MOL0     H83927  -3.265   8.090   2.342  1.1288 -3.2355  3.5468
  636MOL0     H83928  -3.128   7.920   2.420  0.1069  2.8650 -1.0905
  636MOL0     H83929  -3.109   7.842   2.262  0.2936  1.1675 -2.2037
  636MOL0     H83930  -3.366   7.820   2.258  0.9846 -0.8379 -1.5491
  636MOL0     H83931  -3.277   7.711   2.367 -1.0235  0.4655  1.6825
  636MOL0     H83932  -3.493   7.805   2.457  0.4933 -0.3716 -2.6890
  636MOL0     H83933  -3.427   7.969   2.438  1.7744  1.3707 -0.9621
  636MOL0     H83934  -2.612   8.162   2.350  0.5577 -0.4533 -0.2408
  636MOL0     H83935  -2.399   8.210   2.427 -3.2216  0.4118  0.9566
  636MOL0     H83936  -1.906   8.076   2.318  1.6354  0.2396 -1.4780
  636MOL0     H83937  -1.682   8.117   2.404 -0.3819 -0.0183  1.3602
  636MOL0     H83938   0.159   7.928   2.741  0.6613 -1.2026 -0.1863
  636MOL0     H83939   0.374   7.928   2.654 -1.6264 -2.4188  2.0321
  636MOL0     H83940   0.682   8.077   2.395  1.4718  0.2300 -0.4319
  636MOL0     H83941   0.888   8.112   2.333 -0.2056  0.6771 -0.5220
  636MOL0     H83942   1.144   7.993   2.310  3.1710  1.6480  0.5766
  636MOL0     H83943   1.066   8.143   2.232 -3.1581 -0.5734 -4.1839
  636MOL0     H83944   1.288   7.980   2.095  0.8106  0.5093 -0.9058
  636MOL0     H83945   1.210   8.138   2.057  0.8298  0.5357 -0.8700
  636MOL0     H83946   1.440   8.162   2.159 -1.0358  0.7500 -0.6627
  636MOL0     H83947   1.380   8.058   2.298 -2.0464 -1.2141  0.0638
  636MOL0     H83948   1.257   8.261   2.382  0.9752 -1.1844 -0.1710
  636MOL0     H83949   1.414   8.325   2.342 -0.6650 -1.2030  3.1053
  636MOL0     H83950   1.157   8.506   2.054 -0.5089 -2.3020 -0.7390
  636MOL0     H83951   0.871   7.822   2.019 -0.4075 -1.4734  1.2107
  636MOL0     H83952   0.625   7.787   2.086 -0.9495 -0.8985  1.1971
  637MOL0     O83953   7.703   7.433   3.972  0.4230 -0.4253  0.6219
  637MOL0     C83954   7.717   7.546   3.925  0.9366  0.5653 -0.2219
  637MOL0     O83955   7.621   7.643   3.926 -0.0113  0.0236  0.2288
  637MOL0     C83956   7.517   7.634   4.022  0.0698  0.2718  0.6742
  637MOL0     C83957   7.516   7.555   4.143  0.0799  0.6878  0.0753
  637MOL0     C83958   7.408   7.566   4.228 -0.8838 -0.2161 -0.0196
  637MOL0     C83959   7.309   7.655   4.206  0.0739 -0.1583 -0.1762
  637MOL0     O83960   7.213   7.678   4.297 -0.3761 -0.2166 -0.2128
  637MOL0     C83961   7.257   7.706   4.429 -0.2343 -0.0239 -0.0623
  637MOL0     C83962   7.194   7.829   4.494  0.9943  0.1781  1.1432
  637MOL0     C83963   7.191   7.950   4.392  0.7416 -0.7931  0.1251
  637MOL0     C83964   7.145   8.084   4.464 -0.7892 -0.2194  0.3989
  637MOL0     C83965   7.255   8.139   4.568 -0.2424 -0.2257 -0.1045
  637MOL0     C83966   7.239   8.293   4.591  0.2029  0.1199 -0.0854
  637MOL0     C83967   7.127   8.347   4.679  0.1227 -0.2100 -1.1704
  637MOL0     C83968   7.160   8.335   4.834  0.5139  0.1484  0.2296
  637MOL0     N83969   7.032   8.332   4.908  0.8479 -0.5021 -0.5957
  637MOL0     C83970   7.000   8.231   4.999 -0.1475  0.3559  0.0261
  637MOL0     C83971   6.875   8.268   5.033 -0.3093  0.0049  0.0873
  637MOL0     C83972   6.789   8.193   5.135  1.2122 -0.2274  0.1405
  637MOL0     C83973   6.659   8.264   5.171 -0.2608  0.8112  0.7639
  637MOL0     C83974   6.575   8.185   5.271  0.9159 -0.6016  0.2829
  637MOL0     C83975   6.432   8.249   5.307 -0.5879  0.9835  1.1435
  637MOL0     O83976   6.436   8.369   5.383 -0.4969 -0.4116  0.3025
  637MOL0     C83977   6.321   8.426   5.432 -0.0026  0.1288 -0.2013
  637MOL0     C83978   6.185   8.406   5.386 -0.4135 -0.0302  0.1497
  637MOL0     C83979   6.077   8.458   5.462  0.1514 -0.0501  0.2228
  637MOL0     C83980   6.103   8.551   5.564 -0.0245 -0.0155 -0.1837
  637MOL0     C83981   5.990   8.614   5.639 -0.6652  0.5271  0.0675
  637MOL0     O83982   6.017   8.668   5.754  1.0231  0.2984  0.7361
  637MOL0     C83983   5.931   8.748   5.810  0.4178 -0.1092 -0.2119
  637MOL0     C83984   5.985   8.872   5.842  0.2719  0.4830 -0.9494
  637MOL0     C83985   5.911   8.961   5.920 -0.2288 -0.3047 -0.5818
  637MOL0     C83986   5.775   8.938   5.955 -1.1305  0.5715  0.1875
  637MOL0     O83987   5.689   9.027   6.020 -0.8033  0.6232  0.5341
  637MOL0     C83988   5.715   9.168   6.008  0.2923 -0.2810  0.6187
  637MOL0     C83989   5.623   9.257   6.087  0.9393 -0.8763  1.0623
  637MOL0     C83990   5.482   9.278   6.028  0.0856 -0.2096  0.2395
  637MOL0     C83991   5.384   9.362   6.109 -0.4814  0.0661  0.6483
  637MOL0     C83992   5.270   9.399   6.009  0.1987 -0.6386 -0.5141
  637MOL0     C83993   5.169   9.500   6.067  0.1670  0.3350 -1.0389
  637MOL0     C83994   5.228   9.640   6.058  1.2655 -0.0823 -0.0562
  637MOL0     C83995   5.193   9.726   5.934  0.5287 -0.7574  0.6681
  637MOL0    Cl83996   5.017   9.757   5.908 -0.1573  0.0020  0.0305
  637MOL0     C83997   5.716   8.815   5.914  0.1056  0.7924  0.5451
  637MOL0     C83998   5.798   8.717   5.850  0.1830 -0.9380  0.3534
  637MOL0     O83999   5.876   8.614   5.595  0.6443 -0.4572  0.4544
  637MOL0     C84000   6.233   8.574   5.605 -1.0065 -0.0347 -0.8251
  637MOL0     C84001   6.338   8.510   5.538  0.1464 -0.1822 -1.0615
  637MOL0     N84002   6.837   8.381   4.975  0.6649 -0.3235 -0.8053
  637MOL0     N84003   6.935   8.427   4.904 -0.0990 -0.5241 -0.0768
  637MOL0     C84004   7.299   7.728   4.086  0.2211  0.0760 -0.0307
  637MOL0     C84005   7.397   7.717   3.993 -0.0052 -0.4703  0.3043
  637MOL0     C84006   7.852   7.573   3.878  0.0266  0.6133 -0.6430
  637MOL0     C84007   7.892   7.705   3.854 -0.3960  0.5303  0.1216
  637MOL0     C84008   8.027   7.726   3.802  0.4723 -0.3882 -0.1673
  637MOL0     C84009   8.120   7.624   3.785 -0.1217 -0.0320 -0.0473
  637MOL0     O84010   8.253   7.641   3.750 -0.0425  0.7101 -0.4804
  637MOL0     C84011   8.304   7.771   3.739  0.4069 -0.1021  0.3566
  637MOL0     C84012   8.443   7.771   3.686  0.2239 -0.6022 -0.1360
  637MOL0     C84013   8.484   7.922   3.646 -0.0235 -0.2903 -0.2103
  637MOL0     C84014   8.634   7.938   3.613 -0.2274 -0.6108 -0.3117
  637MOL0     C84015   8.657   8.073   3.587 -0.9065 -0.1922  0.2855
  637MOL0     C84016   8.689   8.189   3.571 -0.1168  0.4261  0.2638
  637MOL0     C84017   8.083   7.496   3.826  0.1610 -0.3980 -0.3829
  637MOL0     C84018   7.949   7.473   3.872  0.2264  0.2244 -0.2597
  637MOL0     H84019   7.610   7.514   4.178  0.5826  2.3406  0.7591
  637MOL0     H84020   7.408   7.503   4.316  1.2519 -0.1650  0.0808
  637MOL0     H84021   7.367   7.707   4.431 -0.2270 -0.4899 -0.2020
  637MOL0     H84022   7.229   7.622   4.493  1.0971 -0.3051  0.1970
  637MOL0     H84023   7.261   7.860   4.575  1.0713  1.8070  0.4853
  637MOL0     H84024   7.095   7.802   4.531 -0.0047 -0.9101 -2.0037
  637MOL0     H84025   7.118   7.940   4.312  1.2616  1.6234 -0.7238
  637MOL0     H84026   7.293   7.967   4.356 -0.1900  1.5290 -1.6777
  637MOL0     H84027   7.133   8.150   4.378  2.6227 -1.4049 -1.1559
  637MOL0     H84028   7.049   8.075   4.516 -0.1009  2.4307  2.3837
  637MOL0     H84029   7.355   8.113   4.531 -1.7201 -1.5891 -3.6523
  637MOL0     H84030   7.232   8.088   4.662  0.4017 -0.3034  0.0170
  637MOL0     H84031   7.223   8.340   4.494 -1.6806  0.1599  0.2088
  637MOL0     H84032   7.331   8.319   4.644  0.6898 -0.9299 -0.3891
  637MOL0     H84033   7.112   8.449   4.643  1.3519  0.0911 -0.8692
  637MOL0     H84034   7.041   8.283   4.657 -3.7787  2.7837  3.5695
  637MOL0     H84035   7.221   8.418   4.871 -0.1576  1.3845 -1.3036
  637MOL0     H84036   7.212   8.240   4.844 -0.0599 -0.2179 -0.2499
  637MOL0     H84037   7.060   8.149   5.039 -1.3687  0.4200  2.1159
  637MOL0     H84038   6.834   8.166   5.231  0.2538 -0.7911  0.4379
  637MOL0     H84039   6.753   8.103   5.084 -3.9548  1.7823 -0.3176
  637MOL0     H84040   6.609   8.289   5.077  1.8630  2.4479 -0.0203
  637MOL0     H84041   6.669   8.365   5.214  1.1509  1.5610 -1.1780
  637MOL0     H84042   6.566   8.084   5.230 -0.8043 -0.2239 -0.3777
  637MOL0     H84043   6.636   8.184   5.362  3.4765  0.9043 -1.2932
  637MOL0     H84044   6.371   8.171   5.354 -0.7111  0.2809 -0.1193
  637MOL0     H84045   6.379   8.267   5.213  0.4571  0.6292  0.4736
  637MOL0     H84046   6.172   8.337   5.303  1.1414 -1.1890  0.8185
  637MOL0     H84047   5.980   8.422   5.430  0.7662 -1.3276 -0.2820
  637MOL0     H84048   6.092   8.893   5.840  0.7028 -1.2912  0.6638
  637MOL0     H84049   5.953   9.060   5.933 -1.9232  0.7110 -2.2742
  637MOL0     H84050   5.710   9.200   5.903 -0.6359 -0.9849  0.4375
  637MOL0     H84051   5.815   9.180   6.051 -0.3326  3.1710  1.4091
  637MOL0     H84052   5.668   9.356   6.096  0.0510 -0.5693  2.7156
  637MOL0     H84053   5.603   9.218   6.188 -2.0627  2.0867  1.8359
  637MOL0     H84054   5.452   9.173   6.018 -0.6050  0.1159 -1.5781
  637MOL0     H84055   5.492   9.316   5.926 -1.1262 -0.5086 -0.0074
  637MOL0     H84056   5.346   9.298   6.189 -0.7179 -0.4526  0.1282
  637MOL0     H84057   5.436   9.454   6.139 -0.7547  1.1773 -1.9898
  637MOL0     H84058   5.212   9.309   5.989  0.5260 -1.6361  2.5052
  637MOL0     H84059   5.318   9.437   5.918  1.4078  0.2114  0.4374
  637MOL0     H84060   5.157   9.475   6.172  2.8265  1.2496 -0.4452
  637MOL0     H84061   5.067   9.494   6.027 -0.4983 -1.0852  0.7257
  637MOL0     H84062   5.193   9.705   6.139  0.3775 -1.1426  0.4260
  637MOL0     H84063   5.337   9.644   6.073  1.0024  0.0131  2.2311
  637MOL0     H84064   5.228   9.665   5.849  0.5389 -0.1710  0.2421
  637MOL0     H84065   5.235   9.827   5.933 -0.4720 -0.3047 -1.3476
  637MOL0     H84066   5.613   8.790   5.940 -0.2820 -2.0558 -2.9491
  637MOL0     H84067   5.758   8.626   5.808 -3.2785  1.6448 -2.6063
  637MOL0     H84068   6.260   8.640   5.687  2.1756  0.1585 -1.8964
  637MOL0     H84069   6.438   8.521   5.578  0.1331 -3.6607  0.3024
  637MOL0     H84070   7.211   7.792   4.081  1.2654  1.4664 -1.1908
  637MOL0     H84071   7.406   7.775   3.901  0.7187 -0.2213  0.5224
  637MOL0     H84072   7.818   7.781   3.877  0.0787  0.5780  1.6168
  637MOL0     H84073   8.051   7.824   3.762 -1.6311  0.7469  1.1589
  637MOL0     H84074   8.288   7.829   3.830  1.3275  2.7278 -1.1791
  637MOL0     H84075   8.247   7.834   3.671  0.7105  1.5143  1.5533
  637MOL0     H84076   8.507   7.740   3.769  1.4689 -1.2813 -1.3131
  637MOL0     H84077   8.446   7.699   3.603 -2.3635  1.2398 -2.0231
  637MOL0     H84078   8.453   7.993   3.723 -0.6278 -0.1540 -0.5822
  637MOL0     H84079   8.426   7.959   3.561 -0.8313  1.7039  1.1311
  637MOL0     H84080   8.687   7.899   3.701 -1.9479 -0.8931  0.6538
  637MOL0     H84081   8.657   7.875   3.527  0.0634 -0.7725 -0.1170
  637MOL0     H84082   8.735   8.286   3.580  1.2704 -0.3333  2.2776
  637MOL0     H84083   8.155   7.415   3.828  1.7249  0.9269  1.9265
  637MOL0     H84084   7.916   7.375   3.904  0.7978  0.2960  0.5886
  638MOL0     O84085   4.921   0.797   2.666 -0.0585  0.8365  0.3726
  638MOL0     C84086   5.014   0.870   2.634  0.3584  0.5927 -0.6518
  638MOL0     O84087   5.006   0.987   2.563 -0.6950 -0.0794 -0.1336
  638MOL0     C84088   4.882   1.018   2.516  0.2170 -0.1692  0.4568
  638MOL0     C84089   4.868   1.031   2.374 -0.5134  0.4375  0.6369
  638MOL0     C84090   4.741   1.066   2.319 -0.4510  0.1656  0.3623
  638MOL0     C84091   4.635   1.092   2.402  0.1135 -0.0155  0.0190
  638MOL0     O84092   4.503   1.113   2.367 -0.5520 -0.2779 -0.4113
  638MOL0     C84093   4.458   1.094   2.232 -0.2543  0.0953 -0.6981
  638MOL0     C84094   4.315   1.155   2.214 -0.3663  0.4509 -0.7201
  638MOL0     C84095   4.317   1.302   2.210  0.3843  0.1247  0.2533
  638MOL0     C84096   4.179   1.354   2.173 -0.0580 -0.1489  0.7464
  638MOL0     C84097   4.144   1.498   2.226 -1.0042 -0.4144 -0.6050
  638MOL0     C84098   4.001   1.513   2.219 -0.8160  0.5788 -0.4538
  638MOL0     C84099   3.953   1.644   2.276 -0.8635  0.5715 -0.2961
  638MOL0     C84100   3.803   1.669   2.235  0.7692 -0.2688 -0.6680
  638MOL0     N84101   3.732   1.792   2.273 -0.1419 -0.9782 -0.3107
  638MOL0     C84102   3.598   1.813   2.298  0.2841  0.1660  0.0212
  638MOL0     C84103   3.581   1.939   2.337 -0.5288 -0.2383 -0.1749
  638MOL0     C84104   3.457   2.009   2.380 -0.1586  0.2260 -1.0397
  638MOL0     C84105   3.332   1.920   2.337  0.5582  0.0501 -0.7096
  638MOL0     C84106   3.209   1.993   2.378 -0.1802 -0.4001  0.3366
  638MOL0     C84107   3.086   1.905   2.341 -0.0080  0.6198  0.9558
  638MOL0     O84108   2.957   1.970   2.370  0.4156  0.3620  0.1324
  638MOL0     C84109   2.837   1.896   2.356  0.3728 -0.8885 -0.3124
  638MOL0     C84110   2.717   1.957   2.363 -0.6914 -0.8025 -0.4889
  638MOL0     C84111   2.594   1.900   2.319 -0.7891  0.2800 -0.0614
  638MOL0     C84112   2.585   1.768   2.278 -0.2511  0.8697 -0.1426
  638MOL0     C84113   2.453   1.698   2.232  0.8974 -0.8419 -0.9817
  638MOL0     O84114   2.455   1.561   2.219  0.3234  0.2988 -0.2686
  638MOL0     C84115   2.359   1.502   2.153 -0.0300 -0.2485 -0.3879
  638MOL0     C84116   2.380   1.457   2.024 -0.4244 -0.4153  0.4400
  638MOL0     C84117   2.270   1.381   1.966  0.6625  0.1152 -0.4726
  638MOL0     C84118   2.148   1.359   2.036 -0.2501 -0.6075  0.2229
  638MOL0     O84119   2.041   1.289   1.976 -0.4037 -0.3816  0.2485
  638MOL0     C84120   2.072   1.150   1.962  0.2412  0.3345 -0.1702
  638MOL0     C84121   1.950   1.068   1.921  0.2073  0.5871  0.0563
  638MOL0     C84122   1.991   0.923   1.899 -0.1221  0.3427  0.4597
  638MOL0     C84123   1.883   0.839   1.830  0.1715 -0.0290 -0.0489
  638MOL0     C84124   1.887   0.690   1.848 -0.2037 -0.5003  0.5204
  638MOL0     C84125   1.757   0.654   1.769 -0.4461 -0.0556  0.6022
  638MOL0     C84126   1.710   0.513   1.771  0.2584  0.7822 -0.1026
  638MOL0     C84127   1.615   0.463   1.670  0.2844 -0.2985 -0.0626
  638MOL0    Cl84128   1.468   0.579   1.664 -0.1125 -0.3639  0.0799
  638MOL0     C84129   2.127   1.417   2.165 -0.2270 -0.3560 -0.0815
  638MOL0     C84130   2.238   1.481   2.220  0.3423  0.6658  0.1808
  638MOL0     O84131   2.360   1.769   2.188  0.0865  0.2822 -0.5620
  638MOL0     C84132   2.705   1.694   2.291 -0.4132 -0.0313 -0.0015
  638MOL0     C84133   2.823   1.761   2.322 -0.2821 -0.1039 -0.4514
  638MOL0     N84134   3.701   2.006   2.333  0.3917 -0.0237  0.7267
  638MOL0     N84135   3.791   1.915   2.296  0.7171  0.6531  0.1689
  638MOL0     C84136   4.648   1.079   2.540 -0.4191 -0.7041 -0.3841
  638MOL0     C84137   4.772   1.050   2.596  0.9058  0.2836 -0.1219
  638MOL0     C84138   5.148   0.834   2.687  0.2542 -0.1311 -0.1972
  638MOL0     C84139   5.265   0.878   2.633 -0.9678  0.4347  0.4045
  638MOL0     C84140   5.397   0.830   2.675  0.5514 -0.0224  0.3642
  638MOL0     C84141   5.409   0.750   2.782 -0.0218  0.8929 -0.0103
  638MOL0     O84142   5.528   0.708   2.825 -0.1985  0.0429  0.2464
  638MOL0     C84143   5.649   0.747   2.755  0.5589  0.0809 -0.1270
  638MOL0     C84144   5.768   0.673   2.822  0.2751  0.1265 -0.8517
  638MOL0     C84145   5.891   0.726   2.768 -0.0861 -0.3465  0.4074
  638MOL0     C84146   6.015   0.648   2.808 -0.2937 -0.4775  0.3814
  638MOL0     C84147   6.138   0.667   2.729 -0.4507 -0.0500  0.0101
  638MOL0     C84148   6.236   0.680   2.658  0.2675 -0.4227  0.5746
  638MOL0     C84149   5.294   0.710   2.843  0.3004 -0.0760 -0.3852
  638MOL0     C84150   5.161   0.751   2.800  0.2958  0.6441 -0.1408
  638MOL0     H84151   4.961   1.016   2.320 -0.8094  3.2172 -0.8195
  638MOL0     H84152   4.732   1.083   2.213 -1.3856 -4.3717 -0.5137
  638MOL0     H84153   4.454   0.987   2.207  2.8304 -0.1063 -0.6491
  638MOL0     H84154   4.520   1.140   2.155 -0.6471 -0.4898 -1.3880
  638MOL0     H84155   4.256   1.108   2.294  1.8901  0.4409  1.0371
  638MOL0     H84156   4.277   1.109   2.123  1.3875 -1.2967 -0.6347
  638MOL0     H84157   4.388   1.343   2.138  0.7326  2.7580  1.9608
  638MOL0     H84158   4.335   1.347   2.308  2.2304 -2.2946  1.1030
  638MOL0     H84159   4.180   1.356   2.063  2.4519  0.0180  0.7168
  638MOL0     H84160   4.103   1.280   2.199  0.9165 -0.7010  2.1324
  638MOL0     H84161   4.196   1.577   2.171 -1.5491 -1.5458 -2.8984
  638MOL0     H84162   4.177   1.508   2.330 -2.3161 -3.4724  0.2376
  638MOL0     H84163   3.939   1.431   2.256 -0.9845  0.4257 -1.0598
  638MOL0     H84164   3.976   1.508   2.112  0.7807  0.7063 -0.8467
  638MOL0     H84165   3.959   1.651   2.385  2.1150  1.5279 -0.4308
  638MOL0     H84166   4.017   1.725   2.239 -0.5921  0.6297  0.2890
  638MOL0     H84167   3.748   1.583   2.275 -1.5211  1.4971  0.1595
  638MOL0     H84168   3.791   1.649   2.128  2.7066 -2.1583 -0.6024
  638MOL0     H84169   3.520   1.739   2.281 -0.9966  0.8835  2.2778
  638MOL0     H84170   3.447   2.110   2.337 -1.3684  0.7913  0.4912
  638MOL0     H84171   3.463   2.016   2.489 -1.9656 -1.3085 -0.7899
  638MOL0     H84172   3.326   1.830   2.399 -0.2344 -1.3261 -2.6856
  638MOL0     H84173   3.323   1.894   2.231  0.0391 -1.5444 -0.3077
  638MOL0     H84174   3.211   2.008   2.486  3.1721 -1.4223  0.5123
  638MOL0     H84175   3.198   2.086   2.321  1.2855  0.0155  0.6963
  638MOL0     H84176   3.085   1.804   2.383 -1.4450 -0.8087 -2.1987
  638MOL0     H84177   3.084   1.883   2.234 -1.5091 -1.6406  1.3633
  638MOL0     H84178   2.719   2.050   2.419  0.1766 -1.5836  0.8267
  638MOL0     H84179   2.507   1.964   2.325 -1.0132  0.0537 -0.7868
  638MOL0     H84180   2.468   1.456   1.960 -1.2497 -0.0860 -0.7488
  638MOL0     H84181   2.275   1.326   1.873  1.0412 -2.4240  0.9793
  638MOL0     H84182   2.098   1.116   2.063  1.7543 -5.0386 -2.0070
  638MOL0     H84183   2.164   1.124   1.909 -0.5934 -1.5939 -0.7440
  638MOL0     H84184   1.916   1.108   1.825 -2.3703 -1.6222 -0.0549
  638MOL0     H84185   1.869   1.085   1.992 -0.2391 -2.1018  0.2911
  638MOL0     H84186   2.008   0.862   1.988 -0.3684 -0.1747  0.1561
  638MOL0     H84187   2.080   0.923   1.836  0.5447 -2.2095  1.2772
  638MOL0     H84188   1.785   0.875   1.862  0.2173 -0.2066  0.3074
  638MOL0     H84189   1.895   0.854   1.723 -1.6418  0.1982 -0.2446
  638MOL0     H84190   1.896   0.651   1.950 -0.1713  1.4703  1.3085
  638MOL0     H84191   1.967   0.662   1.779  1.5163 -0.5124  2.4167
  638MOL0     H84192   1.771   0.682   1.664 -1.7747  2.3259  0.9761
  638MOL0     H84193   1.670   0.715   1.798 -0.4721  0.2113 -0.0223
  638MOL0     H84194   1.798   0.447   1.773 -0.4827 -0.2240  0.3098
  638MOL0     H84195   1.662   0.508   1.869  1.8393  3.1705  0.8894
  638MOL0     H84196   1.589   0.361   1.700 -0.5557  0.0671  0.4996
  638MOL0     H84197   1.664   0.458   1.573 -0.4706  1.8922 -0.6244
  638MOL0     H84198   2.042   1.385   2.223  0.6485 -0.9440  0.9185
  638MOL0     H84199   2.247   1.518   2.321  2.2554 -0.2483  0.3938
  638MOL0     H84200   2.709   1.588   2.269 -1.3546  0.2951 -1.9096
  638MOL0     H84201   2.919   1.711   2.323  2.2552  4.1922  0.2288
  638MOL0     H84202   4.568   1.096   2.611 -0.1990  0.0155 -0.3022
  638MOL0     H84203   4.781   1.059   2.704 -1.1195  0.1606  0.0991
  638MOL0     H84204   5.263   0.949   2.550 -0.1476 -2.0111 -1.8285
  638MOL0     H84205   5.478   0.881   2.623 -0.6669  0.0145 -1.6243
  638MOL0     H84206   5.667   0.853   2.771  4.9813 -0.7638  1.9551
  638MOL0     H84207   5.654   0.721   2.649  1.6299 -3.1570  0.6029
  638MOL0     H84208   5.767   0.696   2.929  1.3219  0.6642 -0.9427
  638MOL0     H84209   5.756   0.566   2.800 -0.8748  0.0141  0.1841
  638MOL0     H84210   5.905   0.830   2.801  0.6283 -0.0513 -0.7709
  638MOL0     H84211   5.877   0.730   2.660 -2.4002  1.5706  0.6856
  638MOL0     H84212   6.026   0.663   2.916 -2.7278  3.3735  0.3021
  638MOL0     H84213   5.984   0.543   2.799 -1.9549  0.1488 -3.3815
  638MOL0     H84214   6.329   0.693   2.606 -0.1691  0.5709  0.0073
  638MOL0     H84215   5.313   0.642   2.926  3.0399  1.2532  0.2028
  638MOL0     H84216   5.073   0.712   2.850 -0.2916 -0.8611 -2.2118
  639MOL0     O84217   1.944   6.351   2.831 -0.3609  0.4613 -0.4116
  639MOL0     C84218   1.995   6.342   2.723 -0.8586  0.3277 -0.2645
  639MOL0     O84219   1.928   6.358   2.606 -0.3103 -0.0662  0.9273
  639MOL0     C84220   1.791   6.371   2.609  0.4229  0.2543 -0.4121
  639MOL0     C84221   1.712   6.254   2.592  0.2840  0.1795  0.3860
  639MOL0     C84222   1.578   6.252   2.611  0.3682 -0.4076 -0.8528
  639MOL0     C84223   1.515   6.369   2.660  0.4872  1.0174  0.1767
  639MOL0     O84224   1.380   6.352   2.688 -0.7522 -0.0333 -0.2906
  639MOL0     C84225   1.317   6.450   2.765  0.1132  0.6309 -0.6056
  639MOL0     C84226   1.166   6.412   2.774 -0.7588 -0.0978 -0.6987
  639MOL0     C84227   1.111   6.383   2.636  0.0846  0.3325  0.4581
  639MOL0     C84228   0.960   6.374   2.641  0.0587 -0.1632  0.1463
  639MOL0     C84229   0.897   6.357   2.505  0.0423  1.0227 -0.3964
  639MOL0     C84230   0.740   6.364   2.516 -0.2892  0.7951 -0.4109
  639MOL0     C84231   0.681   6.401   2.375 -0.6689  0.3834  0.4930
  639MOL0     C84232   0.542   6.465   2.390 -0.4475 -0.3948 -0.2983
  639MOL0     N84233   0.464   6.370   2.469  0.2924  0.5493  0.2849
  639MOL0     C84234   0.386   6.272   2.417 -0.2281 -0.2401  0.1397
  639MOL0     C84235   0.302   6.236   2.520  0.0339 -0.3783  0.6318
  639MOL0     C84236   0.199   6.122   2.517 -0.4535  0.5212  0.0036
  639MOL0     C84237   0.058   6.143   2.456 -0.2742 -0.0284 -0.4343
  639MOL0     C84238  -0.005   6.262   2.528  0.2412 -0.3642 -0.3237
  639MOL0     C84239  -0.144   6.293   2.472 -0.0855 -0.0493  0.3292
  639MOL0     O84240  -0.240   6.195   2.497 -0.2014 -0.0415 -0.6074
  639MOL0     C84241  -0.366   6.215   2.453 -0.5184  1.0616 -0.4912
  639MOL0     C84242  -0.464   6.219   2.547  1.2052  0.0144 -0.1965
  639MOL0     C84243  -0.596   6.229   2.510  0.5814  0.2376 -0.4214
  639MOL0     C84244  -0.630   6.253   2.374  0.5854  0.7171  0.8194
  639MOL0     C84245  -0.776   6.270   2.339 -0.7286 -0.1941  0.0380
  639MOL0     O84246  -0.868   6.290   2.444  0.0409 -0.0106  0.8295
  639MOL0     C84247  -0.993   6.351   2.438 -0.8818  0.9476  0.2791
  639MOL0     C84248  -1.055   6.397   2.322  0.2986 -1.0853 -0.3830
  639MOL0     C84249  -1.182   6.455   2.335 -0.9566 -0.3037 -0.5272
  639MOL0     C84250  -1.248   6.465   2.454  0.2352  0.0575 -0.1656
  639MOL0     O84251  -1.375   6.523   2.458  0.6396 -0.7564  0.0204
  639MOL0     C84252  -1.434   6.575   2.577  0.7112 -0.5437 -0.1405
  639MOL0     C84253  -1.572   6.632   2.521 -0.8266 -0.3941  0.0789
  639MOL0     C84254  -1.668   6.530   2.442  0.3556  0.0133  0.2261
  639MOL0     C84255  -1.824   6.573   2.437 -0.7075 -0.0611  0.5883
  639MOL0     C84256  -1.909   6.565   2.562  0.6153  0.1602  0.7916
  639MOL0     C84257  -2.060   6.593   2.544 -0.7062  0.1628  0.1218
  639MOL0     C84258  -2.119   6.637   2.684 -0.2814 -0.1901 -0.6466
  639MOL0     C84259  -2.235   6.737   2.683 -0.1457 -0.7253  0.6239
  639MOL0    Cl84260  -2.393   6.663   2.639 -0.0225 -0.0387 -0.0493
  639MOL0     C84261  -1.182   6.419   2.569 -0.1359 -0.5971  0.5206
  639MOL0     C84262  -1.062   6.353   2.558 -0.1337  0.1746 -0.2830
  639MOL0     O84263  -0.797   6.298   2.222 -0.0338  0.3689 -0.1656
  639MOL0     C84264  -0.530   6.239   2.281 -0.2654  0.2558  0.7454
  639MOL0     C84265  -0.403   6.214   2.321 -0.1009  0.4633  0.2421
  639MOL0     N84266   0.329   6.309   2.630  0.3705  0.4230 -0.6532
  639MOL0     N84267   0.420   6.394   2.600 -0.0599 -0.0973 -0.3256
  639MOL0     C84268   1.583   6.490   2.673  0.1384  0.3314  1.0066
  639MOL0     C84269   1.724   6.492   2.647  0.0952  0.0749 -1.1162
  639MOL0     C84270   2.138   6.308   2.720 -0.8862  0.0208 -0.6523
  639MOL0     C84271   2.224   6.330   2.831 -0.7423 -0.1198 -0.4114
  639MOL0     C84272   2.363   6.310   2.819  0.0492  0.0844 -0.2836
  639MOL0     C84273   2.417   6.246   2.708  0.0000 -0.9055 -0.3463
  639MOL0     O84274   2.550   6.239   2.712 -0.1192  0.2511  0.2951
  639MOL0     C84275   2.604   6.178   2.591 -0.7087  0.0938 -0.9655
  639MOL0     C84276   2.753   6.174   2.584 -0.4070 -0.5312 -1.0034
  639MOL0     C84277   2.821   6.127   2.713  0.1724  0.3878 -0.3578
  639MOL0     C84278   2.972   6.138   2.715  0.1219 -0.3080  0.7808
  639MOL0     C84279   3.041   6.147   2.850 -0.5836  0.3092  0.7292
  639MOL0     C84280   3.084   6.160   2.964 -0.2631  0.0962 -1.1953
  639MOL0     C84281   2.330   6.212   2.604 -0.0940 -0.0608 -0.3901
  639MOL0     C84282   2.194   6.241   2.607 -1.2725 -0.0345  0.9237
  639MOL0     H84283   1.757   6.166   2.548 -2.1501 -2.0574  2.1065
  639MOL0     H84284   1.523   6.165   2.577 -2.2026  1.2975 -1.3133
  639MOL0     H84285   1.330   6.542   2.707 -0.2903 -0.2906 -2.2250
  639MOL0     H84286   1.362   6.464   2.863 -1.6589  0.5911  0.2401
  639MOL0     H84287   1.120   6.497   2.826 -0.0559  1.5483 -2.6165
  639MOL0     H84288   1.158   6.322   2.836 -0.5388 -0.4078 -1.1126
  639MOL0     H84289   1.157   6.295   2.592 -0.5187 -0.2654  1.0123
  639MOL0     H84290   1.145   6.463   2.569 -0.5802 -0.2585 -0.6065
  639MOL0     H84291   0.926   6.300   2.714 -0.2822 -0.5268 -0.3792
  639MOL0     H84292   0.931   6.475   2.674  2.5369  0.3951  0.8120
  639MOL0     H84293   0.932   6.264   2.460 -2.9966 -0.0731 -0.7461
  639MOL0     H84294   0.934   6.434   2.436 -2.8634  3.7106  0.8081
  639MOL0     H84295   0.721   6.446   2.585  0.6992 -0.4240  1.3889
  639MOL0     H84296   0.692   6.273   2.554 -0.4285  1.6361  1.5322
  639MOL0     H84297   0.745   6.477   2.331 -0.4076  1.7317  2.9956
  639MOL0     H84298   0.675   6.311   2.313  0.3783  0.0447  0.8609
  639MOL0     H84299   0.495   6.480   2.293 -0.2500  2.5106 -0.0407
  639MOL0     H84300   0.553   6.560   2.444 -3.4764  1.2591 -2.3025
  639MOL0     H84301   0.398   6.248   2.312  1.5217  1.3413 -0.0725
  639MOL0     H84302   0.187   6.091   2.621  2.5056  0.9761  0.5409
  639MOL0     H84303   0.242   6.042   2.456  0.8945 -0.2828  1.9205
  639MOL0     H84304   0.002   6.051   2.470 -1.7668  0.9746  0.4202
  639MOL0     H84305   0.065   6.164   2.349  1.7439 -1.3151 -0.6294
  639MOL0     H84306  -0.009   6.252   2.637  2.5166  1.4178 -0.0119
  639MOL0     H84307   0.055   6.350   2.505 -0.8411 -0.1364 -2.5946
  639MOL0     H84308  -0.123   6.313   2.366  2.1097 -1.5055  0.4145
  639MOL0     H84309  -0.176   6.382   2.526 -0.9794  0.0125 -0.2672
  639MOL0     H84310  -0.437   6.214   2.652 -2.0203 -1.3117  0.6691
  639MOL0     H84311  -0.666   6.225   2.593  2.3053  0.7456  1.1267
  639MOL0     H84312  -1.013   6.392   2.222 -2.6725 -0.4039 -1.7863
  639MOL0     H84313  -1.222   6.504   2.247 -2.6653  0.3478  0.5549
  639MOL0     H84314  -1.382   6.650   2.638 -0.8994 -1.3155  2.3289
  639MOL0     H84315  -1.468   6.494   2.642 -4.2911  0.6045 -0.9087
  639MOL0     H84316  -1.558   6.718   2.455 -0.3896 -2.0046 -2.0269
  639MOL0     H84317  -1.634   6.655   2.609  0.6669 -1.7811  1.5838
  639MOL0     H84318  -1.683   6.433   2.489 -0.3390  1.2981  2.8188
  639MOL0     H84319  -1.633   6.512   2.340  2.8937 -0.3432  1.0831
  639MOL0     H84320  -1.834   6.676   2.399 -1.5321  0.2496  1.5886
  639MOL0     H84321  -1.856   6.497   2.365  2.1237 -0.8293  0.0433
  639MOL0     H84322  -1.865   6.646   2.621  0.4377  0.7379  0.1321
  639MOL0     H84323  -1.896   6.469   2.614  0.4273 -1.3766 -1.8425
  639MOL0     H84324  -2.115   6.513   2.494 -0.7101  0.7257 -0.7990
  639MOL0     H84325  -2.066   6.680   2.478  0.7965  1.5199  1.6755
  639MOL0     H84326  -2.141   6.543   2.735  2.1550 -0.2510  0.4319
  639MOL0     H84327  -2.043   6.680   2.750 -0.5077 -1.1011  0.2278
  639MOL0     H84328  -2.223   6.807   2.599 -1.4954 -1.8929 -0.6084
  639MOL0     H84329  -2.228   6.786   2.780  0.0333  1.7115 -0.5469
  639MOL0     H84330  -1.230   6.432   2.665 -3.0266  3.6962 -1.2176
  639MOL0     H84331  -1.016   6.313   2.647 -0.5655  1.1538  0.3988
  639MOL0     H84332  -0.542   6.229   2.174  1.9629 -1.1402  0.5689
  639MOL0     H84333  -0.327   6.192   2.247 -0.3518 -1.2032  0.4440
  639MOL0     H84334   1.543   6.586   2.703  2.2610  1.4417  0.4262
  639MOL0     H84335   1.779   6.584   2.668 -0.4956  0.0100  0.9860
  639MOL0     H84336   2.189   6.386   2.918  1.3494 -0.5034  0.7425
  639MOL0     H84337   2.417   6.331   2.911  1.8310 -2.5569 -0.6300
  639MOL0     H84338   2.557   6.220   2.502 -2.2007 -1.3169 -0.8978
  639MOL0     H84339   2.573   6.074   2.605  1.0774 -0.1651  1.9985
  639MOL0     H84340   2.779   6.113   2.498  0.0209  1.0013 -1.9895
  639MOL0     H84341   2.777   6.279   2.565  2.6134 -0.7469  0.9345
  639MOL0     H84342   2.788   6.028   2.745 -2.1066  1.9815  2.7965
  639MOL0     H84343   2.790   6.206   2.783 -0.8630 -2.1629  2.2635
  639MOL0     H84344   2.997   6.039   2.675 -0.1319 -0.2648  0.5087
  639MOL0     H84345   3.011   6.212   2.644 -0.8762  0.3093  0.8727
  639MOL0     H84346   3.118   6.164   3.066  0.6965  0.6577 -1.5260
  639MOL0     H84347   2.357   6.168   2.509 -1.8961 -2.7016  0.2167
  639MOL0     H84348   2.124   6.204   2.533 -2.3416 -0.1378  1.9509
  640MOL0     O84349   9.846   7.395   1.721  0.0085 -1.0289 -0.7739
  640MOL0     C84350   9.888   7.417   1.609 -0.7397  0.0447 -1.7956
  640MOL0     O84351   9.818   7.418   1.494  0.1539  0.0888  0.2740
  640MOL0     C84352   9.690   7.453   1.504  0.1284  0.3030  0.2190
  640MOL0     C84353   9.587   7.360   1.521 -0.0816 -0.6044 -0.1427
  640MOL0     C84354   9.452   7.410   1.531  0.2799 -0.6927  0.4157
  640MOL0     C84355   9.423   7.545   1.535 -0.9218  0.0326 -0.3490
  640MOL0     O84356   9.307   7.612   1.550 -0.1595  0.0699 -0.1387
  640MOL0     C84357   9.176   7.547   1.540  0.1393  0.0631 -0.0588
  640MOL0     C84358   9.075   7.661   1.516  0.6650 -0.6596  0.7087
  640MOL0     C84359   8.932   7.653   1.586  0.5176 -0.2022 -0.5249
  640MOL0     C84360   8.818   7.724   1.502 -0.2372 -0.4142  0.2544
  640MOL0     C84361   8.682   7.696   1.559  0.1687  0.3244  0.8491
  640MOL0     C84362   8.648   7.762   1.694 -0.7229  0.4977 -0.4276
  640MOL0     C84363   8.500   7.735   1.752 -0.0705 -0.4665  0.4566
  640MOL0     C84364   8.468   7.777   1.897 -0.5843 -0.1596  0.4392
  640MOL0     N84365   8.325   7.742   1.923 -0.4887 -0.4421  0.2005
  640MOL0     C84366   8.280   7.669   2.030  0.5213  0.1442 -0.7389
  640MOL0     C84367   8.150   7.641   2.004 -0.0530 -0.2073  0.7060
  640MOL0     C84368   8.061   7.568   2.097 -0.0060  0.0260  0.1535
  640MOL0     C84369   8.091   7.419   2.083  1.1498  0.3069  0.2258
  640MOL0     C84370   8.035   7.380   1.945  0.2160 -0.4187 -0.9642
  640MOL0     C84371   8.044   7.224   1.936  0.1533  0.5812  1.0318
  640MOL0     O84372   8.017   7.172   1.799 -0.7875  0.3468 -0.3586
  640MOL0     C84373   7.898   7.202   1.737 -0.1187 -0.1102 -0.1529
  640MOL0     C84374   7.898   7.197   1.597  0.5763 -0.3498 -0.2615
  640MOL0     C84375   7.782   7.204   1.519  0.5966  0.4262 -0.5654
  640MOL0     C84376   7.656   7.223   1.583  0.2738  0.5576 -0.1862
  640MOL0     C84377   7.528   7.229   1.499  0.4472  0.5551  0.1269
  640MOL0     O84378   7.402   7.217   1.559 -0.3204 -0.0958  0.3704
  640MOL0     C84379   7.286   7.238   1.497 -0.3272 -1.1369 -0.1918
  640MOL0     C84380   7.171   7.194   1.567  0.6327  0.2506  0.7965
  640MOL0     C84381   7.032   7.215   1.516 -0.0650 -0.4777  0.3807
  640MOL0     C84382   7.009   7.299   1.404 -0.6214 -0.3112  0.4843
  640MOL0     O84383   6.886   7.342   1.354  0.2706  0.2090  0.3610
  640MOL0     C84384   6.772   7.267   1.396  0.0911  1.1358 -0.0707
  640MOL0     C84385   6.655   7.301   1.303 -0.7577 -0.1768  0.3629
  640MOL0     C84386   6.533   7.206   1.324  0.1580 -0.1755  0.6772
  640MOL0     C84387   6.445   7.252   1.441 -0.1526 -0.5732  0.1430
  640MOL0     C84388   6.325   7.158   1.449  0.1335  0.3416  0.0252
  640MOL0     C84389   6.212   7.217   1.357  0.2898  0.0816  0.5378
  640MOL0     C84390   6.089   7.131   1.338 -0.6274  0.8567 -0.9609
  640MOL0     C84391   6.060   7.055   1.467  0.1677 -0.0813 -0.1164
  640MOL0    Cl84392   5.927   6.943   1.450  0.4813 -0.1544 -0.1857
  640MOL0     C84393   7.122   7.358   1.341 -0.3201  0.6999  0.2286
  640MOL0     C84394   7.255   7.321   1.389 -0.0522  0.8687 -0.9567
  640MOL0     O84395   7.542   7.253   1.378 -0.1545 -0.6296  0.4875
  640MOL0     C84396   7.657   7.214   1.726 -0.1756 -0.7163 -0.0645
  640MOL0     C84397   7.778   7.207   1.804  0.1002 -1.2465  0.3049
  640MOL0     N84398   8.106   7.714   1.889 -0.1432 -0.8403  0.3430
  640MOL0     N84399   8.221   7.768   1.845  0.2751  0.1178  0.3830
  640MOL0     C84400   9.528   7.633   1.509  0.7627  0.2992  0.4797
  640MOL0     C84401   9.660   7.587   1.489  0.0719  0.0339  0.6073
  640MOL0     C84402  10.036   7.416   1.601 -0.3124 -0.1827 -0.6055
  640MOL0     C84403  10.129   7.358   1.690 -0.0047  0.2333 -0.1822
  640MOL0     C84404  10.269   7.362   1.671 -0.5592  0.2806 -0.0298
  640MOL0     C84405  10.318   7.428   1.560 -0.5707 -0.1917  0.1404
  640MOL0     O84406  10.452   7.419   1.515 -0.1101 -0.8405  0.2013
  640MOL0     C84407  10.545   7.342   1.590  0.4694  0.0350  0.4079
  640MOL0     C84408  10.680   7.370   1.524 -1.0741 -0.7902 -0.1550
  640MOL0     C84409  10.685   7.297   1.390 -0.4739  0.0640 -0.6886
  640MOL0     C84410  10.814   7.326   1.310 -0.0117 -0.4791  0.2465
  640MOL0     C84411  10.808   7.253   1.177 -0.7683  0.3247 -0.1957
  640MOL0     C84412  10.761   7.206   1.072 -0.4552  0.2040  0.0551
  640MOL0     C84413  10.223   7.485   1.471  0.2585 -0.0596 -0.8314
  640MOL0     C84414  10.088   7.477   1.494  0.6026  0.1399  0.5383
  640MOL0     H84415   9.610   7.254   1.521  0.8839 -0.4352 -1.6557
  640MOL0     H84416   9.367   7.347   1.556 -0.1363 -0.1741  0.3071
  640MOL0     H84417   9.151   7.493   1.632  1.1768 -0.7024 -0.2166
  640MOL0     H84418   9.161   7.475   1.459  2.0164  1.4820 -1.7593
  640MOL0     H84419   9.054   7.669   1.409 -2.3465 -0.6172  1.2053
  640MOL0     H84420   9.119   7.757   1.545 -0.0599 -0.4476  1.1294
  640MOL0     H84421   8.928   7.697   1.686 -0.9631  0.5749 -0.9064
  640MOL0     H84422   8.897   7.549   1.583 -1.3950  0.4116 -0.8674
  640MOL0     H84423   8.833   7.831   1.487  1.6068 -0.5563  0.8799
  640MOL0     H84424   8.825   7.682   1.401  1.9631 -2.5682  1.2129
  640MOL0     H84425   8.670   7.587   1.560 -0.0397  0.3270 -0.3844
  640MOL0     H84426   8.600   7.737   1.499 -0.1364 -0.4042  0.7536
  640MOL0     H84427   8.664   7.870   1.696  0.5085  0.3632  2.7360
  640MOL0     H84428   8.703   7.719   1.778 -0.0492  3.6606  0.9021
  640MOL0     H84429   8.424   7.777   1.685 -2.8720 -1.9478  2.4972
  640MOL0     H84430   8.474   7.629   1.744  0.9098 -0.5947 -1.8570
  640MOL0     H84431   8.476   7.886   1.911 -1.0407 -0.3319  2.4570
  640MOL0     H84432   8.529   7.725   1.972 -0.0544  2.7203  2.1726
  640MOL0     H84433   8.346   7.637   2.110  1.1255  3.1686  0.0921
  640MOL0     H84434   7.959   7.604   2.084 -0.4250 -1.7770 -2.0787
  640MOL0     H84435   8.084   7.582   2.203 -1.7866  0.4839  0.5098
  640MOL0     H84436   8.043   7.367   2.166  0.7794  0.8683  0.3745
  640MOL0     H84437   8.196   7.389   2.087  0.8604 -0.9637 -0.8174
  640MOL0     H84438   7.933   7.411   1.923 -0.0413 -0.9640 -0.5496
  640MOL0     H84439   8.099   7.414   1.863  0.6777 -0.9517 -0.8299
  640MOL0     H84440   7.985   7.185   2.020 -0.6220  1.8904  1.1232
  640MOL0     H84441   8.147   7.199   1.961 -0.5103 -0.0929  3.2716
  640MOL0     H84442   7.999   7.180   1.562  1.1916  0.2978  1.1084
  640MOL0     H84443   7.783   7.181   1.413  0.7668 -1.1276 -0.2496
  640MOL0     H84444   7.194   7.133   1.653 -0.4651 -1.9293 -0.3734
  640MOL0     H84445   6.950   7.178   1.575 -0.7348  0.2837 -0.0466
  640MOL0     H84446   6.745   7.284   1.500 -0.5930 -0.9271  0.1402
  640MOL0     H84447   6.802   7.162   1.398  0.1003  1.0716 -1.8848
  640MOL0     H84448   6.683   7.285   1.199  1.7127 -3.7639  1.3829
  640MOL0     H84449   6.628   7.406   1.314 -0.1806  0.2826 -2.1699
  640MOL0     H84450   6.560   7.100   1.332  1.4007  0.0256 -0.6295
  640MOL0     H84451   6.461   7.204   1.242 -0.7309  0.1413  1.4275
  640MOL0     H84452   6.501   7.239   1.534  0.5378 -1.7638 -0.4154
  640MOL0     H84453   6.420   7.359   1.439  2.7633  0.2045  0.7093
  640MOL0     H84454   6.291   7.149   1.553  1.0211  0.3414  0.3177
  640MOL0     H84455   6.346   7.054   1.423 -0.7321  0.5212 -1.4899
  640MOL0     H84456   6.254   7.232   1.258 -0.3037  1.5808  0.4753
  640MOL0     H84457   6.183   7.315   1.396 -0.2847  0.5097 -0.9312
  640MOL0     H84458   6.002   7.191   1.311 -0.0340  2.0708 -0.2604
  640MOL0     H84459   6.108   7.062   1.255 -1.3275 -0.8754  0.2449
  640MOL0     H84460   6.039   7.116   1.556 -1.5792  0.2839 -0.7372
  640MOL0     H84461   6.142   6.991   1.500 -0.8038 -0.5068  1.5863
  640MOL0     H84462   7.107   7.424   1.256 -2.5524 -1.2505 -1.0311
  640MOL0     H84463   7.338   7.368   1.338 -1.6890  1.4657 -3.1985
  640MOL0     H84464   7.563   7.205   1.780  0.4875 -1.7553  0.9636
  640MOL0     H84465   7.770   7.200   1.912 -0.3417  2.1789  0.6051
  640MOL0     H84466   9.509   7.740   1.502  0.9834  0.2653 -1.1187
  640MOL0     H84467   9.735   7.662   1.466  1.8496 -2.0990 -1.0370
  640MOL0     H84468  10.109   7.318   1.789  1.8301  0.3184  0.2689
  640MOL0     H84469  10.321   7.319   1.756 -1.8099  1.3832  1.3509
  640MOL0     H84470  10.519   7.236   1.585  0.2011  0.0339  1.5291
  640MOL0     H84471  10.547   7.374   1.694  3.0438  1.3643  0.0159
  640MOL0     H84472  10.678   7.479   1.515  0.1706 -0.8052 -0.7917
  640MOL0     H84473  10.771   7.346   1.578 -0.3703  0.7311 -0.5961
  640MOL0     H84474  10.598   7.329   1.333 -0.8790 -0.7687 -0.5603
  640MOL0     H84475  10.683   7.187   1.394  1.2361 -0.1351 -3.1089
  640MOL0     H84476  10.806   7.432   1.285  1.7689 -0.1397  0.9825
  640MOL0     H84477  10.914   7.304   1.348  1.0251 -1.9340 -2.9913
  640MOL0     H84478  10.726   7.165   0.980 -0.7613  2.4686 -0.8819
  640MOL0     H84479  10.261   7.534   1.382  1.5396  0.6194  0.0468
  640MOL0     H84480  10.027   7.520   1.415  1.8766 -1.5602 -1.4801
  641MOL0     O84481   2.565   0.212   8.361  0.7277 -0.1615 -0.0912
  641MOL0     C84482   2.549   0.317   8.419  0.3920  0.2734 -0.3156
  641MOL0     O84483   2.438   0.391   8.432  0.2949 -0.5576 -0.2884
  641MOL0     C84484   2.307   0.347   8.405  0.2722 -0.4578  0.2069
  641MOL0     C84485   2.201   0.444   8.403  0.1006  0.3868 -0.0893
  641MOL0     C84486   2.068   0.402   8.362 -0.3349  0.1222 -0.4145
  641MOL0     C84487   2.037   0.271   8.331 -0.3037 -0.2230 -0.3491
  641MOL0     O84488   1.902   0.255   8.292 -0.5397  0.4971 -0.5765
  641MOL0     C84489   1.844   0.128   8.300  0.0708  0.0169  0.2062
  641MOL0     C84490   1.684   0.125   8.294 -0.3821 -0.0997  0.3245
  641MOL0     C84491   1.637  -0.018   8.315 -0.3855 -0.5793 -0.4569
  641MOL0     C84492   1.497  -0.014   8.360  0.6489 -0.7484 -0.3401
  641MOL0     C84493   1.433  -0.162   8.373 -0.8063 -0.5535  0.2171
  641MOL0     C84494   1.523  -0.276   8.416 -0.9064  0.5402  0.2040
  641MOL0     C84495   1.450  -0.409   8.444 -0.4694 -0.4387  1.1784
  641MOL0     C84496   1.547  -0.530   8.468  0.6134  0.2875 -0.8480
  641MOL0     N84497   1.503  -0.622   8.571  0.7576 -0.3817  0.0139
  641MOL0     C84498   1.583  -0.668   8.663  0.1351 -0.6307 -0.5479
  641MOL0     C84499   1.499  -0.718   8.754  0.3741  0.5045  0.6920
  641MOL0     C84500   1.541  -0.771   8.892  0.5236 -0.5667  0.4042
  641MOL0     C84501   1.491  -0.912   8.916 -0.8093 -0.0707  0.2019
  641MOL0     C84502   1.566  -1.021   8.837 -0.1189 -0.0062  0.0722
  641MOL0     C84503   1.690  -1.062   8.904  0.3488  0.4945 -0.0400
  641MOL0     O84504   1.777  -0.958   8.941  0.3457 -0.4874 -0.4817
  641MOL0     C84505   1.903  -0.980   8.998  0.2641  0.3757 -0.5736
  641MOL0     C84506   1.957  -1.103   9.038  0.0102 -0.1925  0.6854
  641MOL0     C84507   2.081  -1.108   9.098  0.0706  0.1772 -0.1585
  641MOL0     C84508   2.157  -0.998   9.122 -0.1282 -0.4060  0.5327
  641MOL0     C84509   2.292  -1.008   9.185  0.1575  0.6449 -0.0907
  641MOL0     O84510   2.340  -1.134   9.197 -0.3194 -0.3372 -0.3398
  641MOL0     C84511   2.460  -1.155   9.258 -1.1747 -0.2678  0.1181
  641MOL0     C84512   2.564  -1.225   9.195  1.3116  0.0477  0.7244
  641MOL0     C84513   2.673  -1.275   9.271 -0.5145 -0.1843  0.0351
  641MOL0     C84514   2.682  -1.269   9.409 -0.0738 -0.0562  0.2307
  641MOL0     O84515   2.789  -1.330   9.470 -0.1162 -0.0101  0.2495
  641MOL0     C84516   2.813  -1.302   9.609 -0.1235  0.5476  0.1862
  641MOL0     C84517   2.939  -1.389   9.649  0.6771  0.0663 -0.0883
  641MOL0     C84518   3.071  -1.330   9.596  0.2899 -0.0381 -0.2039
  641MOL0     C84519   3.191  -1.423   9.631 -0.5780 -0.4673  0.2084
  641MOL0     C84520   3.233  -1.435   9.780  0.4509  0.6990  0.5120
  641MOL0     C84521   3.333  -1.325   9.838  0.8115  0.6563  0.4819
  641MOL0     C84522   3.418  -1.369   9.958  0.0314  0.5559  0.6219
  641MOL0     C84523   3.543  -1.294   9.972 -0.6306  0.2603  0.0360
  641MOL0    Cl84524   3.641  -1.321  10.124  0.3006  0.3762 -0.2720
  641MOL0     C84525   2.578  -1.191   9.466  0.5228 -0.1218  0.4352
  641MOL0     C84526   2.476  -1.127   9.397 -0.7472  0.0502  0.2604
  641MOL0     O84527   2.350  -0.906   9.211  0.8245 -0.8952 -0.1224
  641MOL0     C84528   2.104  -0.875   9.086  0.4329 -0.3548  0.3620
  641MOL0     C84529   1.977  -0.865   9.030  0.1389 -0.0501 -0.8375
  641MOL0     N84530   1.368  -0.695   8.716  0.7779 -0.0502 -0.9751
  641MOL0     N84531   1.372  -0.648   8.602  0.5033 -0.7121  0.5911
  641MOL0     C84532   2.139   0.175   8.341 -0.2022 -0.5448  0.2945
  641MOL0     C84533   2.269   0.208   8.377  0.0594  0.1477  0.1392
  641MOL0     C84534   2.668   0.372   8.492 -0.0926 -0.8604  0.2752
  641MOL0     C84535   2.661   0.496   8.557  0.2790  0.0745 -0.7904
  641MOL0     C84536   2.776   0.545   8.621  0.4399  0.3511 -0.0877
  641MOL0     C84537   2.898   0.471   8.629  0.5011 -0.1249  0.3325
  641MOL0     O84538   3.016   0.511   8.692 -0.0351 -0.0585 -0.5502
  641MOL0     C84539   3.000   0.597   8.811  0.1446  0.7388 -0.3185
  641MOL0     C84540   3.131   0.572   8.893  0.4843 -0.1210 -1.4452
  641MOL0     C84541   3.224   0.693   8.867 -0.6563 -0.4334 -0.6703
  641MOL0     C84542   3.358   0.657   8.939  0.0232  0.3474  0.0487
  641MOL0     C84543   3.466   0.743   8.891 -0.2166  0.0046  0.2931
  641MOL0     C84544   3.553   0.819   8.842 -0.4741  0.0517 -0.1965
  641MOL0     C84545   2.899   0.355   8.562  0.4497  0.2779  0.0061
  641MOL0     C84546   2.787   0.299   8.502  0.2045  0.8521  0.7508
  641MOL0     H84547   2.218   0.548   8.429 -1.1546  0.9319 -1.2975
  641MOL0     H84548   1.978   0.463   8.360 -0.3965  0.0943 -3.7913
  641MOL0     H84549   1.880   0.093   8.397  1.2477  1.3572  0.2830
  641MOL0     H84550   1.878   0.060   8.222 -1.1697 -2.8600  2.0273
  641MOL0     H84551   1.646   0.147   8.194 -1.7763 -0.3073  0.7887
  641MOL0     H84552   1.649   0.201   8.365  0.8487 -0.2168  1.0913
  641MOL0     H84553   1.694  -0.071   8.392  1.5204  2.2347  0.2533
  641MOL0     H84554   1.646  -0.080   8.226  0.3614  0.9631 -1.4957
  641MOL0     H84555   1.487   0.034   8.458 -2.5733  4.0210 -2.6319
  641MOL0     H84556   1.441   0.057   8.299  1.7101  1.6275  1.2701
  641MOL0     H84557   1.396  -0.180   8.272  2.4656  2.0235 -1.6461
  641MOL0     H84558   1.354  -0.170   8.448 -0.7955 -0.5755  0.2260
  641MOL0     H84559   1.594  -0.260   8.498  0.8016 -0.3015 -1.0481
  641MOL0     H84560   1.584  -0.293   8.327  0.0307  3.4822  0.1746
  641MOL0     H84561   1.380  -0.394   8.527 -2.3947  1.2478 -0.6505
  641MOL0     H84562   1.383  -0.449   8.367  1.1461 -0.9642  0.0025
  641MOL0     H84563   1.643  -0.493   8.505 -0.6509  1.7068  1.2506
  641MOL0     H84564   1.561  -0.585   8.375 -1.4063  1.0149 -1.6454
  641MOL0     H84565   1.690  -0.654   8.669  0.0608 -0.6844  3.8190
  641MOL0     H84566   1.488  -0.706   8.963  0.4339  0.0111 -0.1810
  641MOL0     H84567   1.649  -0.755   8.899  0.1388  1.8683  2.1471
  641MOL0     H84568   1.385  -0.921   8.892 -0.2698  0.3467 -2.6218
  641MOL0     H84569   1.501  -0.934   9.023 -2.2741 -1.6814  0.0520
  641MOL0     H84570   1.501  -1.109   8.841  0.7845 -0.6245  2.0338
  641MOL0     H84571   1.586  -0.994   8.732  1.6526 -0.0938  0.3558
  641MOL0     H84572   1.741  -1.133   8.840 -0.3076  1.2624 -1.4681
  641MOL0     H84573   1.676  -1.111   9.001 -1.3726  0.8714 -0.0634
  641MOL0     H84574   1.901  -1.196   9.043 -1.9946  0.9055 -0.0694
  641MOL0     H84575   2.108  -1.211   9.121 -1.8745 -0.9414 -2.4667
  641MOL0     H84576   2.546  -1.270   9.098 -0.5862 -2.5663  2.1818
  641MOL0     H84577   2.758  -1.327   9.226  0.6576  0.0406  1.8693
  641MOL0     H84578   2.720  -1.326   9.661 -0.2539 -0.5546 -0.4947
  641MOL0     H84579   2.834  -1.197   9.628  0.2945  0.4802  0.1087
  641MOL0     H84580   2.918  -1.488   9.609 -1.3193  0.4113 -0.0073
  641MOL0     H84581   2.937  -1.391   9.758  2.2554 -3.0871 -0.0158
  641MOL0     H84582   3.095  -1.231   9.634 -2.6139 -0.3533  3.0282
  641MOL0     H84583   3.055  -1.321   9.489 -0.9920  1.9685  0.1181
  641MOL0     H84584   3.171  -1.524   9.593 -0.8844 -0.2793 -0.1321
  641MOL0     H84585   3.281  -1.386   9.581  0.4121 -0.6448  1.7814
  641MOL0     H84586   3.291  -1.527   9.788  0.7924  0.8819  0.1538
  641MOL0     H84587   3.145  -1.443   9.845  0.5977 -0.6155  0.5810
  641MOL0     H84588   3.277  -1.237   9.871 -1.5403 -1.1540  1.5595
  641MOL0     H84589   3.404  -1.302   9.758  0.7219 -1.0249 -0.1189
  641MOL0     H84590   3.361  -1.347  10.049  1.8417 -0.8585  2.1914
  641MOL0     H84591   3.439  -1.476   9.952  0.5291  0.7336 -2.4962
  641MOL0     H84592   3.522  -1.186   9.966 -2.3127 -0.0246  0.3093
  641MOL0     H84593   3.607  -1.321   9.888 -0.0560  0.5557  0.3699
  641MOL0     H84594   2.576  -1.179   9.574 -3.1892 -0.7667  0.5471
  641MOL0     H84595   2.396  -1.073   9.448  0.5081  2.4519 -0.1453
  641MOL0     H84596   2.157  -0.781   9.098 -1.4336  0.9874 -1.1994
  641MOL0     H84597   1.945  -0.764   9.007 -1.3942 -0.5252 -0.9200
  641MOL0     H84598   2.126   0.068   8.329  2.9518 -1.0020 -0.0184
  641MOL0     H84599   2.345   0.132   8.394  1.0803  1.0377 -0.2980
  641MOL0     H84600   2.571   0.557   8.550 -0.6482 -0.7241  2.3015
  641MOL0     H84601   2.784   0.646   8.660  2.3328  0.1198  0.2175
  641MOL0     H84602   2.906   0.564   8.855  1.3982 -1.3355  0.9879
  641MOL0     H84603   2.985   0.702   8.782  0.2370  0.7207 -0.4335
  641MOL0     H84604   3.108   0.569   9.000 -0.9388 -1.9392 -1.7516
  641MOL0     H84605   3.168   0.475   8.857 -1.8518 -1.0375 -1.5433
  641MOL0     H84606   3.179   0.780   8.915 -0.0078 -1.1062  1.2350
  641MOL0     H84607   3.245   0.717   8.762 -0.4497 -0.9472 -0.7485
  641MOL0     H84608   3.349   0.666   9.048  2.7701  1.3992  0.2752
  641MOL0     H84609   3.392   0.554   8.927  2.7228  1.2086 -0.4551
  641MOL0     H84610   3.634   0.879   8.805 -0.1683  1.0630  1.9106
  641MOL0     H84611   2.997   0.308   8.559  0.7929  0.8287  1.8439
  641MOL0     H84612   2.788   0.202   8.454 -1.6413  1.5842 -0.8958
  642MOL0     O84613   0.214   6.137   3.027 -0.5518 -0.3177 -0.3679
  642MOL0     C84614   0.287   6.060   3.081 -0.2569 -0.5756 -0.9757
  642MOL0     O84615   0.296   6.033   3.217  0.7701  0.6143 -0.0264
  642MOL0     C84616   0.193   6.080   3.296 -0.6218 -0.6246 -0.6350
  642MOL0     C84617   0.132   6.203   3.311 -0.0139 -0.1463 -0.1814
  642MOL0     C84618   0.028   6.225   3.396 -0.2830  0.0539 -0.0137
  642MOL0     C84619  -0.001   6.125   3.493 -0.1341  0.3727  0.9545
  642MOL0     O84620  -0.091   6.162   3.589 -0.0368 -0.5593 -0.4790
  642MOL0     C84621  -0.123   6.075   3.694 -0.9579 -0.1155 -0.6476
  642MOL0     C84622  -0.240   6.126   3.766 -0.6717  0.4454  0.0627
  642MOL0     C84623  -0.278   6.049   3.890 -0.4937  0.1867  0.1086
  642MOL0     C84624  -0.387   6.116   3.969 -0.2523 -0.7486 -0.4349
  642MOL0     C84625  -0.516   6.044   3.931  0.3875 -0.2704 -0.6716
  642MOL0     C84626  -0.635   6.118   3.992  1.1358  0.7555 -0.1390
  642MOL0     C84627  -0.756   6.032   4.004 -0.8022  0.2436  0.0943
  642MOL0     C84628  -0.869   6.111   4.070 -0.6389  0.0265  0.5642
  642MOL0     N84629  -0.995   6.037   4.059  0.1198 -0.4089 -0.7259
  642MOL0     C84630  -1.080   6.040   3.952 -0.3299 -0.2455 -0.8265
  642MOL0     C84631  -1.180   5.952   3.987 -0.2798 -0.6730 -0.1873
  642MOL0     C84632  -1.293   5.896   3.909  0.9282  0.1621 -0.1362
  642MOL0     C84633  -1.251   5.851   3.766  0.7262  0.2945 -0.4760
  642MOL0     C84634  -1.139   5.737   3.755 -0.5523 -0.0223  0.5782
  642MOL0     C84635  -1.094   5.714   3.605 -0.2564  0.3997 -0.1958
  642MOL0     O84636  -0.994   5.605   3.599  0.2894  0.6076  0.4355
  642MOL0     C84637  -0.867   5.647   3.594 -0.5794  0.2914 -0.6088
  642MOL0     C84638  -0.825   5.774   3.647 -0.0048 -0.4153 -0.6627
  642MOL0     C84639  -0.683   5.798   3.650  0.4115 -0.6343 -0.0908
  642MOL0     C84640  -0.595   5.699   3.598 -0.2331 -0.5473  0.1655
  642MOL0     C84641  -0.446   5.727   3.601  0.2803 -0.1071 -0.1987
  642MOL0     O84642  -0.358   5.614   3.576  0.5607 -0.8366  0.4579
  642MOL0     C84643  -0.223   5.638   3.564 -0.1751  0.1742 -0.2041
  642MOL0     C84644  -0.155   5.570   3.460 -0.0698 -0.2950 -0.5110
  642MOL0     C84645  -0.020   5.566   3.440 -0.2043  0.0661 -0.6024
  642MOL0     C84646   0.063   5.622   3.540 -0.4115  1.1611  0.2187
  642MOL0     O84647   0.196   5.600   3.522 -0.2820 -0.9408  0.3152
  642MOL0     C84648   0.295   5.674   3.600  0.7899 -0.0946 -0.2040
  642MOL0     C84649   0.425   5.673   3.526  0.6171  0.5334 -0.7866
  642MOL0     C84650   0.541   5.772   3.563  0.2945  0.4496  0.9237
  642MOL0     C84651   0.516   5.904   3.485  0.0721 -0.5907 -0.6719
  642MOL0     C84652   0.633   6.004   3.502 -0.5895 -0.8542 -0.2970
  642MOL0     C84653   0.772   5.975   3.430 -0.0011  0.5156  0.2446
  642MOL0     C84654   0.848   5.861   3.494 -0.3308  0.0688  0.2929
  642MOL0     C84655   0.996   5.883   3.448  0.0581  0.0282 -0.9054
  642MOL0    Cl84656   1.064   6.031   3.519  0.2066 -0.1068  0.0565
  642MOL0     C84657   0.005   5.693   3.645 -0.1039 -0.4437 -0.2191
  642MOL0     C84658  -0.135   5.694   3.661 -0.1894  0.3247 -0.5348
  642MOL0     O84659  -0.407   5.843   3.620  0.1143 -0.5766 -0.1741
  642MOL0     C84660  -0.638   5.582   3.546  0.4850 -0.1222 -0.2234
  642MOL0     C84661  -0.774   5.555   3.546 -0.0407 -0.1528  1.5379
  642MOL0     N84662  -1.150   5.899   4.113  0.1192 -0.8959 -0.3227
  642MOL0     N84663  -1.042   5.951   4.158 -0.5515  0.1173 -0.2817
  642MOL0     C84664   0.059   6.000   3.480 -0.1830  0.1004  0.4368
  642MOL0     C84665   0.155   5.984   3.381  1.0460  0.0209 -0.5194
  642MOL0     C84666   0.396   6.006   3.002 -0.4781 -0.8713  0.3014
  642MOL0     C84667   0.420   6.060   2.878  0.2801 -0.7642  0.4821
  642MOL0     C84668   0.540   6.026   2.801 -0.1174 -0.7743 -0.1779
  642MOL0     C84669   0.631   5.935   2.857  0.3907  0.0596 -0.4420
  642MOL0     O84670   0.761   5.913   2.813 -0.3987  0.4194  0.3663
  642MOL0     C84671   0.813   6.010   2.720  0.1227  0.4983 -0.0432
  642MOL0     C84672   0.961   5.991   2.697  0.7256 -0.1863 -0.7147
  642MOL0     C84673   1.035   5.994   2.830 -0.4344  0.4156  0.6031
  642MOL0     C84674   1.182   6.010   2.804 -0.2675  0.1882 -0.4731
  642MOL0     C84675   1.239   5.887   2.736  0.0765 -0.5657 -0.0023
  642MOL0     C84676   1.304   5.793   2.692  0.1780  0.8961 -0.0052
  642MOL0     C84677   0.597   5.881   2.984 -0.0535  0.8182 -0.2488
  642MOL0     C84678   0.489   5.921   3.055  0.1094  0.5462 -0.4468
  642MOL0     H84679   0.167   6.290   3.257  2.0916 -0.8297 -0.0253
  642MOL0     H84680  -0.016   6.324   3.403 -0.1904  0.0248  1.1775
  642MOL0     H84681  -0.037   6.087   3.761 -2.2857  1.4721  0.8598
  642MOL0     H84682  -0.133   5.972   3.661 -1.7546  0.1944 -1.4054
  642MOL0     H84683  -0.321   6.132   3.693 -0.5364  3.3453  0.0137
  642MOL0     H84684  -0.222   6.228   3.803 -1.4676  0.1824  1.2072
  642MOL0     H84685  -0.184   6.054   3.946 -0.3340  0.5979 -0.1841
  642MOL0     H84686  -0.299   5.945   3.866  0.6971  0.5086 -2.7562
  642MOL0     H84687  -0.363   6.122   4.075  0.1870 -2.3306 -0.4151
  642MOL0     H84688  -0.393   6.221   3.939  0.5700 -0.4137  0.5220
  642MOL0     H84689  -0.515   5.943   3.973 -1.4228 -0.7941 -1.7806
  642MOL0     H84690  -0.520   6.037   3.822 -1.7148  0.6315 -0.7035
  642MOL0     H84691  -0.664   6.205   3.932 -2.9199 -0.5187 -0.2707
  642MOL0     H84692  -0.597   6.147   4.091  0.2217  1.2712  0.0744
  642MOL0     H84693  -0.784   6.008   3.901 -1.1091  2.1121 -0.2812
  642MOL0     H84694  -0.729   5.943   4.062  0.4105 -0.5934 -1.6667
  642MOL0     H84695  -0.868   6.207   4.018  0.9204 -0.1125  0.2887
  642MOL0     H84696  -0.850   6.141   4.174  0.8744  0.3951  0.2091
  642MOL0     H84697  -1.067   6.090   3.857  2.4155  1.2614  0.2279
  642MOL0     H84698  -1.377   5.965   3.903  0.5936 -0.2613 -0.3786
  642MOL0     H84699  -1.333   5.807   3.958 -1.1919  1.0693 -0.1349
  642MOL0     H84700  -1.220   5.942   3.715 -0.3547  1.2396  0.4910
  642MOL0     H84701  -1.342   5.818   3.716  0.0805  0.9832  0.2242
  642MOL0     H84702  -1.053   5.759   3.819 -0.6467  1.4568  0.2112
  642MOL0     H84703  -1.172   5.638   3.788  0.0235 -1.6727 -3.2135
  642MOL0     H84704  -1.053   5.805   3.559 -3.1225  1.3460 -1.1151
  642MOL0     H84705  -1.176   5.685   3.538  2.1208  0.5324 -3.4289
  642MOL0     H84706  -0.901   5.839   3.690 -0.2856  0.1497 -1.9501
  642MOL0     H84707  -0.642   5.880   3.708  0.2277 -0.9393  0.4843
  642MOL0     H84708  -0.219   5.526   3.385 -2.1269  1.7635 -0.0922
  642MOL0     H84709   0.025   5.515   3.355  1.2754 -0.2735  0.3570
  642MOL0     H84710   0.307   5.633   3.701  0.1702  0.7198  0.2143
  642MOL0     H84711   0.266   5.778   3.621 -0.9588 -1.0005  2.4338
  642MOL0     H84712   0.398   5.690   3.421  0.1517  0.4817 -0.6796
  642MOL0     H84713   0.469   5.576   3.550 -0.1809  0.4168  0.2938
  642MOL0     H84714   0.633   5.718   3.536 -1.2608 -2.3405  0.8645
  642MOL0     H84715   0.545   5.792   3.671 -0.3175 -0.2122  1.0750
  642MOL0     H84716   0.498   5.884   3.379  0.7240 -0.4636 -0.8147
  642MOL0     H84717   0.420   5.942   3.520  1.3628  0.9848  1.4866
  642MOL0     H84718   0.656   6.020   3.607  1.9110 -0.6221 -0.8047
  642MOL0     H84719   0.600   6.094   3.449  0.7837  0.7112  1.3515
  642MOL0     H84720   0.830   6.068   3.435  0.3986  0.2087  2.2755
  642MOL0     H84721   0.755   5.951   3.325 -1.1228 -2.3465  0.9676
  642MOL0     H84722   0.840   5.865   3.603 -1.9385 -2.4689  0.3411
  642MOL0     H84723   0.824   5.758   3.466  0.2760 -0.1261  0.4752
  642MOL0     H84724   0.987   5.889   3.339 -2.4804  0.4629 -0.7167
  642MOL0     H84725   1.063   5.800   3.474  1.3260  0.5297 -2.4387
  642MOL0     H84726   0.068   5.730   3.724 -1.1933 -1.9777  1.4526
  642MOL0     H84727  -0.172   5.740   3.752  2.7306  1.1282  0.3415
  642MOL0     H84728  -0.568   5.506   3.514  2.1612  1.5732 -0.8240
  642MOL0     H84729  -0.808   5.463   3.501  0.8560 -1.3709  3.2504
  642MOL0     H84730   0.040   5.917   3.547 -0.4649 -0.4237 -0.2917
  642MOL0     H84731   0.197   5.885   3.368 -0.5563 -0.6906 -0.4992
  642MOL0     H84732   0.334   6.109   2.834 -0.0607  0.7529  2.7133
  642MOL0     H84733   0.555   6.074   2.705  0.7474  0.7124  0.6700
  642MOL0     H84734   0.781   6.111   2.746 -2.8732  0.0975 -1.6484
  642MOL0     H84735   0.765   5.993   2.623 -0.2369 -0.4487  0.2836
  642MOL0     H84736   0.970   5.891   2.655  2.4668 -0.4827  0.2919
  642MOL0     H84737   0.998   6.070   2.632 -1.1720 -0.0252 -1.6717
  642MOL0     H84738   1.010   5.904   2.887  0.7611 -0.6513 -0.4911
  642MOL0     H84739   0.989   6.074   2.889 -1.5430 -0.5995  1.1619
  642MOL0     H84740   1.203   6.099   2.744  0.3294  1.1034  1.0244
  642MOL0     H84741   1.232   6.018   2.901 -2.7183  0.6458  0.8540
  642MOL0     H84742   1.361   5.715   2.645  1.8951  2.7980 -1.2624
  642MOL0     H84743   0.665   5.811   3.031 -3.4796 -1.6443  1.4779
  642MOL0     H84744   0.489   5.877   3.154  2.0693  1.2769 -0.0783
  643MOL0     O84745   6.996   6.506   4.940 -0.6379 -0.0873  0.6754
  643MOL0     C84746   7.061   6.443   4.860  0.4688 -0.5369  1.1828
  643MOL0     O84747   6.996   6.357   4.776 -0.3678  0.8495 -0.0519
  643MOL0     C84748   6.864   6.354   4.761 -0.0421  0.0624  0.0766
  643MOL0     C84749   6.777   6.462   4.736  0.0200  0.4281 -0.5536
  643MOL0     C84750   6.641   6.444   4.739 -0.2492 -0.6141  0.3426
  643MOL0     C84751   6.583   6.318   4.760  0.1653 -0.6840  0.3978
  643MOL0     O84752   6.444   6.290   4.752 -0.7781  0.0392  0.6906
  643MOL0     C84753   6.353   6.403   4.763 -0.2230  0.9323 -1.0143
  643MOL0     C84754   6.225   6.341   4.823 -0.5145 -0.5176 -0.1764
  643MOL0     C84755   6.166   6.238   4.729  0.0218  0.6492 -0.1302
  643MOL0     C84756   6.031   6.201   4.779  0.3277 -0.6059 -0.8166
  643MOL0     C84757   5.974   6.085   4.697 -0.0265 -0.2044  1.1572
  643MOL0     C84758   5.823   6.049   4.743 -0.2612  0.1822 -0.2516
  643MOL0     C84759   5.785   5.913   4.691  0.9367 -0.1444 -0.1516
  643MOL0     C84760   5.644   5.865   4.737  0.7992 -0.2100 -0.4569
  643MOL0     N84761   5.650   5.804   4.874 -0.2906 -0.5053  0.3668
  643MOL0     C84762   5.661   5.876   4.992  0.5469  0.2770  1.1995
  643MOL0     C84763   5.709   5.780   5.078  0.6331  1.2186  0.0521
  643MOL0     C84764   5.723   5.793   5.228 -0.1930  0.3743  0.7778
  643MOL0     C84765   5.860   5.849   5.260 -0.1208  0.6685 -0.1458
  643MOL0     C84766   5.881   5.867   5.404  0.6352  0.1570  0.5298
  643MOL0     C84767   6.009   5.952   5.428 -0.3985 -0.5049 -0.7977
  643MOL0     O84768   6.121   5.868   5.383  0.0840 -0.0744 -0.4616
  643MOL0     C84769   6.243   5.879   5.438 -0.4470  1.0163 -0.1683
  643MOL0     C84770   6.293   5.983   5.522 -0.5985 -0.0496  0.5522
  643MOL0     C84771   6.429   5.987   5.561  0.5484 -0.5829 -0.2149
  643MOL0     C84772   6.530   5.883   5.522 -0.1100  0.1324  0.0493
  643MOL0     C84773   6.668   5.895   5.573  0.7007  0.4541 -0.3342
  643MOL0     O84774   6.746   5.792   5.518 -0.4068 -0.3904 -0.7141
  643MOL0     C84775   6.882   5.808   5.525 -0.3981 -0.1536  0.2764
  643MOL0     C84776   6.954   5.877   5.438 -0.0760  0.0099  0.8495
  643MOL0     C84777   7.094   5.886   5.450  0.2361  0.1982 -0.0262
  643MOL0     C84778   7.165   5.824   5.549  0.2856  0.5341  0.5674
  643MOL0     O84779   7.302   5.830   5.547 -0.7503  0.3261  0.1772
  643MOL0     C84780   7.375   5.946   5.493  0.6428 -0.0069  0.6416
  643MOL0     C84781   7.510   5.917   5.541  0.1124 -0.0381 -0.1411
  643MOL0     C84782   7.606   6.029   5.494 -0.0350  0.4947 -0.5978
  643MOL0     C84783   7.741   6.029   5.565 -0.2092  0.2976  0.9466
  643MOL0     C84784   7.816   6.141   5.497 -0.0914  0.6234  0.7250
  643MOL0     C84785   7.936   6.201   5.577 -0.0113  0.4144 -0.2237
  643MOL0     C84786   8.054   6.094   5.601  0.2832 -0.5835  0.4607
  643MOL0     C84787   8.156   6.092   5.480 -0.2148  0.9237  0.1533
  643MOL0    Cl84788   8.242   6.244   5.476  0.5020  0.0319 -0.0679
  643MOL0     C84789   7.093   5.746   5.639 -0.1930  0.2754  0.0473
  643MOL0     C84790   6.954   5.739   5.626 -0.2097 -0.3772  1.0294
  643MOL0     O84791   6.710   5.987   5.644  0.7582  0.8558 -0.1154
  643MOL0     C84792   6.474   5.782   5.443  0.7451 -0.6323  0.1681
  643MOL0     C84793   6.337   5.781   5.404  0.1648  0.6406 -0.0625
  643MOL0     N84794   5.754   5.667   5.010  0.2665  0.1630  0.0356
  643MOL0     N84795   5.707   5.681   4.891 -0.1292  0.4046 -0.0804
  643MOL0     C84796   6.669   6.214   4.761  0.1059  0.0836 -0.3272
  643MOL0     C84797   6.811   6.226   4.771  0.4827 -0.1937  0.9135
  643MOL0     C84798   7.202   6.468   4.843  0.2235  0.0602 -0.8300
  643MOL0     C84799   7.262   6.472   4.722 -0.0987 -0.4342 -0.0804
  643MOL0     C84800   7.399   6.498   4.703  0.0541 -0.1265 -0.4183
  643MOL0     C84801   7.483   6.517   4.812 -0.2731  0.0691  0.0103
  643MOL0     O84802   7.618   6.529   4.789 -0.3208  0.4474 -0.5512
  643MOL0     C84803   7.692   6.428   4.844 -0.2955  0.2310  0.0160
  643MOL0     C84804   7.798   6.360   4.756 -0.0425 -0.6898  0.2265
  643MOL0     C84805   7.904   6.452   4.706 -0.8242 -0.0049 -0.1529
  643MOL0     C84806   8.029   6.384   4.628  0.7191 -0.5700 -1.4961
  643MOL0     C84807   8.120   6.318   4.721 -1.2781  0.0022 -0.7098
  643MOL0     C84808   8.200   6.258   4.793  0.0647 -0.6135 -0.2997
  643MOL0     C84809   7.419   6.538   4.939  0.2566  0.2643 -0.2792
  643MOL0     C84810   7.279   6.513   4.951 -0.2373 -0.8421 -0.4591
  643MOL0     H84811   6.823   6.560   4.725  3.9528 -1.2210 -0.6327
  643MOL0     H84812   6.576   6.531   4.732  1.2291  0.4076 -2.4871
  643MOL0     H84813   6.328   6.450   4.667 -2.4180 -0.1503 -1.0367
  643MOL0     H84814   6.386   6.481   4.832 -1.5285  1.5790 -1.0845
  643MOL0     H84815   6.155   6.424   4.839  1.8001  1.2839  1.4106
  643MOL0     H84816   6.249   6.281   4.911  1.6991  0.8565  0.2663
  643MOL0     H84817   6.239   6.159   4.712  1.7166  2.5918 -2.5797
  643MOL0     H84818   6.145   6.277   4.629  1.1573  1.2080 -0.1664
  643MOL0     H84819   6.028   6.163   4.881  1.1163 -0.6422 -0.8042
  643MOL0     H84820   5.964   6.288   4.777  0.0291 -0.7825  0.8810
  643MOL0     H84821   6.036   6.000   4.726  2.9202  0.4841 -2.3885
  643MOL0     H84822   5.989   6.092   4.589  1.4725 -3.0983  1.0773
  643MOL0     H84823   5.754   6.119   4.696 -1.2501 -1.6290 -1.6334
  643MOL0     H84824   5.822   6.044   4.853  2.0104 -0.4333 -0.2085
  643MOL0     H84825   5.801   5.916   4.582  0.8691 -1.9144 -0.2509
  643MOL0     H84826   5.854   5.839   4.732 -0.1847 -0.2443  1.6697
  643MOL0     H84827   5.599   5.796   4.665 -2.3174  1.7086 -0.5271
  643MOL0     H84828   5.562   5.938   4.733  0.1342 -0.9825 -1.9757
  643MOL0     H84829   5.616   5.973   5.009  0.1726  0.5214 -0.8948
  643MOL0     H84830   5.707   5.693   5.270 -1.2223 -0.0679 -0.5921
  643MOL0     H84831   5.647   5.863   5.261  1.2308  2.2168  0.3251
  643MOL0     H84832   5.875   5.946   5.213 -0.9283  1.1694  0.6107
  643MOL0     H84833   5.944   5.789   5.222 -1.9951 -1.3985 -1.2400
  643MOL0     H84834   5.794   5.913   5.452 -0.4712 -0.8927 -0.3902
  643MOL0     H84835   5.891   5.767   5.447 -0.5019 -0.3764 -0.3816
  643MOL0     H84836   6.026   5.984   5.531 -1.4488 -0.5158 -0.6157
  643MOL0     H84837   6.016   6.035   5.357  1.5989 -1.7113 -2.1231
  643MOL0     H84838   6.220   6.060   5.548 -3.4652 -1.7389 -1.8234
  643MOL0     H84839   6.461   6.060   5.635  2.2106 -1.0598 -0.4224
  643MOL0     H84840   6.904   5.924   5.354 -0.4077 -1.2857  0.2924
  643MOL0     H84841   7.136   5.935   5.363  0.5003 -0.1703 -0.1127
  643MOL0     H84842   7.341   6.031   5.552  0.9980 -0.0851  0.9582
  643MOL0     H84843   7.371   5.946   5.383  1.0247 -0.4657  0.6236
  643MOL0     H84844   7.545   5.818   5.510  1.3865  0.5736 -0.7318
  643MOL0     H84845   7.514   5.926   5.650  0.8888 -1.1123 -0.0641
  643MOL0     H84846   7.555   6.126   5.492  0.1168  0.5808 -0.3465
  643MOL0     H84847   7.627   6.003   5.390 -0.6445 -0.0517 -0.5905
  643MOL0     H84848   7.735   6.052   5.672  1.5194 -1.8192  1.5653
  643MOL0     H84849   7.794   5.934   5.557 -1.1038 -0.2191  0.9326
  643MOL0     H84850   7.760   6.230   5.466  3.4245  3.2699  1.3771
  643MOL0     H84851   7.846   6.091   5.404 -1.1674 -1.1275  1.2502
  643MOL0     H84852   7.898   6.220   5.678  1.4325  0.6988  0.2857
  643MOL0     H84853   7.976   6.293   5.534 -1.6123  0.4461 -1.7551
  643MOL0     H84854   8.118   6.119   5.686 -1.3785  1.3529  1.2173
  643MOL0     H84855   8.004   5.998   5.614 -1.6718  0.0269 -1.7777
  643MOL0     H84856   8.089   6.075   5.395 -2.5564  0.9710  1.8946
  643MOL0     H84857   8.229   6.012   5.494 -0.6427  0.2016 -1.4909
  643MOL0     H84858   7.146   5.686   5.711 -0.2381 -1.6186 -1.4160
  643MOL0     H84859   6.895   5.674   5.690 -0.4919 -0.1184  1.0350
  643MOL0     H84860   6.551   5.705   5.433  0.1484 -1.3596  1.0489
  643MOL0     H84861   6.304   5.694   5.348  0.2295 -0.9938  2.2821
  643MOL0     H84862   6.635   6.112   4.757  0.9096 -0.3677  2.1773
  643MOL0     H84863   6.861   6.131   4.786 -2.4428 -1.6494  2.2316
  643MOL0     H84864   7.190   6.462   4.641  1.7433 -2.5334 -1.5985
  643MOL0     H84865   7.444   6.516   4.606 -0.0807 -2.0469 -0.8746
  643MOL0     H84866   7.619   6.353   4.876 -0.0873 -1.2149 -2.6040
  643MOL0     H84867   7.748   6.470   4.927  1.1132 -1.2954 -0.1152
  643MOL0     H84868   7.855   6.294   4.822  0.1784  0.8769  1.6763
  643MOL0     H84869   7.759   6.307   4.669  0.9235  2.1000 -2.0489
  643MOL0     H84870   7.944   6.509   4.791  1.4794 -1.7500  0.0537
  643MOL0     H84871   7.869   6.523   4.631 -1.2812 -0.1085 -0.0367
  643MOL0     H84872   7.982   6.310   4.562 -1.9381  0.0780 -0.4720
  643MOL0     H84873   8.090   6.446   4.562  0.9938 -0.4271 -1.1065
  643MOL0     H84874   8.270   6.222   4.866  1.4617 -1.4018 -1.9497
  643MOL0     H84875   7.477   6.576   5.023  0.3855 -3.2346  1.3870
  643MOL0     H84876   7.221   6.524   5.042 -1.8024  0.5501 -1.5574
  644MOL0     O84877   2.722   8.066   6.390  0.0048  0.6667 -0.3189
  644MOL0     C84878   2.808   8.047   6.301  0.2350 -0.2249  0.4272
  644MOL0     O84879   2.776   8.006   6.175 -1.1304  0.5570 -0.1289
  644MOL0     C84880   2.653   7.954   6.154  0.2400  0.8230  0.5502
  644MOL0     C84881   2.551   8.050   6.135 -0.7686 -0.0403 -0.0073
  644MOL0     C84882   2.418   7.995   6.107 -0.1479  0.1503  0.6601
  644MOL0     C84883   2.397   7.859   6.101 -0.3435  1.2323  0.1771
  644MOL0     O84884   2.276   7.791   6.072 -0.0753 -0.5687 -0.0017
  644MOL0     C84885   2.178   7.878   6.005 -0.3900 -0.2942 -0.9356
  644MOL0     C84886   2.065   7.805   5.938 -0.3390 -0.2370  0.0090
  644MOL0     C84887   1.979   7.719   6.024 -0.2693 -0.4528 -0.1711
  644MOL0     C84888   1.875   7.650   5.932 -0.1655 -0.4247 -0.6075
  644MOL0     C84889   1.736   7.721   5.934  0.5184 -0.5846  1.2921
  644MOL0     C84890   1.666   7.727   5.793  0.0295 -0.7152  0.2912
  644MOL0     C84891   1.517   7.767   5.789 -0.2216 -0.4532  0.2758
  644MOL0     C84892   1.433   7.643   5.827  0.4003 -0.2342  0.4709
  644MOL0     N84893   1.291   7.676   5.851  0.2255  0.6673  0.1211
  644MOL0     C84894   1.199   7.727   5.763  0.9711 -0.0488  0.0245
  644MOL0     C84895   1.092   7.757   5.842  0.0091 -1.0710 -0.2200
  644MOL0     C84896   0.948   7.808   5.816  0.7402 -1.2095 -0.3211
  644MOL0     C84897   0.852   7.700   5.762 -0.4509  0.0047 -0.2264
  644MOL0     C84898   0.828   7.593   5.875  0.1680 -0.9665 -0.1107
  644MOL0     C84899   0.776   7.650   6.002  0.0239 -0.1822  0.0373
  644MOL0     O84900   0.710   7.548   6.080 -0.1881  0.0064 -0.8237
  644MOL0     C84901   0.578   7.515   6.051 -0.3100  0.0756 -0.0257
  644MOL0     C84902   0.523   7.419   6.131  0.2414  0.0506 -0.4043
  644MOL0     C84903   0.388   7.392   6.133 -0.5981  0.6144  1.1802
  644MOL0     C84904   0.308   7.429   6.024  0.1293 -0.4041  0.2273
  644MOL0     C84905   0.174   7.388   6.006  0.4656 -0.0480 -0.1800
  644MOL0     O84906   0.105   7.425   5.888  0.0162  0.1786  0.5414
  644MOL0     C84907  -0.017   7.370   5.856  0.2430  0.4108 -0.2505
  644MOL0     C84908  -0.118   7.382   5.947 -0.1534  0.0231 -0.3128
  644MOL0     C84909  -0.249   7.340   5.908 -0.8109 -0.6792  0.4558
  644MOL0     C84910  -0.264   7.277   5.778  0.4480 -0.5972 -0.2707
  644MOL0     O84911  -0.376   7.209   5.738  0.3962 -0.0686  0.2726
  644MOL0     C84912  -0.507   7.255   5.783 -0.5040 -1.1462 -0.1824
  644MOL0     C84913  -0.608   7.218   5.684 -0.8508 -0.2523 -0.6645
  644MOL0     C84914  -0.738   7.255   5.741  0.3741 -0.1764 -0.5531
  644MOL0     C84915  -0.841   7.240   5.631 -0.0960 -0.1563 -0.3367
  644MOL0     C84916  -0.975   7.306   5.664 -0.6713  0.8509  0.0097
  644MOL0     C84917  -1.066   7.302   5.546  0.5458  0.2403  0.4085
  644MOL0     C84918  -1.208   7.351   5.575  0.0823 -0.1603  0.2259
  644MOL0     C84919  -1.303   7.318   5.468  0.1901 -0.1415 -0.0190
  644MOL0    Cl84920  -1.340   7.140   5.499 -0.3380 -0.1528  0.0645
  644MOL0     C84921  -0.159   7.266   5.688 -0.5915 -0.7394 -0.1419
  644MOL0     C84922  -0.035   7.308   5.729 -0.2559  0.0953  0.1032
  644MOL0     O84923   0.124   7.330   6.099  0.2228 -0.2001 -0.5754
  644MOL0     C84924   0.380   7.515   5.930  0.4438 -0.1899  0.5359
  644MOL0     C84925   0.505   7.565   5.945 -0.0743 -0.5106  0.1198
  644MOL0     N84926   1.120   7.725   5.976  0.1929 -0.6433 -0.6905
  644MOL0     N84927   1.241   7.682   5.980 -0.1589  0.6376  0.2103
  644MOL0     C84928   2.507   7.769   6.117  1.1864 -0.3727  0.5269
  644MOL0     C84929   2.637   7.818   6.140 -0.0421  0.3279 -0.7966
  644MOL0     C84930   2.952   8.073   6.330 -0.7280 -0.2451 -0.9537
  644MOL0     C84931   3.047   8.032   6.242  0.1040 -0.3951 -0.2279
  644MOL0     C84932   3.179   8.074   6.250 -0.3003  0.4312 -0.3148
  644MOL0     C84933   3.216   8.171   6.345 -0.4364  0.3011  0.2674
  644MOL0     O84934   3.338   8.232   6.352 -0.6747 -0.1645 -0.2059
  644MOL0     C84935   3.450   8.195   6.270 -0.4433 -0.5892  0.2621
  644MOL0     C84936   3.522   8.077   6.326  0.0735  0.5687  0.2532
  644MOL0     C84937   3.620   8.117   6.437  0.6814 -0.4961  0.3568
  644MOL0     C84938   3.729   8.015   6.471  0.1043 -0.5067  0.3088
  644MOL0     C84939   3.812   7.978   6.355 -0.8364 -0.1124  0.3720
  644MOL0     C84940   3.865   7.959   6.246  0.9241 -0.2570 -0.1835
  644MOL0     C84941   3.115   8.204   6.435 -0.0949  0.4257 -0.4616
  644MOL0     C84942   2.985   8.163   6.429  0.8260  0.0467  0.6958
  644MOL0     H84943   2.572   8.156   6.135  2.6264 -0.4855 -3.5666
  644MOL0     H84944   2.338   8.058   6.068  1.0120 -0.3877 -3.0126
  644MOL0     H84945   2.234   7.944   5.939  3.5486  1.2473  3.4203
  644MOL0     H84946   2.130   7.942   6.080  1.2636  1.0823 -1.0014
  644MOL0     H84947   2.121   7.747   5.864  1.2870  2.3323 -0.8897
  644MOL0     H84948   2.010   7.879   5.880 -0.4573 -1.2926 -1.2622
  644MOL0     H84949   1.929   7.785   6.096  0.6075  0.0269  0.0105
  644MOL0     H84950   2.039   7.644   6.076  1.1030  1.0760  0.5460
  644MOL0     H84951   1.913   7.649   5.830  0.5840  0.1920 -0.3397
  644MOL0     H84952   1.862   7.546   5.965 -0.6724 -0.7871 -1.8897
  644MOL0     H84953   1.748   7.826   5.961  1.0531 -0.2707 -0.0900
  644MOL0     H84954   1.673   7.673   6.009 -2.9063  1.6827  0.0944
  644MOL0     H84955   1.666   7.631   5.740  0.6807  1.7196 -4.7378
  644MOL0     H84956   1.724   7.787   5.722  1.7227 -1.4667  0.9874
  644MOL0     H84957   1.500   7.844   5.865  1.5769  0.3338 -0.0590
  644MOL0     H84958   1.494   7.807   5.690 -3.4438 -1.9801  0.2972
  644MOL0     H84959   1.471   7.589   5.915 -0.9142 -1.1121  0.5243
  644MOL0     H84960   1.449   7.564   5.754 -0.5531 -1.6062  1.6939
  644MOL0     H84961   1.194   7.738   5.655 -0.9486 -0.0870  0.0865
  644MOL0     H84962   0.943   7.887   5.741  0.0011 -1.3248 -0.3985
  644MOL0     H84963   0.916   7.847   5.913  0.2706  1.4326 -1.4643
  644MOL0     H84964   0.905   7.655   5.678  1.3588 -2.0056  1.8402
  644MOL0     H84965   0.755   7.738   5.728  0.5015  2.2681 -0.5936
  644MOL0     H84966   0.767   7.513   5.833  0.8058 -1.6265  0.1885
  644MOL0     H84967   0.926   7.545   5.888  0.7110 -0.0040 -0.5614
  644MOL0     H84968   0.703   7.730   5.986 -2.4870 -2.4599 -0.5950
  644MOL0     H84969   0.859   7.683   6.066  1.4865 -0.1363 -1.8000
  644MOL0     H84970   0.589   7.374   6.204  1.2207 -2.0565 -2.4394
  644MOL0     H84971   0.357   7.322   6.210  0.0398  0.1680  1.0430
  644MOL0     H84972  -0.110   7.421   6.048 -1.4652 -4.6905  1.9048
  644MOL0     H84973  -0.331   7.361   5.976 -0.2107 -0.3943  1.0981
  644MOL0     H84974  -0.510   7.362   5.805 -0.4661 -1.0651 -0.5589
  644MOL0     H84975  -0.537   7.206   5.877 -0.6775  2.4929  1.8191
  644MOL0     H84976  -0.599   7.109   5.678 -0.7209 -0.8158  4.8455
  644MOL0     H84977  -0.582   7.272   5.592 -0.3634 -0.9454 -0.9444
  644MOL0     H84978  -0.737   7.361   5.770 -2.8219  0.0870 -0.9625
  644MOL0     H84979  -0.754   7.194   5.830  0.8971  4.0116  2.7604
  644MOL0     H84980  -0.805   7.281   5.537  0.1904 -0.5698 -0.4109
  644MOL0     H84981  -0.854   7.133   5.613 -0.9065 -0.5025  1.9477
  644MOL0     H84982  -0.953   7.410   5.690  3.3211  0.4275 -1.0747
  644MOL0     H84983  -1.024   7.254   5.747 -1.8447  0.2120 -1.0369
  644MOL0     H84984  -1.084   7.195   5.527 -0.3298  0.5164 -0.3826
  644MOL0     H84985  -1.022   7.359   5.464  2.3522 -1.4989  0.0649
  644MOL0     H84986  -1.251   7.322   5.671  2.4556  0.4600  1.5467
  644MOL0     H84987  -1.201   7.460   5.582 -0.9447  0.0998 -2.0852
  644MOL0     H84988  -1.263   7.348   5.370  0.9281  1.1050  0.6511
  644MOL0     H84989  -1.392   7.381   5.475  1.1002  1.4201 -1.4891
  644MOL0     H84990  -0.163   7.223   5.588  2.3469  1.1712 -1.2392
  644MOL0     H84991   0.050   7.290   5.663 -1.7525  0.8658 -2.1652
  644MOL0     H84992   0.325   7.545   5.841  1.6621 -0.5208 -0.3504
  644MOL0     H84993   0.547   7.642   5.881  2.3440 -1.3232  0.6014
  644MOL0     H84994   2.484   7.663   6.118 -1.6957  0.1712  0.1830
  644MOL0     H84995   2.722   7.750   6.146 -0.5249 -0.2365 -0.1051
  644MOL0     H84996   3.016   7.966   6.161 -3.1465  0.1844  0.4039
  644MOL0     H84997   3.249   8.027   6.182 -0.4847 -1.2386  0.5747
  644MOL0     H84998   3.526   8.273   6.270 -0.8871 -0.1526  1.0437
  644MOL0     H84999   3.425   8.170   6.166  2.5443  2.4493 -1.3850
  644MOL0     H85000   3.456   8.000   6.366 -0.3218  1.0318  0.5118
  644MOL0     H85001   3.576   8.041   6.238 -0.3205 -0.1615  0.3026
  644MOL0     H85002   3.567   8.132   6.532  0.4131 -1.4556  0.3772
  644MOL0     H85003   3.673   8.208   6.409  0.0914  0.6926  2.8551
  644MOL0     H85004   3.792   8.058   6.549 -0.0037  0.1616  0.0309
  644MOL0     H85005   3.684   7.922   6.508 -0.8170  0.8048  2.6783
  644MOL0     H85006   3.902   7.946   6.146  1.9416  0.5063  0.0751
  644MOL0     H85007   3.127   8.278   6.513 -0.1827  3.1529 -2.8512
  644MOL0     H85008   2.902   8.197   6.490 -1.1547 -0.2794 -1.6434
  645MOL0     O85009   1.004   2.746   0.864 -0.5029 -0.0235  0.7794
  645MOL0     C85010   0.995   2.837   0.787  0.2814 -0.7014  0.0672
  645MOL0     O85011   0.881   2.870   0.706  0.1863 -0.5559 -0.4119
  645MOL0     C85012   0.758   2.810   0.719 -0.0442  0.6740 -0.2817
  645MOL0     C85013   0.704   2.769   0.838 -0.0791  0.5084  0.7232
  645MOL0     C85014   0.591   2.698   0.857  0.0112  0.1651  0.4940
  645MOL0     C85015   0.516   2.669   0.747 -0.7544  0.4338  0.9033
  645MOL0     O85016   0.415   2.581   0.756 -0.6972 -0.6115 -0.5168
  645MOL0     C85017   0.289   2.631   0.694 -0.0702  0.2160 -0.6005
  645MOL0     C85018   0.182   2.551   0.762  0.1860  0.6491  0.5370
  645MOL0     C85019   0.048   2.575   0.696  0.0938  0.5821 -0.9728
  645MOL0     C85020  -0.070   2.504   0.779 -0.3390 -0.2023 -0.1890
  645MOL0     C85021  -0.208   2.543   0.740 -0.0243 -0.7255 -0.2429
  645MOL0     C85022  -0.231   2.518   0.592 -0.8406 -0.9175 -0.4169
  645MOL0     C85023  -0.378   2.533   0.545  0.3066  0.5258 -0.2562
  645MOL0     C85024  -0.464   2.641   0.604  0.3297 -0.4830 -0.0476
  645MOL0     N85025  -0.602   2.613   0.567 -0.0047 -0.4444  0.4836
  645MOL0     C85026  -0.644   2.619   0.434 -0.3216 -0.8725  0.4725
  645MOL0     C85027  -0.761   2.572   0.434  0.1717  0.4265 -0.1045
  645MOL0     C85028  -0.860   2.585   0.326  0.0928 -0.1296 -0.0345
  645MOL0     C85029  -0.857   2.465   0.238  0.2296  0.8447 -0.1112
  645MOL0     C85030  -0.945   2.474   0.107 -0.3909  0.5254 -0.4290
  645MOL0     C85031  -1.090   2.448   0.138  0.3112 -0.3364  0.2109
  645MOL0     O85032  -1.144   2.316   0.155  0.1445 -0.2945  0.6534
  645MOL0     C85033  -1.281   2.290   0.151 -0.0175 -0.5877 -0.1579
  645MOL0     C85034  -1.382   2.390   0.156 -0.0612 -0.4109  0.6882
  645MOL0     C85035  -1.517   2.371   0.129 -1.4070 -0.2545  0.6062
  645MOL0     C85036  -1.561   2.239   0.111 -0.0672 -0.1629  1.1163
  645MOL0     C85037  -1.705   2.216   0.081 -0.2213  0.0478  0.3079
  645MOL0     O85038  -1.786   2.318   0.020  0.0635 -0.6725 -0.2248
  645MOL0     C85039  -1.916   2.290  -0.003  0.2607 -0.9316 -0.1715
  645MOL0     C85040  -2.005   2.232   0.082  0.8094 -0.1522  0.2060
  645MOL0     C85041  -2.149   2.243   0.054  0.0320 -0.7022 -0.2508
  645MOL0     C85042  -2.189   2.296  -0.068 -0.4144 -0.4546 -0.3675
  645MOL0     O85043  -2.319   2.305  -0.106  0.2407 -0.4677  0.1872
  645MOL0     C85044  -2.416   2.233  -0.034  0.2102  0.1433  0.3103
  645MOL0     C85045  -2.549   2.228  -0.111  0.3504 -0.3421  0.0927
  645MOL0     C85046  -2.662   2.168  -0.029  0.0056  0.1487  0.3087
  645MOL0     C85047  -2.797   2.171  -0.087  0.5179 -0.3423  0.1858
  645MOL0     C85048  -2.910   2.131   0.004  0.5502  1.0128 -0.2071
  645MOL0     C85049  -3.048   2.104  -0.066  0.4891  0.5367  0.7140
  645MOL0     C85050  -3.060   1.977  -0.154  0.0371  1.0055  0.1499
  645MOL0     C85051  -3.193   1.968  -0.222 -0.2770 -0.0880  0.6916
  645MOL0    Cl85052  -3.334   1.962  -0.109  0.2085  0.1037 -0.7092
  645MOL0     C85053  -2.097   2.348  -0.155 -0.0828 -0.2410  0.2981
  645MOL0     C85054  -1.958   2.357  -0.121  0.4592  0.3613  0.3331
  645MOL0     O85055  -1.751   2.107   0.121  0.6477 -0.4635 -0.1192
  645MOL0     C85056  -1.465   2.134   0.090  0.2049  0.0124 -0.4355
  645MOL0     C85057  -1.331   2.159   0.120 -0.0566 -0.0814  0.0256
  645MOL0     N85058  -0.790   2.514   0.556  0.5351  0.2877  0.7381
  645MOL0     N85059  -0.692   2.542   0.642 -0.2582 -0.0059  0.4995
  645MOL0     C85060   0.572   2.706   0.622  0.1540  0.4085  0.5933
  645MOL0     C85061   0.684   2.774   0.608 -1.2384 -0.5388  0.0705
  645MOL0     C85062   1.125   2.914   0.753 -1.2626  0.7985  0.0872
  645MOL0     C85063   1.255   2.856   0.774 -0.1251  0.7718  0.1882
  645MOL0     C85064   1.376   2.923   0.736  0.3236  0.6317  0.7037
  645MOL0     C85065   1.360   3.055   0.683 -0.2343 -0.1215  0.7175
  645MOL0     O85066   1.472   3.133   0.652 -0.2010 -0.4994  0.2977
  645MOL0     C85067   1.610   3.089   0.673  0.8753 -0.2860  0.2860
  645MOL0     C85068   1.693   3.166   0.575  0.5816 -0.3964 -0.4170
  645MOL0     C85069   1.684   3.318   0.603 -0.2012 -0.1312  0.5273
  645MOL0     C85070   1.791   3.399   0.514 -0.5682  0.5223 -0.1233
  645MOL0     C85071   1.751   3.399   0.371 -0.2841  0.3921 -0.1345
  645MOL0     C85072   1.715   3.390   0.253  0.5732 -0.3822 -0.1329
  645MOL0     C85073   1.238   3.108   0.667 -0.0800  0.6084 -0.3702
  645MOL0     C85074   1.123   3.040   0.696 -0.6308 -0.2474  0.0434
  645MOL0     H85075   0.767   2.786   0.925  1.3707 -0.1370 -0.1530
  645MOL0     H85076   0.556   2.665   0.954 -0.4931 -1.6681 -0.2839
  645MOL0     H85077   0.292   2.604   0.588  0.0483 -1.5973 -0.1609
  645MOL0     H85078   0.282   2.740   0.697  2.8607  0.5024  1.5104
  645MOL0     H85079   0.181   2.564   0.871  0.1337  0.0082  0.6141
  645MOL0     H85080   0.216   2.448   0.755  1.7646  0.7777  4.1880
  645MOL0     H85081   0.052   2.527   0.598  2.2084  1.5164 -1.3989
  645MOL0     H85082   0.043   2.684   0.682  0.7365  0.6948 -0.3668
  645MOL0     H85083  -0.062   2.397   0.763  0.6853  0.1668 -2.5748
  645MOL0     H85084  -0.061   2.524   0.886  0.9580  2.7151 -0.7277
  645MOL0     H85085  -0.222   2.647   0.770 -0.5803 -0.3585 -1.7026
  645MOL0     H85086  -0.291   2.504   0.800 -1.1094  0.8989 -0.6150
  645MOL0     H85087  -0.189   2.421   0.563  0.2141 -0.6530  0.1835
  645MOL0     H85088  -0.167   2.590   0.540 -0.0573 -1.7612 -0.6509
  645MOL0     H85089  -0.376   2.545   0.436  1.1013  2.0899 -0.1042
  645MOL0     H85090  -0.433   2.444   0.575 -0.0191  0.4016 -1.2009
  645MOL0     H85091  -0.427   2.735   0.563 -0.1383 -0.6838 -0.9583
  645MOL0     H85092  -0.464   2.650   0.713 -2.1234  1.8471 -0.1431
  645MOL0     H85093  -0.609   2.673   0.346  0.6807  0.0934  1.4294
  645MOL0     H85094  -0.832   2.674   0.269  1.3486 -0.1522  0.5049
  645MOL0     H85095  -0.963   2.599   0.360  0.1376  3.1087 -0.9412
  645MOL0     H85096  -0.898   2.376   0.286 -1.3869  1.6074 -0.0011
  645MOL0     H85097  -0.753   2.442   0.212 -0.2029  0.3907 -1.5313
  645MOL0     H85098  -0.933   2.575   0.068 -0.2049  2.2026  3.4532
  645MOL0     H85099  -0.909   2.394   0.042 -0.8197  0.3105 -0.4110
  645MOL0     H85100  -1.146   2.501   0.060 -1.9331  0.6476  2.3570
  645MOL0     H85101  -1.113   2.505   0.229 -0.5867 -2.3054  1.2845
  645MOL0     H85102  -1.344   2.487   0.185  2.1334 -0.9291 -0.2263
  645MOL0     H85103  -1.582   2.456   0.144 -1.0426  0.5183 -1.8084
  645MOL0     H85104  -1.980   2.183   0.175 -3.6582 -3.1321  0.1492
  645MOL0     H85105  -2.222   2.217   0.130  0.9172  0.7353  1.1538
  645MOL0     H85106  -2.429   2.281   0.063 -1.0123 -0.1633  0.3136
  645MOL0     H85107  -2.396   2.125  -0.026 -0.9062 -0.0850  0.1776
  645MOL0     H85108  -2.520   2.182  -0.206 -0.1120 -1.9136  0.6942
  645MOL0     H85109  -2.582   2.331  -0.128 -0.9136 -0.1114  3.3246
  645MOL0     H85110  -2.658   2.219   0.068 -2.7143  0.2916  0.4193
  645MOL0     H85111  -2.635   2.064  -0.005  0.5430  0.5005  1.2679
  645MOL0     H85112  -2.822   2.269  -0.128  3.3259  1.1798  1.7668
  645MOL0     H85113  -2.792   2.096  -0.166  1.2063  1.2607 -1.3536
  645MOL0     H85114  -2.920   2.207   0.082  0.9673 -0.1993  1.0816
  645MOL0     H85115  -2.877   2.039   0.054  2.7544  2.7415  1.7511
  645MOL0     H85116  -3.066   2.191  -0.130 -0.0245 -1.9259 -2.7427
  645MOL0     H85117  -3.123   2.096   0.013 -0.5105  3.0354  0.1145
  645MOL0     H85118  -2.976   1.971  -0.224  2.4282 -2.3302  2.9746
  645MOL0     H85119  -3.044   1.896  -0.082  1.1852  2.0626  1.1225
  645MOL0     H85120  -3.191   1.880  -0.287 -1.3322  0.0637  0.4459
  645MOL0     H85121  -3.208   2.048  -0.296  0.3642  0.3049  0.9762
  645MOL0     H85122  -2.140   2.387  -0.246 -0.4031  0.2403  0.6477
  645MOL0     H85123  -1.890   2.405  -0.190 -2.2406  0.0775 -2.7581
  645MOL0     H85124  -1.491   2.029   0.077  1.9807 -0.3839 -1.0301
  645MOL0     H85125  -1.252   2.084   0.115  3.0200  2.8278  1.2218
  645MOL0     H85126   0.525   2.671   0.530  0.9380  0.7226  0.0607
  645MOL0     H85127   0.722   2.802   0.511 -4.0303 -0.6736 -1.1598
  645MOL0     H85128   1.249   2.751   0.801 -1.1054 -1.0626 -5.7620
  645MOL0     H85129   1.476   2.882   0.744  0.8459  1.3962 -1.3730
  645MOL0     H85130   1.620   2.982   0.650 -2.8375 -0.8353  0.5034
  645MOL0     H85131   1.649   3.108   0.773  0.8547 -0.4541  0.3273
  645MOL0     H85132   1.794   3.127   0.590 -0.5556 -4.3261 -1.7361
  645MOL0     H85133   1.665   3.155   0.470 -0.2123  1.2767 -0.4038
  645MOL0     H85134   1.703   3.332   0.710 -3.8823  1.4582  1.1400
  645MOL0     H85135   1.588   3.363   0.576  0.3618 -0.7685 -3.0632
  645MOL0     H85136   1.798   3.503   0.546  0.8647  1.2504 -2.5448
  645MOL0     H85137   1.891   3.359   0.531 -1.9100 -3.3366 -0.3160
  645MOL0     H85138   1.681   3.373   0.153  1.4189 -1.5336 -0.2480
  645MOL0     H85139   1.225   3.212   0.638  0.3176  0.9049  0.4769
  645MOL0     H85140   1.025   3.079   0.672 -0.9154 -0.0057  1.4790
  646MOL0     O85141   1.400   5.388  10.339 -0.3761  0.3344 -0.4870
  646MOL0     C85142   1.505   5.384  10.264 -0.2390  0.6834 -0.4759
  646MOL0     O85143   1.519   5.295  10.156 -0.2837  0.6858 -0.6634
  646MOL0     C85144   1.433   5.192  10.161 -0.0167 -0.4717  0.4750
  646MOL0     C85145   1.334   5.186  10.054 -0.2216  0.3683 -0.5519
  646MOL0     C85146   1.226   5.096  10.058 -0.0105 -0.7317 -1.1793
  646MOL0     C85147   1.219   5.007  10.168  0.6168  0.2087 -1.1838
  646MOL0     O85148   1.135   4.893  10.183  0.0495 -0.2934  0.1001
  646MOL0     C85149   1.066   4.861  10.062  0.8519  0.2001  0.2867
  646MOL0     C85150   0.984   4.735  10.085 -0.4371  0.1030 -0.3763
  646MOL0     C85151   0.856   4.754  10.157 -0.2278  0.3629  0.6074
  646MOL0     C85152   0.798   4.617  10.204  0.4384  0.3669 -0.5746
  646MOL0     C85153   0.666   4.642  10.287  0.5020  0.2548  0.9311
  646MOL0     C85154   0.621   4.510  10.352 -0.4934  0.3012  0.0178
  646MOL0     C85155   0.477   4.511  10.402  0.0687  0.0728  0.2699
  646MOL0     C85156   0.427   4.377  10.453 -0.1010  0.2352 -0.5551
  646MOL0     N85157   0.334   4.387  10.563  0.3888  0.9886  0.0309
  646MOL0     C85158   0.209   4.460  10.564 -0.0736  1.2456  0.0742
  646MOL0     C85159   0.186   4.474  10.691  0.2002  0.2199  0.0700
  646MOL0     C85160   0.061   4.531  10.752  0.4565 -0.1780 -0.3715
  646MOL0     C85161   0.035   4.679  10.712 -0.3481 -0.3396 -0.1641
  646MOL0     C85162  -0.051   4.753  10.807 -0.6184 -0.1018 -0.3279
  646MOL0     C85163  -0.198   4.691  10.803 -0.0536  0.4040  0.1011
  646MOL0     O85164  -0.254   4.732  10.677  0.5029  0.2033  0.0187
  646MOL0     C85165  -0.394   4.743  10.669  0.5814 -0.5943 -0.6056
  646MOL0     C85166  -0.451   4.812  10.562  0.0309 -0.0392 -0.7337
  646MOL0     C85167  -0.585   4.818  10.536  0.1689  0.0087 -0.5831
  646MOL0     C85168  -0.677   4.749  10.617 -0.1487  0.5417 -0.6702
  646MOL0     C85169  -0.821   4.752  10.600  0.2358  0.3909  0.0195
  646MOL0     O85170  -0.870   4.771  10.474 -0.6824  0.1386  0.5226
  646MOL0     C85171  -1.002   4.805  10.471  0.8016  0.6245  0.0817
  646MOL0     C85172  -1.090   4.698  10.477 -0.6521 -0.1153 -0.0924
  646MOL0     C85173  -1.233   4.722  10.471  0.2075  0.1825 -0.4762
  646MOL0     C85174  -1.284   4.853  10.454  0.5350 -0.3362  0.5657
  646MOL0     O85175  -1.423   4.878  10.440 -0.7542  0.9581 -0.4289
  646MOL0     C85176  -1.462   5.007  10.490  0.0196 -0.3277 -0.1366
  646MOL0     C85177  -1.607   5.026  10.432  0.0624  0.2161  0.4442
  646MOL0     C85178  -1.710   4.922  10.482 -0.3958  0.8885 -1.2605
  646MOL0     C85179  -1.852   4.966  10.439  0.1660  0.1418  0.3659
  646MOL0     C85180  -1.949   4.856  10.485  0.1505  0.1541 -0.2795
  646MOL0     C85181  -2.090   4.916  10.445  0.8085  0.6368  0.7867
  646MOL0     C85182  -2.194   4.848  10.545  0.4293 -0.3462  0.5714
  646MOL0     C85183  -2.335   4.875  10.492  1.1438  0.1599  0.5679
  646MOL0    Cl85184  -2.372   5.054  10.512 -0.4166 -0.7840  0.2769
  646MOL0     C85185  -1.187   4.955  10.432 -0.2567  0.0272  0.7396
  646MOL0     C85186  -1.050   4.930  10.439  0.2129  0.4165  0.0415
  646MOL0     O85187  -0.888   4.716  10.698  0.1538 -0.6199 -0.0122
  646MOL0     C85188  -0.619   4.677  10.727  0.0044  0.2472  0.0180
  646MOL0     C85189  -0.476   4.674  10.751  0.6133  0.1470  0.0717
  646MOL0     N85190   0.297   4.437  10.773  0.2355  0.6017 -0.1162
  646MOL0     N85191   0.380   4.378  10.691  0.1400 -0.4431  0.3239
  646MOL0     C85192   1.314   5.017  10.273 -0.0078  0.1104 -0.2517
  646MOL0     C85193   1.414   5.113  10.269  0.0356  0.8762 -0.6480
  646MOL0     C85194   1.606   5.485  10.278 -0.4117 -1.8231  0.7128
  646MOL0     C85195   1.593   5.580  10.380 -0.4999 -0.6687 -0.6162
  646MOL0     C85196   1.690   5.679  10.401 -0.0518 -0.3211 -0.0109
  646MOL0     C85197   1.797   5.694  10.313  0.3444  0.5995 -0.3031
  646MOL0     O85198   1.897   5.792  10.321  0.4971  0.5535  0.1206
  646MOL0     C85199   1.897   5.886  10.430 -0.4458 -0.2747 -0.2537
  646MOL0     C85200   2.022   5.972  10.446  0.4840 -0.8222 -0.4982
  646MOL0     C85201   2.151   5.890  10.475  0.9418  0.1648  0.2191
  646MOL0     C85202   2.278   5.981  10.487 -0.7639  0.0092  0.3256
  646MOL0     C85203   2.305   6.014  10.625 -0.2924  0.0422 -0.1502
  646MOL0     C85204   2.324   6.016  10.749  0.8507  0.9300 -0.0649
  646MOL0     C85205   1.800   5.613  10.201  0.0398  0.8998  0.0617
  646MOL0     C85206   1.707   5.507  10.185 -0.3372 -0.8848  0.0223
  646MOL0     H85207   1.344   5.255   9.971  0.9207 -1.5825 -2.1344
  646MOL0     H85208   1.159   5.095   9.973 -2.6783  1.6255  0.7435
  646MOL0     H85209   1.142   4.837   9.987  1.2960  0.2398  0.7268
  646MOL0     H85210   1.003   4.940  10.019  0.8453 -0.7118 -1.5009
  646MOL0     H85211   1.042   4.661  10.141 -0.6130  0.5709  0.4492
  646MOL0     H85212   0.977   4.685   9.988  3.0837 -1.0060 -0.1918
  646MOL0     H85213   0.786   4.812  10.096 -0.4657  0.1468  0.6754
  646MOL0     H85214   0.875   4.824  10.239 -0.6091  0.9928  0.1682
  646MOL0     H85215   0.776   4.569  10.108 -0.7108  0.7778 -0.5369
  646MOL0     H85216   0.871   4.554  10.255 -0.9482 -0.7882  0.0596
  646MOL0     H85217   0.579   4.688  10.238  1.2210  0.7471  0.0888
  646MOL0     H85218   0.685   4.720  10.361 -0.3586  3.2678 -1.8017
  646MOL0     H85219   0.688   4.493  10.436 -1.6543  2.0220  1.3664
  646MOL0     H85220   0.639   4.428  10.281 -0.5282 -0.1252  0.4958
  646MOL0     H85221   0.472   4.581  10.486  2.3029  1.1514 -0.4207
  646MOL0     H85222   0.414   4.554  10.324  1.4762  2.4478  0.3470
  646MOL0     H85223   0.515   4.322  10.487  0.5603  0.7230 -1.4323
  646MOL0     H85224   0.392   4.325  10.364  2.3654 -0.4712 -1.2139
  646MOL0     H85225   0.148   4.485  10.477 -1.8985  0.4357  1.0660
  646MOL0     H85226   0.069   4.516  10.860 -1.4506 -1.5034 -0.3609
  646MOL0     H85227  -0.030   4.482  10.718 -0.7573  2.3873 -1.0369
  646MOL0     H85228  -0.020   4.682  10.617  1.4068  0.1693 -1.2263
  646MOL0     H85229   0.132   4.725  10.689 -0.6644  1.6515  2.1003
  646MOL0     H85230  -0.008   4.743  10.907 -1.0228 -1.6659 -0.2824
  646MOL0     H85231  -0.048   4.861  10.787 -3.8042 -0.0944 -1.3827
  646MOL0     H85232  -0.250   4.744  10.883  0.9320  1.7699 -0.1111
  646MOL0     H85233  -0.197   4.583  10.813  0.3532  0.2341 -1.4377
  646MOL0     H85234  -0.384   4.869  10.498  2.2046 -0.3247  1.1365
  646MOL0     H85235  -0.619   4.875  10.450 -1.2132  2.2208  1.2812
  646MOL0     H85236  -1.052   4.599  10.500 -0.5243  0.0061  0.2245
  646MOL0     H85237  -1.306   4.642  10.473 -0.2811  0.6115 -0.6638
  646MOL0     H85238  -1.404   5.091  10.450 -2.0082  0.6610 -1.1628
  646MOL0     H85239  -1.463   5.014  10.600 -0.5221  0.4000 -0.1773
  646MOL0     H85240  -1.600   5.018  10.323 -0.2423  1.0365  0.3583
  646MOL0     H85241  -1.648   5.127  10.445 -4.9950 -1.3513 -1.1165
  646MOL0     H85242  -1.706   4.901  10.589  0.5909 -2.9220 -1.9035
  646MOL0     H85243  -1.680   4.829  10.432 -1.5320 -1.2842  1.8388
  646MOL0     H85244  -1.870   5.062  10.486 -0.1527  0.2043  0.1192
  646MOL0     H85245  -1.852   4.974  10.330  3.3877 -0.5871  0.2039
  646MOL0     H85246  -1.927   4.857  10.593  0.6894 -0.3168 -0.3802
  646MOL0     H85247  -1.928   4.755  10.449  1.0167 -0.6178  2.1660
  646MOL0     H85248  -2.114   4.889  10.342 -0.1204  4.9525 -0.3200
  646MOL0     H85249  -2.099   5.025  10.450 -1.5583  0.4414  2.2645
  646MOL0     H85250  -2.189   4.738  10.551 -0.4020 -0.3141  2.9345
  646MOL0     H85251  -2.184   4.892  10.645 -1.8687  1.9942 -0.1443
  646MOL0     H85252  -2.408   4.814  10.545  1.9233  0.4458  2.0222
  646MOL0     H85253  -2.342   4.853  10.385 -0.9920 -0.5888  0.8153
  646MOL0     H85254  -1.218   5.052  10.394  0.2887  1.4872  3.7309
  646MOL0     H85255  -0.981   5.009  10.412 -2.0720  1.6119 -2.9823
  646MOL0     H85256  -0.684   4.629  10.799 -0.0790  3.2911  2.1662
  646MOL0     H85257  -0.443   4.625  10.842 -1.5904  1.6915  1.8206
  646MOL0     H85258   1.307   4.949  10.357 -1.5860  1.2053  0.5492
  646MOL0     H85259   1.464   5.122  10.365  0.9973 -1.3796 -0.8747
  646MOL0     H85260   1.514   5.576  10.454 -0.5579  1.2519 -0.5091
  646MOL0     H85261   1.679   5.752  10.480 -0.0924  3.7907 -3.4872
  646MOL0     H85262   1.895   5.822  10.519  1.4706  1.0071  0.8059
  646MOL0     H85263   1.808   5.947  10.417  1.4372  2.6319 -0.5356
  646MOL0     H85264   2.024   6.034  10.356  0.0488 -0.8889 -0.5538
  646MOL0     H85265   2.002   6.048  10.522 -0.0368 -1.1627 -0.2919
  646MOL0     H85266   2.167   5.817  10.394 -1.7408 -0.5638  0.2648
  646MOL0     H85267   2.143   5.830  10.566  0.8906 -0.8293 -0.4271
  646MOL0     H85268   2.366   5.921  10.464  0.7262  2.0454  0.4578
  646MOL0     H85269   2.258   6.066  10.421 -1.3322  0.1551  0.6803
  646MOL0     H85270   2.336   6.014  10.855 -2.9550  1.0390  0.4788
  646MOL0     H85271   1.882   5.634  10.134 -0.8613  0.9054 -1.0813
  646MOL0     H85272   1.731   5.442  10.101 -0.2862 -1.2181  0.2906
  647MOL0     O85273   1.326   0.360   3.700 -0.4326  0.4987  0.6063
  647MOL0     C85274   1.346   0.237   3.723  0.4299 -0.8725 -0.2733
  647MOL0     O85275   1.245   0.144   3.749  1.2190 -0.7005  0.5034
  647MOL0     C85276   1.111   0.179   3.727 -0.1010  0.1789  0.7403
  647MOL0     C85277   1.049   0.247   3.620 -0.0906 -0.7479 -0.1574
  647MOL0     C85278   0.909   0.248   3.601  0.6118  0.0038 -0.0426
  647MOL0     C85279   0.825   0.196   3.699 -0.4931  0.1124 -0.7981
  647MOL0     O85280   0.688   0.218   3.691 -0.2097  0.1488  0.5131
  647MOL0     C85281   0.599   0.181   3.799 -0.0173  0.3979 -0.6085
  647MOL0     C85282   0.459   0.247   3.767  0.5438  0.2270  0.7158
  647MOL0     C85283   0.359   0.212   3.883 -0.4156 -0.2722  0.0862
  647MOL0     C85284   0.308   0.058   3.893  0.1721 -0.3187  0.3747
  647MOL0     C85285   0.202   0.037   4.006 -0.0958  0.5346  0.5685
  647MOL0     C85286   0.059   0.058   3.963 -0.5245 -0.5226 -0.0153
  647MOL0     C85287  -0.035   0.046   4.083  0.8771 -0.5225 -1.1362
  647MOL0     C85288  -0.040   0.175   4.166 -0.4195 -0.0257 -0.8465
  647MOL0     N85289  -0.122   0.163   4.287 -0.2482  0.2734  0.1933
  647MOL0     C85290  -0.249   0.208   4.305 -0.2012  0.0096  0.1841
  647MOL0     C85291  -0.292   0.156   4.421 -0.6490 -0.3678  0.6518
  647MOL0     C85292  -0.435   0.170   4.472  1.2171 -0.1482 -0.3848
  647MOL0     C85293  -0.460   0.307   4.537  0.3741  0.2668  0.3545
  647MOL0     C85294  -0.612   0.307   4.564 -0.0401 -0.8386  0.5417
  647MOL0     C85295  -0.664   0.408   4.659  0.6451 -0.8090  0.0206
  647MOL0     O85296  -0.812   0.421   4.646  0.6961 -0.2812  0.2384
  647MOL0     C85297  -0.875   0.536   4.687 -0.6979  0.8122  0.8445
  647MOL0     C85298  -0.814   0.648   4.736 -0.1602 -0.1290 -0.5042
  647MOL0     C85299  -0.891   0.750   4.785  0.1280 -0.1591  0.3233
  647MOL0     C85300  -1.031   0.756   4.774  0.0595  0.4555 -0.4742
  647MOL0     C85301  -1.111   0.865   4.818  0.2064 -0.7607 -0.0604
  647MOL0     O85302  -1.041   0.963   4.864 -0.0796  0.3902 -0.5162
  647MOL0     C85303  -1.099   1.076   4.920  0.0701 -0.3188  0.3655
  647MOL0     C85304  -1.091   1.098   5.057  0.0379 -0.3655 -0.3234
  647MOL0     C85305  -1.148   1.212   5.116  0.6909  0.9589  0.1638
  647MOL0     C85306  -1.218   1.299   5.039  0.1910  0.0392  1.4422
  647MOL0     O85307  -1.266   1.413   5.099  0.2865  0.2799  0.2684
  647MOL0     C85308  -1.344   1.386   5.217  0.5897 -0.0757 -0.0441
  647MOL0     C85309  -1.451   1.483   5.241 -0.5306  0.0422 -0.4775
  647MOL0     C85310  -1.549   1.431   5.351  0.7087 -0.8100 -0.5381
  647MOL0     C85311  -1.655   1.545   5.398  0.2843 -0.3295  0.2633
  647MOL0     C85312  -1.771   1.479   5.466  0.1054 -0.5737 -0.5609
  647MOL0     C85313  -1.862   1.589   5.525 -0.5578  0.1853  0.7922
  647MOL0     C85314  -1.969   1.524   5.615 -0.0556 -0.9261  0.4042
  647MOL0     C85315  -2.046   1.631   5.695  0.6421 -0.5927 -0.0821
  647MOL0    Cl85316  -2.147   1.741   5.585  0.0572  0.0440 -0.3841
  647MOL0     C85317  -1.229   1.281   4.899  0.0380 -0.2960  0.2039
  647MOL0     C85318  -1.172   1.168   4.836 -0.3406  0.1846 -0.1496
  647MOL0     O85319  -1.236   0.864   4.805  0.1954 -0.0965  0.5403
  647MOL0     C85320  -1.089   0.644   4.722  0.3074  0.3936  0.0882
  647MOL0     C85321  -1.009   0.537   4.676  0.1129  0.2287  0.1335
  647MOL0     N85322  -0.189   0.083   4.474  0.2351 -0.2115  0.2416
  647MOL0     N85323  -0.086   0.095   4.398 -0.0202  0.4925 -0.0927
  647MOL0     C85324   0.891   0.131   3.810  0.2142 -0.0198 -0.2148
  647MOL0     C85325   1.031   0.119   3.821 -0.0003 -0.1015 -0.5184
  647MOL0     C85326   1.483   0.183   3.725 -0.9228 -0.4062 -0.2226
  647MOL0     C85327   1.584   0.276   3.685  0.0578  0.4994  0.7995
  647MOL0     C85328   1.720   0.238   3.673  0.2521 -0.9489 -0.0452
  647MOL0     C85329   1.760   0.106   3.704  0.3848  0.4859 -0.4411
  647MOL0     O85330   1.885   0.061   3.695 -0.1484 -0.3646 -0.1944
  647MOL0     C85331   1.987   0.125   3.623 -0.0227 -0.7058 -1.1446
  647MOL0     C85332   2.113   0.046   3.640 -0.0856  0.5437  0.8283
  647MOL0     C85333   2.221   0.112   3.558 -0.2263 -0.6967  0.0615
  647MOL0     C85334   2.356   0.059   3.588  0.0966  0.1031 -0.1197
  647MOL0     C85335   2.441   0.133   3.494 -0.6876 -0.1071 -0.0612
  647MOL0     C85336   2.508   0.216   3.427 -0.5796 -0.0383  0.1471
  647MOL0     C85337   1.662   0.017   3.746 -0.0023  0.7095 -0.4162
  647MOL0     C85338   1.527   0.049   3.757  0.2391 -0.5444  0.2207
  647MOL0     H85339   1.104   0.291   3.538 -2.6969  0.0210 -1.6112
  647MOL0     H85340   0.884   0.302   3.510  2.0590  0.1214 -0.4002
  647MOL0     H85341   0.631   0.207   3.900  0.7159 -3.0036  0.1613
  647MOL0     H85342   0.590   0.072   3.797  0.3915  0.3695 -1.5727
  647MOL0     H85343   0.415   0.210   3.674 -4.0331  2.1097  1.8979
  647MOL0     H85344   0.472   0.356   3.767  1.8744  0.2262 -2.7636
  647MOL0     H85345   0.274   0.280   3.875  0.0260  0.4937  1.5221
  647MOL0     H85346   0.401   0.236   3.981  1.1728  1.3843 -0.9370
  647MOL0     H85347   0.272   0.007   3.803 -0.7880 -1.5814  1.4185
  647MOL0     H85348   0.401   0.006   3.920  0.0048 -0.1534  1.3100
  647MOL0     H85349   0.220   0.109   4.087 -2.3987  3.3223 -1.2120
  647MOL0     H85350   0.223  -0.059   4.054  1.8219  0.2912 -0.6417
  647MOL0     H85351   0.037  -0.010   3.880  0.2891 -0.0028 -0.6746
  647MOL0     H85352   0.042   0.154   3.913  0.4135 -1.2294 -1.7833
  647MOL0     H85353  -0.139   0.032   4.051 -1.3825  2.6679  3.4875
  647MOL0     H85354  -0.018  -0.041   4.148 -2.2603  0.5658  1.4444
  647MOL0     H85355  -0.087   0.253   4.106  0.3049  0.1282 -1.2222
  647MOL0     H85356   0.060   0.208   4.196  0.5196 -1.5156 -2.1827
  647MOL0     H85357  -0.300   0.274   4.236  1.1448  2.9485  1.8428
  647MOL0     H85358  -0.452   0.087   4.541 -2.2675  1.2523  0.6740
  647MOL0     H85359  -0.492   0.166   4.378  4.3868 -2.1058 -2.4307
  647MOL0     H85360  -0.430   0.382   4.464  0.4824  0.9862  1.1202
  647MOL0     H85361  -0.394   0.325   4.622  0.5163  0.8064  0.1333
  647MOL0     H85362  -0.671   0.313   4.472 -1.4083 -1.4707  1.3470
  647MOL0     H85363  -0.639   0.209   4.604 -0.1451  0.0378  2.7483
  647MOL0     H85364  -0.611   0.504   4.655  0.0670 -0.3392  2.2052
  647MOL0     H85365  -0.649   0.373   4.762  0.8279 -2.7002 -0.6224
  647MOL0     H85366  -0.708   0.668   4.723 -0.5481  1.1318 -1.9468
  647MOL0     H85367  -0.835   0.830   4.833  1.8517 -1.8936  1.3715
  647MOL0     H85368  -1.039   1.026   5.119 -1.4874  0.0276  1.5139
  647MOL0     H85369  -1.136   1.226   5.223 -0.1315 -0.2158  0.4239
  647MOL0     H85370  -1.281   1.389   5.306 -0.1152  0.6650  0.4491
  647MOL0     H85371  -1.408   1.299   5.199  0.2079  0.1583  0.1751
  647MOL0     H85372  -1.518   1.505   5.157 -2.9601 -3.0544  0.4896
  647MOL0     H85373  -1.407   1.579   5.269 -0.2481 -0.2323  0.0294
  647MOL0     H85374  -1.491   1.405   5.440 -0.8636 -0.9784  0.4698
  647MOL0     H85375  -1.616   1.348   5.328 -4.9621  2.8729  0.7485
  647MOL0     H85376  -1.606   1.618   5.463 -1.1437  1.7175 -0.8673
  647MOL0     H85377  -1.693   1.608   5.318  2.1554  0.0881 -0.3351
  647MOL0     H85378  -1.737   1.416   5.549 -0.3205 -0.0144  0.0423
  647MOL0     H85379  -1.828   1.415   5.398  0.6578 -2.9554  1.1095
  647MOL0     H85380  -1.908   1.637   5.438 -0.7054 -0.6521  0.4010
  647MOL0     H85381  -1.796   1.665   5.569  0.1273  0.7323 -1.1055
  647MOL0     H85382  -2.039   1.462   5.558 -2.0240  1.2848  0.2348
  647MOL0     H85383  -1.909   1.472   5.690  2.7386  1.1776 -0.2063
  647MOL0     H85384  -1.981   1.699   5.751  1.7226 -2.1907  0.6981
  647MOL0     H85385  -2.111   1.581   5.767  0.4198 -0.5273 -0.2363
  647MOL0     H85386  -1.275   1.362   4.842 -0.7414 -0.5914  0.4010
  647MOL0     H85387  -1.159   1.164   4.729 -0.7769  1.2431 -0.2509
  647MOL0     H85388  -1.195   0.633   4.702  0.7585 -1.8456 -1.4855
  647MOL0     H85389  -1.064   0.454   4.631 -0.8835 -0.0547  1.7927
  647MOL0     H85390   0.835   0.089   3.892  1.4102 -1.5172 -0.1202
  647MOL0     H85391   1.077   0.071   3.907 -0.1811  1.9816  0.8306
  647MOL0     H85392   1.556   0.378   3.660 -2.2130 -0.4497 -0.8468
  647MOL0     H85393   1.777   0.327   3.651 -2.0184  0.6559  0.2112
  647MOL0     H85394   1.997   0.226   3.665  0.3246 -2.0947  2.4546
  647MOL0     H85395   1.948   0.125   3.521  0.0286 -0.9398 -1.1652
  647MOL0     H85396   2.140   0.039   3.746 -0.2691 -2.6481  0.7795
  647MOL0     H85397   2.104  -0.058   3.607  2.8160  0.1072  1.1472
  647MOL0     H85398   2.222   0.216   3.589 -2.2146  0.0816 -2.1191
  647MOL0     H85399   2.212   0.093   3.450  1.4943 -0.9894 -0.0518
  647MOL0     H85400   2.380   0.072   3.694 -3.1497 -2.3015  1.0955
  647MOL0     H85401   2.364  -0.048   3.563  3.5772  0.6626 -2.1233
  647MOL0     H85402   2.569   0.279   3.366 -0.8788 -0.9960 -1.1897
  647MOL0     H85403   1.704  -0.077   3.780  1.8285  1.4345 -0.5813
  647MOL0     H85404   1.459  -0.025   3.798  0.9963 -1.4281 -0.0703
  648MOL0     O85405   9.062   1.716   7.918 -0.1566 -0.2193 -0.3983
  648MOL0     C85406   9.073   1.661   7.810  0.8192  0.4787  0.1607
  648MOL0     O85407   9.187   1.647   7.739 -0.5348  0.3777 -0.3277
  648MOL0     C85408   9.298   1.704   7.794 -0.1867 -0.6632 -1.2060
  648MOL0     C85409   9.311   1.845   7.817  0.8528 -0.0334 -0.1015
  648MOL0     C85410   9.435   1.890   7.861  1.6822 -0.2050 -0.2632
  648MOL0     C85411   9.543   1.809   7.882  0.1433  0.8683 -0.3100
  648MOL0     O85412   9.638   1.867   7.947 -0.8011  0.0023 -0.1624
  648MOL0     C85413   9.757   1.787   7.976  0.3308 -0.1542  0.3391
  648MOL0     C85414   9.852   1.872   8.048 -0.5342 -0.7367 -0.9853
  648MOL0     C85415   9.907   1.987   7.961 -0.8116 -0.6204 -0.8799
  648MOL0     C85416  10.027   2.051   8.045  0.0393 -0.5891  1.1297
  648MOL0     C85417  10.063   2.187   7.972 -0.6749  0.8793  0.3942
  648MOL0     C85418   9.972   2.305   8.028  0.2418  0.7588  0.5080
  648MOL0     C85419  10.010   2.445   7.965  0.1286  0.2304 -0.0044
  648MOL0     C85420   9.986   2.468   7.819  0.3610 -0.9769 -0.1225
  648MOL0     N85421   9.842   2.432   7.778 -0.1641  0.2635  0.8662
  648MOL0     C85422   9.817   2.303   7.725  0.1617 -0.0351  0.1179
  648MOL0     C85423   9.683   2.299   7.716 -1.1681  1.0293  0.0476
  648MOL0     C85424   9.613   2.178   7.666 -0.1399  0.5365  0.9381
  648MOL0     C85425   9.474   2.179   7.601  0.9012  0.4838 -0.3849
  648MOL0     C85426   9.453   2.042   7.528 -0.2134  0.5339 -0.6353
  648MOL0     C85427   9.331   2.049   7.438 -0.9970 -0.2851 -0.1902
  648MOL0     O85428   9.219   1.992   7.512 -0.2972  0.2595  0.2644
  648MOL0     C85429   9.102   1.980   7.441 -0.4119 -0.2626  0.2476
  648MOL0     C85430   9.088   2.005   7.304  0.4163 -0.0154  0.0220
  648MOL0     C85431   8.961   1.999   7.242  0.0722  0.5388 -0.0064
  648MOL0     C85432   8.852   1.960   7.318  0.0958 -0.5305 -0.2346
  648MOL0     C85433   8.721   1.945   7.244  0.6680 -0.1505  1.2118
  648MOL0     O85434   8.617   1.914   7.313  0.2432 -0.2301 -0.3329
  648MOL0     C85435   8.502   1.888   7.243 -0.3202 -0.6912  0.2252
  648MOL0     C85436   8.432   1.993   7.187  0.0380 -0.0786 -0.4969
  648MOL0     C85437   8.300   1.966   7.130 -0.7229 -0.5058 -0.1537
  648MOL0     C85438   8.246   1.837   7.138  0.0839 -0.3370  0.2184
  648MOL0     O85439   8.113   1.817   7.111  0.9415 -0.1269 -0.0475
  648MOL0     C85440   8.040   1.740   7.212  0.5535  0.5705 -0.9198
  648MOL0     C85441   7.906   1.682   7.157 -0.1644  0.3669 -1.1091
  648MOL0     C85442   7.811   1.796   7.122 -1.3130  0.8431  0.2771
  648MOL0     C85443   7.666   1.753   7.133 -0.1904  0.0654  0.5473
  648MOL0     C85444   7.589   1.873   7.083  0.3649  0.7182  0.0823
  648MOL0     C85445   7.437   1.846   7.094  0.3024  0.3221 -0.0732
  648MOL0     C85446   7.389   1.872   7.238 -0.4319 -0.0452 -0.1116
  648MOL0     C85447   7.240   1.832   7.261 -0.2600 -0.7078 -0.1442
  648MOL0    Cl85448   7.211   1.878   7.438  0.6782 -0.3217  0.3696
  648MOL0     C85449   8.331   1.735   7.180  0.4791 -0.0234 -0.9342
  648MOL0     C85450   8.459   1.758   7.233 -0.4395  1.3650 -0.0823
  648MOL0     O85451   8.731   1.950   7.123  0.5366 -0.3591  0.0052
  648MOL0     C85452   8.861   1.937   7.458 -0.5490  0.3898 -0.2050
  648MOL0     C85453   8.991   1.929   7.521 -0.6345 -0.4625  0.2004
  648MOL0     N85454   9.634   2.422   7.760  0.5911 -0.7018  0.2547
  648MOL0     N85455   9.732   2.511   7.786  0.4535  0.3531 -0.1208
  648MOL0     C85456   9.533   1.669   7.863  0.0076 -0.4345 -0.3052
  648MOL0     C85457   9.406   1.620   7.824  0.1628 -0.4788 -0.0194
  648MOL0     C85458   8.949   1.615   7.734 -0.7561  0.4761  0.0157
  648MOL0     C85459   8.942   1.571   7.599 -0.1367 -0.8204 -0.5487
  648MOL0     C85460   8.821   1.537   7.540 -0.1938  0.2223 -0.0346
  648MOL0     C85461   8.703   1.578   7.596  1.0386  0.2927  0.4312
  648MOL0     O85462   8.586   1.545   7.529 -0.2885  0.0287 -0.5472
  648MOL0     C85463   8.463   1.559   7.591  0.1853  0.3399 -0.2956
  648MOL0     C85464   8.362   1.508   7.493 -0.5003  1.0219 -0.2599
  648MOL0     C85465   8.224   1.520   7.558 -0.8619 -0.0638  0.2468
  648MOL0     C85466   8.119   1.463   7.457 -0.1236 -0.2850 -1.1035
  648MOL0     C85467   7.988   1.509   7.483  0.5730 -0.9171  0.1097
  648MOL0     C85468   7.868   1.532   7.495  0.5620 -0.0610 -0.3149
  648MOL0     C85469   8.703   1.634   7.724 -0.7555 -0.2352 -0.0408
  648MOL0     C85470   8.826   1.653   7.791 -0.6753 -0.1450  1.2603
  648MOL0     H85471   9.226   1.911   7.806  0.5957 -0.2922  0.3008
  648MOL0     H85472   9.440   1.997   7.878 -2.6481  0.1297  0.1094
  648MOL0     H85473   9.809   1.763   7.883  2.3362  2.9324  0.5262
  648MOL0     H85474   9.727   1.700   8.034 -2.5680  2.6691  3.4951
  648MOL0     H85475   9.937   1.810   8.077 -0.6787 -0.3111  0.4626
  648MOL0     H85476   9.811   1.912   8.142 -0.5558  0.8831 -1.6481
  648MOL0     H85477   9.837   2.068   7.938 -0.5531 -0.0222  0.3731
  648MOL0     H85478   9.950   1.958   7.865  0.5840  2.3850 -1.2935
  648MOL0     H85479   9.997   2.060   8.150 -4.0074  0.0818  0.1011
  648MOL0     H85480  10.111   1.982   8.039 -0.3461 -0.9710 -0.0916
  648MOL0     H85481  10.062   2.183   7.863  1.2468  0.6598  0.3440
  648MOL0     H85482  10.167   2.208   8.000 -0.3963  0.6580 -0.4497
  648MOL0     H85483   9.985   2.306   8.136  2.5187  0.4976  0.2828
  648MOL0     H85484   9.868   2.284   8.000  0.3316  0.3060  0.5044
  648MOL0     H85485   9.963   2.526   8.021  3.4201  0.1504  3.3075
  648MOL0     H85486  10.114   2.469   7.987  0.1248  0.5382 -0.3211
  648MOL0     H85487  10.054   2.414   7.752  1.0015 -0.1465 -0.1632
  648MOL0     H85488  10.002   2.575   7.804  1.2130 -0.9210  1.0865
  648MOL0     H85489   9.885   2.222   7.701  1.0987  0.3146  1.4457
  648MOL0     H85490   9.617   2.101   7.744  0.9032 -0.4821 -0.0719
  648MOL0     H85491   9.670   2.142   7.579 -1.3587  2.1778 -0.6032
  648MOL0     H85492   9.464   2.263   7.532  1.1676  1.1181  0.3329
  648MOL0     H85493   9.398   2.182   7.680  0.8729  1.2153 -0.4307
  648MOL0     H85494   9.539   2.026   7.462 -1.4886  1.3351 -2.5732
  648MOL0     H85495   9.437   1.962   7.601  0.5841  1.8016  0.9832
  648MOL0     H85496   9.347   2.001   7.341 -1.1342 -0.9712  0.1203
  648MOL0     H85497   9.308   2.153   7.413  1.6795  0.3688 -0.2370
  648MOL0     H85498   9.167   2.049   7.243 -0.7995  0.0477 -1.5744
  648MOL0     H85499   8.951   2.013   7.135 -0.1777 -1.1103 -0.2151
  648MOL0     H85500   8.483   2.088   7.203  1.4436 -0.7273 -0.9866
  648MOL0     H85501   8.241   2.047   7.088  0.9258  0.7796 -0.0875
  648MOL0     H85502   8.023   1.813   7.292  0.8789  1.0339 -1.2688
  648MOL0     H85503   8.101   1.654   7.244  2.4336  1.7170 -1.2769
  648MOL0     H85504   7.860   1.623   7.237 -0.4664 -0.8649 -2.1382
  648MOL0     H85505   7.917   1.621   7.066 -4.3926  0.2385 -1.7844
  648MOL0     H85506   7.835   1.822   7.019  0.1021  0.9983  0.6221
  648MOL0     H85507   7.839   1.879   7.187 -0.0208  0.4332  0.2877
  648MOL0     H85508   7.638   1.671   7.067 -3.7863  2.4064 -1.1348
  648MOL0     H85509   7.638   1.726   7.236 -1.7601  1.4072  0.5047
  648MOL0     H85510   7.619   1.883   6.978 -1.4196 -0.4172 -0.5804
  648MOL0     H85511   7.613   1.961   7.143  3.2199 -1.9733  3.2702
  648MOL0     H85512   7.417   1.742   7.068  0.0136 -1.0910  4.8972
  648MOL0     H85513   7.382   1.911   7.026  0.1781 -0.7581 -1.0410
  648MOL0     H85514   7.447   1.813   7.309 -1.4323 -0.6421  0.2352
  648MOL0     H85515   7.382   1.980   7.255 -0.7523 -0.1444  0.4152
  648MOL0     H85516   7.223   1.726   7.243 -1.8819 -0.4250 -0.3781
  648MOL0     H85517   7.180   1.885   7.187  1.0295  1.2536  0.1466
  648MOL0     H85518   8.298   1.632   7.187  0.4046  0.1122  1.8780
  648MOL0     H85519   8.512   1.681   7.288 -2.7840  0.5304  1.1196
  648MOL0     H85520   8.769   1.910   7.509 -1.1770 -2.1137 -2.4547
  648MOL0     H85521   9.018   1.904   7.623 -0.3392 -1.9678 -0.2118
  648MOL0     H85522   9.613   1.599   7.883  2.3039  0.7843 -4.1278
  648MOL0     H85523   9.393   1.512   7.828 -0.4246 -0.3766  1.3630
  648MOL0     H85524   9.028   1.558   7.533 -0.6945 -2.2981 -1.0161
  648MOL0     H85525   8.824   1.494   7.441 -3.2023 -0.8208  0.2306
  648MOL0     H85526   8.435   1.664   7.604 -0.3028  0.2785 -0.8174
  648MOL0     H85527   8.454   1.500   7.683  0.1943 -2.8584 -2.1912
  648MOL0     H85528   8.366   1.570   7.402 -2.7126  0.6631 -0.6548
  648MOL0     H85529   8.385   1.404   7.471 -1.2932  0.0287  3.0952
  648MOL0     H85530   8.198   1.626   7.570  0.4047  0.1842  1.0662
  648MOL0     H85531   8.216   1.471   7.656  4.6614 -1.4869  0.3219
  648MOL0     H85532   8.149   1.501   7.359  0.6252 -0.0877 -0.8042
  648MOL0     H85533   8.131   1.354   7.455 -0.6407 -0.5311  2.6952
  648MOL0     H85534   7.762   1.540   7.506  0.2993  2.6533 -3.4325
  648MOL0     H85535   8.610   1.660   7.773 -2.4514  2.0394 -3.9891
  648MOL0     H85536   8.822   1.692   7.893 -1.6762  1.9670  0.4628
  649MOL0     O85537   8.455   1.150   5.579  0.5868 -0.2264 -0.3656
  649MOL0     C85538   8.484   1.034   5.585 -0.1486  1.1689  0.0024
  649MOL0     O85539   8.395   0.929   5.600 -0.6786  0.2110 -0.1313
  649MOL0     C85540   8.260   0.950   5.588  0.5839 -1.2928 -0.8035
  649MOL0     C85541   8.174   0.860   5.653  0.5877 -0.2107  0.4770
  649MOL0     C85542   8.040   0.876   5.655 -0.1384 -0.9444 -0.4253
  649MOL0     C85543   7.975   0.977   5.577  0.2810 -0.8847  0.4541
  649MOL0     O85544   7.842   1.007   5.578 -0.1117 -0.1092 -0.4385
  649MOL0     C85545   7.765   0.890   5.593 -0.0845 -0.9235  0.3198
  649MOL0     C85546   7.766   0.800   5.469 -0.6004  0.6249  0.3431
  649MOL0     C85547   7.704   0.659   5.489 -0.6595 -0.2054 -0.3052
  649MOL0     C85548   7.564   0.658   5.542  0.7058  0.0556  0.3882
  649MOL0     C85549   7.464   0.731   5.441 -0.3207 -0.7633 -0.7714
  649MOL0     C85550   7.322   0.694   5.476  0.5408  1.3032  0.2119
  649MOL0     C85551   7.228   0.786   5.384  0.3662 -0.2958 -1.0621
  649MOL0     C85552   7.077   0.786   5.416 -0.1328  0.0535  0.5059
  649MOL0     N85553   7.006   0.681   5.334 -0.1665 -0.1331 -0.7454
  649MOL0     C85554   6.940   0.575   5.396 -0.7803 -0.7507 -0.0326
  649MOL0     C85555   6.898   0.502   5.294  0.1267 -0.4941  0.8654
  649MOL0     C85556   6.815   0.382   5.315  0.1650  0.3816  0.6488
  649MOL0     C85557   6.670   0.412   5.287 -0.1430  0.2947  0.4149
  649MOL0     C85558   6.645   0.441   5.134 -0.3853 -0.2090  0.1744
  649MOL0     C85559   6.502   0.409   5.107 -0.0742  0.6896 -0.9453
  649MOL0     O85560   6.473   0.439   4.964 -0.1476  0.7033 -0.1821
  649MOL0     C85561   6.339   0.445   4.931 -0.5277  0.4542 -0.0295
  649MOL0     C85562   6.303   0.470   4.800  0.2882 -0.1843  0.4581
  649MOL0     C85563   6.169   0.475   4.756  0.1898  0.2085 -0.4310
  649MOL0     C85564   6.063   0.457   4.845 -0.0323 -0.1946 -0.1164
  649MOL0     C85565   5.928   0.456   4.786 -0.1714 -0.4604  0.6844
  649MOL0     O85566   5.903   0.509   4.657  0.4974  0.0775  0.1794
  649MOL0     C85567   5.768   0.519   4.626 -0.5508 -0.3771 -0.3811
  649MOL0     C85568   5.678   0.605   4.686  0.0190 -0.4925 -0.0764
  649MOL0     C85569   5.547   0.634   4.641 -0.4216 -0.0438  0.2996
  649MOL0     C85570   5.504   0.570   4.522 -0.0888  0.6163 -0.5546
  649MOL0     O85571   5.375   0.571   4.464 -0.2617  0.3203 -0.0064
  649MOL0     C85572   5.280   0.660   4.524  0.0494 -0.2206  0.2855
  649MOL0     C85573   5.151   0.629   4.446 -0.7249  0.4197 -0.6695
  649MOL0     C85574   5.029   0.703   4.512  0.6781 -0.8736 -1.1488
  649MOL0     C85575   4.897   0.680   4.449 -0.4323 -0.1810 -0.7015
  649MOL0     C85576   4.793   0.782   4.472 -0.3292  0.8024 -0.3210
  649MOL0     C85577   4.651   0.726   4.464 -0.1835  0.5458 -0.1038
  649MOL0     C85578   4.538   0.835   4.476  0.5330 -1.0092 -0.8158
  649MOL0     C85579   4.391   0.786   4.475  0.4719 -0.1423 -0.4349
  649MOL0    Cl85580   4.313   0.934   4.541  0.2330  0.2856 -0.0214
  649MOL0     C85581   5.597   0.488   4.463 -0.4674  0.0047 -0.0583
  649MOL0     C85582   5.716   0.453   4.512  0.2103  0.1011 -0.0694
  649MOL0     O85583   5.839   0.411   4.860  0.5162 -0.0058  0.1776
  649MOL0     C85584   6.098   0.424   4.976 -0.3414 -0.7556 -0.2602
  649MOL0     C85585   6.228   0.419   5.024  0.6412  0.3830  0.0615
  649MOL0     N85586   6.933   0.561   5.179  0.2886 -0.1285  1.2095
  649MOL0     N85587   6.992   0.673   5.204 -0.3338 -0.4095 -0.5182
  649MOL0     C85588   8.058   1.070   5.505  0.0172  0.9245 -0.0794
  649MOL0     C85589   8.200   1.057   5.516 -0.0826  0.3369 -0.6597
  649MOL0     C85590   8.627   1.003   5.616 -0.5196  0.3452 -0.4568
  649MOL0     C85591   8.726   1.102   5.582 -0.1957  0.6369 -1.1841
  649MOL0     C85592   8.862   1.073   5.602 -0.2941 -0.0595  0.0771
  649MOL0     C85593   8.900   0.943   5.637 -0.4664  0.6271 -0.7608
  649MOL0     O85594   9.039   0.920   5.629  0.3257 -0.0749  0.1021
  649MOL0     C85595   9.093   0.786   5.629  0.1484  0.8392  0.1377
  649MOL0     C85596   9.242   0.793   5.644  0.3584 -0.8516 -0.6483
  649MOL0     C85597   9.305   0.650   5.654 -0.2931 -0.1529 -0.1755
  649MOL0     C85598   9.456   0.651   5.668  0.5805  0.5036 -0.2910
  649MOL0     C85599   9.523   0.707   5.557 -0.7112 -0.5730  0.1737
  649MOL0     C85600   9.580   0.752   5.456 -0.7182 -0.2532  0.3466
  649MOL0     C85601   8.796   0.850   5.665 -0.1254 -0.6941 -0.2056
  649MOL0     C85602   8.663   0.875   5.649  0.7323  0.4706  0.4082
  649MOL0     H85603   8.216   0.776   5.708  3.1473  0.4981 -0.2460
  649MOL0     H85604   7.990   0.801   5.716  0.0847  0.1208  1.1291
  649MOL0     H85605   7.663   0.924   5.609 -0.5449 -1.4177 -1.3394
  649MOL0     H85606   7.785   0.833   5.684 -1.1089 -1.3175  0.3076
  649MOL0     H85607   7.867   0.780   5.434  0.1972  0.9272  2.3148
  649MOL0     H85608   7.714   0.853   5.389  0.0076  2.6516  1.2201
  649MOL0     H85609   7.760   0.605   5.566 -0.7039  1.1362  0.7032
  649MOL0     H85610   7.702   0.611   5.390 -2.3500  0.2390 -0.5073
  649MOL0     H85611   7.534   0.553   5.554  1.3885  0.0704  2.7597
  649MOL0     H85612   7.568   0.709   5.639  0.3922  1.2966 -0.2362
  649MOL0     H85613   7.484   0.704   5.337 -0.6463  1.2733 -1.4064
  649MOL0     H85614   7.468   0.841   5.443 -1.3008 -0.7231  0.1270
  649MOL0     H85615   7.303   0.708   5.583 -0.6950 -0.5701  0.2896
  649MOL0     H85616   7.300   0.590   5.448  2.5709  1.4985 -2.5068
  649MOL0     H85617   7.260   0.888   5.405  3.1674 -1.3260  0.2278
  649MOL0     H85618   7.243   0.763   5.279  1.2713 -0.2990 -0.9404
  649MOL0     H85619   7.033   0.881   5.386  1.7993  0.4369 -1.3205
  649MOL0     H85620   7.082   0.774   5.525  1.2660  0.3008  0.4810
  649MOL0     H85621   6.914   0.562   5.500 -2.9604 -1.1655 -0.5802
  649MOL0     H85622   6.822   0.349   5.419  0.4535  2.7929  1.4640
  649MOL0     H85623   6.842   0.298   5.250  0.3772  0.8984  0.0475
  649MOL0     H85624   6.639   0.497   5.349  1.0263  0.2012  1.1762
  649MOL0     H85625   6.611   0.324   5.314  0.5180 -0.3687 -0.2441
  649MOL0     H85626   6.660   0.547   5.111 -0.7435 -0.1994 -0.0177
  649MOL0     H85627   6.703   0.378   5.065  1.9743  0.8902  1.0382
  649MOL0     H85628   6.440   0.467   5.176  2.9146  2.1193  0.7066
  649MOL0     H85629   6.493   0.300   5.116 -0.0251  0.5550 -2.3487
  649MOL0     H85630   6.374   0.487   4.720 -1.9921 -3.5385 -2.6309
  649MOL0     H85631   6.145   0.488   4.651 -0.3554 -0.6447 -0.4225
  649MOL0     H85632   5.701   0.664   4.774 -0.7508  0.9961 -0.8323
  649MOL0     H85633   5.482   0.700   4.698  2.1050  2.1196  0.9226
  649MOL0     H85634   5.303   0.764   4.498  1.4272 -0.9235 -1.4794
  649MOL0     H85635   5.275   0.642   4.632  2.4935  0.1776  0.5225
  649MOL0     H85636   5.116   0.525   4.452 -2.3212  0.9695  0.0801
  649MOL0     H85637   5.152   0.656   4.340  0.5921 -0.1197 -0.8066
  649MOL0     H85638   5.052   0.809   4.527 -0.7724 -0.9635  2.9757
  649MOL0     H85639   5.007   0.673   4.615 -2.8546  2.0242 -0.8628
  649MOL0     H85640   4.901   0.671   4.340 -2.3578  2.3643 -1.0999
  649MOL0     H85641   4.855   0.589   4.493  0.7797  0.2871  1.5705
  649MOL0     H85642   4.807   0.859   4.396  2.8613  0.0670 -0.6335
  649MOL0     H85643   4.802   0.834   4.567 -3.8880  1.3814 -0.1610
  649MOL0     H85644   4.635   0.643   4.533  1.4242  0.1820 -0.1233
  649MOL0     H85645   4.637   0.673   4.369 -0.6021  0.6740 -0.1162
  649MOL0     H85646   4.557   0.895   4.566  2.6432  2.0533 -3.0976
  649MOL0     H85647   4.557   0.902   4.392  0.2470  1.6310  1.0984
  649MOL0     H85648   4.378   0.702   4.543 -0.8050  1.0049  0.8161
  649MOL0     H85649   4.363   0.769   4.371 -1.2808  1.7036 -0.3289
  649MOL0     H85650   5.569   0.426   4.378  1.0122 -0.3334 -0.3226
  649MOL0     H85651   5.774   0.378   4.458  0.4416 -1.4098  2.1286
  649MOL0     H85652   6.017   0.394   5.042  0.4597  0.3231  1.2978
  649MOL0     H85653   6.241   0.403   5.131 -2.1631  2.9708  0.9457
  649MOL0     H85654   8.013   1.144   5.440  0.5936  2.0816  0.8064
  649MOL0     H85655   8.254   1.127   5.452 -0.6640  1.2912 -0.1360
  649MOL0     H85656   8.701   1.199   5.540  2.6619  3.1815  2.2978
  649MOL0     H85657   8.924   1.151   5.560 -2.6091  0.9467 -1.6750
  649MOL0     H85658   9.075   0.737   5.533  0.1346  3.9806 -1.5948
  649MOL0     H85659   9.048   0.731   5.712  1.2351 -1.6805 -0.8427
  649MOL0     H85660   9.286   0.847   5.560  2.0383  0.5478  1.0338
  649MOL0     H85661   9.268   0.860   5.727 -1.3352  2.7202 -2.7726
  649MOL0     H85662   9.268   0.605   5.561 -0.7038 -1.3092  0.5261
  649MOL0     H85663   9.258   0.593   5.735 -3.4725 -0.5920 -2.1213
  649MOL0     H85664   9.487   0.713   5.752 -0.6646 -0.0961  0.6494
  649MOL0     H85665   9.500   0.555   5.694  0.1198  0.0667 -1.0799
  649MOL0     H85666   9.649   0.778   5.378  0.5988 -0.2629  1.4636
  649MOL0     H85667   8.821   0.748   5.691 -0.8186 -0.5683  1.0366
  649MOL0     H85668   8.588   0.799   5.663  1.0991 -0.0935 -0.5992
  650MOL0     O85669   7.819   6.034   3.651 -0.5058 -0.5266  0.6950
  650MOL0     C85670   7.921   5.964   3.643 -0.6853 -0.2175 -0.2759
  650MOL0     O85671   7.929   5.850   3.575 -0.3710  0.4676  0.2329
  650MOL0     C85672   7.830   5.772   3.511 -0.7330 -1.6211 -0.5463
  650MOL0     C85673   7.876   5.667   3.448 -0.3597 -0.2550 -0.4740
  650MOL0     C85674   7.793   5.577   3.376 -0.6805  0.4458 -0.9968
  650MOL0     C85675   7.662   5.608   3.358  0.2606  0.3199  0.0001
  650MOL0     O85676   7.599   5.514   3.281  0.5167 -0.9166 -0.7704
  650MOL0     C85677   7.477   5.557   3.216 -0.1557  0.5090  0.0238
  650MOL0     C85678   7.420   5.459   3.116 -0.3124  0.5478  0.5048
  650MOL0     C85679   7.327   5.519   3.010  0.6542  0.0648 -0.1540
  650MOL0     C85680   7.185   5.536   3.078  0.4324 -0.2383 -0.1629
  650MOL0     C85681   7.077   5.524   2.958 -0.6388  0.3819 -0.5917
  650MOL0     C85682   6.958   5.608   3.006  0.2841 -0.1306  0.0477
  650MOL0     C85683   6.880   5.551   3.125  0.3253 -0.1795  0.1713
  650MOL0     C85684   6.777   5.646   3.178  0.9851 -0.0371 -0.0817
  650MOL0     N85685   6.694   5.591   3.291 -0.7450 -0.1344  1.2548
  650MOL0     C85686   6.741   5.516   3.401  0.0848  0.2213  0.1543
  650MOL0     C85687   6.628   5.498   3.473 -0.1053 -0.2679 -0.4131
  650MOL0     C85688   6.628   5.419   3.604  1.0632 -0.6200  0.4736
  650MOL0     C85689   6.506   5.459   3.684  0.1846 -0.1412 -0.1767
  650MOL0     C85690   6.372   5.396   3.622  0.2075  1.0166  0.5236
  650MOL0     C85691   6.239   5.473   3.660  0.2559 -0.4154  0.6012
  650MOL0     O85692   6.128   5.418   3.588 -0.2121 -0.2705  0.3122
  650MOL0     C85693   5.999   5.470   3.613  0.2905 -0.0245  0.0968
  650MOL0     C85694   5.902   5.379   3.591  0.8098 -0.3950  0.0449
  650MOL0     C85695   5.768   5.418   3.580  0.3731  0.0593 -0.3090
  650MOL0     C85696   5.729   5.550   3.603 -0.2450 -0.9377  0.7793
  650MOL0     C85697   5.578   5.584   3.604 -0.1754 -0.7654  1.1945
  650MOL0     O85698   5.497   5.476   3.616  0.3076 -0.3449 -0.0744
  650MOL0     C85699   5.366   5.509   3.593  0.7334  0.4391 -0.1744
  650MOL0     C85700   5.263   5.506   3.697  0.5950 -0.3876  0.4262
  650MOL0     C85701   5.124   5.537   3.662 -0.5683 -0.3276 -0.2924
  650MOL0     C85702   5.083   5.538   3.533 -0.1251  0.1735 -0.4612
  650MOL0     O85703   4.950   5.564   3.502  0.1897  0.2324 -0.1178
  650MOL0     C85704   4.897   5.549   3.369 -0.1495  0.0129  0.7410
  650MOL0     C85705   4.750   5.586   3.382 -0.1259  0.0497  0.5145
  650MOL0     C85706   4.679   5.554   3.245 -0.1902 -0.7826  0.0146
  650MOL0     C85707   4.520   5.541   3.268 -0.0446  0.8366 -0.3466
  650MOL0     C85708   4.445   5.554   3.136 -0.2277  0.3711  0.3648
  650MOL0     C85709   4.289   5.554   3.152  0.4294  0.9298  0.0520
  650MOL0     C85710   4.243   5.410   3.189 -0.3907 -0.0930  0.3949
  650MOL0     C85711   4.089   5.408   3.185  0.9979  0.3009 -0.2242
  650MOL0    Cl85712   4.035   5.243   3.245 -0.3329  0.3307  0.1000
  650MOL0     C85713   5.179   5.552   3.435 -0.1497  1.0757  1.1428
  650MOL0     C85714   5.320   5.534   3.465  0.3388  0.1565 -0.3296
  650MOL0     O85715   5.542   5.700   3.592  0.0585  0.8131  0.8262
  650MOL0     C85716   5.829   5.643   3.627  0.2904  0.0233  0.6724
  650MOL0     C85717   5.962   5.601   3.633  0.5030 -0.6867  0.9980
  650MOL0     N85718   6.522   5.568   3.415 -0.0328 -0.0818 -0.2632
  650MOL0     N85719   6.565   5.620   3.306  0.4453  0.0992  0.1542
  650MOL0     C85720   7.607   5.722   3.425 -0.3603 -0.7953  0.6681
  650MOL0     C85721   7.696   5.808   3.502  0.5029 -0.4083 -0.1072
  650MOL0     C85722   8.048   5.995   3.710 -0.2266  0.2921 -0.1181
  650MOL0     C85723   8.110   6.126   3.699  0.5151  0.2866  0.2017
  650MOL0     C85724   8.240   6.143   3.755  1.1877  0.1123  0.0236
  650MOL0     C85725   8.307   6.048   3.823  0.3689 -0.3072 -0.3014
  650MOL0     O85726   8.430   6.083   3.877 -0.0466 -1.0117  0.2145
  650MOL0     C85727   8.448   6.059   4.015 -1.1502  0.2858  0.0698
  650MOL0     C85728   8.507   6.184   4.080 -0.3841 -0.0228 -0.0183
  650MOL0     C85729   8.406   6.296   4.090  0.4473  0.1067  0.3749
  650MOL0     C85730   8.308   6.281   4.214 -0.1939  1.1174  1.1197
  650MOL0     C85731   8.242   6.404   4.251  0.4385  0.1366  0.6688
  650MOL0     C85732   8.186   6.513   4.250  0.2379 -0.0621  0.4482
  650MOL0     C85733   8.248   5.924   3.830 -0.6096 -0.2319 -0.4753
  650MOL0     C85734   8.123   5.902   3.780  0.4184  0.1930 -1.0841
  650MOL0     H85735   7.981   5.641   3.443  0.3247  2.3900 -1.0622
  650MOL0     H85736   7.839   5.496   3.319  2.9706  2.7799 -1.6995
  650MOL0     H85737   7.508   5.648   3.164 -0.1648  1.1245  1.0783
  650MOL0     H85738   7.397   5.573   3.290 -0.3410 -2.0676  0.4822
  650MOL0     H85739   7.367   5.378   3.166 -2.7418 -1.1119 -4.1412
  650MOL0     H85740   7.508   5.414   3.068  0.2514  0.8367  1.2570
  650MOL0     H85741   7.323   5.450   2.926 -1.7910  1.6317 -1.4429
  650MOL0     H85742   7.359   5.618   2.977  0.4663  1.3200  3.0070
  650MOL0     H85743   7.180   5.458   3.155  1.7771  0.3113  0.5329
  650MOL0     H85744   7.195   5.621   3.146 -4.0742 -1.4417  2.3690
  650MOL0     H85745   7.062   5.420   2.928  0.3145  0.8455 -2.9331
  650MOL0     H85746   7.123   5.574   2.872  0.2776 -1.3650 -1.1635
  650MOL0     H85747   6.885   5.630   2.927 -0.7178 -0.7192  0.7897
  650MOL0     H85748   7.007   5.701   3.037  0.7275 -1.4173  3.6726
  650MOL0     H85749   6.836   5.454   3.099  3.0583 -1.5965  0.5386
  650MOL0     H85750   6.955   5.530   3.201  0.5551  2.7570  0.8569
  650MOL0     H85751   6.713   5.677   3.094  0.4514  0.8360  0.6356
  650MOL0     H85752   6.823   5.735   3.221  1.1619  0.2597 -0.8724
  650MOL0     H85753   6.840   5.479   3.426  0.0647  0.9987  1.4300
  650MOL0     H85754   6.717   5.428   3.668  0.9993  1.7805  0.3251
  650MOL0     H85755   6.608   5.315   3.577 -1.6345 -0.2000  0.6536
  650MOL0     H85756   6.488   5.567   3.691 -1.8464 -0.4773  0.5482
  650MOL0     H85757   6.530   5.418   3.782  0.5488 -2.8061 -1.3040
  650MOL0     H85758   6.381   5.385   3.514  0.7585 -4.5581  0.8067
  650MOL0     H85759   6.350   5.293   3.653 -0.6508  1.5196  1.6688
  650MOL0     H85760   6.248   5.573   3.616 -0.9965 -0.8412 -0.7006
  650MOL0     H85761   6.216   5.481   3.767  1.7435 -0.6984  0.9686
  650MOL0     H85762   5.930   5.277   3.565 -0.6194 -0.7184 -0.3152
  650MOL0     H85763   5.694   5.342   3.555 -0.3185  0.2999  0.9116
  650MOL0     H85764   5.292   5.487   3.800 -0.1557  0.4325  0.8101
  650MOL0     H85765   5.044   5.527   3.734 -0.3393  0.7328  0.1249
  650MOL0     H85766   4.907   5.447   3.332 -1.2277  0.1666 -0.0125
  650MOL0     H85767   4.945   5.619   3.299 -3.3749  0.5525 -1.1069
  650MOL0     H85768   4.728   5.685   3.421  0.1889  0.4600 -0.3223
  650MOL0     H85769   4.707   5.519   3.457 -1.9582 -0.2577 -0.7383
  650MOL0     H85770   4.721   5.460   3.209  1.8844 -0.5084  1.4814
  650MOL0     H85771   4.698   5.634   3.174  2.6039 -2.2932 -1.1115
  650MOL0     H85772   4.499   5.444   3.313  1.3879  1.8330  2.7525
  650MOL0     H85773   4.492   5.621   3.337  0.2233  2.6314 -2.2239
  650MOL0     H85774   4.484   5.476   3.069  1.3520  1.0469  0.4548
  650MOL0     H85775   4.467   5.652   3.092 -0.3971  1.2855  2.2170
  650MOL0     H85776   4.233   5.591   3.065  0.9869  2.6962  0.3963
  650MOL0     H85777   4.272   5.628   3.231  0.7209  3.4359 -2.0955
  650MOL0     H85778   4.272   5.336   3.114 -0.7570  0.4240 -0.2649
  650MOL0     H85779   4.288   5.392   3.287  2.3853 -0.1590 -0.7858
  650MOL0     H85780   4.058   5.423   3.081  0.8429  0.6711 -0.1239
  650MOL0     H85781   4.045   5.483   3.251 -0.5018  1.2352 -2.1774
  650MOL0     H85782   5.144   5.553   3.333  2.7555 -0.7964 -0.0078
  650MOL0     H85783   5.384   5.531   3.378 -0.6863  1.8454 -1.2017
  650MOL0     H85784   5.800   5.745   3.645 -2.5431 -0.4727 -0.5472
  650MOL0     H85785   6.037   5.678   3.643  1.0465 -0.9385 -0.7332
  650MOL0     H85786   7.503   5.745   3.409 -0.1970  0.8445  1.7461
  650MOL0     H85787   7.654   5.900   3.543  2.9367  0.1369  1.3626
  650MOL0     H85788   8.053   6.201   3.646  0.1926 -0.5831 -0.7004
  650MOL0     H85789   8.273   6.245   3.739 -1.3866  0.5684 -3.7607
  650MOL0     H85790   8.523   5.980   4.022  0.3582  1.5977 -0.5943
  650MOL0     H85791   8.365   6.039   4.083 -1.2972  0.2942 -0.1070
  650MOL0     H85792   8.538   6.154   4.180  1.0214 -0.7354 -0.6366
  650MOL0     H85793   8.595   6.223   4.027 -1.3084  2.7093  0.3376
  650MOL0     H85794   8.346   6.306   3.999  0.2040 -0.1694  0.5004
  650MOL0     H85795   8.457   6.391   4.104 -1.6160  1.3594 -0.1539
  650MOL0     H85796   8.233   6.204   4.197  1.8847 -0.5354 -1.3183
  650MOL0     H85797   8.364   6.259   4.306  0.9299 -1.0295  0.0033
  650MOL0     H85798   8.143   6.612   4.251 -0.9480 -0.5201  2.8238
  650MOL0     H85799   8.299   5.838   3.870 -2.0332 -0.5306  0.7864
  650MOL0     H85800   8.093   5.799   3.796  1.5807 -0.3184 -1.9860
  651MOL0     O85801   4.090   0.096   1.727  0.1351 -0.2475  0.8351
  651MOL0     C85802   4.097  -0.014   1.679  0.6470 -0.2737  0.1538
  651MOL0     O85803   3.992  -0.093   1.636 -0.6605  0.4178  0.3871
  651MOL0     C85804   3.868  -0.034   1.620  0.7522 -0.1259 -0.7388
  651MOL0     C85805   3.826  -0.016   1.490 -0.1534 -0.1285 -0.4088
  651MOL0     C85806   3.697   0.017   1.459  0.6446 -1.1881  0.2096
  651MOL0     C85807   3.596   0.024   1.557 -0.5856  0.6328  0.0125
  651MOL0     O85808   3.461   0.033   1.532  0.1732 -0.2689 -0.0093
  651MOL0     C85809   3.414  -0.004   1.402 -0.9449  0.2109 -0.9652
  651MOL0     C85810   3.420   0.126   1.308 -0.3378  0.2720 -0.7252
  651MOL0     C85811   3.343   0.237   1.377  0.1773  0.7923  0.7323
  651MOL0     C85812   3.312   0.363   1.295  0.1740  0.4666  0.0064
  651MOL0     C85813   3.288   0.476   1.384  0.0405  0.7022  0.1343
  651MOL0     C85814   3.167   0.461   1.481  0.1785  0.3005  0.0380
  651MOL0     C85815   3.094   0.599   1.505  0.2672  0.5128 -0.7941
  651MOL0     C85816   2.996   0.593   1.624 -0.2612 -0.4905  0.7606
  651MOL0     N85817   2.908   0.478   1.631  0.7953  0.4915 -0.5603
  651MOL0     C85818   2.859   0.422   1.747 -0.3203  0.2212 -0.1813
  651MOL0     C85819   2.772   0.334   1.704 -0.6014  0.4337  0.4934
  651MOL0     C85820   2.683   0.242   1.797  0.5448  0.0638 -1.0687
  651MOL0     C85821   2.551   0.307   1.849  0.3045 -0.4929  0.2013
  651MOL0     C85822   2.581   0.441   1.934  0.4381  0.7396  0.8298
  651MOL0     C85823   2.460   0.489   2.006 -0.3460 -0.3452  0.2745
  651MOL0     O85824   2.439   0.406   2.122  1.0972  0.1113  0.9496
  651MOL0     C85825   2.318   0.418   2.195 -0.5411  0.0210 -0.0364
  651MOL0     C85826   2.303   0.335   2.308  0.0425  0.6796 -0.6378
  651MOL0     C85827   2.186   0.335   2.394 -0.2011 -0.1039  0.3277
  651MOL0     C85828   2.080   0.416   2.364 -0.4619  0.0134  0.3250
  651MOL0     C85829   1.954   0.410   2.436  0.2353  0.5275 -0.8934
  651MOL0     O85830   1.848   0.466   2.381  0.5527 -0.2177 -0.5944
  651MOL0     C85831   1.733   0.452   2.453  0.5699  0.6914  0.7161
  651MOL0     C85832   1.689   0.546   2.544 -0.0658  0.6193  1.0543
  651MOL0     C85833   1.567   0.531   2.604  0.5616  0.1906 -0.1796
  651MOL0     C85834   1.500   0.408   2.592  0.7908 -0.4282 -0.2108
  651MOL0     O85835   1.379   0.400   2.661 -0.3811 -0.0257  0.3243
  651MOL0     C85836   1.258   0.374   2.586  0.9185 -0.6636 -0.1649
  651MOL0     C85837   1.213   0.494   2.500 -0.4081  0.0870  0.3520
  651MOL0     C85838   1.192   0.609   2.594 -0.0817 -0.1140 -0.7183
  651MOL0     C85839   1.107   0.714   2.533  0.0725 -0.5724 -1.1800
  651MOL0     C85840   1.115   0.851   2.611 -0.1021  0.2648  0.3871
  651MOL0     C85841   1.213   0.949   2.550 -0.5816  0.6462 -0.5830
  651MOL0     C85842   1.365   0.926   2.568  0.6348  0.1899  1.0776
  651MOL0     C85843   1.447   1.036   2.507 -0.0781 -0.6335  0.8021
  651MOL0    Cl85844   1.410   1.031   2.333 -0.0659 -0.4249  0.2702
  651MOL0     C85845   1.549   0.313   2.510  0.4591  0.9852 -0.7585
  651MOL0     C85846   1.663   0.335   2.435 -0.3729 -0.5347 -0.0578
  651MOL0     O85847   1.949   0.350   2.543  0.3215  0.2310  0.0261
  651MOL0     C85848   2.098   0.504   2.261  1.2887  0.7554 -0.3989
  651MOL0     C85849   2.207   0.496   2.172  0.4107 -0.3194  0.7984
  651MOL0     N85850   2.765   0.329   1.568 -0.3855 -0.1089  0.1714
  651MOL0     N85851   2.852   0.413   1.523  0.4020 -0.4167  0.4356
  651MOL0     C85852   3.638  -0.010   1.689  0.2361 -0.9354  0.2024
  651MOL0     C85853   3.775  -0.028   1.724 -0.1106  0.1945 -1.1741
  651MOL0     C85854   4.234  -0.068   1.678  0.2384  0.2442  0.0589
  651MOL0     C85855   4.265  -0.193   1.624  0.6246  0.2169 -1.1281
  651MOL0     C85856   4.401  -0.240   1.628 -0.4617 -0.3556 -0.4377
  651MOL0     C85857   4.505  -0.166   1.683 -0.0976 -0.6464  0.4059
  651MOL0     O85858   4.630  -0.219   1.673  0.6390  0.0716 -0.4085
  651MOL0     C85859   4.740  -0.182   1.773 -0.3760 -0.7888 -0.1288
  651MOL0     C85860   4.723  -0.210   1.922  0.0536  1.0326 -0.0430
  651MOL0     C85861   4.837  -0.174   2.009 -0.1205 -0.3731  1.2973
  651MOL0     C85862   4.961  -0.263   1.964 -0.1522  0.5096  0.0731
  651MOL0     C85863   5.049  -0.199   1.862 -0.1565 -0.7873 -0.5720
  651MOL0     C85864   5.133  -0.135   1.801 -0.5566 -0.0466 -0.3068
  651MOL0     C85865   4.475  -0.037   1.731 -0.2568  0.2497  0.2240
  651MOL0     C85866   4.339   0.006   1.736  0.1025  0.3710 -0.5644
  651MOL0     H85867   3.888  -0.036   1.403  0.2612 -0.6558 -0.0031
  651MOL0     H85868   3.668   0.037   1.357 -0.8739  0.3106  0.8730
  651MOL0     H85869   3.311  -0.039   1.416 -0.3807 -1.3266 -0.3100
  651MOL0     H85870   3.461  -0.099   1.376 -0.5435  0.1556 -0.0853
  651MOL0     H85871   3.364   0.100   1.218 -1.5607 -0.4809  0.2123
  651MOL0     H85872   3.521   0.164   1.289 -1.2155  3.0834 -0.1416
  651MOL0     H85873   3.407   0.271   1.459  3.8478 -2.9561 -0.2522
  651MOL0     H85874   3.252   0.199   1.424  1.6777 -3.4866  0.6289
  651MOL0     H85875   3.394   0.379   1.224 -0.8469 -1.8456 -1.8419
  651MOL0     H85876   3.218   0.352   1.240  0.8469  0.5612 -1.1977
  651MOL0     H85877   3.260   0.563   1.324  0.9155  1.9914  1.5181
  651MOL0     H85878   3.376   0.489   1.447  1.0034 -0.6381 -0.8911
  651MOL0     H85879   3.213   0.436   1.577  1.4716  2.1732 -0.0381
  651MOL0     H85880   3.094   0.389   1.443  1.3581 -0.0380 -1.6539
  651MOL0     H85881   3.164   0.679   1.529  0.4379  0.3812 -0.8483
  651MOL0     H85882   3.026   0.620   1.422  0.7424 -0.4172 -1.4410
  651MOL0     H85883   2.942   0.688   1.633  2.3016  0.9162  2.8483
  651MOL0     H85884   3.053   0.596   1.718  1.0260  1.8577 -0.0175
  651MOL0     H85885   2.896   0.449   1.846  2.4602 -3.1437 -0.0992
  651MOL0     H85886   2.754   0.220   1.877  0.0266  1.6631 -0.1073
  651MOL0     H85887   2.669   0.149   1.741  1.3088  0.2673 -1.6052
  651MOL0     H85888   2.489   0.233   1.900  1.4955 -2.2689 -0.8024
  651MOL0     H85889   2.494   0.325   1.757  0.9697 -1.5110 -0.4230
  651MOL0     H85890   2.662   0.421   2.004 -0.4817 -2.0141  1.2392
  651MOL0     H85891   2.609   0.518   1.861  2.0967 -0.4569  0.1437
  651MOL0     H85892   2.370   0.487   1.944 -0.7821 -0.1908  0.8968
  651MOL0     H85893   2.475   0.587   2.052 -2.1528 -0.9287  2.2803
  651MOL0     H85894   2.396   0.287   2.335  0.7812  1.7036 -1.3140
  651MOL0     H85895   2.184   0.279   2.488 -2.4570  0.5847  0.7343
  651MOL0     H85896   1.737   0.642   2.559  0.4053  0.5489  0.0252
  651MOL0     H85897   1.528   0.621   2.651 -1.1163 -0.1227 -0.8958
  651MOL0     H85898   1.179   0.356   2.659 -1.0179  1.0212 -1.7012
  651MOL0     H85899   1.283   0.285   2.526  1.8275  0.6644 -1.8605
  651MOL0     H85900   1.117   0.478   2.449 -0.9805  1.1641  1.0329
  651MOL0     H85901   1.284   0.514   2.420 -1.7351 -0.0356 -0.8896
  651MOL0     H85902   1.290   0.649   2.621  0.6064 -2.6932  1.0822
  651MOL0     H85903   1.151   0.583   2.692 -1.0953 -0.1289 -1.1388
  651MOL0     H85904   1.151   0.736   2.435  2.8529  1.8722  0.4251
  651MOL0     H85905   1.006   0.672   2.531  0.1415 -0.7299 -1.4031
  651MOL0     H85906   1.144   0.838   2.715 -1.8288  0.4026  0.9104
  651MOL0     H85907   1.022   0.908   2.610  0.7447  1.8140 -2.3285
  651MOL0     H85908   1.199   1.051   2.587  3.1977  0.6980  1.0693
  651MOL0     H85909   1.199   0.946   2.441  1.6007 -0.1306 -0.8873
  651MOL0     H85910   1.384   0.922   2.676  0.7992 -2.5126  1.0239
  651MOL0     H85911   1.402   0.831   2.530  0.4067 -0.7155  3.0019
  651MOL0     H85912   1.556   1.029   2.520  0.2429  1.9528  0.0893
  651MOL0     H85913   1.416   1.131   2.553 -0.5929 -0.6585  0.5140
  651MOL0     H85914   1.499   0.216   2.510  0.0536  0.9965  3.3805
  651MOL0     H85915   1.705   0.261   2.367 -0.9288 -1.0511  0.1456
  651MOL0     H85916   2.025   0.581   2.238  1.0533  1.2571  1.8217
  651MOL0     H85917   2.203   0.562   2.086  1.6102  0.6106  1.4358
  651MOL0     H85918   3.556  -0.015   1.760 -0.3962 -0.4060 -0.4756
  651MOL0     H85919   3.803  -0.060   1.823 -0.1413 -2.1454 -1.8576
  651MOL0     H85920   4.195  -0.270   1.591 -1.4794  0.5673  2.1271
  651MOL0     H85921   4.431  -0.338   1.590  2.0904  0.5495 -0.9907
  651MOL0     H85922   4.759  -0.074   1.767 -0.4520 -0.8547 -2.9711
  651MOL0     H85923   4.835  -0.230   1.746  0.6684 -0.1428  2.1371
  651MOL0     H85924   4.635  -0.153   1.954 -1.4579 -0.8040 -0.7382
  651MOL0     H85925   4.706  -0.318   1.930  2.5068  0.6309  0.4733
  651MOL0     H85926   4.818  -0.193   2.115  1.3168  1.4718  1.9523
  651MOL0     H85927   4.860  -0.068   1.997  0.1721 -0.6404 -0.8754
  651MOL0     H85928   5.017  -0.277   2.057 -2.5551 -0.8928  1.4259
  651MOL0     H85929   4.927  -0.355   1.916 -1.3824  1.9424 -2.0081
  651MOL0     H85930   5.201  -0.084   1.736 -0.4471  0.5802  0.2940
  651MOL0     H85931   4.555   0.028   1.767  0.6916 -1.1431  0.7162
  651MOL0     H85932   4.329   0.100   1.788  1.0750 -0.8141  1.9071
  652MOL0     O85933   0.237   9.560   8.157 -0.5223  0.1294  0.0154
  652MOL0     C85934   0.240   9.664   8.215 -0.0428 -0.2027 -0.1674
  652MOL0     O85935   0.128   9.737   8.250 -0.2866  0.1567  0.4081
  652MOL0     C85936  -0.002   9.696   8.218 -0.4921 -1.0348 -0.5178
  652MOL0     C85937  -0.053   9.564   8.223  0.0703  0.1011  0.0789
  652MOL0     C85938  -0.187   9.533   8.212  0.3796 -0.7850 -0.7697
  652MOL0     C85939  -0.283   9.642   8.192  0.7908 -0.1712 -0.1088
  652MOL0     O85940  -0.418   9.614   8.176 -0.0543 -0.5136  0.5519
  652MOL0     C85941  -0.484   9.572   8.298 -0.3463  0.4926  0.0733
  652MOL0     C85942  -0.588   9.457   8.279  0.4095  0.1365  0.0426
  652MOL0     C85943  -0.678   9.465   8.150  0.1854  0.8474 -0.5303
  652MOL0     C85944  -0.805   9.380   8.177  1.0150 -1.8176  0.4023
  652MOL0     C85945  -0.890   9.357   8.046  0.7343 -0.3255 -0.1437
  652MOL0     C85946  -1.018   9.266   8.065 -0.6207  0.3905 -0.3737
  652MOL0     C85947  -1.077   9.240   7.929 -0.5155  0.3880 -0.0353
  652MOL0     C85948  -1.153   9.361   7.876  0.5822 -0.6275  1.1921
  652MOL0     N85949  -1.218   9.324   7.751 -0.2250 -0.3738  0.0352
  652MOL0     C85950  -1.344   9.267   7.749  0.4461  0.1133 -0.1267
  652MOL0     C85951  -1.366   9.239   7.620 -0.8083 -0.7151 -0.5464
  652MOL0     C85952  -1.484   9.173   7.562 -0.2049  0.3301 -0.1030
  652MOL0     C85953  -1.626   9.233   7.606  0.2360 -0.5953 -0.4625
  652MOL0     C85954  -1.648   9.383   7.543 -0.3925  0.5334  0.4602
  652MOL0     C85955  -1.563   9.497   7.598 -0.4059  0.2232 -0.1380
  652MOL0     O85956  -1.622   9.628   7.565 -0.0524 -0.3755 -0.0161
  652MOL0     C85957  -1.719   9.680   7.652 -0.3666  0.0460 -0.2478
  652MOL0     C85958  -1.741   9.812   7.630 -0.2651 -0.5965 -0.1747
  652MOL0     C85959  -1.831   9.886   7.700  0.0697 -0.3166 -0.3262
  652MOL0     C85960  -1.906   9.827   7.802  0.5778 -0.0343 -0.2475
  652MOL0     C85961  -2.012   9.901   7.871  0.6929 -0.6487 -0.0850
  652MOL0     O85962  -2.091   9.823   7.954  0.1611 -0.1252  0.5824
  652MOL0     C85963  -2.188   9.883   8.026  0.5771 -0.7551  0.0484
  652MOL0     C85964  -2.212   9.819   8.149  0.7668 -0.8230  0.4608
  652MOL0     C85965  -2.306   9.869   8.241 -0.6135  0.8460  1.0028
  652MOL0     C85966  -2.375   9.992   8.210 -0.2540 -0.4314  0.0522
  652MOL0     O85967  -2.462  10.037   8.297  0.3643 -0.1465 -0.5241
  652MOL0     C85968  -2.539  10.155   8.266 -0.8182 -0.5203 -0.3226
  652MOL0     C85969  -2.624  10.211   8.383 -0.4078 -0.3278 -0.1033
  652MOL0     C85970  -2.750  10.266   8.324 -0.1452  0.7688 -0.0346
  652MOL0     C85971  -2.828  10.348   8.437 -0.3350 -0.2371  0.8185
  652MOL0     C85972  -2.955  10.402   8.377 -0.4664 -0.5784 -0.2790
  652MOL0     C85973  -3.034  10.471   8.487 -0.0963  0.3579  0.0879
  652MOL0     C85974  -3.144  10.559   8.434  0.1565  0.5193 -0.0996
  652MOL0     C85975  -3.197  10.659   8.545 -0.2100 -0.7280  0.8827
  652MOL0    Cl85976  -3.071  10.788   8.523  0.0532  0.4250 -0.2161
  652MOL0     C85977  -2.358  10.051   8.081  1.2544 -0.2221 -0.3265
  652MOL0     C85978  -2.272   9.992   7.985  0.4624 -0.3724  0.2259
  652MOL0     O85979  -2.019  10.026   7.864  0.1628  0.0401  0.0552
  652MOL0     C85980  -1.891   9.688   7.819  0.3941 -0.0570 -0.3289
  652MOL0     C85981  -1.796   9.610   7.754  0.0335 -0.7239  1.2608
  652MOL0     N85982  -1.252   9.273   7.553 -0.8501 -0.5834  0.8769
  652MOL0     N85983  -1.165   9.327   7.629  0.3303 -0.1766  0.5010
  652MOL0     C85984  -0.237   9.771   8.177  0.4562 -0.0912 -0.4221
  652MOL0     C85985  -0.100   9.796   8.196  0.0402 -0.7852 -0.0293
  652MOL0     C85986   0.370   9.730   8.248 -0.1684 -0.0409  0.1478
  652MOL0     C85987   0.394   9.848   8.332 -0.9706  0.3594 -0.2193
  652MOL0     C85988   0.527   9.902   8.354 -0.2949  0.0824 -0.7750
  652MOL0     C85989   0.640   9.836   8.303 -0.6867  0.2282  0.6732
  652MOL0     O85990   0.767   9.881   8.343  0.6648 -0.4992 -0.0664
  652MOL0     C85991   0.889   9.841   8.275 -0.6825  0.4924 -0.5928
  652MOL0     C85992   0.987   9.952   8.259  0.0646 -0.4947  0.5681
  652MOL0     C85993   1.032  10.001   8.397  0.5150 -0.5373  0.3321
  652MOL0     C85994   1.170  10.074   8.375  0.0479  0.5169  0.4074
  652MOL0     C85995   1.214  10.154   8.486 -0.6005 -0.4638 -0.4762
  652MOL0     C85996   1.264  10.233   8.567 -0.3172 -0.0402 -0.3692
  652MOL0     C85997   0.617   9.721   8.235 -0.5766  0.3862 -0.8031
  652MOL0     C85998   0.493   9.667   8.206  0.2375  0.4566 -1.2477
  652MOL0     H85999   0.012   9.482   8.253  1.0363  0.0337 -2.0491
  652MOL0     H86000  -0.232   9.435   8.217 -2.5324  0.4620 -0.8173
  652MOL0     H86001  -0.525   9.662   8.346  0.2624 -0.1554  1.8687
  652MOL0     H86002  -0.407   9.531   8.364  1.2763  1.7991 -0.9187
  652MOL0     H86003  -0.654   9.478   8.364 -1.0569 -0.8629 -0.8013
  652MOL0     H86004  -0.538   9.360   8.278 -0.7189 -0.4599 -0.6156
  652MOL0     H86005  -0.615   9.434   8.066  2.1115  0.5119  0.9809
  652MOL0     H86006  -0.706   9.571   8.152 -3.5851 -0.0329 -0.0374
  652MOL0     H86007  -0.780   9.280   8.213 -0.2055 -2.3205 -0.1074
  652MOL0     H86008  -0.864   9.427   8.256 -1.1470 -2.2317 -0.8671
  652MOL0     H86009  -0.821   9.320   7.969  1.6683  2.1659 -0.5950
  652MOL0     H86010  -0.926   9.450   8.000  1.1707 -0.8356 -1.5712
  652MOL0     H86011  -1.094   9.312   8.129 -1.4682 -0.2155 -0.9137
  652MOL0     H86012  -0.979   9.176   8.113  1.5718  2.9062  3.0019
  652MOL0     H86013  -0.994   9.204   7.868  1.1108 -0.8612  2.7228
  652MOL0     H86014  -1.151   9.160   7.933  2.1755 -2.1922  1.5189
  652MOL0     H86015  -1.088   9.448   7.862 -0.3432 -0.2617 -1.2089
  652MOL0     H86016  -1.228   9.395   7.949 -1.2202  0.5725 -1.0805
  652MOL0     H86017  -1.401   9.234   7.835 -0.5798  0.9259 -0.4754
  652MOL0     H86018  -1.486   9.067   7.589 -2.4311 -0.4050 -2.7669
  652MOL0     H86019  -1.480   9.162   7.454 -0.4493  0.6053 -0.1401
  652MOL0     H86020  -1.636   9.228   7.715 -0.5537  0.0798 -0.4934
  652MOL0     H86021  -1.709   9.172   7.570 -1.5983  0.7023  1.3353
  652MOL0     H86022  -1.619   9.373   7.438 -1.6197 -1.4852  0.2530
  652MOL0     H86023  -1.752   9.415   7.553 -0.7900  0.0547 -1.7063
  652MOL0     H86024  -1.462   9.496   7.556 -0.5593  3.9669 -0.9393
  652MOL0     H86025  -1.558   9.473   7.705  1.7924  1.0303 -0.0223
  652MOL0     H86026  -1.670   9.856   7.561  4.5277 -3.1951  2.5781
  652MOL0     H86027  -1.851   9.988   7.670 -2.7588 -1.4356 -2.7070
  652MOL0     H86028  -2.152   9.733   8.177  1.0281 -0.7102  0.2508
  652MOL0     H86029  -2.329   9.819   8.335 -0.0341 -1.1765  0.1212
  652MOL0     H86030  -2.604  10.133   8.181  0.0044 -2.3533 -0.5127
  652MOL0     H86031  -2.460  10.228   8.249 -0.8248 -0.9225 -2.3227
  652MOL0     H86032  -2.570  10.299   8.420  0.5037 -0.7936 -0.3085
  652MOL0     H86033  -2.644  10.137   8.461  1.5267 -1.2971 -0.4860
  652MOL0     H86034  -2.819  10.189   8.288 -0.0157 -0.3229  1.9176
  652MOL0     H86035  -2.724  10.328   8.238 -0.5540 -0.4228 -1.0629
  652MOL0     H86036  -2.861  10.292   8.525 -0.0931 -1.0583  0.4032
  652MOL0     H86037  -2.768  10.426   8.484 -1.1347  0.4107  0.7885
  652MOL0     H86038  -3.017  10.322   8.336 -0.5924 -0.4795 -0.2808
  652MOL0     H86039  -2.938  10.473   8.295 -2.1832 -0.0707 -0.2233
  652MOL0     H86040  -2.967  10.541   8.536  1.8469  0.4855 -2.5460
  652MOL0     H86041  -3.070  10.402   8.565  0.4053  0.9375  0.8409
  652MOL0     H86042  -3.108  10.620   8.351 -0.1740  2.2217  0.9592
  652MOL0     H86043  -3.235  10.501   8.412 -3.2663  3.9565  3.3923
  652MOL0     H86044  -3.201  10.627   8.649  0.1710  2.0517  1.8242
  652MOL0     H86045  -3.294  10.698   8.510 -0.0263  0.8410  1.9976
  652MOL0     H86046  -2.398  10.151   8.067 -0.7315 -0.8680  0.3133
  652MOL0     H86047  -2.257  10.058   7.901  0.3185  3.9199  3.2594
  652MOL0     H86048  -1.944   9.641   7.901  0.8921  3.3955  2.1918
  652MOL0     H86049  -1.794   9.502   7.766 -3.2769 -0.8431  1.7642
  652MOL0     H86050  -0.307   9.847   8.143 -0.0437 -0.5434 -0.4202
  652MOL0     H86051  -0.066   9.897   8.172 -1.7304 -0.4276 -1.2428
  652MOL0     H86052   0.313   9.908   8.370 -0.8549  0.0145  0.5893
  652MOL0     H86053   0.528   9.985   8.424  3.6129 -1.9229  1.8944
  652MOL0     H86054   0.868   9.788   8.181 -1.1993  1.4898 -1.0505
  652MOL0     H86055   0.930   9.763   8.340  2.6961  0.0088 -3.0187
  652MOL0     H86056   1.079   9.926   8.205  0.3409 -0.0391  0.8175
  652MOL0     H86057   0.934  10.023   8.196  2.9580 -0.5150 -2.1546
  652MOL0     H86058   1.038   9.916   8.465  0.4186 -1.9777 -1.3977
  652MOL0     H86059   0.953  10.066   8.437 -0.0273  1.8301 -3.9654
  652MOL0     H86060   1.250  10.007   8.343  0.5590  1.8465 -1.2573
  652MOL0     H86061   1.162  10.143   8.290  1.1681 -0.6481 -0.7033
  652MOL0     H86062   1.310  10.306   8.630 -1.3382  0.5304 -0.2577
  652MOL0     H86063   0.696   9.660   8.193 -1.6168 -1.2832 -0.4257
  652MOL0     H86064   0.492   9.579   8.141  0.9505 -1.2632  0.9547
  653MOL0     O86065   0.339   4.838   0.322 -0.8699 -0.1837 -0.2689
  653MOL0     C86066   0.369   4.960   0.338  0.8995 -0.8711 -0.4561
  653MOL0     O86067   0.275   5.062   0.336 -0.1881  0.2889 -0.6497
  653MOL0     C86068   0.142   5.018   0.357 -0.6251  0.8148 -0.5867
  653MOL0     C86069   0.095   4.931   0.453 -0.3699  0.3583 -0.1387
  653MOL0     C86070  -0.044   4.911   0.472  0.0765 -0.1136  0.1627
  653MOL0     C86071  -0.136   4.977   0.390  0.8680 -0.1776  0.6312
  653MOL0     O86072  -0.270   4.953   0.420  0.2300  0.0926 -0.1581
  653MOL0     C86073  -0.378   5.004   0.340  0.3413  0.6480 -0.2932
  653MOL0     C86074  -0.495   4.995   0.443 -1.0136  0.2124 -0.6235
  653MOL0     C86075  -0.634   5.040   0.388  0.2298  0.3588  0.1975
  653MOL0     C86076  -0.743   5.068   0.506  0.1809  0.2876  0.1207
  653MOL0     C86077  -0.866   5.134   0.436  0.7437  0.5354 -0.0629
  653MOL0     C86078  -0.958   5.037   0.355 -0.3813 -0.2268 -0.2140
  653MOL0     C86079  -0.998   4.905   0.423  0.0357 -0.0520  0.0683
  653MOL0     C86080  -1.071   4.931   0.556  0.4609  0.5141 -0.8510
  653MOL0     N86081  -1.193   5.007   0.559  0.2687 -0.0300 -0.1323
  653MOL0     C86082  -1.241   5.088   0.662 -0.2348 -0.6065  0.7320
  653MOL0     C86083  -1.356   5.133   0.617  0.9146 -0.7547  0.6687
  653MOL0     C86084  -1.467   5.223   0.679 -0.6641 -0.2957 -0.3903
  653MOL0     C86085  -1.547   5.152   0.789 -0.4711 -0.3852 -0.3603
  653MOL0     C86086  -1.634   5.036   0.739  0.2298 -0.8846  0.2730
  653MOL0     C86087  -1.757   5.074   0.652  0.2375 -0.0261  0.5493
  653MOL0     O86088  -1.847   5.164   0.723  0.2763  0.0991  0.6649
  653MOL0     C86089  -1.966   5.215   0.676  0.8058 -0.1573 -0.0175
  653MOL0     C86090  -2.038   5.305   0.762 -0.5602  0.9855  0.4677
  653MOL0     C86091  -2.153   5.367   0.716 -0.0887  0.5357 -0.2928
  653MOL0     C86092  -2.209   5.342   0.585 -0.5687  0.6381  0.3507
  653MOL0     C86093  -2.342   5.387   0.550  0.3265  0.2835 -0.3376
  653MOL0     O86094  -2.421   5.437   0.649 -0.5770 -0.0232  0.2050
  653MOL0     C86095  -2.556   5.469   0.630 -1.1386  0.4165 -0.4581
  653MOL0     C86096  -2.631   5.471   0.747 -1.1887 -0.6455  0.8529
  653MOL0     C86097  -2.773   5.504   0.734 -0.6848  0.1310 -0.3269
  653MOL0     C86098  -2.833   5.522   0.612 -0.3467 -1.5343  0.9510
  653MOL0     O86099  -2.965   5.544   0.600 -0.1845 -0.7644  0.1566
  653MOL0     C86100  -3.022   5.679   0.622  0.4514 -0.2019  0.5106
  653MOL0     C86101  -3.163   5.688   0.572 -0.7712  0.7160 -0.6364
  653MOL0     C86102  -3.179   5.666   0.416 -0.4362  0.3624 -0.8941
  653MOL0     C86103  -3.141   5.792   0.339  0.2804 -0.0867  0.6229
  653MOL0     C86104  -3.127   5.781   0.183  0.8641  0.2904 -0.5140
  653MOL0     C86105  -3.069   5.908   0.095  0.5397 -0.1200  0.0429
  653MOL0     C86106  -3.041   5.867  -0.047  0.6890 -0.6363 -0.6879
  653MOL0     C86107  -3.169   5.867  -0.133  0.3318 -0.2099 -0.9820
  653MOL0    Cl86108  -3.231   6.030  -0.153 -0.0475  0.1857  0.1021
  653MOL0     C86109  -2.750   5.536   0.503  0.0010 -1.0422  0.3206
  653MOL0     C86110  -2.611   5.505   0.510 -0.0800 -0.0849  0.2321
  653MOL0     O86111  -2.373   5.369   0.439 -0.1634 -0.0379  0.8730
  653MOL0     C86112  -2.137   5.242   0.504  1.0227  0.7862 -0.4119
  653MOL0     C86113  -2.018   5.186   0.551  0.0651 -0.4764  0.1359
  653MOL0     N86114  -1.379   5.091   0.487 -0.2070 -0.4531  0.3930
  653MOL0     N86115  -1.280   5.009   0.456  0.1693 -0.6894  0.5027
  653MOL0     C86116  -0.087   5.051   0.284  0.3361 -0.6334  0.5551
  653MOL0     C86117   0.049   5.075   0.271 -0.0703 -0.6990  0.5223
  653MOL0     C86118   0.506   4.993   0.348  0.6796 -0.2818 -0.1182
  653MOL0     C86119   0.584   4.920   0.434 -0.5391  0.1134 -1.0253
  653MOL0     C86120   0.719   4.942   0.460 -0.0264 -0.4278 -0.2726
  653MOL0     C86121   0.783   5.046   0.399 -0.3024  0.0146  0.1899
  653MOL0     O86122   0.921   5.053   0.424  0.4836 -0.0055  0.1684
  653MOL0     C86123   1.001   5.110   0.323  0.1741 -0.6088  0.8733
  653MOL0     C86124   1.139   5.126   0.380 -0.5098  0.3157  0.2431
  653MOL0     C86125   1.199   4.979   0.410  0.3862 -0.3015 -0.3035
  653MOL0     C86126   1.318   4.991   0.501  0.5983  0.4242 -0.2373
  653MOL0     C86127   1.446   5.052   0.462  0.9089 -0.4215  0.4294
  653MOL0     C86128   1.553   5.106   0.438 -0.1445 -0.3868 -0.1572
  653MOL0     C86129   0.705   5.129   0.313  0.9216  0.1731  0.4627
  653MOL0     C86130   0.569   5.105   0.290 -0.1796  0.0157 -0.9016
  653MOL0     H86131   0.175   4.887   0.512  0.6175  1.2638 -0.7618
  653MOL0     H86132  -0.074   4.837   0.546 -2.2195 -1.1874 -1.6837
  653MOL0     H86133  -0.390   4.924   0.267  0.6703 -0.4063  0.7874
  653MOL0     H86134  -0.366   5.108   0.307 -0.7599  0.1623 -2.3428
  653MOL0     H86135  -0.473   5.056   0.531 -0.5038 -1.0124  0.1259
  653MOL0     H86136  -0.498   4.887   0.464  2.4266 -0.0724 -1.0016
  653MOL0     H86137  -0.663   4.958   0.322  2.0444  0.3616 -0.6616
  653MOL0     H86138  -0.620   5.131   0.328 -0.7648 -0.2411 -0.9780
  653MOL0     H86139  -0.778   4.974   0.548 -1.7283  1.6588  1.8128
  653MOL0     H86140  -0.705   5.128   0.589  1.2725 -3.2111  2.3564
  653MOL0     H86141  -0.832   5.217   0.373 -0.3985 -0.0874 -1.5589
  653MOL0     H86142  -0.924   5.178   0.518  1.9489  2.9317 -0.4131
  653MOL0     H86143  -0.900   4.994   0.273  0.1775  1.6552 -0.8444
  653MOL0     H86144  -1.047   5.086   0.314  1.1252  1.7271 -1.2776
  653MOL0     H86145  -1.076   4.854   0.367  1.8293 -0.5435 -2.1444
  653MOL0     H86146  -0.915   4.834   0.431 -0.6877 -0.9930 -0.5566
  653MOL0     H86147  -0.999   4.974   0.627  1.2785 -1.8053 -0.1857
  653MOL0     H86148  -1.098   4.836   0.603  0.0277  2.3427  2.9728
  653MOL0     H86149  -1.201   5.097   0.762  1.2996  3.5440 -0.0765
  653MOL0     H86150  -1.545   5.253   0.609 -0.3460 -0.1906 -0.7022
  653MOL0     H86151  -1.424   5.319   0.707 -2.9887  1.2341 -1.7786
  653MOL0     H86152  -1.611   5.218   0.849  3.0361  2.5776  0.4901
  653MOL0     H86153  -1.473   5.115   0.860 -0.0201  0.5400 -0.3290
  653MOL0     H86154  -1.579   4.969   0.672 -3.4354 -1.3590 -2.6098
  653MOL0     H86155  -1.666   4.983   0.829 -0.4389 -0.7681  0.1091
  653MOL0     H86156  -1.808   4.981   0.628  0.6660  0.3223 -1.9052
  653MOL0     H86157  -1.732   5.132   0.563 -2.4887  1.2457  0.4741
  653MOL0     H86158  -1.988   5.326   0.857 -1.7307 -2.3709  1.9771
  653MOL0     H86159  -2.193   5.446   0.778  1.9402  0.5298  1.1180
  653MOL0     H86160  -2.577   5.455   0.839  3.1742  4.0045 -0.4215
  653MOL0     H86161  -2.843   5.508   0.816  2.2696 -0.5526  2.4680
  653MOL0     H86162  -2.966   5.745   0.555 -0.1320 -0.3902 -0.1826
  653MOL0     H86163  -3.019   5.717   0.724 -1.2083 -0.2204  0.5864
  653MOL0     H86164  -3.215   5.778   0.605  0.2602  0.4482  1.8920
  653MOL0     H86165  -3.209   5.611   0.634 -0.2469  1.1369  0.3013
  653MOL0     H86166  -3.281   5.635   0.392 -0.9449  0.9639  0.3814
  653MOL0     H86167  -3.115   5.583   0.384 -0.4376 -0.0717  0.2012
  653MOL0     H86168  -3.218   5.866   0.365 -3.9911 -4.5730  2.5020
  653MOL0     H86169  -3.046   5.821   0.383  0.4359 -0.5289  0.5820
  653MOL0     H86170  -3.219   5.743   0.138 -0.9612  2.0939  1.4720
  653MOL0     H86171  -3.049   5.704   0.173  2.9715  2.1334  0.8104
  653MOL0     H86172  -2.974   5.943   0.136  0.1562 -0.2305  1.0707
  653MOL0     H86173  -3.140   5.991   0.099  1.2115  0.5038 -0.6858
  653MOL0     H86174  -2.973   5.938  -0.094 -0.8626 -0.5456 -2.9466
  653MOL0     H86175  -3.000   5.766  -0.060 -2.5645 -1.9233 -1.9839
  653MOL0     H86176  -3.227   5.794  -0.076  2.8980 -0.3189  1.7603
  653MOL0     H86177  -3.154   5.828  -0.234  0.0043  0.6500 -1.3714
  653MOL0     H86178  -2.811   5.562   0.418 -1.3893  2.3517  2.1947
  653MOL0     H86179  -2.562   5.521   0.414 -1.5062 -1.8111 -0.8688
  653MOL0     H86180  -2.169   5.226   0.402 -0.2776 -0.0166  0.0981
  653MOL0     H86181  -1.973   5.122   0.476 -0.4785 -1.1691  0.3830
  653MOL0     H86182  -0.153   5.081   0.203  1.1624  1.0016  0.4347
  653MOL0     H86183   0.076   5.145   0.192 -0.4454  1.8186  2.4947
  653MOL0     H86184   0.534   4.835   0.480  0.1433 -0.7939 -1.9111
  653MOL0     H86185   0.761   4.872   0.532 -2.5158 -1.3733  0.3567
  653MOL0     H86186   0.968   5.206   0.284 -2.3655 -2.0831 -0.8599
  653MOL0     H86187   1.011   5.037   0.242  1.6579 -2.3358  2.4880
  653MOL0     H86188   1.202   5.178   0.308 -0.9005  1.0749  0.4429
  653MOL0     H86189   1.145   5.190   0.468 -1.2362  1.2758 -0.3787
  653MOL0     H86190   1.232   4.928   0.319  0.2457 -0.4761 -0.2545
  653MOL0     H86191   1.127   4.913   0.458  1.4142 -2.2171 -1.3061
  653MOL0     H86192   1.284   5.048   0.588  0.4002  0.5756 -0.4126
  653MOL0     H86193   1.337   4.889   0.536 -0.6583 -0.1578 -1.1500
  653MOL0     H86194   1.643   5.164   0.428 -0.0172 -0.5722 -0.0927
  653MOL0     H86195   0.756   5.210   0.262 -1.3479  1.2274 -0.2695
  653MOL0     H86196   0.506   5.174   0.234 -1.2034  2.5878  2.9788
  654MOL0     O86197   6.913   5.440   9.464  0.1531  0.0601  0.5316
  654MOL0     C86198   6.986   5.404   9.374 -0.4930  0.1196  0.1678
  654MOL0     O86199   6.942   5.340   9.259  0.1007 -0.0708 -0.2101
  654MOL0     C86200   6.819   5.274   9.244  0.4023  0.2097  0.1551
  654MOL0     C86201   6.725   5.265   9.349  0.1924 -0.2183  0.6455
  654MOL0     C86202   6.608   5.190   9.338  0.3951  0.1057  0.3496
  654MOL0     C86203   6.567   5.143   9.216 -0.0348  0.8383  0.3663
  654MOL0     O86204   6.449   5.076   9.205 -1.0173 -0.2194  0.1276
  654MOL0     C86205   6.388   5.056   9.082  0.2665 -0.2407  0.2309
  654MOL0     C86206   6.265   4.963   9.077  0.1753  0.9136  0.5243
  654MOL0     C86207   6.141   5.012   9.152  0.3333  0.1991 -0.3991
  654MOL0     C86208   6.028   4.921   9.130 -0.2198 -0.2338 -1.0553
  654MOL0     C86209   5.906   4.951   9.221  0.6371 -0.9739  0.0689
  654MOL0     C86210   5.788   4.852   9.202 -0.4980  0.0212  0.1994
  654MOL0     C86211   5.690   4.875   9.319  0.1189 -0.1699  0.7704
  654MOL0     C86212   5.576   4.774   9.313 -0.1686  0.3599  0.2525
  654MOL0     N86213   5.473   4.783   9.207  0.6627  0.0044 -0.8504
  654MOL0     C86214   5.355   4.854   9.226 -0.0643 -0.3316 -0.7752
  654MOL0     C86215   5.271   4.831   9.119  0.8701 -0.1959  0.1937
  654MOL0     C86216   5.140   4.889   9.091 -0.0142 -0.3097 -0.3236
  654MOL0     C86217   5.033   4.801   9.139 -0.0043  0.2228 -0.7822
  654MOL0     C86218   4.987   4.837   9.278 -0.4112  0.3873  0.7277
  654MOL0     C86219   4.882   4.738   9.313  0.7136  0.1865  0.0384
  654MOL0     O86220   4.833   4.784   9.440 -0.2880  0.3903 -0.2553
  654MOL0     C86221   4.728   4.713   9.495  0.2526  0.4907  0.7912
  654MOL0     C86222   4.669   4.599   9.441  1.0440 -0.2692  0.1059
  654MOL0     C86223   4.544   4.548   9.486  0.0093 -0.2099 -0.3332
  654MOL0     C86224   4.474   4.620   9.587 -0.4339 -0.1617  0.7586
  654MOL0     C86225   4.349   4.568   9.647  0.0031 -0.1452  0.2098
  654MOL0     O86226   4.305   4.449   9.581  0.3609  0.2054  0.0435
  654MOL0     C86227   4.182   4.410   9.623 -0.2068 -0.3684  0.6015
  654MOL0     C86228   4.074   4.417   9.536 -0.4343 -0.8357 -0.1500
  654MOL0     C86229   3.942   4.403   9.586  0.1768  0.5948 -1.0367
  654MOL0     C86230   3.917   4.361   9.717 -0.3717  0.2881 -0.0516
  654MOL0     O86231   3.790   4.334   9.772 -0.3393 -0.4620  0.4967
  654MOL0     C86232   3.755   4.193   9.777 -0.8060  0.4634 -0.8489
  654MOL0     C86233   3.629   4.179   9.693 -0.2601 -0.3697 -0.6007
  654MOL0     C86234   3.568   4.039   9.732 -0.2006 -0.6070 -0.1875
  654MOL0     C86235   3.445   4.009   9.643 -0.3317  0.4979 -0.1242
  654MOL0     C86236   3.373   3.880   9.681 -0.2208 -0.5804  0.5054
  654MOL0     C86237   3.225   3.882   9.634  0.0642  0.1823 -0.1501
  654MOL0     C86238   3.149   3.752   9.675  0.0247  0.0305 -0.1210
  654MOL0     C86239   3.000   3.757   9.660 -0.2322 -0.1925  0.4725
  654MOL0    Cl86240   2.964   3.768   9.483 -0.1452  0.0930 -0.0090
  654MOL0     C86241   4.026   4.334   9.794  0.2989  0.0159 -0.0783
  654MOL0     C86242   4.160   4.362   9.754  0.1250 -0.0385  0.3218
  654MOL0     O86243   4.293   4.632   9.735 -0.0359  0.5774 -0.0801
  654MOL0     C86244   4.532   4.734   9.636 -1.0091  0.9134 -0.1372
  654MOL0     C86245   4.654   4.785   9.592  0.0977 -0.0079 -0.7233
  654MOL0     N86246   5.339   4.747   9.033 -0.4365 -0.3253  0.5195
  654MOL0     N86247   5.455   4.715   9.087 -0.2369 -0.0702  0.1634
  654MOL0     C86248   6.652   5.160   9.100  0.7549  0.3273 -0.9153
  654MOL0     C86249   6.776   5.219   9.122 -0.6879 -0.0461 -0.4112
  654MOL0     C86250   7.129   5.434   9.365 -1.5893 -0.3337  0.2022
  654MOL0     C86251   7.199   5.412   9.246 -0.1112 -0.0622  0.3774
  654MOL0     C86252   7.332   5.448   9.236 -0.6584  0.1650 -0.2053
  654MOL0     C86253   7.403   5.493   9.347 -0.3687 -0.2819 -0.1100
  654MOL0     O86254   7.534   5.533   9.332  0.0374 -0.2932 -0.1070
  654MOL0     C86255   7.622   5.458   9.425 -0.8018 -0.2860  0.3725
  654MOL0     C86256   7.740   5.392   9.355  0.6554  0.4634  0.0810
  654MOL0     C86257   7.689   5.308   9.228 -0.1479  0.3657 -0.1315
  654MOL0     C86258   7.618   5.173   9.269  0.1284 -0.2902  0.2605
  654MOL0     C86259   7.712   5.076   9.322  0.1297  0.2511 -0.6711
  654MOL0     C86260   7.792   4.997   9.374  0.1186  0.3484  0.1725
  654MOL0     C86261   7.335   5.503   9.472 -0.0381 -0.7113 -0.7305
  654MOL0     C86262   7.199   5.482   9.478  0.0088  0.0759 -0.1773
  654MOL0     H86263   6.734   5.300   9.452  3.3035 -0.6769  0.6209
  654MOL0     H86264   6.542   5.182   9.425  0.5399 -0.6852  0.3926
  654MOL0     H86265   6.460   5.013   9.012 -2.0006 -4.1276 -0.0071
  654MOL0     H86266   6.357   5.156   9.050 -0.9202 -0.5702  0.2798
  654MOL0     H86267   6.306   4.871   9.120  1.7404  0.2871 -2.0808
  654MOL0     H86268   6.231   4.939   8.976  1.7800 -3.9977  0.8693
  654MOL0     H86269   6.108   5.113   9.125 -0.6108  0.0410  0.1224
  654MOL0     H86270   6.171   5.020   9.257 -0.8622 -2.5403  0.2133
  654MOL0     H86271   5.989   4.918   9.028 -1.5390  0.0191 -0.5806
  654MOL0     H86272   6.057   4.817   9.146 -1.3553 -0.5924 -1.1989
  654MOL0     H86273   5.882   5.057   9.212  1.1247 -0.9496 -1.1005
  654MOL0     H86274   5.949   4.937   9.321  3.2667 -1.0045 -0.9905
  654MOL0     H86275   5.831   4.752   9.213 -2.2162 -0.6850  0.9063
  654MOL0     H86276   5.731   4.861   9.109 -0.7744 -1.9525  0.1343
  654MOL0     H86277   5.750   4.875   9.410 -0.9157 -0.9508  1.4837
  654MOL0     H86278   5.645   4.974   9.313 -0.4526 -0.4709 -0.0495
  654MOL0     H86279   5.526   4.761   9.410 -2.2691  0.6182 -0.7471
  654MOL0     H86280   5.632   4.686   9.280 -0.1722  0.6965 -0.6636
  654MOL0     H86281   5.331   4.923   9.307 -1.5467 -0.1138 -1.3743
  654MOL0     H86282   5.135   4.901   8.982 -1.0033  1.2625 -0.1463
  654MOL0     H86283   5.132   4.988   9.138  0.7187 -1.0103  1.3449
  654MOL0     H86284   5.072   4.699   9.139  2.2531  0.9918  0.5400
  654MOL0     H86285   4.942   4.801   9.078 -2.3581 -1.8503  2.4054
  654MOL0     H86286   5.073   4.825   9.344 -0.9450  0.4971  1.4642
  654MOL0     H86287   4.942   4.937   9.288 -1.7525 -0.1963  0.8435
  654MOL0     H86288   4.928   4.639   9.310  1.1566  0.4005 -3.0861
  654MOL0     H86289   4.805   4.736   9.235  1.0805 -0.5505 -0.3122
  654MOL0     H86290   4.723   4.548   9.362  2.3035  0.3111  0.5540
  654MOL0     H86291   4.504   4.462   9.435 -0.1790 -0.1285 -0.3229
  654MOL0     H86292   4.085   4.457   9.436 -2.6798  0.7666  0.1622
  654MOL0     H86293   3.855   4.419   9.523  1.7722  2.5275 -2.9107
  654MOL0     H86294   3.740   4.162   9.880  2.4489 -0.6542 -0.6015
  654MOL0     H86295   3.838   4.135   9.734 -0.0826  0.6774  0.2347
  654MOL0     H86296   3.652   4.189   9.587  0.4846  0.7773 -0.3573
  654MOL0     H86297   3.563   4.262   9.720  1.1558  0.2317  1.2628
  654MOL0     H86298   3.538   4.045   9.837 -0.5189  4.7662 -0.3195
  654MOL0     H86299   3.651   3.970   9.717  2.8395  2.8952 -0.9972
  654MOL0     H86300   3.371   4.088   9.659 -2.0062 -0.9665 -0.3080
  654MOL0     H86301   3.475   4.004   9.538  1.1743  2.2672  0.1852
  654MOL0     H86302   3.393   3.863   9.787 -2.5341  2.1682  1.5094
  654MOL0     H86303   3.411   3.804   9.612 -2.7394  1.0495 -2.9730
  654MOL0     H86304   3.204   3.895   9.528 -3.3709  0.2723  0.4436
  654MOL0     H86305   3.179   3.970   9.679 -1.6714 -0.0726 -1.3370
  654MOL0     H86306   3.185   3.667   9.616 -1.6005  0.2883 -1.5482
  654MOL0     H86307   3.167   3.731   9.781  0.7673  2.1655  0.2084
  654MOL0     H86308   2.972   3.853   9.706  0.7774  0.5266 -0.3567
  654MOL0     H86309   2.953   3.675   9.715  0.8365 -2.6617 -2.0923
  654MOL0     H86310   4.005   4.294   9.893 -1.3460  2.1466  0.5246
  654MOL0     H86311   4.240   4.349   9.826 -1.3397  2.3423  2.6049
  654MOL0     H86312   4.492   4.777   9.727 -2.2366 -2.5810  1.1369
  654MOL0     H86313   4.669   4.887   9.626  1.5712  0.5911 -3.0076
  654MOL0     H86314   6.626   5.126   9.000  1.5073  0.9622 -1.3367
  654MOL0     H86315   6.842   5.230   9.037 -0.0212 -0.1783  0.0825
  654MOL0     H86316   7.143   5.379   9.159 -0.0899 -0.5136  0.5294
  654MOL0     H86317   7.384   5.456   9.142 -0.9495 -0.1424 -0.3937
  654MOL0     H86318   7.570   5.373   9.470 -1.4620 -1.0705 -1.7752
  654MOL0     H86319   7.651   5.533   9.499 -0.5481  0.1221 -0.1360
  654MOL0     H86320   7.794   5.479   9.317 -2.0956  2.1714 -0.1858
  654MOL0     H86321   7.806   5.332   9.418 -1.0613 -0.3383  1.1904
  654MOL0     H86322   7.779   5.283   9.171  0.7206 -1.4583  1.8882
  654MOL0     H86323   7.621   5.362   9.161 -3.9715 -2.8175  0.8085
  654MOL0     H86324   7.541   5.185   9.346  0.7217 -2.6922  1.3411
  654MOL0     H86325   7.567   5.135   9.181 -1.2832 -1.0670  1.3666
  654MOL0     H86326   7.866   4.938   9.425 -0.2663 -1.4597 -1.2473
  654MOL0     H86327   7.390   5.539   9.559 -0.6707 -5.1385  1.7839
  654MOL0     H86328   7.144   5.486   9.572 -2.7600 -2.1216 -1.5415
  655MOL0     O86329   6.824  10.080   0.361 -0.0903 -0.3410  0.1755
  655MOL0     C86330   6.785  10.165   0.270  0.5984 -0.9948 -0.4512
  655MOL0     O86331   6.653  10.198   0.245 -0.0008  0.8599  0.1014
  655MOL0     C86332   6.546  10.184   0.330  0.2610  0.1494  0.8384
  655MOL0     C86333   6.565  10.212   0.465  0.7774  0.8306 -0.3443
  655MOL0     C86334   6.454  10.195   0.547 -0.0557 -1.0516  0.4122
  655MOL0     C86335   6.316  10.174   0.499 -0.2774 -1.2505 -0.1474
  655MOL0     O86336   6.211  10.188   0.586  0.0090  0.2968  0.1330
  655MOL0     C86337   6.186  10.328   0.610  0.4800  0.3540  0.7178
  655MOL0     C86338   6.065  10.381   0.536 -0.0802  0.0678 -0.0849
  655MOL0     C86339   5.927  10.343   0.602 -0.3514  0.7700 -0.0708
  655MOL0     C86340   5.826  10.431   0.544  0.3304 -0.0148  0.6225
  655MOL0     C86341   5.678  10.385   0.577 -0.1511 -0.1104  0.2268
  655MOL0     C86342   5.566  10.471   0.524 -0.8237 -0.3438  0.3026
  655MOL0     C86343   5.439  10.400   0.500  0.3339 -0.4530  0.6726
  655MOL0     C86344   5.321  10.481   0.450 -0.4099 -0.5756  0.3580
  655MOL0     N86345   5.309  10.612   0.516  0.3035 -0.1105  0.7217
  655MOL0     C86346   5.238  10.652   0.622  0.1705 -0.4024 -0.3496
  655MOL0     C86347   5.223  10.782   0.613 -0.2833 -1.4667 -0.0705
  655MOL0     C86348   5.144  10.870   0.712  0.9466 -0.2248 -0.0573
  655MOL0     C86349   4.994  10.870   0.692 -0.3676  0.3009  0.3396
  655MOL0     C86350   4.969  10.961   0.565  0.0616 -0.4549 -0.3527
  655MOL0     C86351   4.827  10.944   0.518 -0.1488 -0.5642 -0.5200
  655MOL0     O86352   4.742  10.945   0.637  0.1783  0.6475  0.0301
  655MOL0     C86353   4.605  10.946   0.620 -0.0710  0.5047 -0.9094
  655MOL0     C86354   4.541  11.031   0.527  0.3290 -1.0166 -0.2987
  655MOL0     C86355   4.404  11.020   0.524  0.4487 -0.3514 -0.0094
  655MOL0     C86356   4.329  10.927   0.603  0.3236  0.9713 -0.3304
  655MOL0     C86357   4.184  10.924   0.600  0.4177  0.5748  0.6726
  655MOL0     O86358   4.116  10.854   0.692  0.4227  0.1743 -0.1910
  655MOL0     C86359   3.985  10.884   0.721  0.0663  0.1053  0.7113
  655MOL0     C86360   3.932  11.014   0.706  1.1180 -0.7011 -0.0771
  655MOL0     C86361   3.791  11.021   0.750 -0.3761  0.0776  0.2507
  655MOL0     C86362   3.709  10.911   0.792  0.4912 -0.0874 -0.5052
  655MOL0     O86363   3.570  10.916   0.812 -0.4718 -0.1897  0.0574
  655MOL0     C86364   3.512  11.047   0.845 -0.4376 -0.8296  0.5435
  655MOL0     C86365   3.360  11.042   0.823 -0.3527  0.8021 -0.0761
  655MOL0     C86366   3.315  11.014   0.676  0.3075 -0.9977  0.3007
  655MOL0     C86367   3.162  11.037   0.653 -0.2854  0.0920 -0.3026
  655MOL0     C86368   3.108  10.961   0.532 -0.3600 -0.5213  0.0938
  655MOL0     C86369   2.955  10.951   0.509  0.0371  0.1536  0.5881
  655MOL0     C86370   2.893  11.084   0.449 -0.4349  0.0258 -0.4273
  655MOL0     C86371   2.748  11.057   0.400 -0.3949  0.5134 -0.6685
  655MOL0    Cl86372   2.675  11.221   0.393  0.0164  0.1680 -0.4296
  655MOL0     C86373   3.774  10.789   0.800 -0.4943 -0.2041  0.7176
  655MOL0     C86374   3.910  10.779   0.777  0.2101  0.1641  0.4566
  655MOL0     O86375   4.131  10.986   0.508  0.0705  0.1468  0.0315
  655MOL0     C86376   4.403  10.853   0.696 -0.5535  0.5538 -0.5572
  655MOL0     C86377   4.540  10.857   0.708 -0.1572 -0.2051 -0.1508
  655MOL0     N86378   5.291  10.826   0.500 -0.6835  0.8711 -0.8953
  655MOL0     N86379   5.349  10.729   0.445  0.8753 -0.5053 -0.5193
  655MOL0     C86380   6.306  10.165   0.366  0.0832  0.0462  0.4637
  655MOL0     C86381   6.419  10.159   0.281  0.5499 -0.2801 -0.5181
  655MOL0     C86382   6.893  10.202   0.178  0.1447  0.4246 -0.1329
  655MOL0     C86383   6.873  10.289   0.064 -0.4676 -0.0655 -0.2442
  655MOL0     C86384   6.971  10.313  -0.031 -0.1020  0.0485  0.1352
  655MOL0     C86385   7.100  10.249  -0.016 -0.0324 -0.9063 -0.0626
  655MOL0     O86386   7.205  10.287  -0.094  0.0483  0.3466 -0.4506
  655MOL0     C86387   7.239  10.210  -0.211 -0.3685  0.1184 -0.0013
  655MOL0     C86388   7.346  10.110  -0.196 -0.2198 -0.2836 -0.2356
  655MOL0     C86389   7.474  10.186  -0.145  0.4404 -0.0729  0.3917
  655MOL0     C86390   7.603  10.113  -0.161  0.2028  0.2324 -0.7145
  655MOL0     C86391   7.619   9.988  -0.088  0.6721 -0.3545 -0.4621
  655MOL0     C86392   7.618   9.883  -0.026  1.1609 -0.8218 -0.5473
  655MOL0     C86393   7.120  10.174   0.096 -0.5614  0.3288 -0.7117
  655MOL0     C86394   7.022  10.138   0.189 -0.3637 -0.2816  0.6435
  655MOL0     H86395   6.666  10.248   0.482  0.8800  2.2028 -3.2715
  655MOL0     H86396   6.484  10.215   0.650  1.3553  1.5195 -0.4032
  655MOL0     H86397   6.266  10.398   0.585 -0.7680  1.6251  0.0803
  655MOL0     H86398   6.161  10.338   0.716  0.2273 -2.5111  0.9990
  655MOL0     H86399   6.067  10.338   0.436 -0.8078  0.4125 -0.2570
  655MOL0     H86400   6.071  10.490   0.531 -1.9868  0.1799 -1.2106
  655MOL0     H86401   5.934  10.344   0.711 -3.4180 -1.5791  0.2834
  655MOL0     H86402   5.885  10.243   0.587 -0.9082  0.7772  1.2836
  655MOL0     H86403   5.843  10.537   0.562 -0.9251  0.2683  0.2787
  655MOL0     H86404   5.823  10.422   0.435 -0.7201  2.3759  0.3962
  655MOL0     H86405   5.662  10.379   0.685  0.0271 -0.3302  0.2402
  655MOL0     H86406   5.663  10.285   0.535  2.6825 -0.1798 -0.8375
  655MOL0     H86407   5.599  10.532   0.439  1.8936 -0.9648  0.8186
  655MOL0     H86408   5.549  10.542   0.606  0.6667  2.5689 -1.7160
  655MOL0     H86409   5.457  10.328   0.420 -0.8406 -0.7306  0.6300
  655MOL0     H86410   5.415  10.356   0.598 -1.3984 -1.3534 -0.1056
  655MOL0     H86411   5.224  10.431   0.441 -1.4786  1.6536 -2.2469
  655MOL0     H86412   5.343  10.503   0.345 -0.7056  1.5934  0.6885
  655MOL0     H86413   5.186  10.592   0.696 -0.0056  1.2790  0.9508
  655MOL0     H86414   5.179  10.973   0.714  0.2761  0.0057  2.0031
  655MOL0     H86415   5.159  10.834   0.814 -0.7001  0.6965  0.5383
  655MOL0     H86416   4.955  10.914   0.784 -2.8559 -0.7883 -0.0934
  655MOL0     H86417   4.940  10.777   0.671  0.9191 -0.3888  0.0046
  655MOL0     H86418   4.977  11.064   0.599  0.0154 -0.7024  0.4415
  655MOL0     H86419   5.043  10.949   0.485  0.6249 -1.4283  0.2851
  655MOL0     H86420   4.808  10.850   0.465 -0.2243  0.4822 -2.4256
  655MOL0     H86421   4.811  11.025   0.447  0.1173  0.8634  0.9915
  655MOL0     H86422   4.589  11.107   0.467 -0.0344 -0.5053  0.0458
  655MOL0     H86423   4.353  11.074   0.446 -2.2374  0.7787  2.3506
  655MOL0     H86424   3.974  11.104   0.663 -1.0495  0.6687  0.5487
  655MOL0     H86425   3.745  11.119   0.746 -0.8727  0.0664  3.2723
  655MOL0     H86426   3.540  11.133   0.783 -1.2234  0.3653  1.7644
  655MOL0     H86427   3.546  11.073   0.946  0.6561 -2.6001  0.6801
  655MOL0     H86428   3.311  11.135   0.852 -1.8314  0.3931 -1.1348
  655MOL0     H86429   3.318  10.960   0.882  1.3803 -0.1956 -0.1533
  655MOL0     H86430   3.344  10.919   0.630  0.4550  0.5221 -3.0385
  655MOL0     H86431   3.366  11.088   0.614 -0.2788 -0.6182  0.2565
  655MOL0     H86432   3.106  11.014   0.744 -0.5436 -0.3513 -0.5693
  655MOL0     H86433   3.143  11.144   0.643 -1.1603  0.0119  0.3198
  655MOL0     H86434   3.143  10.858   0.529  2.8920  0.4395 -3.4756
  655MOL0     H86435   3.151  11.004   0.441 -1.9519 -0.1870 -0.5511
  655MOL0     H86436   2.896  10.928   0.599 -1.3554 -0.1927 -0.3743
  655MOL0     H86437   2.943  10.883   0.424 -2.9626  3.3337 -1.8604
  655MOL0     H86438   2.894  11.150   0.537  0.2038  3.1347 -2.6190
  655MOL0     H86439   2.968  11.117   0.377 -0.0284 -1.9491 -0.9569
  655MOL0     H86440   2.708  10.991   0.477  2.1903 -0.0518  0.3051
  655MOL0     H86441   2.764  11.003   0.307  0.6633 -1.0630  0.3805
  655MOL0     H86442   3.718  10.706   0.839 -0.4952 -0.0734  0.9958
  655MOL0     H86443   3.958  10.681   0.778  2.6178  1.0600 -3.6386
  655MOL0     H86444   4.354  10.788   0.768 -0.2917  0.9944  0.0286
  655MOL0     H86445   4.597  10.784   0.763 -0.1584 -3.3458 -3.8602
  655MOL0     H86446   6.204  10.178   0.331 -0.5737 -0.9690  1.8805
  655MOL0     H86447   6.403  10.136   0.176  1.1946 -3.2984 -0.0408
  655MOL0     H86448   6.779  10.342   0.047 -0.1100  0.2536 -1.3396
  655MOL0     H86449   6.944  10.385  -0.109  0.2256  2.2362  1.9233
  655MOL0     H86450   7.276  10.274  -0.292 -0.4878 -1.1926 -1.1290
  655MOL0     H86451   7.151  10.163  -0.255  0.8412 -0.1145 -2.2966
  655MOL0     H86452   7.309  10.035  -0.125 -2.3859  1.4318  0.5598
  655MOL0     H86453   7.372  10.064  -0.291  1.7051 -1.8470  0.9660
  655MOL0     H86454   7.465  10.221  -0.042 -2.3675  0.4718  0.0527
  655MOL0     H86455   7.475  10.282  -0.198 -0.6707  0.1382  0.7218
  655MOL0     H86456   7.618  10.093  -0.267  0.9420  0.4852 -0.6657
  655MOL0     H86457   7.684  10.177  -0.124  0.1795 -0.3542  0.3970
  655MOL0     H86458   7.616   9.793   0.032 -2.2224 -0.0190  0.8301
  655MOL0     H86459   7.213  10.118   0.100 -0.5981  0.3154  0.1158
  655MOL0     H86460   7.053  10.065   0.263  0.4796 -0.0394  0.5387
  656MOL0     O86461   0.623   2.972   8.827  0.1078  0.6219  0.5100
  656MOL0     C86462   0.589   2.941   8.711 -1.0081 -0.1241 -0.8597
  656MOL0     O86463   0.468   2.938   8.661  0.6732 -0.0827 -0.7575
  656MOL0     C86464   0.366   2.984   8.744  0.6263  0.3403 -0.8421
  656MOL0     C86465   0.381   3.113   8.796 -0.0496  0.9579  0.0978
  656MOL0     C86466   0.275   3.168   8.864  0.5466 -0.0924 -0.7827
  656MOL0     C86467   0.151   3.099   8.882  0.0753  0.5706  0.0244
  656MOL0     O86468   0.052   3.170   8.936  0.1429 -0.1565  0.0495
  656MOL0     C86469  -0.043   3.099   9.016  1.0383 -0.5167  0.4986
  656MOL0     C86470   0.007   3.054   9.148 -0.2416  0.3538 -0.7357
  656MOL0     C86471  -0.098   2.982   9.235  0.3909 -0.2842  0.1122
  656MOL0     C86472  -0.040   2.888   9.340 -0.0332  0.3910  0.1143
  656MOL0     C86473  -0.143   2.773   9.372 -0.4758 -0.4293  0.0486
  656MOL0     C86474  -0.254   2.822   9.463 -0.1216  1.1930 -0.0018
  656MOL0     C86475  -0.318   2.690   9.522 -0.2745 -0.2667  0.0324
  656MOL0     C86476  -0.420   2.727   9.636 -0.2001  0.0674  0.2341
  656MOL0     N86477  -0.451   2.605   9.712 -0.1853 -0.2257 -0.0298
  656MOL0     C86478  -0.506   2.490   9.678  0.3483 -0.0636 -0.4200
  656MOL0     C86479  -0.536   2.421   9.792 -0.4386  0.4396 -0.2841
  656MOL0     C86480  -0.603   2.289   9.805 -0.4049  0.6724 -0.2703
  656MOL0     C86481  -0.730   2.287   9.884  0.1088  0.1596 -0.1608
  656MOL0     C86482  -0.851   2.350   9.814 -0.6350 -0.4308 -0.3003
  656MOL0     C86483  -0.971   2.334   9.894  0.4516 -0.2970  0.1389
  656MOL0     O86484  -1.088   2.408   9.840 -0.2815 -0.9241  0.0244
  656MOL0     C86485  -1.204   2.338   9.867  0.9578  0.2139  0.5349
  656MOL0     C86486  -1.256   2.332   9.997 -0.3738  1.5698 -0.4212
  656MOL0     C86487  -1.377   2.264  10.014  0.1454  0.0191 -0.2199
  656MOL0     C86488  -1.438   2.195   9.913 -0.2700  0.1310  0.4370
  656MOL0     C86489  -1.563   2.125   9.923  0.0412  0.1063 -0.4153
  656MOL0     O86490  -1.624   2.151  10.036  0.5194 -0.0997 -0.1386
  656MOL0     C86491  -1.729   2.067  10.067  0.2318 -0.2882 -0.3030
  656MOL0     C86492  -1.719   1.927  10.067 -0.0258 -0.1204 -0.2051
  656MOL0     C86493  -1.816   1.838  10.100 -0.3544  0.3457 -0.5402
  656MOL0     C86494  -1.941   1.887  10.152 -0.6183  0.3103  0.2016
  656MOL0     O86495  -2.046   1.811  10.201 -0.0156 -0.2455  0.3162
  656MOL0     C86496  -2.038   1.665  10.196  0.1517  0.2466 -0.4935
  656MOL0     C86497  -2.137   1.611  10.304 -0.0036  0.3322  0.4824
  656MOL0     C86498  -2.288   1.620  10.256  0.0503 -0.6580  0.2647
  656MOL0     C86499  -2.305   1.522  10.142 -0.1449  0.6017  0.3316
  656MOL0     C86500  -2.443   1.478  10.107 -0.6473 -0.2358  0.0509
  656MOL0     C86501  -2.439   1.375   9.991  0.0776 -0.1268 -0.5089
  656MOL0     C86502  -2.581   1.338   9.949 -0.5074 -0.0923 -0.1938
  656MOL0     C86503  -2.589   1.186   9.922 -0.1314 -0.4447 -0.2849
  656MOL0    Cl86504  -2.757   1.133   9.888  0.3500 -0.3046  0.4593
  656MOL0     C86505  -1.952   2.026  10.166  0.3501 -0.0389 -0.2847
  656MOL0     C86506  -1.851   2.115  10.122  0.2889 -0.3005  0.0796
  656MOL0     O86507  -1.609   2.048   9.834 -0.6843  0.0107 -0.0174
  656MOL0     C86508  -1.386   2.211   9.780 -0.1272  0.4726  0.9611
  656MOL0     C86509  -1.273   2.285   9.759 -0.7042  0.1036  0.6908
  656MOL0     N86510  -0.477   2.493   9.895  0.9076 -0.6163  0.4662
  656MOL0     N86511  -0.435   2.604   9.847 -0.6768 -0.0136 -0.2902
  656MOL0     C86512   0.139   2.968   8.829 -0.3236  0.2144  0.9134
  656MOL0     C86513   0.246   2.914   8.750  0.3504  0.8751 -0.6136
  656MOL0     C86514   0.706   2.923   8.617 -0.4870  0.4492 -0.0209
  656MOL0     C86515   0.838   2.983   8.641  0.7997  0.3083  0.1813
  656MOL0     C86516   0.935   2.975   8.544  0.1166 -0.0995 -0.3807
  656MOL0     C86517   0.920   2.906   8.426  0.4563 -0.2754  0.9762
  656MOL0     O86518   1.024   2.890   8.336 -0.1511  0.4339  0.3092
  656MOL0     C86519   1.006   2.917   8.199 -0.0216 -0.3657  0.6684
  656MOL0     C86520   0.966   3.066   8.173 -0.2743 -0.2719 -0.0590
  656MOL0     C86521   1.072   3.157   8.234  0.1907  0.0535  0.0206
  656MOL0     C86522   1.023   3.301   8.265 -0.0351  0.3759  0.7126
  656MOL0     C86523   0.924   3.291   8.371 -0.1443  0.7569  0.4539
  656MOL0     C86524   0.840   3.277   8.458  0.1848  0.5579  1.0091
  656MOL0     C86525   0.795   2.832   8.406 -0.0048 -0.7087 -0.1796
  656MOL0     C86526   0.690   2.841   8.498  0.5584 -0.7529 -0.2001
  656MOL0     H86527   0.464   3.181   8.777 -0.5273  0.8952 -2.4732
  656MOL0     H86528   0.281   3.271   8.899  3.1215  0.1670 -1.7778
  656MOL0     H86529  -0.095   3.016   8.967 -1.3181  0.5589  1.0339
  656MOL0     H86530  -0.123   3.171   9.035 -0.0046 -0.5438 -3.0635
  656MOL0     H86531   0.057   3.141   9.192  3.2665 -1.6137 -0.4553
  656MOL0     H86532   0.082   2.978   9.125  0.2585  1.0540 -1.5141
  656MOL0     H86533  -0.161   2.932   9.161  1.6787  0.9043 -1.8884
  656MOL0     H86534  -0.150   3.059   9.293  3.1024  0.3394  1.9017
  656MOL0     H86535   0.047   2.850   9.285  1.0179 -0.2482  2.1008
  656MOL0     H86536  -0.000   2.938   9.429 -1.0819  0.2655  0.6741
  656MOL0     H86537  -0.096   2.683   9.413 -0.7099 -0.9059 -0.6919
  656MOL0     H86538  -0.176   2.731   9.276 -0.8264 -1.9405  0.7992
  656MOL0     H86539  -0.330   2.877   9.407 -1.4599 -0.3461  0.2145
  656MOL0     H86540  -0.214   2.881   9.546  1.0953 -0.3620  0.5683
  656MOL0     H86541  -0.380   2.643   9.444  0.1878  1.1518 -1.2496
  656MOL0     H86542  -0.250   2.613   9.559  0.6661  0.3340 -0.4199
  656MOL0     H86543  -0.514   2.764   9.596  1.3563  2.6233 -1.3042
  656MOL0     H86544  -0.395   2.812   9.701 -3.0263  0.3475  1.1016
  656MOL0     H86545  -0.521   2.454   9.576 -1.2195 -0.6284 -0.0136
  656MOL0     H86546  -0.539   2.217   9.858 -1.0345  0.8596  0.7947
  656MOL0     H86547  -0.623   2.248   9.706  0.4094 -0.5497  0.0534
  656MOL0     H86548  -0.709   2.325   9.984 -1.3161 -0.2376  0.3076
  656MOL0     H86549  -0.764   2.183   9.888  0.4377  0.0847  0.9631
  656MOL0     H86550  -0.827   2.457   9.805 -1.8988 -0.1639 -0.6608
  656MOL0     H86551  -0.864   2.301   9.717 -2.2461 -1.7045  0.5084
  656MOL0     H86552  -0.951   2.361   9.998 -3.0529 -0.1428  0.9189
  656MOL0     H86553  -0.997   2.229   9.879  1.0266 -0.1191 -2.6265
  656MOL0     H86554  -1.201   2.379  10.079 -0.6940  1.3733 -0.0899
  656MOL0     H86555  -1.412   2.244  10.115  2.6703 -3.1946  0.1908
  656MOL0     H86556  -1.615   1.903  10.046  0.4034 -0.0708  1.6599
  656MOL0     H86557  -1.799   1.731  10.086  1.6826  0.3440  1.3633
  656MOL0     H86558  -1.937   1.627  10.211  0.1968  0.4782 -0.1938
  656MOL0     H86559  -2.071   1.629  10.098 -2.0929 -0.1948  0.3585
  656MOL0     H86560  -2.131   1.673  10.394 -1.1198  2.2637 -0.6812
  656MOL0     H86561  -2.112   1.509  10.332 -1.3672 -0.9243 -2.4141
  656MOL0     H86562  -2.311   1.720  10.217  4.2647  0.0113 -1.0589
  656MOL0     H86563  -2.355   1.592  10.338  0.1264  2.2078  1.4310
  656MOL0     H86564  -2.250   1.567  10.058  0.7429  1.3177  1.2770
  656MOL0     H86565  -2.246   1.431  10.153 -0.2913  0.0754 -2.4287
  656MOL0     H86566  -2.504   1.565  10.084 -1.2729 -0.7242 -0.1813
  656MOL0     H86567  -2.477   1.423  10.195 -2.3566 -1.6528 -1.4167
  656MOL0     H86568  -2.373   1.295  10.025  0.7679  0.5562 -0.1930
  656MOL0     H86569  -2.390   1.423   9.905 -2.7038 -0.4768 -2.4150
  656MOL0     H86570  -2.650   1.358  10.031  0.5741 -1.4135  1.0826
  656MOL0     H86571  -2.612   1.405   9.868  0.5199  0.5491 -0.0681
  656MOL0     H86572  -2.558   1.146  10.019  0.9556 -1.0679 -0.8672
  656MOL0     H86573  -2.524   1.142   9.845  3.5422 -1.1161  2.8754
  656MOL0     H86574  -2.046   2.069  10.198  0.0098  0.2245 -1.5690
  656MOL0     H86575  -1.870   2.221  10.139 -0.0090 -0.3372 -0.0312
  656MOL0     H86576  -1.434   2.160   9.698  0.8058  0.5852  0.3363
  656MOL0     H86577  -1.226   2.306   9.663  1.0631  0.6616  1.6396
  656MOL0     H86578   0.046   2.917   8.849 -1.7280  2.4180  0.4355
  656MOL0     H86579   0.245   2.811   8.715  0.9180  1.5034 -2.5428
  656MOL0     H86580   0.863   3.021   8.740  1.4059 -3.1009  1.4728
  656MOL0     H86581   1.026   3.027   8.574 -0.0665 -0.6329  1.2344
  656MOL0     H86582   0.940   2.847   8.148  1.7496 -2.3032  0.9348
  656MOL0     H86583   1.102   2.896   8.152 -0.2202 -0.3746  0.2616
  656MOL0     H86584   0.961   3.079   8.064 -0.5835 -0.4243 -0.0629
  656MOL0     H86585   0.864   3.097   8.197  0.1118  1.3220 -0.3839
  656MOL0     H86586   1.164   3.156   8.175  1.5783 -0.4630  2.0896
  656MOL0     H86587   1.105   3.107   8.326  0.1444 -1.7749 -0.9045
  656MOL0     H86588   1.107   3.362   8.302  0.1723  0.4822  0.0694
  656MOL0     H86589   0.994   3.346   8.170 -2.1713 -2.1821  0.0563
  656MOL0     H86590   0.769   3.272   8.538  0.5290 -2.3268  1.2646
  656MOL0     H86591   0.797   2.778   8.312  5.1907  0.4441 -1.0610
  656MOL0     H86592   0.596   2.791   8.480 -1.4113  1.2013  3.6144
  657MOL0     O86593   7.831   0.436   4.311 -0.6633  0.2790 -0.1668
  657MOL0     C86594   7.893   0.413   4.205  0.6267  0.7306  0.1890
  657MOL0     O86595   7.842   0.413   4.080  0.2394 -0.2914  0.2168
  657MOL0     C86596   7.704   0.435   4.072 -1.4580 -0.2666  0.0836
  657MOL0     C86597   7.666   0.535   3.982  0.4805 -0.3806 -0.0948
  657MOL0     C86598   7.532   0.552   3.966 -0.0796 -0.4897  0.2214
  657MOL0     C86599   7.438   0.481   4.036  0.2405 -0.2270 -0.3322
  657MOL0     O86600   7.308   0.518   4.016 -0.6609 -0.3662 -0.0118
  657MOL0     C86601   7.225   0.539   4.126  0.0799  0.1469  0.2804
  657MOL0     C86602   7.107   0.620   4.083  1.3093 -0.3854  0.6204
  657MOL0     C86603   7.007   0.540   4.010  0.3046 -0.6286 -0.6655
  657MOL0     C86604   6.897   0.642   3.981  0.0046 -0.2472 -0.1616
  657MOL0     C86605   6.795   0.575   3.888  0.5520 -0.8047  0.0356
  657MOL0     C86606   6.677   0.668   3.886  0.1987 -1.1249  0.2838
  657MOL0     C86607   6.711   0.796   3.798 -0.6907  0.1353 -0.1313
  657MOL0     C86608   6.583   0.856   3.740 -0.3911 -0.1846 -0.2151
  657MOL0     N86609   6.489   0.916   3.849 -0.3803  1.0424 -0.4339
  657MOL0     C86610   6.501   1.044   3.886  0.4785 -0.3544 -0.3697
  657MOL0     C86611   6.376   1.084   3.928 -0.0538  0.0508  0.0020
  657MOL0     C86612   6.341   1.225   3.980  0.2753  0.0680  0.4465
  657MOL0     C86613   6.239   1.201   4.096 -0.4092 -1.0863  0.6642
  657MOL0     C86614   6.104   1.207   4.035  0.4422  0.1972  0.2061
  657MOL0     C86615   5.982   1.245   4.132  0.8941  0.4687  0.5234
  657MOL0     O86616   5.998   1.381   4.175 -0.0695  0.1910 -0.1932
  657MOL0     C86617   5.886   1.448   4.220 -0.4410 -0.8594 -0.2492
  657MOL0     C86618   5.787   1.390   4.302  0.2228 -1.1242  0.3962
  657MOL0     C86619   5.669   1.464   4.340 -0.4296  0.1766 -0.3695
  657MOL0     C86620   5.649   1.595   4.292  1.0200  0.4464 -0.4690
  657MOL0     C86621   5.517   1.654   4.319  0.9527 -0.3518  0.4321
  657MOL0     O86622   5.484   1.766   4.245 -0.3818  0.1963  1.2928
  657MOL0     C86623   5.356   1.819   4.248 -0.1208  0.2606 -0.8954
  657MOL0     C86624   5.259   1.811   4.357  0.4011  0.1718  0.8051
  657MOL0     C86625   5.136   1.857   4.348 -0.1887  0.3293 -0.1359
  657MOL0     C86626   5.093   1.907   4.223  0.2592 -0.2880 -1.5035
  657MOL0     O86627   4.963   1.941   4.223 -0.2464 -0.4887 -1.1890
  657MOL0     C86628   4.927   2.041   4.119  0.2254 -0.6701 -1.0027
  657MOL0     C86629   4.776   2.069   4.125 -0.1734 -0.7099  0.5393
  657MOL0     C86630   4.690   1.943   4.097  0.1737  0.3556 -0.2706
  657MOL0     C86631   4.539   1.966   4.103  0.7362 -0.8493 -1.1567
  657MOL0     C86632   4.477   2.028   3.984 -0.1722 -0.2005 -0.6662
  657MOL0     C86633   4.332   2.072   4.021 -0.1329  0.5216  1.0266
  657MOL0     C86634   4.241   2.097   3.898 -0.0932  0.1839 -0.3157
  657MOL0     C86635   4.209   1.967   3.820  0.0395 -0.4420 -0.0233
  657MOL0    Cl86636   4.044   1.981   3.754  0.0638  0.2239 -0.3489
  657MOL0     C86637   5.178   1.918   4.113 -0.5609  0.2479  0.1580
  657MOL0     C86638   5.307   1.869   4.131  0.1150 -0.1701  0.5775
  657MOL0     O86639   5.438   1.596   4.400 -0.2424  0.2575  0.4153
  657MOL0     C86640   5.751   1.650   4.211 -0.3324  0.0672  0.7096
  657MOL0     C86641   5.866   1.575   4.175  0.0571 -0.0055  0.2184
  657MOL0     N86642   6.300   0.974   3.916  0.2147 -0.4896 -0.2327
  657MOL0     N86643   6.363   0.874   3.863 -0.0460  0.4247  0.0386
  657MOL0     C86644   7.472   0.373   4.113 -0.2974 -0.5355 -0.0390
  657MOL0     C86645   7.612   0.351   4.130 -0.5079  0.2994 -0.0058
  657MOL0     C86646   8.039   0.366   4.214  0.6776 -0.0680  0.5826
  657MOL0     C86647   8.111   0.325   4.096 -0.2747  0.4387  0.0093
  657MOL0     C86648   8.245   0.283   4.109 -0.1227 -0.1343  0.2881
  657MOL0     C86649   8.309   0.281   4.238  0.4247 -0.8454 -0.3953
  657MOL0     O86650   8.443   0.246   4.256  0.4364 -0.3904 -0.3381
  657MOL0     C86651   8.470   0.128   4.325  1.0181 -0.9555 -0.1633
  657MOL0     C86652   8.598   0.120   4.382 -0.0031  0.2034 -0.7295
  657MOL0     C86653   8.705   0.092   4.273  0.1267 -0.9913  0.0472
  657MOL0     C86654   8.727   0.210   4.175 -0.2047  0.5403  0.9446
  657MOL0     C86655   8.752   0.343   4.236 -0.0416 -0.6184 -0.3299
  657MOL0     C86656   8.800   0.437   4.295  1.2948 -0.2268  0.1466
  657MOL0     C86657   8.237   0.319   4.349 -0.3578  0.0470  0.9139
  657MOL0     C86658   8.105   0.361   4.341 -0.8689 -0.3527  0.1518
  657MOL0     H86659   7.742   0.581   3.919  1.0547 -0.1830  0.7140
  657MOL0     H86660   7.503   0.626   3.892  1.2607  1.5790  1.6460
  657MOL0     H86661   7.278   0.595   4.204  0.5878 -0.2741  0.2426
  657MOL0     H86662   7.184   0.453   4.179 -1.3890  1.7344  1.8837
  657MOL0     H86663   7.133   0.701   4.014 -1.5564 -1.1360 -1.4991
  657MOL0     H86664   7.066   0.665   4.174 -0.7270 -2.4580  0.8168
  657MOL0     H86665   6.975   0.464   4.082 -1.1132  0.9076  0.4292
  657MOL0     H86666   7.043   0.498   3.916  4.3590  1.6962 -0.3754
  657MOL0     H86667   6.839   0.669   4.069 -0.6197 -0.8401 -0.3871
  657MOL0     H86668   6.921   0.738   3.935 -1.4213  1.7163  2.8252
  657MOL0     H86669   6.762   0.481   3.934  1.2383 -0.9196  0.3028
  657MOL0     H86670   6.850   0.563   3.794  2.1401 -0.2291  0.8592
  657MOL0     H86671   6.622   0.689   3.979 -0.3488  0.0527 -0.2903
  657MOL0     H86672   6.588   0.625   3.839 -0.9845  1.6478 -0.1905
  657MOL0     H86673   6.763   0.870   3.860 -1.0528  1.0730 -0.9222
  657MOL0     H86674   6.775   0.768   3.713  0.5514  0.5453  0.6318
  657MOL0     H86675   6.528   0.776   3.689 -0.8684  1.6023 -2.7221
  657MOL0     H86676   6.606   0.931   3.664 -0.9238  1.4230  1.1590
  657MOL0     H86677   6.589   1.108   3.874 -1.1117  2.3773  1.3738
  657MOL0     H86678   6.305   1.286   3.897  2.5359 -0.5752 -1.1053
  657MOL0     H86679   6.427   1.281   4.019  0.0497  0.7572 -0.0193
  657MOL0     H86680   6.242   1.289   4.161 -0.1934  0.2003 -1.0004
  657MOL0     H86681   6.269   1.113   4.154  2.3097 -0.8311 -0.2130
  657MOL0     H86682   6.096   1.282   3.955 -2.1408 -0.4868 -0.2522
  657MOL0     H86683   6.082   1.112   3.987  0.3018  0.0332  0.5942
  657MOL0     H86684   5.980   1.174   4.216  0.8429 -0.9983 -0.6814
  657MOL0     H86685   5.893   1.234   4.070 -0.8888  0.4796  2.9327
  657MOL0     H86686   5.791   1.289   4.341 -0.3498 -0.7680  1.4234
  657MOL0     H86687   5.603   1.417   4.412 -0.6783  0.7573 -0.2118
  657MOL0     H86688   5.273   1.759   4.451 -3.9121 -2.1021  0.4596
  657MOL0     H86689   5.074   1.849   4.437  2.9819 -1.4616  2.1404
  657MOL0     H86690   4.952   2.001   4.021  0.2889 -0.9806 -0.8629
  657MOL0     H86691   4.985   2.132   4.137 -2.1039  0.8206 -0.5998
  657MOL0     H86692   4.759   2.146   4.049 -0.8714 -2.1589 -0.8214
  657MOL0     H86693   4.745   2.111   4.221 -3.8970 -0.3653 -0.6702
  657MOL0     H86694   4.714   1.870   4.174 -0.5840  0.3487 -0.0323
  657MOL0     H86695   4.720   1.899   4.001 -2.8247  0.0998 -1.1955
  657MOL0     H86696   4.492   1.869   4.121  0.0281 -0.0261  2.2985
  657MOL0     H86697   4.524   2.024   4.195  0.5855  0.7134 -2.1275
  657MOL0     H86698   4.479   1.971   3.891 -1.1796 -0.2870 -0.6498
  657MOL0     H86699   4.528   2.123   3.964  1.1512 -0.7956 -0.2021
  657MOL0     H86700   4.338   2.156   4.091 -0.6168 -0.6687  2.5666
  657MOL0     H86701   4.288   1.985   4.070  0.2985 -0.4558 -0.2769
  657MOL0     H86702   4.147   2.120   3.948  0.0693  0.0433  0.0508
  657MOL0     H86703   4.275   2.183   3.838  1.6435  2.3597  3.4532
  657MOL0     H86704   4.202   1.881   3.887 -2.8205 -0.9299 -0.8116
  657MOL0     H86705   4.295   1.948   3.756  0.8721 -0.0591  0.9409
  657MOL0     H86706   5.150   1.951   4.013  0.6198 -1.0654 -0.6537
  657MOL0     H86707   5.374   1.882   4.047 -2.4026  1.5319 -1.3027
  657MOL0     H86708   5.749   1.752   4.176 -1.0296 -1.1237 -3.1764
  657MOL0     H86709   5.935   1.617   4.103  0.0669  0.0796  0.2778
  657MOL0     H86710   7.400   0.307   4.161  0.8023 -0.7712  1.3645
  657MOL0     H86711   7.638   0.257   4.179 -0.4418 -1.1695 -2.6620
  657MOL0     H86712   8.059   0.323   4.001  0.5249 -0.9293 -0.4121
  657MOL0     H86713   8.302   0.250   4.023 -0.0659  0.2340  0.1834
  657MOL0     H86714   8.453   0.053   4.247 -0.8504  1.9819 -2.8256
  657MOL0     H86715   8.390   0.115   4.398 -0.0900 -0.3995 -1.2340
  657MOL0     H86716   8.610   0.212   4.439 -2.5352 -0.1638  0.5402
  657MOL0     H86717   8.601   0.030   4.446 -1.6255 -0.4759 -1.5573
  657MOL0     H86718   8.665   0.007   4.217 -0.6126  0.7438 -2.2333
  657MOL0     H86719   8.804   0.074   4.314  0.7599  0.1009 -0.9316
  657MOL0     H86720   8.814   0.188   4.111  0.0599  1.5777  0.9401
  657MOL0     H86721   8.646   0.223   4.104  0.8233  1.6705 -0.0665
  657MOL0     H86722   8.846   0.513   4.354  0.2073 -0.6991  1.6680
  657MOL0     H86723   8.283   0.313   4.447 -1.6815 -0.3580  1.5313
  657MOL0     H86724   8.053   0.394   4.431  0.3884  1.9187  0.1147
  658MOL0     O86725   1.013   7.010   8.219  0.2961  0.4295 -1.0586
  658MOL0     C86726   1.037   7.114   8.162  0.6012 -0.5653  0.2281
  658MOL0     O86727   0.940   7.210   8.137 -0.7226  0.1084 -0.1310
  658MOL0     C86728   0.801   7.211   8.158  0.3684 -0.2963  0.7260
  658MOL0     C86729   0.720   7.299   8.081 -0.3825 -0.2740 -0.6798
  658MOL0     C86730   0.579   7.308   8.102  0.3595  0.0309 -0.0509
  658MOL0     C86731   0.522   7.235   8.206 -0.3132 -0.0302  0.0775
  658MOL0     O86732   0.391   7.251   8.226 -1.0844 -1.0610 -0.4397
  658MOL0     C86733   0.345   7.218   8.358 -0.8437  0.3636 -1.0859
  658MOL0     C86734   0.200   7.268   8.377 -0.3786 -0.2773  0.2267
  658MOL0     C86735   0.099   7.210   8.286 -1.3479  0.2799 -0.0047
  658MOL0     C86736  -0.032   7.259   8.341  0.1122  0.7939  0.2714
  658MOL0     C86737  -0.154   7.225   8.252 -0.6899 -0.2879 -0.0554
  658MOL0     C86738  -0.286   7.217   8.323 -1.3500 -0.2452  0.2216
  658MOL0     C86739  -0.415   7.229   8.237 -0.7288  0.0882 -0.2423
  658MOL0     C86740  -0.403   7.156   8.107 -0.7404  0.0687 -0.7878
  658MOL0     N86741  -0.539   7.139   8.049  0.8866  0.0001 -0.4750
  658MOL0     C86742  -0.629   7.236   8.027 -0.4481  0.1593 -0.5141
  658MOL0     C86743  -0.751   7.177   8.006  1.0459 -0.2414 -0.9769
  658MOL0     C86744  -0.879   7.260   7.967  0.3552  0.6547 -0.5056
  658MOL0     C86745  -0.983   7.267   8.079 -0.1172  0.1025 -0.3045
  658MOL0     C86746  -1.082   7.382   8.053 -0.8052  0.7178 -0.4427
  658MOL0     C86747  -1.187   7.384   8.164  0.5330 -0.3130  0.4684
  658MOL0     O86748  -1.273   7.276   8.116  0.9768 -0.4140 -0.3311
  658MOL0     C86749  -1.403   7.278   8.168 -0.6604  0.4746 -0.2446
  658MOL0     C86750  -1.440   7.166   8.253  0.0465 -0.8224  0.5040
  658MOL0     C86751  -1.568   7.159   8.304 -0.0652 -0.8661  0.6109
  658MOL0     C86752  -1.650   7.269   8.283  0.7037  0.2055  0.1435
  658MOL0     C86753  -1.775   7.280   8.371 -0.4302 -0.5528  0.6920
  658MOL0     O86754  -1.862   7.383   8.341  0.0724  0.6025 -0.6556
  658MOL0     C86755  -1.987   7.382   8.402 -0.0463 -0.2848 -0.9033
  658MOL0     C86756  -2.002   7.449   8.520 -0.0873  0.0837  0.6012
  658MOL0     C86757  -2.137   7.477   8.566 -0.1621  0.4074 -1.1153
  658MOL0     C86758  -2.247   7.435   8.488 -0.3294 -0.4734  0.6670
  658MOL0     O86759  -2.369   7.488   8.520  0.0261  0.3608 -0.0886
  658MOL0     C86760  -2.489   7.427   8.468  0.0443 -1.2397  0.1830
  658MOL0     C86761  -2.607   7.489   8.541  0.9072  0.3921  0.7822
  658MOL0     C86762  -2.742   7.443   8.487 -0.5294 -0.7392 -0.2435
  658MOL0     C86763  -2.856   7.526   8.561  0.1608  0.1965 -0.2362
  658MOL0     C86764  -2.995   7.502   8.513  0.1832  0.2732 -0.4534
  658MOL0     C86765  -3.099   7.591   8.577  0.8058  0.9816  0.1317
  658MOL0     C86766  -3.241   7.571   8.509 -0.6222  0.4322  0.1356
  658MOL0     C86767  -3.363   7.649   8.560 -0.1737 -0.5677  0.1506
  658MOL0    Cl86768  -3.507   7.564   8.524 -0.5861  0.3519  0.5857
  658MOL0     C86769  -2.227   7.364   8.366  0.2974  0.9194 -1.1423
  658MOL0     C86770  -2.095   7.333   8.330  0.2287 -0.4218  0.4311
  658MOL0     O86771  -1.789   7.190   8.450  0.4194 -0.5598 -0.3121
  658MOL0     C86772  -1.615   7.372   8.209  0.4093 -1.0456 -0.9279
  658MOL0     C86773  -1.496   7.374   8.143 -0.1868 -0.0367 -0.8849
  658MOL0     N86774  -0.743   7.046   8.024 -0.5711  0.0102 -0.0566
  658MOL0     N86775  -0.611   7.025   8.051 -0.8437 -0.2459  0.5913
  658MOL0     C86776   0.603   7.147   8.280  0.2728  0.5077 -0.0107
  658MOL0     C86777   0.738   7.130   8.252 -0.8579 -0.2001 -0.0511
  658MOL0     C86778   1.180   7.142   8.122 -0.0782  0.5315  0.3201
  658MOL0     C86779   1.286   7.061   8.160 -0.1256 -0.4277  0.1449
  658MOL0     C86780   1.415   7.093   8.117  0.5115 -0.6126  0.9294
  658MOL0     C86781   1.437   7.198   8.031  0.0220  0.3067  0.4934
  658MOL0     O86782   1.568   7.223   7.988 -0.6884  0.1617 -0.2773
  658MOL0     C86783   1.598   7.324   7.893 -0.1885  0.0498  0.8828
  658MOL0     C86784   1.743   7.333   7.849 -0.2825  0.1545  0.2973
  658MOL0     C86785   1.775   7.212   7.762  0.7009  0.1412 -0.4974
  658MOL0     C86786   1.902   7.235   7.682  0.3047 -0.1144 -0.1159
  658MOL0     C86787   1.934   7.114   7.608 -0.1592 -0.6177 -0.6157
  658MOL0     C86788   1.942   7.005   7.559  0.1948 -0.3224 -0.5066
  658MOL0     C86789   1.331   7.282   8.002  0.8634 -0.8754 -0.2255
  658MOL0     C86790   1.203   7.257   8.043 -0.5976  0.4876  0.3306
  658MOL0     H86791   0.776   7.361   8.011 -1.0089  2.9933  1.5189
  658MOL0     H86792   0.508   7.367   8.045 -1.8358  2.8190  4.9012
  658MOL0     H86793   0.414   7.264   8.429  1.7037 -1.2160 -2.3969
  658MOL0     H86794   0.348   7.111   8.378  1.1648  0.8249  1.5462
  658MOL0     H86795   0.200   7.377   8.370  1.3466 -0.3665 -3.1166
  658MOL0     H86796   0.165   7.245   8.478  1.8285  0.3895  1.1986
  658MOL0     H86797   0.111   7.103   8.268 -0.2746  0.1466  1.3030
  658MOL0     H86798   0.112   7.247   8.184 -3.3909 -1.0428 -0.7922
  658MOL0     H86799  -0.039   7.208   8.437  0.6026  0.8523  0.3434
  658MOL0     H86800  -0.033   7.367   8.359  0.5313  0.7650  0.4803
  658MOL0     H86801  -0.141   7.126   8.206 -2.2821 -0.0681 -1.0848
  658MOL0     H86802  -0.165   7.305   8.177 -0.9304 -0.9384 -0.7317
  658MOL0     H86803  -0.287   7.296   8.399  2.5280  0.7436 -0.4966
  658MOL0     H86804  -0.301   7.126   8.381 -2.2515  1.5036  2.9121
  658MOL0     H86805  -0.508   7.200   8.287 -1.0800 -1.1466 -1.5619
  658MOL0     H86806  -0.426   7.336   8.217  0.6275  0.5971  1.4898
  658MOL0     H86807  -0.376   7.051   8.122  1.6248  0.2492 -3.1414
  658MOL0     H86808  -0.325   7.189   8.039  0.6437  0.0644  0.7208
  658MOL0     H86809  -0.609   7.343   8.028  0.4221  0.0219 -1.5537
  658MOL0     H86810  -0.931   7.198   7.893  2.0153 -2.9979  1.1361
  658MOL0     H86811  -0.850   7.355   7.923  0.1663 -0.8274 -4.1626
  658MOL0     H86812  -0.940   7.269   8.180  0.6227 -1.5966 -0.5369
  658MOL0     H86813  -1.040   7.174   8.070 -0.0163  0.2010 -2.4970
  658MOL0     H86814  -1.027   7.476   8.055 -0.1658  0.3533 -0.4658
  658MOL0     H86815  -1.130   7.367   7.955 -1.0178  0.6333 -0.3253
  658MOL0     H86816  -1.239   7.479   8.154 -0.0086 -0.6077  0.4243
  658MOL0     H86817  -1.142   7.359   8.260 -1.1456  2.8173  2.2337
  658MOL0     H86818  -1.364   7.090   8.262  0.7386 -0.3387 -0.8519
  658MOL0     H86819  -1.589   7.069   8.361 -1.1180  0.6592  2.7976
  658MOL0     H86820  -1.918   7.477   8.581  1.0759  0.4894 -1.1104
  658MOL0     H86821  -2.135   7.545   8.650  2.5904  0.9069 -1.4881
  658MOL0     H86822  -2.493   7.318   8.475  2.8747 -1.5211 -1.1057
  658MOL0     H86823  -2.500   7.465   8.366  0.5694  2.3493  1.3420
  658MOL0     H86824  -2.599   7.597   8.520 -0.1275  0.3400  0.0497
  658MOL0     H86825  -2.590   7.476   8.648  1.9087  1.7235  0.8239
  658MOL0     H86826  -2.757   7.337   8.509 -2.2736 -0.2455  1.2616
  658MOL0     H86827  -2.752   7.450   8.379 -2.0206 -2.1036 -0.2222
  658MOL0     H86828  -2.862   7.498   8.667  3.4767  1.1882  0.3299
  658MOL0     H86829  -2.835   7.633   8.557 -1.4639  0.5103 -0.7822
  658MOL0     H86830  -3.017   7.399   8.539 -0.0428  0.8138  1.6324
  658MOL0     H86831  -3.011   7.508   8.405 -0.3041  1.4366 -0.3383
  658MOL0     H86832  -3.063   7.695   8.574  3.9104 -0.0064 -2.0541
  658MOL0     H86833  -3.100   7.555   8.681  3.2719  1.5158  0.4039
  658MOL0     H86834  -3.220   7.609   8.408  1.5008  2.0656  1.0856
  658MOL0     H86835  -3.259   7.464   8.513  1.5910 -0.0102 -0.4484
  658MOL0     H86836  -3.362   7.750   8.519  1.5196 -1.5757 -2.5286
  658MOL0     H86837  -3.355   7.656   8.669  0.3946 -1.6114  0.1926
  658MOL0     H86838  -2.310   7.343   8.300  0.8080 -0.2099 -1.4500
  658MOL0     H86839  -2.068   7.289   8.235 -2.5251 -1.0108 -0.1755
  658MOL0     H86840  -1.688   7.451   8.194  1.9475  0.6092 -0.0183
  658MOL0     H86841  -1.453   7.461   8.094  2.0903 -0.8408 -0.4534
  658MOL0     H86842   0.571   7.099   8.373 -0.0095  4.9696  2.4484
  658MOL0     H86843   0.805   7.076   8.318  2.9328 -0.9600 -4.0072
  658MOL0     H86844   1.259   6.980   8.228  0.3660 -2.0295 -1.5002
  658MOL0     H86845   1.487   7.015   8.143 -0.0733 -1.3105  0.4830
  658MOL0     H86846   1.567   7.422   7.931  0.9956  1.0695 -0.6857
  658MOL0     H86847   1.538   7.316   7.802  0.7270 -0.9321  0.3540
  658MOL0     H86848   1.770   7.423   7.794  0.2616  0.3038  0.7940
  658MOL0     H86849   1.791   7.331   7.948 -0.5408  0.2021  0.4258
  658MOL0     H86850   1.700   7.198   7.683  1.2534 -0.4980 -0.9177
  658MOL0     H86851   1.772   7.124   7.827  0.3073  0.9231  0.5802
  658MOL0     H86852   1.876   7.312   7.609 -1.3178  0.3946  0.9373
  658MOL0     H86853   1.984   7.269   7.745 -1.6395  0.8967  1.9986
  658MOL0     H86854   1.966   6.907   7.525  0.9387 -0.6216  0.8302
  658MOL0     H86855   1.344   7.366   7.935 -0.1177 -0.0695  0.5624
  658MOL0     H86856   1.126   7.332   8.025 -0.0797  2.3196  4.4029
  659MOL0     O86857  10.005   9.868   5.383  0.1816 -0.0739  0.0852
  659MOL0     C86858  10.042   9.920   5.484 -0.8103 -0.3852 -0.3004
  659MOL0     O86859   9.962   9.977   5.576  0.0552  1.1290 -0.6081
  659MOL0     C86860   9.829   9.989   5.558 -0.6051  0.3577  0.7426
  659MOL0     C86861   9.782  10.111   5.545  0.2322 -0.5228  0.4829
  659MOL0     C86862   9.650  10.132   5.526 -0.0893  0.8087  0.1312
  659MOL0     C86863   9.559  10.025   5.522 -0.5579 -0.1417  0.3064
  659MOL0     O86864   9.427  10.049   5.519  0.2732  0.1135 -0.1071
  659MOL0     C86865   9.334   9.937   5.514  0.2970 -0.3265  0.0742
  659MOL0     C86866   9.194   9.991   5.493  0.2084 -0.4534 -0.5165
  659MOL0     C86867   9.090   9.888   5.547 -0.3598  0.2019 -0.6277
  659MOL0     C86868   8.945   9.926   5.510 -0.4169  0.2547  0.0974
  659MOL0     C86869   8.832   9.826   5.555 -0.4610 -0.0248  0.1164
  659MOL0     C86870   8.703   9.842   5.478  0.3360  0.5666 -0.1009
  659MOL0     C86871   8.589   9.772   5.554  0.3095 -0.3382 -0.6513
  659MOL0     C86872   8.468   9.755   5.466  0.8814 -0.0574 -0.8379
  659MOL0     N86873   8.403   9.894   5.437  0.3022  0.4114  0.0188
  659MOL0     C86874   8.305   9.952   5.506 -0.0776 -0.9333 -0.5145
  659MOL0     C86875   8.263  10.057   5.432 -0.1322  0.2731  0.4525
  659MOL0     C86876   8.170  10.163   5.467  0.2155 -0.1868  0.7899
  659MOL0     C86877   8.025  10.123   5.451  0.7764  0.0283 -0.3397
  659MOL0     C86878   7.977  10.101   5.305 -0.5425  0.2798  0.9227
  659MOL0     C86879   7.842  10.040   5.295  1.1250 -1.1587 -0.0007
  659MOL0     O86880   7.758  10.131   5.361  0.4715  0.3534  1.0046
  659MOL0     C86881   7.630  10.113   5.375 -0.0285 -0.0124  0.1585
  659MOL0     C86882   7.565   9.995   5.348 -0.0259 -1.2367 -0.4352
  659MOL0     C86883   7.428   9.977   5.377 -1.4036  0.9753 -0.3039
  659MOL0     C86884   7.358  10.090   5.423  0.0953 -0.1485 -0.0850
  659MOL0     C86885   7.215  10.080   5.445 -0.4509 -0.7803 -0.2353
  659MOL0     O86886   7.149  10.196   5.482 -1.2381  0.0508  0.2685
  659MOL0     C86887   7.021  10.187   5.528 -0.1800  0.3064  0.6004
  659MOL0     C86888   6.929  10.263   5.454  0.1647  0.1546  0.3079
  659MOL0     C86889   6.797  10.274   5.480  0.7562  0.6589  0.1059
  659MOL0     C86890   6.740  10.182   5.573  0.8605 -0.7884  0.1433
  659MOL0     O86891   6.610  10.154   5.599  0.5617  0.8123  0.2577
  659MOL0     C86892   6.513  10.228   5.527  0.3047 -0.6272 -0.7108
  659MOL0     C86893   6.365  10.189   5.557 -0.2144 -0.1707 -0.4964
  659MOL0     C86894   6.308  10.239   5.684  0.3206  0.7460  0.1914
  659MOL0     C86895   6.332  10.394   5.713 -0.1219  0.1612  0.1899
  659MOL0     C86896   6.219  10.459   5.799 -0.1252 -0.3150  0.3794
  659MOL0     C86897   6.200  10.404   5.944  0.5042  0.0153  0.4892
  659MOL0     C86898   6.095  10.475   6.018 -0.0613  0.4672 -1.2039
  659MOL0     C86899   5.959  10.458   5.953  0.4592  0.6508  0.1446
  659MOL0    Cl86900   5.822  10.518   6.051  0.0825  0.1141  0.1803
  659MOL0     C86901   6.821  10.103   5.656 -0.5958  0.4769 -0.4899
  659MOL0     C86902   6.963  10.103   5.632  0.7246  0.0189 -0.0436
  659MOL0     O86903   7.165   9.966   5.435 -0.0034 -0.7539 -0.2981
  659MOL0     C86904   7.419  10.212   5.428 -0.1766 -0.1213  0.1412
  659MOL0     C86905   7.556  10.219   5.422  0.9041  0.7517 -0.8607
  659MOL0     N86906   8.330  10.057   5.311  0.0421 -1.1907  0.3201
  659MOL0     N86907   8.410   9.958   5.318  0.1038 -0.1040  0.5421
  659MOL0     C86908   9.607   9.892   5.519 -0.2195  0.2736  0.0555
  659MOL0     C86909   9.745   9.881   5.531 -0.0568 -0.2528  0.3948
  659MOL0     C86910  10.183   9.902   5.516 -1.3637  0.4311  0.3148
  659MOL0     C86911  10.231   9.900   5.649 -0.4800  0.5337  0.0250
  659MOL0     C86912  10.365   9.869   5.690 -0.1351 -0.1733  0.1495
  659MOL0     C86913  10.451   9.829   5.592 -0.9763 -0.1859  0.1299
  659MOL0     O86914  10.582   9.796   5.638 -0.1094  0.3358 -0.2478
  659MOL0     C86915  10.662   9.707   5.561 -0.0899 -0.2223  0.1438
  659MOL0     C86916  10.767   9.633   5.644  0.0571  0.3724 -0.1101
  659MOL0     C86917  10.854   9.742   5.713 -0.1920 -0.2573 -0.1719
  659MOL0     C86918  10.993   9.689   5.747 -0.1401 -0.0975 -1.1094
  659MOL0     C86919  11.074   9.657   5.633 -0.0036  0.0595  0.2635
  659MOL0     C86920  11.144   9.639   5.529 -0.9320  0.3102  0.1951
  659MOL0     C86921  10.410   9.832   5.456 -0.1803 -0.5570 -0.3228
  659MOL0     C86922  10.280   9.872   5.415 -0.2190  0.0731  0.3135
  659MOL0     H86923   9.840  10.202   5.556  0.7934 -0.7095 -0.8031
  659MOL0     H86924   9.611  10.233   5.531 -1.5966  0.1995  2.3693
  659MOL0     H86925   9.339   9.879   5.607  2.6280  1.6092  1.2766
  659MOL0     H86926   9.355   9.878   5.424 -1.6622 -0.5816 -0.2489
  659MOL0     H86927   9.172  10.019   5.389 -0.9907 -0.7443 -0.3523
  659MOL0     H86928   9.192  10.084   5.552 -0.0315 -1.3866  1.0028
  659MOL0     H86929   9.092   9.880   5.656 -1.4008 -1.7504 -0.7169
  659MOL0     H86930   9.118   9.787   5.516  0.0396  1.0569 -3.2403
  659MOL0     H86931   8.925  10.030   5.535  1.9201  0.8931 -0.3945
  659MOL0     H86932   8.943   9.926   5.401 -1.6927 -3.8372 -0.0396
  659MOL0     H86933   8.820   9.829   5.664 -3.1194 -1.6069 -0.0381
  659MOL0     H86934   8.862   9.721   5.543 -0.5752 -0.2327  1.5051
  659MOL0     H86935   8.708   9.794   5.380 -0.2184 -1.9257  1.0002
  659MOL0     H86936   8.673   9.945   5.459 -4.0674 -0.7303 -1.5390
  659MOL0     H86937   8.628   9.677   5.590  0.1342  0.0450  0.6098
  659MOL0     H86938   8.552   9.839   5.632 -0.9849  0.6419 -2.0506
  659MOL0     H86939   8.391   9.690   5.510  1.1004 -0.2397 -0.7209
  659MOL0     H86940   8.499   9.700   5.376  0.1557  0.1193 -1.2061
  659MOL0     H86941   8.259   9.924   5.600  0.7988  1.4861  0.7231
  659MOL0     H86942   8.189  10.248   5.401 -1.1388 -0.6200 -0.2342
  659MOL0     H86943   8.175  10.194   5.571 -0.5228 -1.6316  1.2914
  659MOL0     H86944   7.960  10.192   5.506  1.9649  1.9023 -1.1935
  659MOL0     H86945   8.025  10.030   5.508  3.3232  1.3362  2.0803
  659MOL0     H86946   7.977  10.197   5.251  5.2509  0.9770  1.4960
  659MOL0     H86947   8.052  10.039   5.256 -2.1119 -0.5092 -0.5861
  659MOL0     H86948   7.840   9.940   5.341 -0.4025 -2.1204 -1.9572
  659MOL0     H86949   7.812  10.026   5.191 -0.2422  1.5202 -0.0567
  659MOL0     H86950   7.622   9.907   5.317  1.9833  0.2136 -1.0640
  659MOL0     H86951   7.383   9.880   5.354  1.4610 -1.2845  2.6658
  659MOL0     H86952   6.960  10.305   5.359 -1.4276  2.1689  0.6396
  659MOL0     H86953   6.733  10.338   5.420  2.3822  0.4411 -1.9600
  659MOL0     H86954   6.531  10.229   5.419  0.6831  1.0625 -0.6481
  659MOL0     H86955   6.519  10.332   5.558 -0.2702 -0.2654 -1.7720
  659MOL0     H86956   6.346  10.082   5.546 -4.0443  0.5225 -2.0797
  659MOL0     H86957   6.308  10.235   5.475  2.8115  4.4629 -0.3873
  659MOL0     H86958   6.341  10.170   5.763  1.7418 -1.7369 -2.3963
  659MOL0     H86959   6.201  10.227   5.667  0.7345  0.7431 -2.8959
  659MOL0     H86960   6.426  10.415   5.764  0.5385  0.4795 -1.1151
  659MOL0     H86961   6.332  10.445   5.617 -0.4074 -0.5184 -0.1833
  659MOL0     H86962   6.125  10.450   5.744 -0.0751  0.2794  0.1892
  659MOL0     H86963   6.241  10.566   5.796 -0.5406 -0.1403 -4.1855
  659MOL0     H86964   6.293  10.422   5.999  1.1797  0.1457 -0.6633
  659MOL0     H86965   6.188  10.296   5.935  0.2625  0.1264 -0.5547
  659MOL0     H86966   6.090  10.437   6.120  1.7817 -0.6075 -1.4728
  659MOL0     H86967   6.121  10.582   6.017 -2.3154  1.0882 -2.9026
  659MOL0     H86968   5.947  10.353   5.925  1.2231  0.7857 -0.7524
  659MOL0     H86969   5.957  10.514   5.859 -0.5046 -3.0935 -2.2981
  659MOL0     H86970   6.787  10.025   5.722 -0.7022  1.2639  0.4019
  659MOL0     H86971   7.030  10.037   5.685  1.4875 -0.0667 -1.0766
  659MOL0     H86972   7.372  10.306   5.453 -0.2319 -0.4759  1.4337
  659MOL0     H86973   7.604  10.315   5.434  1.0902  0.4448  1.2399
  659MOL0     H86974   9.547   9.803   5.504  1.2589 -0.8665  0.6964
  659MOL0     H86975   9.807   9.792   5.534  0.0814 -0.1792 -0.0700
  659MOL0     H86976  10.166   9.930   5.731 -2.1828 -1.9043 -0.3130
  659MOL0     H86977  10.387   9.866   5.796  0.3222 -2.7856  0.0630
  659MOL0     H86978  10.709   9.764   5.480 -0.9438  0.0029 -0.1975
  659MOL0     H86979  10.605   9.622   5.523  0.3980 -1.0387  1.1837
  659MOL0     H86980  10.724   9.574   5.726  0.0307  1.2977  0.5537
  659MOL0     H86981  10.830   9.574   5.577 -0.4893  0.4073 -0.6637
  659MOL0     H86982  10.809   9.764   5.810  0.6687 -0.3272  0.2586
  659MOL0     H86983  10.861   9.829   5.647 -1.6339  0.2461  0.3110
  659MOL0     H86984  11.041   9.773   5.798  2.4028 -0.5979 -2.5181
  659MOL0     H86985  10.991   9.605   5.817  2.8974  1.0629  0.5449
  659MOL0     H86986  11.213   9.609   5.453  0.6083  1.4085  1.1121
  659MOL0     H86987  10.492   9.814   5.388  1.6412  0.8760  1.3633
  659MOL0     H86988  10.253   9.877   5.310 -2.3363  0.4299  0.8296
  660MOL0     O86989   9.629   4.330   8.389  0.2013  0.4408  0.1000
  660MOL0     C86990   9.656   4.297   8.272 -0.5396  0.3225 -0.0433
  660MOL0     O86991   9.569   4.259   8.182 -0.0511 -0.0989  0.1801
  660MOL0     C86992   9.439   4.254   8.233  0.1558  0.5511  0.7877
  660MOL0     C86993   9.347   4.343   8.171  0.4485  0.1919 -0.3268
  660MOL0     C86994   9.206   4.327   8.190 -0.4132 -0.0986 -0.2242
  660MOL0     C86995   9.157   4.208   8.248  0.0141  0.3804 -0.3841
  660MOL0     O86996   9.018   4.199   8.275  0.2333 -0.1894 -0.2448
  660MOL0     C86997   8.954   4.079   8.316  0.1221  0.1997 -0.1309
  660MOL0     C86998   8.800   4.075   8.268  0.3483  0.1520 -0.0888
  660MOL0     C86999   8.714   4.187   8.316  0.1495  0.0247 -0.9620
  660MOL0     C87000   8.568   4.163   8.273 -1.1483 -1.1633  0.2954
  660MOL0     C87001   8.475   4.275   8.322  0.3487 -0.5115  0.4077
  660MOL0     C87002   8.500   4.401   8.246 -0.3564 -0.3665  0.4029
  660MOL0     C87003   8.395   4.500   8.282  0.9130  0.0065  0.0439
  660MOL0     C87004   8.257   4.473   8.209 -0.7820  0.0721  0.7505
  660MOL0     N87005   8.168   4.591   8.208 -0.3928  0.1595  0.6897
  660MOL0     C87006   8.095   4.636   8.315  0.6491 -0.8413  0.0253
  660MOL0     C87007   8.002   4.718   8.263  1.0595 -0.4625  0.0889
  660MOL0     C87008   7.880   4.784   8.330 -0.2093 -0.3874 -0.2293
  660MOL0     C87009   7.757   4.693   8.327  0.5285 -0.5624  0.5234
  660MOL0     C87010   7.789   4.549   8.379 -0.1138 -0.4696  0.6524
  660MOL0     C87011   7.659   4.464   8.428 -0.0310  0.6813 -0.2494
  660MOL0     O87012   7.609   4.539   8.538  0.2009  0.3027 -0.1750
  660MOL0     C87013   7.495   4.512   8.603  0.1913 -0.1904  0.6436
  660MOL0     C87014   7.402   4.418   8.575 -1.0350 -0.1825 -0.1903
  660MOL0     C87015   7.286   4.417   8.650  0.9056 -0.4444 -0.2263
  660MOL0     C87016   7.255   4.506   8.748  0.1970  0.6772  0.7512
  660MOL0     C87017   7.127   4.504   8.821  0.0970 -0.7746 -0.4262
  660MOL0     O87018   7.033   4.421   8.775  0.3241  0.2575  0.3721
  660MOL0     C87019   6.909   4.429   8.839 -0.3283 -0.4516  0.4454
  660MOL0     C87020   6.894   4.400   8.975 -0.6542  0.5878  0.6773
  660MOL0     C87021   6.769   4.384   9.033  0.1222  0.0855  0.1710
  660MOL0     C87022   6.655   4.409   8.960 -1.0379  0.2199  0.3758
  660MOL0     O87023   6.540   4.372   9.021  0.0441 -0.4434 -0.0276
  660MOL0     C87024   6.449   4.295   8.936 -0.1376 -0.6280 -0.5415
  660MOL0     C87025   6.323   4.376   8.933 -0.1246  0.3524 -0.4697
  660MOL0     C87026   6.317   4.500   8.842 -1.1710  0.6458  0.0371
  660MOL0     C87027   6.188   4.585   8.853  0.2640 -0.6279  0.7348
  660MOL0     C87028   6.201   4.713   8.779 -0.7338 -0.1108  0.5373
  660MOL0     C87029   6.082   4.798   8.776 -0.1409 -0.3783 -0.3920
  660MOL0     C87030   5.983   4.768   8.661  0.4668  0.4904  0.3847
  660MOL0     C87031   5.861   4.869   8.646 -0.3710 -0.5211  0.6265
  660MOL0    Cl87032   5.823   4.955   8.801 -0.1214  0.1082  0.2819
  660MOL0     C87033   6.666   4.446   8.827 -0.7293 -0.0141  0.2694
  660MOL0     C87034   6.795   4.446   8.764  0.0339 -0.8476 -0.2626
  660MOL0     O87035   7.115   4.595   8.905  0.8760  0.1699  0.4363
  660MOL0     C87036   7.362   4.590   8.783  0.1269 -0.3763  0.6409
  660MOL0     C87037   7.480   4.599   8.715  0.3636 -0.5813  0.4740
  660MOL0     N87038   8.024   4.730   8.128 -0.3010 -0.9436 -0.9328
  660MOL0     N87039   8.119   4.654   8.096 -0.2140  0.3456 -0.7533
  660MOL0     C87040   9.254   4.109   8.293 -0.1329 -0.6108  0.3522
  660MOL0     C87041   9.391   4.139   8.288 -0.5212  0.1861 -0.3541
  660MOL0     C87042   9.801   4.301   8.231 -0.2436 -0.6890  0.0888
  660MOL0     C87043   9.891   4.376   8.304 -0.5972  0.0846 -0.3022
  660MOL0     C87044  10.024   4.386   8.267  0.1384  0.3970 -0.1249
  660MOL0     C87045  10.074   4.322   8.151 -0.5525 -0.4265 -0.2529
  660MOL0     O87046  10.198   4.319   8.095  0.4525 -0.1263 -0.1500
  660MOL0     C87047  10.308   4.363   8.166  1.1394 -0.5608 -0.8608
  660MOL0     C87048  10.433   4.294   8.109 -0.1126 -0.5649 -0.7089
  660MOL0     C87049  10.565   4.339   8.167  1.1283  0.6159 -0.0218
  660MOL0     C87050  10.600   4.489   8.145  0.0408  0.1856  0.2284
  660MOL0     C87051  10.673   4.501   8.014  0.4808 -0.2410 -0.2876
  660MOL0     C87052  10.742   4.502   7.914 -0.1710  0.8431 -0.3740
  660MOL0     C87053   9.979   4.273   8.069  0.9432  0.8371  0.0235
  660MOL0     C87054   9.843   4.261   8.105  0.5572 -0.6708  0.4797
  660MOL0     H87055   9.380   4.436   8.126  0.8162  0.8199  1.1633
  660MOL0     H87056   9.139   4.406   8.157 -1.5256 -0.3969  1.1865
  660MOL0     H87057   8.974   4.071   8.424 -1.6506 -0.2428  0.1900
  660MOL0     H87058   9.010   3.993   8.277  0.2445 -0.8457  2.1666
  660MOL0     H87059   8.758   3.983   8.310  1.0288 -0.2755 -0.3339
  660MOL0     H87060   8.797   4.073   8.158  0.1605 -1.1061 -0.0762
  660MOL0     H87061   8.770   4.276   8.284  0.5558  1.6022  3.4543
  660MOL0     H87062   8.720   4.199   8.425  1.0077  0.2234 -1.0204
  660MOL0     H87063   8.565   4.162   8.163  0.2435 -3.1159  0.2264
  660MOL0     H87064   8.538   4.065   8.311 -1.0388 -1.1320  0.4653
  660MOL0     H87065   8.491   4.296   8.428  1.1568 -1.7912  0.5579
  660MOL0     H87066   8.372   4.237   8.317 -0.3789  1.1010  1.9459
  660MOL0     H87067   8.506   4.387   8.138 -0.9808 -0.9054  0.4343
  660MOL0     H87068   8.593   4.454   8.267 -1.0262  1.1774 -0.3064
  660MOL0     H87069   8.380   4.510   8.390 -0.4773  1.7727 -0.2679
  660MOL0     H87070   8.418   4.599   8.243  1.6154 -0.0626  0.2644
  660MOL0     H87071   8.200   4.397   8.264 -1.3259  1.2540  1.9010
  660MOL0     H87072   8.275   4.432   8.110  2.0700 -1.2870  1.7236
  660MOL0     H87073   8.094   4.605   8.419 -1.2750  0.2347  0.3727
  660MOL0     H87074   7.873   4.880   8.279  1.1343  0.3498  0.8837
  660MOL0     H87075   7.903   4.809   8.434  0.4429  2.0363 -0.8862
  660MOL0     H87076   7.730   4.687   8.221 -0.2077  1.5994  0.5595
  660MOL0     H87077   7.676   4.750   8.372  0.8160  1.9473 -1.8776
  660MOL0     H87078   7.837   4.483   8.307  2.3752  0.7207  1.1264
  660MOL0     H87079   7.872   4.557   8.450  1.1846 -5.1455 -0.0265
  660MOL0     H87080   7.684   4.363   8.460 -0.2922  1.0383  1.1644
  660MOL0     H87081   7.585   4.454   8.347  0.1831 -1.5731 -0.2104
  660MOL0     H87082   7.409   4.342   8.498 -1.8808 -0.9298  0.4496
  660MOL0     H87083   7.215   4.340   8.622  1.0859 -1.4941  2.0353
  660MOL0     H87084   6.987   4.409   9.029 -0.5522  2.3265  0.2791
  660MOL0     H87085   6.766   4.346   9.135  0.1665 -0.4197 -0.0117
  660MOL0     H87086   6.433   4.204   8.994 -0.1656 -1.7654 -2.2699
  660MOL0     H87087   6.474   4.271   8.832  0.6119  1.5237 -0.9208
  660MOL0     H87088   6.298   4.400   9.036 -0.9498  0.5920 -0.7153
  660MOL0     H87089   6.246   4.304   8.905  0.2644 -0.3357  0.2006
  660MOL0     H87090   6.338   4.461   8.742 -2.2347  0.2915 -0.0574
  660MOL0     H87091   6.397   4.567   8.875 -0.5764 -0.2039  0.3588
  660MOL0     H87092   6.106   4.528   8.808 -1.3831  0.8780  1.7168
  660MOL0     H87093   6.164   4.596   8.959 -1.2073  1.2117  0.2609
  660MOL0     H87094   6.235   4.688   8.678  1.1457 -0.9919  1.3608
  660MOL0     H87095   6.282   4.767   8.828  0.0958  1.8380 -2.6479
  660MOL0     H87096   6.116   4.902   8.774  1.7283 -0.8859  1.6745
  660MOL0     H87097   6.023   4.784   8.867 -0.3177 -1.0209 -0.5999
  660MOL0     H87098   6.041   4.752   8.570  1.7288 -1.5651  1.4831
  660MOL0     H87099   5.941   4.673   8.693  1.6287  0.5274  2.2090
  660MOL0     H87100   5.772   4.818   8.607  0.6614 -1.0168 -1.2141
  660MOL0     H87101   5.893   4.936   8.566 -0.8133 -0.8650  0.1546
  660MOL0     H87102   6.585   4.466   8.758  1.0002 -1.9007 -2.5423
  660MOL0     H87103   6.802   4.461   8.656 -0.3938  1.0490 -0.0680
  660MOL0     H87104   7.341   4.650   8.871 -2.2729 -1.4622  0.9022
  660MOL0     H87105   7.573   4.650   8.736  0.9034 -0.9255 -0.9461
  660MOL0     H87106   9.226   4.022   8.351 -0.6427  0.0811  1.1683
  660MOL0     H87107   9.457   4.076   8.348 -1.4693 -1.2462 -0.7709
  660MOL0     H87108   9.866   4.426   8.398 -0.7099 -0.4868 -0.0233
  660MOL0     H87109  10.088   4.451   8.326  1.5231 -1.4994  0.5635
  660MOL0     H87110  10.293   4.361   8.274  2.2835  2.9879 -0.4965
  660MOL0     H87111  10.315   4.472   8.159 -0.5665 -0.3101  0.6049
  660MOL0     H87112  10.427   4.186   8.121  0.4292 -0.6300 -0.9917
  660MOL0     H87113  10.432   4.310   8.001 -0.0569 -0.7152 -0.7300
  660MOL0     H87114  10.644   4.272   8.130  0.4658  0.6928 -1.6914
  660MOL0     H87115  10.560   4.324   8.275 -3.1230 -1.9046 -0.3613
  660MOL0     H87116  10.504   4.542   8.144  0.1345  0.5231  2.6018
  660MOL0     H87117  10.654   4.524   8.233  1.0480 -1.3469  0.2737
  660MOL0     H87118  10.818   4.516   7.839 -1.1940  1.6875 -1.2932
  660MOL0     H87119  10.009   4.237   7.971 -2.5312 -0.3592 -0.7655
  660MOL0     H87120   9.779   4.211   8.033 -1.8485 -0.4735  2.3597
  661MOL0     O87121   9.806   8.923   3.800 -0.0467 -0.2041 -0.8913
  661MOL0     C87122   9.879   8.831   3.761 -0.5788 -0.5491 -0.2024
  661MOL0     O87123   9.834   8.704   3.731 -0.0211  0.2401 -0.6656
  661MOL0     C87124   9.697   8.683   3.724 -0.5025  0.8258  0.6761
  661MOL0     C87125   9.641   8.647   3.601  0.7698 -0.1362 -0.4767
  661MOL0     C87126   9.511   8.596   3.602  0.3330 -0.7825  0.5381
  661MOL0     C87127   9.420   8.604   3.711  0.0878 -0.0675  0.0429
  661MOL0     O87128   9.288   8.577   3.689  0.3768 -0.2950  0.0387
  661MOL0     C87129   9.205   8.565   3.805 -0.2320  0.4034 -0.7864
  661MOL0     C87130   9.059   8.525   3.760  0.0762  0.4912  0.3889
  661MOL0     C87131   8.946   8.530   3.863  0.1310  0.7133  0.2804
  661MOL0     C87132   8.819   8.475   3.798 -0.0521 -0.3030 -0.5397
  661MOL0     C87133   8.695   8.453   3.896 -0.3422 -0.3863  0.7912
  661MOL0     C87134   8.638   8.592   3.948 -0.8386  0.0843 -0.0443
  661MOL0     C87135   8.526   8.580   4.045  0.5058 -0.6587 -1.0618
  661MOL0     C87136   8.462   8.730   4.070  0.5335  0.9739 -0.2820
  661MOL0     N87137   8.358   8.721   4.172 -0.7247 -0.2850  0.1575
  661MOL0     C87138   8.370   8.682   4.305  0.3177 -0.7944 -0.6785
  661MOL0     C87139   8.248   8.693   4.358  0.3276 -0.0708 -0.7107
  661MOL0     C87140   8.216   8.700   4.503  0.4751  0.4203 -0.9429
  661MOL0     C87141   8.101   8.789   4.546 -0.4099 -0.5168  0.0466
  661MOL0     C87142   7.964   8.710   4.566 -0.7975  0.0617  0.0337
  661MOL0     C87143   7.850   8.812   4.578 -0.2111  0.3441  0.8259
  661MOL0     O87144   7.881   8.889   4.695 -0.4490 -1.1196  0.3877
  661MOL0     C87145   7.785   8.942   4.777 -0.4732 -0.6390 -0.0825
  661MOL0     C87146   7.802   8.918   4.918 -0.9195  0.3666 -0.2284
  661MOL0     C87147   7.704   8.958   5.010  0.7408  0.0869  0.0984
  661MOL0     C87148   7.585   9.023   4.972 -0.2830  0.4878 -0.4574
  661MOL0     C87149   7.482   9.066   5.069  0.2942 -0.4413  0.4667
  661MOL0     O87150   7.472   9.004   5.187  0.4833  0.2544  0.7827
  661MOL0     C87151   7.373   9.025   5.280 -0.2507  0.9597 -0.4985
  661MOL0     C87152   7.349   8.907   5.352  0.3149 -0.0115  0.4786
  661MOL0     C87153   7.250   8.904   5.452  0.7659 -0.1334 -0.5373
  661MOL0     C87154   7.188   9.021   5.490  0.0742  1.1354 -0.1112
  661MOL0     O87155   7.093   9.006   5.590  0.1802  0.5811 -0.2367
  661MOL0     C87156   7.060   9.123   5.670 -0.4998 -0.1507 -0.3103
  661MOL0     C87157   6.976   9.089   5.788  0.5453  0.1471  0.6804
  661MOL0     C87158   6.969   9.193   5.899  0.8575  0.7474  0.1595
  661MOL0     C87159   6.865   9.149   6.016  0.2603 -0.3743  0.4423
  661MOL0     C87160   6.875   9.249   6.132  0.9664 -0.0301 -0.9297
  661MOL0     C87161   6.785   9.208   6.255 -0.2049  0.4493 -0.5839
  661MOL0     C87162   6.771   9.321   6.356  0.0247  0.6128  0.2466
  661MOL0     C87163   6.714   9.279   6.491  1.1861 -0.1695 -0.6186
  661MOL0    Cl87164   6.561   9.187   6.479 -0.4975  0.0741  0.8533
  661MOL0     C87165   7.228   9.145   5.435 -0.2035  0.0888  0.9442
  661MOL0     C87166   7.320   9.144   5.329 -0.8979  0.1680 -0.1815
  661MOL0     O87167   7.406   9.151   5.031  0.0180 -0.1881  0.2644
  661MOL0     C87168   7.571   9.034   4.830  0.3133 -0.3866  0.0815
  661MOL0     C87169   7.668   8.993   4.735 -1.0330 -0.0927  0.2863
  661MOL0     N87170   8.154   8.703   4.256  0.3541  0.7789 -0.2511
  661MOL0     N87171   8.222   8.726   4.146  0.2949  0.3892 -0.2692
  661MOL0     C87172   9.475   8.646   3.833 -0.9579  0.2052 -0.4810
  661MOL0     C87173   9.620   8.672   3.841 -0.2040  0.1106 -0.4510
  661MOL0     C87174  10.021   8.861   3.763  0.3188 -0.8791  0.0392
  661MOL0     C87175  10.076   8.987   3.721  0.5220  0.0796  0.0852
  661MOL0     C87176  10.214   9.007   3.725  1.1848  0.6037  0.2542
  661MOL0     C87177  10.303   8.900   3.759  0.1468  0.4295  0.0718
  661MOL0     O87178  10.436   8.928   3.755  0.2570 -0.1662  0.0296
  661MOL0     C87179  10.530   8.824   3.753 -0.3304  0.1877  0.3811
  661MOL0     C87180  10.596   8.806   3.890  0.4240  0.6892 -0.5848
  661MOL0     C87181  10.743   8.842   3.877 -0.5885 -0.4520 -0.4185
  661MOL0     C87182  10.803   8.842   4.010  0.4300  0.9780 -0.6304
  661MOL0     C87183  10.777   8.962   4.096  0.0774  0.1800 -0.5159
  661MOL0     C87184  10.757   9.058   4.178 -0.2376  0.3280 -0.0427
  661MOL0     C87185  10.248   8.774   3.796  0.0296  0.0646 -0.0326
  661MOL0     C87186  10.104   8.756   3.796  0.1040  0.1981 -0.1955
  661MOL0     H87187   9.702   8.638   3.512  0.9690 -0.7858 -0.2790
  661MOL0     H87188   9.465   8.578   3.504 -0.2568  1.7761  0.2800
  661MOL0     H87189   9.194   8.653   3.869 -0.6001  0.1717 -0.5274
  661MOL0     H87190   9.242   8.487   3.873 -1.1750 -1.3679 -2.2219
  661MOL0     H87191   9.068   8.423   3.723  2.3406 -0.1598  2.5161
  661MOL0     H87192   9.028   8.580   3.670 -1.7664 -0.3748  0.4583
  661MOL0     H87193   8.939   8.636   3.891 -0.5215  0.7711 -0.0583
  661MOL0     H87194   8.956   8.462   3.948 -0.7729 -3.8350 -2.8804
  661MOL0     H87195   8.785   8.546   3.722  0.9478  1.9938  1.0243
  661MOL0     H87196   8.838   8.379   3.751  2.3335  0.4282 -1.2076
  661MOL0     H87197   8.719   8.396   3.986 -0.3472  1.3034  1.9165
  661MOL0     H87198   8.609   8.406   3.848 -2.2206  2.0256  1.5458
  661MOL0     H87199   8.604   8.636   3.854 -0.1972  0.4912 -0.0941
  661MOL0     H87200   8.721   8.646   3.996  1.5859 -2.2447 -1.3316
  661MOL0     H87201   8.453   8.508   4.006 -0.2771 -0.4293 -0.0670
  661MOL0     H87202   8.562   8.536   4.138 -1.1135  1.0995  0.5003
  661MOL0     H87203   8.420   8.781   3.983 -0.6897  2.1325  0.9321
  661MOL0     H87204   8.541   8.792   4.116  1.4481  0.8868 -1.6896
  661MOL0     H87205   8.459   8.666   4.364 -1.7275 -2.9031  2.0947
  661MOL0     H87206   8.300   8.741   4.560 -0.5373  2.0677 -0.5569
  661MOL0     H87207   8.192   8.600   4.541  3.2906  0.3185  0.8297
  661MOL0     H87208   8.092   8.878   4.484  1.3745  1.1630  2.0644
  661MOL0     H87209   8.122   8.829   4.646 -1.8392  0.5516 -0.0522
  661MOL0     H87210   7.948   8.647   4.478  1.3491 -0.7082  0.1567
  661MOL0     H87211   7.965   8.664   4.665 -1.1209  1.1365  0.5511
  661MOL0     H87212   7.763   8.748   4.599 -0.4606  1.0751  2.1042
  661MOL0     H87213   7.834   8.876   4.491  1.1048  2.1748  1.8797
  661MOL0     H87214   7.890   8.889   4.974  0.0986  1.4493 -1.2020
  661MOL0     H87215   7.734   8.950   5.113 -0.4711  1.0570  0.5613
  661MOL0     H87216   7.401   8.817   5.320 -0.2463  0.5572 -2.2382
  661MOL0     H87217   7.228   8.808   5.497  0.3793  0.4493  0.5696
  661MOL0     H87218   7.015   9.207   5.615 -0.4779  1.3557  1.8328
  661MOL0     H87219   7.161   9.154   5.697  0.1360 -0.9075 -1.7264
  661MOL0     H87220   7.013   8.999   5.838  0.5468 -0.6931 -0.7878
  661MOL0     H87221   6.882   9.067   5.737  0.5798 -2.6382  1.6613
  661MOL0     H87222   6.932   9.285   5.854  1.3717 -0.0941 -2.1185
  661MOL0     H87223   7.068   9.207   5.945 -0.2840  2.3506  2.2903
  661MOL0     H87224   6.765   9.146   5.971 -0.9425  0.3444  2.8682
  661MOL0     H87225   6.896   9.051   6.052  2.0019 -0.0834 -0.1621
  661MOL0     H87226   6.833   9.340   6.087 -1.7023 -1.0206 -0.6186
  661MOL0     H87227   6.980   9.266   6.159  1.9128  0.4587 -4.3520
  661MOL0     H87228   6.833   9.117   6.293  0.9425  1.3200  0.1342
  661MOL0     H87229   6.684   9.175   6.227 -1.9154  2.3750  2.6434
  661MOL0     H87230   6.868   9.367   6.376  0.6605 -1.3137  2.0174
  661MOL0     H87231   6.711   9.400   6.311  1.6619  0.3688 -2.5685
  661MOL0     H87232   6.702   9.366   6.555 -0.6484  1.2360 -2.6917
  661MOL0     H87233   6.789   9.213   6.535 -0.3000 -1.5234  0.0217
  661MOL0     H87234   7.187   9.239   5.471 -0.3398  0.3144  0.2147
  661MOL0     H87235   7.354   9.236   5.282  0.7507 -0.5364 -0.4617
  661MOL0     H87236   7.478   9.074   4.792 -0.8406 -3.6257 -0.8344
  661MOL0     H87237   7.656   9.027   4.632  0.7542  0.3357  0.1869
  661MOL0     H87238   9.415   8.662   3.921  1.4925 -1.4606  1.6540
  661MOL0     H87239   9.664   8.709   3.933 -3.6449  3.0078  0.2529
  661MOL0     H87240  10.003   9.063   3.692 -1.1989 -0.6298  2.2489
  661MOL0     H87241  10.250   9.106   3.699  0.3570  1.0824  0.9019
  661MOL0     H87242  10.603   8.840   3.674  0.5222 -4.7698 -0.1252
  661MOL0     H87243  10.486   8.726   3.734  1.8764 -0.8125  0.2176
  661MOL0     H87244  10.540   8.870   3.958  0.7422  1.8207 -1.3587
  661MOL0     H87245  10.572   8.710   3.936 -2.0470  0.9072 -1.2741
  661MOL0     H87246  10.747   8.945   3.841  0.6219  0.2168  1.4902
  661MOL0     H87247  10.792   8.776   3.804 -0.7520 -1.5149  0.4002
  661MOL0     H87248  10.766   8.747   4.050 -1.8412  1.3874 -1.6348
  661MOL0     H87249  10.909   8.841   3.983  0.2728  0.9253 -1.2573
  661MOL0     H87250  10.715   9.133   4.243 -0.2203 -0.0262  0.3834
  661MOL0     H87251  10.312   8.690   3.822  2.1809  1.9768  1.2727
  661MOL0     H87252  10.063   8.665   3.836 -2.1105  0.7498 -1.0959
  662MOL0     O87253  10.039   4.946   9.579 -0.1903 -0.2629 -0.3327
  662MOL0     C87254  10.033   5.063   9.610  0.6921  0.0569 -0.2085
  662MOL0     O87255   9.928   5.134   9.622 -0.4126 -0.5105  0.5162
  662MOL0     C87256   9.806   5.082   9.597  1.1263 -0.2125  0.0456
  662MOL0     C87257   9.731   5.004   9.690 -0.5189  0.0724  0.6836
  662MOL0     C87258   9.605   4.960   9.665 -0.2538  0.6655 -0.2154
  662MOL0     C87259   9.539   4.998   9.548  1.2331  0.2370  0.1589
  662MOL0     O87260   9.405   4.964   9.522  0.2011  0.7356 -0.1755
  662MOL0     C87261   9.344   4.864   9.606 -0.0625  0.1589 -1.1684
  662MOL0     C87262   9.206   4.844   9.542 -0.2506 -0.1303  0.2435
  662MOL0     C87263   9.126   4.768   9.655  0.6411  0.6055  0.5006
  662MOL0     C87264   9.004   4.711   9.584  0.1266  0.1934 -0.4116
  662MOL0     C87265   8.917   4.624   9.668 -0.0418  0.4817  0.7377
  662MOL0     C87266   8.787   4.588   9.608  0.0074  0.1465 -0.3788
  662MOL0     C87267   8.686   4.527   9.694 -0.4165 -0.3611 -0.3405
  662MOL0     C87268   8.547   4.521   9.625 -0.5828 -0.4055 -0.3543
  662MOL0     N87269   8.437   4.492   9.723 -0.8305 -0.9350 -0.1087
  662MOL0     C87270   8.360   4.589   9.775  0.5755 -0.1493 -0.2067
  662MOL0     C87271   8.272   4.530   9.852 -0.3240 -0.3477 -0.2445
  662MOL0     C87272   8.162   4.595   9.923 -0.2685  0.9850 -0.1108
  662MOL0     C87273   8.225   4.664  10.038 -0.6891 -0.0955 -0.3994
  662MOL0     C87274   8.131   4.766  10.107  1.3281 -0.4901 -0.5980
  662MOL0     C87275   8.132   4.896  10.031  0.2614  0.4973 -0.0341
  662MOL0     O87276   8.047   4.995  10.080  0.4296 -0.0973  0.1776
  662MOL0     C87277   7.912   4.979  10.075  0.5066  0.4743 -0.5822
  662MOL0     C87278   7.852   4.878  10.010  0.8230  0.1116 -0.0481
  662MOL0     C87279   7.713   4.888  10.004 -0.3603  0.6148  0.2578
  662MOL0     C87280   7.637   4.999  10.050  0.3544  0.0616 -0.5410
  662MOL0     C87281   7.490   5.001  10.045 -0.0305 -0.2184 -0.0443
  662MOL0     O87282   7.423   5.057  10.151 -0.6697 -0.2566  0.0918
  662MOL0     C87283   7.288   5.072  10.153  0.2294  0.3678  0.3078
  662MOL0     C87284   7.202   5.028  10.257 -0.1556 -0.4360 -0.4323
  662MOL0     C87285   7.060   5.037  10.250 -0.4901 -0.0904  0.2436
  662MOL0     C87286   7.002   5.102  10.143 -0.2696  0.5082  0.4361
  662MOL0     O87287   6.869   5.123  10.154 -0.9602 -0.0966  0.3067
  662MOL0     C87288   6.798   5.192  10.049 -0.6594  0.5428  0.7997
  662MOL0     C87289   6.654   5.204  10.090  0.0464  0.9539 -0.7675
  662MOL0     C87290   6.575   5.305  10.004  0.1275  0.4972  0.0520
  662MOL0     C87291   6.438   5.326  10.055 -0.6184 -0.0764 -0.2559
  662MOL0     C87292   6.369   5.417   9.959  0.2108 -0.3951 -0.0909
  662MOL0     C87293   6.224   5.440  10.002 -0.2309 -0.5237 -0.0415
  662MOL0     C87294   6.148   5.309  10.016 -0.4840  0.6140  0.8958
  662MOL0     C87295   6.008   5.320  10.045  0.5715  0.0632 -0.3451
  662MOL0    Cl87296   5.922   5.408   9.911 -0.2993 -0.1121 -0.2764
  662MOL0     C87297   7.086   5.145  10.035  0.3293 -0.0877  0.2274
  662MOL0     C87298   7.226   5.127  10.044 -0.1014  0.0517  0.9286
  662MOL0     O87299   7.439   4.939   9.954  0.2037  0.3691  0.4851
  662MOL0     C87300   7.699   5.106  10.109 -0.5075 -0.3842 -0.0966
  662MOL0     C87301   7.836   5.093  10.126 -0.3666 -0.0958 -0.0018
  662MOL0     N87302   8.297   4.392   9.843  0.6919  0.0813 -0.6715
  662MOL0     N87303   8.388   4.375   9.759 -1.1373 -0.9320  0.0781
  662MOL0     C87304   9.607   5.081   9.457  0.0479  0.3755  0.3055
  662MOL0     C87305   9.739   5.124   9.480  0.8275  0.4735 -0.0301
  662MOL0     C87306  10.158   5.123   9.655 -0.0296 -0.4807  0.7686
  662MOL0     C87307  10.285   5.057   9.664  0.1048  0.0948 -0.2035
  662MOL0     C87308  10.401   5.118   9.708  0.1164  0.9592  0.0235
  662MOL0     C87309  10.402   5.246   9.765 -0.3317  0.2197  1.0581
  662MOL0     O87310  10.499   5.308   9.844 -0.9879 -0.1222 -0.6737
  662MOL0     C87311  10.620   5.223   9.870 -0.3566  0.6466 -0.2604
  662MOL0     C87312  10.705   5.293   9.973  0.4275 -0.1374 -0.0343
  662MOL0     C87313  10.851   5.259   9.961 -0.0115 -0.5474 -0.5739
  662MOL0     C87314  10.929   5.359  10.050 -0.3435 -0.3048 -0.0125
  662MOL0     C87315  11.055   5.305  10.097 -0.3990 -0.4426  0.7580
  662MOL0     C87316  11.164   5.284  10.139 -0.3550 -0.7209 -0.1666
  662MOL0     C87317  10.282   5.310   9.754 -0.1294  0.0399 -0.1717
  662MOL0     C87318  10.161   5.250   9.707 -0.7366 -0.2958  0.3676
  662MOL0     H87319   9.787   4.975   9.778  0.5802  1.2684  0.4101
  662MOL0     H87320   9.558   4.887   9.731 -1.8515 -0.3636 -2.3577
  662MOL0     H87321   9.342   4.910   9.705  0.4146  0.1877 -1.1701
  662MOL0     H87322   9.403   4.774   9.621  1.2709  1.0190 -1.0674
  662MOL0     H87323   9.228   4.776   9.459  0.5838 -0.2112  0.5223
  662MOL0     H87324   9.169   4.940   9.505 -0.2631 -0.6595 -1.1983
  662MOL0     H87325   9.105   4.838   9.736 -0.7013  0.4933  0.2674
  662MOL0     H87326   9.192   4.692   9.700 -0.8237 -1.2460 -0.3146
  662MOL0     H87327   8.938   4.792   9.552 -0.1413  0.9387  1.8361
  662MOL0     H87328   9.041   4.659   9.495 -0.6160 -1.7377  0.3538
  662MOL0     H87329   8.898   4.687   9.756  1.6865  0.6092  1.0553
  662MOL0     H87330   8.966   4.529   9.689 -1.8908 -0.7186 -0.1847
  662MOL0     H87331   8.797   4.534   9.513  0.2349  1.9069 -1.3956
  662MOL0     H87332   8.754   4.686   9.572  2.3002  1.0094 -0.3528
  662MOL0     H87333   8.716   4.428   9.728  0.4495  0.1673  0.4870
  662MOL0     H87334   8.665   4.577   9.789  0.5731  1.5230 -1.0625
  662MOL0     H87335   8.553   4.432   9.561 -0.4297  0.2452 -1.2769
  662MOL0     H87336   8.535   4.613   9.567 -0.2628  1.2060  2.0061
  662MOL0     H87337   8.374   4.694   9.752  0.6597 -0.0638  0.2220
  662MOL0     H87338   8.094   4.512   9.947  2.6548 -1.7530 -0.6163
  662MOL0     H87339   8.113   4.675   9.867 -1.2522 -0.8310 -1.9769
  662MOL0     H87340   8.325   4.707  10.027 -1.2843  1.8104  0.8877
  662MOL0     H87341   8.234   4.582  10.110 -2.4091  0.9121  1.0498
  662MOL0     H87342   8.035   4.716  10.126  1.3518 -0.7502 -1.1525
  662MOL0     H87343   8.172   4.793  10.205  0.4876 -0.4257 -0.2481
  662MOL0     H87344   8.105   4.876   9.926 -0.7824  2.0876 -0.1085
  662MOL0     H87345   8.234   4.934  10.037  0.6808 -0.7993  1.4829
  662MOL0     H87346   7.892   4.791   9.961 -1.6112 -1.7357  1.0207
  662MOL0     H87347   7.661   4.795   9.984  1.9598 -0.7601  0.2753
  662MOL0     H87348   7.243   4.967  10.336 -1.9064 -2.3673 -0.9359
  662MOL0     H87349   7.011   4.994  10.337  0.5969  0.6624  1.2575
  662MOL0     H87350   6.799   5.127   9.961 -2.2139  0.9310  0.4639
  662MOL0     H87351   6.843   5.286  10.018 -1.1733  0.0880 -1.4871
  662MOL0     H87352   6.648   5.234  10.195  1.5917 -0.2295 -0.2918
  662MOL0     H87353   6.610   5.105  10.074 -0.5102  0.7094  1.8356
  662MOL0     H87354   6.584   5.280   9.898 -3.4504 -2.4699  0.2315
  662MOL0     H87355   6.633   5.396  10.018 -0.2231  0.4483  2.2636
  662MOL0     H87356   6.391   5.228  10.056  0.2673 -0.5400 -1.6087
  662MOL0     H87357   6.435   5.356  10.161  0.8151 -4.4980  1.2477
  662MOL0     H87358   6.371   5.377   9.857  0.1325  3.3900 -1.7392
  662MOL0     H87359   6.415   5.516   9.949 -1.1370  0.1474 -1.2410
  662MOL0     H87360   6.179   5.515   9.936  4.0062  1.6598 -0.8254
  662MOL0     H87361   6.238   5.480  10.103 -2.4507 -3.2167  1.4479
  662MOL0     H87362   6.153   5.251   9.923  1.3101 -1.4735  2.1932
  662MOL0     H87363   6.188   5.246  10.096 -0.2026  1.5775  1.5187
  662MOL0     H87364   5.997   5.361  10.146 -1.1883 -2.1646  0.4688
  662MOL0     H87365   5.967   5.218  10.051  1.6803 -0.4880 -1.6520
  662MOL0     H87366   7.061   5.186   9.938  1.1190  0.4471  0.2355
  662MOL0     H87367   7.297   5.156   9.967 -0.4428 -0.6736  0.3232
  662MOL0     H87368   7.655   5.197  10.148  0.2142  0.4780 -1.2417
  662MOL0     H87369   7.889   5.175  10.174 -0.8542 -1.8323  3.9389
  662MOL0     H87370   9.554   5.113   9.368  0.8618 -0.7736 -0.6245
  662MOL0     H87371   9.792   5.196   9.417  0.7537  1.5290  1.0833
  662MOL0     H87372  10.296   4.956   9.625 -3.5918 -0.5474  0.0316
  662MOL0     H87373  10.502   5.077   9.712  0.1584  1.0018 -0.5014
  662MOL0     H87374  10.678   5.218   9.778 -0.2462 -1.8128 -0.1201
  662MOL0     H87375  10.593   5.121   9.899 -1.2834  0.6151 -1.1890
  662MOL0     H87376  10.698   5.399   9.950 -1.2373 -0.1872  0.1397
  662MOL0     H87377  10.662   5.285  10.074 -0.0047  3.5116  0.2089
  662MOL0     H87378  10.887   5.269   9.858  0.9718  0.2611 -0.1724
  662MOL0     H87379  10.872   5.160  10.001 -1.5127  0.2127  2.4050
  662MOL0     H87380  10.947   5.454   9.999  0.7395  0.1931  1.2199
  662MOL0     H87381  10.884   5.383  10.147  3.3923  1.8628  1.4265
  662MOL0     H87382  11.259   5.267  10.186 -0.6376  0.5277  0.9017
  662MOL0     H87383  10.284   5.407   9.803 -2.2723 -1.4303  3.1963
  662MOL0     H87384  10.073   5.313   9.698 -0.1522  0.8493  2.1218
  663MOL0     O87385   5.486   2.349  10.770 -0.7220 -0.7521 -0.2034
  663MOL0     C87386   5.565   2.421  10.709  0.8453  0.2237  0.1837
  663MOL0     O87387   5.530   2.526  10.623  0.1065  0.0750 -0.4268
  663MOL0     C87388   5.405   2.577  10.638  0.1332  0.7756 -0.1281
  663MOL0     C87389   5.287   2.512  10.607 -0.4960 -0.2179 -0.8608
  663MOL0     C87390   5.164   2.577  10.640 -0.9677 -0.0364 -0.5590
  663MOL0     C87391   5.161   2.706  10.698  0.3375 -0.3519 -0.3159
  663MOL0     O87392   5.036   2.766  10.721  0.0141 -1.0479  0.5235
  663MOL0     C87393   5.032   2.881  10.805  0.5128  0.0159 -0.1355
  663MOL0     C87394   4.882   2.884  10.831 -0.3742 -0.4343 -0.5853
  663MOL0     C87395   4.862   3.003  10.929  0.5183  0.2920 -0.0060
  663MOL0     C87396   4.716   3.004  10.976  0.2638  0.1689  1.0716
  663MOL0     C87397   4.706   3.132  11.068  0.3443 -0.5151 -0.7558
  663MOL0     C87398   4.565   3.158  11.118 -0.0476 -0.7608  0.4537
  663MOL0     C87399   4.472   3.193  11.000  0.5799  0.0283  0.7680
  663MOL0     C87400   4.326   3.210  11.046  0.0911  0.0771  0.3312
  663MOL0     N87401   4.303   3.308  11.159 -0.2705 -0.5537  0.0575
  663MOL0     C87402   4.291   3.259  11.286  0.0333 -0.4003  0.0241
  663MOL0     C87403   4.264   3.370  11.359  0.6909 -0.0687 -0.3037
  663MOL0     C87404   4.238   3.368  11.507  0.1922 -0.1920 -0.3073
  663MOL0     C87405   4.092   3.337  11.548 -0.2344 -0.3258  0.3459
  663MOL0     C87406   4.059   3.189  11.516  0.6610  0.5111  0.1935
  663MOL0     C87407   3.918   3.167  11.553 -0.7343  0.7198  0.0534
  663MOL0     O87408   3.910   3.143  11.685  0.0320 -0.1283 -0.1106
  663MOL0     C87409   3.782   3.123  11.742 -0.1790  0.2451  0.2390
  663MOL0     C87410   3.775   3.089  11.882  0.8271 -0.2053 -0.2027
  663MOL0     C87411   3.648   3.065  11.944  0.8413 -0.1842  0.5750
  663MOL0     C87412   3.524   3.078  11.865 -0.7544 -0.5206  0.0356
  663MOL0     C87413   3.395   3.052  11.924  0.0720 -0.4979  1.1089
  663MOL0     O87414   3.279   3.050  11.850 -0.0834 -0.3188  0.8608
  663MOL0     C87415   3.179   2.967  11.893  0.6189  0.3854 -0.6409
  663MOL0     C87416   3.201   2.833  11.899 -0.1750  0.5702  0.5525
  663MOL0     C87417   3.104   2.737  11.943  0.2548  0.1206 -0.2762
  663MOL0     C87418   2.982   2.794  11.970  0.6370 -0.2952 -1.8055
  663MOL0     O87419   2.888   2.706  12.019 -0.2728 -0.2717 -0.2928
  663MOL0     C87420   2.754   2.699  11.978  0.8503 -0.2917  0.3581
  663MOL0     C87421   2.718   2.579  11.883  0.1898 -0.8389  0.6907
  663MOL0     C87422   2.572   2.567  11.851  0.1052  0.3273  0.5216
  663MOL0     C87423   2.558   2.473  11.732  0.4485  0.1736  0.0762
  663MOL0     C87424   2.410   2.434  11.708  0.6627  0.9701  0.0716
  663MOL0     C87425   2.380   2.305  11.633 -0.0435  0.0666 -0.8157
  663MOL0     C87426   2.238   2.295  11.586  0.5832 -0.4400 -0.2312
  663MOL0     C87427   2.213   2.153  11.543  0.3602  0.4017 -0.5469
  663MOL0    Cl87428   2.158   2.057  11.672 -0.0787  0.3580  0.2818
  663MOL0     C87429   2.944   2.929  11.951 -0.4929 -0.1693  0.3775
  663MOL0     C87430   3.051   3.015  11.914  0.3519 -0.2952 -0.8071
  663MOL0     O87431   3.402   3.018  12.038  0.2999 -0.2776 -0.3356
  663MOL0     C87432   3.546   3.124  11.730  0.6030 -0.1940  0.2184
  663MOL0     C87433   3.668   3.139  11.674 -0.2397 -0.1567 -0.3541
  663MOL0     N87434   4.241   3.479  11.275  0.0807  0.1159 -1.0372
  663MOL0     N87435   4.277   3.447  11.154  0.0701  0.8280  0.1911
  663MOL0     C87436   5.280   2.769  10.739  0.4176 -0.2948 -0.7023
  663MOL0     C87437   5.401   2.699  10.700 -0.3578 -0.5483 -1.4171
  663MOL0     C87438   5.705   2.387  10.732  0.7866 -0.2189  0.4766
  663MOL0     C87439   5.755   2.311  10.838  0.9462  0.4942 -0.5989
  663MOL0     C87440   5.890   2.302  10.859 -0.5451  0.3066 -0.2320
  663MOL0     C87441   5.987   2.356  10.775  0.1303 -0.0831 -1.0771
  663MOL0     O87442   6.126   2.339  10.794 -0.1266 -0.6329  0.1548
  663MOL0     C87443   6.166   2.267  10.905  0.0198  0.5653 -0.3620
  663MOL0     C87444   6.320   2.279  10.921  0.4522 -0.0260 -0.0216
  663MOL0     C87445   6.402   2.218  10.800  0.2818 -0.2155 -0.0459
  663MOL0     C87446   6.548   2.217  10.826 -0.4110  0.0968  0.3694
  663MOL0     C87447   6.622   2.347  10.809  0.2051 -0.1095 -0.8699
  663MOL0     C87448   6.645   2.462  10.786 -0.2776  0.2832  0.2366
  663MOL0     C87449   5.937   2.423  10.663  0.3431 -0.3737  0.0368
  663MOL0     C87450   5.798   2.427  10.641 -0.2394 -0.2664 -0.1409
  663MOL0     H87451   5.295   2.416  10.557  1.3981  0.1392 -1.3228
  663MOL0     H87452   5.070   2.529  10.614 -1.0021 -0.4791  0.3422
  663MOL0     H87453   5.065   2.973  10.755  0.3584  0.0022 -0.2637
  663MOL0     H87454   5.083   2.875  10.902 -0.7239 -1.4581  0.4575
  663MOL0     H87455   4.840   2.791  10.871 -1.9230 -0.3473 -1.9080
  663MOL0     H87456   4.820   2.905  10.743 -2.3054  2.1355  1.2330
  663MOL0     H87457   4.884   3.094  10.872  0.0494  2.1802  2.6075
  663MOL0     H87458   4.918   3.018  11.022  1.1409  1.9515 -0.5996
  663MOL0     H87459   4.656   2.999  10.885 -1.7509 -1.5301  2.4003
  663MOL0     H87460   4.689   2.913  11.031  0.3181 -0.3920  0.1956
  663MOL0     H87461   4.739   3.222  11.014  0.8405 -0.8064 -0.9369
  663MOL0     H87462   4.766   3.118  11.158 -4.0700 -3.7041  2.0946
  663MOL0     H87463   4.568   3.246  11.182 -0.0054 -1.5773  1.5993
  663MOL0     H87464   4.513   3.083  11.179 -0.1011 -3.0611 -2.2087
  663MOL0     H87465   4.516   3.284  10.958 -1.1556  1.3143  1.6081
  663MOL0     H87466   4.467   3.118  10.921  3.6798  0.7598 -0.2590
  663MOL0     H87467   4.283   3.111  11.068  2.1869 -0.4021  2.7959
  663MOL0     H87468   4.269   3.259  10.967  0.5317  2.0124  1.1543
  663MOL0     H87469   4.311   3.157  11.318  0.2965 -0.7134 -1.1058
  663MOL0     H87470   4.260   3.466  11.551  1.1038  0.3142 -1.8167
  663MOL0     H87471   4.305   3.295  11.553  0.0406  0.2960  0.7184
  663MOL0     H87472   4.022   3.407  11.501  1.7681  1.9100  0.4856
  663MOL0     H87473   4.082   3.343  11.657 -0.2885 -2.7998  0.5294
  663MOL0     H87474   4.073   3.175  11.408 -0.6689  2.3871 -0.2838
  663MOL0     H87475   4.112   3.108  11.566 -0.4586  0.8680  2.0284
  663MOL0     H87476   3.891   3.074  11.501 -2.6704  1.4496 -0.3148
  663MOL0     H87477   3.863   3.255  11.518  0.5469  0.7542 -2.0321
  663MOL0     H87478   3.859   3.063  11.945 -0.0968 -0.9628  0.7627
  663MOL0     H87479   3.646   3.043  12.050  2.3737 -1.4423  0.3785
  663MOL0     H87480   3.304   2.800  11.893 -0.3774  0.1451 -1.1637
  663MOL0     H87481   3.122   2.631  11.958  1.1055  0.3562  0.4400
  663MOL0     H87482   2.711   2.794  11.944  2.2030  1.0053  2.0511
  663MOL0     H87483   2.700   2.671  12.069  0.4550 -0.4657  0.0700
  663MOL0     H87484   2.743   2.490  11.941 -0.6600 -0.9363  0.9148
  663MOL0     H87485   2.783   2.585  11.795  2.5051  1.6488  2.3823
  663MOL0     H87486   2.531   2.664  11.825  0.9156  0.6813  0.5290
  663MOL0     H87487   2.514   2.544  11.941  2.1272 -2.7140  1.2177
  663MOL0     H87488   2.598   2.526  11.645 -0.9164  3.0913  1.1141
  663MOL0     H87489   2.613   2.383  11.761 -0.5519 -0.4439  0.1062
  663MOL0     H87490   2.349   2.511  11.661 -0.5704  1.2142  1.9316
  663MOL0     H87491   2.361   2.428  11.806  0.6280 -4.1333  0.0317
  663MOL0     H87492   2.392   2.224  11.706 -4.4527 -0.7683 -0.7206
  663MOL0     H87493   2.455   2.286  11.555 -0.4988  2.5216 -1.9258
  663MOL0     H87494   2.171   2.316  11.670  2.1592  1.3934  0.6501
  663MOL0     H87495   2.217   2.364  11.504  0.0427  0.4010  0.5930
  663MOL0     H87496   2.292   2.102  11.487  0.4123  0.5704 -0.6263
  663MOL0     H87497   2.129   2.164  11.473  0.6347  3.8041 -0.4888
  663MOL0     H87498   2.843   2.966  11.964 -1.4180 -2.5706  0.6846
  663MOL0     H87499   3.035   3.121  11.891  0.3054  0.2477  1.5356
  663MOL0     H87500   3.460   3.150  11.670  1.6338  0.2332 -1.1100
  663MOL0     H87501   3.662   3.168  11.569 -0.7997  1.4963  0.1002
  663MOL0     H87502   5.289   2.866  10.788  4.0920 -0.0375 -1.5900
  663MOL0     H87503   5.494   2.749  10.725 -0.9249  0.0425 -0.3904
  663MOL0     H87504   5.696   2.255  10.909  2.2402  0.2529  0.3141
  663MOL0     H87505   5.918   2.232  10.937 -0.9276  1.5889  1.0999
  663MOL0     H87506   6.130   2.164  10.894  3.9119 -0.8803 -1.3586
  663MOL0     H87507   6.119   2.300  10.998 -3.9814  0.9115 -2.2810
  663MOL0     H87508   6.347   2.378  10.961  0.4395 -0.5007  1.1965
  663MOL0     H87509   6.349   2.212  11.002 -0.2161 -0.0928  0.1657
  663MOL0     H87510   6.388   2.286  10.715  1.0066 -0.2049 -0.1641
  663MOL0     H87511   6.368   2.119  10.769 -0.8296 -0.0625  0.6057
  663MOL0     H87512   6.568   2.176  10.925 -1.2967  1.2869  1.0640
  663MOL0     H87513   6.595   2.152  10.751  2.3091  0.4995  1.5970
  663MOL0     H87514   6.670   2.565  10.778  0.3737  0.0504 -0.8834
  663MOL0     H87515   6.016   2.460  10.599 -0.3070  3.2305  1.0994
  663MOL0     H87516   5.770   2.488  10.556 -2.0404  0.1164  0.6621
  664MOL0     O87517  10.437   7.219   9.634 -0.2681 -0.4698 -0.0020
  664MOL0     C87518  10.404   7.237   9.748 -0.1757  0.9515 -0.6761
  664MOL0     O87519  10.489   7.239   9.852  0.1720 -0.3673  0.4990
  664MOL0     C87520  10.626   7.241   9.826 -0.7004 -0.7378 -0.7105
  664MOL0     C87521  10.686   7.325   9.734 -0.1550 -0.5559 -0.0323
  664MOL0     C87522  10.820   7.319   9.704 -1.4942 -0.3946 -0.0859
  664MOL0     C87523  10.896   7.208   9.763 -0.1780  0.5945 -0.3344
  664MOL0     O87524  11.029   7.183   9.735 -0.0193  0.5152  0.2012
  664MOL0     C87525  11.102   7.077   9.801 -0.2072  0.2408 -0.5954
  664MOL0     C87526  11.247   7.060   9.739 -0.8558  0.6473  0.3054
  664MOL0     C87527  11.349   7.166   9.775 -0.2161 -0.0886  0.3649
  664MOL0     C87528  11.483   7.158   9.698  0.0838 -0.0141  0.6615
  664MOL0     C87529  11.590   7.246   9.763  0.8471 -0.5982 -1.1442
  664MOL0     C87530  11.712   7.244   9.674  0.8475 -0.1110 -0.3422
  664MOL0     C87531  11.796   7.363   9.690 -0.2841  0.2727  0.1265
  664MOL0     C87532  11.906   7.367   9.573  0.6514 -0.8677  0.2541
  664MOL0     N87533  11.849   7.431   9.455  0.0225  0.0454  0.4478
  664MOL0     C87534  11.781   7.375   9.342  0.1386 -0.1748 -0.0649
  664MOL0     C87535  11.746   7.485   9.267  1.0563  0.0377 -0.5361
  664MOL0     C87536  11.663   7.479   9.144 -0.4041 -0.0548 -0.2247
  664MOL0     C87537  11.520   7.508   9.179 -0.2751  0.6808  0.5282
  664MOL0     C87538  11.425   7.487   9.060  0.2777 -0.6733  0.4374
  664MOL0     C87539  11.279   7.452   9.089 -0.5296 -0.2898 -0.4333
  664MOL0     O87540  11.232   7.564   9.169 -0.4870  0.0523 -0.7025
  664MOL0     C87541  11.099   7.559   9.203  0.3041 -0.8814  0.3014
  664MOL0     C87542  10.992   7.499   9.127  0.2155 -0.2410 -0.2933
  664MOL0     C87543  10.860   7.499   9.179  0.3027  0.3436 -0.3804
  664MOL0     C87544  10.836   7.559   9.302  0.2980  0.7926 -0.8490
  664MOL0     C87545  10.703   7.560   9.359 -0.4289  0.4911 -0.5445
  664MOL0     O87546  10.609   7.487   9.283 -0.4957  0.0102 -0.6362
  664MOL0     C87547  10.474   7.481   9.319  0.1094  0.3271 -0.1043
  664MOL0     C87548  10.420   7.468   9.444  0.2787  0.4080  0.2185
  664MOL0     C87549  10.281   7.471   9.468 -0.5990 -1.0770 -0.4046
  664MOL0     C87550  10.189   7.465   9.364  0.5869  0.5855  0.8664
  664MOL0     O87551  10.053   7.438   9.384 -0.2090  0.2098 -0.1269
  664MOL0     C87552   9.999   7.406   9.511  0.1030 -0.3278 -0.6804
  664MOL0     C87553   9.932   7.517   9.597  0.0250  0.9722 -0.7754
  664MOL0     C87554   9.787   7.554   9.559  0.1149  0.8718  0.1170
  664MOL0     C87555   9.691   7.434   9.564 -0.3430 -0.1997 -0.1728
  664MOL0     C87556   9.543   7.471   9.573 -0.7113  0.7140 -0.1487
  664MOL0     C87557   9.489   7.578   9.477  1.2128  0.1820  0.2876
  664MOL0     C87558   9.340   7.548   9.468 -0.2319  0.6353 -0.0326
  664MOL0     C87559   9.281   7.651   9.370 -0.3261  0.0344  0.1107
  664MOL0    Cl87560   9.260   7.807   9.462  0.0588 -0.3620 -0.0421
  664MOL0     C87561  10.239   7.470   9.235  0.9734  0.0197 -0.4780
  664MOL0     C87562  10.378   7.487   9.216 -0.3180 -0.4924 -0.0112
  664MOL0     O87563  10.680   7.622   9.464  0.2215  0.3231  0.1106
  664MOL0     C87564  10.936   7.622   9.375 -0.6864 -0.1351  0.1505
  664MOL0     C87565  11.060   7.621   9.327  0.1046  0.0166  1.6225
  664MOL0     N87566  11.796   7.597   9.327 -0.5185  0.7880 -0.1211
  664MOL0     N87567  11.850   7.568   9.435  0.6249 -0.1344 -0.7769
  664MOL0     C87568  10.834   7.123   9.864  0.4735 -0.7317  0.8947
  664MOL0     C87569  10.702   7.146   9.895  0.4495  0.3775  0.2241
  664MOL0     C87570  10.267   7.229   9.780  0.5746 -0.0951 -0.4171
  664MOL0     C87571  10.217   7.315   9.877 -0.4923  0.0145  0.4041
  664MOL0     C87572  10.082   7.316   9.901  0.4502 -0.5807  0.1301
  664MOL0     C87573   9.991   7.226   9.836 -0.3090  0.2789  0.7422
  664MOL0     O87574   9.858   7.241   9.867 -0.7073 -0.1941  0.3840
  664MOL0     C87575   9.767   7.145   9.815 -0.0584  0.7461 -0.0114
  664MOL0     C87576   9.625   7.172   9.871  0.7112  0.4177 -0.3373
  664MOL0     C87577   9.523   7.096   9.790 -0.0998 -0.1870  0.5183
  664MOL0     C87578   9.387   7.087   9.846  0.0747  0.2039 -0.4748
  664MOL0     C87579   9.298   7.207   9.837  0.3093 -0.2450  0.0474
  664MOL0     C87580   9.237   7.310   9.811  0.0287  0.6817  0.1012
  664MOL0     C87581  10.045   7.140   9.749 -0.8163  0.2837  0.8925
  664MOL0     C87582  10.180   7.145   9.713  0.0607  0.5341 -0.0743
  664MOL0     H87583  10.620   7.402   9.694  1.4755  0.6769 -0.4408
  664MOL0     H87584  10.858   7.391   9.632 -1.3648 -2.3067 -2.0659
  664MOL0     H87585  11.048   6.984   9.780  0.0610 -0.1881  0.5394
  664MOL0     H87586  11.118   7.094   9.908  2.8913  2.3694 -1.2447
  664MOL0     H87587  11.232   7.041   9.632  0.5295 -0.7502  0.3139
  664MOL0     H87588  11.287   6.965   9.776  2.6205  1.6112 -0.6528
  664MOL0     H87589  11.369   7.163   9.882 -0.6603  0.0502  0.4550
  664MOL0     H87590  11.310   7.261   9.737  2.7587  0.1187 -2.6352
  664MOL0     H87591  11.512   7.053   9.686 -0.4526  0.0101 -1.1641
  664MOL0     H87592  11.466   7.192   9.595 -2.8071 -2.2782  0.2640
  664MOL0     H87593  11.607   7.211   9.865  1.0586  0.7333 -0.6994
  664MOL0     H87594  11.557   7.350   9.773  0.3057 -1.0139  2.5867
  664MOL0     H87595  11.678   7.247   9.570 -0.2180 -0.1643 -0.0161
  664MOL0     H87596  11.768   7.150   9.680  1.4173 -0.0928 -3.7500
  664MOL0     H87597  11.735   7.453   9.679  0.9513  1.0277 -0.8925
  664MOL0     H87598  11.846   7.361   9.787 -1.0176 -1.2912  0.4864
  664MOL0     H87599  11.950   7.269   9.552 -1.8530 -2.1823  0.7472
  664MOL0     H87600  11.987   7.431   9.610  2.2408 -3.1000  0.8670
  664MOL0     H87601  11.744   7.273   9.333 -2.8362  0.9160 -1.6718
  664MOL0     H87602  11.678   7.383   9.093  0.4034 -0.6132  1.0100
  664MOL0     H87603  11.686   7.558   9.072 -2.0516  1.7726  1.1240
  664MOL0     H87604  11.516   7.612   9.211  0.0104  0.1323  2.4822
  664MOL0     H87605  11.492   7.439   9.260  0.7430 -2.8883 -1.9069
  664MOL0     H87606  11.437   7.573   8.993  5.0788 -2.6577 -1.6698
  664MOL0     H87607  11.460   7.399   9.007  0.5414  0.6204 -1.6358
  664MOL0     H87608  11.268   7.359   9.145 -0.7924  0.2798  0.5074
  664MOL0     H87609  11.229   7.453   8.992  0.1103  3.7113 -0.9100
  664MOL0     H87610  11.012   7.447   9.034  0.3856  1.9948 -1.5678
  664MOL0     H87611  10.776   7.450   9.131  0.5368 -0.9775  0.5209
  664MOL0     H87612  10.478   7.445   9.533 -0.6475  1.8008  1.2211
  664MOL0     H87613  10.248   7.454   9.570 -1.8712  1.3906 -0.3222
  664MOL0     H87614  10.067   7.346   9.572 -1.8667 -0.4373  1.6020
  664MOL0     H87615   9.914   7.339   9.490 -0.1663  0.6978 -3.2473
  664MOL0     H87616   9.991   7.609   9.589  1.6505  0.0244 -0.2223
  664MOL0     H87617   9.930   7.480   9.700 -0.4169 -0.0842 -1.1555
  664MOL0     H87618   9.783   7.589   9.456  0.2808  1.1553  0.2016
  664MOL0     H87619   9.742   7.637   9.615 -0.7160 -0.3668  1.3461
  664MOL0     H87620   9.705   7.381   9.469 -3.3869  1.1002 -1.4809
  664MOL0     H87621   9.716   7.371   9.650 -1.6607 -1.3962 -0.6360
  664MOL0     H87622   9.519   7.502   9.675 -2.2443 -3.2850  0.8867
  664MOL0     H87623   9.485   7.381   9.551  2.7104 -1.4114 -1.3362
  664MOL0     H87624   9.532   7.558   9.379 -1.5791 -3.8913 -0.3492
  664MOL0     H87625   9.498   7.682   9.510 -3.0326  1.2270 -1.3140
  664MOL0     H87626   9.312   7.452   9.423 -0.6414  1.5145 -1.7237
  664MOL0     H87627   9.295   7.550   9.568  0.8746 -0.9068  0.5310
  664MOL0     H87628   9.186   7.608   9.334 -0.8981  1.7456 -0.4988
  664MOL0     H87629   9.347   7.674   9.286 -1.6827  1.4162 -0.6294
  664MOL0     H87630  10.166   7.460   9.155 -0.6176  2.0176  0.6402
  664MOL0     H87631  10.418   7.483   9.115  1.0934  0.9646  0.4676
  664MOL0     H87632  10.907   7.662   9.472 -1.8903  0.2996 -0.3724
  664MOL0     H87633  11.135   7.665   9.393 -0.9731 -0.6765  3.3573
  664MOL0     H87634  10.887   7.045   9.917  2.5020  0.0030  0.0476
  664MOL0     H87635  10.656   7.073   9.959  0.7955 -1.1903 -1.2272
  664MOL0     H87636  10.291   7.381   9.920  1.6335  0.4274 -3.4887
  664MOL0     H87637  10.049   7.389   9.973  2.7727  0.8332 -0.1494
  664MOL0     H87638   9.798   7.041   9.835 -1.3942  0.8738  3.3782
  664MOL0     H87639   9.761   7.155   9.707 -3.0797  0.7069  0.0939
  664MOL0     H87640   9.631   7.127   9.971  2.3322  1.3471  0.0129
  664MOL0     H87641   9.607   7.279   9.881 -3.1408  0.2186 -3.2019
  664MOL0     H87642   9.560   6.994   9.785  1.6674  0.4790 -1.1846
  664MOL0     H87643   9.509   7.125   9.686 -4.1654 -3.1376  0.0090
  664MOL0     H87644   9.340   7.007   9.788 -1.3307 -0.1318  1.0432
  664MOL0     H87645   9.387   7.038   9.944 -2.2481 -0.5820 -0.8125
  664MOL0     H87646   9.175   7.390   9.776 -1.9579 -1.5048 -1.7199
  664MOL0     H87647   9.974   7.071   9.705 -0.9671 -0.7638  2.6615
  664MOL0     H87648  10.223   7.092   9.629 -0.1203  1.8413 -1.0156
  665MOL0     O87649   5.440   2.666   9.906 -0.7038  0.5332 -0.0676
  665MOL0     C87650   5.464   2.759   9.980  0.3423 -0.3271 -0.3849
  665MOL0     O87651   5.379   2.855  10.010  0.1476 -0.2810 -0.2969
  665MOL0     C87652   5.244   2.836   9.992 -0.2011 -0.4733 -0.2318
  665MOL0     C87653   5.175   2.953   9.977 -0.3744 -0.4110  0.4786
  665MOL0     C87654   5.026   2.964   9.965 -0.8448  0.0796  0.4434
  665MOL0     C87655   4.963   2.847   9.987  0.3151  0.2948  0.5498
  665MOL0     O87656   4.827   2.832   9.975  0.2529 -0.0277 -0.4599
  665MOL0     C87657   4.752   2.933   9.900  0.5125 -0.2734 -0.0483
  665MOL0     C87658   4.609   2.879   9.884  0.0677 -0.1379 -0.0648
  665MOL0     C87659   4.539   2.989   9.797  0.0369  0.0151  1.1945
  665MOL0     C87660   4.382   2.983   9.809  0.3768 -0.0911 -0.3079
  665MOL0     C87661   4.328   3.099   9.719 -0.6872  0.4430 -0.0342
  665MOL0     C87662   4.177   3.110   9.720  0.0082  0.1023 -0.2685
  665MOL0     C87663   4.109   2.975   9.701  0.7982  1.0821 -1.0153
  665MOL0     C87664   4.150   2.886   9.582  0.4045 -0.0546 -0.9017
  665MOL0     N87665   4.053   2.781   9.546  0.4123  0.2411 -0.1163
  665MOL0     C87666   3.924   2.807   9.529 -0.2746  0.0427 -0.2987
  665MOL0     C87667   3.868   2.697   9.463 -0.5088 -0.5851 -0.2714
  665MOL0     C87668   3.726   2.672   9.403  0.6806 -0.4691 -0.2683
  665MOL0     C87669   3.628   2.664   9.513  0.5612  0.7461  0.4072
  665MOL0     C87670   3.662   2.548   9.623  0.3844 -0.0731  0.0596
  665MOL0     C87671   3.686   2.415   9.560  0.3909  0.0959 -0.4260
  665MOL0     O87672   3.578   2.368   9.476  0.0898 -0.8902 -0.3060
  665MOL0     C87673   3.502   2.264   9.527  0.2120 -0.1912 -0.2945
  665MOL0     C87674   3.461   2.254   9.669 -0.3775 -1.7855 -0.0830
  665MOL0     C87675   3.386   2.139   9.709  1.3848  0.5890  0.7785
  665MOL0     C87676   3.349   2.038   9.615 -0.0172 -0.4196  0.3012
  665MOL0     C87677   3.259   1.928   9.656  0.3706 -0.0417  0.0107
  665MOL0     O87678   3.251   1.914   9.790 -0.2659 -0.3421 -0.2948
  665MOL0     C87679   3.179   1.807   9.843 -0.6777 -0.3904 -0.5041
  665MOL0     C87680   3.043   1.781   9.817  0.3373  0.2961  0.4634
  665MOL0     C87681   2.973   1.677   9.876 -0.2067  0.2227  0.1314
  665MOL0     C87682   3.048   1.588   9.957 -0.1410  0.1611 -0.1746
  665MOL0     O87683   2.971   1.485  10.001  0.0070  1.1407 -0.1859
  665MOL0     C87684   3.014   1.349   9.975  0.5498 -0.8525 -0.5029
  665MOL0     C87685   2.906   1.249  10.014 -0.3104  0.1118  0.3102
  665MOL0     C87686   2.790   1.237   9.902 -1.3479 -0.2106 -0.7454
  665MOL0     C87687   2.692   1.126   9.940  0.2830  0.3254  0.3155
  665MOL0     C87688   2.574   1.122   9.854  0.4954 -0.3096  0.4800
  665MOL0     C87689   2.491   0.988   9.865 -1.2976 -0.2254 -0.7458
  665MOL0     C87690   2.357   0.984   9.783 -0.1198 -1.2136  0.0524
  665MOL0     C87691   2.251   1.080   9.838 -0.4681 -0.2336 -0.3055
  665MOL0    Cl87692   2.200   1.009   9.994  0.7089 -0.3790  0.0812
  665MOL0     C87693   3.189   1.604   9.973 -0.3054 -0.2961 -0.2502
  665MOL0     C87694   3.253   1.711   9.916  0.0320 -0.2316 -0.3769
  665MOL0     O87695   3.200   1.863   9.564 -0.0860  0.0102  0.6661
  665MOL0     C87696   3.392   2.050   9.481  0.7550 -0.8224  0.0074
  665MOL0     C87697   3.472   2.157   9.440  0.3790  0.1858 -0.6236
  665MOL0     N87698   3.968   2.605   9.466  0.2389 -0.3984 -0.1316
  665MOL0     N87699   4.087   2.655   9.502  0.4173 -0.3904  0.8432
  665MOL0     C87700   5.032   2.732  10.010  0.3678 -0.4307  0.4533
  665MOL0     C87701   5.165   2.725  10.020 -0.0307  0.8564 -0.6543
  665MOL0     C87702   5.607   2.776  10.009 -0.3804  0.0934  0.6924
  665MOL0     C87703   5.646   2.885  10.084  0.0369  0.3679  0.2888
  665MOL0     C87704   5.781   2.906  10.114 -0.0034 -0.4373 -0.6101
  665MOL0     C87705   5.878   2.828  10.064  0.5392 -0.1037 -0.1429
  665MOL0     O87706   6.014   2.835  10.082  0.6179  0.7345  0.7611
  665MOL0     C87707   6.061   2.946  10.155  0.7902 -0.3684 -0.6946
  665MOL0     C87708   6.078   2.916  10.306  0.2335 -1.2657 -0.5349
  665MOL0     C87709   6.107   3.039  10.390  0.6865  0.3597  0.0692
  665MOL0     C87710   6.190   3.153  10.332  0.8497  0.4647 -0.1814
  665MOL0     C87711   6.330   3.121  10.351  0.1574 -0.4002  0.9386
  665MOL0     C87712   6.446   3.108  10.371  0.2674  0.8953  1.1794
  665MOL0     C87713   5.837   2.717   9.985 -0.1081  0.0744  0.4381
  665MOL0     C87714   5.700   2.684   9.963 -0.7301 -0.0854  0.5100
  665MOL0     H87715   5.248   3.033   9.967 -0.8580  0.2041  1.6430
  665MOL0     H87716   4.986   3.062   9.945  3.5961  1.9890 -0.3625
  665MOL0     H87717   4.799   2.956   9.804 -2.3947 -2.3809 -2.1532
  665MOL0     H87718   4.758   3.029   9.951 -3.2752 -0.6229  1.3655
  665MOL0     H87719   4.559   2.869   9.981 -1.3700 -0.6970 -0.8308
  665MOL0     H87720   4.608   2.779   9.840 -0.3402 -0.8801  1.5277
  665MOL0     H87721   4.560   2.966   9.692  0.1287 -1.5925  1.5457
  665MOL0     H87722   4.570   3.090   9.825 -0.2076  0.3086  0.4339
  665MOL0     H87723   4.350   2.892   9.759 -1.4416  0.3658 -0.0559
  665MOL0     H87724   4.359   2.989   9.916  1.4768 -1.5687  0.0427
  665MOL0     H87725   4.360   3.073   9.617  2.2387  0.4122  0.7832
  665MOL0     H87726   4.379   3.194   9.739 -0.4116  0.4517 -0.7335
  665MOL0     H87727   4.141   3.183   9.646 -1.4086 -0.5859 -0.2831
  665MOL0     H87728   4.147   3.156   9.814 -0.8498  2.0481 -1.4075
  665MOL0     H87729   4.113   2.917   9.793 -0.3070  1.8134 -0.4830
  665MOL0     H87730   4.007   3.008   9.681  0.1660 -0.6498 -0.8697
  665MOL0     H87731   4.242   2.832   9.608 -0.6148 -2.1170 -1.3723
  665MOL0     H87732   4.165   2.956   9.498  0.2795  0.5773 -0.4058
  665MOL0     H87733   3.874   2.900   9.552  0.2479  0.0721  0.7638
  665MOL0     H87734   3.721   2.579   9.347 -0.4675  0.7139 -2.2485
  665MOL0     H87735   3.706   2.750   9.329 -0.9071 -0.6323 -0.0513
  665MOL0     H87736   3.530   2.645   9.468 -0.3176  0.6973  2.2429
  665MOL0     H87737   3.614   2.763   9.558 -1.3027  1.1379 -0.9046
  665MOL0     H87738   3.759   2.575   9.666  1.2173  1.4195 -2.5400
  665MOL0     H87739   3.591   2.540   9.706 -0.5314 -0.8881 -0.7683
  665MOL0     H87740   3.709   2.346   9.641 -0.2167  1.4729  0.9665
  665MOL0     H87741   3.777   2.424   9.500 -0.3188  1.3739 -1.3736
  665MOL0     H87742   3.493   2.331   9.738 -2.1591  0.2741 -1.4011
  665MOL0     H87743   3.356   2.128   9.813 -0.8284  0.5278  0.1856
  665MOL0     H87744   2.985   1.837   9.745 -0.8648  2.6141  3.0561
  665MOL0     H87745   2.867   1.656   9.864 -0.1373 -1.0031  1.4353
  665MOL0     H87746   3.101   1.339  10.041  2.6134  0.9568 -2.7909
  665MOL0     H87747   3.039   1.336   9.869 -0.6699 -1.3139 -0.7524
  665MOL0     H87748   2.858   1.266  10.111 -3.3064 -0.1326 -1.0120
  665MOL0     H87749   2.946   1.148  10.031 -1.1984 -0.9082 -2.9163
  665MOL0     H87750   2.828   1.212   9.802 -0.0998 -0.3275 -0.2622
  665MOL0     H87751   2.739   1.333   9.904 -1.0190 -0.0075  1.6895
  665MOL0     H87752   2.742   1.029   9.949 -0.6957 -0.0022  4.0544
  665MOL0     H87753   2.657   1.153  10.040 -2.3860  1.5679 -0.8581
  665MOL0     H87754   2.597   1.123   9.747  1.2092  5.0930  0.4094
  665MOL0     H87755   2.506   1.203   9.884 -0.6823 -1.4716  1.0782
  665MOL0     H87756   2.468   0.946   9.963  0.9444 -2.9668 -1.2477
  665MOL0     H87757   2.558   0.909   9.830 -0.6482 -1.4985  2.9684
  665MOL0     H87758   2.370   1.006   9.676 -0.8184 -0.1695  0.1747
  665MOL0     H87759   2.318   0.882   9.787 -3.0049 -0.1901 -0.2153
  665MOL0     H87760   2.161   1.073   9.776 -0.8161 -2.4596  0.3600
  665MOL0     H87761   2.291   1.181   9.846 -0.3254 -0.0782 -2.3304
  665MOL0     H87762   3.248   1.535  10.033 -1.1539  0.3801  1.4033
  665MOL0     H87763   3.360   1.727   9.921 -0.1620  1.1887 -0.3602
  665MOL0     H87764   3.345   1.992   9.402 -0.3702  2.5309 -2.0191
  665MOL0     H87765   3.501   2.178   9.338  0.1503  1.4583 -0.4462
  665MOL0     H87766   4.979   2.639  10.030  1.1471 -1.0506 -0.2624
  665MOL0     H87767   5.210   2.626  10.023  2.0648  1.7040 -1.9939
  665MOL0     H87768   5.568   2.954  10.115 -0.0614  1.5678 -2.3965
  665MOL0     H87769   5.801   3.000  10.165 -1.3508 -0.2986 -0.3090
  665MOL0     H87770   5.992   3.030  10.147  2.0441  0.6101 -1.6290
  665MOL0     H87771   6.153   2.981  10.107  3.2961 -2.8899  1.8563
  665MOL0     H87772   5.984   2.868  10.337  0.2291 -0.8683  0.0583
  665MOL0     H87773   6.152   2.837  10.321  0.5434 -1.4397 -2.6801
  665MOL0     H87774   6.160   2.997  10.477 -2.3014 -2.4037  0.7550
  665MOL0     H87775   6.011   3.075  10.427  1.0688  1.5728 -0.0891
  665MOL0     H87776   6.173   3.166  10.225 -0.5036 -3.0770 -0.5453
  665MOL0     H87777   6.160   3.242  10.388  0.6026 -0.8491  1.8918
  665MOL0     H87778   6.548   3.077  10.387 -0.1745  0.1098  2.6482
  665MOL0     H87779   5.911   2.646   9.949 -0.9844 -0.5653 -0.1551
  665MOL0     H87780   5.679   2.600   9.897  0.1361 -1.2683  1.6896
  666MOL0     O87781   9.030   5.677   0.640  0.3340  0.3653  0.4011
  666MOL0     C87782   9.104   5.739   0.717 -0.3131 -0.5289 -0.3086
  666MOL0     O87783   9.060   5.822   0.819 -0.1603 -0.0754  0.4398
  666MOL0     C87784   8.923   5.855   0.809 -0.6804 -0.5114 -0.0604
  666MOL0     C87785   8.822   5.763   0.825  0.1500  0.2426  0.1668
  666MOL0     C87786   8.692   5.813   0.820 -0.0093  0.6067 -0.0947
  666MOL0     C87787   8.662   5.949   0.808  0.4591  0.8130  0.5053
  666MOL0     O87788   8.528   5.982   0.810  0.1374  0.3262  0.0582
  666MOL0     C87789   8.485   6.087   0.903  0.7853  0.5082 -0.3151
  666MOL0     C87790   8.332   6.063   0.915  0.4693 -0.6397  0.0212
  666MOL0     C87791   8.251   6.082   0.789  0.4754 -0.1992  0.9224
  666MOL0     C87792   8.103   6.044   0.787  0.4588 -0.3851  0.1165
  666MOL0     C87793   8.016   6.117   0.894 -0.3444  0.0908  0.1186
  666MOL0     C87794   7.880   6.055   0.887 -0.7578  0.1006 -0.2841
  666MOL0     C87795   7.762   6.136   0.940  0.3134  0.0217  0.1006
  666MOL0     C87796   7.627   6.075   0.924  1.5380 -0.4066  0.2355
  666MOL0     N87797   7.520   6.130   1.002  0.0033 -1.0796 -0.3696
  666MOL0     C87798   7.453   6.252   0.986 -1.0468  0.4121  0.3372
  666MOL0     C87799   7.332   6.239   1.050 -0.3315 -0.4066 -0.5062
  666MOL0     C87800   7.220   6.338   1.060 -0.1402  0.2095 -0.1051
  666MOL0     C87801   7.246   6.472   0.981 -0.0401  0.5669 -0.2582
  666MOL0     C87802   7.350   6.561   1.055  1.0181 -0.7992  0.0297
  666MOL0     C87803   7.421   6.662   0.960  0.1813  0.3573  0.2879
  666MOL0     O87804   7.524   6.584   0.896  0.5104 -0.3265  0.7898
  666MOL0     C87805   7.633   6.656   0.854 -0.3184 -0.3367  0.1554
  666MOL0     C87806   7.763   6.608   0.881 -0.1059  0.1320  0.3471
  666MOL0     C87807   7.881   6.685   0.853  0.3496  0.6404 -0.4508
  666MOL0     C87808   7.871   6.809   0.795 -0.3500  0.1747  0.3843
  666MOL0     C87809   7.989   6.902   0.770  0.1123 -0.6431  0.5027
  666MOL0     O87810   8.114   6.843   0.772 -0.3347 -0.8827  0.3992
  666MOL0     C87811   8.218   6.934   0.777 -0.8524 -0.7380  0.0628
  666MOL0     C87812   8.221   7.056   0.851 -0.0338  0.1116 -0.3593
  666MOL0     C87813   8.341   7.126   0.852  0.0749 -0.2035 -0.4066
  666MOL0     C87814   8.457   7.082   0.791 -0.2470  0.1069  0.4026
  666MOL0     O87815   8.581   7.137   0.796  0.4361 -0.0158  0.0927
  666MOL0     C87816   8.612   7.205   0.917 -0.2141 -0.5376  0.2534
  666MOL0     C87817   8.757   7.254   0.913  0.1728 -0.1948  0.1643
  666MOL0     C87818   8.853   7.132   0.916  0.2974 -0.0491 -0.3511
  666MOL0     C87819   8.989   7.158   0.852 -0.2408 -0.4785  0.4219
  666MOL0     C87820   8.976   7.131   0.697 -1.2883  0.0888 -0.3444
  666MOL0     C87821   8.991   6.986   0.670  1.3577  0.0136 -0.2516
  666MOL0     C87822   8.977   6.952   0.527  1.1446  0.3281 -0.0631
  666MOL0     C87823   8.988   6.795   0.520  0.5512 -0.0970  0.0416
  666MOL0    Cl87824   8.845   6.726   0.599 -0.1159 -0.1119  0.0741
  666MOL0     C87825   8.452   6.974   0.703  0.3908 -0.0778 -0.0419
  666MOL0     C87826   8.330   6.903   0.695  0.2656  0.0301 -0.6156
  666MOL0     O87827   7.968   7.022   0.743  0.5291 -0.3559  0.3304
  666MOL0     C87828   7.737   6.855   0.771  1.0712  0.0346 -0.2023
  666MOL0     C87829   7.616   6.784   0.798  0.1592  0.0618  0.1206
  666MOL0     N87830   7.332   6.111   1.105 -0.3195 -0.4700  0.2556
  666MOL0     N87831   7.434   6.048   1.071 -0.3011 -0.5277  0.4560
  666MOL0     C87832   8.761   6.041   0.818 -0.0447  0.1610 -0.2876
  666MOL0     C87833   8.894   5.991   0.809 -0.4978  0.3234  0.4773
  666MOL0     C87834   9.253   5.711   0.709  0.6276  0.0768 -0.9592
  666MOL0     C87835   9.339   5.786   0.798  0.1476  0.1751 -0.0529
  666MOL0     C87836   9.466   5.737   0.826  0.1873 -0.1039 -0.2390
  666MOL0     C87837   9.524   5.626   0.755 -0.3894 -0.2112 -0.7246
  666MOL0     O87838   9.641   5.569   0.797 -0.2197  0.3076  0.7649
  666MOL0     C87839   9.752   5.643   0.764  0.1693 -0.8501  0.0779
  666MOL0     C87840   9.763   5.685   0.619  0.1967 -0.0182  0.2487
  666MOL0     C87841   9.900   5.757   0.599 -0.6232  0.7943 -0.6445
  666MOL0     C87842   9.956   5.704   0.466  0.0777 -0.0393  0.1603
  666MOL0     C87843   9.995   5.567   0.482  0.3479  0.3091 -0.5626
  666MOL0     C87844  10.022   5.449   0.507  0.5702 -0.4013 -0.2085
  666MOL0     C87845   9.439   5.556   0.663 -0.4296 -0.0610  0.2773
  666MOL0     C87846   9.308   5.602   0.643  0.0334  0.6807  0.4954
  666MOL0     H87847   8.838   5.656   0.822  1.6536  0.3838  1.6394
  666MOL0     H87848   8.609   5.746   0.840 -0.2782  0.9080 -0.1938
  666MOL0     H87849   8.503   6.187   0.863 -0.4574  0.5382 -0.8235
  666MOL0     H87850   8.531   6.071   1.001 -0.9299 -0.3132  0.3890
  666MOL0     H87851   8.295   6.128   0.995 -0.4919  0.2752 -1.1283
  666MOL0     H87852   8.317   5.962   0.955 -0.7976  0.1675  1.6883
  666MOL0     H87853   8.299   6.036   0.702  1.3487  1.7725  0.3123
  666MOL0     H87854   8.262   6.187   0.762  0.8210  0.2974  2.8697
  666MOL0     H87855   8.061   6.057   0.687  0.2646 -4.0005 -0.4025
  666MOL0     H87856   8.097   5.938   0.811  2.6447 -0.7042 -0.6009
  666MOL0     H87857   8.007   6.219   0.856 -0.9631  0.1805  0.5060
  666MOL0     H87858   8.051   6.107   0.997 -2.8926  2.4307  1.3355
  666MOL0     H87859   7.884   5.964   0.948 -0.9621  0.9204  0.9754
  666MOL0     H87860   7.853   6.026   0.785  0.9453 -0.4863 -0.5957
  666MOL0     H87861   7.775   6.150   1.047 -0.3483  1.2211  0.0371
  666MOL0     H87862   7.759   6.236   0.895 -0.4753 -0.6839 -1.5099
  666MOL0     H87863   7.619   5.968   0.943 -1.2664  0.1234  2.9780
  666MOL0     H87864   7.610   6.089   0.817  1.9938  1.5829  0.3708
  666MOL0     H87865   7.491   6.332   0.924 -3.2820  2.1761  1.0882
  666MOL0     H87866   7.222   6.363   1.167 -1.7892 -1.6504  0.4205
  666MOL0     H87867   7.121   6.301   1.029  0.2059  0.3971 -1.4965
  666MOL0     H87868   7.152   6.527   0.973  0.5503  1.5934 -0.3480
  666MOL0     H87869   7.264   6.443   0.877 -1.7855 -2.7806  0.2345
  666MOL0     H87870   7.296   6.617   1.132  1.7971 -0.6219  0.4612
  666MOL0     H87871   7.430   6.506   1.106  1.7043  2.1253  2.4118
  666MOL0     H87872   7.469   6.746   1.010  1.4925  0.9148 -1.7978
  666MOL0     H87873   7.345   6.707   0.895  1.9644  2.5313 -0.4183
  666MOL0     H87874   7.768   6.510   0.927  2.0031 -0.6420 -1.3870
  666MOL0     H87875   7.973   6.638   0.885 -0.6782 -0.5724  0.8211
  666MOL0     H87876   8.133   7.089   0.906  1.9992  2.9409  1.4528
  666MOL0     H87877   8.349   7.220   0.906  0.8356  1.0325 -2.5496
  666MOL0     H87878   8.607   7.139   1.004  2.9581  1.6919  2.3450
  666MOL0     H87879   8.539   7.283   0.940  0.3865  0.0500  0.1805
  666MOL0     H87880   8.780   7.329   0.990 -0.3782 -0.9814  1.1263
  666MOL0     H87881   8.769   7.305   0.817  2.2065 -1.0927 -0.1087
  666MOL0     H87882   8.806   7.046   0.867 -0.0853 -1.4885  2.3939
  666MOL0     H87883   8.860   7.107   1.022  4.2846  0.7020 -0.2714
  666MOL0     H87884   9.007   7.265   0.863 -1.0825 -0.3812  0.9208
  666MOL0     H87885   9.064   7.092   0.896 -0.7914 -1.6697 -0.3613
  666MOL0     H87886   9.056   7.183   0.644  0.5968 -1.7751  0.5561
  666MOL0     H87887   8.884   7.173   0.654 -0.6900  2.9452  0.8915
  666MOL0     H87888   8.909   6.932   0.718  0.1018 -0.5256 -2.7999
  666MOL0     H87889   9.087   6.954   0.709  0.5382 -3.3098 -0.6970
  666MOL0     H87890   8.875   6.981   0.499  0.4609 -0.5377  1.4069
  666MOL0     H87891   9.057   6.998   0.469  2.3909 -0.8331  0.6495
  666MOL0     H87892   9.077   6.766   0.576 -0.1726 -1.9715  0.3195
  666MOL0     H87893   8.989   6.767   0.414 -3.0141 -0.9796  0.0795
  666MOL0     H87894   8.536   6.942   0.643 -0.1657 -1.7427  0.0234
  666MOL0     H87895   8.321   6.808   0.643  2.5915 -0.1682 -0.7516
  666MOL0     H87896   7.736   6.951   0.719 -0.0310 -0.3658 -0.9754
  666MOL0     H87897   7.521   6.829   0.774 -0.0833  0.7190  2.0950
  666MOL0     H87898   8.745   6.148   0.814 -1.2265 -0.0030 -0.4732
  666MOL0     H87899   8.979   6.058   0.802 -0.7168  0.6007  0.4557
  666MOL0     H87900   9.301   5.871   0.853  0.8228  1.3234 -1.2815
  666MOL0     H87901   9.525   5.791   0.899 -0.0429  0.8619 -0.7591
  666MOL0     H87902   9.835   5.573   0.780  1.4373  0.2802 -1.2492
  666MOL0     H87903   9.760   5.731   0.829 -0.6132 -0.2599 -0.6041
  666MOL0     H87904   9.744   5.603   0.549  1.0282  1.4140 -1.7563
  666MOL0     H87905   9.686   5.759   0.596  1.2713  1.0937  0.1194
  666MOL0     H87906   9.966   5.735   0.683 -0.3860  2.4891 -0.3376
  666MOL0     H87907   9.885   5.866   0.600 -0.2885  0.8398  0.5125
  666MOL0     H87908   9.880   5.721   0.389  0.8724  0.2642 -0.5759
  666MOL0     H87909  10.044   5.765   0.442  1.1676 -1.0961  1.3629
  666MOL0     H87910  10.045   5.346   0.522 -1.2282 -0.7796  0.2147
  666MOL0     H87911   9.487   5.462   0.638  3.0021  1.3627  0.8648
  666MOL0     H87912   9.242   5.535   0.589 -0.7377  1.1465  0.8367
  667MOL0     O87913   4.811   4.904   8.173  0.3123 -0.2251  0.2114
  667MOL0     C87914   4.836   4.860   8.068  0.4795 -0.1181 -0.3150
  667MOL0     O87915   4.749   4.852   7.958 -0.9801  0.4278 -0.3095
  667MOL0     C87916   4.610   4.877   7.953  0.3368 -0.6561  0.4599
  667MOL0     C87917   4.548   4.826   7.841 -0.3292 -0.2535  0.3747
  667MOL0     C87918   4.413   4.819   7.822  0.2004  0.0882 -0.1662
  667MOL0     C87919   4.323   4.862   7.923 -1.0438  0.5039 -0.0057
  667MOL0     O87920   4.189   4.864   7.914 -0.4541 -0.1408 -0.0042
  667MOL0     C87921   4.135   4.792   7.803  0.6623 -0.3236 -0.1418
  667MOL0     C87922   3.981   4.808   7.817  0.0720 -0.6617  0.4002
  667MOL0     C87923   3.913   4.758   7.690  0.1710  0.5213  0.4799
  667MOL0     C87924   3.766   4.794   7.677  0.6112 -0.9206 -0.5227
  667MOL0     C87925   3.705   4.758   7.549 -0.5017  0.3664  0.2157
  667MOL0     C87926   3.576   4.841   7.530  0.5756  0.0187 -0.6842
  667MOL0     C87927   3.491   4.777   7.423  0.6240  0.2171 -0.5160
  667MOL0     C87928   3.372   4.864   7.380 -0.2050  0.0487 -0.5914
  667MOL0     N87929   3.281   4.889   7.492 -0.4394 -0.1292  0.0372
  667MOL0     C87930   3.251   5.023   7.520  0.1229 -0.0146 -0.6278
  667MOL0     C87931   3.145   5.005   7.605 -0.6009 -0.1536  0.7218
  667MOL0     C87932   3.079   5.114   7.677  0.0943  0.2131  0.1672
  667MOL0     C87933   2.955   5.068   7.753 -0.3424  0.2408 -0.6222
  667MOL0     C87934   2.860   5.188   7.775 -0.3301  0.1755 -0.7236
  667MOL0     C87935   2.720   5.152   7.821  0.9234  0.3942 -0.0577
  667MOL0     O87936   2.656   5.094   7.712  0.1287 -0.1155 -0.0722
  667MOL0     C87937   2.524   5.052   7.734  0.4233 -0.5204 -0.0749
  667MOL0     C87938   2.448   5.047   7.852  0.9965  0.3327  0.1814
  667MOL0     C87939   2.309   5.023   7.847 -0.3905  0.4187  0.0174
  667MOL0     C87940   2.252   4.979   7.716 -0.3844  0.2799 -0.1772
  667MOL0     C87941   2.111   4.961   7.700  0.6592  0.6828  0.4993
  667MOL0     O87942   2.044   4.941   7.820 -0.2238 -0.2834  0.2632
  667MOL0     C87943   1.921   4.888   7.804 -0.2713  0.5135  0.5000
  667MOL0     C87944   1.901   4.746   7.805  0.0192 -0.0439 -0.1960
  667MOL0     C87945   1.776   4.683   7.786  0.0694 -0.5139 -0.1625
  667MOL0     C87946   1.664   4.762   7.765  0.0218  0.3840  0.0136
  667MOL0     O87947   1.535   4.734   7.741 -0.5016  0.0590 -0.3102
  667MOL0     C87948   1.478   4.609   7.777  0.4177  0.4498  0.0772
  667MOL0     C87949   1.334   4.616   7.797 -0.2765  0.0365 -1.0749
  667MOL0     C87950   1.253   4.500   7.745  0.4090 -0.5371  0.3852
  667MOL0     C87951   1.105   4.530   7.766 -0.0122 -0.1972 -0.4373
  667MOL0     C87952   1.031   4.406   7.707  0.5688 -0.2979 -0.9622
  667MOL0     C87953   0.879   4.409   7.744  0.1939 -0.0163 -0.4681
  667MOL0     C87954   0.796   4.300   7.668 -0.1988 -0.3438 -0.0629
  667MOL0     C87955   0.651   4.307   7.711 -0.0276  0.2662 -0.3136
  667MOL0    Cl87956   0.546   4.171   7.645 -0.1857  0.0647  0.0335
  667MOL0     C87957   1.681   4.905   7.768 -0.0344  0.0658  0.2639
  667MOL0     C87958   1.810   4.963   7.780  0.5322  0.1649 -0.2932
  667MOL0     O87959   2.059   4.960   7.588  0.0604 -0.4449  0.5229
  667MOL0     C87960   2.328   4.974   7.606 -0.5354  0.7818  0.4511
  667MOL0     C87961   2.467   5.000   7.618  0.3770 -0.6912 -0.5458
  667MOL0     N87962   3.110   4.869   7.604  1.5747 -0.0610  0.0613
  667MOL0     N87963   3.183   4.803   7.523  0.0116  0.0705 -0.4115
  667MOL0     C87964   4.381   4.915   8.033  0.0606 -1.1105 -0.2940
  667MOL0     C87965   4.522   4.928   8.050 -0.5782 -0.0425  0.3785
  667MOL0     C87966   4.982   4.815   8.042 -0.4445 -0.6492 -0.5840
  667MOL0     C87967   5.083   4.831   8.142 -0.1154  0.4939 -0.2601
  667MOL0     C87968   5.221   4.809   8.112  0.2958 -0.0441  0.3594
  667MOL0     C87969   5.256   4.758   7.983  0.4523  0.1586 -0.0749
  667MOL0     O87970   5.390   4.732   7.972  0.6430 -0.3036  0.1465
  667MOL0     C87971   5.433   4.633   7.873  1.0962  0.1450 -0.5841
  667MOL0     C87972   5.582   4.650   7.858 -0.1914  0.0069  0.8072
  667MOL0     C87973   5.616   4.777   7.793  0.0675 -0.0387  0.2181
  667MOL0     C87974   5.750   4.779   7.730 -0.1456  0.2168  0.3817
  667MOL0     C87975   5.775   4.886   7.621 -0.3871 -0.6160 -0.5200
  667MOL0     C87976   5.794   4.967   7.528  0.0089  0.1695  0.0953
  667MOL0     C87977   5.151   4.726   7.893  0.0279  0.8779  0.1536
  667MOL0     C87978   5.016   4.752   7.924  0.4789 -0.2456  0.2713
  667MOL0     H87979   4.608   4.783   7.761  0.5551 -0.5793  1.1800
  667MOL0     H87980   4.374   4.782   7.727 -0.2032 -3.7171  1.3064
  667MOL0     H87981   4.166   4.688   7.788  1.0575 -0.8483  3.5242
  667MOL0     H87982   4.159   4.849   7.713 -0.1847  0.0175 -0.1603
  667MOL0     H87983   3.946   4.909   7.841  0.3745 -0.6039  0.5999
  667MOL0     H87984   3.952   4.753   7.907 -2.6521  0.1574  0.1376
  667MOL0     H87985   3.919   4.648   7.688 -2.8976  0.2744 -1.4963
  667MOL0     H87986   3.974   4.789   7.605 -0.0143 -0.7632 -0.1534
  667MOL0     H87987   3.704   4.758   7.760 -1.1075 -0.0298 -1.3989
  667MOL0     H87988   3.752   4.901   7.690 -2.3640 -1.3971  0.8905
  667MOL0     H87989   3.673   4.654   7.560  0.3919  0.0846  0.1830
  667MOL0     H87990   3.775   4.776   7.467  0.2419 -1.3619  0.4203
  667MOL0     H87991   3.605   4.944   7.507  1.6291  0.0348  0.5749
  667MOL0     H87992   3.527   4.826   7.627  1.5989 -1.5766 -0.3580
  667MOL0     H87993   3.549   4.744   7.336 -0.2363 -1.7064 -0.4182
  667MOL0     H87994   3.447   4.686   7.465  2.1371 -0.4876 -0.3909
  667MOL0     H87995   3.315   4.812   7.302 -2.2393  2.5410 -0.9015
  667MOL0     H87996   3.402   4.960   7.336 -0.3029  0.7592  0.8227
  667MOL0     H87997   3.296   5.116   7.487  0.6666  0.8561  2.3086
  667MOL0     H87998   3.056   5.192   7.604  1.2951  0.6304  0.2234
  667MOL0     H87999   3.147   5.167   7.745  2.3505 -1.0510 -0.9776
  667MOL0     H88000   2.996   5.044   7.852  2.3044  1.2525 -1.4106
  667MOL0     H88001   2.904   4.981   7.710 -0.4112  0.2283 -0.5145
  667MOL0     H88002   2.909   5.255   7.846 -0.0864 -0.3920 -0.3497
  667MOL0     H88003   2.848   5.245   7.682 -0.8444 -2.1877 -2.1684
  667MOL0     H88004   2.677   5.246   7.856  1.6843  0.7996 -0.2005
  667MOL0     H88005   2.731   5.080   7.903  0.7600 -1.0021 -1.2144
  667MOL0     H88006   2.494   5.063   7.949 -0.1959 -1.1101  1.0153
  667MOL0     H88007   2.252   5.021   7.939  0.9175  0.0517  0.8430
  667MOL0     H88008   1.989   4.685   7.820  0.0210  0.0545  0.2080
  667MOL0     H88009   1.763   4.575   7.783  0.2177 -0.5160 -1.9546
  667MOL0     H88010   1.521   4.585   7.875  0.5174  1.2118  0.2242
  667MOL0     H88011   1.507   4.531   7.706 -0.4234 -0.7207  0.9714
  667MOL0     H88012   1.305   4.713   7.755  4.4786  0.9495 -2.9013
  667MOL0     H88013   1.315   4.619   7.905 -0.5813  0.8937 -1.1391
  667MOL0     H88014   1.291   4.412   7.798 -0.6525 -0.3791  1.4676
  667MOL0     H88015   1.274   4.477   7.640 -1.8634  0.7835 -0.4359
  667MOL0     H88016   1.081   4.538   7.873 -0.5382  0.6950 -0.6099
  667MOL0     H88017   1.066   4.621   7.718  2.2085  1.4035  0.6373
  667MOL0     H88018   1.069   4.317   7.759 -2.4718 -0.5762  1.0601
  667MOL0     H88019   1.034   4.393   7.599  0.4808 -0.1047 -0.9895
  667MOL0     H88020   0.832   4.506   7.725  0.4874  0.0247 -1.0004
  667MOL0     H88021   0.868   4.380   7.849  3.5644 -1.9371 -0.4849
  667MOL0     H88022   0.807   4.323   7.562  2.8185  1.3833  0.5150
  667MOL0     H88023   0.845   4.203   7.684  0.1957 -0.3134 -1.0750
  667MOL0     H88024   0.604   4.402   7.680  0.3345  1.0380  1.3794
  667MOL0     H88025   0.635   4.307   7.820  0.2904  0.3590 -0.2668
  667MOL0     H88026   1.593   4.969   7.764 -0.6253 -0.5710  2.0688
  667MOL0     H88027   1.822   5.071   7.777 -2.2579  0.5462  0.0969
  667MOL0     H88028   2.277   4.954   7.512 -0.3627 -1.4722  0.7844
  667MOL0     H88029   2.533   4.995   7.532  1.8261 -1.2651  0.5500
  667MOL0     H88030   4.320   4.968   8.106 -1.0789 -0.0606 -1.9293
  667MOL0     H88031   4.555   4.964   8.147 -0.9142 -0.2035  0.5537
  667MOL0     H88032   5.057   4.871   8.239  1.1460  4.3028 -1.3347
  667MOL0     H88033   5.286   4.822   8.198 -0.1875  2.1791  0.4524
  667MOL0     H88034   5.385   4.651   7.777 -0.3623  3.3920  0.6274
  667MOL0     H88035   5.417   4.531   7.911 -0.6972  0.6666  0.1667
  667MOL0     H88036   5.628   4.643   7.958 -1.2689 -1.2518  1.2358
  667MOL0     H88037   5.634   4.572   7.802  0.6369  0.2253  1.2449
  667MOL0     H88038   5.615   4.845   7.878 -0.3348 -2.1675  1.9959
  667MOL0     H88039   5.552   4.805   7.708  0.7697 -1.1953 -0.7202
  667MOL0     H88040   5.829   4.794   7.805  3.4685 -1.0782 -2.8329
  667MOL0     H88041   5.761   4.683   7.680  0.4733  0.5223 -0.0859
  667MOL0     H88042   5.819   5.006   7.431  1.4538 -1.3907 -0.1988
  667MOL0     H88043   5.183   4.681   7.800  0.2884  0.4285  0.4544
  667MOL0     H88044   4.943   4.719   7.850  0.0853  2.0767 -0.4795
  668MOL0     O88045   3.667   2.534   8.520 -0.6585  0.5907 -0.2540
  668MOL0     C88046   3.712   2.639   8.564  0.0381  0.0950 -0.6304
  668MOL0     O88047   3.645   2.757   8.572 -0.1307 -0.1587  0.5067
  668MOL0     C88048   3.512   2.766   8.540  0.4273 -0.0084  0.1313
  668MOL0     C88049   3.451   2.858   8.627 -0.3831 -0.2105 -0.2698
  668MOL0     C88050   3.310   2.869   8.611 -0.5750 -0.1768  0.3013
  668MOL0     C88051   3.238   2.809   8.507 -0.1595 -0.1550 -0.8800
  668MOL0     O88052   3.104   2.832   8.490 -0.5273  0.1833  0.1850
  668MOL0     C88053   3.056   2.968   8.496 -0.3115 -0.4403  0.6676
  668MOL0     C88054   2.904   2.962   8.451 -0.5265 -0.0534  0.2977
  668MOL0     C88055   2.895   2.897   8.307 -0.7756 -0.0624 -0.8592
  668MOL0     C88056   2.762   2.874   8.255  0.6217  0.2978 -0.9964
  668MOL0     C88057   2.673   3.000   8.245 -0.3975  1.0179  0.1617
  668MOL0     C88058   2.544   2.968   8.173  0.4848 -1.0493 -0.3155
  668MOL0     C88059   2.469   3.098   8.129 -0.5906 -0.1746 -0.3923
  668MOL0     C88060   2.332   3.047   8.092 -0.0741 -0.1289  0.1793
  668MOL0     N88061   2.223   3.144   8.071  0.2917 -0.8863  0.3146
  668MOL0     C88062   2.202   3.213   7.953 -0.2975  0.5471  0.6600
  668MOL0     C88063   2.077   3.270   7.954 -0.2474 -0.1986 -0.1455
  668MOL0     C88064   2.006   3.327   7.834 -0.5976 -0.3077  0.0056
  668MOL0     C88065   1.862   3.374   7.865  0.7310 -0.2627  0.3454
  668MOL0     C88066   1.768   3.255   7.882 -0.1697 -0.4185  0.6656
  668MOL0     C88067   1.627   3.301   7.921  0.1848 -0.2321 -0.1507
  668MOL0     O88068   1.558   3.358   7.807 -0.2929  0.2009  0.3384
  668MOL0     C88069   1.428   3.385   7.827  0.1197  0.2277  0.3282
  668MOL0     C88070   1.362   3.433   7.713 -0.0738  0.7317  1.1147
  668MOL0     C88071   1.225   3.476   7.715  0.8451  1.0378 -0.8473
  668MOL0     C88072   1.147   3.465   7.833  0.1764 -0.1608  0.4215
  668MOL0     C88073   0.998   3.482   7.837  0.1833  0.3623 -0.5556
  668MOL0     O88074   0.938   3.518   7.713  0.1252  0.3913  0.0314
  668MOL0     C88075   0.813   3.497   7.688  0.7754 -0.0240  0.4340
  668MOL0     C88076   0.786   3.445   7.561 -0.4534  0.0918 -0.2446
  668MOL0     C88077   0.652   3.424   7.516  0.5585  1.0897 -0.8295
  668MOL0     C88078   0.545   3.428   7.605 -0.3058  0.4359  0.4010
  668MOL0     O88079   0.413   3.408   7.578  0.4102 -0.6558 -0.5970
  668MOL0     C88080   0.395   3.321   7.470  0.1359  0.1777  0.7583
  668MOL0     C88081   0.253   3.282   7.471  0.0256  0.0677 -1.0307
  668MOL0     C88082   0.197   3.247   7.612  0.7852 -0.1510  0.2085
  668MOL0     C88083   0.054   3.194   7.593 -0.1347 -0.3522  0.4237
  668MOL0     C88084  -0.009   3.182   7.733 -0.0385 -0.0025  0.0209
  668MOL0     C88085  -0.139   3.100   7.725 -0.0393 -0.2173  0.3016
  668MOL0     C88086  -0.228   3.122   7.858 -0.1694 -1.0077 -0.2877
  668MOL0     C88087  -0.363   3.053   7.855  0.0270  0.2593 -0.4025
  668MOL0    Cl88088  -0.451   3.103   7.709  0.2289 -0.2173 -0.0292
  668MOL0     C88089   0.571   3.487   7.732 -0.4673 -0.1104  0.3211
  668MOL0     C88090   0.701   3.532   7.768  0.6537  0.4911 -0.8677
  668MOL0     O88091   0.943   3.461   7.940 -0.1572 -0.2062 -0.0302
  668MOL0     C88092   1.217   3.429   7.952  0.3277  0.9770  0.6950
  668MOL0     C88093   1.352   3.391   7.945  0.2269 -0.0463 -0.9228
  668MOL0     N88094   2.025   3.231   8.075 -0.1463  0.2203 -0.0818
  668MOL0     N88095   2.110   3.165   8.144  0.6955 -0.7058  0.8526
  668MOL0     C88096   3.309   2.733   8.417  0.0443  0.5021 -0.4238
  668MOL0     C88097   3.443   2.703   8.434 -0.1144  0.3084  0.3475
  668MOL0     C88098   3.858   2.648   8.593  0.7270  0.8231  0.3026
  668MOL0     C88099   3.915   2.757   8.652  0.1547 -0.6508 -1.3473
  668MOL0     C88100   4.048   2.755   8.701 -0.3635 -0.2522 -0.5920
  668MOL0     C88101   4.131   2.648   8.660  0.2665  0.0266  0.0641
  668MOL0     O88102   4.260   2.641   8.689  0.2087 -0.5238  0.6788
  668MOL0     C88103   4.330   2.739   8.764  0.2214  0.3001 -0.0306
  668MOL0     C88104   4.474   2.709   8.731  0.3486 -0.0068 -0.8303
  668MOL0     C88105   4.580   2.805   8.787 -0.7206  0.1630  0.2072
  668MOL0     C88106   4.699   2.824   8.691  0.3254  0.4670 -0.1346
  668MOL0     C88107   4.810   2.911   8.739  0.1217  0.3180 -0.0929
  668MOL0     C88108   4.910   2.982   8.771  0.4801 -0.2796 -0.5789
  668MOL0     C88109   4.082   2.548   8.577 -0.3178 -0.1842  0.4316
  668MOL0     C88110   3.947   2.548   8.554  0.2044  0.1032  0.1456
  668MOL0     H88111   3.515   2.908   8.699 -0.3174 -1.3795  0.5238
  668MOL0     H88112   3.260   2.940   8.676  1.2842  0.5385  1.0475
  668MOL0     H88113   3.116   3.034   8.432  2.1481 -2.0054  1.2444
  668MOL0     H88114   3.051   3.006   8.598 -0.5883  0.3488  0.3671
  668MOL0     H88115   2.847   3.055   8.461  1.1492  1.0225  0.2606
  668MOL0     H88116   2.868   2.882   8.515  0.3598 -0.7854 -0.0951
  668MOL0     H88117   2.947   2.801   8.299  0.2469  0.3987  0.0140
  668MOL0     H88118   2.950   2.959   8.235 -0.2112  0.7167  0.2162
  668MOL0     H88119   2.766   2.807   8.168 -0.2506 -0.2836 -0.5981
  668MOL0     H88120   2.705   2.809   8.322  0.8636 -1.4619 -2.3993
  668MOL0     H88121   2.729   3.082   8.198  0.0730  0.9361  0.5696
  668MOL0     H88122   2.646   3.037   8.344  1.0379 -1.3316  1.5210
  668MOL0     H88123   2.479   2.908   8.237 -2.0973  3.1879  1.4640
  668MOL0     H88124   2.568   2.915   8.081 -0.9016  0.3014 -1.5228
  668MOL0     H88125   2.472   3.171   8.211  1.9823 -1.4264  0.7549
  668MOL0     H88126   2.518   3.152   8.048 -0.3955  0.4943  0.1628
  668MOL0     H88127   2.298   2.982   8.173 -0.0038  0.9143  1.0741
  668MOL0     H88128   2.343   2.984   8.003 -0.3771 -2.3868  1.6739
  668MOL0     H88129   2.261   3.204   7.862 -1.1447  1.1995  0.0365
  668MOL0     H88130   2.004   3.263   7.745  0.2744 -2.7016  1.5742
  668MOL0     H88131   2.065   3.415   7.807 -1.3147  0.3219  0.4388
  668MOL0     H88132   1.822   3.446   7.794  1.5769  2.3104  2.3173
  668MOL0     H88133   1.862   3.430   7.959  0.3837 -0.3416  0.3926
  668MOL0     H88134   1.771   3.198   7.789 -0.5861 -2.0564  1.6229
  668MOL0     H88135   1.805   3.195   7.966  2.2381 -0.8613 -0.6436
  668MOL0     H88136   1.628   3.373   8.003  0.5942 -0.9008  0.4482
  668MOL0     H88137   1.576   3.209   7.951  0.0409 -0.1205 -0.0580
  668MOL0     H88138   1.411   3.438   7.616 -1.5727  2.5982  0.3856
  668MOL0     H88139   1.183   3.507   7.619 -1.0879 -0.7534 -0.6668
  668MOL0     H88140   0.856   3.432   7.478  0.4441  1.0836  0.3294
  668MOL0     H88141   0.638   3.383   7.416 -0.7945  2.5303 -1.2663
  668MOL0     H88142   0.465   3.240   7.492 -0.5907 -0.8990 -0.7094
  668MOL0     H88143   0.427   3.370   7.378  0.4028 -1.4554 -0.0574
  668MOL0     H88144   0.250   3.189   7.414  3.8508  0.8534 -2.8380
  668MOL0     H88145   0.186   3.361   7.434  0.3568  1.1827  0.6153
  668MOL0     H88146   0.202   3.331   7.683  1.8272 -0.2809  0.2937
  668MOL0     H88147   0.243   3.158   7.655 -0.3986 -0.9791 -0.1963
  668MOL0     H88148  -0.015   3.261   7.540  1.2943  1.1983  0.4457
  668MOL0     H88149   0.059   3.102   7.534 -1.3895  1.2585 -2.4677
  668MOL0     H88150  -0.022   3.282   7.776 -0.5040 -0.1704  0.2768
  668MOL0     H88151   0.069   3.134   7.793  0.5027  1.3562  0.4367
  668MOL0     H88152  -0.109   2.995   7.717 -1.7882 -0.8090  1.0349
  668MOL0     H88153  -0.198   3.138   7.641  0.0367 -0.6137  0.0672
  668MOL0     H88154  -0.177   3.090   7.949 -0.4472 -0.4940  0.0570
  668MOL0     H88155  -0.242   3.229   7.872  1.1076 -1.1509  2.9917
  668MOL0     H88156  -0.418   3.092   7.942  2.5488  2.9533  0.1671
  668MOL0     H88157  -0.352   2.945   7.869 -1.4291  0.2770  1.2511
  668MOL0     H88158   0.486   3.510   7.795 -2.2237  0.0170 -1.9713
  668MOL0     H88159   0.719   3.584   7.861 -2.8213  0.3747  0.0265
  668MOL0     H88160   1.163   3.422   8.046  0.3579  0.1621  0.6563
  668MOL0     H88161   1.409   3.363   8.033  0.3898 -3.3350 -1.9460
  668MOL0     H88162   3.245   2.685   8.343 -1.2833  3.4958 -1.3536
  668MOL0     H88163   3.486   2.628   8.369 -0.2210  0.4255  0.1416
  668MOL0     H88164   3.849   2.841   8.667 -0.3832 -1.2517 -0.2528
  668MOL0     H88165   4.111   2.831   8.745  1.0313 -0.0192 -2.8007
  668MOL0     H88166   4.302   2.725   8.869  1.3876 -1.0776  0.1359
  668MOL0     H88167   4.312   2.844   8.741  0.7816  0.2527 -0.7300
  668MOL0     H88168   4.507   2.610   8.760  2.7074  0.7551 -0.7457
  668MOL0     H88169   4.492   2.713   8.623  1.5857 -0.1147 -0.6393
  668MOL0     H88170   4.619   2.774   8.885  1.9101  0.3443 -0.6966
  668MOL0     H88171   4.539   2.905   8.801  0.9080  0.9713 -0.5531
  668MOL0     H88172   4.739   2.726   8.664 -2.9649 -1.0427 -0.1461
  668MOL0     H88173   4.655   2.869   8.602  0.1377  0.7833  0.1140
  668MOL0     H88174   4.986   3.054   8.794  1.0130 -0.8597 -0.4861
  668MOL0     H88175   4.145   2.466   8.542  0.7631  0.3953  0.9724
  668MOL0     H88176   3.923   2.456   8.502  4.5850 -1.5450  0.6661
  669MOL0     O88177   5.652   8.536   3.811  0.0913  0.7122 -0.1796
  669MOL0     C88178   5.654   8.521   3.686  0.5931 -0.7361 -0.1111
  669MOL0     O88179   5.545   8.513   3.596  0.2065  0.6875 -0.3338
  669MOL0     C88180   5.420   8.520   3.641 -1.0792 -0.3780  0.3469
  669MOL0     C88181   5.330   8.450   3.561  0.1121 -0.5361  0.2850
  669MOL0     C88182   5.196   8.460   3.597 -0.4819 -0.1796 -0.2256
  669MOL0     C88183   5.145   8.533   3.706 -0.8035 -1.1316  0.5171
  669MOL0     O88184   5.016   8.544   3.744  0.0732 -0.1249  0.2130
  669MOL0     C88185   4.914   8.525   3.643  0.1222 -0.0022 -0.3871
  669MOL0     C88186   4.774   8.541   3.704 -0.2291 -0.3617  0.0730
  669MOL0     C88187   4.666   8.518   3.598  0.0268 -0.0974  0.2155
  669MOL0     C88188   4.529   8.523   3.679 -0.9476  0.2284  0.2683
  669MOL0     C88189   4.405   8.462   3.596 -0.2692  0.7134 -0.1019
  669MOL0     C88190   4.375   8.538   3.462  0.5845 -0.3893  0.2742
  669MOL0     C88191   4.271   8.471   3.376  0.3271 -0.3955  0.2804
  669MOL0     C88192   4.220   8.540   3.254 -0.3405  0.0676 -0.8645
  669MOL0     N88193   4.123   8.459   3.179  0.5491  0.1349 -0.7012
  669MOL0     C88194   3.998   8.509   3.172 -0.3618  0.9036 -0.0971
  669MOL0     C88195   3.929   8.425   3.093  1.3117 -0.1628 -0.1191
  669MOL0     C88196   3.783   8.440   3.056  0.3082 -0.4834 -0.1661
  669MOL0     C88197   3.681   8.543   3.136  0.3159  0.1264  0.3985
  669MOL0     C88198   3.575   8.592   3.042  0.3835 -0.2989 -0.7353
  669MOL0     C88199   3.463   8.664   3.113  0.8016  0.3180  0.4155
  669MOL0     O88200   3.349   8.667   3.022  0.7865 -0.2877  0.6707
  669MOL0     C88201   3.251   8.762   3.052 -0.4731  0.0480  0.6449
  669MOL0     C88202   3.134   8.748   2.978 -0.0649 -0.0678 -0.1481
  669MOL0     C88203   3.024   8.825   3.007 -1.3085  0.1717 -0.0151
  669MOL0     C88204   3.024   8.923   3.105  0.1103  0.8925  0.1067
  669MOL0     C88205   2.890   8.985   3.136  0.5084 -0.2857  0.0090
  669MOL0     O88206   2.895   9.085   3.227 -0.7958  0.1205  0.5026
  669MOL0     C88207   2.771   9.141   3.267 -0.2383  0.1835  0.4939
  669MOL0     C88208   2.705   9.092   3.385  0.0594 -0.2242  0.4753
  669MOL0     C88209   2.577   9.140   3.422  0.3404  0.1859  0.2540
  669MOL0     C88210   2.516   9.238   3.349  0.5242 -0.2849 -0.7913
  669MOL0     O88211   2.390   9.276   3.394 -0.2329 -0.4096  0.0965
  669MOL0     C88212   2.323   9.404   3.366 -0.8451 -0.5514  0.2357
  669MOL0     C88213   2.235   9.461   3.487  0.8005  0.2665  0.7254
  669MOL0     C88214   2.135   9.353   3.546  0.4537  0.8523  0.2397
  669MOL0     C88215   2.025   9.318   3.439  0.3601  0.9421 -0.4481
  669MOL0     C88216   1.906   9.250   3.499 -0.2975  0.0447 -0.1885
  669MOL0     C88217   1.808   9.220   3.387  0.5617  0.1153  0.5059
  669MOL0     C88218   1.672   9.185   3.450  0.4866 -0.2464  0.3180
  669MOL0     C88219   1.581   9.303   3.490  0.6456  0.2970  0.2193
  669MOL0    Cl88220   1.437   9.242   3.582  0.1684 -0.3811 -0.0616
  669MOL0     C88221   2.582   9.293   3.245  0.0843 -0.2486 -0.0315
  669MOL0     C88222   2.717   9.257   3.206  0.7309  0.7779 -0.1385
  669MOL0     O88223   2.787   8.962   3.070  0.7196 -0.2093  0.1678
  669MOL0     C88224   3.136   8.927   3.189 -0.0388 -0.5122 -0.4478
  669MOL0     C88225   3.252   8.856   3.161 -0.1899  0.9755  0.2736
  669MOL0     N88226   4.006   8.314   3.072  0.4110 -0.2880 -0.3663
  669MOL0     N88227   4.122   8.329   3.133  0.2425  0.4588 -0.2747
  669MOL0     C88228   5.245   8.599   3.781  0.0767  0.0345  0.4376
  669MOL0     C88229   5.378   8.604   3.745  0.2425 -0.1193 -0.9288
  669MOL0     C88230   5.789   8.514   3.621  0.5155  0.5972 -0.3285
  669MOL0     C88231   5.810   8.479   3.487  0.2286 -0.2904  0.0313
  669MOL0     C88232   5.937   8.483   3.430 -0.8244  0.0178 -0.0832
  669MOL0     C88233   6.042   8.525   3.506  0.6301  0.3884  0.3775
  669MOL0     O88234   6.168   8.507   3.449 -0.0878 -0.8584 -0.4991
  669MOL0     C88235   6.287   8.544   3.509  0.0627 -0.1254  0.1621
  669MOL0     C88236   6.357   8.425   3.574  0.2815 -0.5875 -0.4927
  669MOL0     C88237   6.509   8.430   3.568 -0.5040  0.3034 -0.4827
  669MOL0     C88238   6.579   8.300   3.601  0.3485 -0.2703 -0.4799
  669MOL0     C88239   6.718   8.301   3.601 -0.4930  0.5350  0.4885
  669MOL0     C88240   6.834   8.307   3.612  0.5318 -0.9035  0.6732
  669MOL0     C88241   6.028   8.567   3.636  0.5117  0.8629 -0.5881
  669MOL0     C88242   5.900   8.561   3.693 -0.0603  0.6736 -1.3152
  669MOL0     H88243   5.358   8.399   3.469 -3.1823 -0.8989 -0.6587
  669MOL0     H88244   5.116   8.420   3.536 -1.2000 -0.1195  0.6528
  669MOL0     H88245   4.925   8.419   3.617 -1.2904 -0.5146  0.9009
  669MOL0     H88246   4.926   8.592   3.558 -2.2258  0.4111 -0.4609
  669MOL0     H88247   4.767   8.644   3.741 -0.1642  0.1150 -1.1847
  669MOL0     H88248   4.761   8.472   3.788  3.3503 -0.7143  0.4777
  669MOL0     H88249   4.683   8.415   3.566  0.9391 -0.2205  1.0249
  669MOL0     H88250   4.678   8.585   3.513  0.3939  2.0961  1.9038
  669MOL0     H88251   4.534   8.464   3.771 -0.9161 -0.2043 -0.0045
  669MOL0     H88252   4.509   8.626   3.709  0.0887  0.9246 -1.3074
  669MOL0     H88253   4.315   8.460   3.658  1.8601 -0.9452  3.2475
  669MOL0     H88254   4.440   8.362   3.569  0.4192  1.3000 -1.4549
  669MOL0     H88255   4.467   8.530   3.403 -1.0505 -1.7143 -2.3095
  669MOL0     H88256   4.340   8.642   3.473 -0.6568 -0.9789  2.3901
  669MOL0     H88257   4.314   8.376   3.343  2.1911  1.0400 -1.6550
  669MOL0     H88258   4.189   8.453   3.447  1.7528 -4.9790  1.1582
  669MOL0     H88259   4.301   8.551   3.182 -2.2158 -0.4496 -3.1531
  669MOL0     H88260   4.188   8.637   3.293  1.2876 -0.2619  1.5187
  669MOL0     H88261   3.979   8.610   3.206 -1.8557  0.8546 -0.7314
  669MOL0     H88262   3.739   8.340   3.061 -1.0554  0.0170 -1.3160
  669MOL0     H88263   3.783   8.478   2.953  0.4124  1.2964  0.4553
  669MOL0     H88264   3.733   8.633   3.170 -0.5444 -0.2066  2.8340
  669MOL0     H88265   3.634   8.486   3.217  0.0272  2.0415  1.6406
  669MOL0     H88266   3.626   8.658   2.971  1.3213 -0.7999 -0.5499
  669MOL0     H88267   3.526   8.508   2.992  1.4030 -0.5849 -1.2950
  669MOL0     H88268   3.490   8.770   3.117  2.8095 -0.0652 -1.1186
  669MOL0     H88269   3.437   8.627   3.213 -0.3201  0.5387  0.2178
  669MOL0     H88270   3.116   8.674   2.901  1.0519 -0.0558 -0.4416
  669MOL0     H88271   2.944   8.817   2.934  0.5300 -1.8306 -2.0153
  669MOL0     H88272   2.746   9.004   3.434  0.0599 -1.2223 -1.1984
  669MOL0     H88273   2.523   9.099   3.507 -0.9047  1.0440 -0.0912
  669MOL0     H88274   2.266   9.379   3.276  0.7625 -1.5836 -0.5536
  669MOL0     H88275   2.398   9.482   3.353 -0.3303 -1.0308  0.2660
  669MOL0     H88276   2.177   9.550   3.461  0.8714 -0.7728 -3.9087
  669MOL0     H88277   2.298   9.486   3.572  2.3332 -0.5867 -0.1106
  669MOL0     H88278   2.095   9.384   3.643 -0.6022 -1.3374  0.5598
  669MOL0     H88279   2.193   9.261   3.558 -0.6043 -0.2746 -2.4383
  669MOL0     H88280   1.995   9.412   3.390  0.2954  1.6861  0.9738
  669MOL0     H88281   2.054   9.245   3.363  1.6323  0.4924  0.4433
  669MOL0     H88282   1.865   9.326   3.566 -0.4517  0.4963 -0.7923
  669MOL0     H88283   1.931   9.160   3.557  0.0366  0.4770  0.3373
  669MOL0     H88284   1.851   9.144   3.322 -0.9799 -0.1416 -0.2701
  669MOL0     H88285   1.797   9.303   3.317  1.1042 -1.9746 -2.2333
  669MOL0     H88286   1.605   9.128   3.385  0.8748  1.9216 -2.1345
  669MOL0     H88287   1.684   9.119   3.536  0.3591 -0.9558 -0.1997
  669MOL0     H88288   1.541   9.345   3.397  1.8121  1.0437  0.0317
  669MOL0     H88289   1.630   9.382   3.548 -1.6401  0.5526  1.9410
  669MOL0     H88290   2.541   9.375   3.186  1.5485  1.0496  0.7030
  669MOL0     H88291   2.768   9.306   3.124 -0.1678 -0.7044 -1.6418
  669MOL0     H88292   3.130   8.984   3.281  3.3930 -0.7479  0.0292
  669MOL0     H88293   3.343   8.871   3.219 -0.2300  1.0901  0.3081
  669MOL0     H88294   5.229   8.645   3.878 -0.3974  0.4157  0.1840
  669MOL0     H88295   5.445   8.667   3.804  1.2947  1.7519 -3.8742
  669MOL0     H88296   5.731   8.439   3.424  0.5607 -2.2264  0.7588
  669MOL0     H88297   5.948   8.436   3.333  0.0457 -0.1208  0.0730
  669MOL0     H88298   6.277   8.628   3.579  1.3871 -0.3679  0.6626
  669MOL0     H88299   6.343   8.583   3.424  0.0727 -0.0725  0.1926
  669MOL0     H88300   6.315   8.417   3.675  2.1740  1.9578  0.6133
  669MOL0     H88301   6.334   8.337   3.512  2.7868 -0.7922 -1.2199
  669MOL0     H88302   6.539   8.510   3.636 -1.7715  1.1837 -0.9272
  669MOL0     H88303   6.544   8.452   3.467  0.5118 -2.2992 -0.7816
  669MOL0     H88304   6.546   8.277   3.703 -3.0605 -0.7402 -1.5685
  669MOL0     H88305   6.546   8.228   3.525  0.7982 -0.2377 -0.7079
  669MOL0     H88306   6.941   8.304   3.623  0.3454 -0.1096  3.3377
  669MOL0     H88307   6.120   8.598   3.685 -0.1416  1.4563  0.2871
  669MOL0     H88308   5.894   8.585   3.799 -1.6718  1.5437 -1.5731
  670MOL0     O88309   2.981   7.896   5.662 -0.3821  0.1266 -0.7369
  670MOL0     C88310   2.974   8.005   5.716 -0.2776 -0.9783 -1.1758
  670MOL0     O88311   2.862   8.080   5.744 -0.5649 -0.5178 -0.0467
  670MOL0     C88312   2.743   8.022   5.723  0.2007  0.0298  0.2809
  670MOL0     C88313   2.683   7.930   5.811 -0.3613 -0.3839  0.2618
  670MOL0     C88314   2.557   7.885   5.790  0.2871  0.0099  0.2021
  670MOL0     C88315   2.476   7.931   5.687  0.0661  0.4376  0.0244
  670MOL0     O88316   2.348   7.880   5.667 -0.1043  0.1157 -0.2170
  670MOL0     C88317   2.258   7.934   5.566 -0.0342  0.2510  0.5341
  670MOL0     C88318   2.133   7.842   5.561 -0.5498  0.1217 -0.6962
  670MOL0     C88319   2.154   7.698   5.497  1.0292  0.4233 -0.0669
  670MOL0     C88320   2.202   7.706   5.350 -1.3064 -0.3532  0.3295
  670MOL0     C88321   2.226   7.572   5.281 -0.6517 -0.3565 -0.8649
  670MOL0     C88322   2.272   7.583   5.136 -0.5820 -0.6958 -0.6321
  670MOL0     C88323   2.165   7.646   5.047  0.4185  0.3209 -0.4010
  670MOL0     C88324   2.185   7.596   4.902 -0.5087  0.1716 -0.0408
  670MOL0     N88325   2.314   7.637   4.848 -0.3674 -0.8230 -0.2077
  670MOL0     C88326   2.346   7.764   4.804  0.8875  0.4983  0.2457
  670MOL0     C88327   2.475   7.768   4.770 -0.7345  0.8829  0.5229
  670MOL0     C88328   2.566   7.879   4.720  0.1889  0.0823 -0.2419
  670MOL0     C88329   2.649   7.935   4.829 -0.0317 -0.3916  0.3886
  670MOL0     C88330   2.767   7.841   4.856  0.3137  0.4348 -0.1127
  670MOL0     C88331   2.831   7.868   4.997  0.0895  0.6251  0.5705
  670MOL0     O88332   2.893   8.001   4.994 -0.7387 -0.2619  0.1656
  670MOL0     C88333   2.984   8.037   5.088  0.3074  0.7832  0.1543
  670MOL0     C88334   3.025   7.970   5.210 -0.2479  0.3959  0.4943
  670MOL0     C88335   3.138   8.023   5.283  0.4517  0.0550  0.2018
  670MOL0     C88336   3.198   8.145   5.252  0.2377 -1.2489  0.3323
  670MOL0     C88337   3.309   8.205   5.329 -0.8395 -0.6853 -0.0985
  670MOL0     O88338   3.347   8.344   5.309 -0.2509  0.0471  0.0665
  670MOL0     C88339   3.465   8.394   5.367  0.1523 -1.0148 -0.2992
  670MOL0     C88340   3.586   8.353   5.309 -0.0877  0.0520  0.7318
  670MOL0     C88341   3.706   8.382   5.372 -0.6320  0.8506  0.9763
  670MOL0     C88342   3.710   8.460   5.491  0.2565  0.7577  0.0347
  670MOL0     O88343   3.827   8.508   5.544  0.2429 -0.8077 -0.3237
  670MOL0     C88344   3.945   8.494   5.472 -0.7308 -0.1883 -0.0248
  670MOL0     C88345   4.050   8.572   5.549  0.5261 -0.2117 -0.2721
  670MOL0     C88346   4.016   8.716   5.568  0.0087  0.1979 -0.9567
  670MOL0     C88347   4.143   8.785   5.627 -0.3532  0.4080 -0.5557
  670MOL0     C88348   4.113   8.945   5.629  0.3283 -0.5753 -0.9777
  670MOL0     C88349   4.245   9.022   5.621 -0.0889  0.1059  0.6940
  670MOL0     C88350   4.219   9.163   5.652  0.3193 -0.5203 -0.4309
  670MOL0     C88351   4.339   9.247   5.623  0.2835 -0.1686  0.5987
  670MOL0    Cl88352   4.306   9.416   5.643 -0.0613  0.1405  0.0538
  670MOL0     C88353   3.593   8.503   5.542 -0.2850 -0.0514 -0.4513
  670MOL0     C88354   3.467   8.469   5.486  0.0179 -0.0407  0.0804
  670MOL0     O88355   3.386   8.118   5.383 -0.0954  0.2143  0.0852
  670MOL0     C88356   3.154   8.214   5.143  0.1141  0.1691 -1.1151
  670MOL0     C88357   3.056   8.152   5.061  0.1461 -0.3412  0.0403
  670MOL0     N88358   2.519   7.627   4.787 -0.7185  0.2874  0.6394
  670MOL0     N88359   2.427   7.562   4.854  0.4087 -0.7874 -0.0464
  670MOL0     C88360   2.535   8.022   5.590  0.0149  0.5354 -0.0203
  670MOL0     C88361   2.665   8.063   5.611 -0.6876  0.5524  0.4399
  670MOL0     C88362   3.101   8.062   5.755 -0.6020  0.2982  0.5516
  670MOL0     C88363   3.220   8.013   5.694  0.1056 -0.9058 -0.3080
  670MOL0     C88364   3.342   8.071   5.733  0.1540 -0.5566  0.6438
  670MOL0     C88365   3.351   8.164   5.841 -0.4757 -0.1114  0.9737
  670MOL0     O88366   3.474   8.202   5.880 -0.6102  0.5797 -0.3353
  670MOL0     C88367   3.601   8.159   5.818  0.3731 -0.2102 -0.2591
  670MOL0     C88368   3.702   8.237   5.901 -0.8860 -0.1363 -0.5568
  670MOL0     C88369   3.847   8.228   5.860  0.0996  0.3359  0.2040
  670MOL0     C88370   3.943   8.273   5.972  0.1638  0.1550 -0.0117
  670MOL0     C88371   4.067   8.328   5.906  0.0702  0.5259  0.2169
  670MOL0     C88372   4.165   8.383   5.843  0.1820  0.6493 -0.2864
  670MOL0     C88373   3.229   8.205   5.906  0.2772 -0.7384 -0.2744
  670MOL0     C88374   3.107   8.152   5.862 -0.2113 -0.5056 -0.2371
  670MOL0     H88375   2.733   7.893   5.901 -2.2887 -1.9260  0.7774
  670MOL0     H88376   2.502   7.820   5.856 -0.5041  1.3689  0.9234
  670MOL0     H88377   2.307   7.928   5.468 -0.9497  0.7052  0.0325
  670MOL0     H88378   2.240   8.042   5.569 -3.0038 -0.0468 -1.6222
  670MOL0     H88379   2.058   7.882   5.493 -1.5691 -2.2498 -1.0812
  670MOL0     H88380   2.104   7.824   5.665 -0.1024 -2.3069 -0.9198
  670MOL0     H88381   2.063   7.640   5.511  1.8376 -0.3000  2.9716
  670MOL0     H88382   2.227   7.645   5.559  1.4924 -1.1727 -1.8998
  670MOL0     H88383   2.133   7.773   5.298  1.0364  0.4652 -1.9096
  670MOL0     H88384   2.302   7.750   5.344 -0.1520 -2.6992  1.1874
  670MOL0     H88385   2.134   7.513   5.290 -2.8825  3.0630  1.2191
  670MOL0     H88386   2.304   7.514   5.332 -0.2654 -0.2208 -1.2969
  670MOL0     H88387   2.290   7.479   5.108  2.4029 -0.6854  0.8322
  670MOL0     H88388   2.364   7.642   5.123 -0.4123 -0.6018  0.7612
  670MOL0     H88389   2.067   7.610   5.079 -0.3839  0.0878 -2.8875
  670MOL0     H88390   2.174   7.755   5.053 -0.5883  0.4352 -0.8288
  670MOL0     H88391   2.103   7.621   4.835 -1.9950 -2.5803  0.5555
  670MOL0     H88392   2.192   7.486   4.902 -0.9449  0.0880 -2.6166
  670MOL0     H88393   2.284   7.853   4.801 -0.4932 -0.3306  2.1769
  670MOL0     H88394   2.491   7.955   4.695  0.9622  0.4439 -1.5444
  670MOL0     H88395   2.625   7.845   4.634  0.0541  1.7029 -1.0251
  670MOL0     H88396   2.588   7.964   4.915  0.3999 -0.8866  0.8740
  670MOL0     H88397   2.689   8.030   4.792  2.8816 -1.2157  1.1385
  670MOL0     H88398   2.741   7.735   4.855  0.7339  0.3255  0.0221
  670MOL0     H88399   2.851   7.853   4.787  0.6017 -0.8890 -0.0101
  670MOL0     H88400   2.897   7.787   5.027 -0.6672 -0.7651 -1.3233
  670MOL0     H88401   2.742   7.866   5.060 -0.7919  0.9918 -0.6200
  670MOL0     H88402   2.986   7.876   5.247 -2.5534  0.2532 -1.9533
  670MOL0     H88403   3.186   7.970   5.365  1.3270 -2.3220 -1.7389
  670MOL0     H88404   3.603   8.302   5.215  1.3475  1.3072  0.2569
  670MOL0     H88405   3.795   8.347   5.322 -1.5932 -0.0960 -0.1275
  670MOL0     H88406   3.932   8.542   5.375 -2.0189  0.4866  0.4487
  670MOL0     H88407   3.967   8.387   5.464 -2.1485 -0.4877 -0.2899
  670MOL0     H88408   4.149   8.562   5.503  0.8075  1.1497  0.0007
  670MOL0     H88409   4.065   8.528   5.648  1.3797  0.3354 -0.1452
  670MOL0     H88410   3.928   8.718   5.633  1.2004  1.4301  0.7135
  670MOL0     H88411   3.991   8.750   5.467  0.7377  2.9622 -0.2761
  670MOL0     H88412   4.185   8.741   5.719 -0.0503  1.4261 -0.1935
  670MOL0     H88413   4.228   8.772   5.559  2.1462 -0.0015  2.4136
  670MOL0     H88414   4.056   8.981   5.714 -1.0966  2.8091 -3.1801
  670MOL0     H88415   4.047   8.977   5.548  0.2588 -0.7686 -0.9983
  670MOL0     H88416   4.271   9.022   5.515  0.5051  0.3979  0.8345
  670MOL0     H88417   4.317   8.978   5.690  2.4110  0.2915 -1.6584
  670MOL0     H88418   4.135   9.197   5.590 -0.8391  0.5432  1.6103
  670MOL0     H88419   4.186   9.180   5.755  0.9180  2.2134 -0.6134
  670MOL0     H88420   4.355   9.236   5.515  2.0409  1.6570  0.6153
  670MOL0     H88421   4.424   9.217   5.684  0.2356 -0.5788  0.4670
  670MOL0     H88422   3.604   8.568   5.628 -0.4357 -0.1044 -0.3909
  670MOL0     H88423   3.372   8.487   5.536  1.2628  1.1420  2.1910
  670MOL0     H88424   3.195   8.310   5.112  0.8860 -0.3126 -1.6365
  670MOL0     H88425   3.050   8.201   4.964  1.9263  1.3526  0.6895
  670MOL0     H88426   2.470   8.074   5.520 -0.5797  0.1504  0.2358
  670MOL0     H88427   2.702   8.128   5.533  0.8586 -1.8347 -0.9334
  670MOL0     H88428   3.224   7.937   5.617 -1.3894 -1.3593  0.0131
  670MOL0     H88429   3.427   8.042   5.672 -1.4224 -1.9290 -1.0271
  670MOL0     H88430   3.606   8.202   5.717  0.7524  1.9234  0.6236
  670MOL0     H88431   3.618   8.051   5.813 -1.3859 -0.5654  0.6591
  670MOL0     H88432   3.669   8.341   5.903 -0.6782 -0.0328  2.7300
  670MOL0     H88433   3.696   8.203   6.004 -1.3014 -1.1209 -0.8954
  670MOL0     H88434   3.866   8.282   5.767  0.9425  0.9670  0.7325
  670MOL0     H88435   3.858   8.121   5.838 -0.5085  0.9633 -4.2329
  670MOL0     H88436   3.888   8.347   6.032 -1.4958 -0.3619 -0.8189
  670MOL0     H88437   3.964   8.195   6.046  1.6287  1.3941  0.9326
  670MOL0     H88438   4.238   8.425   5.778  2.0313 -1.2734  0.4182
  670MOL0     H88439   3.231   8.274   5.990  1.3829 -1.9862  0.7555
  670MOL0     H88440   3.015   8.190   5.906  0.2832  0.5316 -0.0717
  671MOL0     O88441   1.882   0.340   7.789 -0.1866  0.5890  0.3675
  671MOL0     C88442   1.837   0.224   7.811  0.5936  0.0966  0.7954
  671MOL0     O88443   1.715   0.175   7.794 -0.2558  0.0470 -0.2456
  671MOL0     C88444   1.630   0.257   7.729 -0.0667  0.0346  0.9381
  671MOL0     C88445   1.513   0.298   7.794 -0.3919 -1.5460 -0.6850
  671MOL0     C88446   1.415   0.384   7.727  0.2379  0.5628 -0.0591
  671MOL0     C88447   1.439   0.420   7.592  0.5396 -0.0173 -0.0456
  671MOL0     O88448   1.348   0.494   7.522  0.0575  0.0075 -0.4915
  671MOL0     C88449   1.282   0.420   7.421  0.2446  0.9998  0.0802
  671MOL0     C88450   1.202   0.530   7.358  0.3744 -0.6411  0.2992
  671MOL0     C88451   1.116   0.486   7.238  0.5062 -0.1291 -0.9016
  671MOL0     C88452   1.020   0.598   7.201 -0.0459  0.4284  0.4586
  671MOL0     C88453   0.897   0.603   7.291  0.3479  0.3482 -0.3466
  671MOL0     C88454   0.774   0.689   7.237  0.1486 -1.0814  0.6376
  671MOL0     C88455   0.798   0.841   7.215 -0.4661 -0.1784 -0.2430
  671MOL0     C88456   0.682   0.908   7.144  0.2562  0.5956  0.5604
  671MOL0     N88457   0.692   1.057   7.128  0.1353 -0.1577 -0.0636
  671MOL0     C88458   0.694   1.137   7.013 -0.3140  0.7296  0.0062
  671MOL0     C88459   0.718   1.258   7.063 -0.2845 -0.8840 -0.6124
  671MOL0     C88460   0.731   1.384   6.973 -0.0195  0.3426  0.1374
  671MOL0     C88461   0.872   1.444   6.981  0.1002  0.0357 -0.1923
  671MOL0     C88462   0.905   1.510   7.116 -0.1552  0.5321  0.4843
  671MOL0     C88463   1.033   1.595   7.097 -0.0317 -0.1860  0.6484
  671MOL0     O88464   1.114   1.556   6.984  0.0798  0.2854 -0.2784
  671MOL0     C88465   1.244   1.583   6.975  0.6692 -0.8797 -0.9534
  671MOL0     C88466   1.303   1.559   6.857 -0.7127  0.3991  0.6346
  671MOL0     C88467   1.432   1.592   6.828  0.0707 -0.5280  0.3552
  671MOL0     C88468   1.519   1.644   6.926 -0.3822  0.8595 -0.7873
  671MOL0     C88469   1.669   1.643   6.912  0.2801  1.1436 -0.7511
  671MOL0     O88470   1.745   1.742   6.981  0.2651  0.3426 -0.2119
  671MOL0     C88471   1.884   1.740   6.972 -0.1418 -0.4057 -0.4249
  671MOL0     C88472   1.955   1.756   6.845  0.4916 -0.6136  0.0703
  671MOL0     C88473   2.090   1.737   6.842 -0.4446  0.5404 -0.1685
  671MOL0     C88474   2.168   1.707   6.953  0.0832 -0.4695 -0.7377
  671MOL0     O88475   2.306   1.680   6.956  0.2281  0.0427  0.0771
  671MOL0     C88476   2.374   1.710   6.837 -0.1093  0.1974  0.1399
  671MOL0     C88477   2.526   1.694   6.855  0.1535 -0.7158 -0.4902
  671MOL0     C88478   2.571   1.781   6.972  0.1670 -0.6113 -0.2595
  671MOL0     C88479   2.729   1.787   6.981 -0.1049 -0.6115 -0.3890
  671MOL0     C88480   2.785   1.667   7.051 -0.4404  0.2873 -0.1642
  671MOL0     C88481   2.937   1.684   7.098  0.4042 -0.1737  0.4865
  671MOL0     C88482   2.963   1.575   7.203  0.0669 -0.5628  0.2014
  671MOL0     C88483   3.099   1.569   7.273 -0.6782 -0.2716  0.2094
  671MOL0    Cl88484   3.120   1.427   7.377  0.0082  0.1005 -0.4504
  671MOL0     C88485   2.099   1.702   7.080 -0.6804  0.2804 -0.0964
  671MOL0     C88486   1.962   1.713   7.094  0.3210 -0.5170 -0.1165
  671MOL0     O88487   1.719   1.558   6.840 -0.5341 -0.0461 -0.2883
  671MOL0     C88488   1.455   1.674   7.048  0.4093 -0.2413  0.5232
  671MOL0     C88489   1.312   1.650   7.068 -0.0207 -1.0383 -0.3965
  671MOL0     N88490   0.710   1.253   7.199  0.5168  1.7104 -0.2594
  671MOL0     N88491   0.706   1.129   7.245 -0.2997 -0.0403 -0.0070
  671MOL0     C88492   1.560   0.376   7.535  0.0369 -0.8461 -0.0840
  671MOL0     C88493   1.657   0.298   7.601  0.5145  0.2525 -0.2824
  671MOL0     C88494   1.927   0.131   7.886  0.2022 -0.4695  0.9237
  671MOL0     C88495   2.061   0.168   7.910  0.7690  0.1177  0.3748
  671MOL0     C88496   2.154   0.073   7.958 -0.0474 -0.4232  0.6978
  671MOL0     C88497   2.112  -0.055   8.000 -0.6738  0.8218 -1.1889
  671MOL0     O88498   2.198  -0.149   8.053  0.3321  0.3411 -0.2446
  671MOL0     C88499   2.338  -0.133   8.052 -0.1199 -0.1458  0.3548
  671MOL0     C88500   2.412  -0.268   8.038  0.4568 -0.4441  0.3024
  671MOL0     C88501   2.556  -0.267   8.086 -0.1606  1.1787  0.2175
  671MOL0     C88502   2.658  -0.297   7.976  0.4295 -0.9394  0.4550
  671MOL0     C88503   2.747  -0.408   8.008 -0.7053 -0.4124 -1.0139
  671MOL0     C88504   2.815  -0.507   8.014 -0.8060  0.1163  0.6686
  671MOL0     C88505   1.982  -0.092   7.985  0.3289 -0.2616  0.3646
  671MOL0     C88506   1.893   0.002   7.924 -0.4896  0.0025  1.0826
  671MOL0     H88507   1.505   0.262   7.897  1.2734  0.5769  0.2484
  671MOL0     H88508   1.330   0.422   7.783 -0.6335 -1.3870  0.0274
  671MOL0     H88509   1.205   0.352   7.459 -0.3496  1.5473 -0.1317
  671MOL0     H88510   1.350   0.378   7.346 -1.3794  0.0166 -0.8979
  671MOL0     H88511   1.267   0.611   7.324 -1.9068  1.9722  1.7890
  671MOL0     H88512   1.135   0.577   7.430 -1.7155  2.4174 -3.3159
  671MOL0     H88513   1.049   0.405   7.269  1.6175 -0.1571  1.6680
  671MOL0     H88514   1.191   0.462   7.163  1.7586  1.7920 -0.3346
  671MOL0     H88515   1.069   0.695   7.207 -0.1368  0.3874  2.7556
  671MOL0     H88516   0.984   0.578   7.100  0.5781  1.8192 -0.0611
  671MOL0     H88517   0.923   0.639   7.390 -0.2758 -2.0712  0.7782
  671MOL0     H88518   0.873   0.497   7.306  2.9939 -0.8481 -3.3227
  671MOL0     H88519   0.688   0.676   7.303  0.5727 -0.5777  1.2970
  671MOL0     H88520   0.736   0.653   7.141 -2.0860  2.7918 -0.1295
  671MOL0     H88521   0.822   0.875   7.316  0.7967 -2.3883  0.2647
  671MOL0     H88522   0.889   0.857   7.156 -0.3566  0.7847  0.1720
  671MOL0     H88523   0.584   0.884   7.186 -1.6770 -2.0055 -4.5450
  671MOL0     H88524   0.671   0.861   7.046 -1.1923  1.3148  0.3488
  671MOL0     H88525   0.683   1.103   6.910  1.6090 -1.1759  0.3608
  671MOL0     H88526   0.661   1.455   7.018  0.7273 -0.5783  2.9151
  671MOL0     H88527   0.708   1.361   6.868  0.7797  0.8849 -0.1688
  671MOL0     H88528   0.884   1.512   6.896  1.5310 -1.2579 -1.0762
  671MOL0     H88529   0.947   1.365   6.967  1.8019  1.0784  2.2728
  671MOL0     H88530   0.815   1.565   7.145 -0.6552 -1.0727  2.0943
  671MOL0     H88531   0.924   1.435   7.193  3.2819 -1.0647 -1.6238
  671MOL0     H88532   1.096   1.595   7.187  1.0845 -1.7526 -0.1015
  671MOL0     H88533   0.995   1.697   7.083 -0.1615 -0.3054  0.1167
  671MOL0     H88534   1.242   1.510   6.781 -1.1722 -0.5791  1.6013
  671MOL0     H88535   1.482   1.558   6.738 -1.0462 -1.2941  0.0087
  671MOL0     H88536   1.892   1.779   6.760 -0.6441  1.0876  1.2942
  671MOL0     H88537   2.131   1.759   6.744 -0.9500  0.5647 -0.3775
  671MOL0     H88538   2.344   1.811   6.809 -1.6052 -0.3067 -0.1968
  671MOL0     H88539   2.351   1.636   6.759  1.8853 -0.9058  0.5224
  671MOL0     H88540   2.581   1.726   6.766  1.2037  0.7049  0.6261
  671MOL0     H88541   2.554   1.592   6.882  0.7108 -0.6916 -0.9655
  671MOL0     H88542   2.544   1.742   7.071  2.4499  2.2111  1.6437
  671MOL0     H88543   2.528   1.879   6.950 -3.5243 -1.9996  0.0400
  671MOL0     H88544   2.764   1.801   6.878 -1.9560 -0.1938 -0.9947
  671MOL0     H88545   2.767   1.875   7.034 -0.0478 -1.2958  0.7341
  671MOL0     H88546   2.789   1.579   6.986  2.2335 -1.4807  2.1536
  671MOL0     H88547   2.728   1.646   7.141 -0.0122 -2.3143 -0.4091
  671MOL0     H88548   2.944   1.784   7.142 -0.4148  0.6370 -1.1444
  671MOL0     H88549   3.003   1.674   7.012  0.3682 -0.2632  0.4692
  671MOL0     H88550   2.892   1.597   7.284  2.0765  3.8615  1.0607
  671MOL0     H88551   2.950   1.474   7.164 -0.6562 -0.9732  1.4228
  671MOL0     H88552   3.105   1.657   7.337  3.5664  1.0207 -1.6305
  671MOL0     H88553   3.184   1.571   7.204  0.2309 -0.4354  1.3067
  671MOL0     H88554   2.164   1.678   7.164  3.1216 -4.6916 -3.8591
  671MOL0     H88555   1.913   1.693   7.189  0.2128 -0.6062 -0.1914
  671MOL0     H88556   1.506   1.718   7.133 -1.9561  1.5707  1.1163
  671MOL0     H88557   1.272   1.675   7.165 -0.2856  3.0125 -1.3810
  671MOL0     H88558   1.562   0.405   7.430 -1.7361 -1.9345 -0.4515
  671MOL0     H88559   1.745   0.260   7.550  1.4980 -0.4858  1.8808
  671MOL0     H88560   2.107   0.263   7.885  1.0630  0.3364  1.6796
  671MOL0     H88561   2.249   0.112   7.992 -0.6749  0.4481  1.5382
  671MOL0     H88562   2.367  -0.083   8.145  1.0221 -2.1885  1.1517
  671MOL0     H88563   2.376  -0.071   7.970  1.6224  1.3400  2.1754
  671MOL0     H88564   2.355  -0.336   8.102  1.0847 -4.6008 -3.0719
  671MOL0     H88565   2.394  -0.319   7.943 -1.0378 -1.6372  1.1855
  671MOL0     H88566   2.566  -0.343   8.165  1.4624  0.7035 -0.4207
  671MOL0     H88567   2.591  -0.171   8.124  0.8038  1.2147 -0.7195
  671MOL0     H88568   2.615  -0.311   7.877  0.0209  3.8065 -0.2730
  671MOL0     H88569   2.718  -0.207   7.962 -2.3279  0.8510 -0.7357
  671MOL0     H88570   2.884  -0.588   8.029 -0.9531 -0.6186 -2.1837
  671MOL0     H88571   1.951  -0.195   8.002 -0.4201  0.0643  1.0328
  671MOL0     H88572   1.788  -0.022   7.913 -0.2942  0.0377 -1.5374
  672MOL0     O88573   7.561   6.312   0.631  0.1084 -0.4206 -0.4881
  672MOL0     C88574   7.484   6.237   0.577 -1.5209  0.1991 -0.0578
  672MOL0     O88575   7.354   6.262   0.541 -0.1956 -0.7721  0.0312
  672MOL0     C88576   7.287   6.381   0.557 -0.0321 -0.2060 -0.6670
  672MOL0     C88577   7.340   6.506   0.603  0.7422 -0.1188  0.0372
  672MOL0     C88578   7.251   6.610   0.635  0.1075  1.1802 -0.2662
  672MOL0     C88579   7.119   6.598   0.613 -0.0174  0.6459 -0.0679
  672MOL0     O88580   7.022   6.690   0.635 -0.6094  0.4516  0.0058
  672MOL0     C88581   7.027   6.810   0.562 -0.2285 -0.1304 -0.5016
  672MOL0     C88582   6.906   6.898   0.599  0.2760 -0.4001  0.5808
  672MOL0     C88583   6.775   6.813   0.614  0.1289  0.7952  0.6124
  672MOL0     C88584   6.658   6.904   0.603 -0.6437 -0.0089 -0.1080
  672MOL0     C88585   6.529   6.823   0.590  0.9949 -0.9051 -0.5159
  672MOL0     C88586   6.407   6.916   0.613  1.1467 -0.9027 -0.2403
  672MOL0     C88587   6.273   6.855   0.572 -0.0058  0.6468  0.5053
  672MOL0     C88588   6.175   6.962   0.546 -0.8290 -0.3600 -0.2433
  672MOL0     N88589   6.045   6.900   0.505  1.1471  0.1275  0.2401
  672MOL0     C88590   6.015   6.836   0.386  0.0444 -0.0745  0.0815
  672MOL0     C88591   5.884   6.792   0.400  0.3379  0.1041  0.5681
  672MOL0     C88592   5.805   6.716   0.296 -0.6295 -0.0013 -0.7254
  672MOL0     C88593   5.668   6.781   0.283  0.1082  0.3616 -0.2057
  672MOL0     C88594   5.592   6.703   0.176  0.9420  0.5464  0.0488
  672MOL0     C88595   5.458   6.767   0.149 -0.2876  0.4124 -0.1267
  672MOL0     O88596   5.351   6.669   0.141  0.5593 -0.5097  0.1474
  672MOL0     C88597   5.222   6.716   0.110 -0.4614  0.8213 -0.4683
  672MOL0     C88598   5.139   6.611   0.094  0.0734  0.1212  0.7693
  672MOL0     C88599   5.006   6.645   0.063  0.3743  0.6589 -0.0752
  672MOL0     C88600   4.958   6.775   0.052 -0.4726 -0.1434  0.8681
  672MOL0     C88601   4.817   6.813   0.016  0.5907 -0.0667  0.3578
  672MOL0     O88602   4.761   6.729  -0.074  0.5146  0.7069 -0.6235
  672MOL0     C88603   4.632   6.750  -0.094  0.4323  0.9227  0.3667
  672MOL0     C88604   4.546   6.645  -0.065 -0.0458 -0.5552 -0.4157
  672MOL0     C88605   4.413   6.655  -0.107 -0.3645 -0.1247 -0.2123
  672MOL0     C88606   4.359   6.773  -0.166 -0.1500  0.4208  0.4089
  672MOL0     O88607   4.227   6.774  -0.187  0.3278 -0.1571 -0.0648
  672MOL0     C88608   4.160   6.890  -0.233  0.1843 -0.4653 -0.9144
  672MOL0     C88609   4.020   6.843  -0.277  0.2219  0.1268 -0.0562
  672MOL0     C88610   4.021   6.746  -0.395 -0.4291  0.4659 -0.1643
  672MOL0     C88611   3.893   6.752  -0.492 -0.1803  0.2964 -0.0122
  672MOL0     C88612   3.870   6.614  -0.543 -0.0940  0.3067 -0.3997
  672MOL0     C88613   3.743   6.610  -0.634  0.4405  0.7058  0.1365
  672MOL0     C88614   3.735   6.491  -0.741  0.4062 -0.3754 -0.9760
  672MOL0     C88615   3.605   6.499  -0.813 -0.1163 -0.1231  1.0432
  672MOL0    Cl88616   3.470   6.448  -0.714 -0.1894  0.2078 -0.0008
  672MOL0     C88617   4.445   6.876  -0.196  0.1337 -0.2468  0.1276
  672MOL0     C88618   4.575   6.865  -0.158  0.0927  0.4674 -0.1426
  672MOL0     O88619   4.771   6.920   0.055 -0.1962  0.0454 -0.5494
  672MOL0     C88620   5.052   6.876   0.072 -0.8331  0.3003  1.1102
  672MOL0     C88621   5.187   6.846   0.097  0.4086  1.5562 -0.0672
  672MOL0     N88622   5.841   6.834   0.527 -0.5092 -0.3345  0.7039
  672MOL0     N88623   5.939   6.894   0.589  0.3544  0.0346 -0.0708
  672MOL0     C88624   7.063   6.477   0.581  0.2281  0.8164 -1.0136
  672MOL0     C88625   7.144   6.367   0.549 -0.7807 -0.3158 -0.1382
  672MOL0     C88626   7.557   6.118   0.521 -0.2448  0.0284  0.5299
  672MOL0     C88627   7.485   6.050   0.415  0.3976 -0.0191  0.1018
  672MOL0     C88628   7.531   5.937   0.353  0.1463 -0.7923 -0.0128
  672MOL0     C88629   7.660   5.884   0.379 -0.2825  0.6112 -0.8702
  672MOL0     O88630   7.727   5.785   0.308  0.8946 -0.6414 -0.2824
  672MOL0     C88631   7.645   5.689   0.244 -0.3201  0.4317  0.6544
  672MOL0     C88632   7.589   5.592   0.348  0.7571  0.1507  0.3143
  672MOL0     C88633   7.542   5.469   0.275 -0.3916 -0.1545  0.4870
  672MOL0     C88634   7.525   5.344   0.365  0.7881  0.4219  1.0107
  672MOL0     C88635   7.432   5.249   0.296  0.7415  0.1127  0.0506
  672MOL0     C88636   7.365   5.171   0.238  0.2119  0.5844  0.8177
  672MOL0     C88637   7.730   5.946   0.484 -0.2248  0.1229 -0.3345
  672MOL0     C88638   7.685   6.069   0.554 -0.2443  0.2202  0.4443
  672MOL0     H88639   7.442   6.531   0.631  0.7631  0.2253 -0.3429
  672MOL0     H88640   7.301   6.698   0.674  3.0180 -0.9992  1.3256
  672MOL0     H88641   7.024   6.785   0.455 -0.2458  2.3272 -1.1468
  672MOL0     H88642   7.114   6.873   0.581 -1.5670  2.0941 -1.2868
  672MOL0     H88643   6.897   6.974   0.522  2.8427 -0.3243  0.2883
  672MOL0     H88644   6.912   6.946   0.697 -1.0917 -0.6224  0.7971
  672MOL0     H88645   6.765   6.759   0.708 -2.4922  1.2181  0.6515
  672MOL0     H88646   6.769   6.738   0.535  0.3344  0.1977  1.1645
  672MOL0     H88647   6.665   6.957   0.698  1.9382 -0.4447  0.0211
  672MOL0     H88648   6.669   6.975   0.520  1.6684 -1.9580 -1.6235
  672MOL0     H88649   6.518   6.727   0.641 -1.5734 -1.5322 -2.0406
  672MOL0     H88650   6.529   6.807   0.482  0.6480 -0.5885 -0.5655
  672MOL0     H88651   6.424   7.004   0.551 -1.1822 -1.3246 -1.5894
  672MOL0     H88652   6.397   6.950   0.716  5.4503  0.2788 -0.0003
  672MOL0     H88653   6.286   6.801   0.478  0.9884 -0.2504  1.1339
  672MOL0     H88654   6.236   6.791   0.652 -2.8530  2.5023  0.8076
  672MOL0     H88655   6.215   7.029   0.469 -2.4485  1.1632  0.1799
  672MOL0     H88656   6.177   7.016   0.641  4.4600  0.1984 -0.3718
  672MOL0     H88657   6.087   6.833   0.305  2.6255  0.4725  2.2164
  672MOL0     H88658   5.796   6.611   0.325 -2.1835 -0.2571 -2.0118
  672MOL0     H88659   5.856   6.719   0.200  0.9401  0.4858  0.0923
  672MOL0     H88660   5.675   6.888   0.265  0.8825  0.5342  0.9866
  672MOL0     H88661   5.620   6.777   0.381  1.1252 -0.2306  0.2890
  672MOL0     H88662   5.655   6.688   0.088  0.6652 -0.3123 -0.0076
  672MOL0     H88663   5.576   6.601   0.212 -1.0957  0.4516 -1.0109
  672MOL0     H88664   5.464   6.822   0.054  2.2397 -1.6566 -1.2822
  672MOL0     H88665   5.439   6.843   0.226  0.2994 -0.4193  0.8575
  672MOL0     H88666   5.187   6.514   0.090  1.2341  0.6405  1.3875
  672MOL0     H88667   4.932   6.565   0.071  2.2190 -1.0981  0.1444
  672MOL0     H88668   4.580   6.550  -0.025  0.3980 -0.0678  0.3981
  672MOL0     H88669   4.339   6.590  -0.062 -2.4134  3.2287  1.6964
  672MOL0     H88670   4.202   6.940  -0.321 -0.8484  0.0224 -1.1483
  672MOL0     H88671   4.150   6.958  -0.148  1.4108 -2.8719  1.3111
  672MOL0     H88672   3.958   6.929  -0.305 -1.6969 -1.5609 -1.2808
  672MOL0     H88673   3.969   6.786  -0.199  2.6224  0.7585  2.0902
  672MOL0     H88674   4.032   6.643  -0.361 -1.4229  0.4959  0.2944
  672MOL0     H88675   4.114   6.759  -0.450  0.5180  1.1352  1.5023
  672MOL0     H88676   3.806   6.802  -0.447  0.0152  0.1815  0.5034
  672MOL0     H88677   3.916   6.821  -0.573  1.5977  0.5509  0.6582
  672MOL0     H88678   3.856   6.535  -0.469 -0.2982 -0.9706 -1.7298
  672MOL0     H88679   3.958   6.580  -0.600 -1.0594 -0.3875 -1.5194
  672MOL0     H88680   3.722   6.704  -0.685 -1.2381  0.2610 -0.0524
  672MOL0     H88681   3.653   6.598  -0.573 -0.8030  0.1521 -1.7151
  672MOL0     H88682   3.807   6.506  -0.822 -0.0740  2.2352 -1.0153
  672MOL0     H88683   3.755   6.392  -0.700 -2.7765  0.4966  3.4376
  672MOL0     H88684   3.618   6.429  -0.896 -0.2147  0.8527  0.1915
  672MOL0     H88685   3.587   6.594  -0.865 -0.9302 -1.1673 -0.6786
  672MOL0     H88686   4.417   6.963  -0.255  0.6102 -1.5748 -2.1871
  672MOL0     H88687   4.634   6.945  -0.203 -2.4823  2.3297 -0.3927
  672MOL0     H88688   5.038   6.981   0.049 -1.5461 -0.3235 -1.6662
  672MOL0     H88689   5.260   6.923   0.116  1.1710  1.3552 -2.0148
  672MOL0     H88690   6.955   6.467   0.570 -0.2287 -1.0629  3.2445
  672MOL0     H88691   7.108   6.268   0.523  1.5397 -1.7633  1.6679
  672MOL0     H88692   7.383   6.084   0.402 -0.5221 -1.4099  2.9178
  672MOL0     H88693   7.454   5.885   0.296 -1.0468  0.7423  0.1240
  672MOL0     H88694   7.715   5.648   0.171 -1.9133  1.1637 -1.3906
  672MOL0     H88695   7.567   5.730   0.179  0.1358 -0.1738 -0.2971
  672MOL0     H88696   7.674   5.563   0.410 -1.0575 -2.8813  1.6146
  672MOL0     H88697   7.513   5.646   0.406 -0.8338 -1.6694  0.0410
  672MOL0     H88698   7.611   5.437   0.197  0.3488 -0.4897  1.2666
  672MOL0     H88699   7.439   5.484   0.240 -0.9510 -1.2622  1.5690
  672MOL0     H88700   7.622   5.295   0.376 -0.4287 -2.5201 -0.3456
  672MOL0     H88701   7.474   5.366   0.459 -2.4492 -1.4492 -0.1307
  672MOL0     H88702   7.295   5.106   0.191  0.6963  0.4245  0.3204
  672MOL0     H88703   7.824   5.905   0.520 -1.9237 -1.6915  2.3042
  672MOL0     H88704   7.757   6.120   0.617 -0.7533  0.9470  0.4401
  673MOL0     O88705   8.470   0.958   2.411  0.2331 -0.2340  0.5086
  673MOL0     C88706   8.530   0.858   2.435 -0.6932  0.1586  0.2998
  673MOL0     O88707   8.503   0.735   2.380 -0.0659  0.2448  0.4655
  673MOL0     C88708   8.390   0.722   2.308 -0.5192 -0.2137 -0.7270
  673MOL0     C88709   8.267   0.742   2.367 -0.2334  0.0522 -0.7256
  673MOL0     C88710   8.151   0.704   2.302 -0.0049 -0.5003  0.5712
  673MOL0     C88711   8.153   0.653   2.169 -0.1835  0.4776  0.3064
  673MOL0     O88712   8.041   0.621   2.102  0.9366 -0.0197  1.0502
  673MOL0     C88713   8.004   0.489   2.125  0.4504 -0.3462  0.2210
  673MOL0     C88714   7.875   0.450   2.057  0.4009  0.3045  0.2958
  673MOL0     C88715   7.771   0.552   2.110  0.3002  0.4569 -1.2084
  673MOL0     C88716   7.625   0.519   2.072  0.9595 -0.3513  0.4289
  673MOL0     C88717   7.531   0.615   2.144  0.1976  0.1336  0.1464
  673MOL0     C88718   7.386   0.591   2.103 -0.4246  0.3335 -0.7073
  673MOL0     C88719   7.304   0.701   2.172  0.8013  0.4085  0.2076
  673MOL0     C88720   7.152   0.678   2.182 -0.4758 -0.2700  0.5350
  673MOL0     N88721   7.077   0.803   2.228 -0.7403 -0.2821 -0.5778
  673MOL0     C88722   7.104   0.844   2.359  0.5431 -0.1905 -0.0758
  673MOL0     C88723   7.002   0.933   2.383 -0.0746 -0.5906 -0.6023
  673MOL0     C88724   6.973   1.013   2.505 -0.6027 -0.1537 -0.5932
  673MOL0     C88725   6.827   1.052   2.517 -0.1207 -0.7371  0.4392
  673MOL0     C88726   6.801   1.131   2.638 -0.3087 -0.5523  0.0687
  673MOL0     C88727   6.660   1.188   2.655  0.5238  0.6118 -0.0824
  673MOL0     O88728   6.557   1.087   2.639 -0.3840  0.3491 -0.1117
  673MOL0     C88729   6.422   1.125   2.613  0.1432 -0.2436 -0.0678
  673MOL0     C88730   6.328   1.028   2.638 -0.4006  0.2738  0.7784
  673MOL0     C88731   6.192   1.053   2.601 -0.5612  0.2293 -0.6100
  673MOL0     C88732   6.150   1.177   2.551 -0.0334 -0.2412  0.0814
  673MOL0     C88733   6.005   1.205   2.532  0.5630  1.2748  0.0059
  673MOL0     O88734   5.924   1.115   2.584  0.2885  0.2340 -1.2079
  673MOL0     C88735   5.784   1.130   2.572  0.5748  0.3868 -0.1646
  673MOL0     C88736   5.704   1.230   2.637  0.0375 -0.8715 -0.5623
  673MOL0     C88737   5.576   1.253   2.607 -1.0249 -0.6002  0.5102
  673MOL0     C88738   5.516   1.173   2.509 -0.1915  0.5578  0.4520
  673MOL0     O88739   5.379   1.174   2.483 -0.0801 -0.4628  0.2302
  673MOL0     C88740   5.331   1.269   2.381 -0.4426  0.0296  0.3642
  673MOL0     C88741   5.312   1.410   2.438  0.5374  0.2609  0.4803
  673MOL0     C88742   5.227   1.504   2.361  1.0373  0.8823 -0.0792
  673MOL0     C88743   5.074   1.448   2.347 -0.0130 -0.0662 -0.0519
  673MOL0     C88744   4.984   1.557   2.293  0.1518  0.4146 -0.2668
  673MOL0     C88745   4.839   1.514   2.254 -0.4957 -0.5806 -0.0422
  673MOL0     C88746   4.745   1.481   2.379 -0.3534  0.2263  0.8452
  673MOL0     C88747   4.604   1.442   2.329  0.8278 -0.0621 -0.0617
  673MOL0    Cl88748   4.530   1.589   2.242 -0.3825  0.6830 -0.6774
  673MOL0     C88749   5.590   1.073   2.449 -1.0250 -0.3409 -0.0477
  673MOL0     C88750   5.714   1.043   2.486  0.8231 -0.4590 -0.0623
  673MOL0     O88751   5.971   1.296   2.465  0.2386 -0.5548 -0.1849
  673MOL0     C88752   6.246   1.280   2.530 -0.3087 -0.2928  0.2224
  673MOL0     C88753   6.378   1.250   2.563 -0.4196  0.2891  0.6421
  673MOL0     N88754   6.921   0.938   2.263 -0.3016  0.1327 -0.3511
  673MOL0     N88755   6.969   0.851   2.180 -0.2331  0.4427 -0.5305
  673MOL0     C88756   8.279   0.657   2.103 -0.3814 -0.6207 -0.6427
  673MOL0     C88757   8.395   0.689   2.173 -0.0745  0.3933 -0.6709
  673MOL0     C88758   8.651   0.857   2.525  0.4840 -0.3080  0.0253
  673MOL0     C88759   8.670   0.969   2.613  0.4623 -0.3586 -0.4017
  673MOL0     C88760   8.804   0.985   2.666  0.1284 -0.2004  0.8390
  673MOL0     C88761   8.910   0.897   2.637  0.7520 -1.1496 -0.3579
  673MOL0     O88762   9.029   0.928   2.699 -0.7143 -0.4110  0.6117
  673MOL0     C88763   9.134   0.826   2.703 -0.4822  0.1199  0.3251
  673MOL0     C88764   9.121   0.736   2.826  0.4166  0.6628 -0.1283
  673MOL0     C88765   9.227   0.621   2.838 -0.4768 -0.9942  0.3317
  673MOL0     C88766   9.364   0.672   2.881 -0.9026 -0.4753 -0.7557
  673MOL0     C88767   9.458   0.558   2.882 -1.0131 -0.3971 -1.0017
  673MOL0     C88768   9.525   0.455   2.869 -0.3063 -0.6908 -0.0226
  673MOL0     C88769   8.879   0.778   2.568 -0.2371 -0.7985 -0.2900
  673MOL0     C88770   8.748   0.752   2.515 -0.4114 -0.3048  0.0675
  673MOL0     H88771   8.257   0.778   2.469  2.9752  2.4320 -1.1038
  673MOL0     H88772   8.052   0.726   2.342 -0.7835 -2.7956  0.0529
  673MOL0     H88773   7.975   0.473   2.230 -3.1970 -0.8992 -0.7298
  673MOL0     H88774   8.093   0.432   2.094  0.5381  0.8176 -1.8169
  673MOL0     H88775   7.840   0.351   2.088  0.0487  0.1332 -0.6233
  673MOL0     H88776   7.875   0.448   1.947 -0.9618 -0.5680  0.2961
  673MOL0     H88777   7.789   0.655   2.076  3.2197  0.6487  0.5169
  673MOL0     H88778   7.771   0.534   2.218 -0.1920 -2.2543 -1.6048
  673MOL0     H88779   7.614   0.518   1.963  1.9601 -0.3406  0.3196
  673MOL0     H88780   7.597   0.416   2.096  3.0662 -1.1997 -0.5253
  673MOL0     H88781   7.557   0.718   2.120  1.2381 -0.7798 -3.1710
  673MOL0     H88782   7.548   0.601   2.251  1.0430  2.1828  0.3092
  673MOL0     H88783   7.354   0.494   2.140 -0.6091  0.4626 -0.5292
  673MOL0     H88784   7.374   0.596   1.994 -1.3266 -2.9597 -0.8630
  673MOL0     H88785   7.329   0.722   2.277 -0.0062 -0.8731  0.6874
  673MOL0     H88786   7.317   0.791   2.112  1.3232 -0.4943 -1.0778
  673MOL0     H88787   7.144   0.595   2.253 -1.1076 -0.4850  0.2228
  673MOL0     H88788   7.132   0.639   2.082  3.2932 -2.5388  0.4975
  673MOL0     H88789   7.178   0.799   2.425  0.6274 -2.3007 -1.5187
  673MOL0     H88790   7.047   1.094   2.511  0.8406 -1.5040  0.9836
  673MOL0     H88791   6.995   0.960   2.598 -1.0939  1.6859  0.6390
  673MOL0     H88792   6.759   0.967   2.520  1.1574 -1.9121 -1.4934
  673MOL0     H88793   6.798   1.111   2.429 -2.1679  0.3590  1.7637
  673MOL0     H88794   6.832   1.064   2.719  1.2177  0.9387  0.7830
  673MOL0     H88795   6.882   1.204   2.636  0.3883 -1.3334 -1.3007
  673MOL0     H88796   6.646   1.263   2.576  0.6001 -1.5004 -2.2287
  673MOL0     H88797   6.656   1.237   2.752 -1.3707 -0.3441  0.3535
  673MOL0     H88798   6.362   0.931   2.673 -0.1773 -0.6971 -1.9107
  673MOL0     H88799   6.127   0.966   2.603 -0.7335  0.3789  1.1373
  673MOL0     H88800   5.739   1.297   2.715  0.4790  1.2846 -2.5158
  673MOL0     H88801   5.541   1.336   2.667  0.7625 -0.5011  1.4672
  673MOL0     H88802   5.229   1.242   2.355 -0.5113 -0.1305  0.7839
  673MOL0     H88803   5.403   1.274   2.299  2.2041 -0.9204  2.4411
  673MOL0     H88804   5.412   1.453   2.451  0.3582  0.9346 -0.2952
  673MOL0     H88805   5.271   1.392   2.538  1.0614 -1.9409  0.3497
  673MOL0     H88806   5.264   1.515   2.259 -1.9445 -0.8839 -1.4951
  673MOL0     H88807   5.226   1.601   2.411  0.1873  0.6514  0.3676
  673MOL0     H88808   5.064   1.351   2.297  1.3516  0.7964 -2.1183
  673MOL0     H88809   5.035   1.436   2.448 -0.3054  3.2456  0.3289
  673MOL0     H88810   5.037   1.588   2.202  0.0069 -3.0883 -1.7110
  673MOL0     H88811   4.978   1.638   2.366  1.2606 -0.3467  0.6990
  673MOL0     H88812   4.850   1.420   2.200  1.6034 -0.3519 -0.0867
  673MOL0     H88813   4.801   1.600   2.197  3.1456  0.7583 -0.7391
  673MOL0     H88814   4.782   1.394   2.434 -0.0792  0.1084  0.4758
  673MOL0     H88815   4.727   1.565   2.447 -3.6569  0.0188  0.4243
  673MOL0     H88816   4.536   1.409   2.409 -0.1026  0.1709 -0.7442
  673MOL0     H88817   4.613   1.355   2.262 -1.8255 -1.5468  1.3194
  673MOL0     H88818   5.534   1.016   2.375 -0.2474  0.0088 -0.9243
  673MOL0     H88819   5.759   0.956   2.440 -1.1342 -2.4502  1.5597
  673MOL0     H88820   6.218   1.382   2.505  0.3342 -0.3791 -0.9182
  673MOL0     H88821   6.455   1.322   2.535  3.1050 -1.9962  3.5066
  673MOL0     H88822   8.285   0.628   1.998  1.2518  0.6693 -0.9644
  673MOL0     H88823   8.499   0.676   2.145  0.3410  1.1499  0.4341
  673MOL0     H88824   8.609   1.058   2.624  0.6353 -0.2443 -0.3687
  673MOL0     H88825   8.834   1.072   2.723  0.3999  1.5566 -1.8345
  673MOL0     H88826   9.222   0.884   2.736 -0.1275 -1.4356  2.3268
  673MOL0     H88827   9.154   0.776   2.608  1.5123  2.1123 -0.4073
  673MOL0     H88828   9.110   0.798   2.915  0.1293 -0.0230  0.3139
  673MOL0     H88829   9.022   0.690   2.822  1.0731 -0.9997  1.5561
  673MOL0     H88830   9.223   0.554   2.752 -1.3894 -1.2622  0.5771
  673MOL0     H88831   9.187   0.571   2.927 -0.5127  1.6336  1.9159
  673MOL0     H88832   9.397   0.756   2.819  1.8125  0.6418  2.0092
  673MOL0     H88833   9.350   0.705   2.984 -0.9474  2.1797 -1.5372
  673MOL0     H88834   9.595   0.375   2.862  0.8324  0.4015 -2.7087
  673MOL0     H88835   8.966   0.721   2.537  1.3798  1.2650  0.2622
  673MOL0     H88836   8.728   0.659   2.463 -0.1942 -1.0523  1.2847
  674MOL0     O88837   1.712   6.599   1.195  0.3345  0.5484  0.5492
  674MOL0     C88838   1.789   6.620   1.101  0.6846 -0.5901  0.6471
  674MOL0     O88839   1.750   6.628   0.968  0.4237 -1.0270 -0.2915
  674MOL0     C88840   1.615   6.655   0.955 -0.0173  0.6008  0.1694
  674MOL0     C88841   1.545   6.577   0.856  0.4081  0.2493 -1.1087
  674MOL0     C88842   1.415   6.587   0.835  0.2626  0.0867 -0.1415
  674MOL0     C88843   1.340   6.674   0.914  0.3127 -0.4311 -0.4539
  674MOL0     O88844   1.202   6.695   0.912 -0.5133  0.6324  0.5212
  674MOL0     C88845   1.119   6.605   0.831 -0.5126  0.0417  0.3566
  674MOL0     C88846   0.975   6.643   0.879  0.3688  0.0875  0.3666
  674MOL0     C88847   0.870   6.546   0.817 -0.2441 -0.3662 -0.1727
  674MOL0     C88848   0.738   6.551   0.872 -0.0139  0.3380  0.3359
  674MOL0     C88849   0.636   6.465   0.794 -0.9473  0.1706  0.8493
  674MOL0     C88850   0.492   6.487   0.840 -0.0761 -0.4261 -0.4069
  674MOL0     C88851   0.406   6.379   0.777 -1.0963 -0.2568 -0.0637
  674MOL0     C88852   0.259   6.399   0.779  0.2345 -0.3744 -0.6035
  674MOL0     N88853   0.193   6.290   0.711 -0.6765  0.5160  0.2233
  674MOL0     C88854   0.070   6.234   0.753 -0.2489  0.5036  0.7893
  674MOL0     C88855   0.040   6.135   0.667 -0.3418  0.0591 -0.4940
  674MOL0     C88856  -0.084   6.058   0.691 -0.6377 -0.3449  0.3586
  674MOL0     C88857  -0.144   5.989   0.569  0.4057 -0.6863 -0.8024
  674MOL0     C88858  -0.238   5.877   0.590 -0.5157 -0.4567 -0.8710
  674MOL0     C88859  -0.361   5.921   0.665  0.9682  0.7463 -0.1222
  674MOL0     O88860  -0.438   6.006   0.571 -0.4578 -0.9248  0.2467
  674MOL0     C88861  -0.568   6.019   0.582  0.2896  0.5439 -0.7716
  674MOL0     C88862  -0.659   5.938   0.656 -0.3970 -0.3524  0.2144
  674MOL0     C88863  -0.795   5.945   0.637 -0.4274  0.0298  0.1985
  674MOL0     C88864  -0.849   6.047   0.561 -0.3021  0.5074  0.8046
  674MOL0     C88865  -0.997   6.056   0.555 -0.4985 -0.0543  1.0608
  674MOL0     O88866  -1.051   6.173   0.496  0.1899 -0.2375 -0.6432
  674MOL0     C88867  -1.187   6.175   0.496 -0.2461 -0.0748 -0.2170
  674MOL0     C88868  -1.250   6.265   0.579 -0.4984  0.5070  0.1994
  674MOL0     C88869  -1.390   6.264   0.595  0.1911  0.2281  0.4217
  674MOL0     C88870  -1.464   6.184   0.503 -0.3665 -0.5168 -0.0681
  674MOL0     O88871  -1.595   6.187   0.530  0.5459 -0.0145 -0.5427
  674MOL0     C88872  -1.683   6.078   0.474 -0.4910  0.5080  0.3243
  674MOL0     C88873  -1.834   6.097   0.490 -0.2590 -0.3231  1.1761
  674MOL0     C88874  -1.921   5.994   0.432  0.3411  0.1058 -0.4986
  674MOL0     C88875  -2.068   6.018   0.457 -0.6969 -0.0136 -0.4249
  674MOL0     C88876  -2.149   5.902   0.402 -0.6327  0.3707 -0.5712
  674MOL0     C88877  -2.297   5.930   0.429  0.2409 -0.3791 -0.3520
  674MOL0     C88878  -2.401   5.830   0.379 -0.2260 -0.0114 -0.3721
  674MOL0     C88879  -2.549   5.864   0.401 -0.0172 -0.0078  0.2164
  674MOL0    Cl88880  -2.662   5.773   0.292  0.1902  0.2338 -0.0484
  674MOL0     C88881  -1.404   6.098   0.405 -0.2115 -0.7111 -0.3284
  674MOL0     C88882  -1.261   6.095   0.410 -0.3110  0.6159  0.2062
  674MOL0     O88883  -1.061   5.968   0.605 -0.5012 -0.5065  0.3451
  674MOL0     C88884  -0.758   6.135   0.502 -0.0503 -1.1337  1.1229
  674MOL0     C88885  -0.618   6.123   0.516  0.0324  0.7372  0.6015
  674MOL0     N88886   0.138   6.128   0.567 -0.1776 -0.1311  0.0478
  674MOL0     N88887   0.231   6.216   0.598 -0.1969 -0.4175 -0.6352
  674MOL0     C88888   1.402   6.764   1.008 -0.9276 -0.0644 -0.8434
  674MOL0     C88889   1.536   6.755   1.029 -0.1706  0.0296  0.0094
  674MOL0     C88890   1.932   6.613   1.115 -0.1972  0.4185  0.5149
  674MOL0     C88891   1.983   6.603   1.244 -0.0856  0.3817  0.2520
  674MOL0     C88892   2.123   6.586   1.267 -0.6621 -0.6117  0.0899
  674MOL0     C88893   2.205   6.569   1.153  1.2294  0.2147  0.3126
  674MOL0     O88894   2.336   6.546   1.155 -0.4058 -0.1030  0.6470
  674MOL0     C88895   2.412   6.535   1.275  0.2915  0.5707 -0.3531
  674MOL0     C88896   2.554   6.482   1.241  0.0091 -0.4064 -0.9403
  674MOL0     C88897   2.631   6.457   1.370  0.7127  0.4727  1.5783
  674MOL0     C88898   2.715   6.579   1.413 -0.4379 -0.0610 -0.3402
  674MOL0     C88899   2.636   6.673   1.477  0.5354 -0.0746  0.2372
  674MOL0     C88900   2.561   6.755   1.525 -0.3655  0.1680 -0.1853
  674MOL0     C88901   2.158   6.585   1.020  0.6908 -0.2855 -0.0661
  674MOL0     C88902   2.023   6.609   1.001 -0.0367  0.2760  1.6591
  674MOL0     H88903   1.613   6.516   0.797  1.7879 -0.7228  1.2850
  674MOL0     H88904   1.375   6.533   0.750  0.5473  0.9513 -0.8330
  674MOL0     H88905   1.142   6.500   0.853  1.1320  0.2515 -0.2287
  674MOL0     H88906   1.129   6.624   0.724 -0.1360 -0.4603  0.3034
  674MOL0     H88907   0.961   6.748   0.849 -2.0376 -1.0275 -2.9246
  674MOL0     H88908   0.983   6.629   0.988  0.3695 -2.0852  0.1155
  674MOL0     H88909   0.905   6.444   0.834 -3.3287 -1.1755  2.3214
  674MOL0     H88910   0.857   6.574   0.712 -1.5011 -0.0607  0.0535
  674MOL0     H88911   0.744   6.507   0.972  0.4983 -1.4148 -0.4257
  674MOL0     H88912   0.712   6.657   0.873  2.2661  1.0908 -2.9836
  674MOL0     H88913   0.656   6.358   0.809  1.1181 -0.0629 -2.3820
  674MOL0     H88914   0.639   6.484   0.686  3.0362 -0.2262  0.7294
  674MOL0     H88915   0.449   6.584   0.814  2.0156  0.9535  0.9537
  674MOL0     H88916   0.483   6.484   0.949 -2.1671  0.2342 -0.5160
  674MOL0     H88917   0.437   6.364   0.674  1.0764 -1.1143  0.6605
  674MOL0     H88918   0.434   6.288   0.832  3.9890  1.6991  1.0574
  674MOL0     H88919   0.230   6.496   0.739  1.8381 -0.3365 -1.7844
  674MOL0     H88920   0.231   6.400   0.885  2.5535  2.0268  0.0806
  674MOL0     H88921   0.004   6.267   0.832 -1.4762 -1.1702  0.5093
  674MOL0     H88922  -0.160   6.125   0.731 -0.2042 -0.6438  1.7632
  674MOL0     H88923  -0.064   5.985   0.771  0.9213  0.2967  0.6008
  674MOL0     H88924  -0.058   5.948   0.515  1.6586 -0.1006  0.6756
  674MOL0     H88925  -0.193   6.063   0.506  0.7150  0.1647 -0.0671
  674MOL0     H88926  -0.260   5.828   0.494 -0.8403  1.2423 -1.7051
  674MOL0     H88927  -0.196   5.805   0.660 -3.2672 -0.8295  0.5357
  674MOL0     H88928  -0.345   5.964   0.764  1.0735  1.1631 -0.3180
  674MOL0     H88929  -0.424   5.833   0.680  0.2842  1.0122 -1.2908
  674MOL0     H88930  -0.625   5.858   0.722 -2.8338 -1.2229  0.5276
  674MOL0     H88931  -0.863   5.874   0.682  0.6239 -0.8340  0.4526
  674MOL0     H88932  -1.184   6.328   0.638  1.0619  0.4965 -1.4774
  674MOL0     H88933  -1.440   6.322   0.671  0.8424 -2.5873  3.1813
  674MOL0     H88934  -1.654   5.984   0.523  0.9668  0.4073 -0.6496
  674MOL0     H88935  -1.670   6.060   0.367 -1.1639  2.8785 -0.2185
  674MOL0     H88936  -1.862   6.193   0.447 -1.4730  0.1813  2.9787
  674MOL0     H88937  -1.843   6.096   0.599 -0.1755 -0.4361  1.1825
  674MOL0     H88938  -1.893   5.895   0.469 -0.5113  0.9093  2.6079
  674MOL0     H88939  -1.913   5.986   0.323 -1.0956 -0.1446 -0.6080
  674MOL0     H88940  -2.088   6.037   0.563 -1.3449  0.9306 -0.7077
  674MOL0     H88941  -2.102   6.108   0.406 -1.2809 -0.6737 -1.2106
  674MOL0     H88942  -2.111   5.814   0.456  0.9430  0.8709 -0.8428
  674MOL0     H88943  -2.128   5.896   0.295  3.9778  0.5160  0.1210
  674MOL0     H88944  -2.317   6.024   0.378 -0.0178  0.5705  1.4270
  674MOL0     H88945  -2.318   5.947   0.535  0.7671  1.3027 -0.5010
  674MOL0     H88946  -2.378   5.813   0.274  0.5365  2.8418 -0.7611
  674MOL0     H88947  -2.381   5.744   0.443  0.0435  2.3519  2.9930
  674MOL0     H88948  -2.568   5.969   0.379 -0.9708 -0.7682 -3.2170
  674MOL0     H88949  -2.581   5.848   0.504 -1.4991  3.4055  0.4128
  674MOL0     H88950  -1.460   6.027   0.344  1.4053 -1.9018 -0.4880
  674MOL0     H88951  -1.203   6.025   0.350  0.7115  0.3045  1.5039
  674MOL0     H88952  -0.802   6.220   0.450  2.0140 -1.0518 -0.6448
  674MOL0     H88953  -0.552   6.197   0.471  1.1211 -0.8382 -0.4842
  674MOL0     H88954   1.340   6.836   1.060 -1.4306 -0.7142 -0.5280
  674MOL0     H88955   1.586   6.818   1.102  1.5761 -1.8215  0.5098
  674MOL0     H88956   1.921   6.621   1.331  3.0917  3.9393  2.1159
  674MOL0     H88957   2.163   6.584   1.368  0.0450 -2.4405 -0.1760
  674MOL0     H88958   2.354   6.466   1.337  1.5309 -0.5841 -0.4342
  674MOL0     H88959   2.419   6.632   1.325  2.3819 -0.2643  1.1358
  674MOL0     H88960   2.552   6.385   1.190 -1.7103 -0.2361 -1.2616
  674MOL0     H88961   2.604   6.562   1.185  1.9898  1.5116  3.1134
  674MOL0     H88962   2.688   6.366   1.352 -0.7988 -0.1550 -0.3286
  674MOL0     H88963   2.562   6.422   1.447 -0.2795 -1.0575  0.0540
  674MOL0     H88964   2.792   6.559   1.489  0.1031  2.4867 -0.1112
  674MOL0     H88965   2.761   6.627   1.326  0.5548 -1.0089 -0.3557
  674MOL0     H88966   2.490   6.827   1.559  0.0291  0.2725  0.4416
  674MOL0     H88967   2.240   6.588   0.950  0.4237 -1.5490 -0.4687
  674MOL0     H88968   1.996   6.619   0.896 -1.4292  0.1784  1.9888
  675MOL0     O88969   9.667   2.808   5.382  0.5398 -0.6997 -0.1763
  675MOL0     C88970   9.789   2.820   5.410 -0.8252 -0.3055  0.4166
  675MOL0     O88971   9.878   2.877   5.327 -0.4367 -0.1917  0.4709
  675MOL0     C88972   9.834   2.890   5.199  0.1808 -0.0610 -0.2634
  675MOL0     C88973   9.726   2.975   5.171  0.3594  1.4488 -0.1853
  675MOL0     C88974   9.678   3.004   5.037  0.3179  0.0069  0.1315
  675MOL0     C88975   9.731   2.927   4.932 -0.2950 -0.5105 -0.1437
  675MOL0     O88976   9.682   2.925   4.803  0.2265 -0.9354 -0.1365
  675MOL0     C88977   9.686   3.058   4.743 -0.4781  0.5409  0.9035
  675MOL0     C88978   9.574   3.059   4.638 -0.0044 -0.0804 -0.1075
  675MOL0     C88979   9.545   3.200   4.590 -0.0786  0.2390 -0.1372
  675MOL0     C88980   9.425   3.203   4.484  0.5935 -0.5371 -0.4346
  675MOL0     C88981   9.284   3.178   4.544 -0.3677  0.3319  0.0967
  675MOL0     C88982   9.168   3.225   4.455 -0.1028 -0.1066  0.1336
  675MOL0     C88983   9.026   3.196   4.510 -0.1549  0.6980 -1.1333
  675MOL0     C88984   8.961   3.060   4.458  0.3197 -0.6002 -0.0980
  675MOL0     N88985   8.945   3.063   4.315  0.0703 -0.4306  1.5458
  675MOL0     C88986   8.845   3.144   4.256 -0.0984 -0.1301 -0.4804
  675MOL0     C88987   8.826   3.086   4.134  0.0391  0.4625 -0.0568
  675MOL0     C88988   8.731   3.122   4.033  0.2205 -0.1183  0.4990
  675MOL0     C88989   8.585   3.114   4.083 -0.3386  0.2654 -0.2428
  675MOL0     C88990   8.516   3.256   4.100 -0.2083 -0.3650 -0.2519
  675MOL0     C88991   8.374   3.251   4.159 -0.0058  0.0229  1.0868
  675MOL0     O88992   8.282   3.197   4.071  0.2890  0.3536  0.0001
  675MOL0     C88993   8.150   3.217   4.098  0.8210 -0.4192  0.1938
  675MOL0     C88994   8.100   3.273   4.214 -0.2931  0.5493  0.4462
  675MOL0     C88995   7.963   3.309   4.227 -0.5504 -0.4606 -0.4618
  675MOL0     C88996   7.871   3.289   4.122  0.4859  0.2548 -0.1589
  675MOL0     C88997   7.727   3.314   4.138 -0.0769  0.1379 -0.8618
  675MOL0     O88998   7.648   3.269   4.033  0.0756 -0.8302 -0.2308
  675MOL0     C88999   7.513   3.290   4.049  0.4915  0.3509 -0.8595
  675MOL0     C89000   7.430   3.242   4.159  0.1131  0.7467  0.1108
  675MOL0     C89001   7.293   3.270   4.153  0.6973 -0.1843 -0.4617
  675MOL0     C89002   7.240   3.346   4.048  0.5728  0.8630 -0.1530
  675MOL0     O89003   7.104   3.379   4.048 -0.4066  0.1593  0.5427
  675MOL0     C89004   7.030   3.414   4.163  0.2561 -0.5911 -0.0439
  675MOL0     C89005   6.899   3.485   4.122 -0.4234 -0.0112  0.0451
  675MOL0     C89006   6.910   3.630   4.108 -0.3162 -0.8321 -0.5592
  675MOL0     C89007   6.793   3.688   4.037  0.1624 -0.0747 -0.0932
  675MOL0     C89008   6.783   3.841   4.055  0.0637 -0.6702  0.4899
  675MOL0     C89009   6.910   3.904   4.011  0.1200 -0.4966 -0.2420
  675MOL0     C89010   6.889   4.057   4.016  1.3039 -0.1663 -0.0954
  675MOL0     C89011   7.019   4.130   3.993  0.0469 -0.0679 -0.7254
  675MOL0    Cl89012   6.982   4.301   4.002 -0.4207 -0.0270  0.0057
  675MOL0     C89013   7.315   3.391   3.939 -1.1145  0.5549  0.9753
  675MOL0     C89014   7.457   3.362   3.951 -0.0039 -0.2081 -0.5559
  675MOL0     O89015   7.682   3.369   4.240  0.3250 -0.1555 -0.1211
  675MOL0     C89016   7.921   3.228   3.997 -0.4764 -0.1090 -0.5722
  675MOL0     C89017   8.061   3.185   3.990  0.9667 -0.0251 -0.2645
  675MOL0     N89018   8.916   2.982   4.119  0.9833  0.6563 -0.0335
  675MOL0     N89019   8.991   2.975   4.227 -0.2999 -0.7761  0.0592
  675MOL0     C89020   9.834   2.828   4.964 -0.2801  0.7131 -0.0476
  675MOL0     C89021   9.887   2.812   5.092 -0.5291 -0.2859 -0.4583
  675MOL0     C89022   9.841   2.770   5.536 -0.0496 -0.1700  0.5017
  675MOL0     C89023   9.978   2.745   5.550  0.0275  0.0958 -0.2397
  675MOL0     C89024  10.033   2.706   5.676  0.0841 -0.4250 -0.8254
  675MOL0     C89025   9.940   2.682   5.783 -0.7846 -0.4427  0.4317
  675MOL0     O89026  10.005   2.630   5.888  0.2608 -0.1534  0.0559
  675MOL0     C89027   9.943   2.552   5.979 -0.0354 -0.1565  0.0607
  675MOL0     C89028  10.050   2.536   6.096  1.1820 -0.6236  0.1652
  675MOL0     C89029  10.179   2.464   6.060 -0.6237 -0.4438  0.2301
  675MOL0     C89030  10.276   2.452   6.182  0.2036 -0.2833 -0.2039
  675MOL0     C89031  10.279   2.321   6.243 -1.0136  0.0819  0.3407
  675MOL0     C89032  10.278   2.218   6.302 -0.4575  0.1172  0.6412
  675MOL0     C89033   9.803   2.692   5.761  0.2705 -0.2768  0.2273
  675MOL0     C89034   9.753   2.736   5.634 -0.1022  0.4037 -0.5472
  675MOL0     H89035   9.689   3.036   5.253  1.2960  0.2042  1.2144
  675MOL0     H89036   9.602   3.078   5.015  0.4291  0.0994  0.0571
  675MOL0     H89037   9.778   3.079   4.688 -0.8858 -0.3143 -0.1516
  675MOL0     H89038   9.676   3.139   4.816  0.8574  1.7176 -0.1592
  675MOL0     H89039   9.488   3.016   4.692 -0.5404  4.2293  3.0166
  675MOL0     H89040   9.610   3.004   4.551  1.4818  0.2242  0.3009
  675MOL0     H89041   9.635   3.245   4.547  0.9718 -2.7239 -1.2706
  675MOL0     H89042   9.515   3.274   4.665 -1.2325  0.6218 -0.9396
  675MOL0     H89043   9.425   3.294   4.423  2.3282 -1.6387 -2.2000
  675MOL0     H89044   9.445   3.128   4.407  2.7437  1.8390 -2.4228
  675MOL0     H89045   9.280   3.216   4.646 -0.4310 -1.5978  0.8670
  675MOL0     H89046   9.267   3.070   4.546  0.8982  0.0228 -2.3302
  675MOL0     H89047   9.180   3.192   4.352 -0.6397  0.6551 -0.1799
  675MOL0     H89048   9.176   3.334   4.450 -1.7873  0.0585  0.4508
  675MOL0     H89049   9.020   3.194   4.619 -1.8712  2.4171 -1.1344
  675MOL0     H89050   8.958   3.274   4.474  0.1606  1.1775 -0.7094
  675MOL0     H89051   8.867   3.042   4.512 -1.7439  3.3340 -1.8937
  675MOL0     H89052   9.034   2.982   4.482  0.3725 -0.5851 -0.2101
  675MOL0     H89053   8.799   3.236   4.291  0.5404  0.4847 -1.2153
  675MOL0     H89054   8.755   3.060   3.947  2.2792  1.9000 -0.4893
  675MOL0     H89055   8.752   3.223   3.996  0.9294 -0.0830  0.9632
  675MOL0     H89056   8.574   3.058   4.176  1.4799  0.4759  0.1342
  675MOL0     H89057   8.534   3.057   4.006  1.7578  0.5700 -1.9566
  675MOL0     H89058   8.567   3.310   4.180 -1.9503  0.6793  0.1774
  675MOL0     H89059   8.520   3.317   4.009 -1.0025 -0.2838 -0.2383
  675MOL0     H89060   8.345   3.350   4.196 -0.1573 -0.6836  3.0006
  675MOL0     H89061   8.371   3.185   4.246  2.0430 -0.8647  0.5525
  675MOL0     H89062   8.167   3.304   4.294  1.1011  2.7793 -1.4556
  675MOL0     H89063   7.929   3.360   4.317  2.6557 -0.5360  0.9069
  675MOL0     H89064   7.474   3.191   4.244  1.5880  1.4070 -0.2251
  675MOL0     H89065   7.229   3.238   4.235 -0.2164 -0.4135 -1.2449
  675MOL0     H89066   7.087   3.478   4.231  0.9836  0.7742 -1.8456
  675MOL0     H89067   7.005   3.321   4.213 -1.2491 -0.9380 -1.3699
  675MOL0     H89068   6.824   3.477   4.201 -1.0651  2.1237 -0.2915
  675MOL0     H89069   6.863   3.443   4.028  3.7338  0.5732 -2.0601
  675MOL0     H89070   6.998   3.631   4.044 -0.3022 -1.3222 -0.5482
  675MOL0     H89071   6.909   3.673   4.209 -0.0230 -0.1353 -0.8498
  675MOL0     H89072   6.794   3.668   3.929 -2.6632 -1.2266  0.0140
  675MOL0     H89073   6.697   3.644   4.063 -0.4876  0.9871 -0.6536
  675MOL0     H89074   6.771   3.867   4.160 -0.3997 -2.3081  0.8657
  675MOL0     H89075   6.695   3.882   4.004  0.8712 -0.6826 -0.9671
  675MOL0     H89076   6.936   3.877   3.909  2.2743 -1.8292  0.6014
  675MOL0     H89077   6.981   3.874   4.088 -0.2797  3.5214  2.0123
  675MOL0     H89078   6.815   4.089   3.942  0.5241 -1.1004  0.2417
  675MOL0     H89079   6.839   4.097   4.105  1.0948  0.0453 -0.3046
  675MOL0     H89080   7.081   4.112   3.905  1.5883  0.7256  0.1496
  675MOL0     H89081   7.075   4.104   4.084 -0.9655 -0.5955 -0.2332
  675MOL0     H89082   7.281   3.448   3.853  1.6782  1.3885  0.3249
  675MOL0     H89083   7.509   3.391   3.860 -0.0541  0.0656 -0.4990
  675MOL0     H89084   7.850   3.234   3.915  1.1484  1.8526 -1.9381
  675MOL0     H89085   8.100   3.136   3.901 -2.2776 -1.0605 -1.2552
  675MOL0     H89086   9.878   2.783   4.876 -4.0992  1.4034 -2.5615
  675MOL0     H89087   9.974   2.750   5.108  0.6258  0.8622 -2.0697
  675MOL0     H89088  10.047   2.750   5.467 -0.4298 -1.6142 -0.7661
  675MOL0     H89089  10.139   2.692   5.690 -0.3017  0.0183  4.1270
  675MOL0     H89090   9.910   2.456   5.939 -0.7799 -0.1367  0.5941
  675MOL0     H89091   9.857   2.609   6.018 -0.8343 -0.7165 -0.8470
  675MOL0     H89092  10.064   2.628   6.153  0.4426  0.7330 -1.7595
  675MOL0     H89093  10.006   2.465   6.167  0.8241 -0.7327 -0.1647
  675MOL0     H89094  10.218   2.526   5.979 -3.3767 -0.1886 -1.0103
  675MOL0     H89095  10.164   2.366   6.014  0.5588  1.0076 -3.6820
  675MOL0     H89096  10.377   2.476   6.148 -0.7808 -0.6399 -3.7588
  675MOL0     H89097  10.247   2.528   6.255  1.2137  1.2836 -1.3676
  675MOL0     H89098  10.287   2.139   6.375  2.4389 -0.4044 -0.1657
  675MOL0     H89099   9.734   2.668   5.842  1.4702 -1.8452  0.8281
  675MOL0     H89100   9.646   2.754   5.621 -0.3996 -1.2405 -0.6262
  676MOL0     O89101   1.380   5.403  10.922  0.0295  0.0466  0.0810
  676MOL0     C89102   1.373   5.391  10.799  0.5144  0.0577  0.0601
  676MOL0     O89103   1.452   5.453  10.707  0.2314  0.8238 -0.8678
  676MOL0     C89104   1.535   5.555  10.755 -0.3073  0.1892  0.0166
  676MOL0     C89105   1.487   5.681  10.797 -0.5812  0.4809 -1.8610
  676MOL0     C89106   1.586   5.778  10.827  0.0363 -0.1725 -0.0741
  676MOL0     C89107   1.724   5.763  10.808  0.3393  0.3338  0.1897
  676MOL0     O89108   1.820   5.858  10.817 -0.2445 -0.0304  0.1676
  676MOL0     C89109   1.777   5.981  10.872  0.0283 -0.3065 -0.5053
  676MOL0     C89110   1.903   6.076  10.886  0.0902 -0.2457 -0.6614
  676MOL0     C89111   2.027   6.031  10.966 -0.1824 -0.7655 -0.4039
  676MOL0     C89112   2.010   6.050  11.118 -0.4895 -0.4574 -0.0967
  676MOL0     C89113   2.145   6.073  11.180 -0.5274 -0.2439  0.2341
  676MOL0     C89114   2.146   6.079  11.341 -0.7563  0.2164  0.5754
  676MOL0     C89115   2.096   6.206  11.414 -0.4649 -0.4105  0.6996
  676MOL0     C89116   2.195   6.329  11.377  0.8488  0.3357  0.1481
  676MOL0     N89117   2.337   6.295  11.412 -0.2417 -0.1873 -0.6904
  676MOL0     C89118   2.436   6.286  11.323 -0.5654 -0.3936 -0.5933
  676MOL0     C89119   2.549   6.246  11.391  0.1501 -0.3735  0.0793
  676MOL0     C89120   2.686   6.207  11.334 -0.9059  0.5670 -0.6061
  676MOL0     C89121   2.755   6.088  11.406 -0.7435  0.3259 -0.8792
  676MOL0     C89122   2.899   6.061  11.359  0.0043  0.5596  0.4118
  676MOL0     C89123   2.906   5.994  11.216 -0.0942  0.5285 -0.1031
  676MOL0     O89124   3.011   5.892  11.205 -0.1955  0.5360 -0.1572
  676MOL0     C89125   3.106   5.898  11.101 -1.0429  0.3890  0.1735
  676MOL0     C89126   3.206   5.802  11.111  0.3409  1.0513  0.8494
  676MOL0     C89127   3.327   5.802  11.036 -0.6558  0.0381 -0.0401
  676MOL0     C89128   3.342   5.909  10.944 -0.6738 -0.0548  0.0129
  676MOL0     C89129   3.475   5.923  10.863  0.7221  0.1879  0.1690
  676MOL0     O89130   3.581   5.845  10.905 -0.5522 -0.2659 -0.1355
  676MOL0     C89131   3.702   5.841  10.842  0.1313 -0.5393  0.1511
  676MOL0     C89132   3.815   5.886  10.904 -0.5694  0.7231 -0.3121
  676MOL0     C89133   3.934   5.890  10.833 -0.0591 -0.0106  0.0162
  676MOL0     C89134   3.939   5.852  10.698 -0.2512  0.6399  0.5437
  676MOL0     O89135   4.056   5.867  10.625  0.4464 -0.0603 -0.3141
  676MOL0     C89136   4.095   5.762  10.534 -0.1870 -0.1962 -0.3625
  676MOL0     C89137   4.217   5.804  10.461 -0.5588 -1.2058 -0.2873
  676MOL0     C89138   4.339   5.841  10.551  0.5275 -0.1382  0.4968
  676MOL0     C89139   4.453   5.880  10.463 -0.4381 -0.6802  0.2832
  676MOL0     C89140   4.567   5.940  10.554 -0.1676 -0.2651 -0.0258
  676MOL0     C89141   4.703   5.909  10.490 -0.5279  0.2916 -0.6766
  676MOL0     C89142   4.816   5.932  10.587  0.1301  0.6161  0.1202
  676MOL0     C89143   4.944   5.877  10.521 -0.7029 -0.2900 -0.4649
  676MOL0    Cl89144   5.077   5.875  10.641 -0.0470  0.1496  0.1179
  676MOL0     C89145   3.825   5.813  10.632  0.2359 -0.5051  0.4972
  676MOL0     C89146   3.703   5.803  10.701  0.2324  0.0251  0.6171
  676MOL0     O89147   3.470   5.979  10.750 -0.1372  0.2807  0.6048
  676MOL0     C89148   3.238   6.001  10.929 -1.1121 -0.7646  0.1060
  676MOL0     C89149   3.124   6.003  11.009 -0.4001 -0.6924 -0.4589
  676MOL0     N89150   2.515   6.231  11.521 -0.4515 -0.8755 -0.4252
  676MOL0     N89151   2.384   6.254  11.536 -0.4225 -0.0844  0.0418
  676MOL0     C89152   1.762   5.630  10.770 -0.2156 -0.3537 -0.1422
  676MOL0     C89153   1.675   5.532  10.747  0.3040  0.3358  0.3638
  676MOL0     C89154   1.266   5.305  10.750  0.0444 -0.8001  0.6077
  676MOL0     C89155   1.143   5.295  10.815 -0.3886  0.3955  0.2324
  676MOL0     C89156   1.038   5.211  10.769 -1.0482  0.2222  0.4037
  676MOL0     C89157   1.052   5.133  10.649  0.0809 -0.0040  0.3582
  676MOL0     O89158   0.962   5.033  10.635  0.8331 -0.4700 -0.4644
  676MOL0     C89159   0.876   5.031  10.518 -0.9557  0.4317 -0.4591
  676MOL0     C89160   0.735   5.090  10.545 -0.5396 -0.3403 -0.6196
  676MOL0     C89161   0.671   5.018  10.670 -0.0274 -0.9110  0.0746
  676MOL0     C89162   0.631   4.874  10.633 -0.0202  0.0294  0.3320
  676MOL0     C89163   0.538   4.817  10.732  0.4244 -0.7070 -1.4913
  676MOL0     C89164   0.456   4.781  10.817 -0.0792  0.0192 -0.7870
  676MOL0     C89165   1.169   5.152  10.571 -0.6062 -0.2763  0.4600
  676MOL0     C89166   1.267   5.237  10.625 -0.4324 -0.2775  0.8087
  676MOL0     H89167   1.380   5.692  10.805 -1.1876 -4.2979  0.1760
  676MOL0     H89168   1.539   5.868  10.865 -1.8969 -1.7270  1.4567
  676MOL0     H89169   1.720   5.966  10.964 -0.5990  1.8524 -0.4807
  676MOL0     H89170   1.708   6.027  10.801  0.7758  1.8094  0.0514
  676MOL0     H89171   1.876   6.176  10.923  0.0125 -0.5983  0.2618
  676MOL0     H89172   1.935   6.096  10.783 -2.5324 -0.5502 -1.6033
  676MOL0     H89173   2.111   6.087  10.925 -0.6793  1.5316  1.4752
  676MOL0     H89174   2.040   5.925  10.941 -2.0746 -1.3569  0.8289
  676MOL0     H89175   1.947   6.135  11.147  0.6811 -0.0222  1.3083
  676MOL0     H89176   1.975   5.956  11.162 -0.2933 -1.3638 -1.8106
  676MOL0     H89177   2.190   6.163  11.137  4.5692 -2.9595 -0.8974
  676MOL0     H89178   2.211   5.991  11.152 -0.0517  0.2191 -0.0237
  676MOL0     H89179   2.249   6.045  11.358 -0.3345 -0.1749 -2.2276
  676MOL0     H89180   2.085   5.993  11.370 -0.3746  0.5042  2.3284
  676MOL0     H89181   1.994   6.224  11.380 -0.0024  0.5379 -0.2318
  676MOL0     H89182   2.120   6.186  11.519  0.3661  2.3331  1.1026
  676MOL0     H89183   2.162   6.418  11.431 -0.5809  1.2184 -2.0127
  676MOL0     H89184   2.186   6.345  11.269 -1.9196 -0.0533  0.2607
  676MOL0     H89185   2.424   6.281  11.215  3.3573 -1.8773 -1.1255
  676MOL0     H89186   2.757   6.291  11.335  1.6500 -1.4557 -0.6828
  676MOL0     H89187   2.678   6.173  11.231  0.7056 -2.3001  0.0740
  676MOL0     H89188   2.691   6.000  11.397 -0.8780  0.0052  2.2102
  676MOL0     H89189   2.760   6.108  11.513 -0.0828 -1.7760 -0.4591
  676MOL0     H89190   2.962   6.150  11.350 -0.2785  0.5846 -2.0083
  676MOL0     H89191   2.945   5.993  11.431  0.0228 -1.9760 -1.8000
  676MOL0     H89192   2.919   6.071  11.140  0.3301  0.7165  0.1543
  676MOL0     H89193   2.812   5.939  11.203 -1.9657  3.7393 -1.5478
  676MOL0     H89194   3.197   5.728  11.190 -0.6089 -2.0288 -1.9097
  676MOL0     H89195   3.409   5.732  11.046 -1.2253 -0.5254  0.7251
  676MOL0     H89196   3.807   5.919  11.007 -1.9972  1.9831 -0.7963
  676MOL0     H89197   4.020   5.933  10.884 -0.3538  1.2788 -0.5394
  676MOL0     H89198   4.018   5.733  10.462 -0.5909 -0.2382  0.0834
  676MOL0     H89199   4.121   5.672  10.590 -0.1721  0.1787  0.2412
  676MOL0     H89200   4.196   5.893  10.400 -2.0689  0.6729  2.7474
  676MOL0     H89201   4.248   5.723  10.395 -0.5766 -0.3445 -1.3848
  676MOL0     H89202   4.370   5.752  10.606 -1.0446 -1.4059 -0.5436
  676MOL0     H89203   4.315   5.926  10.615  0.7038 -0.0467  0.4409
  676MOL0     H89204   4.489   5.791  10.410  0.8637  1.3302 -2.4398
  676MOL0     H89205   4.433   5.956  10.387  2.5190  0.4958  0.5696
  676MOL0     H89206   4.550   5.905  10.656 -3.4379 -1.2438 -0.7676
  676MOL0     H89207   4.560   6.049  10.554 -0.3436 -0.2475 -1.5055
  676MOL0     H89208   4.722   5.983  10.412 -2.3659  0.9700 -0.5363
  676MOL0     H89209   4.709   5.812  10.439 -0.9540  0.1318 -0.4275
  676MOL0     H89210   4.821   6.039  10.608  0.7051  0.4902  0.6828
  676MOL0     H89211   4.798   5.876  10.679  2.9525 -2.5078 -1.0006
  676MOL0     H89212   4.972   5.933  10.431  0.4529  0.7209  0.4966
  676MOL0     H89213   4.916   5.774  10.493  0.4852 -0.6021 -0.5416
  676MOL0     H89214   3.831   5.801  10.524  2.4411  0.7172  0.4248
  676MOL0     H89215   3.614   5.762  10.655  0.0297 -0.1475  1.1555
  676MOL0     H89216   3.253   6.080  10.856  1.9484  0.1028  1.5023
  676MOL0     H89217   3.051   6.077  10.977  1.6674  0.7115 -2.3537
  676MOL0     H89218   1.867   5.605  10.759 -0.1888  0.2187 -1.4330
  676MOL0     H89219   1.709   5.437  10.707  0.0851 -0.6790  2.4823
  676MOL0     H89220   1.128   5.343  10.911 -2.3665 -0.3705  0.3523
  676MOL0     H89221   0.943   5.197  10.820 -3.6179 -0.0902 -3.9520
  676MOL0     H89222   0.850   4.927  10.496  0.2866  0.5867 -2.9953
  676MOL0     H89223   0.925   5.079  10.433 -1.1176 -0.6894 -1.2157
  676MOL0     H89224   0.747   5.198  10.559  0.8897  0.1602 -4.6355
  676MOL0     H89225   0.675   5.075  10.455 -0.8055 -1.2943 -0.2975
  676MOL0     H89226   0.591   5.083  10.708  0.2169 -0.8900  0.5566
  676MOL0     H89227   0.748   5.008  10.747 -0.7140 -1.1526  0.7390
  676MOL0     H89228   0.578   4.893  10.540 -0.8918 -0.3510  0.7406
  676MOL0     H89229   0.714   4.808  10.605 -0.6693  0.2226 -2.2822
  676MOL0     H89230   0.375   4.763  10.885 -0.8864 -1.9446 -2.1705
  676MOL0     H89231   1.188   5.075  10.496 -0.8077  1.0036 -0.9452
  676MOL0     H89232   1.361   5.241  10.571 -0.5075  0.4470  0.7260
  677MOL0     O89233   7.401   7.076   3.211 -0.0612 -0.1768  0.1560
  677MOL0     C89234   7.395   6.954   3.202  0.4022 -0.0283 -0.0268
  677MOL0     O89235   7.275   6.883   3.183  0.1287  0.9256  0.3167
  677MOL0     C89236   7.161   6.939   3.234  0.2676  0.8048  0.0347
  677MOL0     C89237   7.037   6.894   3.180 -0.7291 -0.3353 -0.0055
  677MOL0     C89238   6.911   6.942   3.224 -0.1173  0.0659  0.0956
  677MOL0     C89239   6.909   7.035   3.332 -1.1594 -0.6763  0.1139
  677MOL0     O89240   6.787   7.094   3.358  0.9371 -0.2948 -0.6668
  677MOL0     C89241   6.762   7.120   3.496 -0.4935  0.3289  0.4085
  677MOL0     C89242   6.615   7.122   3.535  0.3547 -0.6741 -0.5340
  677MOL0     C89243   6.600   7.183   3.672 -0.0838 -0.6072 -0.1156
  677MOL0     C89244   6.451   7.183   3.717 -0.4409  0.2383  0.6598
  677MOL0     C89245   6.429   7.239   3.857  0.1218  0.0708 -0.8130
  677MOL0     C89246   6.282   7.223   3.907  0.0010  0.0858 -0.2584
  677MOL0     C89247   6.264   7.301   4.038 -0.5789 -0.0278  0.7508
  677MOL0     C89248   6.252   7.457   4.021  0.2052  0.3733  0.4524
  677MOL0     N89249   6.233   7.533   4.151 -0.3414 -0.1951 -0.1634
  677MOL0     C89250   6.117   7.536   4.235  1.0567 -0.1841  0.4813
  677MOL0     C89251   6.148   7.634   4.323 -0.2566 -0.4876  0.8019
  677MOL0     C89252   6.059   7.708   4.426  0.1491 -0.2285  0.6228
  677MOL0     C89253   5.916   7.643   4.422  0.0040 -0.2004 -0.1002
  677MOL0     C89254   5.828   7.737   4.492  0.1110 -0.1270 -0.2602
  677MOL0     C89255   5.673   7.700   4.495  0.4411 -0.6801 -0.1340
  677MOL0     O89256   5.607   7.817   4.467 -0.3623  0.0392 -0.2343
  677MOL0     C89257   5.476   7.823   4.422  0.4570  0.0569 -0.1197
  677MOL0     C89258   5.378   7.719   4.433  0.8240 -0.1672  0.6120
  677MOL0     C89259   5.245   7.747   4.402  0.0548  0.2469  0.3441
  677MOL0     C89260   5.207   7.873   4.358  0.8024 -1.0470 -0.3597
  677MOL0     C89261   5.071   7.893   4.315 -0.5231 -0.1384  0.1499
  677MOL0     O89262   4.981   7.792   4.345 -0.6232 -0.4526 -0.0584
  677MOL0     C89263   4.848   7.817   4.316 -0.5115 -0.1396  0.4424
  677MOL0     C89264   4.760   7.814   4.422 -0.1798  0.2218  0.2046
  677MOL0     C89265   4.618   7.819   4.397  0.2589  0.1511  0.3977
  677MOL0     C89266   4.580   7.850   4.262  0.7294  0.2764  0.5476
  677MOL0     O89267   4.451   7.866   4.216 -0.3078  0.1310  0.7110
  677MOL0     C89268   4.362   7.906   4.320  0.1025  0.1927  0.4428
  677MOL0     C89269   4.224   7.926   4.269 -0.5698 -0.0162 -0.5027
  677MOL0     C89270   4.158   7.801   4.220  0.1560 -0.8313 -0.0468
  677MOL0     C89271   4.015   7.833   4.174 -0.5270  0.2930  0.0896
  677MOL0     C89272   3.949   7.705   4.113  0.1210 -0.3203  0.2590
  677MOL0     C89273   3.811   7.732   4.049  0.1732  0.3715 -0.0812
  677MOL0     C89274   3.739   7.611   4.006 -0.5127  0.2427  0.4126
  677MOL0     C89275   3.705   7.514   4.112 -0.4250 -0.8331 -0.4669
  677MOL0    Cl89276   3.564   7.417   4.056 -0.3607 -0.3276  0.2164
  677MOL0     C89277   4.670   7.857   4.160 -0.1654 -1.3020  0.2555
  677MOL0     C89278   4.808   7.852   4.186  0.3390  0.9074  0.2888
  677MOL0     O89279   5.042   7.996   4.246 -0.3228  1.2488 -0.4802
  677MOL0     C89280   5.299   7.980   4.367 -0.3857 -0.7680  0.3340
  677MOL0     C89281   5.436   7.954   4.400  0.2924 -0.5372 -0.3299
  677MOL0     N89282   6.283   7.675   4.301  0.0558 -0.3833  0.3565
  677MOL0     N89283   6.325   7.616   4.198  0.0456 -0.4397  0.3008
  677MOL0     C89284   7.028   7.065   3.393 -0.4171 -0.0650 -0.0219
  677MOL0     C89285   7.151   7.007   3.359 -0.1656 -0.5728 -0.6368
  677MOL0     C89286   7.523   6.885   3.199 -0.1467 -0.5274 -1.0487
  677MOL0     C89287   7.646   6.961   3.198  0.0878  0.0086  0.4698
  677MOL0     C89288   7.768   6.895   3.202  0.4501  0.1476  0.8853
  677MOL0     C89289   7.777   6.753   3.218 -0.3827 -0.1846  0.3219
  677MOL0     O89290   7.898   6.682   3.235 -0.4872  0.1552  0.3867
  677MOL0     C89291   8.025   6.752   3.222  0.4510  0.1877  0.2728
  677MOL0     C89292   8.139   6.659   3.188 -0.4177 -0.3130  0.7788
  677MOL0     C89293   8.153   6.645   3.033  0.0266  0.6379 -0.6937
  677MOL0     C89294   8.054   6.551   2.970 -0.5161  0.2244  0.1506
  677MOL0     C89295   8.067   6.573   2.826  0.1421 -0.1071 -0.5411
  677MOL0     C89296   8.089   6.600   2.709  0.1543  0.0833 -0.2075
  677MOL0     C89297   7.657   6.684   3.227 -0.2587 -0.3786 -0.4601
  677MOL0     C89298   7.531   6.743   3.213  0.3058  0.2536 -0.2816
  677MOL0     H89299   7.051   6.815   3.107  1.4052 -0.2268  0.2117
  677MOL0     H89300   6.817   6.914   3.178 -1.4272  0.1399  2.5856
  677MOL0     H89301   6.809   7.217   3.516  1.0585 -0.5456  1.1816
  677MOL0     H89302   6.808   7.042   3.558 -1.8613 -0.9558 -0.1447
  677MOL0     H89303   6.588   7.016   3.530  0.8532 -0.7772 -1.2563
  677MOL0     H89304   6.560   7.182   3.462  0.2156 -1.0747 -0.7611
  677MOL0     H89305   6.634   7.286   3.684 -0.8642 -0.2853 -0.6153
  677MOL0     H89306   6.662   7.120   3.737 -1.7010 -0.3677  1.7712
  677MOL0     H89307   6.394   7.232   3.639 -0.4230 -0.0261  0.4802
  677MOL0     H89308   6.415   7.080   3.710  1.9110 -0.5470 -1.3066
  677MOL0     H89309   6.437   7.348   3.844 -2.6209  0.4170 -0.1945
  677MOL0     H89310   6.497   7.203   3.934  0.5444 -1.0800 -1.7060
  677MOL0     H89311   6.254   7.118   3.921 -0.0687  0.1546  0.1399
  677MOL0     H89312   6.216   7.264   3.830 -0.5382 -1.5082 -0.6962
  677MOL0     H89313   6.171   7.271   4.088  0.9626 -1.2538  3.0535
  677MOL0     H89314   6.348   7.280   4.105  0.7310 -2.0041 -1.3511
  677MOL0     H89315   6.171   7.486   3.953  0.2340  0.5695  0.4994
  677MOL0     H89316   6.347   7.481   3.974  1.0586 -2.0663  0.7995
  677MOL0     H89317   6.022   7.488   4.215  0.3361  1.7412 -0.9831
  677MOL0     H89318   6.055   7.815   4.405 -0.3362  0.1525  2.5161
  677MOL0     H89319   6.101   7.695   4.526 -1.2353 -1.0387  1.1185
  677MOL0     H89320   5.921   7.541   4.463  1.2232 -0.3753 -0.6533
  677MOL0     H89321   5.873   7.638   4.322 -3.0260 -0.9462  1.1337
  677MOL0     H89322   5.848   7.752   4.599 -1.5048  0.7179 -0.0424
  677MOL0     H89323   5.840   7.837   4.448  1.1687  0.4025  1.1273
  677MOL0     H89324   5.652   7.660   4.594 -0.3902 -1.6851 -0.6903
  677MOL0     H89325   5.644   7.628   4.417  0.6771 -1.4655  0.4950
  677MOL0     H89326   5.416   7.620   4.458  2.1025 -0.7466 -3.0885
  677MOL0     H89327   5.176   7.664   4.397 -0.3092  0.5760 -0.2213
  677MOL0     H89328   4.790   7.792   4.524  0.3397 -0.3190 -0.0563
  677MOL0     H89329   4.545   7.801   4.475 -0.9872 -0.3016 -0.8239
  677MOL0     H89330   4.393   8.000   4.366 -3.2657  0.6092  2.1839
  677MOL0     H89331   4.352   7.837   4.404  0.2039  0.0292  0.3197
  677MOL0     H89332   4.224   8.007   4.195  1.1575 -0.1998 -0.7453
  677MOL0     H89333   4.170   7.975   4.351  3.0009  1.2500  1.3163
  677MOL0     H89334   4.152   7.723   4.296 -0.3258 -2.6230 -1.8513
  677MOL0     H89335   4.214   7.751   4.140 -3.0873 -2.9344 -1.2013
  677MOL0     H89336   3.963   7.877   4.259 -2.0492 -0.4242 -0.4413
  677MOL0     H89337   4.007   7.913   4.099  1.5438  0.8920  0.4238
  677MOL0     H89338   3.938   7.638   4.199 -1.4657 -2.2108 -1.3162
  677MOL0     H89339   4.021   7.658   4.046  1.4408 -1.4327  2.3353
  677MOL0     H89340   3.816   7.792   3.957  0.6250 -1.7779 -1.5504
  677MOL0     H89341   3.747   7.785   4.119 -3.3545  0.1865 -2.8667
  677MOL0     H89342   3.656   7.655   3.950 -0.7350  0.4845  0.9311
  677MOL0     H89343   3.798   7.557   3.931  0.0221  1.4339 -0.0438
  677MOL0     H89344   3.676   7.571   4.201  1.9062 -0.1232 -0.0999
  677MOL0     H89345   3.792   7.458   4.148 -1.1656 -0.3808  2.2990
  677MOL0     H89346   4.646   7.872   4.055 -1.3549 -0.2581  0.6515
  677MOL0     H89347   4.889   7.870   4.115  0.2713  1.4175  0.3406
  677MOL0     H89348   5.266   8.080   4.342 -0.9547 -1.4256 -1.6919
  677MOL0     H89349   5.509   8.034   4.392  1.8804 -2.0199 -1.3387
  677MOL0     H89350   7.021   7.119   3.487  0.1967 -3.5861  2.2761
  677MOL0     H89351   7.235   7.023   3.425 -0.4383 -1.3543 -0.0927
  677MOL0     H89352   7.648   7.069   3.186  2.3875 -0.1290 -1.0150
  677MOL0     H89353   7.858   6.956   3.208 -1.1221  2.5999  1.2880
  677MOL0     H89354   8.049   6.802   3.316  2.5236 -0.4422  0.1489
  677MOL0     H89355   8.017   6.830   3.145 -5.2609 -0.8281 -0.6024
  677MOL0     H89356   8.234   6.694   3.229 -1.4185  1.9107  1.3883
  677MOL0     H89357   8.129   6.563   3.239  1.7681 -0.8456  0.3174
  677MOL0     H89358   8.252   6.598   3.028 -0.3985 -0.3208 -0.4597
  677MOL0     H89359   8.160   6.743   2.987  1.3694  0.4940 -0.8535
  677MOL0     H89360   8.073   6.447   2.996  1.8210  1.2406  3.1992
  677MOL0     H89361   7.957   6.582   3.009 -0.9426  0.5363 -1.1029
  677MOL0     H89362   8.127   6.596   2.609  1.2841  0.5258  0.1922
  677MOL0     H89363   7.658   6.576   3.212  2.0133 -0.9084  2.6514
  677MOL0     H89364   7.438   6.687   3.216  0.7277 -0.4065  0.8564
  678MOL0     O89365  10.056   1.700   3.187 -0.4020  1.0586  0.2456
  678MOL0     C89366  10.144   1.619   3.185  0.9488  0.7489  0.0640
  678MOL0     O89367  10.125   1.490   3.213 -0.8811  0.4754  0.2891
  678MOL0     C89368   9.996   1.458   3.238 -0.9329  0.3140 -0.5807
  678MOL0     C89369   9.952   1.449   3.363 -0.0687 -0.2989 -0.3081
  678MOL0     C89370   9.816   1.418   3.386  0.1759 -1.2403 -0.2678
  678MOL0     C89371   9.718   1.407   3.285 -0.8142 -0.0012 -0.0281
  678MOL0     O89372   9.589   1.399   3.323  0.1821  0.1083  0.0504
  678MOL0     C89373   9.501   1.482   3.252  0.8573  0.3750  0.2504
  678MOL0     C89374   9.374   1.495   3.338  0.3120  0.0895  0.3179
  678MOL0     C89375   9.254   1.549   3.266 -0.6353 -0.6892  0.4099
  678MOL0     C89376   9.122   1.560   3.349 -0.3411 -0.4962  0.1799
  678MOL0     C89377   9.030   1.681   3.318  0.5683 -0.4151  0.8934
  678MOL0     C89378   8.903   1.658   3.402  0.2257  0.1534  0.2585
  678MOL0     C89379   8.909   1.754   3.529  0.2424 -0.3055  0.3612
  678MOL0     C89380   8.794   1.717   3.617  0.3120  0.5670 -0.4212
  678MOL0     N89381   8.779   1.820   3.723 -0.2963 -0.4033 -0.3377
  678MOL0     C89382   8.880   1.873   3.787 -0.4700  0.4568  0.0409
  678MOL0     C89383   8.821   1.978   3.859 -0.9277 -0.1045 -0.9507
  678MOL0     C89384   8.901   2.075   3.949 -0.3215 -0.8374 -0.0149
  678MOL0     C89385   8.852   2.051   4.087  1.0574 -0.3807 -0.7847
  678MOL0     C89386   8.709   2.109   4.125 -0.2190 -0.4674 -0.2702
  678MOL0     C89387   8.704   2.259   4.085 -0.1879 -0.9379 -0.7024
  678MOL0     O89388   8.575   2.312   4.134 -0.6018 -0.3153  0.2314
  678MOL0     C89389   8.454   2.269   4.096 -0.1914 -0.0885  0.2918
  678MOL0     C89390   8.336   2.310   4.155 -0.5188 -0.2990 -0.7106
  678MOL0     C89391   8.211   2.258   4.129 -0.2888 -0.0850 -0.3906
  678MOL0     C89392   8.196   2.181   4.017 -0.6046  0.6105  0.5745
  678MOL0     C89393   8.060   2.136   3.974  0.4723 -0.6026 -0.3661
  678MOL0     O89394   7.954   2.186   4.047 -0.1207  0.4341  0.3490
  678MOL0     C89395   7.831   2.146   4.018  0.4351  0.1263  0.4462
  678MOL0     C89396   7.775   2.174   3.893  0.1189 -0.3084  0.9229
  678MOL0     C89397   7.642   2.157   3.857  0.1052 -0.3123  0.4021
  678MOL0     C89398   7.567   2.097   3.952 -0.7825 -0.3756 -0.1256
  678MOL0     O89399   7.434   2.095   3.943  0.0069 -0.0009  0.6344
  678MOL0     C89400   7.359   2.134   4.061 -0.3633  0.4458 -0.5753
  678MOL0     C89401   7.213   2.166   4.013  0.5407 -1.3294 -0.1935
  678MOL0     C89402   7.128   2.037   4.015 -0.0291  0.2778  0.3934
  678MOL0     C89403   6.977   2.060   4.040 -1.2246 -0.1921 -0.3706
  678MOL0     C89404   6.895   1.933   4.018 -0.0708 -0.0203  0.3780
  678MOL0     C89405   6.917   1.880   3.871  0.9386 -0.1075  0.5397
  678MOL0     C89406   6.828   1.759   3.840  0.0937  0.0372  0.5601
  678MOL0     C89407   6.816   1.752   3.685  0.1220  0.6273 -0.5030
  678MOL0    Cl89408   6.979   1.755   3.612  0.1013 -0.0186 -0.0275
  678MOL0     C89409   7.624   2.046   4.074 -0.2040  0.1192  0.0169
  678MOL0     C89410   7.748   2.083   4.105 -0.8554 -0.0807 -0.1133
  678MOL0     O89411   8.058   2.048   3.895 -0.4422 -0.1895  0.1659
  678MOL0     C89412   8.308   2.153   3.930  0.7302 -0.5509 -0.4458
  678MOL0     C89413   8.437   2.202   3.975  0.8451 -0.3522 -0.5997
  678MOL0     N89414   8.686   1.974   3.836 -0.3552  0.2176  0.0989
  678MOL0     N89415   8.660   1.884   3.755 -1.0849  0.1837 -0.7073
  678MOL0     C89416   9.765   1.406   3.151 -0.2966 -0.6288  0.2054
  678MOL0     C89417   9.905   1.426   3.132  0.1584  0.8903  0.7212
  678MOL0     C89418  10.281   1.663   3.167  0.0580 -0.3341  0.5808
  678MOL0     C89419  10.315   1.792   3.135 -0.2520 -0.3321  0.2329
  678MOL0     C89420  10.450   1.833   3.130 -0.2439 -0.6019 -1.3240
  678MOL0     C89421  10.548   1.742   3.160  0.5293 -0.7766  0.7376
  678MOL0     O89422  10.679   1.775   3.158 -0.4180 -0.0592 -0.2468
  678MOL0     C89423  10.727   1.904   3.192  1.5361 -0.6004  0.5268
  678MOL0     C89424  10.722   1.930   3.340 -0.0768  0.2541  0.9121
  678MOL0     C89425  10.763   1.815   3.431 -0.0266  0.9516  0.8737
  678MOL0     C89426  10.906   1.760   3.395 -0.4287 -0.4935  1.3050
  678MOL0     C89427  10.962   1.737   3.523  0.4383 -0.6326 -0.4494
  678MOL0     C89428  11.006   1.701   3.633  1.1640  0.8756 -0.0164
  678MOL0     C89429  10.516   1.612   3.189 -0.1268 -0.4213 -0.0060
  678MOL0     C89430  10.385   1.571   3.194 -0.1732  0.2165 -0.1779
  678MOL0     H89431  10.024   1.473   3.440  0.0390  0.6310 -0.6860
  678MOL0     H89432   9.784   1.406   3.489  0.5116 -3.0285 -0.3402
  678MOL0     H89433   9.485   1.432   3.156  0.6979  0.5134  0.2039
  678MOL0     H89434   9.539   1.583   3.234  0.4882  0.6750  1.0900
  678MOL0     H89435   9.394   1.565   3.419 -1.0348 -0.3363  1.0571
  678MOL0     H89436   9.336   1.406   3.388  3.1841 -1.2217  0.3250
  678MOL0     H89437   9.235   1.485   3.180  1.0242  0.0392 -0.5436
  678MOL0     H89438   9.276   1.644   3.215  2.0089 -2.2270 -1.5576
  678MOL0     H89439   9.068   1.466   3.339 -1.8409  0.5635 -3.0587
  678MOL0     H89440   9.149   1.570   3.454 -1.6410 -0.3996  0.5269
  678MOL0     H89441   9.001   1.686   3.213  2.4300  1.2931  0.3967
  678MOL0     H89442   9.079   1.778   3.332  1.1838 -0.3629 -1.2873
  678MOL0     H89443   8.897   1.552   3.430 -2.1511  0.6554  2.0037
  678MOL0     H89444   8.815   1.683   3.342  0.4147 -0.9487 -0.5142
  678MOL0     H89445   9.006   1.746   3.580 -0.4669 -1.2861  1.6111
  678MOL0     H89446   8.903   1.861   3.509  1.2426 -0.4895 -1.0966
  678MOL0     H89447   8.815   1.617   3.657  0.2240  0.4969 -0.5487
  678MOL0     H89448   8.698   1.711   3.565 -0.1577 -2.1340  0.5844
  678MOL0     H89449   8.984   1.845   3.774 -0.8677 -1.0096 -0.2156
  678MOL0     H89450   8.881   2.171   3.900  0.6610 -1.6929 -2.1986
  678MOL0     H89451   9.009   2.063   3.954 -0.2218  0.5462  3.0550
  678MOL0     H89452   8.917   2.078   4.170  1.0045 -2.1436 -0.1416
  678MOL0     H89453   8.854   1.942   4.094 -0.2718 -0.2942  2.9430
  678MOL0     H89454   8.632   2.052   4.073 -1.8819 -0.6907  2.2661
  678MOL0     H89455   8.688   2.098   4.231 -3.2138  2.7464 -0.3671
  678MOL0     H89456   8.714   2.284   3.979  1.3446 -0.2010 -0.4154
  678MOL0     H89457   8.786   2.301   4.144  0.0617 -2.7114  0.2811
  678MOL0     H89458   8.351   2.367   4.246 -1.2448 -0.7520 -0.3042
  678MOL0     H89459   8.127   2.298   4.185  0.3866  2.8561 -1.2935
  678MOL0     H89460   7.824   2.237   3.819  1.5680 -0.1478  1.9807
  678MOL0     H89461   7.601   2.184   3.760  0.4093 -0.0120  0.3575
  678MOL0     H89462   7.401   2.223   4.108 -0.1187 -0.5072  1.1159
  678MOL0     H89463   7.361   2.054   4.135 -2.0812  0.0978 -0.8645
  678MOL0     H89464   7.208   2.214   3.915  1.0727 -0.6188  0.1149
  678MOL0     H89465   7.171   2.229   4.092  4.5296  0.4520  0.7937
  678MOL0     H89466   7.163   1.973   4.098  3.8790  1.3560 -0.1952
  678MOL0     H89467   7.149   1.993   3.917 -0.0897  0.0704  0.4729
  678MOL0     H89468   6.965   2.082   4.146 -2.0834  1.2421 -0.7340
  678MOL0     H89469   6.927   2.136   3.979 -1.1209  0.0279 -0.1829
  678MOL0     H89470   6.787   1.948   4.029  0.3032  2.1066  1.5874
  678MOL0     H89471   6.920   1.858   4.093 -3.7962 -2.5621 -0.5969
  678MOL0     H89472   7.019   1.845   3.854  0.9312  0.5268 -0.9494
  678MOL0     H89473   6.898   1.962   3.802 -0.5003  1.6912  2.9061
  678MOL0     H89474   6.869   1.666   3.879  0.8920 -0.7020 -1.8554
  678MOL0     H89475   6.725   1.771   3.876 -0.3824 -0.8521 -0.4678
  678MOL0     H89476   6.746   1.833   3.661 -3.5952 -1.1778  3.0128
  678MOL0     H89477   6.757   1.666   3.652 -2.5396  1.9015  0.6056
  678MOL0     H89478   7.572   1.990   4.151 -1.3737 -0.7853 -1.3826
  678MOL0     H89479   7.787   2.060   4.203 -1.7067  3.7423  1.2841
  678MOL0     H89480   8.291   2.094   3.841 -1.2647 -2.6829  1.2173
  678MOL0     H89481   8.518   2.171   3.909  0.0476  0.2102 -1.8797
  678MOL0     H89482   9.705   1.400   3.061 -0.7593  0.6179  0.4119
  678MOL0     H89483   9.948   1.421   3.032 -0.6853  1.7040  0.3027
  678MOL0     H89484  10.241   1.865   3.104  1.5336  1.2994 -0.3755
  678MOL0     H89485  10.477   1.935   3.103  0.4659 -0.9928 -2.1520
  678MOL0     H89486  10.687   1.995   3.147  1.9231  1.3538  3.8293
  678MOL0     H89487  10.829   1.896   3.155  1.4191  2.9942 -0.9277
  678MOL0     H89488  10.794   2.005   3.375 -0.4042 -1.1587  5.2765
  678MOL0     H89489  10.621   1.954   3.374  0.4934  2.3036  1.3405
  678MOL0     H89490  10.695   1.730   3.415  2.1686 -1.2374  2.4066
  678MOL0     H89491  10.755   1.851   3.534 -3.0542  0.5321  0.8584
  678MOL0     H89492  10.902   1.670   3.332  0.1811  0.5828 -0.3334
  678MOL0     H89493  10.963   1.834   3.339  2.8187 -3.2938  0.5731
  678MOL0     H89494  11.047   1.672   3.728  2.4756  1.2364 -0.4437
  678MOL0     H89495  10.605   1.556   3.217  0.1502  0.4022  0.7967
  678MOL0     H89496  10.357   1.470   3.219 -0.0999 -0.5392 -2.8048
  679MOL0     O89497   2.986   8.399  11.194 -0.7477  0.4146 -0.2889
  679MOL0     C89498   3.088   8.450  11.137 -0.3492  0.1697 -0.0484
  679MOL0     O89499   3.082   8.521  11.022  0.6088 -0.5547  0.4354
  679MOL0     C89500   2.982   8.608  10.999 -0.9943  0.4318 -0.6265
  679MOL0     C89501   2.939   8.698  11.097 -0.2781 -0.0723  0.3353
  679MOL0     C89502   2.828   8.782  11.065  0.2034  0.6870 -0.0926
  679MOL0     C89503   2.757   8.776  10.942  0.2799 -0.7341  0.6288
  679MOL0     O89504   2.639   8.854  10.921  0.1049 -0.0596  0.3022
  679MOL0     C89505   2.665   8.996  10.897  0.4208  0.5080 -0.3356
  679MOL0     C89506   2.607   9.024  10.760  0.5751 -0.4326 -0.6650
  679MOL0     C89507   2.459   9.051  10.773  0.0773  0.6142  0.5353
  679MOL0     C89508   2.398   9.089  10.637 -0.0169 -0.1413 -0.0786
  679MOL0     C89509   2.269   9.164  10.667  0.4839 -0.4227 -0.3910
  679MOL0     C89510   2.170   9.153  10.552  0.4117  0.3431 -0.4272
  679MOL0     C89511   2.219   9.233  10.429 -0.0181  0.1969 -0.0478
  679MOL0     C89512   2.120   9.250  10.314  0.8253  0.4342 -0.0269
  679MOL0     N89513   2.079   9.116  10.258 -0.3661 -0.9697 -0.5319
  679MOL0     C89514   2.171   9.002  10.267  0.5475 -0.6087  0.5431
  679MOL0     C89515   2.088   8.905  10.220 -0.0198  0.3690  0.5427
  679MOL0     C89516   2.137   8.764  10.190 -0.2961 -0.0099 -0.7489
  679MOL0     C89517   2.063   8.652  10.270  0.3661 -0.5028 -0.2294
  679MOL0     C89518   2.085   8.672  10.419  0.1670 -0.3062 -0.2620
  679MOL0     C89519   2.228   8.641  10.457  0.2439  0.1645  0.4038
  679MOL0     O89520   2.248   8.502  10.461  0.6483  0.3456 -0.1022
  679MOL0     C89521   2.362   8.441  10.509 -0.2501  0.1335  0.6718
  679MOL0     C89522   2.366   8.305  10.519 -0.2279  0.1030  0.2890
  679MOL0     C89523   2.477   8.233  10.565  0.2755 -0.7845 -0.5490
  679MOL0     C89524   2.587   8.301  10.602 -0.6270 -0.0256 -0.6051
  679MOL0     C89525   2.709   8.241  10.663 -0.0381  0.2039  0.9906
  679MOL0     O89526   2.715   8.114  10.711 -0.1217  0.4004 -0.5276
  679MOL0     C89527   2.833   8.064  10.753 -0.1105  0.3891 -0.4983
  679MOL0     C89528   2.886   8.125  10.866 -0.5002  0.2126  0.1055
  679MOL0     C89529   3.001   8.071  10.925 -0.1366 -0.2538 -0.3481
  679MOL0     C89530   3.064   7.956  10.877  0.8594  0.2823 -0.7088
  679MOL0     O89531   3.164   7.894  10.936  0.4133  0.2746  0.8156
  679MOL0     C89532   3.240   7.952  11.053 -0.2776 -0.1414 -0.0925
  679MOL0     C89533   3.346   7.850  11.092 -0.7935  0.8272  0.1463
  679MOL0     C89534   3.450   7.905  11.197  0.1979 -0.3345  0.8480
  679MOL0     C89535   3.557   7.807  11.237  0.7565 -0.3673 -0.2928
  679MOL0     C89536   3.653   7.870  11.346 -0.2030 -0.3392 -0.6113
  679MOL0     C89537   3.778   7.788  11.363 -0.3741  0.3422 -1.1480
  679MOL0     C89538   3.889   7.886  11.429  0.3814  0.1625  0.3367
  679MOL0     C89539   4.026   7.819  11.442 -0.2078 -0.3524  0.1122
  679MOL0    Cl89540   4.001   7.698  11.570 -0.2826 -0.0427  0.0112
  679MOL0     C89541   3.004   7.885  10.771 -0.4767 -0.1845 -0.1546
  679MOL0     C89542   2.889   7.945  10.703  0.4134  0.0368  0.7848
  679MOL0     O89543   2.802   8.317  10.656  0.1728  0.1824 -0.1668
  679MOL0     C89544   2.586   8.443  10.598  0.2652 -0.2560  0.2185
  679MOL0     C89545   2.479   8.509  10.541 -0.6589 -0.2580  0.3508
  679MOL0     N89546   1.958   8.952  10.186  0.2757  0.7255 -0.3512
  679MOL0     N89547   1.957   9.066  10.226 -0.2519  0.9583 -0.8100
  679MOL0     C89548   2.808   8.688  10.847 -0.5718 -0.2479 -0.7402
  679MOL0     C89549   2.923   8.615  10.873 -0.6678  0.4935 -0.1814
  679MOL0     C89550   3.220   8.402  11.182 -0.1538  0.9817 -0.1058
  679MOL0     C89551   3.328   8.484  11.166 -0.1893 -0.8650  0.2525
  679MOL0     C89552   3.454   8.441  11.181 -0.7568 -0.8252  0.1743
  679MOL0     C89553   3.484   8.319  11.238 -0.6346  1.1488 -0.7141
  679MOL0     O89554   3.614   8.279  11.267  0.5758  0.2378 -0.0591
  679MOL0     C89555   3.724   8.367  11.264  0.0564 -0.5571  0.4796
  679MOL0     C89556   3.840   8.335  11.365 -0.1998  0.5279 -0.4593
  679MOL0     C89557   3.791   8.329  11.512 -0.8263 -0.6088  0.7580
  679MOL0     C89558   3.913   8.296  11.602  0.5294 -0.5412 -0.9375
  679MOL0     C89559   4.032   8.379  11.589 -0.0345 -1.1446  0.2485
  679MOL0     C89560   4.126   8.448  11.578  0.0007 -0.7052 -0.0657
  679MOL0     C89561   3.376   8.243  11.281 -0.2384 -0.0699  0.7347
  679MOL0     C89562   3.242   8.281  11.257  0.5867  0.5220 -0.0108
  679MOL0     H89563   2.972   8.714  11.199 -3.8961 -1.2298  1.8484
  679MOL0     H89564   2.791   8.850  11.140  1.3410  0.5591  0.5959
  679MOL0     H89565   2.774   9.004  10.891  0.4353 -0.2923 -1.6321
  679MOL0     H89566   2.633   9.065  10.976  2.0228  0.1293  0.6928
  679MOL0     H89567   2.624   8.937  10.695 -2.6164 -0.8707 -1.0776
  679MOL0     H89568   2.645   9.115  10.713 -1.7993  1.4310  0.7574
  679MOL0     H89569   2.436   9.122  10.853 -1.0807 -0.9360  1.6595
  679MOL0     H89570   2.426   8.953  10.810  0.8834 -0.2844 -1.0093
  679MOL0     H89571   2.469   9.149  10.579 -1.5511  2.3541  0.4863
  679MOL0     H89572   2.372   8.998  10.581  1.5609 -0.8479  0.2760
  679MOL0     H89573   2.281   9.270  10.691 -2.4473 -0.0015 -0.4442
  679MOL0     H89574   2.228   9.113  10.755 -1.0348  0.0017 -0.8294
  679MOL0     H89575   2.073   9.190  10.588 -0.2147 -1.3111 -0.3329
  679MOL0     H89576   2.149   9.047  10.536 -1.2684 -0.0361  3.3046
  679MOL0     H89577   2.239   9.335  10.462  1.0814  0.0872 -0.3292
  679MOL0     H89578   2.315   9.198  10.390 -1.7161 -0.7062 -3.8347
  679MOL0     H89579   2.167   9.315  10.240  1.9076 -1.1911 -0.8092
  679MOL0     H89580   2.031   9.299  10.355  1.5651 -0.1702  2.5392
  679MOL0     H89581   2.273   8.984  10.297 -0.5917 -2.4555  3.8317
  679MOL0     H89582   2.246   8.770  10.198 -0.2988  2.6363 -1.6507
  679MOL0     H89583   2.117   8.740  10.085 -1.4883 -2.3794 -0.0593
  679MOL0     H89584   2.113   8.561  10.236  0.6803 -1.4231  2.4429
  679MOL0     H89585   1.955   8.643  10.256  0.2032 -0.2127  0.7161
  679MOL0     H89586   2.070   8.777  10.443 -0.3805  0.6802 -4.1952
  679MOL0     H89587   2.023   8.604  10.480  0.9804 -1.8255 -1.0604
  679MOL0     H89588   2.264   8.692  10.546  0.6391 -3.7523  2.7056
  679MOL0     H89589   2.293   8.679  10.377  2.2444 -2.0077  0.8891
  679MOL0     H89590   2.273   8.260  10.484 -0.3325  1.6195 -1.5069
  679MOL0     H89591   2.452   8.128  10.570  1.7626 -1.3960 -3.4470
  679MOL0     H89592   2.842   8.216  10.905  1.5627  0.5945  1.7441
  679MOL0     H89593   3.049   8.132  11.001  0.0469  0.8973 -1.3512
  679MOL0     H89594   3.162   7.953  11.129 -2.9282 -1.4952 -2.5783
  679MOL0     H89595   3.289   8.046  11.026  1.4788 -1.2852 -1.1034
  679MOL0     H89596   3.412   7.836  11.005  2.2644  1.1221  2.2567
  679MOL0     H89597   3.298   7.757  11.123  1.0309 -1.1117 -2.3104
  679MOL0     H89598   3.391   7.941  11.282 -1.0345 -1.0691  0.3447
  679MOL0     H89599   3.495   7.985  11.138  1.3936 -1.8423 -0.3639
  679MOL0     H89600   3.514   7.716  11.280  0.2006 -0.6386 -1.3940
  679MOL0     H89601   3.620   7.778  11.152  2.7965  0.6867  0.7722
  679MOL0     H89602   3.597   7.893  11.437 -0.0293 -0.2873 -0.5164
  679MOL0     H89603   3.687   7.969  11.312  0.1203  0.6238  2.2306
  679MOL0     H89604   3.812   7.745  11.268  0.4290 -1.5804 -0.0638
  679MOL0     H89605   3.754   7.704  11.428 -0.3695  1.7022  0.6788
  679MOL0     H89606   3.898   7.978  11.371 -0.7365  1.3079  1.8998
  679MOL0     H89607   3.849   7.925  11.523  0.0836  1.3380 -0.2566
  679MOL0     H89608   4.097   7.896  11.475  1.8788 -0.7564 -3.0399
  679MOL0     H89609   4.078   7.792  11.350 -0.3765  0.4770 -0.2332
  679MOL0     H89610   3.049   7.792  10.738  0.2217 -0.2726  1.0274
  679MOL0     H89611   2.842   7.898  10.617 -0.6254 -0.0745  1.3951
  679MOL0     H89612   2.667   8.513  10.614 -1.0756  1.2048  0.8868
  679MOL0     H89613   2.491   8.616  10.551 -2.0058  0.3555 -3.2048
  679MOL0     H89614   2.754   8.668  10.755  2.8520 -0.6660 -2.8123
  679MOL0     H89615   2.950   8.545  10.795  1.0666 -0.1296  0.9131
  679MOL0     H89616   3.313   8.578  11.114 -0.0061 -0.8344  0.2529
  679MOL0     H89617   3.533   8.505  11.144 -0.4160 -0.6072  1.2491
  679MOL0     H89618   3.685   8.469  11.271 -2.2130 -1.4368  1.9712
  679MOL0     H89619   3.769   8.357  11.165  2.1262  0.2939  1.2680
  679MOL0     H89620   3.874   8.233  11.350  0.9825  0.8679 -0.1641
  679MOL0     H89621   3.922   8.408  11.364 -0.4697  1.0543  3.1953
  679MOL0     H89622   3.708   8.260  11.528  0.4066 -1.8825  2.0809
  679MOL0     H89623   3.749   8.427  11.534 -0.8238 -0.4779  0.1841
  679MOL0     H89624   3.882   8.299  11.707  1.2136  2.2215 -0.7306
  679MOL0     H89625   3.947   8.195  11.580  1.3001 -0.6578  0.6572
  679MOL0     H89626   4.215   8.509  11.576  0.1663 -0.9465 -0.1158
  679MOL0     H89627   3.396   8.144  11.321  0.6641 -0.0293  0.4116
  679MOL0     H89628   3.154   8.221  11.279  1.9200 -1.3497  0.5117
  680MOL0     O89629   6.662   8.893  10.014 -0.1866  0.5341 -0.3646
  680MOL0     C89630   6.691   8.772   9.998  0.4916  0.2498  0.5384
  680MOL0     O89631   6.602   8.660  10.019  0.0153 -0.6702 -0.3111
  680MOL0     C89632   6.496   8.693  10.098  0.6937 -0.0621 -1.0594
  680MOL0     C89633   6.379   8.739  10.037 -0.3686 -0.8108  0.3180
  680MOL0     C89634   6.265   8.767  10.113  0.8949 -0.9540 -0.7383
  680MOL0     C89635   6.266   8.767  10.258  0.5229  0.0400  0.3487
  680MOL0     O89636   6.157   8.798  10.340  0.2055  0.1117 -0.7379
  680MOL0     C89637   6.045   8.850  10.271  0.4460  0.6756  0.7645
  680MOL0     C89638   5.926   8.875  10.366  1.5420  0.2034 -1.3848
  680MOL0     C89639   5.805   8.930  10.296 -0.0023  0.2866  0.4019
  680MOL0     C89640   5.702   8.995  10.397 -0.1618 -1.0197  0.4599
  680MOL0     C89641   5.668   8.888  10.510 -0.1595 -0.7607 -0.3239
  680MOL0     C89642   5.534   8.906  10.579 -0.0247 -0.2990  0.6186
  680MOL0     C89643   5.479   9.044  10.607  0.1926  0.4156  0.4274
  680MOL0     C89644   5.518   9.101  10.738 -0.3025  0.0498 -0.1527
  680MOL0     N89645   5.477   9.240  10.740 -0.0194 -0.4572 -0.3435
  680MOL0     C89646   5.351   9.287  10.700  0.0345  0.8260  1.2775
  680MOL0     C89647   5.355   9.424  10.715  0.2226  0.7495 -0.4681
  680MOL0     C89648   5.242   9.522  10.687 -0.1543 -0.0971 -0.8472
  680MOL0     C89649   5.175   9.571  10.819 -0.1272 -0.6827  0.0534
  680MOL0     C89650   5.040   9.519  10.841  0.5102 -0.3473  0.0481
  680MOL0     C89651   4.930   9.556  10.739 -0.4400 -0.0808  0.1946
  680MOL0     O89652   4.832   9.460  10.724 -0.0471 -0.1421 -0.0331
  680MOL0     C89653   4.714   9.492  10.659 -0.6575 -0.1026 -0.8240
  680MOL0     C89654   4.698   9.602  10.578 -0.4991 -0.2509 -0.7522
  680MOL0     C89655   4.570   9.640  10.533 -0.1560  0.1773 -0.3088
  680MOL0     C89656   4.455   9.571  10.574  0.7157  0.9145 -0.0462
  680MOL0     C89657   4.321   9.614  10.529  0.0916  0.2623 -0.0190
  680MOL0     O89658   4.214   9.579  10.615  0.1010 -0.0330  0.6564
  680MOL0     C89659   4.085   9.612  10.590  0.4802 -0.1152 -0.6139
  680MOL0     C89660   4.037   9.697  10.489 -0.0724  0.6180  0.2609
  680MOL0     C89661   3.898   9.711  10.470 -0.4219  0.1910 -0.2443
  680MOL0     C89662   3.808   9.645  10.549 -0.1970  0.3281 -0.0264
  680MOL0     O89663   3.680   9.677  10.533 -0.2055  0.5326  0.0578
  680MOL0     C89664   3.621   9.646  10.401 -0.4329 -0.5307  0.1059
  680MOL0     C89665   3.480   9.589  10.398  0.6769  0.0166  0.2847
  680MOL0     C89666   3.421   9.577  10.258 -0.1392 -0.6351  0.0287
  680MOL0     C89667   3.263   9.538  10.260 -0.0225 -0.8969  0.2040
  680MOL0     C89668   3.183   9.673  10.281 -0.1480  0.9118  0.4011
  680MOL0     C89669   3.035   9.656  10.248 -0.3157  0.0504  0.3450
  680MOL0     C89670   2.967   9.786  10.228  1.1566 -0.2151 -0.0518
  680MOL0     C89671   2.826   9.775  10.169 -0.0666 -0.1228 -0.1579
  680MOL0    Cl89672   2.843   9.715  10.004  0.3326 -0.0111 -0.1133
  680MOL0     C89673   3.856   9.553  10.644  0.3943 -0.3446 -0.1208
  680MOL0     C89674   3.993   9.543  10.667  0.3734  0.7747 -0.2375
  680MOL0     O89675   4.313   9.666  10.421  0.1715 -0.0439 -0.4923
  680MOL0     C89676   4.472   9.465  10.666 -0.6297  0.3363  1.2192
  680MOL0     C89677   4.601   9.422  10.707 -0.8457 -0.6775 -0.8143
  680MOL0     N89678   5.480   9.457  10.767  0.3928 -0.3987  0.0033
  680MOL0     N89679   5.547   9.348  10.786  0.0612 -0.7603  0.3952
  680MOL0     C89680   6.384   8.730  10.317  0.2075  0.6916 -0.7093
  680MOL0     C89681   6.491   8.677  10.238 -0.8310  0.0134 -0.2032
  680MOL0     C89682   6.830   8.745   9.964 -0.2284  0.7625  0.1449
  680MOL0     C89683   6.912   8.841   9.907  0.2344 -0.3317  1.0974
  680MOL0     C89684   7.050   8.812   9.875  0.6544 -0.2951  0.4767
  680MOL0     C89685   7.094   8.680   9.907 -0.5723 -0.1548 -0.2766
  680MOL0     O89686   7.229   8.660   9.888  0.0717 -1.1430  0.1848
  680MOL0     C89687   7.298   8.593   9.996  0.1277 -0.4771 -0.3430
  680MOL0     C89688   7.439   8.644   9.997  0.6813 -0.6027  0.3297
  680MOL0     C89689   7.503   8.600   9.868  0.4887  0.1293  0.0133
  680MOL0     C89690   7.652   8.640   9.843  0.5043  0.5512 -0.3624
  680MOL0     C89691   7.686   8.782   9.834 -0.4424 -1.1221 -0.3299
  680MOL0     C89692   7.707   8.898   9.846  0.1044 -0.9399 -0.1235
  680MOL0     C89693   7.009   8.583   9.958  0.8041 -0.4312 -0.3332
  680MOL0     C89694   6.882   8.618   9.998 -0.1160 -0.3212  0.4158
  680MOL0     H89695   6.375   8.746   9.929 -0.3967 -1.0690  0.3038
  680MOL0     H89696   6.184   8.804  10.051  2.7166 -1.7342 -3.8149
  680MOL0     H89697   6.017   8.770  10.201  1.8645  0.4583  0.4203
  680MOL0     H89698   6.068   8.944  10.222 -2.5137  1.8666  1.4408
  680MOL0     H89699   5.960   8.943  10.444 -0.2717 -1.0739  0.6206
  680MOL0     H89700   5.890   8.787  10.420 -1.8670  2.7351  0.9252
  680MOL0     H89701   5.760   8.845  10.244 -1.0231  0.1348  1.4918
  680MOL0     H89702   5.832   9.001  10.218  2.1732 -2.5507 -1.6854
  680MOL0     H89703   5.737   9.087  10.445 -0.9149 -1.0216  1.0356
  680MOL0     H89704   5.609   9.016  10.343 -0.0698 -0.8655  0.3609
  680MOL0     H89705   5.743   8.892  10.589 -0.6521 -1.6215  0.1994
  680MOL0     H89706   5.667   8.789  10.464  0.7590 -0.7722 -0.3452
  680MOL0     H89707   5.528   8.848  10.672  0.8305 -2.0261 -0.3578
  680MOL0     H89708   5.467   8.852  10.511 -0.2502  0.4059  0.2787
  680MOL0     H89709   5.503   9.109  10.522 -1.8077 -0.1971 -0.6808
  680MOL0     H89710   5.371   9.027  10.609  0.5473 -2.2511  1.4834
  680MOL0     H89711   5.625   9.083  10.739  0.0464  1.4494 -2.5377
  680MOL0     H89712   5.466   9.052  10.821 -0.2237 -2.8465 -1.6954
  680MOL0     H89713   5.268   9.232  10.657 -0.4282  1.4220  1.3946
  680MOL0     H89714   5.170   9.481  10.616 -1.0949 -1.2496  0.7069
  680MOL0     H89715   5.272   9.612  10.634 -0.7498 -1.1305 -3.0687
  680MOL0     H89716   5.176   9.680  10.826  2.1234 -0.6650  0.2888
  680MOL0     H89717   5.232   9.534  10.904 -0.1182  0.9322  0.7961
  680MOL0     H89718   5.047   9.410  10.845 -0.5278 -0.3895  2.2470
  680MOL0     H89719   5.011   9.549  10.942  1.1915 -1.0466  0.4590
  680MOL0     H89720   4.973   9.580  10.641 -2.6034  2.8506 -0.1911
  680MOL0     H89721   4.886   9.647  10.780  0.2766  0.3733 -0.0217
  680MOL0     H89722   4.781   9.668  10.559 -1.6524  2.3447  2.2784
  680MOL0     H89723   4.563   9.734  10.480 -0.6150 -0.0412 -0.6355
  680MOL0     H89724   4.096   9.745  10.411 -0.0099 -0.7177 -0.5373
  680MOL0     H89725   3.850   9.772  10.394  0.0529  1.6076  0.5357
  680MOL0     H89726   3.693   9.587  10.342  0.0613  2.7165 -2.8255
  680MOL0     H89727   3.622   9.736  10.340 -0.6033 -1.6324 -1.6047
  680MOL0     H89728   3.418   9.653  10.461  1.5668  3.2145 -1.8564
  680MOL0     H89729   3.494   9.487  10.435  2.9435  0.5407  1.0025
  680MOL0     H89730   3.490   9.514  10.201  3.6785  0.8060  2.6421
  680MOL0     H89731   3.434   9.677  10.215 -1.7522  0.8897  2.8409
  680MOL0     H89732   3.246   9.502  10.159  2.3750 -1.1729 -0.1636
  680MOL0     H89733   3.237   9.457  10.329  0.6664 -0.7208  0.6746
  680MOL0     H89734   3.218   9.750  10.212  3.0658  0.3494  1.2757
  680MOL0     H89735   3.187   9.713  10.383  1.3067  0.9813  0.3343
  680MOL0     H89736   2.973   9.608  10.324  1.0975 -1.0716  0.8465
  680MOL0     H89737   3.045   9.604  10.152  1.4722 -0.6060  0.8427
  680MOL0     H89738   2.958   9.838  10.324  1.0814 -0.5009  0.0990
  680MOL0     H89739   3.028   9.843  10.158  1.0679  0.1501  0.1692
  680MOL0     H89740   2.789   9.878  10.175 -0.3294 -0.1684 -0.8676
  680MOL0     H89741   2.764   9.708  10.228 -0.0049  1.9897  2.4658
  680MOL0     H89742   3.785   9.494  10.701  1.5725  0.6801  2.5780
  680MOL0     H89743   4.033   9.468  10.734  0.1657  0.1050 -0.8491
  680MOL0     H89744   4.386   9.407  10.695 -1.7616  1.6803  0.6511
  680MOL0     H89745   4.604   9.348  10.785  1.3636 -2.2217 -2.2544
  680MOL0     H89746   6.381   8.727  10.425  0.5739 -0.9529 -0.7081
  680MOL0     H89747   6.575   8.627  10.284  0.0530  1.7834  0.1773
  680MOL0     H89748   6.867   8.938   9.888  0.1680 -0.5568  0.0672
  680MOL0     H89749   7.109   8.894   9.835 -2.7091  1.0669 -2.2265
  680MOL0     H89750   7.298   8.484   9.993 -0.9160 -0.5084 -3.4351
  680MOL0     H89751   7.261   8.622  10.095  1.1030 -2.2324  0.5810
  680MOL0     H89752   7.437   8.752  10.012 -1.7636 -0.5635  0.2069
  680MOL0     H89753   7.498   8.611  10.084  0.7344 -1.5686 -0.0544
  680MOL0     H89754   7.450   8.634   9.779  1.6974 -1.4610 -1.3730
  680MOL0     H89755   7.503   8.491   9.863 -1.8043  0.1340 -0.8005
  680MOL0     H89756   7.713   8.595   9.922  0.9243  3.5302  1.1303
  680MOL0     H89757   7.678   8.599   9.745  1.0989  2.6052 -1.1111
  680MOL0     H89758   7.737   9.000   9.846  2.2232 -1.5132  0.5103
  680MOL0     H89759   7.050   8.484   9.976  0.1748 -0.6367 -0.0153
  680MOL0     H89760   6.822   8.546  10.052  0.5053 -2.0045 -1.0322
  681MOL0     O89761   9.604   3.537   5.334  0.5780  0.4352  0.3857
  681MOL0     C89762   9.716   3.502   5.291 -0.2432  0.3637  1.1303
  681MOL0     O89763   9.788   3.389   5.335 -0.1888 -0.4340 -0.1957
  681MOL0     C89764   9.734   3.290   5.417  0.2016 -0.2032 -0.3121
  681MOL0     C89765   9.805   3.228   5.515 -0.6516  0.1999  0.1492
  681MOL0     C89766   9.739   3.149   5.606 -0.3815 -0.0483  1.0023
  681MOL0     C89767   9.601   3.107   5.592 -0.3485 -0.6039  0.1602
  681MOL0     O89768   9.538   3.026   5.681 -0.2815 -0.2526  0.2338
  681MOL0     C89769   9.396   3.038   5.692  0.3160 -0.5791 -0.3090
  681MOL0     C89770   9.356   2.933   5.807 -0.3786 -0.9259 -0.4179
  681MOL0     C89771   9.210   2.944   5.829 -0.1903  0.0574  0.3282
  681MOL0     C89772   9.185   2.866   5.955  0.1358 -0.2423 -0.3322
  681MOL0     C89773   9.039   2.845   6.004  0.1201 -1.0334 -0.0254
  681MOL0     C89774   8.967   2.747   5.900 -0.0563  0.1127 -0.3178
  681MOL0     C89775   8.814   2.784   5.902  0.2738  0.5944 -1.0347
  681MOL0     C89776   8.726   2.685   5.838  0.4886 -0.6605  0.5297
  681MOL0     N89777   8.584   2.730   5.861 -0.6091 -0.0624 -0.1999
  681MOL0     C89778   8.516   2.726   5.976  0.2604 -0.4411 -0.1523
  681MOL0     C89779   8.388   2.752   5.940  1.0948  0.6515  0.9897
  681MOL0     C89780   8.276   2.745   6.036 -0.4216  0.0456  0.8993
  681MOL0     C89781   8.146   2.797   5.972  0.9111  0.5694  0.9474
  681MOL0     C89782   8.019   2.808   6.062 -0.3409  0.3070  0.5483
  681MOL0     C89783   7.916   2.887   5.979 -0.9661  0.0820 -0.5266
  681MOL0     O89784   7.807   2.922   6.068  0.3699  0.0543  0.7292
  681MOL0     C89785   7.692   2.844   6.064  0.3902  0.2607  0.4522
  681MOL0     C89786   7.671   2.720   6.009 -0.6057  1.0171  0.7296
  681MOL0     C89787   7.565   2.634   6.026 -0.7579 -0.2168  0.4854
  681MOL0     C89788   7.466   2.671   6.121  0.2761  0.0295 -0.6474
  681MOL0     C89789   7.351   2.586   6.142  0.3248 -0.2062  0.8401
  681MOL0     O89790   7.355   2.466   6.081  0.7151  0.1676  0.4888
  681MOL0     C89791   7.257   2.370   6.087  0.2905  0.3213  0.2303
  681MOL0     C89792   7.118   2.394   6.092 -0.2551  0.3640  1.3074
  681MOL0     C89793   7.024   2.290   6.100 -0.2244 -1.0461 -0.1440
  681MOL0     C89794   7.061   2.158   6.105  0.2471  0.1641 -0.5011
  681MOL0     O89795   6.962   2.061   6.112  1.4199 -0.6591 -0.0654
  681MOL0     C89796   6.955   1.961   6.006  0.3901  0.8874  0.1934
  681MOL0     C89797   6.873   2.010   5.888  0.1847  0.5770 -0.4670
  681MOL0     C89798   6.723   2.021   5.933  0.4584 -0.5848 -0.1932
  681MOL0     C89799   6.650   1.889   5.909 -0.9562  0.2452  1.0037
  681MOL0     C89800   6.500   1.894   5.949  0.6730 -0.8214  0.2048
  681MOL0     C89801   6.417   1.774   5.892  0.7581 -0.7391  0.3024
  681MOL0     C89802   6.266   1.820   5.865 -0.2322 -0.0802 -0.8002
  681MOL0     C89803   6.187   1.702   5.816  0.7509 -0.0838 -0.3346
  681MOL0    Cl89804   6.250   1.649   5.654 -0.2534 -0.0160 -0.5953
  681MOL0     C89805   7.199   2.130   6.094 -0.5189  0.2884  0.8180
  681MOL0     C89806   7.290   2.239   6.081 -0.0121  0.4763  0.9388
  681MOL0     O89807   7.256   2.624   6.211 -0.6535  0.2594 -0.0725
  681MOL0     C89808   7.480   2.790   6.184 -1.0310  0.1388  0.3644
  681MOL0     C89809   7.592   2.873   6.156 -0.1199 -0.1431  0.2462
  681MOL0     N89810   8.389   2.773   5.802  0.4028  0.1653  0.2347
  681MOL0     N89811   8.506   2.754   5.756 -0.0435 -0.1891  0.1059
  681MOL0     C89812   9.538   3.157   5.475 -0.2358 -0.8173 -0.1999
  681MOL0     C89813   9.598   3.258   5.394 -0.1787 -0.5619 -0.4393
  681MOL0     C89814   9.783   3.577   5.185 -0.8277 -0.5292 -0.2393
  681MOL0     C89815   9.729   3.685   5.113  0.2264 -0.4331  0.0612
  681MOL0     C89816   9.797   3.738   5.002  0.0327 -0.3383 -0.4318
  681MOL0     C89817   9.927   3.709   4.973 -0.0631  0.4269 -1.2874
  681MOL0     O89818   9.983   3.782   4.870 -0.2944  0.4673  0.2282
  681MOL0     C89819  10.110   3.754   4.838 -1.0603  0.8592 -0.6560
  681MOL0     C89820  10.137   3.814   4.701  0.0372 -0.5817 -0.5831
  681MOL0     C89821  10.271   3.774   4.638 -0.6556 -0.0097 -0.1468
  681MOL0     C89822  10.276   3.621   4.633 -0.6835  0.9018  0.1245
  681MOL0     C89823  10.366   3.574   4.525 -0.4197  0.1044  0.1391
  681MOL0     C89824  10.420   3.517   4.435  0.2603  0.0271 -0.1394
  681MOL0     C89825   9.988   3.607   5.049  0.5601 -0.8109 -0.4517
  681MOL0     C89826   9.913   3.542   5.149 -0.1081 -0.4924  0.5070
  681MOL0     H89827   9.912   3.250   5.516 -0.0580 -2.3503 -0.4006
  681MOL0     H89828   9.789   3.114   5.696 -0.1698  0.5455  1.1185
  681MOL0     H89829   9.344   3.013   5.599  1.3715 -3.1266 -0.2836
  681MOL0     H89830   9.370   3.138   5.729 -1.6690 -0.7249 -1.1512
  681MOL0     H89831   9.415   2.961   5.895 -2.1601  1.0199  0.2493
  681MOL0     H89832   9.381   2.834   5.769 -0.6374 -1.4336  0.6945
  681MOL0     H89833   9.171   2.889   5.744  0.9747 -0.3077  0.0078
  681MOL0     H89834   9.173   3.047   5.827  2.4756  1.1273  1.5780
  681MOL0     H89835   9.223   2.765   5.943  0.5651  0.0179 -1.2769
  681MOL0     H89836   9.244   2.920   6.029 -1.3328  1.0430 -0.0425
  681MOL0     H89837   8.996   2.945   5.989  0.8626 -0.5952  0.7283
  681MOL0     H89838   9.031   2.810   6.107  2.3123  0.9177  0.8881
  681MOL0     H89839   8.984   2.642   5.929 -0.1816  0.4608  1.0912
  681MOL0     H89840   9.004   2.763   5.798 -1.3841 -2.5728 -1.3321
  681MOL0     H89841   8.773   2.785   6.003 -2.1253  1.7564 -1.9609
  681MOL0     H89842   8.799   2.875   5.844  0.0896  0.4323 -1.2432
  681MOL0     H89843   8.732   2.589   5.890 -0.8765  0.0476  2.0734
  681MOL0     H89844   8.744   2.677   5.730  0.6791  0.4969  0.4582
  681MOL0     H89845   8.550   2.704   6.076 -0.3262 -3.7253 -0.5742
  681MOL0     H89846   8.294   2.808   6.123  0.2105  1.3892 -0.1750
  681MOL0     H89847   8.263   2.642   6.071 -0.2277  0.7138  3.0626
  681MOL0     H89848   8.126   2.725   5.892  1.9041  1.2126  0.0804
  681MOL0     H89849   8.167   2.891   5.919  1.5011  1.1454  2.1447
  681MOL0     H89850   7.988   2.714   6.108  0.2838  1.1137  2.7507
  681MOL0     H89851   8.060   2.868   6.143  4.2436  0.4430 -1.5452
  681MOL0     H89852   7.882   2.840   5.886 -1.1585  1.0297 -0.9435
  681MOL0     H89853   7.964   2.984   5.961 -0.1964 -0.2339 -0.2504
  681MOL0     H89854   7.750   2.683   5.945 -1.4757 -0.4107  0.4366
  681MOL0     H89855   7.568   2.555   5.951  2.2303  3.1042 -3.2995
  681MOL0     H89856   7.080   2.495   6.090 -1.7395 -0.1900  0.5814
  681MOL0     H89857   6.920   2.321   6.106  0.7392  2.2878  1.1709
  681MOL0     H89858   6.910   1.871   6.048  1.5458  0.5261  0.6862
  681MOL0     H89859   7.058   1.931   5.983 -0.1442 -0.6100 -0.3693
  681MOL0     H89860   6.881   1.932   5.812 -1.3367  0.2397 -0.3069
  681MOL0     H89861   6.914   2.107   5.856 -0.8821  0.7053 -1.4957
  681MOL0     H89862   6.678   2.095   5.866 -0.9355 -1.4842 -0.2822
  681MOL0     H89863   6.702   2.047   6.037 -1.9633 -1.4243 -0.4309
  681MOL0     H89864   6.671   1.855   5.807 -0.2457  1.9668  0.5364
  681MOL0     H89865   6.706   1.823   5.975  2.1460  1.4991 -0.2156
  681MOL0     H89866   6.458   1.989   5.913  1.5234  0.4151  2.2902
  681MOL0     H89867   6.476   1.897   6.055 -2.2308  0.1933 -0.3734
  681MOL0     H89868   6.430   1.698   5.969  1.1676  2.0893  3.2911
  681MOL0     H89869   6.449   1.733   5.796 -1.7898 -0.5954 -0.7047
  681MOL0     H89870   6.216   1.844   5.960 -2.2032 -0.6923 -1.6476
  681MOL0     H89871   6.263   1.901   5.792  0.2549 -0.1557 -0.9087
  681MOL0     H89872   6.080   1.725   5.813  0.9192  0.6282 -2.4231
  681MOL0     H89873   6.198   1.616   5.882 -1.1016  0.1685  0.3472
  681MOL0     H89874   7.239   2.029   6.103  0.5939  0.4787 -1.2490
  681MOL0     H89875   7.393   2.204   6.085 -0.7515 -1.8978  4.4532
  681MOL0     H89876   7.408   2.811   6.263 -0.4890 -0.0045  0.9043
  681MOL0     H89877   7.595   2.965   6.214 -0.7162  0.0077  0.0442
  681MOL0     H89878   9.433   3.135   5.460 -0.7400 -0.5957  2.5667
  681MOL0     H89879   9.537   3.306   5.318 -0.9122 -0.1578  0.3880
  681MOL0     H89880   9.626   3.714   5.128  0.6256  0.7247  0.6818
  681MOL0     H89881   9.749   3.814   4.941  0.2626  1.1633  1.1548
  681MOL0     H89882  10.109   3.646   4.822 -1.0443  0.4668  1.6241
  681MOL0     H89883  10.180   3.773   4.920 -3.2386 -0.1886  1.5935
  681MOL0     H89884  10.053   3.794   4.635  0.0242  1.5079 -1.2568
  681MOL0     H89885  10.140   3.921   4.722  1.3772 -0.7138  0.0305
  681MOL0     H89886  10.361   3.819   4.683 -0.6973  0.4386 -0.4991
  681MOL0     H89887  10.262   3.813   4.537  0.1957 -0.2390 -0.3167
  681MOL0     H89888  10.306   3.574   4.727 -2.9973 -1.9746 -0.3829
  681MOL0     H89889  10.184   3.563   4.618 -0.0046 -0.2756  0.3479
  681MOL0     H89890  10.466   3.492   4.342  1.6499  0.4067  0.4108
  681MOL0     H89891  10.090   3.572   5.039  0.9513  0.6815 -2.0995
  681MOL0     H89892   9.973   3.463   5.195  0.2864 -0.8261 -0.5680
  682MOL0     O89893  10.337   6.273   2.876 -0.4999 -0.2004  0.1380
  682MOL0     C89894  10.335   6.154   2.853 -0.4339 -0.9242  0.5738
  682MOL0     O89895  10.227   6.079   2.820 -0.0852 -0.3457  0.4905
  682MOL0     C89896  10.097   6.138   2.829  1.0434 -0.1156 -0.0651
  682MOL0     C89897  10.061   6.205   2.943 -0.0091 -0.8756  0.0857
  682MOL0     C89898   9.931   6.250   2.960 -0.0288 -0.7632  1.2575
  682MOL0     C89899   9.835   6.248   2.858  1.3822  0.3514 -0.9301
  682MOL0     O89900   9.709   6.309   2.872 -0.1748  0.5957 -0.4900
  682MOL0     C89901   9.620   6.259   2.973  0.1207 -0.1801 -0.5092
  682MOL0     C89902   9.493   6.346   2.972 -0.0864  0.0165  0.2063
  682MOL0     C89903   9.364   6.287   3.035 -0.3759  0.2756 -0.4817
  682MOL0     C89904   9.250   6.383   3.056  0.2252  0.4425  1.1205
  682MOL0     C89905   9.122   6.323   3.112 -0.3273 -0.1834 -0.7870
  682MOL0     C89906   9.022   6.442   3.124  0.5686 -0.5182 -0.4118
  682MOL0     C89907   8.892   6.403   3.195  0.3171 -0.2515 -0.2673
  682MOL0     C89908   8.800   6.529   3.193  0.1108 -0.7211 -0.4409
  682MOL0     N89909   8.676   6.518   3.280  0.0855  0.8309  0.2364
  682MOL0     C89910   8.621   6.403   3.324  0.4604  0.3328 -0.0670
  682MOL0     C89911   8.529   6.434   3.417 -0.1576  0.1130  0.2372
  682MOL0     C89912   8.428   6.341   3.482 -0.0084  0.2015  0.1981
  682MOL0     C89913   8.287   6.390   3.465  0.3367  0.2708 -0.3230
  682MOL0     C89914   8.244   6.503   3.559 -0.0641 -1.0144  0.2876
  682MOL0     C89915   8.094   6.541   3.535  1.0646  0.9130  0.6828
  682MOL0     O89916   8.058   6.621   3.644 -0.8027  0.0703  0.9188
  682MOL0     C89917   7.929   6.637   3.671 -0.3489 -0.0820 -0.0820
  682MOL0     C89918   7.860   6.742   3.605  0.2957  0.6619 -0.3683
  682MOL0     C89919   7.719   6.752   3.621 -0.5534  0.6206 -0.8079
  682MOL0     C89920   7.646   6.655   3.695  0.3665  0.3203 -0.2080
  682MOL0     C89921   7.504   6.651   3.705 -0.6037  0.9723 -0.5473
  682MOL0     O89922   7.425   6.721   3.618  0.3248  0.1059 -1.0449
  682MOL0     C89923   7.291   6.747   3.649  0.0180  0.7295  0.0967
  682MOL0     C89924   7.235   6.801   3.772  0.2834 -0.8360 -0.0425
  682MOL0     C89925   7.097   6.788   3.795 -0.2460 -1.3865 -0.4735
  682MOL0     C89926   7.008   6.752   3.698 -0.6537 -0.0532 -0.1706
  682MOL0     O89927   6.876   6.766   3.733 -0.9170 -0.6254 -0.0451
  682MOL0     C89928   6.782   6.725   3.633  0.0100  0.4230 -0.2418
  682MOL0     C89929   6.635   6.727   3.679  0.0860  0.7052 -0.2539
  682MOL0     C89930   6.546   6.666   3.566  0.1176  0.4677 -0.0494
  682MOL0     C89931   6.396   6.664   3.602 -0.3751  1.0816 -0.0511
  682MOL0     C89932   6.304   6.605   3.495  0.2636  0.5679  0.4262
  682MOL0     C89933   6.156   6.582   3.534  0.4952 -0.2274  0.2814
  682MOL0     C89934   6.067   6.703   3.554 -0.2807 -0.5139  0.2816
  682MOL0     C89935   5.934   6.671   3.608 -0.0102 -0.9898  0.1092
  682MOL0    Cl89936   5.814   6.805   3.617 -0.7897 -0.0244 -0.0233
  682MOL0     C89937   7.063   6.712   3.577  0.4688 -0.4925 -0.4219
  682MOL0     C89938   7.197   6.705   3.552 -0.7528 -0.0957  0.4261
  682MOL0     O89939   7.463   6.569   3.789 -0.3076  0.5259  0.6139
  682MOL0     C89940   7.713   6.536   3.736  0.5008  0.0867 -0.7677
  682MOL0     C89941   7.853   6.538   3.729  0.2137  0.6653 -0.4381
  682MOL0     N89942   8.536   6.568   3.427  0.0504  0.5062 -0.3612
  682MOL0     N89943   8.627   6.621   3.351  0.1184  0.4488  0.1432
  682MOL0     C89944   9.868   6.196   2.733 -0.0488  1.1241 -0.6225
  682MOL0     C89945  10.000   6.140   2.724 -0.2494  0.1931  0.6125
  682MOL0     C89946  10.477   6.096   2.850  0.9186 -0.5208  0.9033
  682MOL0     C89947  10.581   6.163   2.915 -0.2090  0.1736 -0.6292
  682MOL0     C89948  10.711   6.110   2.912  0.1055 -0.3063  0.3498
  682MOL0     C89949  10.739   5.979   2.854  0.2206 -0.4219  0.2263
  682MOL0     O89950  10.865   5.924   2.846 -0.4825 -0.3749 -0.6447
  682MOL0     C89951  10.975   5.987   2.915 -0.0574  0.5606  0.8264
  682MOL0     C89952  11.069   5.872   2.907  0.4052 -0.4975 -0.4382
  682MOL0     C89953  11.186   5.884   3.012  0.5272  0.4821  0.1434
  682MOL0     C89954  11.155   5.824   3.147 -0.1231 -0.2486 -0.2906
  682MOL0     C89955  11.059   5.909   3.223 -0.0793 -0.0455 -0.3755
  682MOL0     C89956  10.971   5.975   3.279 -0.6081  0.4380 -0.6755
  682MOL0     C89957  10.626   5.917   2.798  0.2847  0.3264  0.7140
  682MOL0     C89958  10.498   5.965   2.791 -0.9903  0.3141  0.0666
  682MOL0     H89959  10.124   6.218   3.031  0.7522 -4.6143  0.2515
  682MOL0     H89960   9.899   6.292   3.055 -0.5086 -3.6846  2.4972
  682MOL0     H89961   9.653   6.266   3.077 -4.3675 -1.1037  1.1915
  682MOL0     H89962   9.597   6.155   2.949  1.1033 -0.4937 -0.1169
  682MOL0     H89963   9.467   6.373   2.870 -0.8946  2.2059  0.9397
  682MOL0     H89964   9.518   6.442   3.019  1.6593 -0.8006  1.0315
  682MOL0     H89965   9.374   6.234   3.130 -0.6110 -0.4738 -0.8616
  682MOL0     H89966   9.325   6.215   2.961  1.3672 -1.5980  0.3230
  682MOL0     H89967   9.275   6.464   3.125  0.1783 -0.3941  2.1555
  682MOL0     H89968   9.224   6.418   2.956  0.8008 -1.5022  0.2504
  682MOL0     H89969   9.132   6.275   3.209 -3.3949  3.2510  1.4940
  682MOL0     H89970   9.076   6.249   3.047  0.2451 -1.0939 -0.1712
  682MOL0     H89971   9.007   6.494   3.029  1.1447 -3.1309 -2.0370
  682MOL0     H89972   9.060   6.525   3.183 -1.6836 -0.3474  0.9358
  682MOL0     H89973   8.842   6.317   3.150 -1.2676  0.2040  0.5548
  682MOL0     H89974   8.917   6.389   3.301 -1.1239 -0.9078  0.0084
  682MOL0     H89975   8.763   6.543   3.091  0.2077  0.4482 -0.3340
  682MOL0     H89976   8.850   6.617   3.233 -2.2751 -0.3978  2.1368
  682MOL0     H89977   8.639   6.306   3.278  1.6847  0.4843  0.0642
  682MOL0     H89978   8.444   6.322   3.589 -3.2340 -1.8059  0.4804
  682MOL0     H89979   8.430   6.241   3.436 -1.5435 -0.8328  2.1970
  682MOL0     H89980   8.232   6.303   3.502  0.5452 -0.0223 -0.7072
  682MOL0     H89981   8.266   6.413   3.360 -3.2587  1.7999  0.5567
  682MOL0     H89982   8.258   6.479   3.664  1.0139  2.0801  0.9660
  682MOL0     H89983   8.309   6.591   3.546 -1.6215  0.3122  1.1728
  682MOL0     H89984   8.036   6.448   3.526  2.2856  0.1838  0.0037
  682MOL0     H89985   8.077   6.594   3.442 -1.3250 -0.3350  0.3255
  682MOL0     H89986   7.897   6.814   3.532 -0.8439  0.2156 -1.4229
  682MOL0     H89987   7.666   6.838   3.582 -1.2643 -0.3670 -2.0944
  682MOL0     H89988   7.302   6.836   3.849  2.4908  1.3682 -2.7286
  682MOL0     H89989   7.060   6.842   3.882 -1.1567  3.2244 -3.3870
  682MOL0     H89990   6.803   6.620   3.611  0.6029  0.0082  2.0782
  682MOL0     H89991   6.787   6.791   3.545  1.5075 -0.2182 -0.6658
  682MOL0     H89992   6.606   6.830   3.700 -0.8361  0.1493  1.3323
  682MOL0     H89993   6.634   6.669   3.772 -0.6768 -0.4370 -0.9504
  682MOL0     H89994   6.574   6.560   3.554 -0.8666  0.0981  0.8245
  682MOL0     H89995   6.553   6.720   3.471 -1.6060 -0.7897 -0.9355
  682MOL0     H89996   6.388   6.606   3.694 -2.0423 -0.0399 -0.8469
  682MOL0     H89997   6.363   6.767   3.615 -0.5605  1.2457 -1.6265
  682MOL0     H89998   6.349   6.510   3.469 -2.4466 -0.7174  0.0705
  682MOL0     H89999   6.315   6.676   3.412  1.1118 -0.1473 -0.0831
  682MOL0     H90000   6.163   6.519   3.623 -2.6058  0.2202  0.9595
  682MOL0     H90001   6.113   6.514   3.460 -1.3292 -0.2103  1.2620
  682MOL0     H90002   6.124   6.764   3.625  0.9301  1.9657 -2.5865
  682MOL0     H90003   6.045   6.769   3.469  1.0949  2.0877  1.8282
  682MOL0     H90004   5.941   6.636   3.711 -0.9649 -2.0565 -0.1692
  682MOL0     H90005   5.877   6.602   3.545 -1.9277  4.1555 -4.6307
  682MOL0     H90006   6.993   6.689   3.498 -2.1417 -1.6378  2.0599
  682MOL0     H90007   7.228   6.672   3.453 -0.6364  3.7341 -0.9828
  682MOL0     H90008   7.664   6.448   3.776  2.0984 -0.4417  0.1560
  682MOL0     H90009   7.896   6.446   3.766  0.0961  2.0084  3.4166
  682MOL0     H90010   9.806   6.191   2.644  0.2843  0.5393 -0.8333
  682MOL0     H90011  10.027   6.091   2.631 -0.9191  1.1973 -0.1387
  682MOL0     H90012  10.581   6.262   2.959 -0.3281  0.1788 -0.6404
  682MOL0     H90013  10.799   6.158   2.954  0.1550 -0.4083  0.3638
  682MOL0     H90014  10.962   6.025   3.017  2.8532 -0.7787  1.7972
  682MOL0     H90015  11.022   6.065   2.856  2.2265 -2.0052 -1.0094
  682MOL0     H90016  11.020   5.776   2.923 -1.7512  0.9530  2.5964
  682MOL0     H90017  11.114   5.878   2.807  2.4374  1.2055  0.4862
  682MOL0     H90018  11.218   5.985   3.038  1.1548 -0.2473  2.4213
  682MOL0     H90019  11.274   5.825   2.981  2.3169  1.6986  2.5626
  682MOL0     H90020  11.114   5.723   3.135  2.8948 -1.6276  0.2765
  682MOL0     H90021  11.241   5.813   3.214  1.4358 -2.1741 -2.4548
  682MOL0     H90022  10.916   6.034   3.351  1.4844 -0.2108  1.5829
  682MOL0     H90023  10.641   5.812   2.774 -1.3348  0.0253  0.9201
  682MOL0     H90024  10.422   5.900   2.750 -0.9262 -0.1124  0.6113
  683MOL0     O90025   0.016   5.795   9.975  0.0608  0.4071  0.3260
  683MOL0     C90026  -0.005   5.822   9.857 -0.2987 -0.1684 -1.0170
  683MOL0     O90027  -0.127   5.856   9.805 -0.0753 -0.3163 -0.7099
  683MOL0     C90028  -0.248   5.842   9.874  0.3798 -0.7593 -0.4230
  683MOL0     C90029  -0.358   5.928   9.838  0.0331 -0.4794  0.5947
  683MOL0     C90030  -0.483   5.919   9.899 -0.0170 -0.1428 -0.2361
  683MOL0     C90031  -0.509   5.813   9.991 -0.4824 -1.0219 -0.4554
  683MOL0     O90032  -0.639   5.804  10.040  1.1969 -1.0509 -0.3802
  683MOL0     C90033  -0.657   5.698  10.144  0.4129 -0.0755  0.2691
  683MOL0     C90034  -0.807   5.688  10.171  0.8276  0.7727  0.1237
  683MOL0     C90035  -0.880   5.634  10.041 -0.1517 -0.5911 -0.3034
  683MOL0     C90036  -1.025   5.636  10.066 -0.0931  1.0382  0.1625
  683MOL0     C90037  -1.111   5.562   9.957  0.9211  0.3753 -0.1379
  683MOL0     C90038  -1.261   5.600   9.976 -0.0925 -0.3521 -0.8152
  683MOL0     C90039  -1.357   5.544   9.874  0.0135  0.0952 -0.3322
  683MOL0     C90040  -1.489   5.620   9.864  0.5920  0.2826  0.5457
  683MOL0     N90041  -1.577   5.556   9.760 -0.0893  0.4951 -0.4115
  683MOL0     C90042  -1.683   5.469   9.793 -0.4752 -0.6244  1.1163
  683MOL0     C90043  -1.720   5.424   9.670  0.1508 -0.1494  0.1897
  683MOL0     C90044  -1.808   5.304   9.648 -0.2227 -0.1213  0.4223
  683MOL0     C90045  -1.952   5.334   9.704  0.5458  0.7106  0.7754
  683MOL0     C90046  -2.037   5.208   9.705  0.9042 -0.1119  0.2894
  683MOL0     C90047  -2.182   5.240   9.738  0.2988  0.2485 -0.0994
  683MOL0     O90048  -2.232   5.322   9.632 -0.1561  0.1956 -0.1424
  683MOL0     C90049  -2.357   5.368   9.629  0.8425 -1.3110  0.5083
  683MOL0     C90050  -2.394   5.405   9.503  1.1940  0.3602 -0.9051
  683MOL0     C90051  -2.526   5.453   9.474 -0.3698 -0.5916 -1.7932
  683MOL0     C90052  -2.623   5.462   9.581  0.0225 -0.0691  0.1427
  683MOL0     C90053  -2.753   5.524   9.555 -0.4879 -0.1948  0.2635
  683MOL0     O90054  -2.816   5.559   9.661 -0.2304 -0.7138 -0.0048
  683MOL0     C90055  -2.953   5.582   9.671 -0.2805  0.8264 -0.6930
  683MOL0     C90056  -3.003   5.644   9.778  0.8400  0.1076  0.4115
  683MOL0     C90057  -3.145   5.650   9.795  0.2455 -0.7323 -0.0137
  683MOL0     C90058  -3.238   5.607   9.692  0.6256  0.0835  0.4186
  683MOL0     O90059  -3.377   5.631   9.685  0.3778 -0.5397  0.5971
  683MOL0     C90060  -3.431   5.752   9.737  0.0375  0.2029  0.2254
  683MOL0     C90061  -3.578   5.747   9.692 -0.1515 -0.1654 -0.5285
  683MOL0     C90062  -3.655   5.873   9.735 -0.1136  0.2578  0.8695
  683MOL0     C90063  -3.798   5.834   9.700 -0.0665  0.3433  0.0486
  683MOL0     C90064  -3.894   5.944   9.747 -0.3824 -0.3764  0.1290
  683MOL0     C90065  -4.038   5.899   9.730 -0.0336 -0.5138  0.0442
  683MOL0     C90066  -4.087   5.864   9.586 -0.0652  0.4166 -0.2065
  683MOL0     C90067  -4.229   5.822   9.593  1.5690  0.8774  0.0474
  683MOL0    Cl90068  -4.337   5.957   9.640 -0.1974  0.2915  0.1540
  683MOL0     C90069  -3.183   5.542   9.582  0.1790  0.2835 -0.9629
  683MOL0     C90070  -3.038   5.534   9.568  0.5676 -0.4640 -0.0481
  683MOL0     O90071  -2.794   5.527   9.432  0.4995 -0.7662  0.2807
  683MOL0     C90072  -2.585   5.424   9.716 -0.0983 -0.4678  0.2020
  683MOL0     C90073  -2.450   5.374   9.736 -0.3017  0.5111  0.4692
  683MOL0     N90074  -1.650   5.493   9.567  0.3755  0.5838 -0.2917
  683MOL0     N90075  -1.562   5.566   9.622 -0.0136 -0.0955  0.6478
  683MOL0     C90076  -0.405   5.731  10.023  0.6535 -0.1074  1.2312
  683MOL0     C90077  -0.277   5.741   9.969  0.1896 -0.3703  0.5385
  683MOL0     C90078   0.110   5.858   9.774 -0.8630 -0.1999  1.0351
  683MOL0     C90079   0.224   5.900   9.832 -0.3067  0.2069  0.4326
  683MOL0     C90080   0.336   5.914   9.754 -0.5866 -0.5453  0.4742
  683MOL0     C90081   0.325   5.905   9.609 -0.5305  0.3570  0.2230
  683MOL0     O90082   0.446   5.913   9.546 -0.6761 -0.5767 -0.2905
  683MOL0     C90083   0.446   5.965   9.413  0.0286  0.5109  1.0769
  683MOL0     C90084   0.587   6.022   9.386  0.0720 -0.0994  0.3416
  683MOL0     C90085   0.706   5.922   9.383  0.5592 -0.3100 -0.9733
  683MOL0     C90086   0.829   5.984   9.329 -0.3502 -0.0350  0.0962
  683MOL0     C90087   0.820   6.003   9.182  0.1565 -0.4934  0.8692
  683MOL0     C90088   0.793   6.025   9.065  0.1387  0.5701 -0.2821
  683MOL0     C90089   0.203   5.879   9.548  0.3905  0.1209 -0.4361
  683MOL0     C90090   0.099   5.850   9.634  0.3331 -0.0089 -0.7393
  683MOL0     H90091  -0.349   5.995   9.753  3.6808 -0.3779  0.8827
  683MOL0     H90092  -0.561   5.985   9.864  0.8695  0.9411 -0.2002
  683MOL0     H90093  -0.611   5.726  10.240  0.5857 -0.6461  0.3582
  683MOL0     H90094  -0.617   5.601  10.113 -1.3325 -0.7268 -0.0302
  683MOL0     H90095  -0.837   5.790  10.195  0.0585  1.3323 -2.8190
  683MOL0     H90096  -0.829   5.613  10.248 -1.5992  1.5940  0.2949
  683MOL0     H90097  -0.841   5.533  10.025  0.5294 -0.4439  0.3795
  683MOL0     H90098  -0.860   5.706   9.961  0.4409  1.2187  1.4191
  683MOL0     H90099  -1.051   5.577  10.155 -1.6704  0.8785 -0.3639
  683MOL0     H90100  -1.055   5.741  10.062 -3.1477  0.2250 -3.7553
  683MOL0     H90101  -1.090   5.455   9.967  1.0226  0.5975  3.0302
  683MOL0     H90102  -1.080   5.602   9.860  0.3468 -0.2732 -0.5953
  683MOL0     H90103  -1.266   5.707   9.958 -1.1034 -0.7881 -3.5145
  683MOL0     H90104  -1.292   5.576  10.079 -1.1964  0.9069 -0.8351
  683MOL0     H90105  -1.308   5.565   9.779 -0.7102  1.0499 -0.5053
  683MOL0     H90106  -1.382   5.439   9.894  3.6479 -0.5590  1.6241
  683MOL0     H90107  -1.471   5.724   9.835  1.0995 -0.1850 -0.8903
  683MOL0     H90108  -1.539   5.625   9.961 -1.1977 -2.2786 -0.1391
  683MOL0     H90109  -1.713   5.423   9.887 -1.5677 -0.5522  0.8262
  683MOL0     H90110  -1.760   5.219   9.696  0.1461  0.4152  1.0257
  683MOL0     H90111  -1.818   5.282   9.541  0.6287  0.2526  0.2570
  683MOL0     H90112  -1.993   5.414   9.643 -0.8402 -0.3087  0.3257
  683MOL0     H90113  -1.935   5.365   9.808  0.1166  0.4089  0.9398
  683MOL0     H90114  -2.041   5.163   9.606 -0.6634  0.0942  0.2362
  683MOL0     H90115  -1.994   5.147   9.785 -2.2997 -0.4701  1.8942
  683MOL0     H90116  -2.195   5.278   9.840 -1.0137  1.0322 -0.5270
  683MOL0     H90117  -2.238   5.147   9.743 -0.5844  0.8364  2.2839
  683MOL0     H90118  -2.321   5.410   9.422  0.4819 -0.4852 -1.6342
  683MOL0     H90119  -2.555   5.507   9.385 -0.0763  0.6601 -1.1538
  683MOL0     H90120  -2.935   5.705   9.837  0.6269 -1.5460  2.4827
  683MOL0     H90121  -3.174   5.708   9.882 -0.3637 -1.4073  0.2416
  683MOL0     H90122  -3.381   5.841   9.695  2.2433 -0.0994  2.0384
  683MOL0     H90123  -3.419   5.759   9.845  1.7530 -0.0251  0.0708
  683MOL0     H90124  -3.615   5.655   9.739 -0.6916  0.1475 -0.3359
  683MOL0     H90125  -3.576   5.729   9.584  5.5325  0.3349 -0.8405
  683MOL0     H90126  -3.617   5.952   9.669 -0.7937 -1.0053 -1.1335
  683MOL0     H90127  -3.636   5.896   9.840  3.0035  2.6347 -0.0650
  683MOL0     H90128  -3.818   5.823   9.593 -2.6268 -1.4664  0.6068
  683MOL0     H90129  -3.827   5.740   9.748 -0.7821  0.7770  0.4864
  683MOL0     H90130  -3.876   6.032   9.684 -2.1366 -1.9028 -2.7697
  683MOL0     H90131  -3.881   5.980   9.849  0.9480 -3.1251  1.0240
  683MOL0     H90132  -4.097   5.986   9.760 -0.6787 -1.1915  0.7507
  683MOL0     H90133  -4.064   5.809   9.787 -0.4343 -1.6223 -1.7999
  683MOL0     H90134  -4.065   5.943   9.513  2.2925  0.9009  0.9536
  683MOL0     H90135  -4.034   5.780   9.540  1.6835  2.1726 -1.6032
  683MOL0     H90136  -4.240   5.735   9.658  2.4086  1.0478  0.4262
  683MOL0     H90137  -4.254   5.794   9.490  1.0397  2.2783 -0.2298
  683MOL0     H90138  -3.243   5.513   9.497 -0.4232 -0.8683 -0.1697
  683MOL0     H90139  -3.006   5.506   9.468  0.7994  0.6613 -0.3107
  683MOL0     H90140  -2.653   5.422   9.800  0.0245 -3.1954  0.3244
  683MOL0     H90141  -2.430   5.324   9.830 -0.1655 -0.7305 -0.2012
  683MOL0     H90142  -0.416   5.653  10.097 -0.6841 -1.8967 -0.7427
  683MOL0     H90143  -0.208   5.673  10.018 -0.6175 -1.9439 -0.4245
  683MOL0     H90144   0.232   5.916   9.939  1.6097 -0.8718  0.5054
  683MOL0     H90145   0.432   5.939   9.797  0.6192 -2.4932 -0.9376
  683MOL0     H90146   0.366   6.038   9.393 -1.4782 -1.5128 -0.8617
  683MOL0     H90147   0.426   5.882   9.344  1.0294  1.6656 -0.6908
  683MOL0     H90148   0.572   6.060   9.284 -1.9171  0.1730  0.7011
  683MOL0     H90149   0.611   6.097   9.461  1.0196  0.2274 -0.2728
  683MOL0     H90150   0.680   5.827   9.336 -1.5537  0.1331 -0.8154
  683MOL0     H90151   0.728   5.891   9.486 -0.4629  0.1466 -0.6025
  683MOL0     H90152   0.855   6.080   9.375 -1.8734  1.0148 -1.1282
  683MOL0     H90153   0.911   5.915   9.352 -0.9695 -0.5513  0.8204
  683MOL0     H90154   0.782   6.035   8.959  1.0164  0.4464 -0.3960
  683MOL0     H90155   0.188   5.870   9.441 -0.3800 -0.4670 -0.2863
  683MOL0     H90156   0.002   5.811   9.604 -0.4889 -0.6622  2.3483
  684MOL0     O90157   6.566  10.609   9.542 -0.0147  0.2776  0.0198
  684MOL0     C90158   6.629  10.695   9.475  0.4580 -0.3715 -0.3617
  684MOL0     O90159   6.570  10.778   9.376  0.5986  0.3523 -0.0829
  684MOL0     C90160   6.443  10.738   9.340  0.4367 -0.3019 -0.2736
  684MOL0     C90161   6.336  10.769   9.418  0.5069 -0.7275 -0.0738
  684MOL0     C90162   6.204  10.735   9.392  0.0072  0.9026  0.2830
  684MOL0     C90163   6.196  10.643   9.278  0.4165 -0.8363  0.4156
  684MOL0     O90164   6.073  10.593   9.228 -0.6524 -0.1084 -1.1868
  684MOL0     C90165   5.948  10.635   9.292  0.9256 -0.6215  0.3949
  684MOL0     C90166   5.843  10.551   9.232  0.8702 -0.0512 -0.7348
  684MOL0     C90167   5.705  10.581   9.303  0.9184  0.5016  0.6186
  684MOL0     C90168   5.600  10.492   9.248  0.7252  0.4614  0.5965
  684MOL0     C90169   5.453  10.538   9.249  0.7351  0.3793  0.2445
  684MOL0     C90170   5.358  10.419   9.213  0.4165  0.2834 -0.0903
  684MOL0     C90171   5.214  10.450   9.241  0.0069  0.2635 -0.2512
  684MOL0     C90172   5.133  10.323   9.236  1.1613 -0.5690 -0.0115
  684MOL0     N90173   4.990  10.353   9.260 -0.4885 -0.4417  1.2022
  684MOL0     C90174   4.890  10.333   9.174 -1.0291 -0.1725  1.2454
  684MOL0     C90175   4.778  10.348   9.248  0.1224  0.3236  0.0063
  684MOL0     C90176   4.643  10.335   9.182  1.2684 -0.2468  0.7871
  684MOL0     C90177   4.529  10.449   9.212 -1.0081  1.6259  0.0124
  684MOL0     C90178   4.448  10.417   9.330 -0.9031 -0.3731  0.3448
  684MOL0     C90179   4.353  10.537   9.355 -0.3896 -0.5528  0.8469
  684MOL0     O90180   4.271  10.573   9.242  0.4164 -0.7706 -0.4610
  684MOL0     C90181   4.164  10.503   9.203 -0.2856 -0.3911 -0.0681
  684MOL0     C90182   4.124  10.390   9.279  0.1360  0.2702  0.0790
  684MOL0     C90183   4.006  10.320   9.245 -0.5358  1.1041 -0.0969
  684MOL0     C90184   3.934  10.359   9.134  0.5958 -0.4938  0.0110
  684MOL0     C90185   3.817  10.274   9.086  0.0323  0.0500  0.7410
  684MOL0     O90186   3.818  10.144   9.137 -0.2225 -1.6965 -0.2210
  684MOL0     C90187   3.711  10.066   9.124 -0.4287 -0.8112  0.4075
  684MOL0     C90188   3.726   9.925   9.118  0.6111  0.1742 -0.4500
  684MOL0     C90189   3.614   9.835   9.099 -0.2749 -0.7235 -0.1901
  684MOL0     C90190   3.484   9.884   9.108  0.1850 -0.2693  0.3791
  684MOL0     O90191   3.369   9.810   9.093 -0.0149  0.3138 -0.2126
  684MOL0     C90192   3.370   9.681   9.168 -0.3193 -0.9705 -0.1939
  684MOL0     C90193   3.246   9.609   9.114 -0.2856 -1.2914 -0.0335
  684MOL0     C90194   3.121   9.683   9.151 -0.0727 -0.0712  0.7345
  684MOL0     C90195   2.992   9.610   9.089 -0.1778  0.5476  0.1218
  684MOL0     C90196   2.853   9.669   9.130 -0.2376 -0.2062  0.2262
  684MOL0     C90197   2.745   9.571   9.135 -0.2234  0.0911 -0.5550
  684MOL0     C90198   2.601   9.625   9.150 -0.0959  1.3658 -0.3009
  684MOL0     C90199   2.558   9.677   9.013  0.6029 -0.1642  0.2069
  684MOL0    Cl90200   2.376   9.693   9.025  0.1512 -0.0240  0.0521
  684MOL0     C90201   3.469  10.021   9.109 -0.5021  0.2668  1.0812
  684MOL0     C90202   3.577  10.108   9.129 -0.7770 -0.4571  0.1216
  684MOL0     O90203   3.736  10.326   9.008 -0.1195  0.5890 -0.3923
  684MOL0     C90204   3.971  10.479   9.064  0.1953 -0.0465  0.3993
  684MOL0     C90205   4.084  10.547   9.093 -0.8320  0.6193 -0.1738
  684MOL0     N90206   4.809  10.344   9.381 -0.3170  0.2835  0.5801
  684MOL0     N90207   4.938  10.352   9.384  0.4305 -0.0118  0.4520
  684MOL0     C90208   6.300  10.614   9.189  0.5241 -0.4005 -0.5885
  684MOL0     C90209   6.423  10.658   9.219 -0.2167 -0.2569  0.2908
  684MOL0     C90210   6.778  10.708   9.501 -0.6323 -0.2098 -0.4717
  684MOL0     C90211   6.824  10.676   9.629  0.2885  0.4294 -0.2080
  684MOL0     C90212   6.964  10.687   9.652 -0.9365  0.2205  0.6755
  684MOL0     C90213   7.055  10.742   9.561  0.3343 -0.9537  0.2693
  684MOL0     O90214   7.184  10.747   9.590 -0.4442 -0.7462  0.4077
  684MOL0     C90215   7.284  10.797   9.495  0.2119 -0.1489 -0.3136
  684MOL0     C90216   7.421  10.748   9.534  0.4655  0.0787 -0.8023
  684MOL0     C90217   7.534  10.776   9.434 -0.2281 -0.3372 -0.6958
  684MOL0     C90218   7.656  10.690   9.460 -0.5802  0.5515  0.0003
  684MOL0     C90219   7.745  10.743   9.565  0.7260  0.6962 -0.2659
  684MOL0     C90220   7.807  10.799   9.658  0.1639  0.3311 -0.2331
  684MOL0     C90221   7.007  10.771   9.434  0.9293 -0.2703 -0.5973
  684MOL0     C90222   6.870  10.757   9.406 -0.2419  0.5550 -1.3679
  684MOL0     H90223   6.353  10.823   9.511 -0.9016  1.6682 -1.1056
  684MOL0     H90224   6.123  10.743   9.465 -0.3290  0.2715 -0.0119
  684MOL0     H90225   5.915  10.736   9.268 -5.0394 -2.5060 -1.2833
  684MOL0     H90226   5.952  10.607   9.398 -2.3417  0.3097  0.8677
  684MOL0     H90227   5.860  10.444   9.244  2.0199  0.2217  0.2855
  684MOL0     H90228   5.834  10.567   9.124 -2.0535 -0.6815 -0.6659
  684MOL0     H90229   5.684  10.686   9.281 -0.4202 -0.0436 -0.9910
  684MOL0     H90230   5.706  10.571   9.412  2.5259  1.2446  0.6963
  684MOL0     H90231   5.609  10.462   9.143 -2.3405 -1.6337  0.7901
  684MOL0     H90232   5.606  10.395   9.299  0.9241 -0.3979 -0.9798
  684MOL0     H90233   5.429  10.628   9.192 -0.3306  0.4774  0.8086
  684MOL0     H90234   5.434  10.560   9.355  0.6045 -0.0333  0.3118
  684MOL0     H90235   5.383  10.326   9.265 -2.3257  0.0815  1.0645
  684MOL0     H90236   5.362  10.405   9.105  1.1428 -0.9513  0.0690
  684MOL0     H90237   5.210  10.492   9.342  2.1225  1.6821 -0.7027
  684MOL0     H90238   5.180  10.535   9.181 -0.7055  1.6160  1.9176
  684MOL0     H90239   5.165  10.248   9.309  1.0876 -3.7269 -2.9424
  684MOL0     H90240   5.146  10.268   9.142  0.9029  0.0382 -0.4093
  684MOL0     H90241   4.897  10.311   9.068 -2.5238  0.0959  1.0716
  684MOL0     H90242   4.605  10.233   9.192 -0.8202  0.6740  3.2455
  684MOL0     H90243   4.660  10.348   9.074 -1.2096  0.0063  0.3753
  684MOL0     H90244   4.462  10.464   9.126 -1.6996  2.5179  0.6836
  684MOL0     H90245   4.591  10.538   9.229 -0.0671  1.3565 -1.7919
  684MOL0     H90246   4.393  10.323   9.320 -1.2030 -0.1488 -0.1281
  684MOL0     H90247   4.516  10.414   9.416  2.1387  1.2854 -1.8062
  684MOL0     H90248   4.424  10.614   9.387  0.7633 -1.2268 -0.0587
  684MOL0     H90249   4.286  10.523   9.441 -1.1008 -0.8554  0.2532
  684MOL0     H90250   4.174  10.345   9.364 -1.4118  0.3982  1.1074
  684MOL0     H90251   3.983  10.229   9.298 -1.0435  2.2991  1.8312
  684MOL0     H90252   3.819   9.875   9.141 -0.5588 -1.5451  0.8885
  684MOL0     H90253   3.615   9.727   9.093 -2.2163 -0.7842 -0.0856
  684MOL0     H90254   3.371   9.691   9.277 -0.6655 -0.5595 -0.2300
  684MOL0     H90255   3.458   9.622   9.141 -0.0530 -1.0219  0.7457
  684MOL0     H90256   3.249   9.510   9.161 -3.8349 -0.7725  1.6663
  684MOL0     H90257   3.262   9.600   9.006  1.6271  2.1251 -0.1628
  684MOL0     H90258   3.129   9.789   9.122 -1.0817  0.8645  3.6050
  684MOL0     H90259   3.105   9.673   9.258 -2.3515 -3.8949  0.2087
  684MOL0     H90260   3.003   9.621   8.980 -0.5267 -0.2444 -0.0039
  684MOL0     H90261   3.010   9.504   9.111  1.2085 -0.2118 -3.8355
  684MOL0     H90262   2.825   9.751   9.063  1.0431  0.6209  0.6579
  684MOL0     H90263   2.862   9.718   9.228  0.5028 -0.5907  0.3554
  684MOL0     H90264   2.765   9.510   9.224 -0.2289 -3.4227 -2.7400
  684MOL0     H90265   2.744   9.500   9.052 -1.3777 -1.6953  0.9008
  684MOL0     H90266   2.531   9.548   9.185  1.0568  0.5941  0.3596
  684MOL0     H90267   2.608   9.708   9.221 -1.9400 -0.2172  1.8932
  684MOL0     H90268   2.589   9.598   8.944  3.1353 -0.0087  1.0799
  684MOL0     H90269   2.598   9.776   8.990 -0.3694 -0.1138 -1.5084
  684MOL0     H90270   3.373  10.070   9.119 -0.9591 -0.0992 -1.0428
  684MOL0     H90271   3.547  10.209   9.155 -0.6422 -1.2837  4.1086
  684MOL0     H90272   3.909  10.516   8.982  0.3822 -1.7078 -0.5506
  684MOL0     H90273   4.112  10.629   9.026  0.0013 -1.1475 -2.1095
  684MOL0     H90274   6.271  10.555   9.102 -2.2340 -1.4632  0.9078
  684MOL0     H90275   6.513  10.647   9.160  0.0501  0.4207  0.5595
  684MOL0     H90276   6.762  10.624   9.701 -0.2625  0.6550 -0.5163
  684MOL0     H90277   7.003  10.661   9.750  2.9184 -4.0577 -1.6539
  684MOL0     H90278   7.278  10.905   9.482  1.6399 -0.0177  0.0195
  684MOL0     H90279   7.274  10.753   9.395 -1.5299  1.4400 -0.8987
  684MOL0     H90280   7.444  10.783   9.635 -1.4479  0.3160 -0.3963
  684MOL0     H90281   7.402  10.640   9.545 -0.5644  0.3463  0.3960
  684MOL0     H90282   7.560  10.880   9.416 -1.9943  0.3255  0.3754
  684MOL0     H90283   7.495  10.742   9.338 -2.6617 -1.9702  0.7506
  684MOL0     H90284   7.623  10.588   9.481 -1.6863  0.9097  0.0412
  684MOL0     H90285   7.715  10.676   9.369 -1.6398 -3.3671 -0.2622
  684MOL0     H90286   7.860  10.838   9.743  1.9022 -0.6135 -0.8153
  684MOL0     H90287   7.064  10.813   9.352  0.9484  1.0393  0.0531
  684MOL0     H90288   6.842  10.774   9.303  1.3670  1.0162 -1.7669
  685MOL0     O90289  10.632   2.164   4.139 -0.6405 -0.4819 -0.5104
  685MOL0     C90290  10.685   2.277   4.156 -0.6285  1.3499  1.5109
  685MOL0     O90291  10.612   2.390   4.171 -0.0909  0.1695 -0.1962
  685MOL0     C90292  10.477   2.378   4.189 -0.0124 -0.1443 -1.0219
  685MOL0     C90293  10.415   2.344   4.318 -0.0724  0.1075 -0.6547
  685MOL0     C90294  10.281   2.338   4.328 -0.2626  0.2874  0.3718
  685MOL0     C90295  10.198   2.377   4.219  0.1288 -0.7513  0.3387
  685MOL0     O90296  10.066   2.361   4.243 -0.4668  1.0591  0.5055
  685MOL0     C90297   9.966   2.405   4.149 -0.5568 -0.0921 -0.3344
  685MOL0     C90298   9.824   2.360   4.196 -0.9527  0.0950  0.0866
  685MOL0     C90299   9.720   2.342   4.080  0.3937 -1.0029 -0.6936
  685MOL0     C90300   9.584   2.334   4.144  0.5497  0.2784 -0.9611
  685MOL0     C90301   9.464   2.308   4.050 -0.7241 -0.1901  0.0406
  685MOL0     C90302   9.429   2.164   4.016 -0.6631 -0.0838  0.1105
  685MOL0     C90303   9.302   2.152   3.922 -0.5868 -1.1442 -0.5155
  685MOL0     C90304   9.340   2.187   3.776  0.6800  0.1857  0.1317
  685MOL0     N90305   9.236   2.140   3.681 -0.0752 -0.4757 -0.0248
  685MOL0     C90306   9.134   2.228   3.637 -1.1275  0.0264 -0.0561
  685MOL0     C90307   9.043   2.143   3.584  0.2632 -0.2386 -0.2921
  685MOL0     C90308   8.918   2.183   3.517 -0.1014 -0.1767 -0.1205
  685MOL0     C90309   8.812   2.253   3.604 -0.2687 -0.2849  0.1193
  685MOL0     C90310   8.690   2.278   3.517  0.5000  0.6599  0.5159
  685MOL0     C90311   8.567   2.350   3.583 -0.4411  0.6516  0.3477
  685MOL0     O90312   8.467   2.375   3.493  0.1025  0.4888  0.6031
  685MOL0     C90313   8.348   2.430   3.533  0.8469 -0.4297  0.6388
  685MOL0     C90314   8.308   2.475   3.659 -1.0260 -0.3012  0.4998
  685MOL0     C90315   8.180   2.523   3.692  0.0741 -0.2861  0.2611
  685MOL0     C90316   8.087   2.533   3.584 -0.1325 -0.6929  0.2689
  685MOL0     C90317   7.959   2.591   3.591 -0.4144 -0.3318 -0.0080
  685MOL0     O90318   7.867   2.529   3.668  0.2204 -0.0289  0.7231
  685MOL0     C90319   7.731   2.561   3.657  0.3881 -0.0542  0.7154
  685MOL0     C90320   7.645   2.447   3.646 -0.5915  0.2934 -0.5544
  685MOL0     C90321   7.511   2.464   3.653  0.8284  0.5005 -0.2325
  685MOL0     C90322   7.461   2.592   3.667  0.1614  0.1177 -0.5248
  685MOL0     O90323   7.327   2.600   3.674  0.5036  0.3212 -0.3921
  685MOL0     C90324   7.255   2.721   3.674 -0.5423 -0.2590  0.3577
  685MOL0     C90325   7.110   2.685   3.653  0.2944 -0.0850 -0.0014
  685MOL0     C90326   7.028   2.812   3.655 -0.7041  0.1889 -0.6091
  685MOL0     C90327   6.882   2.785   3.631  0.3755  0.0971 -0.6566
  685MOL0     C90328   6.820   2.923   3.616  0.2405 -0.4214 -0.5033
  685MOL0     C90329   6.668   2.915   3.579  0.5794 -0.2735 -0.2103
  685MOL0     C90330   6.579   2.881   3.700 -0.2123  0.0141 -0.1952
  685MOL0     C90331   6.432   2.904   3.666 -0.7027  0.6739  0.4177
  685MOL0    Cl90332   6.390   3.073   3.610 -0.1954  0.3978  0.2581
  685MOL0     C90333   7.543   2.710   3.682  0.7049  0.0848 -0.7058
  685MOL0     C90334   7.683   2.690   3.684  1.1418 -0.2894 -0.1065
  685MOL0     O90335   7.926   2.688   3.526  0.6342 -0.4856 -0.7356
  685MOL0     C90336   8.124   2.503   3.456 -0.4503 -0.5898 -0.3433
  685MOL0     C90337   8.252   2.442   3.438 -0.2160 -0.0942  0.0905
  685MOL0     N90338   9.091   2.011   3.603 -0.8314 -0.4118 -0.1580
  685MOL0     N90339   9.208   2.010   3.663  0.6103 -1.0589 -1.0441
  685MOL0     C90340  10.258   2.404   4.096  0.6214 -0.4621  0.3211
  685MOL0     C90341  10.398   2.401   4.083  1.2235 -0.5213 -1.1300
  685MOL0     C90342  10.833   2.291   4.147 -0.3265 -0.5946 -0.1936
  685MOL0     C90343  10.908   2.169   4.147 -0.8565  0.1466  0.3776
  685MOL0     C90344  11.046   2.182   4.146 -0.1246  1.1872 -0.5377
  685MOL0     C90345  11.116   2.304   4.143 -0.3785 -0.3353  0.0560
  685MOL0     O90346  11.254   2.302   4.123  0.3747  0.2758 -0.8620
  685MOL0     C90347  11.299   2.231   4.006 -0.9181 -0.3332  0.2267
  685MOL0     C90348  11.355   2.316   3.904 -0.1983 -0.6868 -0.4295
  685MOL0     C90349  11.404   2.252   3.772 -0.7046  0.2620  0.1141
  685MOL0     C90350  11.502   2.136   3.790  0.1088  0.2772  1.1101
  685MOL0     C90351  11.440   2.003   3.789  0.2146 -0.2017 -1.0390
  685MOL0     C90352  11.350   1.918   3.795 -0.3413  0.2379 -0.5179
  685MOL0     C90353  11.042   2.421   4.155  0.9885  0.7666 -0.2760
  685MOL0     C90354  10.902   2.419   4.158  0.3299  0.8392 -0.2350
  685MOL0     H90355  10.482   2.327   4.401 -1.3605 -0.3398  0.3316
  685MOL0     H90356  10.235   2.332   4.426 -0.9155  0.5382  0.0881
  685MOL0     H90357   9.969   2.353   4.054 -2.1805  1.2343 -1.1635
  685MOL0     H90358   9.964   2.513   4.132 -1.2508  0.8897  4.5040
  685MOL0     H90359   9.786   2.421   4.278 -0.5724 -1.7947  1.7506
  685MOL0     H90360   9.829   2.262   4.245 -2.3030  0.3192  0.7193
  685MOL0     H90361   9.746   2.248   4.031  2.5559 -0.9735  0.3087
  685MOL0     H90362   9.726   2.427   4.011  2.4005 -0.9593 -0.4975
  685MOL0     H90363   9.580   2.269   4.232  1.9504 -0.0110 -1.0930
  685MOL0     H90364   9.568   2.438   4.177 -0.1328  0.7266 -2.5890
  685MOL0     H90365   9.482   2.371   3.963 -2.6814  2.4051  1.3567
  685MOL0     H90366   9.373   2.349   4.095  1.2157  3.5063  1.0480
  685MOL0     H90367   9.412   2.109   4.108  0.6519 -0.4904  0.1259
  685MOL0     H90368   9.515   2.111   3.974 -0.2729 -0.2369  1.0807
  685MOL0     H90369   9.259   2.052   3.928  0.8495 -1.7627 -0.1113
  685MOL0     H90370   9.225   2.220   3.959 -0.2336 -0.4381 -1.0394
  685MOL0     H90371   9.435   2.136   3.759  0.4338 -0.8756  1.6937
  685MOL0     H90372   9.365   2.293   3.769 -0.5981  0.4729 -0.3958
  685MOL0     H90373   9.140   2.336   3.634  1.2466  0.0190  1.7060
  685MOL0     H90374   8.876   2.091   3.476 -0.2080 -0.0358 -0.3267
  685MOL0     H90375   8.941   2.243   3.428 -0.5891  0.1420 -0.0347
  685MOL0     H90376   8.851   2.346   3.648  0.9189 -0.7794  0.1518
  685MOL0     H90377   8.769   2.182   3.675 -2.2295  0.1768 -0.5516
  685MOL0     H90378   8.720   2.346   3.437  1.0217  1.4005  1.3225
  685MOL0     H90379   8.662   2.181   3.475 -0.4742  0.2048  2.1346
  685MOL0     H90380   8.611   2.442   3.622  2.7688 -0.1895 -0.9686
  685MOL0     H90381   8.530   2.286   3.664  1.5696 -1.0455  0.0005
  685MOL0     H90382   8.377   2.449   3.739 -0.8851 -3.0223 -0.4048
  685MOL0     H90383   8.155   2.540   3.796  1.0144  0.1161  0.4307
  685MOL0     H90384   7.688   2.347   3.646 -1.6544 -0.1743  0.4222
  685MOL0     H90385   7.442   2.380   3.646  1.7403 -0.2997  0.1165
  685MOL0     H90386   7.272   2.786   3.588 -1.1114  0.1838  0.5787
  685MOL0     H90387   7.259   2.772   3.771  0.4884  1.1006 -0.3736
  685MOL0     H90388   7.073   2.634   3.743 -1.1102  1.7901  0.5481
  685MOL0     H90389   7.084   2.624   3.566  0.0109 -1.5598  1.0660
  685MOL0     H90390   7.066   2.878   3.577  1.2952  1.0600  1.0355
  685MOL0     H90391   7.053   2.862   3.748  1.0525 -1.6276 -0.0365
  685MOL0     H90392   6.873   2.724   3.540 -0.2950 -1.1046  0.1907
  685MOL0     H90393   6.832   2.736   3.715  0.6113  1.6963  0.4628
  685MOL0     H90394   6.867   2.964   3.527 -1.6739 -0.1229 -1.4365
  685MOL0     H90395   6.846   2.986   3.702 -1.2788 -1.7166  0.9760
  685MOL0     H90396   6.635   2.835   3.512 -0.3410 -1.5947  1.7221
  685MOL0     H90397   6.634   3.008   3.533 -2.2174  0.2223  2.5351
  685MOL0     H90398   6.586   2.774   3.722  2.8243 -0.3684 -2.4032
  685MOL0     H90399   6.605   2.953   3.778 -1.0579 -0.7151  0.7897
  685MOL0     H90400   6.378   2.875   3.757 -1.0217  1.9521  0.6604
  685MOL0     H90401   6.412   2.834   3.585 -1.4315 -0.9480  1.9251
  685MOL0     H90402   7.504   2.812   3.689 -2.7703 -1.2337  2.7005
  685MOL0     H90403   7.748   2.776   3.696  0.2071  0.3090  0.8012
  685MOL0     H90404   8.060   2.512   3.369 -0.7660 -1.5103 -0.2171
  685MOL0     H90405   8.261   2.393   3.341 -3.9741 -4.4539  1.5863
  685MOL0     H90406  10.204   2.426   4.004 -0.2737 -0.3512  0.8621
  685MOL0     H90407  10.437   2.428   3.986  1.5051  0.8945 -0.6618
  685MOL0     H90408  10.862   2.073   4.127 -0.7643 -0.7574  3.9684
  685MOL0     H90409  11.106   2.091   4.149 -2.1891 -0.2305 -0.4900
  685MOL0     H90410  11.214   2.175   3.964 -3.6489  1.4773  2.8731
  685MOL0     H90411  11.376   2.160   4.039  0.8969  0.7064 -1.5794
  685MOL0     H90412  11.276   2.387   3.878  0.2430  1.3322  3.0044
  685MOL0     H90413  11.439   2.371   3.949 -1.3313  0.3468  0.5009
  685MOL0     H90414  11.457   2.332   3.719 -0.8223  0.1997 -0.0950
  685MOL0     H90415  11.325   2.209   3.710 -0.1650  0.4404 -0.7082
  685MOL0     H90416  11.561   2.135   3.697 -0.4062  0.8369  0.7664
  685MOL0     H90417  11.583   2.164   3.858  0.1318  0.0277  1.1837
  685MOL0     H90418  11.273   1.844   3.801 -0.5589  0.3232 -1.9381
  685MOL0     H90419  11.097   2.513   4.172 -1.7373  2.2780  1.0122
  685MOL0     H90420  10.850   2.513   4.174  3.0121  2.6734 -1.4598
  686MOL0     O90421   0.920   7.153   1.946  0.7018  0.3506 -0.5381
  686MOL0     C90422   1.025   7.115   1.889 -0.8098 -1.1301  0.3113
  686MOL0     O90423   1.034   7.036   1.776 -0.1259  0.0828 -0.4177
  686MOL0     C90424   0.916   6.976   1.726 -0.4267 -0.1141  0.0857
  686MOL0     C90425   0.841   6.888   1.801  0.5929  0.0364  0.4630
  686MOL0     C90426   0.715   6.840   1.761 -1.0531  0.2396  0.2191
  686MOL0     C90427   0.681   6.868   1.626  0.1445  1.0293 -0.1435
  686MOL0     O90428   0.557   6.824   1.572 -0.2216  0.9295 -0.1460
  686MOL0     C90429   0.480   6.728   1.647  0.4231  0.0393 -0.1297
  686MOL0     C90430   0.353   6.689   1.564 -0.0383  0.3009  1.0085
  686MOL0     C90431   0.236   6.782   1.584  0.3816 -0.7126 -0.1474
  686MOL0     C90432   0.101   6.720   1.549  0.2147 -0.2208  0.1596
  686MOL0     C90433  -0.021   6.813   1.555  0.0048 -0.0489  0.6201
  686MOL0     C90434  -0.034   6.896   1.686 -0.7352 -0.0664 -0.4358
  686MOL0     C90435  -0.157   6.986   1.685  0.7811  0.2821  0.4972
  686MOL0     C90436  -0.199   7.024   1.829  0.5359 -0.6875 -0.2261
  686MOL0     N90437  -0.274   6.918   1.891  0.1689 -0.0023 -0.3016
  686MOL0     C90438  -0.390   6.859   1.856 -0.6533  0.3307  0.5806
  686MOL0     C90439  -0.401   6.744   1.929  0.6131 -0.3519  1.0092
  686MOL0     C90440  -0.519   6.644   1.913 -0.3989  0.2832  0.7608
  686MOL0     C90441  -0.659   6.710   1.929  0.1161 -0.4679  0.4061
  686MOL0     C90442  -0.770   6.607   1.938 -0.5898 -0.2335  0.5118
  686MOL0     C90443  -0.914   6.668   1.933 -0.0278  1.2878 -0.5103
  686MOL0     O90444  -1.005   6.553   1.917 -0.4222  0.6891 -0.3133
  686MOL0     C90445  -1.135   6.579   1.921  0.1214  0.5733  0.0082
  686MOL0     C90446  -1.205   6.676   2.001  0.1586  0.6036  1.0026
  686MOL0     C90447  -1.347   6.678   2.009 -0.2627  0.3135 -0.3183
  686MOL0     C90448  -1.424   6.588   1.918 -0.4083 -0.5365 -0.3510
  686MOL0     C90449  -1.573   6.591   1.907 -0.2237  1.0931 -0.0641
  686MOL0     O90450  -1.635   6.677   1.979  0.0259 -0.5361  0.3737
  686MOL0     C90451  -1.769   6.689   1.962  0.0822  0.1101 -0.2410
  686MOL0     C90452  -1.820   6.698   1.830 -0.1675  0.0762 -0.2920
  686MOL0     C90453  -1.961   6.698   1.809  0.0485  0.3660 -0.8238
  686MOL0     C90454  -2.051   6.696   1.920 -0.7571  0.0466 -1.6806
  686MOL0     O90455  -2.187   6.698   1.913 -0.0420  0.0492 -0.9820
  686MOL0     C90456  -2.245   6.723   1.784  0.1683  0.3550  0.3042
  686MOL0     C90457  -2.399   6.718   1.781 -0.8525  0.6658  0.5665
  686MOL0     C90458  -2.448   6.850   1.831 -0.7275 -0.5102 -0.2245
  686MOL0     C90459  -2.602   6.865   1.841  0.2288  0.7020  0.5056
  686MOL0     C90460  -2.652   6.987   1.929 -0.0109 -0.3875 -0.0972
  686MOL0     C90461  -2.604   7.118   1.867  0.3251 -0.8468 -0.3870
  686MOL0     C90462  -2.667   7.249   1.924 -0.3999 -0.2949 -0.1387
  686MOL0     C90463  -2.557   7.362   1.941  0.2566  0.2719 -0.0360
  686MOL0    Cl90464  -2.473   7.325   2.103  0.2795  0.0475 -0.0798
  686MOL0     C90465  -1.991   6.694   2.051 -0.0981 -0.0920 -0.4561
  686MOL0     C90466  -1.855   6.685   2.072  0.1286 -0.4879  0.0852
  686MOL0     O90467  -1.623   6.499   1.846  0.1009 -0.3117  0.1608
  686MOL0     C90468  -1.347   6.507   1.827  0.5965  0.6726 -0.5931
  686MOL0     C90469  -1.216   6.496   1.843 -0.2220 -0.2276  0.3257
  686MOL0     N90470  -0.302   6.751   2.026  0.6473 -0.3697 -0.0782
  686MOL0     N90471  -0.232   6.856   2.003 -0.4112 -0.3086 -0.4565
  686MOL0     C90472   0.772   6.934   1.549  0.1341 -0.0029 -0.3964
  686MOL0     C90473   0.887   6.994   1.594 -0.8176 -0.0300 -0.1131
  686MOL0     C90474   1.146   7.171   1.942  0.3918 -0.1479 -0.8925
  686MOL0     C90475   1.144   7.286   2.029  0.1902 -0.5223  0.0900
  686MOL0     C90476   1.266   7.326   2.081 -0.7456 -1.6725 -1.1692
  686MOL0     C90477   1.392   7.267   2.049 -0.2157 -0.1344 -0.9214
  686MOL0     O90478   1.518   7.300   2.094  0.7220 -0.7082  0.2240
  686MOL0     C90479   1.546   7.415   2.182 -0.2229 -0.3538 -0.3263
  686MOL0     C90480   1.693   7.390   2.231  0.3184  0.0750 -0.0605
  686MOL0     C90481   1.707   7.266   2.304 -0.4363  0.6929  1.0779
  686MOL0     C90482   1.848   7.260   2.366 -0.1920 -0.0133 -0.0753
  686MOL0     C90483   1.967   7.272   2.269 -0.7024  0.7583 -0.2719
  686MOL0     C90484   2.068   7.304   2.207 -0.1289 -0.7235  0.0581
  686MOL0     C90485   1.390   7.170   1.952 -0.3819  0.1298  0.4555
  686MOL0     C90486   1.270   7.122   1.899  0.2470 -0.6490  1.0337
  686MOL0     H90487   0.877   6.868   1.901  1.1071 -0.2813  0.2158
  686MOL0     H90488   0.650   6.797   1.836 -0.5510 -1.6069 -0.3545
  686MOL0     H90489   0.456   6.755   1.750  0.8449 -1.8550  0.5035
  686MOL0     H90490   0.538   6.635   1.646  1.1556  0.4868 -1.3717
  686MOL0     H90491   0.338   6.582   1.583 -1.1632 -0.1760 -1.9372
  686MOL0     H90492   0.377   6.688   1.457 -2.2324  1.5765  0.4438
  686MOL0     H90493   0.242   6.878   1.532  1.0006  0.4910  2.0383
  686MOL0     H90494   0.231   6.805   1.691  0.2180 -2.7856  0.3355
  686MOL0     H90495   0.108   6.684   1.445 -0.1793  3.4398 -1.2787
  686MOL0     H90496   0.085   6.639   1.621 -0.2720 -0.2226  0.0547
  686MOL0     H90497  -0.108   6.753   1.529  1.5773 -2.1505 -0.0375
  686MOL0     H90498  -0.003   6.892   1.481 -0.3651  0.3396  0.9395
  686MOL0     H90499   0.057   6.956   1.696  0.5122 -1.5899 -1.9631
  686MOL0     H90500  -0.047   6.816   1.760 -0.1480  0.1648 -0.0772
  686MOL0     H90501  -0.148   7.067   1.611 -1.4149 -3.1961 -4.1000
  686MOL0     H90502  -0.244   6.930   1.650  1.6195 -0.1303 -1.0171
  686MOL0     H90503  -0.264   7.112   1.837 -1.0982 -2.0020  2.0363
  686MOL0     H90504  -0.114   7.059   1.887 -0.9668 -0.8388  2.1814
  686MOL0     H90505  -0.457   6.901   1.782  0.1131 -1.1195 -0.9825
  686MOL0     H90506  -0.505   6.563   1.985  0.7563 -0.7570 -0.5733
  686MOL0     H90507  -0.506   6.602   1.813 -1.9900 -0.6109  0.8832
  686MOL0     H90508  -0.684   6.753   1.831 -2.3385 -1.5407  0.4936
  686MOL0     H90509  -0.648   6.782   2.010  0.0037  0.7287 -0.6122
  686MOL0     H90510  -0.764   6.542   1.850 -0.2732 -0.5139  0.7376
  686MOL0     H90511  -0.751   6.545   2.026  0.6174 -0.8588 -0.1595
  686MOL0     H90512  -0.935   6.733   1.848  1.9509  0.1880 -1.9379
  686MOL0     H90513  -0.937   6.709   2.032  0.0979  1.4806 -0.5606
  686MOL0     H90514  -1.142   6.742   2.059  1.2022 -0.9177  1.6932
  686MOL0     H90515  -1.404   6.751   2.066  1.3133  0.3927  1.2401
  686MOL0     H90516  -1.761   6.695   1.738 -1.6084  4.1310 -1.5604
  686MOL0     H90517  -1.999   6.696   1.708 -0.2246  0.0592 -0.7164
  686MOL0     H90518  -2.210   6.634   1.730  0.8069  0.7423  0.0651
  686MOL0     H90519  -2.200   6.808   1.733 -0.2201  1.2059  1.3476
  686MOL0     H90520  -2.428   6.631   1.841  1.2727 -0.4913  0.0102
  686MOL0     H90521  -2.442   6.694   1.683 -0.7754  2.3267  0.0990
  686MOL0     H90522  -2.402   6.934   1.778 -1.1274 -1.0256 -1.4240
  686MOL0     H90523  -2.413   6.853   1.935  0.3936  1.8376 -0.6080
  686MOL0     H90524  -2.637   6.882   1.739 -0.1733  0.6158  0.6280
  686MOL0     H90525  -2.639   6.775   1.891  0.1704  1.5675  2.0641
  686MOL0     H90526  -2.599   6.974   2.024  1.4376  2.1636 -0.4692
  686MOL0     H90527  -2.759   6.978   1.948 -0.3839 -0.9768 -2.2075
  686MOL0     H90528  -2.634   7.106   1.762 -0.2540  0.0562 -0.3354
  686MOL0     H90529  -2.495   7.131   1.871  0.4433  0.4319 -3.8369
  686MOL0     H90530  -2.737   7.287   1.849  0.4086  3.0629  0.6094
  686MOL0     H90531  -2.719   7.223   2.016  0.2207  1.3080  0.7037
  686MOL0     H90532  -2.603   7.461   1.951  2.7207  1.2661  3.2911
  686MOL0     H90533  -2.498   7.360   1.850  1.3057  2.1451  0.5405
  686MOL0     H90534  -2.046   6.700   2.145  5.0898  2.2083  2.9143
  686MOL0     H90535  -1.809   6.676   2.170  0.6478  0.2604 -0.0850
  686MOL0     H90536  -1.390   6.443   1.751 -0.9449  2.0916 -0.9703
  686MOL0     H90537  -1.180   6.410   1.787 -3.2185 -1.5881  0.2809
  686MOL0     H90538   0.750   6.951   1.444  1.4126 -0.4063 -0.7468
  686MOL0     H90539   0.943   7.068   1.538 -2.6641  1.3912 -0.1960
  686MOL0     H90540   1.050   7.335   2.053 -0.5964 -0.7813 -2.2597
  686MOL0     H90541   1.280   7.416   2.140 -0.5941 -1.7343 -1.1108
  686MOL0     H90542   1.477   7.412   2.268  2.9654  1.4145  2.5333
  686MOL0     H90543   1.527   7.511   2.134 -2.7072 -0.2077  0.7530
  686MOL0     H90544   1.760   7.386   2.145 -0.3505  0.9510 -0.6300
  686MOL0     H90545   1.720   7.472   2.297  0.7165  0.6167 -0.8857
  686MOL0     H90546   1.706   7.183   2.232 -0.8564  1.5288  0.0991
  686MOL0     H90547   1.623   7.251   2.372  0.4023 -1.1192  1.7910
  686MOL0     H90548   1.852   7.332   2.448  1.3467 -1.2705  1.0178
  686MOL0     H90549   1.866   7.164   2.416  0.3122 -0.6594 -1.4339
  686MOL0     H90550   2.169   7.324   2.175 -0.1662 -1.2587 -0.4150
  686MOL0     H90551   1.484   7.139   1.907 -0.8253  1.2753 -1.3791
  686MOL0     H90552   1.276   7.050   1.819  2.9081  0.5317  0.0184
  687MOL0     O90553   1.019   0.531  10.236  0.1573 -0.0926 -0.0753
  687MOL0     C90554   0.996   0.645  10.275  0.7332  0.1288  0.4017
  687MOL0     O90555   0.872   0.689  10.317 -0.5214  0.3112 -0.1963
  687MOL0     C90556   0.774   0.600  10.329  0.1573 -0.1163 -0.0838
  687MOL0     C90557   0.697   0.549  10.227  0.2394 -0.7673 -0.5379
  687MOL0     C90558   0.592   0.468  10.260  0.6135  0.9296 -0.5328
  687MOL0     C90559   0.566   0.417  10.397 -0.3719 -0.1075 -0.2293
  687MOL0     O90560   0.464   0.324  10.410 -0.9053  0.6472 -0.4614
  687MOL0     C90561   0.406   0.303  10.541  0.1210  0.1690 -0.4219
  687MOL0     C90562   0.287   0.217  10.545 -0.5548  0.1674 -0.6704
  687MOL0     C90563   0.164   0.263  10.480 -0.2800  0.5481  0.3515
  687MOL0     C90564   0.073   0.131  10.479  0.0543 -1.1131  0.7783
  687MOL0     C90565  -0.062   0.169  10.418  0.2057  0.3795  0.2102
  687MOL0     C90566  -0.175   0.066  10.428 -0.6661  0.7421 -1.0261
  687MOL0     C90567  -0.313   0.106  10.384  0.8521  1.1218  0.0465
  687MOL0     C90568  -0.332   0.046  10.247 -0.2377  0.2389  1.0372
  687MOL0     N90569  -0.242   0.101  10.137  0.1742 -0.6495 -0.0526
  687MOL0     C90570  -0.131   0.041  10.087 -0.2326  0.1826 -0.1954
  687MOL0     C90571  -0.076   0.131   9.998 -0.3093 -0.3757  0.0653
  687MOL0     C90572   0.049   0.118   9.913  0.7054  0.2394 -0.6861
  687MOL0     C90573   0.139   0.245   9.930  0.3463 -0.0113  0.1758
  687MOL0     C90574   0.211   0.254  10.067 -0.0490 -0.3062  0.1604
  687MOL0     C90575   0.277   0.385  10.080  0.1105 -0.1641 -0.6386
  687MOL0     O90576   0.371   0.394   9.965 -0.6102 -1.3205 -0.2278
  687MOL0     C90577   0.434   0.510   9.933  0.3477  0.1014 -0.0852
  687MOL0     C90578   0.431   0.637   9.999 -0.0368 -0.2707  0.0051
  687MOL0     C90579   0.520   0.737   9.970 -0.4164 -0.3967  0.6764
  687MOL0     C90580   0.610   0.717   9.862 -0.0382  0.5212 -0.3373
  687MOL0     C90581   0.710   0.821   9.840  0.0503 -0.9554 -0.0332
  687MOL0     O90582   0.709   0.932   9.922 -0.1567 -0.0020  0.0322
  687MOL0     C90583   0.831   0.999   9.929 -0.2825  0.1281  0.0971
  687MOL0     C90584   0.848   1.106   9.847  0.4406  1.0456  0.5180
  687MOL0     C90585   0.964   1.182   9.852  0.2064  0.0519  0.1034
  687MOL0     C90586   1.070   1.153   9.943  0.1229 -0.0323  0.0340
  687MOL0     O90587   1.180   1.237   9.966  0.3934 -0.5012 -0.4892
  687MOL0     C90588   1.166   1.371   9.916  0.0428 -0.7914  0.4538
  687MOL0     C90589   1.274   1.471   9.968  0.1731 -0.3976 -0.7226
  687MOL0     C90590   1.420   1.429   9.948 -0.1867 -0.0897  0.2934
  687MOL0     C90591   1.517   1.539   9.991 -0.0168  0.2345  0.4215
  687MOL0     C90592   1.644   1.546   9.905  0.4730  0.7058 -0.2320
  687MOL0     C90593   1.739   1.428   9.914  0.5553 -0.1824  0.5686
  687MOL0     C90594   1.868   1.436   9.833  0.5910 -0.7664 -0.3031
  687MOL0     C90595   1.956   1.322   9.869  0.3392  0.9125 -0.9388
  687MOL0    Cl90596   1.877   1.160   9.824 -0.6754  0.4573 -0.6549
  687MOL0     C90597   1.052   1.039  10.025  1.0889  0.1695  0.1875
  687MOL0     C90598   0.934   0.952  10.011 -1.0681 -0.0977 -0.3085
  687MOL0     O90599   0.786   0.808   9.745 -0.0651  0.0508  0.3561
  687MOL0     C90600   0.618   0.594   9.800  0.5985 -0.0747  0.2593
  687MOL0     C90601   0.530   0.489   9.838  0.1719  0.4539  0.4466
  687MOL0     N90602  -0.164   0.241   9.994 -0.1728  0.4000  0.8202
  687MOL0     N90603  -0.259   0.221  10.080  0.1532 -0.5237 -1.0761
  687MOL0     C90604   0.653   0.464  10.492  0.6445  0.7917  0.3671
  687MOL0     C90605   0.750   0.562  10.457  0.0690  0.7918  0.0436
  687MOL0     C90606   1.097   0.749  10.282 -0.4058 -0.3259 -0.2928
  687MOL0     C90607   1.082   0.856  10.370  0.2102  0.5931  0.5676
  687MOL0     C90608   1.179   0.959  10.364 -0.4254  0.1867  0.6122
  687MOL0     C90609   1.286   0.951  10.283 -0.1146  0.2426 -0.4020
  687MOL0     O90610   1.383   1.047  10.274  0.1527 -0.4540  0.2891
  687MOL0     C90611   1.381   1.165  10.359 -0.1693  0.5513 -0.0004
  687MOL0     C90612   1.472   1.272  10.318  0.1423  0.3559  0.7090
  687MOL0     C90613   1.610   1.239  10.383 -0.5188  0.0944  0.0791
  687MOL0     C90614   1.722   1.171  10.297 -0.1393  0.2763 -0.0926
  687MOL0     C90615   1.828   1.267  10.264 -0.0427  0.3548  0.1086
  687MOL0     C90616   1.914   1.351  10.248  0.0268  0.3818  0.2147
  687MOL0     C90617   1.301   0.842  10.195 -0.5591  0.1479  0.0593
  687MOL0     C90618   1.197   0.745  10.190  0.8892  0.1238  0.2453
  687MOL0     H90619   0.715   0.583  10.125  0.6191  0.0322 -0.2173
  687MOL0     H90620   0.532   0.432  10.177  3.5694 -5.0866 -0.6478
  687MOL0     H90621   0.378   0.397  10.589 -0.3500  0.1561 -0.6592
  687MOL0     H90622   0.483   0.258  10.604  1.9735 -0.4767 -2.9578
  687MOL0     H90623   0.262   0.190  10.648 -2.2231 -1.3829 -1.4393
  687MOL0     H90624   0.325   0.124  10.502 -2.1874 -0.6803 -0.3780
  687MOL0     H90625   0.180   0.294  10.376  4.0069  1.6784  1.1695
  687MOL0     H90626   0.118   0.340  10.542 -1.0218 -0.1798  0.7300
  687MOL0     H90627   0.112   0.055  10.410 -3.0397 -0.3378 -2.1143
  687MOL0     H90628   0.053   0.101  10.582 -3.4995 -0.6133  0.3850
  687MOL0     H90629  -0.032   0.181  10.313  3.8323 -0.0648  1.0443
  687MOL0     H90630  -0.092   0.269  10.448  0.3126  0.0118  1.5939
  687MOL0     H90631  -0.182   0.046  10.536 -2.4408  0.3106 -1.1957
  687MOL0     H90632  -0.136  -0.024  10.381  3.0125  1.8249 -0.4377
  687MOL0     H90633  -0.385   0.058  10.451  1.6518  1.1351  0.9467
  687MOL0     H90634  -0.348   0.209  10.390  1.1909  1.1786  1.3540
  687MOL0     H90635  -0.435   0.075  10.224  0.5308  3.1778  0.8824
  687MOL0     H90636  -0.315  -0.062  10.256  2.3511  0.5369  0.3456
  687MOL0     H90637  -0.094  -0.052  10.130  0.4518  0.1454 -0.8614
  687MOL0     H90638   0.030   0.097   9.807 -3.5517 -0.0232 -0.0245
  687MOL0     H90639   0.103   0.034   9.959  2.6930  1.8207  0.0234
  687MOL0     H90640   0.080   0.331   9.899 -1.6873 -0.6945  1.9416
  687MOL0     H90641   0.216   0.233   9.852  0.2727 -0.9279  0.2361
  687MOL0     H90642   0.134   0.238  10.143 -1.6225  1.0504 -1.0691
  687MOL0     H90643   0.290   0.179  10.065  0.7127  0.4847 -0.2349
  687MOL0     H90644   0.327   0.399  10.177  0.0836 -1.4573 -0.4252
  687MOL0     H90645   0.200   0.463  10.081  0.7752  0.6935 -3.9382
  687MOL0     H90646   0.359   0.659  10.077 -2.0796  1.6069 -2.2488
  687MOL0     H90647   0.514   0.838  10.009 -0.3399 -0.1102 -0.0407
  687MOL0     H90648   0.770   1.137   9.778 -0.9339  1.3944  2.1780
  687MOL0     H90649   0.994   1.255   9.778  3.4739 -2.1543 -1.0001
  687MOL0     H90650   1.069   1.415   9.941 -0.4730 -1.1972 -0.7805
  687MOL0     H90651   1.183   1.387   9.810  0.1096  2.4785  0.8752
  687MOL0     H90652   1.254   1.492  10.073 -3.4758 -0.4798 -1.2924
  687MOL0     H90653   1.261   1.567   9.918 -2.9944 -1.0597 -1.3988
  687MOL0     H90654   1.438   1.399   9.844 -1.4511 -1.4407  0.4379
  687MOL0     H90655   1.433   1.338  10.006 -0.9737 -0.2315  0.2547
  687MOL0     H90656   1.463   1.634   9.990  0.5344  0.6237  2.7156
  687MOL0     H90657   1.536   1.521  10.097 -0.7607 -1.9192  0.2339
  687MOL0     H90658   1.701   1.631   9.944  0.5800 -0.2027  1.7279
  687MOL0     H90659   1.617   1.564   9.800  0.5578  2.4745  0.0262
  687MOL0     H90660   1.681   1.339   9.886 -3.5328  1.9777  1.3253
  687MOL0     H90661   1.777   1.420  10.017  1.1463  0.6144  0.4168
  687MOL0     H90662   1.845   1.431   9.727 -0.0164 -3.2285 -0.1229
  687MOL0     H90663   1.919   1.530   9.856  2.2086 -1.9709  1.3950
  687MOL0     H90664   1.968   1.315   9.977  0.5320 -3.6253 -1.0740
  687MOL0     H90665   2.051   1.340   9.817  0.7756 -1.1871 -0.9855
  687MOL0     H90666   1.126   1.013  10.099  0.0161  0.4382  1.3905
  687MOL0     H90667   0.917   0.861  10.068  1.1444 -0.3765  0.0214
  687MOL0     H90668   0.693   0.581   9.723 -1.0337 -1.7695 -1.1440
  687MOL0     H90669   0.550   0.393   9.791  0.0258  0.1805  0.9271
  687MOL0     H90670   0.644   0.424  10.593 -0.0063  0.4560  0.1856
  687MOL0     H90671   0.819   0.609  10.528  1.5229 -2.7593  1.2223
  687MOL0     H90672   0.999   0.863  10.439 -0.3446  0.3286 -0.0578
  687MOL0     H90673   1.180   1.030  10.447  2.1035 -0.4755  1.2173
  687MOL0     H90674   1.408   1.126  10.458 -3.0256 -0.3947  0.5092
  687MOL0     H90675   1.287   1.221  10.367 -0.3812  1.1191 -4.2487
  687MOL0     H90676   1.493   1.281  10.211 -1.6996  0.1739  0.3078
  687MOL0     H90677   1.442   1.367  10.362  0.9685  0.1270  1.8196
  687MOL0     H90678   1.595   1.176  10.472  1.4287 -0.0955  0.3161
  687MOL0     H90679   1.642   1.342  10.403 -1.8824  0.3912  0.9117
  687MOL0     H90680   1.760   1.083  10.350  1.9900  0.0335 -1.8926
  687MOL0     H90681   1.681   1.135  10.201  0.8911  3.1065 -1.7188
  687MOL0     H90682   1.991   1.424  10.234  0.0589  1.0459  3.1002
  687MOL0     H90683   1.369   0.838  10.111 -1.5541 -1.0834 -0.7296
  687MOL0     H90684   1.200   0.668  10.113 -1.6942  0.2449 -0.0794
  688MOL0     O90685   2.446   0.348   1.333  0.1810  0.7765  0.3410
  688MOL0     C90686   2.452   0.447   1.258  0.2841 -0.1812  1.5323
  688MOL0     O90687   2.349   0.528   1.213 -0.4540  0.4260 -0.1594
  688MOL0     C90688   2.227   0.510   1.262  0.7888  0.3375 -0.1660
  688MOL0     C90689   2.162   0.397   1.225  0.2353  0.4532  0.3750
  688MOL0     C90690   2.025   0.372   1.231  0.3072 -0.5430  0.0190
  688MOL0     C90691   1.951   0.460   1.306 -0.1153  0.3017 -0.1924
  688MOL0     O90692   1.821   0.433   1.340 -0.7405  0.0430 -0.0101
  688MOL0     C90693   1.754   0.324   1.271  0.1355 -0.2050  0.5372
  688MOL0     C90694   1.609   0.325   1.319 -1.0635  0.4249  0.2666
  688MOL0     C90695   1.515   0.447   1.278 -0.3200 -0.1133 -0.0101
  688MOL0     C90696   1.363   0.421   1.281 -0.0365 -0.0419 -0.2150
  688MOL0     C90697   1.277   0.553   1.256  1.1003 -0.0023 -0.0154
  688MOL0     C90698   1.277   0.635   1.388 -0.1015  0.8936  0.1168
  688MOL0     C90699   1.182   0.761   1.385 -0.3584 -0.1707  0.1814
  688MOL0     C90700   1.171   0.840   1.519 -0.5788  0.6062  0.1086
  688MOL0     N90701   1.052   0.928   1.511  0.4111 -0.4184  0.1957
  688MOL0     C90702   0.921   0.886   1.532 -0.2400  0.5241 -0.0784
  688MOL0     C90703   0.854   1.008   1.538  0.5200  0.3889 -0.1622
  688MOL0     C90704   0.710   1.025   1.517 -0.3053 -0.4056  0.8828
  688MOL0     C90705   0.623   0.930   1.602  0.1244  0.4252 -0.3097
  688MOL0     C90706   0.494   0.897   1.518  0.3426 -0.6567 -0.4571
  688MOL0     C90707   0.408   1.009   1.489  0.5766 -0.0688  0.2433
  688MOL0     O90708   0.390   1.087   1.609 -0.1113  0.1897  0.0249
  688MOL0     C90709   0.301   1.037   1.699 -0.3233 -0.7957  0.3025
  688MOL0     C90710   0.207   0.937   1.683 -0.1921  0.7378 -0.2392
  688MOL0     C90711   0.127   0.904   1.793 -0.1958 -0.0644  0.1319
  688MOL0     C90712   0.138   0.969   1.913 -0.0325  0.3734 -0.2773
  688MOL0     C90713   0.044   0.939   2.031  0.7465  0.3447 -0.9043
  688MOL0     O90714  -0.056   0.842   2.010  0.5852 -0.4721  1.0144
  688MOL0     C90715  -0.154   0.827   2.109  0.4792 -0.8146  0.4630
  688MOL0     C90716  -0.255   0.925   2.131 -1.3741 -0.2258  0.4921
  688MOL0     C90717  -0.360   0.915   2.219 -0.1154  0.5622 -0.7640
  688MOL0     C90718  -0.365   0.802   2.304 -0.0735  0.6849  1.0018
  688MOL0     O90719  -0.463   0.798   2.399  0.2501  0.2628 -0.1865
  688MOL0     C90720  -0.443   0.729   2.522 -0.4574 -0.0715 -0.7331
  688MOL0     C90721  -0.543   0.765   2.631 -0.5031  0.0366 -0.2201
  688MOL0     C90722  -0.549   0.916   2.666 -0.2137  0.1042  0.6191
  688MOL0     C90723  -0.645   0.939   2.782  0.0661  0.1353  0.6808
  688MOL0     C90724  -0.652   1.092   2.806  0.3703  0.1351  0.3151
  688MOL0     C90725  -0.729   1.130   2.931  0.1744 -0.0136  0.3407
  688MOL0     C90726  -0.719   1.286   2.934 -0.2820  0.9379  0.2950
  688MOL0     C90727  -0.833   1.362   2.861 -0.4311 -0.4492 -0.4785
  688MOL0    Cl90728  -0.994   1.304   2.926  0.0853  0.4928  0.0276
  688MOL0     C90729  -0.271   0.702   2.278 -0.5357 -0.2535 -0.0556
  688MOL0     C90730  -0.165   0.711   2.188  0.4515  0.0606 -0.3148
  688MOL0     O90731   0.076   0.979   2.141 -0.7577 -0.1589 -0.1926
  688MOL0     C90732   0.230   1.072   1.924 -0.7720 -0.4716 -0.1400
  688MOL0     C90733   0.302   1.114   1.820  0.0289  0.0108 -0.5962
  688MOL0     N90734   0.939   1.117   1.518  0.4064 -0.4177  0.8384
  688MOL0     N90735   1.059   1.068   1.509 -0.1376  0.6320 -0.0772
  688MOL0     C90736   2.013   0.571   1.361  0.4180 -0.0176  0.1323
  688MOL0     C90737   2.150   0.595   1.348  0.0930  0.7252  0.0378
  688MOL0     C90738   2.584   0.480   1.197  0.1563  0.3976 -0.2729
  688MOL0     C90739   2.586   0.550   1.071 -0.1792 -0.4560 -0.2910
  688MOL0     C90740   2.706   0.568   1.002 -0.1130 -0.2441  0.0885
  688MOL0     C90741   2.816   0.501   1.033 -0.7233  0.6076 -1.2686
  688MOL0     O90742   2.928   0.527   0.950  0.4317 -0.0316  0.4244
  688MOL0     C90743   3.044   0.446   0.981 -0.9031  0.9228 -0.7007
  688MOL0     C90744   3.163   0.488   0.889 -0.1070 -0.0938 -0.2304
  688MOL0     C90745   3.298   0.414   0.896 -0.2816  0.2084 -0.0514
  688MOL0     C90746   3.295   0.261   0.861  0.7731 -0.8694  0.2687
  688MOL0     C90747   3.211   0.176   0.946 -0.1988  0.6279  0.2725
  688MOL0     C90748   3.141   0.119   1.029 -0.0522  0.4004  0.1013
  688MOL0     C90749   2.805   0.423   1.155 -0.4855  0.9430 -0.4965
  688MOL0     C90750   2.699   0.423   1.248  0.5750  0.0231 -0.0972
  688MOL0     H90751   2.225   0.316   1.191 -1.4961 -0.9759  0.4568
  688MOL0     H90752   1.994   0.277   1.188 -0.3956  1.0128 -3.2564
  688MOL0     H90753   1.796   0.223   1.285  0.9137  0.0115 -0.1297
  688MOL0     H90754   1.755   0.346   1.164 -2.3537  3.7142  1.1307
  688MOL0     H90755   1.611   0.305   1.427 -1.4925 -2.1390 -0.1232
  688MOL0     H90756   1.558   0.244   1.264  0.2855  2.0251 -3.6809
  688MOL0     H90757   1.532   0.463   1.171  0.6573  1.8634  0.4040
  688MOL0     H90758   1.542   0.533   1.339  1.0764 -2.3694  2.8334
  688MOL0     H90759   1.340   0.350   1.201 -1.3158 -0.0021  0.0916
  688MOL0     H90760   1.333   0.375   1.376  0.8855 -1.0571 -0.3911
  688MOL0     H90761   1.177   0.524   1.222  1.0835  0.2878 -0.2191
  688MOL0     H90762   1.322   0.611   1.176  0.8066 -0.8633 -0.8167
  688MOL0     H90763   1.382   0.653   1.409  0.9474 -2.8650 -1.1868
  688MOL0     H90764   1.241   0.570   1.469  0.9647  1.6218  1.2080
  688MOL0     H90765   1.219   0.824   1.303  2.4275 -3.3030 -1.2284
  688MOL0     H90766   1.081   0.728   1.358 -0.9529  0.5563  1.4655
  688MOL0     H90767   1.259   0.902   1.540 -0.6085  0.9024 -0.5920
  688MOL0     H90768   1.167   0.775   1.607  0.1938  0.9134  0.3787
  688MOL0     H90769   0.885   0.784   1.532  0.6507  0.1568  2.0772
  688MOL0     H90770   0.685   1.017   1.411 -2.7724 -0.9741  1.4294
  688MOL0     H90771   0.684   1.125   1.552 -0.5731 -0.2662  0.3096
  688MOL0     H90772   0.597   0.988   1.691  0.8547 -0.8306  0.7415
  688MOL0     H90773   0.679   0.841   1.631 -0.8061 -0.5087 -1.2631
  688MOL0     H90774   0.538   0.852   1.429 -2.1397 -2.1631 -1.0144
  688MOL0     H90775   0.444   0.814   1.569 -0.7347 -0.6466 -1.4511
  688MOL0     H90776   0.307   0.994   1.450 -0.2425  0.3067  2.1116
  688MOL0     H90777   0.451   1.072   1.411  0.4096  0.5297  0.6294
  688MOL0     H90778   0.205   0.877   1.593 -2.5875 -1.4503  1.1075
  688MOL0     H90779   0.054   0.824   1.784  0.0376 -0.1579 -1.1551
  688MOL0     H90780  -0.252   1.019   2.076 -1.7584  0.1279  1.0649
  688MOL0     H90781  -0.431   0.997   2.219  1.3931  1.9120 -0.0922
  688MOL0     H90782  -0.344   0.760   2.557 -0.4915  1.6621 -2.0578
  688MOL0     H90783  -0.463   0.623   2.502 -0.0680  0.1319 -2.3102
  688MOL0     H90784  -0.525   0.708   2.723  1.1268 -0.9922 -1.1354
  688MOL0     H90785  -0.641   0.726   2.601  0.5094 -3.0024  0.0921
  688MOL0     H90786  -0.581   0.977   2.581  2.8709 -0.8882 -1.4294
  688MOL0     H90787  -0.447   0.939   2.698  0.4154 -0.2054 -1.0842
  688MOL0     H90788  -0.744   0.907   2.748 -1.4725  4.9755 -0.2387
  688MOL0     H90789  -0.616   0.883   2.871 -1.4318 -3.6623 -0.9997
  688MOL0     H90790  -0.704   1.129   2.717 -1.7015 -1.6351  0.7380
  688MOL0     H90791  -0.548   1.125   2.817  1.3199 -2.2659 -0.7846
  688MOL0     H90792  -0.685   1.083   3.019  0.4387 -0.3831  0.0202
  688MOL0     H90793  -0.833   1.098   2.928  0.6164 -1.5168  0.0212
  688MOL0     H90794  -0.729   1.318   3.038 -3.4228 -1.4349  0.8754
  688MOL0     H90795  -0.622   1.315   2.892  0.4985 -0.8899  0.7242
  688MOL0     H90796  -0.831   1.353   2.752 -2.8059 -2.7973 -0.4332
  688MOL0     H90797  -0.828   1.470   2.880 -0.9615 -0.5158  0.0688
  688MOL0     H90798  -0.265   0.615   2.343  3.1901  0.9831  1.5517
  688MOL0     H90799  -0.098   0.626   2.175 -2.1896 -3.0281  3.7062
  688MOL0     H90800   0.236   1.123   2.020 -1.8782 -1.5458  0.5238
  688MOL0     H90801   0.371   1.197   1.832 -1.6364  1.5744 -1.3483
  688MOL0     H90802   1.954   0.639   1.421 -1.5697  0.0333 -1.7321
  688MOL0     H90803   2.195   0.681   1.397 -0.6846  1.4674 -0.5273
  688MOL0     H90804   2.504   0.616   1.048 -1.4407 -1.6930  0.4534
  688MOL0     H90805   2.698   0.625   0.909  2.0948 -0.7263 -0.4327
  688MOL0     H90806   3.025   0.343   0.949  2.9642 -0.7707  1.6677
  688MOL0     H90807   3.068   0.461   1.087 -0.9604 -0.0329 -0.5466
  688MOL0     H90808   3.114   0.477   0.792 -1.2553  0.4952  0.2589
  688MOL0     H90809   3.175   0.596   0.903 -0.2329 -0.3387  2.2209
  688MOL0     H90810   3.324   0.425   1.002  0.9148 -4.8320  0.4177
  688MOL0     H90811   3.360   0.469   0.824 -0.2877 -1.6316 -1.5360
  688MOL0     H90812   3.263   0.254   0.756 -0.7575 -0.9731  0.7073
  688MOL0     H90813   3.401   0.236   0.856  0.7546 -1.0535  0.7496
  688MOL0     H90814   3.079   0.068   1.100 -1.7844  1.4517 -0.5974
  688MOL0     H90815   2.895   0.376   1.194 -0.9077  1.5163  1.2804
  688MOL0     H90816   2.688   0.358   1.335 -1.7927 -0.1502 -0.4569
  689MOL0     O90817   6.044   4.369   3.323  0.2480 -0.9656  0.5404
  689MOL0     C90818   5.988   4.421   3.421  0.3486 -0.6258  0.3557
  689MOL0     O90819   6.044   4.472   3.529  0.2181  0.7348  0.4998
  689MOL0     C90820   6.179   4.468   3.539  0.2714  0.1542 -0.4289
  689MOL0     C90821   6.249   4.348   3.569 -0.1016 -0.4905  0.5004
  689MOL0     C90822   6.392   4.357   3.585 -0.5163  0.1823 -0.5650
  689MOL0     C90823   6.461   4.474   3.574 -0.1899 -0.3152 -0.7657
  689MOL0     O90824   6.594   4.480   3.594 -0.1370  0.4451 -0.5490
  689MOL0     C90825   6.670   4.419   3.480  0.6319 -0.7866  0.5016
  689MOL0     C90826   6.795   4.348   3.520  0.3864 -0.9905 -0.4756
  689MOL0     C90827   6.916   4.430   3.555 -0.6769  1.1023 -0.1133
  689MOL0     C90828   7.040   4.336   3.596 -0.4348 -0.5944  0.2076
  689MOL0     C90829   7.178   4.410   3.607  1.0616  0.5905  0.2345
  689MOL0     C90830   7.297   4.318   3.640 -0.4075  0.3146  0.2058
  689MOL0     C90831   7.430   4.393   3.665 -0.4352 -0.3706  0.2806
  689MOL0     C90832   7.550   4.309   3.681  0.1084  0.4544  1.3292
  689MOL0     N90833   7.578   4.225   3.556  0.4349 -0.0409 -0.8519
  689MOL0     C90834   7.590   4.277   3.432 -0.1012  0.8764 -0.3774
  689MOL0     C90835   7.607   4.175   3.348 -0.1279  0.5048  0.0883
  689MOL0     C90836   7.632   4.196   3.201  0.5642 -0.1373  0.4338
  689MOL0     C90837   7.720   4.082   3.132  1.0042 -0.5286 -0.2213
  689MOL0     C90838   7.709   4.099   2.979 -1.0171  0.3446  0.0852
  689MOL0     C90839   7.576   4.069   2.911 -0.1795  0.6937 -0.6932
  689MOL0     O90840   7.495   4.184   2.906 -0.8759  0.5793  0.1242
  689MOL0     C90841   7.362   4.161   2.885 -0.1411 -0.2443 -0.5845
  689MOL0     C90842   7.297   4.042   2.874  1.0532 -0.0530 -0.5558
  689MOL0     C90843   7.165   4.041   2.826  0.5552 -0.7767 -0.5522
  689MOL0     C90844   7.100   4.171   2.803  0.9995  0.1551  0.2593
  689MOL0     C90845   6.961   4.186   2.763 -0.5963  0.1928 -0.1843
  689MOL0     O90846   6.912   4.311   2.740 -0.5615 -0.9316 -0.5629
  689MOL0     C90847   6.774   4.336   2.734 -0.3760  0.1233 -0.8955
  689MOL0     C90848   6.677   4.256   2.800  0.0756  0.4222  0.4138
  689MOL0     C90849   6.533   4.277   2.763 -0.6131  0.0232 -0.0298
  689MOL0     C90850   6.498   4.384   2.676 -0.2939  0.4766  0.3493
  689MOL0     O90851   6.371   4.417   2.649 -0.4913 -0.2446 -0.4801
  689MOL0     C90852   6.272   4.316   2.670  0.8092 -0.1528 -1.0988
  689MOL0     C90853   6.137   4.363   2.612 -0.3591 -0.1918  0.2536
  689MOL0     C90854   6.135   4.325   2.463 -0.1252 -0.6267 -1.0357
  689MOL0     C90855   5.997   4.358   2.399  0.0185  0.3733 -0.2980
  689MOL0     C90856   6.008   4.331   2.252 -0.3113  0.0723  0.1256
  689MOL0     C90857   5.980   4.183   2.219 -0.4979 -0.0806 -0.2084
  689MOL0     C90858   5.974   4.152   2.070 -0.1929 -0.1961 -0.0470
  689MOL0     C90859   6.120   4.146   2.014 -0.6292 -0.1275 -0.6539
  689MOL0    Cl90860   6.218   4.010   2.085 -0.3171  0.6190 -0.0188
  689MOL0     C90861   6.602   4.472   2.629  0.2585  0.0630 -0.1076
  689MOL0     C90862   6.731   4.442   2.653  0.2200  0.4193  0.0306
  689MOL0     O90863   6.900   4.075   2.752  0.3336 -0.5391 -0.0056
  689MOL0     C90864   7.165   4.289   2.828 -0.2266  0.3957 -0.0563
  689MOL0     C90865   7.295   4.280   2.875  0.0484  0.0226 -0.0696
  689MOL0     N90866   7.612   4.055   3.415 -0.4549 -0.2993 -0.0842
  689MOL0     N90867   7.586   4.085   3.541 -0.0126  0.5408 -0.3208
  689MOL0     C90868   6.387   4.590   3.564  0.4402  0.2424  0.1902
  689MOL0     C90869   6.250   4.593   3.548 -0.0546  0.3399 -0.1661
  689MOL0     C90870   5.841   4.441   3.417 -0.0343 -0.4810 -0.2539
  689MOL0     C90871   5.796   4.575   3.445  0.4888 -0.0086  0.6192
  689MOL0     C90872   5.648   4.602   3.438 -0.4037  0.9451 -0.5681
  689MOL0     C90873   5.566   4.497   3.401  0.0089 -0.8435  0.2215
  689MOL0     O90874   5.424   4.510   3.402 -0.3386 -0.3099 -0.5411
  689MOL0     C90875   5.352   4.635   3.380 -0.5685  0.1394 -0.5267
  689MOL0     C90876   5.412   4.716   3.259  0.3265 -0.5103  0.5522
  689MOL0     C90877   5.376   4.662   3.126 -0.4811  0.3372  0.0496
  689MOL0     C90878   5.441   4.750   3.009  0.6556 -0.2788  0.1060
  689MOL0     C90879   5.583   4.744   2.988  0.2209 -0.5434 -1.0382
  689MOL0     C90880   5.705   4.751   2.977  0.3126  0.0260  0.0139
  689MOL0     C90881   5.619   4.369   3.381  0.4434 -0.1369 -0.0410
  689MOL0     C90882   5.748   4.342   3.390 -0.0019  0.0962 -0.4637
  689MOL0     H90883   6.191   4.257   3.578  0.2472 -0.8630 -0.7183
  689MOL0     H90884   6.455   4.273   3.611  1.7177  1.9317 -0.0317
  689MOL0     H90885   6.691   4.500   3.410  0.1331 -0.1919  1.0280
  689MOL0     H90886   6.606   4.341   3.438 -0.7238 -0.7046  2.2734
  689MOL0     H90887   6.812   4.278   3.438 -1.6211 -1.9556 -0.1482
  689MOL0     H90888   6.768   4.283   3.604  0.5521 -1.5031 -0.8189
  689MOL0     H90889   6.901   4.481   3.651  0.3670  0.8180  0.2034
  689MOL0     H90890   6.934   4.503   3.475  1.0683 -1.8960 -2.6774
  689MOL0     H90891   7.006   4.300   3.693  1.0333  1.1817  1.4531
  689MOL0     H90892   7.039   4.263   3.515  0.8112  1.1758 -1.4848
  689MOL0     H90893   7.172   4.493   3.678  0.1790  2.4975 -1.9166
  689MOL0     H90894   7.202   4.465   3.515  2.0571  2.1368  1.3590
  689MOL0     H90895   7.315   4.244   3.562 -0.1411 -0.7933  1.2760
  689MOL0     H90896   7.279   4.263   3.733 -1.5586  0.5236  0.1306
  689MOL0     H90897   7.443   4.457   3.578 -2.1347 -0.9191 -0.4346
  689MOL0     H90898   7.419   4.455   3.754 -0.7621  0.9616 -0.6650
  689MOL0     H90899   7.532   4.245   3.767 -1.1379  0.1509  0.8609
  689MOL0     H90900   7.641   4.368   3.697  2.1132 -1.8593 -0.5778
  689MOL0     H90901   7.581   4.383   3.409 -0.1357  1.4869  2.1452
  689MOL0     H90902   7.676   4.295   3.184 -0.0612 -0.1345 -1.5178
  689MOL0     H90903   7.533   4.199   3.153  0.1963  5.2907  0.8808
  689MOL0     H90904   7.684   3.984   3.165  2.7271 -0.5523  1.8100
  689MOL0     H90905   7.826   4.095   3.158  1.2028 -1.0150 -0.7672
  689MOL0     H90906   7.748   4.198   2.952  1.6839 -0.0908  1.9106
  689MOL0     H90907   7.778   4.024   2.939 -2.9161 -2.2378  1.3682
  689MOL0     H90908   7.537   3.986   2.970  0.9198  2.1830  2.3322
  689MOL0     H90909   7.591   4.037   2.807 -3.5584 -3.4464 -0.1712
  689MOL0     H90910   7.351   3.950   2.894  2.5772  0.9404  0.0235
  689MOL0     H90911   7.115   3.948   2.798 -0.9666 -0.2506  0.2860
  689MOL0     H90912   6.710   4.190   2.880  3.2114  3.2380  1.6766
  689MOL0     H90913   6.456   4.221   2.815 -0.5098 -0.0950 -0.0043
  689MOL0     H90914   6.261   4.305   2.779 -2.6192 -1.2324 -1.4518
  689MOL0     H90915   6.300   4.218   2.631 -0.1892 -0.1117 -1.9252
  689MOL0     H90916   6.137   4.473   2.607 -0.4468 -0.1997  0.0863
  689MOL0     H90917   6.045   4.322   2.656 -0.7034 -1.2228 -1.3526
  689MOL0     H90918   6.145   4.216   2.461 -1.6336 -0.8925  1.4139
  689MOL0     H90919   6.216   4.373   2.406  0.1666  0.0182 -0.1106
  689MOL0     H90920   5.933   4.284   2.449  1.5669  0.5814  2.1200
  689MOL0     H90921   5.960   4.459   2.417 -4.1123 -1.2174  1.4661
  689MOL0     H90922   6.111   4.357   2.225 -0.2604 -0.9804 -0.7780
  689MOL0     H90923   5.943   4.402   2.199  2.1590  0.2930 -2.9075
  689MOL0     H90924   5.883   4.161   2.265 -0.4029 -1.9131 -0.7818
  689MOL0     H90925   6.045   4.109   2.266 -0.0417 -2.0992 -3.6019
  689MOL0     H90926   5.931   4.052   2.058 -3.3915  1.0168  0.3427
  689MOL0     H90927   5.912   4.228   2.022 -0.7839  0.2984  1.4144
  689MOL0     H90928   6.173   4.237   2.045 -0.5867 -0.9832  2.0244
  689MOL0     H90929   6.119   4.138   1.905 -1.8120 -0.7975 -0.6053
  689MOL0     H90930   6.583   4.560   2.569 -1.2146 -0.3177 -0.2413
  689MOL0     H90931   6.804   4.513   2.617  1.0846  1.8388  4.0368
  689MOL0     H90932   7.119   4.386   2.809 -1.1965 -0.0792 -0.2185
  689MOL0     H90933   7.349   4.373   2.888 -0.2591  0.4797 -1.8161
  689MOL0     H90934   6.429   4.688   3.581 -0.2424  0.0938  3.4504
  689MOL0     H90935   6.192   4.684   3.543 -0.9015 -0.1042  1.0566
  689MOL0     H90936   5.865   4.656   3.467  0.9346  0.4923 -2.1439
  689MOL0     H90937   5.610   4.697   3.473  0.4973  0.1690  2.9082
  689MOL0     H90938   5.357   4.689   3.475  2.9060  0.5070 -0.8186
  689MOL0     H90939   5.248   4.611   3.356 -0.8023  3.1239 -3.0564
  689MOL0     H90940   5.379   4.820   3.263 -1.2125 -0.9507  0.1192
  689MOL0     H90941   5.521   4.714   3.264  0.3108 -0.5350  0.9584
  689MOL0     H90942   5.267   4.664   3.117 -0.5310 -2.4505 -0.5995
  689MOL0     H90943   5.413   4.560   3.117 -2.0554 -0.3184  0.7285
  689MOL0     H90944   5.396   4.720   2.913  2.0517  0.1041 -0.7007
  689MOL0     H90945   5.399   4.849   3.027 -1.2486 -1.3807  2.3283
  689MOL0     H90946   5.812   4.756   2.983  0.3096 -0.2463  0.2710
  689MOL0     H90947   5.546   4.293   3.357 -2.9449  2.4712  1.0607
  689MOL0     H90948   5.777   4.243   3.356 -0.2238  0.7529 -2.7541
  690MOL0     O90949   0.098   1.464   0.271 -0.2292  0.5463 -0.2599
  690MOL0     C90950   0.211   1.438   0.311 -0.8506 -0.1431 -0.8390
  690MOL0     O90951   0.245   1.365   0.418 -0.2564  0.7021  0.2751
  690MOL0     C90952   0.152   1.263   0.447  0.0542  0.2372 -0.0057
  690MOL0     C90953   0.136   1.152   0.355  0.3742  0.1122 -0.3524
  690MOL0     C90954   0.046   1.054   0.394 -0.2198 -0.1292  0.3549
  690MOL0     C90955  -0.031   1.062   0.507 -0.1686 -0.8814 -0.3628
  690MOL0     O90956  -0.126   0.979   0.552 -0.9612  0.0117 -0.2601
  690MOL0     C90957  -0.155   0.857   0.485 -0.2791  0.2745 -0.4080
  690MOL0     C90958  -0.215   0.774   0.588 -0.2496  0.1832 -0.7100
  690MOL0     C90959  -0.338   0.836   0.644  0.9683  0.4459 -0.0582
  690MOL0     C90960  -0.406   0.746   0.744 -0.6153 -0.0264  0.4315
  690MOL0     C90961  -0.318   0.732   0.875 -0.3834 -0.1120 -0.0299
  690MOL0     C90962  -0.408   0.687   0.989  0.3598 -0.2971  0.2769
  690MOL0     C90963  -0.521   0.777   1.019 -0.2367 -0.2615  0.0313
  690MOL0     C90964  -0.594   0.722   1.138 -0.3512  0.2441 -0.5135
  690MOL0     N90965  -0.690   0.816   1.203 -0.0567  0.5121 -0.4311
  690MOL0     C90966  -0.832   0.816   1.202 -0.1054 -0.1752 -0.6074
  690MOL0     C90967  -0.869   0.904   1.309 -0.5474 -0.3602 -0.7040
  690MOL0     C90968  -1.004   0.951   1.360  0.3505 -0.5796 -0.1652
  690MOL0     C90969  -1.115   0.858   1.314 -1.0205 -0.0917  0.3628
  690MOL0     C90970  -1.179   0.879   1.172  0.5287 -0.1733 -1.1770
  690MOL0     C90971  -1.262   1.007   1.181 -0.4400 -0.0249  0.2495
  690MOL0     O90972  -1.358   0.990   1.281  0.0672 -0.5608 -0.5136
  690MOL0     C90973  -1.482   0.939   1.252 -0.0596  0.5721  0.1127
  690MOL0     C90974  -1.522   0.825   1.321  0.9344  0.4961  0.2118
  690MOL0     C90975  -1.643   0.775   1.297  0.5578  0.5244 -0.2458
  690MOL0     C90976  -1.738   0.838   1.210 -0.6506  0.6205 -0.8236
  690MOL0     C90977  -1.867   0.783   1.183 -0.2940  0.0781 -0.1502
  690MOL0     O90978  -1.955   0.873   1.123 -0.1146 -0.4743 -0.1089
  690MOL0     C90979  -2.088   0.836   1.105 -0.7575 -0.2595 -0.5983
  690MOL0     C90980  -2.153   0.910   1.002 -0.9888  0.0384 -0.5755
  690MOL0     C90981  -2.289   0.903   0.989  0.2184  0.4657 -0.2239
  690MOL0     C90982  -2.372   0.827   1.070 -0.0501  0.1156  0.0785
  690MOL0     O90983  -2.510   0.819   1.043 -0.3660 -0.5049 -0.9731
  690MOL0     C90984  -2.583   0.707   1.093 -0.0167  0.5217 -0.3251
  690MOL0     C90985  -2.717   0.712   1.014 -0.0472  0.1751 -1.4587
  690MOL0     C90986  -2.792   0.584   1.052  0.1428  0.0473 -0.3080
  690MOL0     C90987  -2.932   0.587   0.982  0.1525  0.5546 -0.0680
  690MOL0     C90988  -3.010   0.480   1.050  0.2827 -0.5344 -0.5149
  690MOL0     C90989  -3.141   0.447   0.974 -0.3662 -0.8804  0.4221
  690MOL0     C90990  -3.223   0.343   1.045  0.2624 -0.1377  0.6709
  690MOL0     C90991  -3.361   0.317   0.970 -0.2809 -0.2607  0.5552
  690MOL0    Cl90992  -3.465   0.466   0.986 -0.5460  0.1880  0.4804
  690MOL0     C90993  -2.304   0.754   1.166 -0.2885  0.2830 -0.9570
  690MOL0     C90994  -2.163   0.767   1.191 -0.6487  1.2756 -0.5370
  690MOL0     O90995  -1.878   0.659   1.194  0.5253 -0.8528 -0.5504
  690MOL0     C90996  -1.694   0.950   1.134  0.2898  0.0078 -0.0244
  690MOL0     C90997  -1.562   0.996   1.157  0.4415 -0.4974 -0.3209
  690MOL0     N90998  -0.750   0.953   1.362 -0.4555 -0.2335 -0.5724
  690MOL0     N90999  -0.651   0.900   1.304  0.4837 -0.3170  0.1602
  690MOL0     C91000  -0.017   1.179   0.589 -0.5319  0.0879  0.8969
  690MOL0     C91001   0.081   1.277   0.564 -0.3093  0.9055  0.5245
  690MOL0     C91002   0.323   1.502   0.246 -0.2524 -0.1096  0.5894
  690MOL0     C91003   0.445   1.501   0.320  1.0090 -0.3485  0.4871
  690MOL0     C91004   0.564   1.544   0.255  0.3006 -0.6900 -0.3917
  690MOL0     C91005   0.562   1.597   0.132 -0.0065  0.2990  0.2753
  690MOL0     O91006   0.689   1.630   0.068 -0.5820 -0.0420  0.0169
  690MOL0     C91007   0.687   1.690  -0.065 -0.0204  0.2208 -0.7127
  690MOL0     C91008   0.823   1.738  -0.128  0.0445  0.4833  0.4307
  690MOL0     C91009   0.817   1.850  -0.233 -0.0055 -0.2848  0.4806
  690MOL0     C91010   0.952   1.893  -0.285  0.8687  0.4354  0.5174
  690MOL0     C91011   1.037   1.939  -0.180  0.8402 -0.7439 -0.5045
  690MOL0     C91012   1.110   1.980  -0.099  0.6902 -0.0221 -0.8193
  690MOL0     C91013   0.435   1.604   0.063 -0.2480 -0.1032 -0.1592
  690MOL0     C91014   0.318   1.564   0.120  0.7270 -0.0863  1.0014
  690MOL0     H91015   0.170   1.151   0.252  2.4054 -3.0497  0.2060
  690MOL0     H91016   0.036   0.966   0.331 -2.3959 -0.3568  0.9328
  690MOL0     H91017  -0.066   0.803   0.453 -0.0632  0.1384  0.4030
  690MOL0     H91018  -0.229   0.880   0.407 -0.2942  1.3504 -0.0923
  690MOL0     H91019  -0.146   0.753   0.670 -0.0638  0.5342 -0.7746
  690MOL0     H91020  -0.220   0.678   0.537 -0.0661  0.4856 -1.3067
  690MOL0     H91021  -0.411   0.846   0.563 -1.4266 -1.7785  1.6558
  690MOL0     H91022  -0.313   0.928   0.696 -1.5641  0.8280  0.6162
  690MOL0     H91023  -0.509   0.783   0.746 -0.7014 -0.1676 -0.6234
  690MOL0     H91024  -0.425   0.648   0.699 -0.3060 -1.1255  2.5685
  690MOL0     H91025  -0.265   0.826   0.896  0.7102 -0.3657 -1.4511
  690MOL0     H91026  -0.243   0.657   0.846  0.0052  0.4929 -0.6380
  690MOL0     H91027  -0.347   0.682   1.080 -1.6545  1.4509  1.8394
  690MOL0     H91028  -0.454   0.589   0.969 -0.5219  0.3340 -0.8897
  690MOL0     H91029  -0.478   0.872   1.053 -0.8062 -0.3222  0.9725
  690MOL0     H91030  -0.588   0.787   0.934 -0.3514  0.7248  0.2173
  690MOL0     H91031  -0.517   0.696   1.212 -0.7379 -1.2977 -0.6200
  690MOL0     H91032  -0.643   0.628   1.112  3.6365 -2.4840  0.8697
  690MOL0     H91033  -0.898   0.758   1.138 -2.0123  0.9427  0.2630
  690MOL0     H91034  -1.013   1.048   1.309  0.0687  1.1676  2.9703
  690MOL0     H91035  -1.000   0.964   1.468 -0.5655 -3.2282  0.2598
  690MOL0     H91036  -1.196   0.854   1.388  0.1539  0.0784  1.6966
  690MOL0     H91037  -1.080   0.755   1.326  0.8630  0.2610 -1.6692
  690MOL0     H91038  -1.106   0.900   1.093  1.2946  3.6474  0.2827
  690MOL0     H91039  -1.238   0.791   1.148 -0.9484  0.5574 -0.3807
  690MOL0     H91040  -1.302   1.024   1.081  4.1055  2.3004 -1.4601
  690MOL0     H91041  -1.189   1.087   1.199  2.7175 -2.4482 -0.9321
  690MOL0     H91042  -1.453   0.781   1.392  1.1831 -0.8783 -0.8310
  690MOL0     H91043  -1.684   0.696   1.359  1.3930  1.5858  1.7664
  690MOL0     H91044  -2.092   0.974   0.939  1.2142  0.7928  2.1439
  690MOL0     H91045  -2.331   0.957   0.905  0.7497  1.5448  0.1834
  690MOL0     H91046  -2.606   0.717   1.199  0.0731 -0.8112 -0.1725
  690MOL0     H91047  -2.529   0.613   1.086 -2.3412 -1.4420  4.0393
  690MOL0     H91048  -2.702   0.713   0.905  0.4113  2.9586 -1.4482
  690MOL0     H91049  -2.768   0.794   1.065 -0.2345 -0.8484  0.0531
  690MOL0     H91050  -2.809   0.566   1.159  0.5231 -1.4492 -0.4787
  690MOL0     H91051  -2.730   0.504   1.012 -0.1239 -0.8937  1.0723
  690MOL0     H91052  -2.995   0.675   1.000 -1.0529 -0.6265  1.9658
  690MOL0     H91053  -2.924   0.567   0.875 -0.2657  3.5490 -0.7440
  690MOL0     H91054  -3.032   0.497   1.156  0.9978 -0.3934 -0.3873
  690MOL0     H91055  -2.960   0.382   1.047 -4.4475 -3.3024  0.6321
  690MOL0     H91056  -3.107   0.415   0.875  2.5207 -1.3049  1.4612
  690MOL0     H91057  -3.206   0.535   0.965 -0.2815 -0.8765 -0.1444
  690MOL0     H91058  -3.171   0.247   1.040  1.5407  0.5812 -1.2777
  690MOL0     H91059  -3.238   0.372   1.149 -2.0663 -0.4983  0.4898
  690MOL0     H91060  -3.403   0.225   1.012  0.1412 -1.5366 -1.6806
  690MOL0     H91061  -3.345   0.285   0.867 -1.0608 -4.9587  1.6542
  690MOL0     H91062  -2.363   0.693   1.234 -0.7446 -1.2035 -2.6043
  690MOL0     H91063  -2.112   0.721   1.274  2.1715 -1.6950 -3.6031
  690MOL0     H91064  -1.753   1.010   1.066 -2.6971 -2.0123  0.5784
  690MOL0     H91065  -1.516   1.075   1.100 -0.8213  1.7608  1.6253
  690MOL0     H91066  -0.088   1.196   0.670  0.6136  1.4909  1.6551
  690MOL0     H91067   0.102   1.355   0.636  0.3199 -0.3619  1.7548
  690MOL0     H91068   0.460   1.457   0.419  1.7494 -0.7088  0.2200
  690MOL0     H91069   0.657   1.570   0.305  0.7386  0.6432 -1.8176
  690MOL0     H91070   0.623   1.778  -0.048  1.7064  1.3745  0.1518
  690MOL0     H91071   0.628   1.621  -0.126 -1.0322  1.0073 -0.6500
  690MOL0     H91072   0.889   1.770  -0.047 -1.1045  0.1964  1.5228
  690MOL0     H91073   0.871   1.649  -0.168  0.3283  1.2052 -0.8863
  690MOL0     H91074   0.754   1.929  -0.190 -0.9236  0.4560 -2.0488
  690MOL0     H91075   0.759   1.811  -0.317  0.8075 -1.0403  0.2453
  690MOL0     H91076   1.007   1.813  -0.335 -2.8069 -2.2470  0.3935
  690MOL0     H91077   0.927   1.972  -0.357  0.3430  0.7454  1.0326
  690MOL0     H91078   1.172   2.020  -0.021 -0.7899  1.3587 -0.2803
  690MOL0     H91079   0.436   1.639  -0.040  3.1043  1.7591  0.3614
  690MOL0     H91080   0.224   1.584   0.070  0.4330  0.3476  1.7101
  691MOL0     O91081   0.914   1.894   1.943 -0.0041  0.5844  0.3436
  691MOL0     C91082   0.917   2.002   1.882 -0.5478 -0.4322 -0.3528
  691MOL0     O91083   0.814   2.088   1.864  0.0869  0.3652 -0.7604
  691MOL0     C91084   0.679   2.063   1.893  0.6097 -0.3656 -0.2451
  691MOL0     C91085   0.620   1.938   1.931 -0.9253  0.0916  1.5675
  691MOL0     C91086   0.485   1.924   1.945  0.8132 -0.2656 -0.2981
  691MOL0     C91087   0.404   2.040   1.932  0.5618  1.1745 -0.5202
  691MOL0     O91088   0.270   2.042   1.961 -0.3321  0.0743  0.0340
  691MOL0     C91089   0.207   1.913   1.991 -0.1822  0.6771 -0.1199
  691MOL0     C91090   0.059   1.943   2.031  0.3654 -0.0991 -0.0484
  691MOL0     C91091   0.009   2.057   1.944 -0.5395 -0.2001  0.2486
  691MOL0     C91092  -0.140   2.089   1.947  0.7059 -0.6066  0.5993
  691MOL0     C91093  -0.185   2.230   1.894  0.5286  0.3241  0.2027
  691MOL0     C91094  -0.315   2.279   1.974 -0.4692 -0.6424 -0.3859
  691MOL0     C91095  -0.450   2.208   1.945 -0.5898 -0.3177 -0.8954
  691MOL0     C91096  -0.488   2.222   1.796  0.4116  1.1011  0.3628
  691MOL0     N91097  -0.502   2.360   1.745 -0.2763 -0.0749 -0.4823
  691MOL0     C91098  -0.580   2.459   1.802  0.5122 -0.1588 -0.1844
  691MOL0     C91099  -0.583   2.550   1.702 -0.1310 -0.1478  0.5234
  691MOL0     C91100  -0.662   2.680   1.725 -1.2610 -0.1202 -0.4546
  691MOL0     C91101  -0.804   2.653   1.708  0.5924 -0.0926 -0.2169
  691MOL0     C91102  -0.887   2.782   1.703 -0.1943 -0.0355  0.4172
  691MOL0     C91103  -1.031   2.762   1.677 -0.7291 -0.3602  0.4012
  691MOL0     O91104  -1.050   2.750   1.530  0.4358 -0.3356 -0.5527
  691MOL0     C91105  -1.185   2.737   1.501 -0.4752  0.5393  0.5740
  691MOL0     C91106  -1.234   2.802   1.392 -0.2338  0.1946 -0.3950
  691MOL0     C91107  -1.371   2.779   1.366 -0.0708 -1.3232 -0.7067
  691MOL0     C91108  -1.459   2.711   1.450 -1.1993  0.0214 -0.7693
  691MOL0     C91109  -1.602   2.698   1.407  0.4196 -0.0710 -0.3702
  691MOL0     O91110  -1.650   2.751   1.290 -0.1159  0.2043 -0.1904
  691MOL0     C91111  -1.781   2.780   1.270 -0.7956 -0.7000  0.7178
  691MOL0     C91112  -1.891   2.771   1.360 -0.5935  0.4565  0.2707
  691MOL0     C91113  -2.023   2.793   1.318  0.1598  0.4266  0.3559
  691MOL0     C91114  -2.045   2.844   1.189 -0.8521 -0.3578  0.2287
  691MOL0     O91115  -2.175   2.869   1.166  0.6247 -0.7407  1.0004
  691MOL0     C91116  -2.229   2.977   1.236 -0.2324 -0.7268 -0.4290
  691MOL0     C91117  -2.343   3.021   1.146 -0.5723 -0.5692  1.0432
  691MOL0     C91118  -2.459   2.927   1.144  0.5758 -0.5959  0.0237
  691MOL0     C91119  -2.568   3.007   1.065  0.2536 -0.6688  0.4192
  691MOL0     C91120  -2.705   2.966   1.100 -0.1236  0.2772 -0.0818
  691MOL0     C91121  -2.809   3.043   1.013 -0.9623  0.7334 -0.3906
  691MOL0     C91122  -2.958   2.996   1.049 -0.5040 -0.1296  0.7846
  691MOL0     C91123  -3.061   3.110   1.032 -0.1676 -0.7145 -0.0218
  691MOL0    Cl91124  -3.072   3.205   1.184  0.0553 -0.1185  0.2900
  691MOL0     C91125  -1.939   2.868   1.097 -0.0461 -0.2403  0.3047
  691MOL0     C91126  -1.811   2.837   1.144 -0.3714  1.4215  0.0456
  691MOL0     O91127  -1.670   2.647   1.494  1.0696 -0.0539  0.5492
  691MOL0     C91128  -1.410   2.646   1.558 -0.7937  0.2667 -0.6406
  691MOL0     C91129  -1.269   2.652   1.572  0.3885  0.0392 -0.3178
  691MOL0     N91130  -0.502   2.515   1.593  0.3628  0.2334  0.3238
  691MOL0     N91131  -0.449   2.405   1.626  0.0864 -0.0809  0.3208
  691MOL0     C91132   0.461   2.158   1.890  0.3363  0.0593  0.7752
  691MOL0     C91133   0.600   2.171   1.856  0.5667  0.0281 -0.0558
  691MOL0     C91134   1.054   2.045   1.831  0.5763  0.1679  0.0827
  691MOL0     C91135   1.067   2.173   1.775  0.0741 -0.3982  0.4881
  691MOL0     C91136   1.192   2.226   1.734  0.2481  0.4094 -0.4901
  691MOL0     C91137   1.305   2.149   1.745 -0.4962  1.0022  0.1708
  691MOL0     O91138   1.435   2.185   1.724  0.5953 -0.1549  0.3408
  691MOL0     C91139   1.485   2.270   1.837 -0.0763  0.4310  0.1385
  691MOL0     C91140   1.634   2.282   1.808  0.0274 -0.3218  0.6753
  691MOL0     C91141   1.668   2.334   1.665 -0.4381 -0.0734 -0.1935
  691MOL0     C91142   1.609   2.465   1.624 -0.4391  0.4073  0.0261
  691MOL0     C91143   1.681   2.527   1.510 -0.4603  0.0707 -0.3356
  691MOL0     C91144   1.741   2.561   1.415 -0.6245 -0.7424 -0.4689
  691MOL0     C91145   1.288   2.011   1.777 -0.4255  0.8882  0.8349
  691MOL0     C91146   1.168   1.967   1.833  0.2614 -0.3290  1.3921
  691MOL0     H91147   0.690   1.855   1.935 -0.8056 -0.3057 -3.1465
  691MOL0     H91148   0.442   1.828   1.969  0.7935  0.4154  2.6948
  691MOL0     H91149   0.251   1.866   2.079 -2.6559 -0.5985  0.5205
  691MOL0     H91150   0.219   1.841   1.909  2.2787  0.1008  0.6490
  691MOL0     H91151   0.053   1.980   2.134 -2.3609  1.9023 -0.8273
  691MOL0     H91152  -0.007   1.858   2.013  0.8150 -0.7202  1.1136
  691MOL0     H91153   0.034   2.035   1.840  1.1578  0.9997  0.3638
  691MOL0     H91154   0.058   2.150   1.975  0.7823 -0.7078 -0.2580
  691MOL0     H91155  -0.195   2.013   1.889  1.4568 -1.3674  0.8580
  691MOL0     H91156  -0.180   2.086   2.048 -1.4304 -0.4055 -0.1971
  691MOL0     H91157  -0.212   2.216   1.789 -0.8790  1.5407  0.3747
  691MOL0     H91158  -0.107   2.307   1.898  1.8718 -0.8560 -1.7346
  691MOL0     H91159  -0.317   2.388   1.962  1.8471 -0.6029 -0.7759
  691MOL0     H91160  -0.303   2.271   2.083 -1.7175  1.2192 -0.0510
  691MOL0     H91161  -0.447   2.100   1.962  0.3915 -0.2283 -0.4453
  691MOL0     H91162  -0.525   2.241   2.016 -1.0513  0.9000 -1.9122
  691MOL0     H91163  -0.588   2.179   1.782  1.7072 -2.4496  0.9649
  691MOL0     H91164  -0.411   2.173   1.736 -0.6314  1.1461 -1.0695
  691MOL0     H91165  -0.641   2.464   1.892 -0.9332 -1.3972 -1.0282
  691MOL0     H91166  -0.630   2.762   1.659 -0.3236  0.8186  1.0967
  691MOL0     H91167  -0.637   2.715   1.826 -0.0489  2.1356 -1.4534
  691MOL0     H91168  -0.832   2.587   1.791 -0.7450  3.3152  2.2701
  691MOL0     H91169  -0.815   2.602   1.612  2.5416  1.3403 -1.2623
  691MOL0     H91170  -0.872   2.817   1.806 -0.2656  1.5114 -0.0770
  691MOL0     H91171  -0.853   2.845   1.621 -1.0398 -0.1246 -0.0036
  691MOL0     H91172  -1.087   2.841   1.727  1.6323 -0.1960  3.0773
  691MOL0     H91173  -1.055   2.674   1.739  0.9959 -2.2411 -1.4373
  691MOL0     H91174  -1.166   2.856   1.328  1.2155 -2.3945 -1.1942
  691MOL0     H91175  -1.413   2.834   1.282 -1.9678  2.1074  2.1605
  691MOL0     H91176  -1.874   2.737   1.461 -0.6843 -1.2287 -0.2476
  691MOL0     H91177  -2.112   2.779   1.377 -1.5693  1.0004 -1.9640
  691MOL0     H91178  -2.158   3.058   1.248 -0.9127 -0.4745  2.6696
  691MOL0     H91179  -2.265   2.947   1.335 -2.5833 -0.8107 -1.2261
  691MOL0     H91180  -2.304   3.044   1.047  0.0215 -0.2577  1.3471
  691MOL0     H91181  -2.378   3.119   1.181 -0.7369  0.4460 -1.7032
  691MOL0     H91182  -2.479   2.906   1.249 -0.0677 -1.1806 -0.2114
  691MOL0     H91183  -2.440   2.827   1.104 -2.8831 -1.1258 -0.6312
  691MOL0     H91184  -2.560   3.116   1.078  0.9533 -0.6624 -0.0143
  691MOL0     H91185  -2.552   2.984   0.960 -1.5804  1.7807 -0.4980
  691MOL0     H91186  -2.732   2.970   1.206  1.6133  1.6738  0.3479
  691MOL0     H91187  -2.708   2.858   1.080 -0.8370  0.1075  0.8694
  691MOL0     H91188  -2.785   3.020   0.909  0.3647 -1.8251  0.3633
  691MOL0     H91189  -2.808   3.151   1.026 -1.3335  1.1685 -3.3566
  691MOL0     H91190  -2.983   2.917   0.977  3.7106 -0.1727 -0.8732
  691MOL0     H91191  -2.966   2.946   1.146 -4.2395  1.0314  1.2232
  691MOL0     H91192  -3.160   3.064   1.021 -1.8641  2.6974 -0.5721
  691MOL0     H91193  -3.043   3.176   0.947  0.0561  1.8056  1.8623
  691MOL0     H91194  -1.964   2.903   0.998 -0.2368 -0.0966  0.4011
  691MOL0     H91195  -1.728   2.862   1.079  0.2779 -0.9562 -0.1488
  691MOL0     H91196  -1.462   2.574   1.620 -1.4227 -1.5971 -3.1726
  691MOL0     H91197  -1.227   2.583   1.645  0.4596  0.4628  0.0473
  691MOL0     H91198   0.399   2.243   1.862  0.2051 -0.2848 -0.0144
  691MOL0     H91199   0.629   2.258   1.798 -1.1012 -0.8418 -2.3564
  691MOL0     H91200   0.981   2.237   1.757  1.7649  1.5023 -1.2552
  691MOL0     H91201   1.194   2.330   1.703  0.4775  0.8338  0.9005
  691MOL0     H91202   1.478   2.207   1.926  0.7480 -1.6768 -1.2163
  691MOL0     H91203   1.429   2.364   1.832  0.5512  0.7615 -1.5639
  691MOL0     H91204   1.686   2.343   1.882 -2.7328  1.4264  1.2987
  691MOL0     H91205   1.664   2.177   1.797 -0.6250 -0.4755  0.2761
  691MOL0     H91206   1.635   2.256   1.595 -3.2499 -0.3324  1.2478
  691MOL0     H91207   1.775   2.353   1.661  0.1529 -2.6282  1.0415
  691MOL0     H91208   1.508   2.447   1.586 -0.4925 -0.7883  0.6726
  691MOL0     H91209   1.603   2.540   1.704 -2.5917  0.0911  0.1998
  691MOL0     H91210   1.808   2.613   1.349  0.3712 -1.7143 -0.2514
  691MOL0     H91211   1.381   1.954   1.783 -0.0243  1.6482  2.1852
  691MOL0     H91212   1.175   1.873   1.887  1.7763  0.1844  2.1409
  692MOL0     O91213   9.088   1.728   2.415  0.4727 -0.0664 -1.0355
  692MOL0     C91214   9.108   1.641   2.339 -0.9975  0.4920  0.4939
  692MOL0     O91215   9.026   1.603   2.232  0.8290  0.5720 -0.3560
  692MOL0     C91216   8.896   1.661   2.210 -0.5494  0.3558  0.7446
  692MOL0     C91217   8.814   1.688   2.312  0.4946  0.1263 -0.6063
  692MOL0     C91218   8.679   1.733   2.294 -0.4599  0.0275  0.1505
  692MOL0     C91219   8.623   1.741   2.161 -0.5338  0.0587  0.0368
  692MOL0     O91220   8.496   1.777   2.129 -0.7041  0.1244  0.1527
  692MOL0     C91221   8.411   1.798   2.238 -0.5984  0.1985 -0.0406
  692MOL0     C91222   8.281   1.839   2.178  0.2415 -0.2850  0.3851
  692MOL0     C91223   8.181   1.812   2.278  0.1530  0.0778  0.5599
  692MOL0     C91224   8.044   1.857   2.221 -0.6743 -1.1103 -0.0316
  692MOL0     C91225   7.937   1.842   2.325 -0.7533  0.4771  0.5513
  692MOL0     C91226   7.796   1.898   2.283  0.2730  0.0756 -0.5866
  692MOL0     C91227   7.769   2.024   2.363  0.3709 -0.2244  0.4301
  692MOL0     C91228   7.660   2.098   2.295  0.2238 -0.3741 -0.1414
  692MOL0     N91229   7.535   2.020   2.309 -0.1872 -0.3566  0.0927
  692MOL0     C91230   7.445   2.036   2.410 -1.0243  0.2294 -0.8613
  692MOL0     C91231   7.344   1.967   2.371  0.3923 -0.0892  0.7194
  692MOL0     C91232   7.214   1.966   2.441  0.0841  0.4327 -0.2080
  692MOL0     C91233   7.106   1.925   2.352  0.4637 -0.1355 -0.8581
  692MOL0     C91234   6.967   1.937   2.429  0.9534 -0.0988 -0.1030
  692MOL0     C91235   6.853   1.888   2.339  0.5528  0.6246  0.7969
  692MOL0     O91236   6.744   1.876   2.428 -0.6202 -0.6972  0.3784
  692MOL0     C91237   6.631   1.954   2.393 -0.6192  0.5833  0.2639
  692MOL0     C91238   6.643   2.076   2.325 -0.4120  0.4093  0.4908
  692MOL0     C91239   6.527   2.151   2.299 -0.2022  0.4939 -0.6851
  692MOL0     C91240   6.400   2.110   2.353 -0.0643  0.6171  0.0534
  692MOL0     C91241   6.279   2.197   2.341 -0.3349 -0.4074  0.4087
  692MOL0     O91242   6.152   2.133   2.337  0.3793 -0.1047  0.5901
  692MOL0     C91243   6.055   2.228   2.328  0.2929 -0.5736 -0.6038
  692MOL0     C91244   6.024   2.303   2.215 -0.4145 -0.3173  0.4004
  692MOL0     C91245   5.897   2.363   2.210  0.0712  0.0707  0.1929
  692MOL0     C91246   5.797   2.356   2.311 -0.0410 -1.1618 -0.0918
  692MOL0     O91247   5.675   2.415   2.280 -0.4640  0.6508 -0.1047
  692MOL0     C91248   5.567   2.410   2.372 -0.6698  0.3173 -0.6788
  692MOL0     C91249   5.443   2.433   2.289  0.4937 -0.6778 -1.0009
  692MOL0     C91250   5.315   2.424   2.385 -1.1480  0.2144  0.3567
  692MOL0     C91251   5.198   2.417   2.278 -0.4397 -0.5257  0.8582
  692MOL0     C91252   5.070   2.383   2.350  0.7847 -0.2201  0.1921
  692MOL0     C91253   4.946   2.396   2.263  0.0125 -0.5926 -0.0702
  692MOL0     C91254   4.927   2.285   2.161 -1.0864 -0.1882  0.3753
  692MOL0     C91255   4.811   2.307   2.064 -0.6407  1.5352 -0.1993
  692MOL0    Cl91256   4.661   2.300   2.151  0.4251  0.5875  0.2387
  692MOL0     C91257   5.834   2.284   2.417  0.8364  0.6608 -0.1667
  692MOL0     C91258   5.958   2.221   2.432 -0.1784  0.1101 -0.2778
  692MOL0     O91259   6.299   2.317   2.320  0.5439  0.8932  0.3870
  692MOL0     C91260   6.394   1.989   2.431 -0.3664  0.8732  0.8400
  692MOL0     C91261   6.513   1.914   2.448  0.5289  0.9619 -0.5119
  692MOL0     N91262   7.381   1.897   2.253  0.3810 -0.2074 -0.1659
  692MOL0     N91263   7.495   1.938   2.211  0.2640 -0.2616  0.3360
  692MOL0     C91264   8.714   1.716   2.046 -0.0354  0.7559 -0.3998
  692MOL0     C91265   8.842   1.674   2.080 -0.2137  0.2050 -0.0412
  692MOL0     C91266   9.254   1.596   2.337 -0.0531 -0.0642 -0.4368
  692MOL0     C91267   9.288   1.489   2.261 -0.2482 -0.0252  0.0074
  692MOL0     C91268   9.419   1.440   2.254 -0.3736 -0.5252  0.2173
  692MOL0     C91269   9.520   1.500   2.332 -0.0580 -0.1057 -0.3569
  692MOL0     O91270   9.641   1.440   2.327 -0.2578 -0.4631 -0.1912
  692MOL0     C91271   9.746   1.531   2.313 -0.2273 -0.6507 -0.1225
  692MOL0     C91272   9.874   1.456   2.281  0.5242 -0.7405  0.0550
  692MOL0     C91273   9.902   1.345   2.383  1.0559  0.5457 -0.9134
  692MOL0     C91274  10.043   1.282   2.363  0.2334 -0.3066 -0.5625
  692MOL0     C91275  10.147   1.367   2.411 -0.3000 -0.2000 -0.0542
  692MOL0     C91276  10.240   1.420   2.472  0.2737 -0.3237 -0.0469
  692MOL0     C91277   9.486   1.605   2.420 -0.2535  0.2138  0.5358
  692MOL0     C91278   9.353   1.655   2.418  0.2941 -0.1451 -0.5076
  692MOL0     H91279   8.843   1.685   2.416 -0.6376 -0.5349 -0.2851
  692MOL0     H91280   8.629   1.771   2.383  0.6966  0.8299  0.4669
  692MOL0     H91281   8.434   1.879   2.308 -3.8214  0.7600  0.5423
  692MOL0     H91282   8.407   1.704   2.295 -1.3515  0.9310  1.1442
  692MOL0     H91283   8.258   1.779   2.090 -0.5570  0.7309 -0.1171
  692MOL0     H91284   8.287   1.944   2.150 -3.4866 -0.0450 -0.0690
  692MOL0     H91285   8.209   1.877   2.362 -0.1493  2.1042 -0.8233
  692MOL0     H91286   8.184   1.706   2.303  0.5867 -0.4012 -1.3841
  692MOL0     H91287   8.046   1.963   2.195 -0.5565 -0.1470  3.4284
  692MOL0     H91288   8.016   1.804   2.130  0.1415  1.4312 -1.8687
  692MOL0     H91289   7.960   1.891   2.420 -0.1347 -0.8872  1.1323
  692MOL0     H91290   7.931   1.735   2.349  0.7761  0.4423  0.8883
  692MOL0     H91291   7.730   1.824   2.328  1.2536  0.8001  2.3148
  692MOL0     H91292   7.785   1.898   2.174 -0.0937 -1.8646 -0.5895
  692MOL0     H91293   7.743   2.001   2.466  0.2431 -0.8455  0.2633
  692MOL0     H91294   7.852   2.096   2.367 -0.4096  0.6201  2.0558
  692MOL0     H91295   7.682   2.121   2.190 -0.0787  0.6274  0.0016
  692MOL0     H91296   7.639   2.200   2.330  1.1919  0.7836 -2.6837
  692MOL0     H91297   7.448   2.107   2.492 -1.5689  0.8457 -1.3549
  692MOL0     H91298   7.177   2.063   2.476 -2.6413 -1.2287  1.8725
  692MOL0     H91299   7.226   1.900   2.527  0.0119 -0.8245 -1.1319
  692MOL0     H91300   7.117   1.819   2.329 -2.8842 -0.6332 -0.6084
  692MOL0     H91301   7.109   1.989   2.264 -0.0616  0.6605 -0.3135
  692MOL0     H91302   6.978   1.877   2.520 -1.5348 -1.9449 -0.9089
  692MOL0     H91303   6.943   2.039   2.462 -0.1958  0.1460 -1.5739
  692MOL0     H91304   6.886   1.791   2.303  1.5181  0.5836  1.7710
  692MOL0     H91305   6.837   1.945   2.246  0.9716  2.3230  1.7239
  692MOL0     H91306   6.736   2.110   2.282 -2.3505  0.9779 -3.7321
  692MOL0     H91307   6.539   2.248   2.251 -0.7440  1.2923  0.7206
  692MOL0     H91308   6.084   2.303   2.124 -2.1532 -0.8394 -0.8004
  692MOL0     H91309   5.857   2.419   2.126  0.1530  1.6527  1.1802
  692MOL0     H91310   5.585   2.490   2.445  1.5495 -2.1213  1.6590
  692MOL0     H91311   5.561   2.315   2.424  1.8483 -0.3459 -1.4491
  692MOL0     H91312   5.433   2.348   2.220 -2.9584 -0.6673 -0.6582
  692MOL0     H91313   5.430   2.530   2.240 -0.4525 -0.8482 -1.0985
  692MOL0     H91314   5.312   2.514   2.447 -1.4643 -0.8110  1.9183
  692MOL0     H91315   5.320   2.336   2.450  0.8504  0.4109  0.5458
  692MOL0     H91316   5.192   2.508   2.217  1.3400  0.0226  1.4365
  692MOL0     H91317   5.214   2.327   2.219 -0.4518 -0.5079  0.8279
  692MOL0     H91318   5.058   2.452   2.433  1.2269  1.1834 -0.8727
  692MOL0     H91319   5.082   2.282   2.392  1.9139  0.1503  0.8088
  692MOL0     H91320   4.944   2.491   2.209 -7.7413 -0.8287 -1.3761
  692MOL0     H91321   4.854   2.402   2.321 -0.3359  0.3134 -0.6951
  692MOL0     H91322   5.021   2.276   2.105 -0.2997  1.9356  1.2601
  692MOL0     H91323   4.917   2.188   2.210  0.5283 -0.5565  0.0260
  692MOL0     H91324   4.812   2.231   1.985 -0.7519  1.6466 -0.3098
  692MOL0     H91325   4.822   2.411   2.032 -0.9514  2.6078  2.9083
  692MOL0     H91326   5.770   2.286   2.504 -0.0797 -1.4506 -0.7295
  692MOL0     H91327   5.972   2.161   2.521  1.0765 -0.6593 -0.9704
  692MOL0     H91328   6.304   1.958   2.482 -0.2239 -0.4471  0.3258
  692MOL0     H91329   6.526   1.823   2.506  3.0310  0.3867 -1.8397
  692MOL0     H91330   8.673   1.729   1.947  1.0853 -1.3925 -1.2371
  692MOL0     H91331   8.896   1.644   1.991  0.6840 -0.5436  0.7309
  692MOL0     H91332   9.206   1.451   2.201 -0.4389 -1.3665  1.0668
  692MOL0     H91333   9.448   1.369   2.177  0.1816  1.9138 -1.9335
  692MOL0     H91334   9.766   1.587   2.405 -2.7589  0.0117  0.0875
  692MOL0     H91335   9.719   1.609   2.241 -1.9939 -1.1090  0.0016
  692MOL0     H91336   9.863   1.419   2.178 -0.2508  1.4611 -0.7279
  692MOL0     H91337   9.966   1.516   2.276  1.9428 -2.5303  2.6398
  692MOL0     H91338   9.831   1.263   2.371 -1.1333  2.5216 -2.5020
  692MOL0     H91339   9.895   1.378   2.488  1.4064 -1.8357 -0.0856
  692MOL0     H91340  10.057   1.189   2.418  0.8454  0.7753  1.1975
  692MOL0     H91341  10.062   1.266   2.257  1.9813  1.2941 -0.5394
  692MOL0     H91342  10.319   1.478   2.516  1.8864 -1.5528 -1.2351
  692MOL0     H91343   9.567   1.657   2.471  1.8580  1.6287 -3.7593
  692MOL0     H91344   9.350   1.742   2.483 -0.6346  0.5376 -1.4355
  693MOL0     O91345   2.624   6.901  11.134  0.6956 -0.1890 -0.4582
  693MOL0     C91346   2.618   6.979  11.042 -0.8380 -0.3404  0.0687
  693MOL0     O91347   2.725   7.042  10.985 -0.2250 -0.0491  0.3452
  693MOL0     C91348   2.850   7.013  11.032  0.3580 -0.5205  0.3661
  693MOL0     C91349   2.907   6.894  11.076  0.5063  0.6910 -0.7979
  693MOL0     C91350   3.041   6.885  11.122  0.4203 -0.7301 -0.2765
  693MOL0     C91351   3.130   6.989  11.111  0.7711 -0.0714 -0.5678
  693MOL0     O91352   3.260   6.979  11.156 -0.2528  0.2031  0.3225
  693MOL0     C91353   3.304   6.882  11.252 -0.9522 -0.3522  0.3057
  693MOL0     C91354   3.417   6.953  11.325  0.0658  0.1374  0.3858
  693MOL0     C91355   3.424   6.907  11.473 -0.2206 -0.0167  0.2278
  693MOL0     C91356   3.537   6.975  11.548  1.2451  0.4700 -1.3785
  693MOL0     C91357   3.526   6.940  11.699 -0.3174  0.3894  0.1348
  693MOL0     C91358   3.388   6.979  11.764  0.1492  0.0514 -0.1104
  693MOL0     C91359   3.383   7.003  11.916  1.3588  0.1229 -1.0762
  693MOL0     C91360   3.244   7.068  11.960  0.2494 -0.3366 -0.1549
  693MOL0     N91361   3.221   7.205  11.924 -0.2869  0.0165  0.4388
  693MOL0     C91362   3.272   7.315  11.994  0.1458  0.5853  0.3690
  693MOL0     C91363   3.199   7.427  11.944  0.7588  0.8818  1.0565
  693MOL0     C91364   3.200   7.566  11.982  0.1988  0.4255 -0.6795
  693MOL0     C91365   3.247   7.663  11.875 -0.6688  0.1020 -0.3474
  693MOL0     C91366   3.232   7.797  11.927  0.4168  0.3553  0.2984
  693MOL0     C91367   3.116   7.880  11.875  0.3750  0.1098 -0.7811
  693MOL0     O91368   2.982   7.824  11.909  0.4128 -0.9008 -0.4786
  693MOL0     C91369   2.870   7.875  11.843 -1.4524 -0.1796 -0.3089
  693MOL0     C91370   2.861   7.990  11.765 -0.0649 -0.1854  1.0609
  693MOL0     C91371   2.738   8.031  11.711  0.7900  0.8385  0.0631
  693MOL0     C91372   2.620   7.959  11.729  0.0881 -0.2996  0.4437
  693MOL0     C91373   2.499   8.003  11.658 -0.0637 -0.8809 -0.1239
  693MOL0     O91374   2.485   8.141  11.650 -0.1422 -0.4012  0.0302
  693MOL0     C91375   2.396   8.191  11.555  0.5609 -0.0413 -0.1862
  693MOL0     C91376   2.261   8.142  11.545 -0.3180 -0.1733  0.0048
  693MOL0     C91377   2.182   8.197  11.444  0.1121 -0.4374 -0.8310
  693MOL0     C91378   2.216   8.307  11.366 -0.4648  0.4180 -0.6615
  693MOL0     O91379   2.125   8.378  11.286 -0.2059 -0.3150  0.4681
  693MOL0     C91380   2.157   8.513  11.231 -0.7293 -0.0642 -0.1897
  693MOL0     C91381   2.030   8.544  11.159  0.3929 -0.8120 -0.2246
  693MOL0     C91382   1.922   8.577  11.261 -0.2745 -0.1528 -0.5409
  693MOL0     C91383   1.792   8.605  11.195 -0.2686 -0.0511  0.4646
  693MOL0     C91384   1.695   8.652  11.306  0.0224 -0.4286 -0.0797
  693MOL0     C91385   1.559   8.677  11.237 -0.3296 -0.5044  0.1849
  693MOL0     C91386   1.462   8.717  11.358 -1.1154 -0.8264  0.2301
  693MOL0     C91387   1.315   8.747  11.311  0.0482 -0.3230  0.1780
  693MOL0    Cl91388   1.218   8.770  11.463  0.3220 -0.2599 -0.0377
  693MOL0     C91389   2.340   8.365  11.396 -0.0098  0.7190 -0.3137
  693MOL0     C91390   2.429   8.301  11.488 -0.2519 -0.5384  0.0503
  693MOL0     O91391   2.430   7.921  11.601 -0.9118  0.3455  0.1712
  693MOL0     C91392   2.627   7.845  11.806 -0.0162 -0.2140 -0.1796
  693MOL0     C91393   2.756   7.803  11.858 -0.3201  0.7558  0.7618
  693MOL0     N91394   3.107   7.377  11.846  0.1605  0.3134  0.4293
  693MOL0     N91395   3.119   7.244  11.846 -0.5021  0.7199  0.4603
  693MOL0     C91396   3.073   7.110  11.065  0.3959 -0.3176 -1.3517
  693MOL0     C91397   2.942   7.115  11.018 -1.3710 -0.9773 -0.5753
  693MOL0     C91398   2.490   7.017  10.987 -0.0806 -0.3484 -0.9506
  693MOL0     C91399   2.470   7.117  10.891 -0.3958 -0.3555 -0.6426
  693MOL0     C91400   2.349   7.156  10.829 -0.0374  0.1287 -0.0226
  693MOL0     C91401   2.235   7.078  10.861 -0.4139 -0.3602 -0.5548
  693MOL0     O91402   2.111   7.095  10.810 -0.0807  0.8991  0.0752
  693MOL0     C91403   2.101   7.223  10.745 -0.0632 -0.4357 -0.6261
  693MOL0     C91404   1.964   7.261  10.714  0.2115  0.2383  0.0397
  693MOL0     C91405   1.869   7.243  10.838  0.2634  0.3064  0.1201
  693MOL0     C91406   1.738   7.321  10.816  0.6159  0.4818 -0.4254
  693MOL0     C91407   1.659   7.259  10.706 -1.0656 -1.3893  0.2050
  693MOL0     C91408   1.616   7.195  10.620 -0.8427  0.4641 -0.2073
  693MOL0     C91409   2.249   6.977  10.962 -0.1771 -1.0843  0.9459
  693MOL0     C91410   2.370   6.951  11.029  0.0057  0.4365 -0.3540
  693MOL0     H91411   2.834   6.814  11.093  0.5647  0.9497  0.8248
  693MOL0     H91412   3.059   6.786  11.161 -2.5051 -1.0213  0.5983
  693MOL0     H91413   3.345   6.795  11.201  3.0671  0.9084  1.0289
  693MOL0     H91414   3.218   6.847  11.309 -1.5590  0.3911 -0.1313
  693MOL0     H91415   3.385   7.058  11.324 -1.9384 -0.4499  0.1064
  693MOL0     H91416   3.509   6.940  11.268 -0.8098  0.8457 -1.2611
  693MOL0     H91417   3.428   6.798  11.474  0.2151 -0.1416 -3.0107
  693MOL0     H91418   3.328   6.940  11.514  1.1717  1.6181  2.4139
  693MOL0     H91419   3.632   6.944  11.504  0.2692 -2.5339 -1.5961
  693MOL0     H91420   3.537   7.084  11.542  2.4781  0.4663 -1.7880
  693MOL0     H91421   3.609   6.996  11.742  0.0712 -0.2010  0.1611
  693MOL0     H91422   3.548   6.836  11.723  3.6643  0.2122 -3.1824
  693MOL0     H91423   3.303   6.917  11.735 -1.1240  0.5729  2.2342
  693MOL0     H91424   3.366   7.077  11.721 -0.0967  0.0908  0.0997
  693MOL0     H91425   3.411   6.907  11.959  1.7718  0.2263 -1.1058
  693MOL0     H91426   3.466   7.069  11.944 -0.5987  1.8248  1.0820
  693MOL0     H91427   3.234   7.077  12.068  2.1908  3.3020 -0.0899
  693MOL0     H91428   3.163   7.001  11.931 -1.0497  1.4423 -0.8738
  693MOL0     H91429   3.355   7.315  12.064 -0.4713 -0.7374  1.1387
  693MOL0     H91430   3.276   7.571  12.061  0.6745  2.4140 -1.2063
  693MOL0     H91431   3.099   7.593  12.013 -0.1531 -0.9090 -0.6249
  693MOL0     H91432   3.188   7.653  11.783  0.6997 -1.2773 -1.1127
  693MOL0     H91433   3.347   7.642  11.838 -0.1212 -0.2270  1.2398
  693MOL0     H91434   3.237   7.808  12.036 -0.1528 -1.7792  0.5844
  693MOL0     H91435   3.320   7.848  11.886  0.1499  0.5341 -0.0585
  693MOL0     H91436   3.127   7.897  11.768 -1.7073  2.5727 -0.6929
  693MOL0     H91437   3.122   7.976  11.926  1.7952  0.8649 -2.2826
  693MOL0     H91438   2.940   8.058  11.735 -0.3361 -0.9095 -1.5001
  693MOL0     H91439   2.744   8.115  11.643  1.6868  0.0178 -0.9051
  693MOL0     H91440   2.239   8.068  11.621  1.3507  0.8639  1.5899
  693MOL0     H91441   2.086   8.149  11.430  0.4852 -1.2239 -0.7947
  693MOL0     H91442   2.234   8.495  11.155 -0.2788 -2.6508  0.7924
  693MOL0     H91443   2.196   8.585  11.304 -1.5079  2.8722 -2.4672
  693MOL0     H91444   1.998   8.466  11.089  1.9851  0.6638 -2.7737
  693MOL0     H91445   2.047   8.631  11.094 -2.1358  0.0720  0.1581
  693MOL0     H91446   1.946   8.670  11.314  1.7750 -0.7280 -0.3871
  693MOL0     H91447   1.913   8.497  11.335  1.8501  1.2665  1.3951
  693MOL0     H91448   1.795   8.687  11.123 -4.2983  0.2425  0.4007
  693MOL0     H91449   1.747   8.515  11.151  1.3621 -0.1295 -1.1548
  693MOL0     H91450   1.734   8.746  11.346 -1.8762  0.1232  0.5782
  693MOL0     H91451   1.694   8.579  11.387 -1.4216  1.6370  1.8703
  693MOL0     H91452   1.518   8.589  11.188  2.2683 -1.2775 -0.7396
  693MOL0     H91453   1.578   8.763  11.172  1.6526 -1.3951 -0.4902
  693MOL0     H91454   1.453   8.643  11.438 -1.1442 -0.1581  0.8496
  693MOL0     H91455   1.505   8.803  11.410  0.8664 -1.3569 -0.4421
  693MOL0     H91456   1.269   8.674  11.244  1.1507 -0.2192 -0.7314
  693MOL0     H91457   1.313   8.842  11.256 -0.8006 -1.3860 -1.7245
  693MOL0     H91458   2.360   8.461  11.349  0.1050  0.2878 -1.1737
  693MOL0     H91459   2.528   8.338  11.511 -0.3499 -0.0848 -0.2304
  693MOL0     H91460   2.541   7.780  11.821 -0.0233 -0.2527 -0.3891
  693MOL0     H91461   2.759   7.714  11.920  1.7746  1.8030  2.2770
  693MOL0     H91462   3.131   7.202  11.066 -3.0605  2.0057 -1.0775
  693MOL0     H91463   2.918   7.216  10.987  3.5008  1.7554  2.9769
  693MOL0     H91464   2.560   7.171  10.864 -0.6510  0.5459  0.2474
  693MOL0     H91465   2.355   7.241  10.762  1.1615 -1.1217 -1.5876
  693MOL0     H91466   2.171   7.236  10.661 -1.0914  1.5381 -1.2561
  693MOL0     H91467   2.142   7.299  10.813  1.2756 -0.7592 -1.0239
  693MOL0     H91468   1.962   7.363  10.676  1.1858 -0.2663 -1.4512
  693MOL0     H91469   1.940   7.200  10.626 -1.2592 -1.6443  1.6497
  693MOL0     H91470   1.921   7.264  10.932  0.4468 -1.9301  0.5877
  693MOL0     H91471   1.854   7.135  10.851  2.5379  0.2817  3.9982
  693MOL0     H91472   1.679   7.319  10.908  1.4986  0.1875  0.1476
  693MOL0     H91473   1.761   7.423  10.784 -1.8670  0.3396 -3.0409
  693MOL0     H91474   1.567   7.121  10.560  3.0118 -1.0501 -1.8008
  693MOL0     H91475   2.163   6.911  10.976  1.0570 -3.3657 -1.3449
  693MOL0     H91476   2.381   6.878  11.109  1.1203  1.6748  0.6792
  694MOL0     O91477   0.534   9.511   4.602  0.3904  0.2141 -0.1609
  694MOL0     C91478   0.516   9.576   4.502 -0.0679  0.0635 -0.6497
  694MOL0     O91479   0.405   9.574   4.423  0.1004  0.0459  0.1000
  694MOL0     C91480   0.302   9.489   4.452  0.4177 -0.2177 -0.8564
  694MOL0     C91481   0.174   9.541   4.467 -0.4305  0.3637 -0.4501
  694MOL0     C91482   0.068   9.450   4.506 -0.2725  1.1680  0.2174
  694MOL0     C91483   0.092   9.313   4.514  0.0008  0.0257 -0.7157
  694MOL0     O91484   0.008   9.221   4.563  0.1271  0.0602  0.0532
  694MOL0     C91485  -0.133   9.227   4.548 -0.2259 -0.5367  0.5684
  694MOL0     C91486  -0.218   9.120   4.623 -0.4764  0.2973  0.3936
  694MOL0     C91487  -0.179   8.977   4.568  0.6378  0.1320 -0.4207
  694MOL0     C91488  -0.267   8.870   4.640 -0.7171 -0.3062  0.0796
  694MOL0     C91489  -0.383   8.824   4.555  0.4377 -0.9834  0.2351
  694MOL0     C91490  -0.338   8.721   4.452 -0.2167  0.2898  0.1466
  694MOL0     C91491  -0.450   8.686   4.349  1.6130 -0.2264 -0.6248
  694MOL0     C91492  -0.584   8.613   4.406  0.5096 -0.2240 -0.2919
  694MOL0     N91493  -0.689   8.629   4.303 -0.2296  0.1576 -0.0391
  694MOL0     C91494  -0.781   8.538   4.265 -0.1222 -0.0037 -0.2338
  694MOL0     C91495  -0.849   8.598   4.170  0.3524 -0.0029  0.6605
  694MOL0     C91496  -0.956   8.531   4.099  0.5051  0.7971 -0.0476
  694MOL0     C91497  -1.089   8.561   4.165  0.0541  0.1079 -0.9346
  694MOL0     C91498  -1.216   8.514   4.096 -0.6279  0.4826  0.3086
  694MOL0     C91499  -1.343   8.521   4.183 -0.1457  1.2793  0.6434
  694MOL0     O91500  -1.456   8.475   4.103 -0.3945  0.1978 -0.0797
  694MOL0     C91501  -1.577   8.470   4.156 -0.3678  0.7602  0.2070
  694MOL0     C91502  -1.594   8.473   4.293  0.2223 -0.2758 -1.5057
  694MOL0     C91503  -1.724   8.467   4.345  0.2440  1.3560  0.2061
  694MOL0     C91504  -1.838   8.433   4.263 -0.3928  0.0997  0.5053
  694MOL0     C91505  -1.969   8.430   4.329  0.4100  0.5482 -0.8328
  694MOL0     O91506  -2.079   8.417   4.242 -0.2910  0.3397 -0.5289
  694MOL0     C91507  -2.207   8.421   4.284  0.0957  0.0790  0.1257
  694MOL0     C91508  -2.251   8.497   4.399 -0.3906 -0.1465 -0.0056
  694MOL0     C91509  -2.376   8.500   4.448  0.4388 -0.3205 -0.4317
  694MOL0     C91510  -2.480   8.430   4.386 -0.1818  0.4667  0.3379
  694MOL0     O91511  -2.607   8.425   4.441 -0.4735 -0.7265  0.3031
  694MOL0     C91512  -2.702   8.341   4.378 -0.3723  0.6550 -0.0437
  694MOL0     C91513  -2.816   8.317   4.473  0.3521 -0.2652  0.2861
  694MOL0     C91514  -2.924   8.244   4.398 -1.0664 -0.0699  0.9092
  694MOL0     C91515  -3.050   8.219   4.472 -0.3399  0.6349 -0.7484
  694MOL0     C91516  -3.179   8.171   4.391 -0.0042 -0.0594 -0.3657
  694MOL0     C91517  -3.291   8.135   4.488 -0.5702  0.0635 -0.0409
  694MOL0     C91518  -3.376   8.256   4.516 -0.0675  0.4886  0.2437
  694MOL0     C91519  -3.501   8.202   4.591 -0.8493  0.3252  0.1486
  694MOL0    Cl91520  -3.609   8.334   4.618 -0.3908  0.2027  0.1902
  694MOL0     C91521  -2.445   8.364   4.269 -0.1364 -0.5463 -0.4032
  694MOL0     C91522  -2.314   8.348   4.226  0.0965  0.1275  0.2022
  694MOL0     O91523  -1.975   8.420   4.451  0.3076 -0.0931 -0.4123
  694MOL0     C91524  -1.816   8.436   4.130  0.2992  0.1375  0.0861
  694MOL0     C91525  -1.688   8.456   4.076 -0.3199 -0.0008  1.1205
  694MOL0     N91526  -0.813   8.730   4.159  0.8430  0.2437 -0.2108
  694MOL0     N91527  -0.718   8.749   4.247  0.0674 -0.1671  0.4106
  694MOL0     C91528   0.219   9.268   4.481  0.1381  1.3834  0.3297
  694MOL0     C91529   0.323   9.354   4.456  0.8088 -0.0773  0.8171
  694MOL0     C91530   0.626   9.660   4.462  0.1232  0.1154 -0.2493
  694MOL0     C91531   0.620   9.752   4.361  1.1569 -0.3663  0.9988
  694MOL0     C91532   0.724   9.834   4.326  0.1094  0.2576 -0.0441
  694MOL0     C91533   0.849   9.829   4.382 -0.4072  0.6696  0.3748
  694MOL0     O91534   0.942   9.917   4.342 -0.4731  0.1006  0.7392
  694MOL0     C91535   1.072   9.890   4.392 -0.0883 -0.9925 -0.1461
  694MOL0     C91536   1.180   9.962   4.313 -0.3190  0.5946  0.2520
  694MOL0     C91537   1.166  10.115   4.308 -0.0316  0.0090  0.5576
  694MOL0     C91538   1.276  10.180   4.219 -0.1913 -0.0319 -0.7322
  694MOL0     C91539   1.404  10.179   4.290  0.6275 -0.2365 -0.5033
  694MOL0     C91540   1.511  10.171   4.355 -0.4642 -0.4015 -0.2596
  694MOL0     C91541   0.862   9.726   4.481  0.2052  0.1845 -0.0569
  694MOL0     C91542   0.752   9.653   4.524  0.1225 -0.5194  0.2988
  694MOL0     H91543   0.151   9.647   4.473 -1.2034  0.1755  0.0401
  694MOL0     H91544  -0.030   9.484   4.536 -1.0358 -1.2245  0.6411
  694MOL0     H91545  -0.151   9.199   4.444  1.0020 -1.4283  0.5734
  694MOL0     H91546  -0.168   9.325   4.582  3.3276  0.6129  1.3802
  694MOL0     H91547  -0.324   9.141   4.605  0.0293  1.7394 -1.1527
  694MOL0     H91548  -0.207   9.125   4.732  0.4310  0.3040  0.3116
  694MOL0     H91549  -0.072   8.966   4.584  0.5267 -1.5877 -0.6475
  694MOL0     H91550  -0.205   8.977   4.462 -3.0669  3.5619  0.2110
  694MOL0     H91551  -0.203   8.785   4.663 -2.8321 -1.6315  1.4289
  694MOL0     H91552  -0.305   8.899   4.738 -1.8067 -3.6057  0.7698
  694MOL0     H91553  -0.444   8.911   4.526 -2.5513 -3.3667 -1.1731
  694MOL0     H91554  -0.447   8.779   4.630 -0.0291  1.2235  1.2536
  694MOL0     H91555  -0.297   8.634   4.504 -1.3392 -1.3601 -1.6065
  694MOL0     H91556  -0.261   8.755   4.382 -1.1419 -1.4176 -1.8101
  694MOL0     H91557  -0.483   8.782   4.308 -0.2602 -1.3887 -2.0358
  694MOL0     H91558  -0.417   8.614   4.273  0.4961 -2.0706  0.5557
  694MOL0     H91559  -0.620   8.663   4.496 -0.1357  0.7675 -1.0778
  694MOL0     H91560  -0.560   8.507   4.420  1.4849 -0.6554 -3.9935
  694MOL0     H91561  -0.779   8.432   4.287  2.8683  0.0824  0.3651
  694MOL0     H91562  -0.931   8.424   4.099 -0.4522  0.5568 -0.4359
  694MOL0     H91563  -0.958   8.566   3.995 -0.5659 -1.3225 -0.8034
  694MOL0     H91564  -1.088   8.667   4.191  1.1464 -0.4116  1.3933
  694MOL0     H91565  -1.081   8.499   4.255  0.8962  0.4896 -0.7396
  694MOL0     H91566  -1.232   8.585   4.013 -3.3770  0.9765  1.1716
  694MOL0     H91567  -1.198   8.417   4.050 -4.0449 -0.3863  0.5435
  694MOL0     H91568  -1.362   8.620   4.224  0.8579  1.3391  1.0037
  694MOL0     H91569  -1.336   8.464   4.276 -3.5694 -0.6028 -0.0643
  694MOL0     H91570  -1.512   8.481   4.363 -0.9187 -0.8660 -0.0436
  694MOL0     H91571  -1.741   8.467   4.453 -3.7199 -1.8677 -0.1410
  694MOL0     H91572  -2.172   8.551   4.451 -0.6452  1.3686 -1.1317
  694MOL0     H91573  -2.396   8.571   4.528  1.5802  0.1988 -0.5825
  694MOL0     H91574  -2.659   8.246   4.348 -1.6395  0.4392 -1.2649
  694MOL0     H91575  -2.745   8.401   4.297 -2.4818 -0.8069 -0.0903
  694MOL0     H91576  -2.850   8.410   4.518  3.1630  0.3777  1.3244
  694MOL0     H91577  -2.787   8.256   4.559 -1.6520 -0.3435  0.9473
  694MOL0     H91578  -2.876   8.153   4.362 -2.1657 -0.2445 -0.1949
  694MOL0     H91579  -2.952   8.305   4.311  0.8519  0.3675  0.5623
  694MOL0     H91580  -3.027   8.145   4.550 -2.2728  3.2536  2.5304
  694MOL0     H91581  -3.080   8.308   4.527 -0.1571 -0.1988  0.7601
  694MOL0     H91582  -3.159   8.081   4.331 -0.4591 -1.1656  1.0710
  694MOL0     H91583  -3.220   8.247   4.324  0.3822  0.1287 -0.3888
  694MOL0     H91584  -3.238   8.088   4.570 -0.4505 -0.8310 -0.6219
  694MOL0     H91585  -3.355   8.058   4.444 -0.7124  1.6678 -2.9414
  694MOL0     H91586  -3.333   8.333   4.580  0.1753  0.3249  0.2766
  694MOL0     H91587  -3.400   8.310   4.424  4.2365  1.3362 -0.6132
  694MOL0     H91588  -3.470   8.147   4.681 -0.4891 -0.3222 -0.3675
  694MOL0     H91589  -3.553   8.125   4.534  0.2736 -0.8061  0.5903
  694MOL0     H91590  -2.523   8.309   4.217 -0.5829 -1.6589  1.3491
  694MOL0     H91591  -2.307   8.300   4.128  0.0976  0.9443 -0.2078
  694MOL0     H91592  -1.898   8.428   4.060  0.2756 -1.6247  0.2851
  694MOL0     H91593  -1.682   8.440   3.969 -1.0695 -2.3820  1.3817
  694MOL0     H91594   0.243   9.166   4.512 -2.4132  0.2620 -1.0087
  694MOL0     H91595   0.423   9.311   4.460  0.1442 -1.6558  1.3011
  694MOL0     H91596   0.523   9.761   4.312  1.6941  1.0036  0.1437
  694MOL0     H91597   0.723   9.905   4.245  3.0599 -0.2108 -0.6061
  694MOL0     H91598   1.087   9.783   4.376 -0.3908 -1.0201 -0.2312
  694MOL0     H91599   1.072   9.912   4.499 -3.1893 -0.3345 -0.2060
  694MOL0     H91600   1.270   9.925   4.362  0.6850 -0.7418 -2.4028
  694MOL0     H91601   1.179   9.928   4.209  2.3131  1.2320 -0.0382
  694MOL0     H91602   1.166  10.157   4.409 -3.3310  1.8264 -0.0583
  694MOL0     H91603   1.071  10.138   4.260 -0.0345 -1.1572 -0.0419
  694MOL0     H91604   1.288  10.135   4.120 -0.9774  2.3535 -1.9878
  694MOL0     H91605   1.243  10.282   4.196 -4.6414 -1.1902 -0.4090
  694MOL0     H91606   1.605  10.182   4.405 -1.1049  2.4046  0.5175
  694MOL0     H91607   0.950   9.716   4.544  1.4082 -1.4507 -1.8605
  694MOL0     H91608   0.777   9.593   4.611  0.0291  0.5503  1.0765
  695MOL0     O91609   7.565   3.621   9.122 -0.1934  0.7036  0.0106
  695MOL0     C91610   7.568   3.661   9.010  0.1201 -0.4067  0.3529
  695MOL0     O91611   7.662   3.735   8.955 -0.6586 -0.6642 -0.7140
  695MOL0     C91612   7.789   3.722   9.013  0.5376 -0.8112 -0.6536
  695MOL0     C91613   7.851   3.602   9.056  0.4638 -0.0136  0.7652
  695MOL0     C91614   7.969   3.606   9.121  0.3150 -0.0353 -0.8326
  695MOL0     C91615   8.029   3.730   9.142 -0.2627 -0.2528  0.5437
  695MOL0     O91616   8.141   3.719   9.217 -0.4916  0.0896 -0.0733
  695MOL0     C91617   8.216   3.833   9.266 -0.6175 -0.7255 -0.4410
  695MOL0     C91618   8.149   3.923   9.371  0.7649  0.5749 -0.0837
  695MOL0     C91619   8.112   3.851   9.500 -0.6696 -0.8112  0.1351
  695MOL0     C91620   7.967   3.790   9.483  0.7279 -1.1068 -0.3671
  695MOL0     C91621   7.925   3.730   9.620 -0.2415  0.4828  0.5451
  695MOL0     C91622   7.806   3.632   9.617 -0.2551  0.3549 -0.6308
  695MOL0     C91623   7.689   3.702   9.558 -0.3652  0.3466  0.9344
  695MOL0     C91624   7.560   3.621   9.556  0.8421 -0.0993 -0.1665
  695MOL0     N91625   7.583   3.487   9.495 -0.2304  0.7237  0.5212
  695MOL0     C91626   7.626   3.455   9.364  0.0714 -0.2379  0.1412
  695MOL0     C91627   7.607   3.314   9.348  0.5322  0.1190 -0.7583
  695MOL0     C91628   7.669   3.258   9.229 -0.7574  0.1342  1.4817
  695MOL0     C91629   7.827   3.247   9.231  0.6868 -0.3116  0.4351
  695MOL0     C91630   7.890   3.127   9.311 -0.3646  0.6280  0.4441
  695MOL0     C91631   7.850   3.120   9.462  0.8791 -0.1933 -0.0690
  695MOL0     O91632   7.917   3.005   9.502 -0.0557 -0.0131  0.0044
  695MOL0     C91633   7.945   2.974   9.629  0.3643 -1.1680  1.1389
  695MOL0     C91634   7.903   3.059   9.740 -0.0670 -0.2544 -0.1285
  695MOL0     C91635   7.924   3.004   9.870  0.9667 -0.1270 -0.1343
  695MOL0     C91636   7.986   2.889   9.891 -0.2462  0.2640 -0.2936
  695MOL0     C91637   8.010   2.837  10.034  0.0196 -0.4777  0.3447
  695MOL0     O91638   8.104   2.727  10.052 -0.0212 -0.1381 -0.6696
  695MOL0     C91639   8.106   2.668  10.183  0.3684  0.6912 -0.5737
  695MOL0     C91640   7.985   2.618  10.243 -0.2009 -0.5238 -0.4405
  695MOL0     C91641   7.989   2.576  10.376 -0.0782 -0.2797  0.7466
  695MOL0     C91642   8.106   2.560  10.444  0.1683  0.2185  0.1542
  695MOL0     O91643   8.099   2.508  10.569 -0.1448 -0.1240  0.9733
  695MOL0     C91644   8.049   2.600  10.675 -0.5641 -0.2988  0.6395
  695MOL0     C91645   7.960   2.527  10.771  0.0528 -0.4794  0.3898
  695MOL0     C91646   7.832   2.466  10.711 -0.6459  0.1300  0.6504
  695MOL0     C91647   7.742   2.399  10.814  0.4489  0.5598 -0.2467
  695MOL0     C91648   7.769   2.247  10.826  0.0670  0.1054 -0.1949
  695MOL0     C91649   7.671   2.174  10.918  0.4243  0.4187  0.5643
  695MOL0     C91650   7.554   2.132  10.836 -0.0377 -0.1448  0.2255
  695MOL0     C91651   7.457   2.051  10.927 -0.2015  0.9896  0.3664
  695MOL0    Cl91652   7.526   1.901  10.998  0.1146  0.1655 -0.2129
  695MOL0     C91653   8.225   2.585  10.383 -0.1794 -0.3430 -0.1915
  695MOL0     C91654   8.224   2.643  10.252 -0.3079 -0.0407  0.4335
  695MOL0     O91655   7.943   2.886  10.128  0.5377  0.4458 -0.2642
  695MOL0     C91656   8.035   2.812   9.784  0.3999  0.1832  0.6699
  695MOL0     C91657   8.012   2.852   9.652  0.0544  0.3851  0.0971
  695MOL0     N91658   7.562   3.264   9.471  0.2103 -0.0640  0.2106
  695MOL0     N91659   7.543   3.362   9.549  0.5952 -0.2859  0.3572
  695MOL0     C91660   7.977   3.848   9.100 -0.3780  0.3184 -0.5992
  695MOL0     C91661   7.848   3.848   9.046  0.6606 -0.4926 -0.7156
  695MOL0     C91662   7.467   3.606   8.916 -0.2978  0.3169 -0.2103
  695MOL0     C91663   7.385   3.492   8.953 -0.8803 -0.3084 -0.0756
  695MOL0     C91664   7.274   3.459   8.867 -0.0147 -0.0598 -0.0045
  695MOL0     C91665   7.255   3.530   8.744  0.0959  0.4948  0.9167
  695MOL0     O91666   7.168   3.490   8.648 -0.0841 -0.5850  0.5373
  695MOL0     C91667   7.043   3.429   8.685 -0.2253 -0.2652  0.4669
  695MOL0     C91668   6.968   3.412   8.563 -0.4995  0.7313  0.1321
  695MOL0     C91669   6.822   3.388   8.578 -0.0589  0.0486 -0.2266
  695MOL0     C91670   6.778   3.252   8.635 -0.3303  0.6914  0.3962
  695MOL0     C91671   6.631   3.251   8.624 -0.2596 -0.4295 -0.8060
  695MOL0     C91672   6.517   3.247   8.613  0.1776  0.4050  0.5535
  695MOL0     C91673   7.336   3.641   8.722  0.3689 -0.6557  0.2565
  695MOL0     C91674   7.441   3.676   8.800  0.0851 -0.3377  0.5057
  695MOL0     H91675   7.801   3.507   9.039  1.6370 -0.1996 -2.2880
  695MOL0     H91676   8.014   3.513   9.154 -2.8681 -1.4993 -0.2179
  695MOL0     H91677   8.245   3.881   9.172  1.0622  0.3628  0.5660
  695MOL0     H91678   8.312   3.806   9.311  0.1992  1.4422 -0.7745
  695MOL0     H91679   8.058   3.966   9.328 -0.9423  0.8502  3.4636
  695MOL0     H91680   8.220   3.999   9.405  0.3275  2.1269 -2.3933
  695MOL0     H91681   8.112   3.925   9.581 -1.8333 -0.5413 -0.1026
  695MOL0     H91682   8.195   3.781   9.517  1.0091  1.5918  2.9825
  695MOL0     H91683   7.898   3.869   9.454 -0.8458 -2.2344  0.1615
  695MOL0     H91684   7.968   3.723   9.397  2.6291  0.7222 -1.8662
  695MOL0     H91685   7.899   3.819   9.677 -2.1038 -0.1593  0.7660
  695MOL0     H91686   8.011   3.678   9.665  0.1433  0.9101  0.3093
  695MOL0     H91687   7.774   3.583   9.709 -0.7370 -0.7954 -1.3836
  695MOL0     H91688   7.828   3.545   9.554  1.4954 -1.8245  2.6750
  695MOL0     H91689   7.665   3.788   9.620 -1.0390  0.4188  0.5937
  695MOL0     H91690   7.700   3.742   9.457  0.8525 -1.9018  0.0894
  695MOL0     H91691   7.490   3.683   9.498  0.5281 -1.5466 -1.4121
  695MOL0     H91692   7.512   3.614   9.654  2.0839  2.1251  0.6663
  695MOL0     H91693   7.675   3.519   9.292  1.7524 -0.6819  0.8504
  695MOL0     H91694   7.647   3.324   9.145  1.8528  0.0777  0.6662
  695MOL0     H91695   7.620   3.161   9.218 -0.3811 -0.0553  1.4687
  695MOL0     H91696   7.873   3.343   9.256  0.5585  0.2850 -1.4671
  695MOL0     H91697   7.861   3.225   9.129 -2.5610 -0.5040 -0.7250
  695MOL0     H91698   7.850   3.045   9.252 -2.9003  4.2088 -3.4282
  695MOL0     H91699   7.998   3.144   9.302 -0.6043  1.4600 -1.5333
  695MOL0     H91700   7.743   3.098   9.454  1.0720 -0.7042 -1.6909
  695MOL0     H91701   7.882   3.212   9.512  1.7713 -0.3125 -0.4064
  695MOL0     H91702   7.848   3.152   9.728  1.6172  0.6217 -1.5316
  695MOL0     H91703   7.891   3.065   9.954 -3.2172  0.8935 -2.2522
  695MOL0     H91704   7.887   2.626  10.196 -0.5541  1.2029  0.5084
  695MOL0     H91705   7.899   2.548  10.428 -0.4046 -0.6677 -0.0100
  695MOL0     H91706   8.003   2.686  10.626  0.1658 -1.0460 -1.4774
  695MOL0     H91707   8.137   2.632  10.732 -0.5970 -1.1509  1.1766
  695MOL0     H91708   7.932   2.596  10.851 -1.4206  0.0140 -0.5230
  695MOL0     H91709   8.020   2.445  10.813 -0.0418  1.1678  4.1044
  695MOL0     H91710   7.848   2.397  10.628 -2.5273  2.3056 -1.6657
  695MOL0     H91711   7.776   2.557  10.688 -0.3454 -0.1815 -1.4401
  695MOL0     H91712   7.758   2.450  10.910 -0.8430  0.5632 -0.0074
  695MOL0     H91713   7.634   2.414  10.797 -0.1876  0.1309  2.8214
  695MOL0     H91714   7.870   2.228  10.861 -0.3879  0.6269  1.5440
  695MOL0     H91715   7.771   2.201  10.728 -0.8036 -3.0588  1.1481
  695MOL0     H91716   7.640   2.228  11.008 -3.3602 -1.4394  0.5742
  695MOL0     H91717   7.720   2.082  10.951  0.6389 -0.4948 -2.0916
  695MOL0     H91718   7.519   2.224  10.789  1.6720 -0.1103 -1.0685
  695MOL0     H91719   7.586   2.067  10.754 -0.5584 -1.6192  1.1394
  695MOL0     H91720   7.368   2.013  10.876  0.7678 -1.6545  0.4882
  695MOL0     H91721   7.424   2.110  11.013 -0.1012 -1.5750  2.2504
  695MOL0     H91722   8.317   2.573  10.440 -0.6002  0.0355  0.5856
  695MOL0     H91723   8.323   2.666  10.213 -0.3716  1.7502  1.2095
  695MOL0     H91724   8.090   2.720   9.798  0.5969 -0.6326 -3.8681
  695MOL0     H91725   8.053   2.785   9.577  0.6193 -0.7926  1.4242
  695MOL0     H91726   8.035   3.940   9.105  0.0144  0.0456 -0.1241
  695MOL0     H91727   7.788   3.937   9.031  1.7318  0.5778  1.0457
  695MOL0     H91728   7.405   3.429   9.039  0.5221  0.7312  0.4061
  695MOL0     H91729   7.212   3.376   8.901  0.1237  0.4851  1.6459
  695MOL0     H91730   7.009   3.498   8.762  3.7742  1.3505  1.0409
  695MOL0     H91731   7.054   3.337   8.743 -2.0501  0.9809  2.9558
  695MOL0     H91732   6.983   3.507   8.511 -1.0909  2.1946  2.4756
  695MOL0     H91733   7.007   3.324   8.512 -3.0843 -0.9845  0.9493
  695MOL0     H91734   6.780   3.389   8.477 -2.9026  0.2068  0.8599
  695MOL0     H91735   6.783   3.473   8.634 -0.2178  2.0043 -3.1413
  695MOL0     H91736   6.820   3.178   8.566 -1.9282 -0.4821  0.6295
  695MOL0     H91737   6.820   3.236   8.735 -0.4002  0.0844  0.3285
  695MOL0     H91738   6.411   3.237   8.598 -0.2591 -0.1790  3.4159
  695MOL0     H91739   7.319   3.698   8.631 -0.5815  0.3919  1.0617
  695MOL0     H91740   7.499   3.764   8.777 -0.7699  0.6180  1.8972
  696MOL0     O91741   4.166   2.864   8.080 -0.6399 -0.9734 -0.1503
  696MOL0     C91742   4.185   2.914   8.192  0.3747  0.6874  0.0703
  696MOL0     O91743   4.085   2.933   8.283 -0.3148 -0.0968 -0.4077
  696MOL0     C91744   3.958   2.898   8.243 -0.2616  0.3287 -0.0413
  696MOL0     C91745   3.873   3.001   8.198 -0.1894 -0.0852  0.7699
  696MOL0     C91746   3.737   2.971   8.168  0.5429  0.0527 -0.1896
  696MOL0     C91747   3.687   2.835   8.179  0.0258 -0.9503  0.4022
  696MOL0     O91748   3.562   2.789   8.147 -0.3844  0.2258  0.0082
  696MOL0     C91749   3.493   2.882   8.067 -0.3782  0.0147  0.1388
  696MOL0     C91750   3.347   2.820   8.040 -0.4656 -0.7562  0.0074
  696MOL0     C91751   3.258   2.926   7.980 -0.8603  0.1397  0.2694
  696MOL0     C91752   3.126   2.862   7.952  0.8345  0.1446 -0.5906
  696MOL0     C91753   3.010   2.961   7.910  0.5699  0.5857  0.0098
  696MOL0     C91754   2.901   2.869   7.850 -0.0852 -1.1418  0.1308
  696MOL0     C91755   2.805   2.950   7.753  0.0173 -0.2343  0.3473
  696MOL0     C91756   2.706   3.030   7.828  0.2957 -0.6993 -0.2177
  696MOL0     N91757   2.599   3.092   7.744  0.0123  0.4396 -0.3479
  696MOL0     C91758   2.511   3.037   7.658 -0.4484  0.0586  0.1212
  696MOL0     C91759   2.434   3.137   7.627 -0.3771  0.9928  0.1967
  696MOL0     C91760   2.324   3.119   7.523 -0.2353  1.0149 -0.8068
  696MOL0     C91761   2.191   3.082   7.593  0.1484 -0.3404 -0.0521
  696MOL0     C91762   2.192   2.950   7.663 -0.9773 -0.0574 -0.2381
  696MOL0     C91763   2.058   2.921   7.713 -0.4559 -0.6593 -0.2590
  696MOL0     O91764   1.969   2.912   7.603  0.5340  0.2719 -0.6134
  696MOL0     C91765   1.846   2.925   7.629  0.6494 -0.1307 -0.2778
  696MOL0     C91766   1.783   2.843   7.719  0.1105  0.6417 -0.1778
  696MOL0     C91767   1.642   2.848   7.741  0.0374  0.5018 -0.6059
  696MOL0     C91768   1.571   2.946   7.672 -0.2954  0.5126  0.5194
  696MOL0     C91769   1.429   2.956   7.690  0.4360 -0.2387  0.6415
  696MOL0     O91770   1.364   2.933   7.807 -0.3090 -0.4963 -0.3069
  696MOL0     C91771   1.228   2.960   7.817  0.6713 -0.2986 -0.1399
  696MOL0     C91772   1.146   2.851   7.825  0.2015  0.4759 -0.3852
  696MOL0     C91773   1.012   2.860   7.823 -0.0627 -0.3617 -0.7015
  696MOL0     C91774   0.950   2.988   7.813  0.9242  0.3728  0.2998
  696MOL0     O91775   0.808   2.992   7.799 -0.2333 -0.0256  0.1072
  696MOL0     C91776   0.744   3.118   7.766 -0.0811 -0.4302 -0.0442
  696MOL0     C91777   0.591   3.114   7.781 -0.3274 -0.3288  0.0838
  696MOL0     C91778   0.548   3.075   7.920 -0.2977 -0.3375  0.1430
  696MOL0     C91779   0.572   3.178   8.026 -0.4755 -0.5428 -0.0123
  696MOL0     C91780   0.567   3.107   8.165 -0.4981 -0.2411 -0.4261
  696MOL0     C91781   0.422   3.089   8.209 -0.0906 -0.9424  1.0373
  696MOL0     C91782   0.421   2.996   8.325  0.1382  0.6353  0.1043
  696MOL0     C91783   0.279   2.939   8.328  0.9056  0.6274 -0.6517
  696MOL0    Cl91784   0.175   3.067   8.365  0.2466 -0.0709 -0.1873
  696MOL0     C91785   1.030   3.107   7.812 -0.4224  0.8984  0.4526
  696MOL0     C91786   1.173   3.091   7.816  0.5091 -0.5616  0.7415
  696MOL0     O91787   1.371   3.003   7.589 -0.3877 -0.1983 -0.2778
  696MOL0     C91788   1.637   3.033   7.587 -0.8147  0.0765 -0.1885
  696MOL0     C91789   1.775   3.019   7.560  0.0680 -0.2644 -0.1258
  696MOL0     N91790   2.466   3.255   7.690 -0.6272  0.7776  0.5069
  696MOL0     N91791   2.568   3.219   7.762  0.1434  0.5765  0.2976
  696MOL0     C91792   3.782   2.742   8.215  0.1084  1.1032 -0.0556
  696MOL0     C91793   3.909   2.772   8.254 -0.4414  0.1708 -0.0665
  696MOL0     C91794   4.323   2.944   8.235 -0.2896  0.3793 -0.4400
  696MOL0     C91795   4.435   2.944   8.140  0.6654 -0.0564  0.4212
  696MOL0     C91796   4.568   2.981   8.182 -0.7997 -0.3030 -0.6090
  696MOL0     C91797   4.588   2.994   8.322  0.5142  0.1524  0.6760
  696MOL0     O91798   4.713   3.005   8.379  0.9782  0.0870  0.3947
  696MOL0     C91799   4.833   2.993   8.305 -0.3836  0.5726  0.1681
  696MOL0     C91800   4.933   2.995   8.427 -0.5166  0.5001 -0.1315
  696MOL0     C91801   5.080   2.992   8.364 -0.7524  0.1056  0.8350
  696MOL0     C91802   5.185   3.030   8.472 -0.0534 -0.4980  0.8898
  696MOL0     C91803   5.325   3.050   8.430  0.0661  0.1116  0.2858
  696MOL0     C91804   5.440   3.076   8.405  0.3219 -0.4732  0.4043
  696MOL0     C91805   4.478   2.984   8.412  0.6589 -0.2508  0.0992
  696MOL0     C91806   4.347   2.959   8.368 -0.0847  0.0616  0.7910
  696MOL0     H91807   3.908   3.103   8.196  1.3584 -0.5593  1.9675
  696MOL0     H91808   3.669   3.056   8.163  0.0694 -0.2831  0.4218
  696MOL0     H91809   3.551   2.906   7.977  3.6066  0.6053  2.6066
  696MOL0     H91810   3.483   2.969   8.133 -1.8563 -0.4185  0.5292
  696MOL0     H91811   3.309   2.769   8.129  0.2687  0.3072  0.9731
  696MOL0     H91812   3.334   2.740   7.967 -3.9859  2.2296 -3.0258
  696MOL0     H91813   3.299   2.963   7.885  1.1046 -3.4202 -0.4593
  696MOL0     H91814   3.240   3.013   8.043  0.1102  2.3416 -2.2685
  696MOL0     H91815   3.135   2.786   7.873  1.0763  1.0279 -1.4270
  696MOL0     H91816   3.096   2.813   8.045 -1.1545  1.5600 -0.4261
  696MOL0     H91817   3.049   3.022   7.828  1.6099 -0.2220 -0.1128
  696MOL0     H91818   2.976   3.031   7.988  5.0781  1.6186  1.3351
  696MOL0     H91819   2.847   2.813   7.927  0.5447 -1.5546  0.2812
  696MOL0     H91820   2.938   2.792   7.782 -5.2144 -4.7354  0.8160
  696MOL0     H91821   2.863   3.022   7.695  2.0355  1.0509  3.6637
  696MOL0     H91822   2.754   2.884   7.682  0.6172  1.5351 -1.8213
  696MOL0     H91823   2.751   3.112   7.884 -0.6401 -0.2197 -0.1482
  696MOL0     H91824   2.652   2.970   7.902  1.0824 -1.3400 -0.1436
  696MOL0     H91825   2.496   2.933   7.631  0.6251 -0.1895  0.4104
  696MOL0     H91826   2.344   3.032   7.459 -0.6451 -0.5273  1.0720
  696MOL0     H91827   2.324   3.203   7.453  0.2970  0.6371 -1.2732
  696MOL0     H91828   2.120   3.091   7.510  1.1029  3.1701 -0.6741
  696MOL0     H91829   2.167   3.164   7.662  2.7506  1.3792 -1.0439
  696MOL0     H91830   2.237   2.871   7.602 -0.5059 -0.0553  0.0979
  696MOL0     H91831   2.269   2.964   7.739 -1.1283  0.7158 -0.2265
  696MOL0     H91832   2.011   2.984   7.789  2.1073  0.0452  0.8487
  696MOL0     H91833   2.066   2.823   7.762  4.2205  0.2005  1.2468
  696MOL0     H91834   1.840   2.766   7.770 -2.0162 -0.5628  0.5410
  696MOL0     H91835   1.603   2.765   7.798  0.6255  0.2934 -0.5032
  696MOL0     H91836   1.185   2.750   7.818  0.3451  0.5732 -1.0525
  696MOL0     H91837   0.959   2.765   7.830  0.3115 -0.4594  1.7662
  696MOL0     H91838   0.776   3.163   7.672  1.4273  1.2180  1.2086
  696MOL0     H91839   0.772   3.183   7.849 -0.1229  0.2655 -0.5703
  696MOL0     H91840   0.543   3.051   7.705 -0.6896  0.8722 -0.7194
  696MOL0     H91841   0.567   3.219   7.763  4.1606  1.5129  3.0427
  696MOL0     H91842   0.603   2.985   7.950 -1.9343 -1.3067  0.3772
  696MOL0     H91843   0.442   3.049   7.917 -1.0100  2.3682 -1.8360
  696MOL0     H91844   0.671   3.225   8.022 -0.9891  0.5258 -0.9732
  696MOL0     H91845   0.502   3.263   8.025 -1.3212 -1.1595  1.9178
  696MOL0     H91846   0.625   3.159   8.242 -0.5811 -1.3454  0.4103
  696MOL0     H91847   0.611   3.009   8.145  4.1463  1.5749 -0.3686
  696MOL0     H91848   0.382   3.036   8.122  5.0312 -2.7489 -0.6067
  696MOL0     H91849   0.365   3.182   8.214  1.2113  0.5059 -4.2503
  696MOL0     H91850   0.485   2.908   8.311  1.1508  0.8399  2.9108
  696MOL0     H91851   0.448   3.045   8.419  0.8151 -2.4698  1.6436
  696MOL0     H91852   0.269   2.863   8.405  0.7693 -1.1623 -2.3544
  696MOL0     H91853   0.250   2.892   8.233  0.2001 -0.7290  0.2105
  696MOL0     H91854   0.984   3.205   7.821 -0.5596  0.7667  1.3354
  696MOL0     H91855   1.234   3.180   7.822 -0.1200  0.1010 -1.5423
  696MOL0     H91856   1.576   3.108   7.537 -0.0832 -0.0770 -1.3507
  696MOL0     H91857   1.831   3.093   7.504 -1.9740 -0.5452 -2.7812
  696MOL0     H91858   3.751   2.638   8.218 -1.0019  1.4069 -0.5490
  696MOL0     H91859   3.980   2.697   8.288 -0.3391  1.4210  2.7989
  696MOL0     H91860   4.425   2.932   8.032  0.7601 -0.8116  0.4960
  696MOL0     H91861   4.650   2.984   8.110  2.2703  2.3276  2.6357
  696MOL0     H91862   4.855   3.074   8.236 -0.5517  1.8024  1.5143
  696MOL0     H91863   4.854   2.897   8.257  0.5749  1.5953 -1.5433
  696MOL0     H91864   4.927   3.087   8.486 -0.6475 -0.4856  1.4647
  696MOL0     H91865   4.917   2.908   8.493  0.2407 -0.3139 -0.9962
  696MOL0     H91866   5.095   3.059   8.278 -1.5521  1.1390  1.4861
  696MOL0     H91867   5.097   2.887   8.337 -2.7711  0.2643 -1.4363
  696MOL0     H91868   5.144   3.115   8.527 -0.9266  1.0078 -1.8962
  696MOL0     H91869   5.191   2.941   8.534  1.8002 -3.6000 -3.2505
  696MOL0     H91870   5.544   3.100   8.390 -0.0320 -0.3241 -2.3351
  696MOL0     H91871   4.497   2.981   8.519 -0.0359 -2.7768  0.2224
  696MOL0     H91872   4.268   2.933   8.437  0.1983 -4.0057 -0.1291
  697MOL0     O91873   9.047   3.460  11.175 -0.0958  1.2394  0.5421
  697MOL0     C91874   9.090   3.358  11.229 -0.8031  0.0212  0.1926
  697MOL0     O91875   9.016   3.286  11.319 -0.0200 -0.4600 -0.2303
  697MOL0     C91876   8.895   3.335  11.372  0.4520 -0.5762  0.2805
  697MOL0     C91877   8.786   3.392  11.296  0.3224 -0.3797 -0.5635
  697MOL0     C91878   8.666   3.434  11.356  0.3065 -0.3416  0.1637
  697MOL0     C91879   8.651   3.407  11.492  0.9024 -0.0659  0.4441
  697MOL0     O91880   8.543   3.438  11.574  0.3284 -0.0853  0.3406
  697MOL0     C91881   8.412   3.389  11.524 -0.6453 -0.5055 -0.3366
  697MOL0     C91882   8.339   3.343  11.644  0.3567 -0.2815 -0.1711
  697MOL0     C91883   8.196   3.297  11.611 -0.4445  0.5058 -0.7623
  697MOL0     C91884   8.132   3.249  11.740 -0.7104 -0.6871  0.6539
  697MOL0     C91885   7.987   3.206  11.729 -0.0308  0.1077  0.0866
  697MOL0     C91886   7.941   3.088  11.823  0.0346  0.1316  0.7789
  697MOL0     C91887   7.971   3.103  11.966 -0.3114  0.4445  0.0772
  697MOL0     C91888   7.858   3.172  12.031 -0.6404 -0.3577  0.2764
  697MOL0     N91889   7.722   3.108  12.035  0.2425 -0.5291 -0.4535
  697MOL0     C91890   7.670   2.986  12.001  0.3444 -0.2033 -0.5821
  697MOL0     C91891   7.530   2.998  12.035 -0.4670  0.1405 -0.5903
  697MOL0     C91892   7.435   2.886  12.014  0.5717  0.0068 -0.6815
  697MOL0     C91893   7.450   2.766  12.111 -0.5738 -0.2676  0.4494
  697MOL0     C91894   7.434   2.798  12.259 -0.0701  0.4646 -0.5344
  697MOL0     C91895   7.304   2.870  12.300  0.8243 -0.2650 -0.2625
  697MOL0     O91896   7.192   2.806  12.239 -0.2788  0.0726 -0.1123
  697MOL0     C91897   7.067   2.851  12.265  0.6112 -0.2585 -0.6684
  697MOL0     C91898   6.961   2.754  12.265  0.7558 -0.1385  0.1616
  697MOL0     C91899   6.819   2.792  12.292 -0.7729  0.1286  0.6177
  697MOL0     C91900   6.790   2.929  12.306 -0.6858  0.4258  1.0361
  697MOL0     C91901   6.654   2.979  12.313 -0.0953  0.6425  0.2925
  697MOL0     O91902   6.628   3.111  12.333  0.4023  0.1316  0.5660
  697MOL0     C91903   6.494   3.144  12.317  0.6844 -0.9304 -0.5509
  697MOL0     C91904   6.394   3.128  12.421 -0.0982 -0.1125  0.5088
  697MOL0     C91905   6.260   3.166  12.398 -0.9147 -0.1375 -0.1831
  697MOL0     C91906   6.223   3.218  12.275  1.1869  0.5234 -0.2637
  697MOL0     O91907   6.085   3.238  12.251 -0.1762 -0.1215 -0.0979
  697MOL0     C91908   6.062   3.354  12.161 -0.4066 -0.0684 -0.2503
  697MOL0     C91909   5.920   3.409  12.174 -0.4959  0.1646  0.6972
  697MOL0     C91910   5.869   3.431  12.312  0.5710 -0.3875 -0.2774
  697MOL0     C91911   5.718   3.446  12.322  0.8090  0.1852  0.0219
  697MOL0     C91912   5.665   3.518  12.447  0.0591 -0.3773  0.1509
  697MOL0     C91913   5.512   3.546  12.430 -0.5554  1.3590  0.4496
  697MOL0     C91914   5.442   3.612  12.556  0.0142  0.5746  0.3776
  697MOL0     C91915   5.322   3.684  12.508  0.1042  0.8003 -0.3746
  697MOL0    Cl91916   5.204   3.554  12.487  0.1054  0.1392  0.2658
  697MOL0     C91917   6.323   3.225  12.173  0.1876 -0.7606  0.4706
  697MOL0     C91918   6.456   3.190  12.193 -0.4359  0.3026  0.1173
  697MOL0     O91919   6.568   2.888  12.305 -0.6743 -0.6704 -0.0123
  697MOL0     C91920   6.894   3.021  12.311 -0.2323 -0.3218 -0.4212
  697MOL0     C91921   7.026   2.983  12.293  0.4312  0.6302  0.2923
  697MOL0     N91922   7.505   3.127  12.078 -0.8570  0.2745 -0.3086
  697MOL0     N91923   7.618   3.187  12.076 -0.0747  0.1302  0.4963
  697MOL0     C91924   8.751   3.355  11.569  0.5500  0.0502 -0.0911
  697MOL0     C91925   8.873   3.318  11.508 -0.6106 -0.1404  0.6569
  697MOL0     C91926   9.232   3.319  11.204 -0.3912  0.3233 -0.5878
  697MOL0     C91927   9.306   3.226  11.278 -0.0714  0.1972  0.2842
  697MOL0     C91928   9.441   3.195  11.248 -0.0939  0.6748 -0.6784
  697MOL0     C91929   9.506   3.246  11.140  0.1261 -1.0480 -0.4527
  697MOL0     O91930   9.633   3.210  11.126  0.7620 -0.3295  0.0318
  697MOL0     C91931   9.684   3.201  10.993  0.2414 -0.1369 -0.8261
  697MOL0     C91932   9.824   3.144  10.996 -0.2277  1.0372  0.0239
  697MOL0     C91933   9.848   2.991  10.998 -0.2592  0.0041  0.3055
  697MOL0     C91934   9.775   2.908  11.104 -0.0907 -0.6924 -0.1586
  697MOL0     C91935   9.849   2.926  11.225 -0.1634  0.4497 -0.6580
  697MOL0     C91936   9.917   2.966  11.319 -1.0955  0.0503  0.3983
  697MOL0     C91937   9.430   3.346  11.068  0.1551  0.1674  0.8079
  697MOL0     C91938   9.286   3.371  11.092  0.3612 -0.0502  0.4944
  697MOL0     H91939   8.806   3.411  11.191  2.0622  0.3673 -0.1281
  697MOL0     H91940   8.590   3.489  11.301  1.3325  0.3078 -0.6648
  697MOL0     H91941   8.429   3.306  11.455  1.2740 -0.4822  0.0414
  697MOL0     H91942   8.370   3.471  11.465  0.3749 -0.3304 -0.8455
  697MOL0     H91943   8.334   3.421  11.721 -0.4631 -1.6440  1.2132
  697MOL0     H91944   8.393   3.263  11.697 -0.5482 -1.4148 -0.9103
  697MOL0     H91945   8.197   3.222  11.531 -1.7636  1.8006 -2.0565
  697MOL0     H91946   8.134   3.380  11.579  2.0005  2.6656 -0.2250
  697MOL0     H91947   8.194   3.164  11.771  0.2536 -0.4373 -0.5365
  697MOL0     H91948   8.139   3.335  11.808 -1.9110  1.2285 -1.5158
  697MOL0     H91949   7.978   3.164  11.628 -1.0195  1.5111 -0.4385
  697MOL0     H91950   7.923   3.294  11.742  1.1018  1.6658 -3.5513
  697MOL0     H91951   7.996   3.001  11.787 -1.8965  0.9776 -5.7116
  697MOL0     H91952   7.837   3.062  11.797 -0.5399  3.5288 -0.9971
  697MOL0     H91953   7.986   3.005  12.012 -1.5735 -0.2448 -0.9149
  697MOL0     H91954   8.063   3.160  11.983  0.5256 -1.6280  3.2632
  697MOL0     H91955   7.835   3.257  11.967  1.2427  0.0870  0.1503
  697MOL0     H91956   7.892   3.216  12.125  0.6561  1.6974 -1.0984
  697MOL0     H91957   7.725   2.896  11.976 -0.6871 -0.9507 -0.2277
  697MOL0     H91958   7.433   2.848  11.912  2.4135  1.7428 -1.4275
  697MOL0     H91959   7.332   2.923  12.020  1.2004  1.8951 -0.9461
  697MOL0     H91960   7.543   2.710  12.100 -1.4976 -1.4784 -1.8527
  697MOL0     H91961   7.363   2.704  12.089 -1.1980 -0.3702  2.9391
  697MOL0     H91962   7.433   2.709  12.322  2.5012  2.6513  2.9232
  697MOL0     H91963   7.525   2.852  12.288  2.0909  0.3870 -5.8768
  697MOL0     H91964   7.309   2.975  12.267 -0.0593 -0.7116 -1.9051
  697MOL0     H91965   7.295   2.871  12.409 -1.2839 -0.4027 -0.3942
  697MOL0     H91966   6.981   2.648  12.252 -3.4811 -0.8428 -2.8623
  697MOL0     H91967   6.735   2.724  12.301 -0.3905 -0.0680  4.7074
  697MOL0     H91968   6.414   3.082  12.518 -0.7893 -0.0987  0.6648
  697MOL0     H91969   6.182   3.158  12.473 -3.3273  2.0667 -2.2495
  697MOL0     H91970   6.078   3.322  12.058 -1.4591 -1.4929 -0.0161
  697MOL0     H91971   6.127   3.436  12.192 -0.8575  0.0790  0.3381
  697MOL0     H91972   5.850   3.342  12.124  1.1977 -1.6008  0.5756
  697MOL0     H91973   5.916   3.505  12.122 -1.6416 -0.9644 -1.4718
  697MOL0     H91974   5.909   3.528  12.342  1.4329 -1.8289  3.9552
  697MOL0     H91975   5.892   3.352  12.384 -2.8170 -0.0179  1.4064
  697MOL0     H91976   5.681   3.509  12.241  0.9002 -0.8010 -0.8062
  697MOL0     H91977   5.673   3.347  12.316 -1.0628  0.8371  1.8945
  697MOL0     H91978   5.711   3.616  12.463 -0.3711 -0.2256  0.4864
  697MOL0     H91979   5.680   3.449  12.531 -2.1095  0.4341  1.2982
  697MOL0     H91980   5.479   3.444  12.408  2.2948  0.2086  1.0200
  697MOL0     H91981   5.491   3.599  12.336  1.2232  0.2524 -0.6352
  697MOL0     H91982   5.410   3.539  12.632 -3.0449  1.3561 -0.0185
  697MOL0     H91983   5.515   3.684  12.591  0.3850  0.4689 -0.1566
  697MOL0     H91984   5.330   3.740  12.414 -4.6239  2.5539 -0.0179
  697MOL0     H91985   5.272   3.751  12.578 -0.3321 -2.6708  2.9710
  697MOL0     H91986   6.288   3.250  12.073  1.5673  2.6444  0.6930
  697MOL0     H91987   6.515   3.175  12.103 -1.8950  0.4483 -0.8928
  697MOL0     H91988   6.868   3.126  12.314  1.1042  0.0279 -0.5636
  697MOL0     H91989   7.105   3.057  12.289  0.0230  1.0258 -0.8571
  697MOL0     H91990   8.741   3.338  11.676 -1.8591  1.7120  0.0222
  697MOL0     H91991   8.950   3.275  11.572 -0.0166 -1.2189 -0.7406
  697MOL0     H91992   9.255   3.178  11.360 -0.0543 -0.1519  0.0896
  697MOL0     H91993   9.496   3.131  11.316  2.4370  2.4650 -0.9066
  697MOL0     H91994   9.687   3.303  10.955 -0.8720  0.7134  1.2251
  697MOL0     H91995   9.624   3.136  10.929  1.0656 -0.5351 -1.2079
  697MOL0     H91996   9.880   3.173  10.907 -1.4971  1.8487 -0.5495
  697MOL0     H91997   9.869   3.187  11.086 -0.3276  0.3165  0.4271
  697MOL0     H91998   9.955   2.965  11.002 -0.4706 -2.2117 -3.3421
  697MOL0     H91999   9.820   2.961  10.897 -1.0806 -2.7236  1.2775
  697MOL0     H92000   9.670   2.941  11.106  0.2849  0.6044 -0.8363
  697MOL0     H92001   9.772   2.806  11.066 -2.1981 -0.5547 -0.4946
  697MOL0     H92002   9.978   3.015  11.393 -2.1005 -0.3622  1.5322
  697MOL0     H92003   9.475   3.389  10.979  0.3470 -0.0952  0.7764
  697MOL0     H92004   9.235   3.452  11.040  1.0677  0.2401  0.2214
  698MOL0     O92005  10.638   1.774   2.580  0.9483  0.6395 -0.9492
  698MOL0     C92006  10.609   1.724   2.687 -0.4819  1.0918  0.0012
  698MOL0     O92007  10.489   1.718   2.745 -0.0568  0.3023 -0.9643
  698MOL0     C92008  10.375   1.754   2.676  0.1530  0.8414  0.0723
  698MOL0     C92009  10.372   1.861   2.581 -0.4675 -0.5212 -1.5804
  698MOL0     C92010  10.254   1.898   2.528  0.1192 -0.5278  0.7437
  698MOL0     C92011  10.135   1.822   2.544  0.6222 -0.2762  0.8408
  698MOL0     O92012  10.029   1.841   2.466  0.1166 -0.3249 -0.6334
  698MOL0     C92013  10.032   1.939   2.361 -0.0390 -0.7907 -0.0387
  698MOL0     C92014   9.914   1.908   2.261 -0.5556  0.2984 -0.3420
  698MOL0     C92015   9.861   2.020   2.168  0.3300  0.2416 -0.1249
  698MOL0     C92016   9.763   1.977   2.065 -0.3419 -0.3600 -0.6238
  698MOL0     C92017   9.621   1.936   2.127  0.4071 -0.0021 -0.6239
  698MOL0     C92018   9.514   1.907   2.011  0.5113 -0.0087 -0.1646
  698MOL0     C92019   9.388   1.834   2.063 -0.2423 -0.0869 -0.4244
  698MOL0     C92020   9.320   1.900   2.179 -0.6526 -1.3284 -0.3843
  698MOL0     N92021   9.270   2.029   2.149  0.8579  0.3695  0.1213
  698MOL0     C92022   9.149   2.053   2.100 -0.0460  0.7484  0.7214
  698MOL0     C92023   9.134   2.185   2.117 -0.3854 -0.0347  0.0845
  698MOL0     C92024   9.012   2.272   2.092  0.0372  0.1221 -0.1615
  698MOL0     C92025   8.937   2.316   2.221 -0.4997 -0.4101  0.0931
  698MOL0     C92026   8.884   2.191   2.308  0.3088 -0.5005  0.4323
  698MOL0     C92027   8.814   2.079   2.236 -0.1697  0.0354  1.0188
  698MOL0     O92028   8.716   2.136   2.151 -0.4636  0.2207 -0.7506
  698MOL0     C92029   8.596   2.181   2.209  0.5030 -0.4856 -0.7899
  698MOL0     C92030   8.551   2.135   2.339 -0.2984 -0.3143  0.0934
  698MOL0     C92031   8.425   2.184   2.393 -0.5379  0.6616  0.8050
  698MOL0     C92032   8.332   2.243   2.308  0.5813  0.1663 -0.5382
  698MOL0     C92033   8.192   2.271   2.338  0.6773 -1.1790  0.5185
  698MOL0     O92034   8.125   2.355   2.260  0.3801 -0.2793  0.0103
  698MOL0     C92035   7.991   2.379   2.273  0.2535  0.1805 -0.4815
  698MOL0     C92036   7.933   2.408   2.393  0.3134 -0.0597 -0.3355
  698MOL0     C92037   7.797   2.448   2.393 -0.1235 -0.4711 -0.0254
  698MOL0     C92038   7.720   2.457   2.275  0.9373  0.9410 -0.0170
  698MOL0     O92039   7.583   2.467   2.281 -0.6546 -0.1141 -0.5139
  698MOL0     C92040   7.517   2.520   2.395  0.8432  0.8635 -0.9538
  698MOL0     C92041   7.362   2.529   2.354  0.5929  0.2755 -0.1973
  698MOL0     C92042   7.286   2.420   2.422 -0.3076  0.0101 -0.2189
  698MOL0     C92043   7.140   2.397   2.379 -0.1444  0.0827 -0.2181
  698MOL0     C92044   7.055   2.527   2.398  0.3494 -0.3623  0.0958
  698MOL0     C92045   6.905   2.502   2.393 -0.0020  0.4515  0.3049
  698MOL0     C92046   6.829   2.625   2.431  0.3869 -0.2259  1.0655
  698MOL0     C92047   6.677   2.614   2.398 -0.4879 -0.0853  0.3710
  698MOL0    Cl92048   6.637   2.744   2.281  0.0955 -0.0997 -0.1852
  698MOL0     C92049   7.789   2.433   2.155  0.6217 -0.1964 -0.2783
  698MOL0     C92050   7.923   2.400   2.154 -0.3383  0.0618 -0.1480
  698MOL0     O92051   8.148   2.216   2.432 -0.7651  0.4437  0.2230
  698MOL0     C92052   8.369   2.267   2.176  0.1360 -0.8986  0.0761
  698MOL0     C92053   8.501   2.243   2.132  0.6552  0.2066 -0.0706
  698MOL0     N92054   9.238   2.228   2.186  0.2382 -0.5273 -0.5701
  698MOL0     N92055   9.320   2.139   2.200 -0.0324 -0.6486  0.5385
  698MOL0     C92056  10.144   1.709   2.632  0.0562 -0.1008 -0.2143
  698MOL0     C92057  10.262   1.683   2.702 -0.4203 -0.9302  0.9234
  698MOL0     C92058  10.731   1.681   2.766  0.6170 -0.0441  0.1974
  698MOL0     C92059  10.705   1.609   2.879  0.0095  0.3323 -0.4802
  698MOL0     C92060  10.807   1.565   2.962  0.4196  0.6307 -0.4069
  698MOL0     C92061  10.935   1.604   2.941  0.3538  0.5081  0.5627
  698MOL0     O92062  11.029   1.549   3.030 -0.1987 -0.9898 -0.2544
  698MOL0     C92063  11.171   1.547   2.987 -0.6569 -1.0548 -0.1570
  698MOL0     C92064  11.261   1.487   3.096  0.2281 -0.5470 -0.0131
  698MOL0     C92065  11.268   1.577   3.219 -0.0561  0.4722 -0.1787
  698MOL0     C92066  11.357   1.530   3.335 -0.6077 -0.5884 -0.5203
  698MOL0     C92067  11.498   1.535   3.295 -0.4318  0.7890  0.3091
  698MOL0     C92068  11.613   1.545   3.264 -0.5094  0.7966 -0.1862
  698MOL0     C92069  10.966   1.677   2.824  0.4232 -0.4689  0.4370
  698MOL0     C92070  10.866   1.709   2.726  0.1332 -0.0877  0.2689
  698MOL0     H92071  10.452   1.933   2.565 -0.7089 -0.1395 -1.1158
  698MOL0     H92072  10.266   1.993   2.477  2.6577 -1.7350 -1.1038
  698MOL0     H92073  10.131   1.938   2.315  0.9072  0.2621  1.8684
  698MOL0     H92074  10.008   2.034   2.410 -4.4469 -1.8978  0.3865
  698MOL0     H92075   9.829   1.875   2.321  0.4716 -1.9468 -0.0579
  698MOL0     H92076   9.949   1.830   2.193  0.9224  2.2187 -1.9236
  698MOL0     H92077   9.950   2.063   2.120  1.5127  0.8020  2.3897
  698MOL0     H92078   9.819   2.106   2.220 -1.3473  0.3836 -1.6100
  698MOL0     H92079   9.744   2.056   1.992  0.7620 -0.8456 -1.4739
  698MOL0     H92080   9.798   1.890   2.009 -4.7357 -1.7631 -1.5147
  698MOL0     H92081   9.585   2.017   2.192 -0.6660 -1.2701  0.4014
  698MOL0     H92082   9.634   1.842   2.182  0.9467  2.2246  3.5032
  698MOL0     H92083   9.557   1.834   1.942  0.7123  0.2107 -0.2726
  698MOL0     H92084   9.484   1.994   1.951  1.6856  0.3796 -0.2100
  698MOL0     H92085   9.315   1.810   1.986 -1.6522  0.8108  0.6012
  698MOL0     H92086   9.425   1.734   2.088 -0.7317 -0.1298  0.1325
  698MOL0     H92087   9.386   1.915   2.265 -2.3142 -0.2765  0.7591
  698MOL0     H92088   9.241   1.836   2.218 -1.1170  0.9213  2.8052
  698MOL0     H92089   9.069   1.986   2.072 -0.0059 -0.7175  3.7764
  698MOL0     H92090   8.945   2.212   2.030  0.3727 -2.0195  1.4006
  698MOL0     H92091   9.047   2.358   2.035  0.6535  1.4886  2.1347
  698MOL0     H92092   8.863   2.388   2.184  1.7771  1.2930 -1.4595
  698MOL0     H92093   9.016   2.370   2.273  0.2722 -1.1634 -0.2701
  698MOL0     H92094   8.966   2.146   2.364 -1.0502 -1.2392  1.9377
  698MOL0     H92095   8.820   2.236   2.384 -2.4705 -1.0490 -1.4044
  698MOL0     H92096   8.770   2.009   2.307  1.1003 -2.0984 -0.1814
  698MOL0     H92097   8.883   2.023   2.172 -0.5865  0.4208  0.2116
  698MOL0     H92098   8.603   2.072   2.410 -1.0464 -0.1346  0.8187
  698MOL0     H92099   8.398   2.151   2.492  1.7695  0.1084  1.3173
  698MOL0     H92100   7.991   2.416   2.484  0.2683  3.8831 -0.4829
  698MOL0     H92101   7.748   2.470   2.487 -1.7845 -1.0445 -0.7092
  698MOL0     H92102   7.561   2.613   2.430  0.7974  0.6021 -0.1775
  698MOL0     H92103   7.531   2.458   2.484 -3.5721 -0.2234 -0.7639
  698MOL0     H92104   7.364   2.528   2.245  2.3789 -0.4871 -0.1971
  698MOL0     H92105   7.315   2.623   2.386 -2.5327 -0.6224 -1.7623
  698MOL0     H92106   7.267   2.441   2.528 -2.4110  0.3055 -0.5991
  698MOL0     H92107   7.341   2.326   2.411 -1.6217 -0.9043  0.6843
  698MOL0     H92108   7.132   2.373   2.273 -0.5312  4.1588 -1.2868
  698MOL0     H92109   7.096   2.324   2.448  0.2591  3.8150  4.5593
  698MOL0     H92110   7.081   2.593   2.315  2.4586 -1.7321 -0.4245
  698MOL0     H92111   7.078   2.579   2.492  0.1973 -0.9838  0.4902
  698MOL0     H92112   6.870   2.419   2.455  0.4157  0.3386  0.3942
  698MOL0     H92113   6.875   2.475   2.291  1.3821 -0.9099  0.2049
  698MOL0     H92114   6.851   2.652   2.534  1.2644  2.3165  0.3081
  698MOL0     H92115   6.868   2.711   2.374 -1.5599 -1.6744 -2.8355
  698MOL0     H92116   6.618   2.634   2.487  0.5087 -0.7518  1.2057
  698MOL0     H92117   6.651   2.517   2.357  0.7796 -0.8689  1.3565
  698MOL0     H92118   7.725   2.448   2.069  1.1575 -0.5894 -0.7583
  698MOL0     H92119   7.980   2.379   2.065  0.9256 -0.1258  0.6818
  698MOL0     H92120   8.296   2.304   2.103 -3.2273 -3.7592  1.6949
  698MOL0     H92121   8.510   2.261   2.026 -0.5354  2.8729  0.2021
  698MOL0     H92122  10.057   1.644   2.635 -0.8469  1.1189  0.7285
  698MOL0     H92123  10.271   1.598   2.768  2.5282 -0.9767  0.5566
  698MOL0     H92124  10.605   1.577   2.910  0.5649 -3.0505 -1.6976
  698MOL0     H92125  10.785   1.506   3.050  0.0382  2.0843  0.5064
  698MOL0     H92126  11.210   1.646   2.964 -0.6154 -0.3746  2.4967
  698MOL0     H92127  11.169   1.486   2.896  1.6273  2.0290 -2.4746
  698MOL0     H92128  11.233   1.384   3.116 -1.0479 -0.1540  0.3311
  698MOL0     H92129  11.363   1.474   3.058  0.6569 -0.0933  0.9442
  698MOL0     H92130  11.169   1.578   3.264 -0.1421  2.5713 -0.3219
  698MOL0     H92131  11.293   1.682   3.200 -1.4698  1.1788  1.6469
  698MOL0     H92132  11.360   1.608   3.412 -0.3777 -1.3139  0.2124
  698MOL0     H92133  11.327   1.440   3.390  1.7965  0.1919  2.3428
  698MOL0     H92134  11.711   1.554   3.222 -0.7696 -3.3320 -2.2228
  698MOL0     H92135  11.069   1.710   2.816  0.5039 -0.6259  0.7834
  698MOL0     H92136  10.899   1.764   2.638 -0.8549  3.2137  1.8151
  699MOL0     O92137   0.315   0.779   0.135 -0.8549  0.0537 -0.0556
  699MOL0     C92138   0.343   0.662   0.112  0.5645 -0.0719  0.5492
  699MOL0     O92139   0.251   0.560   0.111  0.2695  0.3426  0.5534
  699MOL0     C92140   0.118   0.568   0.152  0.3682 -0.1449 -0.2577
  699MOL0     C92141   0.036   0.678   0.111  0.5705  0.4582  0.0501
  699MOL0     C92142  -0.099   0.678   0.154  0.4157 -0.6649  0.1866
  699MOL0     C92143  -0.151   0.580   0.237 -0.2459 -0.0860 -0.4478
  699MOL0     O92144  -0.282   0.601   0.286 -0.3456  0.1071  0.6723
  699MOL0     C92145  -0.394   0.628   0.191  0.5155 -0.8746  0.5588
  699MOL0     C92146  -0.539   0.613   0.256 -0.1246 -0.5038  0.4840
  699MOL0     C92147  -0.565   0.684   0.390 -0.7719  0.1471  0.5994
  699MOL0     C92148  -0.694   0.641   0.455  0.6932  0.3155  0.4165
  699MOL0     C92149  -0.821   0.676   0.368 -0.6309  0.2066  1.0557
  699MOL0     C92150  -0.813   0.817   0.305 -0.8811 -0.1393 -0.3742
  699MOL0     C92151  -0.954   0.853   0.245  0.1331 -0.3825 -0.4619
  699MOL0     C92152  -0.948   0.986   0.168 -0.2604 -0.4978 -0.6100
  699MOL0     N92153  -0.939   1.117   0.233 -0.2435  0.3311 -0.7593
  699MOL0     C92154  -1.046   1.145   0.316  0.1342 -0.0964 -0.0500
  699MOL0     C92155  -1.009   1.246   0.397  0.2797 -0.8971 -0.6173
  699MOL0     C92156  -1.093   1.304   0.507  0.1946 -0.5458  0.0983
  699MOL0     C92157  -1.070   1.229   0.639  0.1050  0.3598 -1.1266
  699MOL0     C92158  -1.169   1.283   0.750 -0.0054 -0.3860  0.6888
  699MOL0     C92159  -1.178   1.202   0.877 -0.3909  0.0002  0.0199
  699MOL0     O92160  -1.222   1.070   0.847  0.0663  0.2599 -0.2170
  699MOL0     C92161  -1.353   1.038   0.813 -0.8581 -0.5283 -0.6496
  699MOL0     C92162  -1.390   0.903   0.804 -0.5896 -0.0633  0.3988
  699MOL0     C92163  -1.522   0.865   0.780 -0.4865  0.6847  0.3934
  699MOL0     C92164  -1.624   0.963   0.755  0.1629  0.0109  0.1704
  699MOL0     C92165  -1.763   0.927   0.718  1.1361  0.3462  0.1051
  699MOL0     O92166  -1.868   1.016   0.722  0.4256  0.3519  0.8148
  699MOL0     C92167  -1.995   0.989   0.678 -0.6945  0.0127 -0.5974
  699MOL0     C92168  -2.072   0.862   0.680  0.1986  0.2587  0.0124
  699MOL0     C92169  -2.201   0.855   0.637 -0.3717  0.3972  0.2034
  699MOL0     C92170  -2.271   0.964   0.605 -0.6758  0.7710  0.0345
  699MOL0     O92171  -2.404   0.968   0.570 -0.4242 -0.0644 -0.0498
  699MOL0     C92172  -2.487   0.851   0.587 -0.2209 -0.1296  0.1558
  699MOL0     C92173  -2.628   0.892   0.548  0.4257  0.6807 -0.7307
  699MOL0     C92174  -2.727   0.782   0.593 -0.3206  0.4429  0.2312
  699MOL0     C92175  -2.875   0.819   0.554  0.3453  0.7630  0.6205
  699MOL0     C92176  -2.966   0.711   0.599  0.1845  0.6951 -0.0851
  699MOL0     C92177  -3.108   0.735   0.536 -0.2298  0.0318  0.2702
  699MOL0     C92178  -3.210   0.642   0.613  0.0774  0.8361  0.7909
  699MOL0     C92179  -3.186   0.491   0.579 -0.2316  0.4579 -0.3536
  699MOL0    Cl92180  -3.334   0.388   0.611  0.0606  0.1139 -1.0716
  699MOL0     C92181  -2.199   1.087   0.601  0.0941  0.5928  0.3469
  699MOL0     C92182  -2.067   1.098   0.632 -0.4125  0.1382 -0.1584
  699MOL0     O92183  -1.775   0.804   0.696  1.0357 -0.4203 -0.1889
  699MOL0     C92184  -1.591   1.096   0.775 -0.6548 -0.7889 -1.0869
  699MOL0     C92185  -1.453   1.140   0.794 -0.5663  0.0649 -1.5435
  699MOL0     N92186  -0.880   1.265   0.372  0.3395 -0.0657 -0.1499
  699MOL0     N92187  -0.834   1.196   0.269  0.3953  0.2115  0.9695
  699MOL0     C92188  -0.068   0.476   0.282 -0.5797 -0.2771 -0.6450
  699MOL0     C92189   0.066   0.464   0.243  0.0987 -0.6594 -0.1731
  699MOL0     C92190   0.489   0.627   0.086 -0.6142 -0.6740  1.1017
  699MOL0     C92191   0.581   0.730   0.045 -0.3711 -0.9266 -0.1264
  699MOL0     C92192   0.711   0.699   0.015 -0.1843  0.0553 -1.3838
  699MOL0     C92193   0.751   0.560   0.030 -0.2349  0.4488  0.3254
  699MOL0     O92194   0.881   0.536   0.001 -0.3943 -0.3448  0.3846
  699MOL0     C92195   0.955   0.427   0.046 -0.3048  0.6718  0.8165
  699MOL0     C92196   1.100   0.421  -0.004  0.8063  0.1764 -0.4119
  699MOL0     C92197   1.125   0.433  -0.154 -0.5019  0.8784  0.4648
  699MOL0     C92198   1.062   0.563  -0.221  0.4926  0.1602  0.5220
  699MOL0     C92199   1.106   0.566  -0.361 -0.3551 -0.4904 -0.8965
  699MOL0     C92200   1.145   0.575  -0.476 -0.1946 -0.1547 -0.5541
  699MOL0     C92201   0.661   0.465   0.083 -0.7452  0.2960 -0.2014
  699MOL0     C92202   0.535   0.499   0.098 -0.0571  0.6341 -0.0601
  699MOL0     H92203   0.071   0.756   0.044  0.0945  1.9297  1.4359
  699MOL0     H92204  -0.171   0.755   0.129  0.9861 -0.3697 -0.6064
  699MOL0     H92205  -0.387   0.556   0.108 -0.5609 -0.6854  0.2944
  699MOL0     H92206  -0.386   0.723   0.138  0.0256 -1.6640 -1.0138
  699MOL0     H92207  -0.567   0.507   0.266 -2.9637  0.1634  0.5045
  699MOL0     H92208  -0.608   0.654   0.181 -0.9148 -0.0080  1.4669
  699MOL0     H92209  -0.571   0.792   0.373 -1.0058  0.0988  0.3585
  699MOL0     H92210  -0.480   0.667   0.457  0.4598  0.3290 -0.8737
  699MOL0     H92211  -0.699   0.534   0.476 -0.9601  0.6797  2.1556
  699MOL0     H92212  -0.706   0.688   0.553  0.9009 -0.4633  0.8253
  699MOL0     H92213  -0.908   0.677   0.435 -3.4800  2.6848 -2.2672
  699MOL0     H92214  -0.832   0.607   0.284  0.0674 -0.7868  1.7623
  699MOL0     H92215  -0.735   0.814   0.228 -1.5297 -3.3792 -1.0324
  699MOL0     H92216  -0.791   0.895   0.378  1.4355 -1.6938  0.7307
  699MOL0     H92217  -0.988   0.777   0.174 -1.5560 -0.2352  0.1492
  699MOL0     H92218  -1.024   0.867   0.328  2.9712 -1.3021  2.2937
  699MOL0     H92219  -1.029   0.983   0.095  0.8142 -1.6359 -1.8231
  699MOL0     H92220  -0.858   0.980   0.106 -1.5413 -2.4321 -2.4427
  699MOL0     H92221  -1.143   1.097   0.319  0.1475 -0.1001  0.4696
  699MOL0     H92222  -1.198   1.282   0.482  0.3946 -1.4544  0.0481
  699MOL0     H92223  -1.071   1.410   0.522  0.7765 -0.5628 -0.5632
  699MOL0     H92224  -0.970   1.235   0.683  0.1799  0.3754 -1.2957
  699MOL0     H92225  -1.077   1.122   0.621  2.1874 -0.1289  0.5404
  699MOL0     H92226  -1.141   1.384   0.782  1.6578 -0.3870 -0.6404
  699MOL0     H92227  -1.268   1.296   0.706  0.6631 -1.5215 -1.2616
  699MOL0     H92228  -1.250   1.240   0.950 -0.4890  1.4887 -0.7980
  699MOL0     H92229  -1.077   1.193   0.918  0.2077 -0.4103 -1.4732
  699MOL0     H92230  -1.329   0.814   0.806 -2.2984 -1.3897 -1.7199
  699MOL0     H92231  -1.557   0.762   0.773 -0.4278  0.7817 -2.0594
  699MOL0     H92232  -2.013   0.774   0.706 -0.4939 -0.1125  0.3511
  699MOL0     H92233  -2.241   0.754   0.640  2.1603 -0.7159 -0.4460
  699MOL0     H92234  -2.470   0.816   0.689 -0.8118  3.4698  1.6350
  699MOL0     H92235  -2.453   0.779   0.512  0.6741 -1.0628  1.4237
  699MOL0     H92236  -2.637   0.911   0.441  1.2660 -0.4769 -1.0259
  699MOL0     H92237  -2.667   0.980   0.600 -1.6734 -1.6450  2.0238
  699MOL0     H92238  -2.724   0.762   0.701 -2.7007  2.2594  0.7304
  699MOL0     H92239  -2.684   0.692   0.548  1.7154  1.0613  0.8598
  699MOL0     H92240  -2.902   0.915   0.599 -1.5317  0.7599 -0.3677
  699MOL0     H92241  -2.871   0.825   0.445  3.0577  1.2876  0.6766
  699MOL0     H92242  -2.968   0.713   0.708  1.0996  1.5777 -0.0693
  699MOL0     H92243  -2.928   0.617   0.558 -0.6907 -1.0431  2.7862
  699MOL0     H92244  -3.099   0.715   0.429  1.9887  2.5321 -0.0973
  699MOL0     H92245  -3.138   0.838   0.552 -0.6332 -0.0171 -0.1695
  699MOL0     H92246  -3.199   0.647   0.722  1.3358 -0.4196  0.7527
  699MOL0     H92247  -3.310   0.671   0.582 -1.2533 -2.0103  2.0829
  699MOL0     H92248  -3.102   0.454   0.639  0.5928  1.4474 -0.8671
  699MOL0     H92249  -3.161   0.484   0.473  1.0152 -0.7862 -0.0111
  699MOL0     H92250  -2.264   1.172   0.579  0.1393  0.9899  1.6332
  699MOL0     H92251  -2.011   1.191   0.628 -0.0571 -0.0031  0.9982
  699MOL0     H92252  -1.671   1.168   0.762  2.9388  3.6499 -1.2782
  699MOL0     H92253  -1.426   1.245   0.786 -0.8071  0.3819  1.1798
  699MOL0     H92254  -0.089   0.400   0.357 -0.9891 -1.6284 -2.0939
  699MOL0     H92255   0.129   0.377   0.259  1.9128  0.1215 -2.3759
  699MOL0     H92256   0.559   0.836   0.048  0.4089 -0.7767  0.7817
  699MOL0     H92257   0.786   0.775  -0.008 -0.5850  0.5450 -1.0791
  699MOL0     H92258   0.901   0.337   0.014  3.7279 -1.4698 -0.5577
  699MOL0     H92259   0.955   0.422   0.156 -2.5470 -1.1335  0.8220
  699MOL0     H92260   1.161   0.492   0.052 -0.5745 -0.1577  1.5842
  699MOL0     H92261   1.139   0.329   0.040  0.8070  1.4820  2.4890
  699MOL0     H92262   1.085   0.345  -0.205 -0.4333  1.2160 -0.1728
  699MOL0     H92263   1.234   0.440  -0.156 -0.5651  3.2320 -3.0178
  699MOL0     H92264   0.954   0.554  -0.236  0.4782  1.5321 -0.3841
  699MOL0     H92265   1.081   0.660  -0.174  2.7758 -0.3074  0.6684
  699MOL0     H92266   1.174   0.585  -0.579  1.3593 -2.1206 -0.3756
  699MOL0     H92267   0.706   0.368   0.099 -0.6958  0.4704  0.7724
  699MOL0     H92268   0.455   0.437   0.137 -1.0230  0.5423 -2.0605
  700MOL0     O92269   1.757   3.389   2.254 -0.3930 -0.0086  0.1119
  700MOL0     C92270   1.812   3.394   2.144  0.0019  0.6390 -0.4236
  700MOL0     O92271   1.755   3.373   2.022  0.3321 -0.0308  0.3928
  700MOL0     C92272   1.628   3.328   2.031 -0.3857 -0.8954 -0.0227
  700MOL0     C92273   1.519   3.405   2.017 -0.0581  0.7527  0.0342
  700MOL0     C92274   1.390   3.359   2.054 -0.6748 -0.1914  0.2831
  700MOL0     C92275   1.367   3.227   2.089 -0.0738 -0.1675 -0.3500
  700MOL0     O92276   1.242   3.177   2.112 -0.0522 -0.1859 -0.3600
  700MOL0     C92277   1.137   3.214   2.013 -0.3874 -0.5045  0.1234
  700MOL0     C92278   0.992   3.178   2.054  0.7585  0.9969 -0.9324
  700MOL0     C92279   0.944   3.276   2.159 -0.8700 -0.5599 -0.1713
  700MOL0     C92280   0.799   3.268   2.205 -0.3030  0.0758 -0.3068
  700MOL0     C92281   0.780   3.353   2.336  0.1904  0.2938  0.1558
  700MOL0     C92282   0.823   3.281   2.464  0.0705  0.7023 -0.4208
  700MOL0     C92283   0.719   3.178   2.499 -0.1080 -0.2115  0.1905
  700MOL0     C92284   0.725   3.140   2.641 -0.1972 -0.2776  0.6618
  700MOL0     N92285   0.645   3.023   2.683  0.5685  0.7173  0.3345
  700MOL0     C92286   0.604   2.917   2.600 -0.0740  0.3968 -0.0724
  700MOL0     C92287   0.519   2.845   2.669  0.1692  0.0550  0.1718
  700MOL0     C92288   0.459   2.720   2.618 -0.1756  0.2907 -0.5925
  700MOL0     C92289   0.353   2.756   2.518  0.0455  0.9250  0.2341
  700MOL0     C92290   0.319   2.632   2.431  0.0480 -0.1756  0.1316
  700MOL0     C92291   0.188   2.640   2.343  0.1573 -0.5240 -0.5571
  700MOL0     O92292   0.172   2.767   2.277  0.2498  0.0451 -0.1319
  700MOL0     C92293   0.041   2.789   2.243 -0.9685  0.3610  0.1854
  700MOL0     C92294  -0.050   2.682   2.227  0.2244  0.5830 -0.4306
  700MOL0     C92295  -0.185   2.709   2.194  0.2241 -0.0555  0.1346
  700MOL0     C92296  -0.235   2.837   2.172  0.2309  0.1948 -0.1813
  700MOL0     C92297  -0.379   2.866   2.141 -0.3843 -0.6228  0.6439
  700MOL0     O92298  -0.414   3.003   2.135 -0.5210  0.0527 -0.5446
  700MOL0     C92299  -0.520   3.052   2.067  0.0808 -0.9584  1.1209
  700MOL0     C92300  -0.571   3.175   2.112 -0.5981 -0.8635  0.0659
  700MOL0     C92301  -0.679   3.238   2.047 -0.6385 -0.1140 -0.2954
  700MOL0     C92302  -0.730   3.184   1.930 -0.0897  0.2451  0.8825
  700MOL0     O92303  -0.838   3.244   1.865  0.0633  0.3354 -0.0055
  700MOL0     C92304  -0.894   3.186   1.739 -0.3816  0.3230  0.3374
  700MOL0     C92305  -0.997   3.286   1.689 -0.8741  0.3827  1.2270
  700MOL0     C92306  -1.072   3.234   1.559 -0.1887  0.0519 -0.5347
  700MOL0     C92307  -1.148   3.099   1.569  0.1765  0.1025  0.4532
  700MOL0     C92308  -1.239   3.074   1.690 -0.6648  0.1472 -0.0319
  700MOL0     C92309  -1.353   3.179   1.703  0.2936  0.1360 -0.2894
  700MOL0     C92310  -1.440   3.156   1.577 -0.3138  0.2767 -0.5957
  700MOL0     C92311  -1.585   3.220   1.591 -0.1737 -0.2160 -1.0162
  700MOL0    Cl92312  -1.679   3.186   1.437  0.4909 -0.2196  0.3364
  700MOL0     C92313  -0.676   3.063   1.882 -0.3285 -0.2891  0.3953
  700MOL0     C92314  -0.575   3.001   1.957 -0.7638 -0.0659  0.7189
  700MOL0     O92315  -0.450   2.778   2.121  0.2780  0.7071 -0.7387
  700MOL0     C92316  -0.143   2.941   2.187  0.5578 -0.6176  0.1072
  700MOL0     C92317  -0.009   2.913   2.219 -1.1182  0.4556 -0.5021
  700MOL0     N92318   0.496   2.913   2.792 -0.0315 -0.6278 -0.3594
  700MOL0     N92319   0.574   3.019   2.797  0.1442 -0.5896 -0.3141
  700MOL0     C92320   1.487   3.146   2.089  0.0992 -0.2739  0.0808
  700MOL0     C92321   1.609   3.197   2.060  0.5967  0.3719  0.7871
  700MOL0     C92322   1.946   3.448   2.128 -0.5545  0.2790 -0.4727
  700MOL0     C92323   2.012   3.425   2.004 -0.9124 -0.6235 -0.1122
  700MOL0     C92324   2.136   3.477   1.978  0.2736 -0.3216  0.3357
  700MOL0     C92325   2.211   3.532   2.081  0.4963 -0.3269  0.1555
  700MOL0     O92326   2.340   3.565   2.054 -0.0187 -0.3489 -0.5889
  700MOL0     C92327   2.407   3.669   2.119 -0.1619  0.3978 -0.7788
  700MOL0     C92328   2.496   3.617   2.237  0.7802 -0.4794 -0.0633
  700MOL0     C92329   2.610   3.713   2.238  0.6245 -0.8549 -0.4311
  700MOL0     C92330   2.710   3.724   2.122 -0.7672  0.0155 -0.2202
  700MOL0     C92331   2.827   3.815   2.145  0.3903 -0.6918 -0.2642
  700MOL0     C92332   2.927   3.885   2.152 -0.7568 -0.2967 -0.4562
  700MOL0     C92333   2.148   3.558   2.204 -0.0820 -0.1219 -0.9348
  700MOL0     C92334   2.016   3.523   2.226 -0.1826  0.5445 -0.5531
  700MOL0     H92335   1.523   3.506   1.977 -3.7743 -0.0140 -2.9012
  700MOL0     H92336   1.304   3.423   2.069 -2.1192 -2.4588  2.4028
  700MOL0     H92337   1.144   3.161   1.917 -1.0035  1.1595 -0.8757
  700MOL0     H92338   1.142   3.321   1.991 -2.3874 -0.4678 -0.3258
  700MOL0     H92339   0.986   3.074   2.086 -0.2931  0.9746 -1.1512
  700MOL0     H92340   0.925   3.184   1.968 -1.1289 -0.6132  0.3394
  700MOL0     H92341   0.969   3.378   2.131  0.9267 -0.3363  1.9544
  700MOL0     H92342   1.006   3.259   2.247  1.0486  0.0239 -1.3455
  700MOL0     H92343   0.740   3.311   2.124  0.1719 -0.6862 -1.0707
  700MOL0     H92344   0.773   3.163   2.224  1.6146 -0.2643  0.7089
  700MOL0     H92345   0.678   3.392   2.333  0.3463  0.6476 -1.6975
  700MOL0     H92346   0.848   3.437   2.323  1.3454 -0.2863  2.0378
  700MOL0     H92347   0.824   3.347   2.551  0.1316 -0.9732  0.9142
  700MOL0     H92348   0.925   3.241   2.457 -0.1215  0.2475 -0.6567
  700MOL0     H92349   0.621   3.217   2.470  0.2824  1.4709  1.0065
  700MOL0     H92350   0.741   3.092   2.435 -3.2525 -0.1767 -1.1127
  700MOL0     H92351   0.695   3.221   2.708  2.5277  0.3600  1.2046
  700MOL0     H92352   0.830   3.116   2.659 -0.3895 -0.8849  1.0262
  700MOL0     H92353   0.647   2.895   2.503 -0.8830 -4.1790  0.3615
  700MOL0     H92354   0.414   2.671   2.705  0.4106 -0.8427 -0.9077
  700MOL0     H92355   0.534   2.657   2.569 -1.9601 -1.7955 -0.8517
  700MOL0     H92356   0.397   2.827   2.446  0.1490 -0.3920 -1.0419
  700MOL0     H92357   0.263   2.794   2.567 -1.0063 -1.2874  0.0984
  700MOL0     H92358   0.398   2.603   2.360  0.0447  0.1568 -0.0061
  700MOL0     H92359   0.303   2.543   2.493  0.0488  0.8245  1.6124
  700MOL0     H92360   0.113   2.633   2.422  0.6968  3.9110  0.6476
  700MOL0     H92361   0.182   2.549   2.282 -2.1791 -1.3298  0.7682
  700MOL0     H92362  -0.021   2.578   2.235  0.9010  0.7916 -0.1341
  700MOL0     H92363  -0.263   2.637   2.172  1.7336 -1.6837 -0.1622
  700MOL0     H92364  -0.531   3.226   2.198  0.1210  0.5337 -1.0554
  700MOL0     H92365  -0.726   3.330   2.080 -0.6473  0.5642 -2.0877
  700MOL0     H92366  -0.937   3.088   1.763  1.5726 -0.8477 -0.7188
  700MOL0     H92367  -0.816   3.179   1.663 -1.3023 -1.7402 -0.4884
  700MOL0     H92368  -0.945   3.378   1.662  1.5861 -0.5058  2.6521
  700MOL0     H92369  -1.070   3.301   1.770 -2.3383  0.4096 -0.0566
  700MOL0     H92370  -0.998   3.228   1.479 -1.1165  1.9304 -1.6094
  700MOL0     H92371  -1.145   3.302   1.515 -0.0487 -0.4755 -1.6101
  700MOL0     H92372  -1.208   3.078   1.480  0.3896  0.5674  0.1966
  700MOL0     H92373  -1.065   3.028   1.575  0.2999  0.0969 -0.9878
  700MOL0     H92374  -1.185   3.075   1.785  0.5152  0.8286 -0.6724
  700MOL0     H92375  -1.280   2.973   1.681 -3.3714  1.1869 -0.3248
  700MOL0     H92376  -1.321   3.283   1.712 -0.5163  0.5122 -1.5401
  700MOL0     H92377  -1.423   3.166   1.785 -2.3948  1.4503 -2.2234
  700MOL0     H92378  -1.396   3.216   1.497  0.6129 -0.7209 -0.8497
  700MOL0     H92379  -1.445   3.050   1.549  2.2204  0.2395 -1.1413
  700MOL0     H92380  -1.577   3.327   1.607 -1.7250 -0.4734  2.2986
  700MOL0     H92381  -1.639   3.186   1.680  1.8042 -3.7303 -0.9558
  700MOL0     H92382  -0.713   3.015   1.792  0.3361 -2.0237  1.0085
  700MOL0     H92383  -0.523   2.916   1.915  1.0364  0.9226  0.8618
  700MOL0     H92384  -0.166   3.045   2.168  1.0522 -0.9899 -3.1961
  700MOL0     H92385   0.060   2.996   2.231 -1.9012  0.7290  3.4223
  700MOL0     H92386   1.478   3.041   2.116  0.8509 -0.1968  0.6584
  700MOL0     H92387   1.693   3.130   2.075  0.2734 -0.5855 -1.3405
  700MOL0     H92388   1.959   3.372   1.925 -1.8299  0.4719 -0.2575
  700MOL0     H92389   2.198   3.454   1.892  0.7906  2.8232 -0.2721
  700MOL0     H92390   2.344   3.747   2.163  0.2402 -0.3757  1.2780
  700MOL0     H92391   2.464   3.712   2.036  1.3334  0.5643  0.2925
  700MOL0     H92392   2.431   3.628   2.324 -0.8590  0.1540 -1.3153
  700MOL0     H92393   2.531   3.515   2.219 -1.2650 -1.3132  0.4110
  700MOL0     H92394   2.662   3.671   2.324 -0.8215 -3.2917 -0.6663
  700MOL0     H92395   2.576   3.814   2.263  0.4025 -0.7277 -1.2023
  700MOL0     H92396   2.744   3.621   2.106 -1.6148 -0.4254  0.6812
  700MOL0     H92397   2.649   3.760   2.038  0.8023  0.1123 -1.3548
  700MOL0     H92398   3.010   3.951   2.145 -1.8517  1.0886 -0.8395
  700MOL0     H92399   2.215   3.592   2.282  0.9537 -3.3796 -0.2461
  700MOL0     H92400   1.967   3.533   2.323  1.4406 -0.1851  0.3906
  701MOL0     O92401   0.776   0.383   9.298  0.0639 -0.4734 -0.1660
  701MOL0     C92402   0.717   0.465   9.375 -0.4556  0.6121  1.1529
  701MOL0     O92403   0.762   0.591   9.411  0.3060 -0.4569  0.8724
  701MOL0     C92404   0.894   0.618   9.386  0.2226  0.4151 -0.2299
  701MOL0     C92405   0.942   0.658   9.266  0.5374  0.1581  0.1603
  701MOL0     C92406   1.070   0.685   9.237  0.4676 -0.6002  0.5007
  701MOL0     C92407   1.160   0.685   9.340 -0.4854  0.6261  0.2435
  701MOL0     O92408   1.289   0.709   9.302  0.2233 -0.4260  0.2400
  701MOL0     C92409   1.370   0.776   9.406 -0.1721  0.6703 -0.3875
  701MOL0     C92410   1.468   0.866   9.337  0.2493  0.9660 -0.3243
  701MOL0     C92411   1.538   0.958   9.430  0.4663 -0.0023  1.1944
  701MOL0     C92412   1.644   1.048   9.349 -0.2629 -0.2921  0.2878
  701MOL0     C92413   1.746   1.115   9.439  0.1694 -0.5268 -0.1354
  701MOL0     C92414   1.768   1.268   9.416 -0.1600 -0.3160  0.1899
  701MOL0     C92415   1.653   1.354   9.384  0.6655 -0.1073  0.1464
  701MOL0     C92416   1.543   1.346   9.495  0.3182 -0.1256 -0.2809
  701MOL0     N92417   1.441   1.451   9.474 -0.2722 -0.2800 -0.4451
  701MOL0     C92418   1.395   1.490   9.350 -0.0522 -0.4440 -0.3877
  701MOL0     C92419   1.320   1.604   9.388 -0.1708  0.3356  0.8285
  701MOL0     C92420   1.253   1.684   9.282  0.5782 -0.2238 -0.1706
  701MOL0     C92421   1.135   1.614   9.216  0.0816 -0.6557  0.4403
  701MOL0     C92422   1.009   1.610   9.308  0.6591 -0.3336 -0.7698
  701MOL0     C92423   0.887   1.547   9.249 -0.5190  0.0372  0.0474
  701MOL0     O92424   0.778   1.546   9.343 -0.4214  0.6575 -0.6503
  701MOL0     C92425   0.655   1.535   9.283  0.9020  0.7234 -0.6061
  701MOL0     C92426   0.541   1.529   9.373  0.4810 -0.4225  0.4322
  701MOL0     C92427   0.410   1.502   9.325 -0.9369  0.7952 -0.5194
  701MOL0     C92428   0.387   1.489   9.187 -0.6008 -0.4237 -0.0226
  701MOL0     C92429   0.257   1.469   9.119  0.3306  0.4860 -0.7111
  701MOL0     O92430   0.151   1.481   9.207 -0.3519  0.1459  0.2837
  701MOL0     C92431   0.036   1.435   9.156  0.4542  0.0644  0.6402
  701MOL0     C92432  -0.014   1.306   9.183 -0.2939 -0.5568  0.1827
  701MOL0     C92433  -0.133   1.263   9.123 -0.4412 -0.3620  0.4143
  701MOL0     C92434  -0.209   1.346   9.039 -0.1416  0.2205 -0.7780
  701MOL0     O92435  -0.332   1.301   8.992  0.1231 -0.6254 -0.3791
  701MOL0     C92436  -0.427   1.403   8.939 -0.0964 -0.0857 -0.1493
  701MOL0     C92437  -0.561   1.341   8.915  0.6909 -0.5486 -0.5710
  701MOL0     C92438  -0.640   1.316   9.054 -0.3217  0.7338  0.0102
  701MOL0     C92439  -0.782   1.282   9.023  0.0589  0.1405  0.3307
  701MOL0     C92440  -0.873   1.238   9.141  1.0668  0.3434  0.3836
  701MOL0     C92441  -1.012   1.206   9.085  0.5669 -0.4903  0.4549
  701MOL0     C92442  -1.082   1.106   9.178  0.6155  0.0359 -0.4940
  701MOL0     C92443  -1.220   1.076   9.131 -0.6198 -0.1654 -1.4712
  701MOL0    Cl92444  -1.323   0.965   9.232  0.1737 -0.0492  0.0588
  701MOL0     C92445  -0.164   1.475   9.019 -0.8281 -1.1744 -0.1182
  701MOL0     C92446  -0.040   1.523   9.077 -0.4029  0.2144  0.9691
  701MOL0     O92447   0.253   1.435   9.002  0.3905  0.1117  1.5185
  701MOL0     C92448   0.493   1.509   9.099  0.2602 -0.1291  0.9063
  701MOL0     C92449   0.625   1.527   9.144 -0.3859  0.4807 -0.9132
  701MOL0     N92450   1.305   1.608   9.533 -0.0722 -1.2768  0.3811
  701MOL0     N92451   1.393   1.524   9.576  0.4256 -0.1755 -0.0815
  701MOL0     C92452   1.122   0.646   9.468  0.4567  0.6926  0.2362
  701MOL0     C92453   0.986   0.621   9.493 -0.3162  0.6108 -0.5999
  701MOL0     C92454   0.584   0.423   9.432  1.0559 -1.5043  0.1916
  701MOL0     C92455   0.537   0.298   9.392  0.2120  0.0694 -0.0869
  701MOL0     C92456   0.404   0.258   9.419 -0.9456  0.9818 -0.1059
  701MOL0     C92457   0.321   0.344   9.498 -0.8742 -0.0601  0.6703
  701MOL0     O92458   0.192   0.319   9.542  0.0972 -0.1195 -0.3242
  701MOL0     C92459   0.103   0.242   9.467  0.4526  0.2201 -0.5650
  701MOL0     C92460   0.039   0.320   9.360  1.2012  0.2008  0.3703
  701MOL0     C92461  -0.107   0.273   9.328  0.5359  0.0839  0.9312
  701MOL0     C92462  -0.146   0.334   9.186 -0.0967 -0.4397 -0.1950
  701MOL0     C92463  -0.298   0.301   9.173  0.0985 -0.4667 -0.1978
  701MOL0     C92464  -0.420   0.279   9.172  0.5191 -0.3494 -0.2578
  701MOL0     C92465   0.378   0.459   9.551 -0.4862 -0.3021  0.9704
  701MOL0     C92466   0.502   0.508   9.515  0.6298  0.4646 -0.2634
  701MOL0     H92467   0.875   0.651   9.180  1.4178 -1.2124 -0.4545
  701MOL0     H92468   1.117   0.684   9.139  1.6144  0.3764  1.0050
  701MOL0     H92469   1.430   0.712   9.471  0.7102  0.4292 -1.4127
  701MOL0     H92470   1.303   0.834   9.470 -0.1684  0.5231 -0.2488
  701MOL0     H92471   1.419   0.928   9.261 -0.1027  0.5084 -0.4771
  701MOL0     H92472   1.538   0.806   9.278 -1.0113  0.2358 -1.1110
  701MOL0     H92473   1.603   0.903   9.499 -0.1173 -0.6686  1.2201
  701MOL0     H92474   1.471   1.028   9.481  1.0631  0.4978  1.3115
  701MOL0     H92475   1.702   0.994   9.274  0.9029 -1.2606  1.8190
  701MOL0     H92476   1.586   1.121   9.293  1.3211  2.5935  2.1686
  701MOL0     H92477   1.842   1.066   9.422  0.7414 -0.1381  1.7201
  701MOL0     H92478   1.710   1.089   9.539  2.8993 -2.9951  0.3362
  701MOL0     H92479   1.840   1.276   9.334 -1.6974  0.0548 -1.1740
  701MOL0     H92480   1.813   1.310   9.506 -1.5011  4.1924 -0.9853
  701MOL0     H92481   1.689   1.457   9.371  0.0220  0.2247  0.9147
  701MOL0     H92482   1.623   1.324   9.284 -2.5548  1.0818  0.6319
  701MOL0     H92483   1.581   1.354   9.598  0.4118  0.4193 -0.3555
  701MOL0     H92484   1.485   1.254   9.506 -0.7932  0.6143  0.2327
  701MOL0     H92485   1.417   1.451   9.252 -3.4702 -1.4917 -0.8584
  701MOL0     H92486   1.325   1.711   9.205 -1.0706 -1.3004 -2.2064
  701MOL0     H92487   1.220   1.779   9.325  0.6028 -0.5547  0.5944
  701MOL0     H92488   1.151   1.509   9.189 -0.9347 -1.0805  1.3686
  701MOL0     H92489   1.109   1.662   9.121 -0.1725 -1.1700  0.2456
  701MOL0     H92490   1.042   1.556   9.396  0.0920 -1.6358 -1.3277
  701MOL0     H92491   0.974   1.709   9.337  1.4554  0.2713 -1.7905
  701MOL0     H92492   0.903   1.446   9.212  0.8846  0.4892 -0.6415
  701MOL0     H92493   0.858   1.599   9.157 -1.4744 -2.2392 -1.0152
  701MOL0     H92494   0.572   1.548   9.475  4.6029  0.7970 -0.8377
  701MOL0     H92495   0.336   1.504   9.404 -1.5771  1.7397 -1.1199
  701MOL0     H92496   0.048   1.241   9.244  2.1124  0.2497 -1.2334
  701MOL0     H92497  -0.162   1.163   9.154  0.4986 -1.3069 -1.5565
  701MOL0     H92498  -0.383   1.444   8.847 -0.7268  0.3782 -0.2523
  701MOL0     H92499  -0.438   1.488   9.006  2.7042 -0.1018  0.4301
  701MOL0     H92500  -0.552   1.255   8.849 -0.8095  0.5926 -2.3579
  701MOL0     H92501  -0.630   1.403   8.857  1.2885 -0.5965 -1.3430
  701MOL0     H92502  -0.645   1.413   9.104 -0.9415  1.1093 -0.7470
  701MOL0     H92503  -0.585   1.238   9.105  0.9323  0.1034 -2.1626
  701MOL0     H92504  -0.833   1.368   8.977  0.8237 -0.0912 -1.0213
  701MOL0     H92505  -0.773   1.201   8.950 -0.3814 -0.6106  1.0887
  701MOL0     H92506  -0.886   1.327   9.204 -0.5187  0.0957  0.4574
  701MOL0     H92507  -0.830   1.160   9.205 -0.6997 -0.2356  0.9464
  701MOL0     H92508  -0.997   1.169   8.983  1.6449 -0.0846  0.4611
  701MOL0     H92509  -1.078   1.293   9.078 -0.0714 -1.0698 -3.3568
  701MOL0     H92510  -1.028   1.012   9.191 -0.4348 -0.4169  0.7689
  701MOL0     H92511  -1.083   1.148   9.279  2.3093  1.1050 -0.8786
  701MOL0     H92512  -1.214   1.033   9.031  1.7274 -2.8792 -0.3077
  701MOL0     H92513  -1.272   1.172   9.136  1.4674  0.9979 -0.8831
  701MOL0     H92514  -0.227   1.545   8.966  2.1606 -0.3471 -2.8903
  701MOL0     H92515  -0.005   1.624   9.061 -0.4098  0.0596 -0.1051
  701MOL0     H92516   0.490   1.510   8.990 -0.1560 -0.6536  0.9098
  701MOL0     H92517   0.696   1.528   9.062  2.0813 -0.0856  1.1253
  701MOL0     H92518   1.191   0.634   9.551  0.1574  1.1856  0.5547
  701MOL0     H92519   0.955   0.586   9.591 -3.7056  1.1376 -1.3439
  701MOL0     H92520   0.596   0.233   9.329 -1.3053  1.9302 -3.7496
  701MOL0     H92521   0.367   0.167   9.371 -2.0425 -1.7164  5.0455
  701MOL0     H92522   0.021   0.216   9.535 -0.4330  0.3213 -1.5648
  701MOL0     H92523   0.153   0.149   9.437 -1.3936 -0.9657 -0.1086
  701MOL0     H92524   0.027   0.423   9.394 -2.9481 -0.2850  0.8804
  701MOL0     H92525   0.098   0.316   9.267  0.2055  0.9331 -0.3197
  701MOL0     H92526  -0.178   0.299   9.408 -0.2605 -3.2643  1.4525
  701MOL0     H92527  -0.112   0.164   9.326 -1.1454  0.1290  1.4924
  701MOL0     H92528  -0.134   0.442   9.188  0.6941 -0.4284 -2.5935
  701MOL0     H92529  -0.104   0.284   9.098 -1.0029 -3.0396  0.7348
  701MOL0     H92530  -0.523   0.249   9.174  0.7997 -1.5925 -1.9323
  701MOL0     H92531   0.330   0.521   9.626 -0.4223 -0.2963  1.0075
  701MOL0     H92532   0.545   0.599   9.555 -0.8865 -0.5217  4.1916
  702MOL0     O92533   8.690   9.897   3.819  0.6972 -0.4608 -0.1320
  702MOL0     C92534   8.768   9.969   3.757 -0.2990  0.0460 -0.0408
  702MOL0     O92535   8.752  10.106   3.737 -0.4642  0.1572  0.0297
  702MOL0     C92536   8.637  10.180   3.777 -0.2986  0.3297 -0.7988
  702MOL0     C92537   8.661  10.316   3.794  0.2486 -0.6257  0.1913
  702MOL0     C92538   8.556  10.413   3.810  0.0025  0.3728 -0.3805
  702MOL0     C92539   8.428  10.369   3.825  0.0052  0.2322 -0.8261
  702MOL0     O92540   8.340  10.468   3.849  0.1635  0.6116 -0.0330
  702MOL0     C92541   8.208  10.436   3.840  0.7948  0.8098  0.1737
  702MOL0     C92542   8.126  10.562   3.872  0.5640  0.4323 -0.0220
  702MOL0     C92543   7.977  10.541   3.846 -0.3243 -0.2669  0.6526
  702MOL0     C92544   7.896  10.667   3.865  0.0722 -0.0496  0.3678
  702MOL0     C92545   7.750  10.635   3.846  0.0068  0.1945 -0.4075
  702MOL0     C92546   7.665  10.757   3.868  0.5398 -0.3484 -0.2355
  702MOL0     C92547   7.515  10.734   3.882  0.3875 -0.3973 -0.2772
  702MOL0     C92548   7.447  10.863   3.920 -0.1412  0.5277  0.6529
  702MOL0     N92549   7.299  10.838   3.901  0.1282 -0.2731 -0.0752
  702MOL0     C92550   7.202  10.829   4.002 -0.2040  0.6999  0.7496
  702MOL0     C92551   7.087  10.793   3.945  0.0984  0.2383  0.2421
  702MOL0     C92552   6.964  10.754   4.028 -0.1590 -1.0022  0.3582
  702MOL0     C92553   6.883  10.889   4.047 -0.6668  0.3059  0.2829
  702MOL0     C92554   6.776  10.871   4.160 -0.1193  1.1625 -0.0998
  702MOL0     C92555   6.662  10.781   4.108 -0.6076  0.5624  0.2911
  702MOL0     O92556   6.599  10.844   3.998  0.1980 -0.5225 -0.5347
  702MOL0     C92557   6.466  10.821   3.983  0.1935  0.0289  0.1511
  702MOL0     C92558   6.371  10.928   3.955 -0.6733 -0.8240 -0.2072
  702MOL0     C92559   6.229  10.900   3.938 -0.5520 -0.0192 -0.1560
  702MOL0     C92560   6.191  10.765   3.955 -0.2175 -0.0060 -0.0218
  702MOL0     C92561   6.053  10.725   3.937  0.6289  0.8399 -0.3844
  702MOL0     O92562   6.039  10.589   3.936  0.5131 -0.0224 -0.0048
  702MOL0     C92563   5.907  10.530   3.939 -1.1293 -1.2568  0.0936
  702MOL0     C92564   5.786  10.588   3.987 -0.2828 -0.0444  0.8536
  702MOL0     C92565   5.669  10.509   3.987  0.1324 -0.8819  1.0833
  702MOL0     C92566   5.663  10.372   3.945  0.2337 -0.0110 -0.3377
  702MOL0     O92567   5.545  10.301   3.944  0.2784 -0.3254  0.8148
  702MOL0     C92568   5.514  10.211   4.049 -0.8532  0.0120  0.1010
  702MOL0     C92569   5.517  10.272   4.186 -0.2890 -0.4585 -0.0373
  702MOL0     C92570   5.482  10.159   4.275  0.4157  0.0431  0.2227
  702MOL0     C92571   5.467  10.217   4.417 -0.0133  0.2152  0.1528
  702MOL0     C92572   5.332  10.283   4.445  0.3225 -0.0698  0.3005
  702MOL0     C92573   5.212  10.182   4.457  0.1262 -0.1242  0.4726
  702MOL0     C92574   5.079  10.256   4.484 -0.1737 -0.5787  0.0039
  702MOL0     C92575   4.950  10.191   4.444  0.6733 -0.0656  0.3119
  702MOL0    Cl92576   4.934  10.164   4.266 -0.1247 -0.2552  0.5049
  702MOL0     C92577   5.784  10.318   3.903 -0.9338  0.4876 -1.0511
  702MOL0     C92578   5.899  10.398   3.897 -0.6128 -0.4006 -1.0505
  702MOL0     O92579   5.966  10.806   3.943  0.6418 -0.2563 -0.2889
  702MOL0     C92580   6.280  10.668   3.987  0.3024  1.4954  0.3497
  702MOL0     C92581   6.413  10.696   4.005 -0.0272  0.5056  0.7139
  702MOL0     N92582   7.118  10.795   3.813  0.5872  0.0302  0.0977
  702MOL0     N92583   7.239  10.827   3.779  0.2507  0.3123  1.0526
  702MOL0     C92584   8.401  10.231   3.806 -0.2517  0.4488  0.2217
  702MOL0     C92585   8.503  10.137   3.780 -0.2975 -0.1496 -0.4821
  702MOL0     C92586   8.889   9.899   3.707 -0.4242 -0.1132  0.1644
  702MOL0     C92587   8.922   9.764   3.736  0.4287 -0.3169  0.5321
  702MOL0     C92588   9.045   9.718   3.681 -0.1851  0.3988 -0.2340
  702MOL0     C92589   9.131   9.789   3.604 -0.6779 -0.4172 -0.9432
  702MOL0     O92590   9.254   9.731   3.566 -0.1195  0.4391 -0.2312
  702MOL0     C92591   9.349   9.794   3.487 -0.6621 -0.6671 -0.0278
  702MOL0     C92592   9.448   9.883   3.573 -0.1699  0.1001  0.3352
  702MOL0     C92593   9.575   9.905   3.494  0.3689  0.4971  0.1843
  702MOL0     C92594   9.682   9.995   3.569 -0.1039  0.2617 -0.6932
  702MOL0     C92595   9.759   9.903   3.655 -0.1434 -0.3119  0.1633
  702MOL0     C92596   9.826   9.838   3.738  0.6697  0.3609 -0.0964
  702MOL0     C92597   9.096   9.922   3.568 -0.1254  0.5436 -0.0802
  702MOL0     C92598   8.970   9.973   3.615  1.4680  0.5992  0.0205
  702MOL0     H92599   8.764  10.350   3.791  0.2883  0.0391  3.8603
  702MOL0     H92600   8.582  10.518   3.815  0.5484  0.2618 -0.7950
  702MOL0     H92601   8.172  10.355   3.903 -1.2066 -0.8185 -2.8577
  702MOL0     H92602   8.190  10.410   3.735  0.6228  0.0633  0.3870
  702MOL0     H92603   8.163  10.652   3.821  0.5343  1.1755  1.2251
  702MOL0     H92604   8.135  10.589   3.978  1.1461 -1.2021  0.3751
  702MOL0     H92605   7.933  10.456   3.900 -1.8211 -1.1609 -1.7812
  702MOL0     H92606   7.971  10.516   3.739 -1.4251 -0.1485  0.6775
  702MOL0     H92607   7.913  10.703   3.967 -0.3548  1.8248 -0.1874
  702MOL0     H92608   7.931  10.744   3.796 -2.5863 -1.1571 -2.4636
  702MOL0     H92609   7.735  10.557   3.922  1.9838 -0.0299 -0.1987
  702MOL0     H92610   7.756  10.599   3.743  3.5969 -2.6077  0.5259
  702MOL0     H92611   7.676  10.829   3.787  0.6047 -0.9873 -0.8026
  702MOL0     H92612   7.704  10.809   3.956  0.5914 -1.2106  0.2660
  702MOL0     H92613   7.467  10.700   3.789  0.7800 -0.2439 -0.5408
  702MOL0     H92614   7.488  10.666   3.963  1.7890 -0.6601 -0.0017
  702MOL0     H92615   7.468  10.946   3.852  3.2115 -0.3920  0.3748
  702MOL0     H92616   7.474  10.896   4.020  1.3432 -0.5887  0.6524
  702MOL0     H92617   7.217  10.844   4.109  1.7862  0.6896  0.5192
  702MOL0     H92618   6.998  10.713   4.124  2.1734  0.4708  0.2440
  702MOL0     H92619   6.901  10.688   3.969 -1.3853  0.9164 -0.5963
  702MOL0     H92620   6.842  10.934   3.956 -0.2994 -0.3350 -0.2087
  702MOL0     H92621   6.943  10.971   4.087 -0.9716  1.7983 -2.1605
  702MOL0     H92622   6.818  10.828   4.251  2.0836 -0.7669 -1.8783
  702MOL0     H92623   6.732  10.968   4.185 -2.9401 -0.5349  2.1502
  702MOL0     H92624   6.602  10.770   4.199 -0.2416  0.5483  0.5356
  702MOL0     H92625   6.709  10.687   4.080 -1.9284  0.3031 -1.1611
  702MOL0     H92626   6.406  11.030   3.947 -1.8377 -0.2793  1.1155
  702MOL0     H92627   6.173  10.986   3.903  0.3698  0.6335 -0.0673
  702MOL0     H92628   5.782  10.692   4.017  4.1946  0.6410 -0.1486
  702MOL0     H92629   5.571  10.548   4.012 -1.1351 -3.5283  0.6821
  702MOL0     H92630   5.576  10.122   4.054  0.3143  0.7002 -1.3910
  702MOL0     H92631   5.416  10.175   4.015 -1.0299 -0.4119  1.0292
  702MOL0     H92632   5.442  10.352   4.190  0.7548  0.6904 -1.8075
  702MOL0     H92633   5.613  10.322   4.199  0.1716 -1.6999  1.6879
  702MOL0     H92634   5.567  10.089   4.270  0.5112  0.1345  0.5558
  702MOL0     H92635   5.391  10.113   4.235 -0.0296  0.8716  0.2591
  702MOL0     H92636   5.466  10.129   4.483  0.5617  0.5890  0.6679
  702MOL0     H92637   5.557  10.272   4.444  1.3951 -1.8589 -0.0945
  702MOL0     H92638   5.309  10.351   4.363  0.2064 -0.7523 -0.2351
  702MOL0     H92639   5.342  10.335   4.541 -2.3087 -0.0907  0.6559
  702MOL0     H92640   5.232  10.132   4.552  0.6634  0.8654  0.8963
  702MOL0     H92641   5.221  10.124   4.364  1.4863 -0.4377  0.7827
  702MOL0     H92642   5.085  10.289   4.588 -0.8610  0.5642 -0.2967
  702MOL0     H92643   5.079  10.351   4.430 -1.5375 -1.0893 -0.9607
  702MOL0     H92644   4.872  10.261   4.474 -0.5483 -1.8504  1.4722
  702MOL0     H92645   4.945  10.092   4.490 -1.0614 -0.5581 -0.8448
  702MOL0     H92646   5.787  10.217   3.862 -0.4119  0.7790 -1.7655
  702MOL0     H92647   5.988  10.355   3.853 -0.2601 -0.7268 -0.0628
  702MOL0     H92648   6.247  10.566   4.004 -2.2116  1.8110 -1.8324
  702MOL0     H92649   6.477  10.613   4.034 -1.1000 -1.3940 -1.9579
  702MOL0     H92650   8.297  10.201   3.816 -0.0277 -0.4998 -0.2291
  702MOL0     H92651   8.476  10.035   3.756  0.5369  0.3308 -4.1655
  702MOL0     H92652   8.864   9.694   3.795  0.9980  0.3380  1.9138
  702MOL0     H92653   9.073   9.630   3.739 -2.0224  1.2090  2.0433
  702MOL0     H92654   9.308   9.856   3.406 -0.7317 -1.3615 -0.5286
  702MOL0     H92655   9.401   9.717   3.429 -0.2883 -0.0372 -0.5526
  702MOL0     H92656   9.395   9.974   3.603 -0.9493  0.6427 -2.4081
  702MOL0     H92657   9.472   9.830   3.666  1.4527 -0.8658 -0.5868
  702MOL0     H92658   9.550   9.968   3.408  1.6762  0.1699 -0.4690
  702MOL0     H92659   9.613   9.813   3.449 -0.2579  0.8885 -1.1902
  702MOL0     H92660   9.758  10.028   3.497 -0.0598  3.4752  0.6438
  702MOL0     H92661   9.640  10.087   3.612  1.3379  0.3722  0.5664
  702MOL0     H92662   9.896   9.793   3.806  1.0680 -1.8241 -1.8558
  702MOL0     H92663   9.158   9.988   3.509 -0.9265  3.1417  1.7851
  702MOL0     H92664   8.923  10.065   3.582 -0.6334  0.1690  1.5826
  703MOL0     O92665   0.377   8.140   6.378  0.1711  0.3825  0.3029
  703MOL0     C92666   0.476   8.121   6.455 -0.0269  0.4972 -0.3041
  703MOL0     O92667   0.473   8.135   6.591  0.5849  0.0081 -0.5133
  703MOL0     C92668   0.354   8.178   6.642 -0.1216 -0.0722 -0.1402
  703MOL0     C92669   0.318   8.312   6.661  0.3528 -0.7240 -0.2629
  703MOL0     C92670   0.201   8.341   6.724  0.2547 -0.3155 -1.0580
  703MOL0     C92671   0.113   8.243   6.772 -1.3127  0.0715  0.0781
  703MOL0     O92672   0.005   8.276   6.843  0.0547  0.7183 -0.1088
  703MOL0     C92673  -0.093   8.350   6.768  0.5719  1.1798  0.7383
  703MOL0     C92674  -0.236   8.349   6.817  0.2034  0.1311  0.2636
  703MOL0     C92675  -0.301   8.486   6.811  0.3179 -0.0130 -0.2257
  703MOL0     C92676  -0.448   8.481   6.857  0.1740 -0.3762 -0.6331
  703MOL0     C92677  -0.537   8.586   6.789  0.1976 -0.1213  0.3240
  703MOL0     C92678  -0.593   8.565   6.654  0.6286  0.5573 -0.0125
  703MOL0     C92679  -0.687   8.446   6.647  0.1128  0.0202 -0.3422
  703MOL0     C92680  -0.817   8.454   6.714  0.0156  0.4136 -0.3647
  703MOL0     N92681  -0.908   8.355   6.659 -0.1613  0.0112  0.1584
  703MOL0     C92682  -1.003   8.387   6.570 -0.2602 -0.2073 -0.1098
  703MOL0     C92683  -1.063   8.270   6.549  0.7151  0.1260  0.1158
  703MOL0     C92684  -1.173   8.230   6.449  0.1708  0.6329  0.4555
  703MOL0     C92685  -1.307   8.294   6.476  0.0561  0.1859 -0.3245
  703MOL0     C92686  -1.350   8.259   6.638 -0.9346 -0.0662  0.0705
  703MOL0     C92687  -1.388   8.111   6.666 -0.0810 -0.4074  0.1697
  703MOL0     O92688  -1.491   8.058   6.590  0.2028 -0.3159  0.7704
  703MOL0     C92689  -1.626   8.110   6.605 -0.8957 -0.6674  0.5271
  703MOL0     C92690  -1.692   8.112   6.733 -0.2461 -0.1555 -0.6532
  703MOL0     C92691  -1.823   8.163   6.741  0.2283  0.3787 -0.2299
  703MOL0     C92692  -1.880   8.219   6.630 -0.0974 -0.1597 -1.4022
  703MOL0     C92693  -2.015   8.270   6.645  0.9547 -0.0375  0.0485
  703MOL0     O92694  -2.061   8.299   6.770 -1.0341 -0.9609 -0.3366
  703MOL0     C92695  -2.196   8.304   6.782 -0.4019  0.0834 -0.2321
  703MOL0     C92696  -2.266   8.419   6.749  0.2403  0.0900  0.3086
  703MOL0     C92697  -2.406   8.427   6.768  0.3388  0.6396  0.9388
  703MOL0     C92698  -2.479   8.324   6.823 -0.4810 -0.4421 -0.2365
  703MOL0     O92699  -2.617   8.328   6.828  0.0042 -0.1081  0.3516
  703MOL0     C92700  -2.697   8.414   6.755 -0.2443  0.4432 -0.3543
  703MOL0     C92701  -2.839   8.376   6.787  0.0189 -0.2364  0.2152
  703MOL0     C92702  -2.901   8.485   6.873 -0.2162 -0.8638 -0.0694
  703MOL0     C92703  -3.033   8.442   6.942  0.3874 -0.9122  0.3890
  703MOL0     C92704  -3.115   8.556   6.995  0.2657 -0.4678  0.3152
  703MOL0     C92705  -3.148   8.664   6.895  0.1382  0.0962  0.3532
  703MOL0     C92706  -3.231   8.776   6.958 -0.0766  0.2355 -0.3760
  703MOL0     C92707  -3.158   8.907   6.995  0.4297 -0.0307 -0.3113
  703MOL0    Cl92708  -3.108   8.980   6.841 -0.1824  0.0637 -0.2716
  703MOL0     C92709  -2.408   8.214   6.860 -0.3551 -0.4375 -0.0659
  703MOL0     C92710  -2.267   8.200   6.839  0.6338  1.3616 -0.3100
  703MOL0     O92711  -2.088   8.269   6.543 -0.2463 -0.1650  0.2071
  703MOL0     C92712  -1.823   8.218   6.505  0.8674 -0.9975 -0.2271
  703MOL0     C92713  -1.694   8.163   6.488  0.0962 -0.4040 -0.6726
  703MOL0     N92714  -1.009   8.166   6.629 -0.6211 -0.5960 -0.0659
  703MOL0     N92715  -0.910   8.220   6.700  0.9130 -1.0370  0.5627
  703MOL0     C92716   0.153   8.105   6.763 -0.3334 -0.8617  0.1030
  703MOL0     C92717   0.271   8.076   6.694 -1.1602  0.9692 -1.1930
  703MOL0     C92718   0.603   8.093   6.401 -0.8834 -0.2592  0.1444
  703MOL0     C92719   0.624   8.076   6.261  0.3900 -0.3979 -0.3848
  703MOL0     C92720   0.750   8.062   6.204  0.8405  0.4360 -0.5846
  703MOL0     C92721   0.866   8.058   6.287  1.0744 -0.5600  0.4907
  703MOL0     O92722   0.989   8.040   6.235  0.2143  0.1304  0.0487
  703MOL0     C92723   1.043   7.909   6.263  0.1442 -0.7694  0.6600
  703MOL0     C92724   1.183   7.936   6.315  0.0298  0.5715 -0.5779
  703MOL0     C92725   1.257   8.015   6.205 -0.3984  0.0018 -0.8211
  703MOL0     C92726   1.414   8.005   6.220  0.7952 -0.1854  0.6725
  703MOL0     C92727   1.453   8.084   6.338 -0.6931 -0.3455  0.7039
  703MOL0     C92728   1.492   8.151   6.431  1.2337 -0.3248  0.5082
  703MOL0     C92729   0.855   8.065   6.425  0.7894  1.1530  0.1636
  703MOL0     C92730   0.724   8.088   6.483 -0.6463  0.0889  0.7633
  703MOL0     H92731   0.375   8.400   6.633  3.6676 -2.2408  1.1719
  703MOL0     H92732   0.171   8.439   6.758 -0.5068 -0.3662 -1.5618
  703MOL0     H92733  -0.097   8.314   6.665 -0.8877 -0.4987  1.3272
  703MOL0     H92734  -0.069   8.456   6.755  0.3445  1.4575  2.3160
  703MOL0     H92735  -0.236   8.320   6.922  2.3568 -2.0140 -0.2234
  703MOL0     H92736  -0.293   8.274   6.761  1.4726 -0.9291  0.3387
  703MOL0     H92737  -0.287   8.520   6.708 -0.2547 -3.7036 -1.6643
  703MOL0     H92738  -0.240   8.547   6.878  1.4388 -0.8835 -0.4301
  703MOL0     H92739  -0.499   8.384   6.857  0.6050 -0.6041 -0.4660
  703MOL0     H92740  -0.450   8.502   6.964 -1.7766  2.5522 -1.1363
  703MOL0     H92741  -0.470   8.673   6.784  0.5057 -0.4256 -2.3239
  703MOL0     H92742  -0.623   8.604   6.854 -1.0633 -0.8273 -1.0818
  703MOL0     H92743  -0.510   8.565   6.583  0.4274  1.9717 -0.2706
  703MOL0     H92744  -0.655   8.653   6.635  0.7198  0.6163 -0.0355
  703MOL0     H92745  -0.693   8.414   6.542  0.4089 -1.3227  0.0304
  703MOL0     H92746  -0.639   8.358   6.691  0.5633  0.7875  0.7429
  703MOL0     H92747  -0.853   8.557   6.703  1.1787  0.6094 -3.2044
  703MOL0     H92748  -0.816   8.421   6.818  0.4443 -1.0510 -0.8181
  703MOL0     H92749  -1.027   8.483   6.525 -2.1248 -0.4364  0.3448
  703MOL0     H92750  -1.174   8.121   6.444 -2.9238  0.6147 -0.4734
  703MOL0     H92751  -1.139   8.252   6.347  1.1253  1.7980  0.9940
  703MOL0     H92752  -1.386   8.252   6.414 -0.7664 -0.5666  1.1699
  703MOL0     H92753  -1.301   8.403   6.466  0.0766  0.7545  3.8769
  703MOL0     H92754  -1.270   8.284   6.708 -0.8169 -2.6358  0.9340
  703MOL0     H92755  -1.438   8.320   6.662 -1.3940  0.3222 -2.3424
  703MOL0     H92756  -1.422   8.096   6.769 -1.7906 -0.4665 -0.3668
  703MOL0     H92757  -1.305   8.041   6.652 -1.5615 -2.2127 -0.0375
  703MOL0     H92758  -1.640   8.070   6.819 -0.5068  1.2179  0.2002
  703MOL0     H92759  -1.877   8.154   6.835  1.5232  4.3717  1.0959
  703MOL0     H92760  -2.211   8.502   6.706 -0.9458  0.4500 -0.5619
  703MOL0     H92761  -2.465   8.510   6.730  0.4602  0.3362  0.0598
  703MOL0     H92762  -2.693   8.403   6.647  0.2122  2.0988 -0.5278
  703MOL0     H92763  -2.682   8.520   6.778 -3.3703  0.6695  1.2819
  703MOL0     H92764  -2.851   8.281   6.841 -0.4754 -0.0611  0.4266
  703MOL0     H92765  -2.889   8.367   6.690  1.4665  5.0990 -1.3318
  703MOL0     H92766  -2.913   8.581   6.822  1.0114  0.2300  1.6041
  703MOL0     H92767  -2.826   8.502   6.951 -1.7588  3.8109  0.6641
  703MOL0     H92768  -3.093   8.399   6.861  1.7714 -2.9081  0.3647
  703MOL0     H92769  -3.025   8.372   7.026  1.2883  1.4793  2.4332
  703MOL0     H92770  -3.074   8.595   7.088 -1.6059  1.1934  0.5210
  703MOL0     H92771  -3.207   8.511   7.034  1.1623 -1.9914  0.7530
  703MOL0     H92772  -3.201   8.608   6.818  0.4148 -2.9652  2.2224
  703MOL0     H92773  -3.066   8.703   6.834 -1.5932  0.9175 -1.5641
  703MOL0     H92774  -3.309   8.806   6.887 -0.2645 -1.4257 -0.9371
  703MOL0     H92775  -3.284   8.737   7.046  0.1983  0.1807 -0.2352
  703MOL0     H92776  -3.069   8.897   7.057 -0.0014 -2.2824  0.0577
  703MOL0     H92777  -3.228   8.972   7.049  1.3665  1.1166 -0.4472
  703MOL0     H92778  -2.470   8.135   6.903 -0.6351 -1.5841 -2.4278
  703MOL0     H92779  -2.206   8.114   6.866  1.4587  2.4246  1.4336
  703MOL0     H92780  -1.878   8.268   6.426 -2.9078 -0.9875  2.1707
  703MOL0     H92781  -1.647   8.166   6.390 -1.4456  1.5492 -1.4199
  703MOL0     H92782   0.089   8.034   6.815 -0.5979 -0.0069  0.9917
  703MOL0     H92783   0.303   7.974   6.682 -0.2672  0.9908  0.7331
  703MOL0     H92784   0.541   8.095   6.193  0.9872  0.2530 -0.9543
  703MOL0     H92785   0.752   8.035   6.099 -0.8842 -1.2508 -0.2423
  703MOL0     H92786   1.028   7.857   6.167 -1.1487  1.0768 -0.1943
  703MOL0     H92787   0.987   7.855   6.340 -0.5753  0.2179  0.8330
  703MOL0     H92788   1.172   7.992   6.408  1.8924  0.8165 -0.4681
  703MOL0     H92789   1.238   7.842   6.327 -1.3499 -0.4415 -1.8522
  703MOL0     H92790   1.206   8.111   6.195  1.1733  1.1242  1.2599
  703MOL0     H92791   1.239   7.957   6.114  1.0018  2.0514 -2.5325
  703MOL0     H92792   1.438   7.900   6.238 -4.1904 -1.9787 -1.3634
  703MOL0     H92793   1.467   8.039   6.130 -1.8397 -2.9518 -2.1728
  703MOL0     H92794   1.500   8.218   6.514 -2.6697  1.3112 -0.2043
  703MOL0     H92795   0.943   8.071   6.488  0.9647  2.8219 -0.2123
  703MOL0     H92796   0.722   8.105   6.590  2.7017  0.7647  0.8124
  704MOL0     O92797   3.748  10.090   5.670 -0.1789  0.2917  0.7550
  704MOL0     C92798   3.849  10.160   5.697  0.4665  0.1056  0.7894
  704MOL0     O92799   3.863  10.292   5.654  0.5622  0.0819  0.4986
  704MOL0     C92800   3.765  10.343   5.564 -0.4048 -0.1280  0.7530
  704MOL0     C92801   3.805  10.360   5.430  0.0593 -0.4023 -0.7786
  704MOL0     C92802   3.725  10.433   5.345  0.4052  1.0438  0.2605
  704MOL0     C92803   3.599  10.482   5.385 -0.7111  0.1968 -0.9254
  704MOL0     O92804   3.533  10.566   5.298  0.6175 -0.0484  0.0227
  704MOL0     C92805   3.391  10.568   5.302  0.1217  0.6368 -0.0221
  704MOL0     C92806   3.336  10.679   5.391  0.7609 -0.9038  0.3521
  704MOL0     C92807   3.191  10.724   5.338 -0.5378 -0.9986  0.0897
  704MOL0     C92808   3.202  10.858   5.272  0.5151  0.2143 -0.6620
  704MOL0     C92809   3.081  10.888   5.184 -0.1322 -0.3647  0.4092
  704MOL0     C92810   3.116  11.006   5.095 -0.0389  0.0777 -0.5759
  704MOL0     C92811   2.979  11.080   5.059 -0.6077 -0.2672 -0.7218
  704MOL0     C92812   2.896  11.024   4.939  0.3648 -0.2648 -0.3981
  704MOL0     N92813   2.788  11.111   4.915  0.2843 -0.9394  0.1197
  704MOL0     C92814   2.801  11.238   4.873  0.0132  0.4349 -0.1358
  704MOL0     C92815   2.673  11.288   4.871 -0.5380  0.9281  0.4258
  704MOL0     C92816   2.641  11.429   4.828 -0.3755 -0.7798 -0.7319
  704MOL0     C92817   2.622  11.539   4.941  0.3804  0.1749 -0.3101
  704MOL0     C92818   2.508  11.521   5.043  0.4579 -0.1681  0.1788
  704MOL0     C92819   2.375  11.468   4.982  0.3041  0.0664 -0.5854
  704MOL0     O92820   2.277  11.487   5.091 -0.2159 -0.1496  0.0764
  704MOL0     C92821   2.138  11.469   5.065 -0.2665 -0.2873 -0.2466
  704MOL0     C92822   2.057  11.476   5.179  0.6876 -0.1486 -0.1917
  704MOL0     C92823   1.919  11.452   5.165  0.2317  0.5777  0.7420
  704MOL0     C92824   1.862  11.417   5.041 -0.6221 -0.2798 -0.1317
  704MOL0     C92825   1.715  11.416   5.026  0.0232  0.3995 -0.0103
  704MOL0     O92826   1.634  11.414   5.134 -0.1094 -0.5684 -0.6260
  704MOL0     C92827   1.498  11.428   5.124  0.4755 -0.2631 -0.2966
  704MOL0     C92828   1.408  11.357   5.205  0.5675  0.0549  0.3127
  704MOL0     C92829   1.272  11.383   5.203 -0.7789 -0.2732  0.0413
  704MOL0     C92830   1.219  11.484   5.123  0.3730  0.4285  1.0986
  704MOL0     O92831   1.087  11.518   5.128  0.3906 -0.0098  0.5179
  704MOL0     C92832   1.019  11.518   5.251  0.7336  0.0444 -0.1463
  704MOL0     C92833   0.867  11.561   5.226 -0.8262  1.0668  0.4808
  704MOL0     C92834   0.801  11.553   5.363  0.8023  0.1217  0.5957
  704MOL0     C92835   0.650  11.604   5.365  0.0831 -0.6323 -0.5216
  704MOL0     C92836   0.578  11.565   5.495  1.0737 -0.1983 -0.8289
  704MOL0     C92837   0.438  11.613   5.497  0.3055  0.6674 -0.3383
  704MOL0     C92838   0.369  11.584   5.629 -0.1384  0.7562 -0.4490
  704MOL0     C92839   0.219  11.575   5.616  0.6075  0.1686  0.4830
  704MOL0    Cl92840   0.149  11.741   5.598  0.5657 -0.0782 -0.2373
  704MOL0     C92841   1.303  11.546   5.037 -0.0149  0.1401 -0.2888
  704MOL0     C92842   1.440  11.516   5.034 -0.1246 -0.6387 -1.1960
  704MOL0     O92843   1.679  11.409   4.911  0.0997  0.3467 -0.4786
  704MOL0     C92844   1.951  11.410   4.931 -0.3391 -0.0183 -0.1487
  704MOL0     C92845   2.088  11.434   4.942 -0.4996  0.1834  0.5799
  704MOL0     N92846   2.581  11.186   4.903  0.4454 -0.2657 -0.0441
  704MOL0     N92847   2.653  11.079   4.924  0.7758 -0.2577  0.4866
  704MOL0     C92848   3.549  10.454   5.522  0.2933 -0.0261 -0.1507
  704MOL0     C92849   3.639  10.374   5.605 -0.1067 -0.4084  0.2017
  704MOL0     C92850   3.965  10.102   5.765 -0.0547 -0.5504  0.2559
  704MOL0     C92851   4.082  10.177   5.782  0.1380 -0.5180 -0.5539
  704MOL0     C92852   4.192  10.127   5.841  0.1173  0.0121 -1.1312
  704MOL0     C92853   4.199  10.008   5.893 -0.4559 -1.1098 -0.5504
  704MOL0     O92854   4.310   9.965   5.955  0.2422 -0.8007  0.0175
  704MOL0     C92855   4.429  10.043   5.985  0.5802 -0.8383  0.1505
  704MOL0     C92856   4.524   9.986   6.086  0.7165  0.4247 -0.7112
  704MOL0     C92857   4.573  10.090   6.188 -0.1871  1.1352 -0.2775
  704MOL0     C92858   4.685  10.042   6.273  1.3205  0.1573  0.2810
  704MOL0     C92859   4.812  10.008   6.202 -0.1980  0.5258 -0.0333
  704MOL0     C92860   4.915   9.977   6.145  0.0910  0.9107 -0.3916
  704MOL0     C92861   4.091   9.919   5.871  0.2351  0.0572  0.6082
  704MOL0     C92862   3.974   9.973   5.809 -0.0606 -0.4392  0.5418
  704MOL0     H92863   3.905  10.330   5.402  0.5699 -0.0926  0.6369
  704MOL0     H92864   3.750  10.465   5.245 -0.0758  1.3522  0.2361
  704MOL0     H92865   3.344  10.474   5.332 -3.7601  2.0499 -0.9948
  704MOL0     H92866   3.351  10.581   5.201  1.1058  1.5562 -0.3062
  704MOL0     H92867   3.402  10.766   5.379  0.7515 -0.8470  0.7057
  704MOL0     H92868   3.326  10.651   5.496 -2.4982  0.3739  0.5009
  704MOL0     H92869   3.134  10.747   5.428  0.5776 -0.6674  0.7237
  704MOL0     H92870   3.144  10.640   5.285 -1.7724 -1.0644  1.2582
  704MOL0     H92871   3.214  10.939   5.345 -0.0872  0.5830 -0.9651
  704MOL0     H92872   3.300  10.862   5.223 -0.1372  1.1350 -1.9243
  704MOL0     H92873   2.986  10.905   5.236 -1.0091 -1.6930 -0.7004
  704MOL0     H92874   3.072  10.801   5.119  1.4075  1.1031 -1.8898
  704MOL0     H92875   3.181  10.974   5.013  1.4436  0.8191  0.2637
  704MOL0     H92876   3.174  11.070   5.162 -0.4939 -1.2537  1.1951
  704MOL0     H92877   2.913  11.105   5.143 -1.5644 -1.2544 -1.1462
  704MOL0     H92878   3.023  11.178   5.041  0.0261 -0.4369 -0.1427
  704MOL0     H92879   2.851  10.929   4.969 -1.8128  0.8047 -0.0859
  704MOL0     H92880   2.953  11.018   4.845  1.1512  0.3054  0.0345
  704MOL0     H92881   2.892  11.289   4.842 -0.8246  1.2467 -1.3247
  704MOL0     H92882   2.544  11.420   4.778 -1.3858  0.8724  0.7966
  704MOL0     H92883   2.726  11.449   4.762 -1.1314 -0.7752 -1.7156
  704MOL0     H92884   2.615  11.640   4.899  0.1220  0.3272  0.0933
  704MOL0     H92885   2.713  11.550   5.000 -1.1548  2.2352  1.8502
  704MOL0     H92886   2.535  11.448   5.120  2.9209  0.4476 -0.0067
  704MOL0     H92887   2.492  11.621   5.083 -1.2282  0.2983 -1.5469
  704MOL0     H92888   2.385  11.363   4.952 -0.8204 -0.9416  2.2470
  704MOL0     H92889   2.335  11.530   4.901 -2.1562 -0.7601 -0.0646
  704MOL0     H92890   2.098  11.491   5.279 -1.9198 -2.7321  1.3993
  704MOL0     H92891   1.856  11.467   5.252 -1.0169  0.2951 -0.0927
  704MOL0     H92892   1.449  11.286   5.277  1.1521  0.2761  0.2038
  704MOL0     H92893   1.208  11.315   5.260 -0.7870  1.1227  1.7776
  704MOL0     H92894   1.063  11.588   5.323  0.9880  0.0345 -0.2899
  704MOL0     H92895   1.020  11.413   5.281  0.9926  0.5870  1.8760
  704MOL0     H92896   0.821  11.496   5.152  1.0780 -1.6827  1.5587
  704MOL0     H92897   0.862  11.661   5.183 -1.7048  0.8897  0.1616
  704MOL0     H92898   0.857  11.607   5.440  5.4569  0.2573 -2.4467
  704MOL0     H92899   0.797  11.452   5.405  1.2316  0.0610  0.4968
  704MOL0     H92900   0.642  11.713   5.361 -0.7760 -0.4959  2.4047
  704MOL0     H92901   0.607  11.571   5.271 -2.0457 -2.4041  0.9878
  704MOL0     H92902   0.630  11.611   5.580 -0.6660 -0.3796  0.3778
  704MOL0     H92903   0.597  11.459   5.513 -0.2739 -0.0160  2.2480
  704MOL0     H92904   0.374  11.567   5.422  1.0436 -0.4291 -0.3195
  704MOL0     H92905   0.436  11.720   5.473  1.3529  0.5808 -0.8604
  704MOL0     H92906   0.404  11.487   5.664 -0.9971  0.8994  0.8413
  704MOL0     H92907   0.397  11.663   5.700  0.7513  1.3352 -1.4042
  704MOL0     H92908   0.186  11.534   5.712 -1.9409  0.1661 -0.3119
  704MOL0     H92909   0.181  11.506   5.540 -1.0116  0.4932  0.9421
  704MOL0     H92910   1.266  11.628   4.977 -0.5754 -1.4676 -2.2836
  704MOL0     H92911   1.509  11.575   4.976 -0.1779  1.5387  0.8029
  704MOL0     H92912   1.909  11.396   4.832 -1.0225  2.0057 -0.1978
  704MOL0     H92913   2.151  11.407   4.858 -0.1825 -1.6164  1.3531
  704MOL0     H92914   3.445  10.469   5.547  0.3370 -0.2639  0.1863
  704MOL0     H92915   3.614  10.346   5.707 -3.7115  1.2264 -0.0956
  704MOL0     H92916   4.080  10.277   5.738  0.1517  0.3854  1.4019
  704MOL0     H92917   4.268  10.204   5.851 -1.2708  1.5592 -1.9464
  704MOL0     H92918   4.398  10.147   6.002 -1.2996 -1.1360 -1.0746
  704MOL0     H92919   4.468  10.046   5.883 -3.4668 -0.7387 -1.5963
  704MOL0     H92920   4.480   9.899   6.136  0.4592  0.3387 -1.0775
  704MOL0     H92921   4.607   9.935   6.037  1.2661  0.2976  0.3310
  704MOL0     H92922   4.487  10.120   6.249 -0.8697 -1.3914  0.1002
  704MOL0     H92923   4.607  10.181   6.137  1.1973  0.1793 -1.1165
  704MOL0     H92924   4.712  10.122   6.343 -0.0522  1.0604 -0.1909
  704MOL0     H92925   4.654   9.944   6.310 -0.2062  0.4930 -0.0445
  704MOL0     H92926   5.004   9.968   6.086  0.7727 -1.6510  0.8686
  704MOL0     H92927   4.094   9.823   5.922  1.7578 -0.9049 -1.1589
  704MOL0     H92928   3.890   9.911   5.781 -0.0312 -0.8937  1.4229
  705MOL0     O92929   0.631   9.905   6.137  0.1459  0.3641 -0.9432
  705MOL0     C92930   0.541   9.900   6.230 -0.2639  0.4236  0.8922
  705MOL0     O92931   0.436   9.991   6.240 -0.2247  0.8502 -0.8201
  705MOL0     C92932   0.435  10.088   6.145 -0.1969  1.1719 -0.0806
  705MOL0     C92933   0.321  10.099   6.061 -0.6724 -0.2522 -0.4122
  705MOL0     C92934   0.319  10.199   5.969  0.3530 -0.2957 -0.2355
  705MOL0     C92935   0.421  10.292   5.958  0.2534  0.7386  0.9132
  705MOL0     O92936   0.417  10.385   5.855 -0.2451 -0.2901 -0.1328
  705MOL0     C92937   0.517  10.481   5.851 -0.0174  0.3408 -0.0483
  705MOL0     C92938   0.492  10.581   5.736  0.6078 -0.3652  0.1311
  705MOL0     C92939   0.385  10.672   5.784  1.3003  0.8363  0.4220
  705MOL0     C92940   0.332  10.775   5.681  0.3797  0.6226 -0.9380
  705MOL0     C92941   0.189  10.825   5.713 -0.3221  0.6243 -0.5005
  705MOL0     C92942   0.164  10.868   5.854 -0.1177  0.2808 -0.4131
  705MOL0     C92943   0.012  10.884   5.879  0.3984  0.2612 -0.5918
  705MOL0     C92944  -0.018  10.943   6.023 -0.0798  0.4623 -0.4304
  705MOL0     N92945  -0.151  11.004   6.035 -0.4350  0.2376  0.1857
  705MOL0     C92946  -0.192  11.115   5.963  0.1545 -0.6900 -0.8743
  705MOL0     C92947  -0.323  11.128   5.990 -0.4089 -0.6141  0.5676
  705MOL0     C92948  -0.403  11.249   5.935 -0.4540 -0.4149 -0.2530
  705MOL0     C92949  -0.550  11.210   5.931  0.7303  0.3484  0.1907
  705MOL0     C92950  -0.619  11.217   6.063  0.7245  0.0048  0.6991
  705MOL0     C92951  -0.779  11.210   6.041  0.2897 -1.1374  0.3241
  705MOL0     O92952  -0.815  11.334   5.983 -0.1780  0.0103 -0.7646
  705MOL0     C92953  -0.940  11.384   5.987  0.5746 -0.2827 -0.3545
  705MOL0     C92954  -1.044  11.323   6.052  0.6472  0.4298 -0.4766
  705MOL0     C92955  -1.185  11.362   6.040  0.6655  0.2771 -0.4792
  705MOL0     C92956  -1.211  11.488   5.987  0.2170  0.4192 -0.6477
  705MOL0     C92957  -1.342  11.539   5.974 -0.9168  0.1049 -0.0536
  705MOL0     O92958  -1.445  11.463   6.016 -0.8372 -0.1093  0.9253
  705MOL0     C92959  -1.575  11.503   5.991 -0.1782  0.3764 -0.7670
  705MOL0     C92960  -1.654  11.391   5.966 -0.0062 -0.2863 -0.0783
  705MOL0     C92961  -1.782  11.412   5.913  0.4474 -0.7835  0.6872
  705MOL0     C92962  -1.852  11.534   5.918 -0.7964 -0.0917  0.0827
  705MOL0     O92963  -1.981  11.558   5.878 -0.6686  0.2854 -0.0445
  705MOL0     C92964  -2.042  11.450   5.803 -0.2893 -0.6006 -0.9252
  705MOL0     C92965  -2.188  11.485   5.775 -0.0326 -0.2752  0.2949
  705MOL0     C92966  -2.218  11.590   5.671  0.3032  0.0263  0.7004
  705MOL0     C92967  -2.373  11.612   5.656  0.7765 -0.2449 -0.8080
  705MOL0     C92968  -2.418  11.707   5.536  0.2285  0.7492  0.2495
  705MOL0     C92969  -2.566  11.741   5.538 -0.1427  0.3400  0.6395
  705MOL0     C92970  -2.622  11.758   5.396 -0.5291  0.0715  0.4979
  705MOL0     C92971  -2.767  11.791   5.388  0.5688 -1.4655  0.5459
  705MOL0    Cl92972  -2.866  11.697   5.506  0.1900 -0.6817  0.6549
  705MOL0     C92973  -1.777  11.637   5.968 -0.4015  0.4730  0.5932
  705MOL0     C92974  -1.638  11.624   5.995 -0.5504  0.2413 -0.9552
  705MOL0     O92975  -1.350  11.652   5.922 -0.0232 -0.6524  0.3558
  705MOL0     C92976  -1.101  11.565   5.941 -0.2999 -0.2310  1.0149
  705MOL0     C92977  -0.976  11.509   5.944 -0.7028  0.3035  0.6920
  705MOL0     N92978  -0.343  11.039   6.091 -0.3046 -0.3888 -0.2639
  705MOL0     N92979  -0.252  10.958   6.112 -0.2246  0.6719 -0.2750
  705MOL0     C92980   0.527  10.288   6.047  0.5590 -0.2766  0.0626
  705MOL0     C92981   0.532  10.187   6.143 -0.5079  0.4625  0.1177
  705MOL0     C92982   0.551   9.785   6.317  0.2274  0.0961 -0.3811
  705MOL0     C92983   0.452   9.770   6.421  1.2067  0.1184 -1.3828
  705MOL0     C92984   0.453   9.662   6.512 -0.3780 -0.1650  0.9044
  705MOL0     C92985   0.554   9.566   6.500  0.6023 -0.1425 -0.3721
  705MOL0     O92986   0.564   9.449   6.566 -0.3963 -0.1659  0.3665
  705MOL0     C92987   0.489   9.427   6.682  0.4279  0.1996  0.2126
  705MOL0     C92988   0.526   9.287   6.740 -0.2967 -0.4112 -0.1233
  705MOL0     C92989   0.468   9.175   6.648  0.0422  0.3319  0.6062
  705MOL0     C92990   0.442   9.033   6.705  0.0933  0.6823  0.0497
  705MOL0     C92991   0.566   8.964   6.738  0.1752 -0.6598  0.8938
  705MOL0     C92992   0.668   8.908   6.756 -0.7504  0.2980  0.3860
  705MOL0     C92993   0.651   9.578   6.404 -1.2963 -0.1240  0.5714
  705MOL0     C92994   0.652   9.684   6.310  0.0706  0.1959 -0.6811
  705MOL0     H92995   0.233  10.037   6.071  0.2560 -1.5541  0.0037
  705MOL0     H92996   0.230  10.217   5.909 -0.2913 -1.5968  0.3056
  705MOL0     H92997   0.612  10.430   5.831 -0.6445 -1.5830  1.6140
  705MOL0     H92998   0.538  10.536   5.943  0.6689 -0.0589  0.0398
  705MOL0     H92999   0.460  10.535   5.642  1.3466  1.2180 -0.9395
  705MOL0     H93000   0.576  10.638   5.695 -0.4224  0.1953 -1.2952
  705MOL0     H93001   0.431  10.727   5.867 -0.1947  2.3057  0.3441
  705MOL0     H93002   0.302  10.609   5.819  1.9750 -0.5003 -0.3365
  705MOL0     H93003   0.394  10.861   5.708  1.1165 -0.1910  0.1250
  705MOL0     H93004   0.343  10.740   5.578 -0.5922 -1.4742 -0.4013
  705MOL0     H93005   0.127  10.737   5.691  1.9654 -1.2517  0.1966
  705MOL0     H93006   0.167  10.900   5.636 -1.0725 -0.5619 -1.4823
  705MOL0     H93007   0.211  10.965   5.872  0.4233  0.3557 -2.0181
  705MOL0     H93008   0.202  10.790   5.921 -2.0987 -0.7402 -0.4169
  705MOL0     H93009  -0.036  10.956   5.812 -1.4407 -1.9547 -1.8058
  705MOL0     H93010  -0.043  10.791   5.861 -0.9710  1.1297 -1.0110
  705MOL0     H93011   0.053  11.018   6.059 -2.8084  2.5310  1.0109
  705MOL0     H93012  -0.016  10.863   6.098  0.2457 -1.4124 -2.3438
  705MOL0     H93013  -0.139  11.180   5.894 -0.7811  0.2309 -0.7482
  705MOL0     H93014  -0.367  11.277   5.836  1.0620 -1.4254 -0.0236
  705MOL0     H93015  -0.396  11.337   5.999 -0.8156  0.9889 -2.0719
  705MOL0     H93016  -0.550  11.110   5.886  1.0484  0.7220 -0.6620
  705MOL0     H93017  -0.602  11.271   5.857 -0.8015  0.8463  1.5948
  705MOL0     H93018  -0.595  11.130   6.124  0.9009 -0.1364  0.4278
  705MOL0     H93019  -0.592  11.306   6.120 -0.0340  0.1845  0.7929
  705MOL0     H93020  -0.818  11.195   6.142 -0.2216 -2.5002 -0.0528
  705MOL0     H93021  -0.808  11.125   5.977 -0.9751 -0.7289  0.3272
  705MOL0     H93022  -1.024  11.229   6.103  4.4957 -0.2899 -2.8863
  705MOL0     H93023  -1.255  11.295   6.090  1.4933 -0.9482 -0.9214
  705MOL0     H93024  -1.612  11.291   5.965  1.2464  0.2316 -1.3953
  705MOL0     H93025  -1.831  11.327   5.865 -1.3316  1.7378 -2.3887
  705MOL0     H93026  -2.038  11.358   5.861 -2.1176 -1.1513 -1.6171
  705MOL0     H93027  -1.989  11.440   5.707  1.5351  0.0899 -0.0389
  705MOL0     H93028  -2.245  11.519   5.863 -2.9357  0.6125 -1.7797
  705MOL0     H93029  -2.235  11.394   5.737 -1.8967  0.6579  0.2315
  705MOL0     H93030  -2.188  11.563   5.569 -3.1397 -1.5090 -0.0493
  705MOL0     H93031  -2.171  11.687   5.692  0.0984 -0.4394  3.8736
  705MOL0     H93032  -2.421  11.515   5.640 -0.6370  0.6178 -1.9810
  705MOL0     H93033  -2.403  11.653   5.753 -1.0221 -2.4354 -0.3550
  705MOL0     H93034  -2.398  11.662   5.438 -0.9378 -1.7225  1.0353
  705MOL0     H93035  -2.371  11.805   5.538 -0.8639  1.2849  0.4085
  705MOL0     H93036  -2.581  11.838   5.585 -0.0321  0.7127 -0.0935
  705MOL0     H93037  -2.630  11.662   5.580 -0.8330 -0.6337 -2.0826
  705MOL0     H93038  -2.566  11.830   5.335  0.3640 -3.4105 -3.2438
  705MOL0     H93039  -2.616  11.659   5.351  0.3003  0.1360  0.4357
  705MOL0     H93040  -2.805  11.770   5.288 -0.6917 -0.2855  0.7591
  705MOL0     H93041  -2.775  11.898   5.408 -2.3967 -2.0261  3.2745
  705MOL0     H93042  -1.830  11.728   5.993  0.3491  0.4698  2.3254
  705MOL0     H93043  -1.580  11.710   6.028 -2.0755  0.6569  0.8127
  705MOL0     H93044  -1.122  11.659   5.891 -0.0226 -1.6310 -2.0088
  705MOL0     H93045  -0.887  11.565   5.918 -0.0572 -0.1406  1.8703
  705MOL0     H93046   0.617  10.348   6.045 -0.4651  1.3092 -0.3594
  705MOL0     H93047   0.619  10.192   6.207  1.2733 -1.5052 -1.9443
  705MOL0     H93048   0.373   9.845   6.422 -0.0659 -1.1901 -0.6498
  705MOL0     H93049   0.365   9.648   6.574  0.1087  3.6214  2.6863
  705MOL0     H93050   0.387   9.434   6.644  1.1434  0.8978 -1.7048
  705MOL0     H93051   0.503   9.511   6.751 -1.0417  1.8588 -1.4129
  705MOL0     H93052   0.634   9.285   6.759 -0.4318  0.4611  0.8109
  705MOL0     H93053   0.476   9.280   6.836 -2.4800  3.2500 -0.8064
  705MOL0     H93054   0.533   9.168   6.560  0.4201 -0.0253  0.9107
  705MOL0     H93055   0.368   9.204   6.613 -1.4116 -3.1166  1.5182
  705MOL0     H93056   0.370   9.032   6.787 -1.3286 -3.2819 -1.0157
  705MOL0     H93057   0.397   8.975   6.623  0.4453 -0.2639  0.5125
  705MOL0     H93058   0.766   8.865   6.755  0.4792  2.8660 -1.6195
  705MOL0     H93059   0.726   9.500   6.398 -1.1084  0.1569 -1.0150
  705MOL0     H93060   0.721   9.693   6.227  0.8737 -0.1823 -0.0695
  706MOL0     O93061   1.999   6.658   2.791 -0.3530  0.0723 -0.5084
  706MOL0     C93062   2.027   6.691   2.905  1.7041  0.2628 -0.6762
  706MOL0     O93063   1.936   6.733   2.997  0.3321  0.4124 -0.2435
  706MOL0     C93064   1.808   6.761   2.951  0.5595 -0.7508  0.2104
  706MOL0     C93065   1.706   6.686   3.006 -0.3378 -2.0505 -0.9846
  706MOL0     C93066   1.571   6.711   2.970 -1.1173  0.2889 -0.1533
  706MOL0     C93067   1.536   6.812   2.872 -0.4560 -0.0882 -0.3822
  706MOL0     O93068   1.401   6.823   2.847 -0.3422  0.1166 -0.2796
  706MOL0     C93069   1.347   6.944   2.803 -0.2777 -0.4978  0.2915
  706MOL0     C93070   1.197   6.954   2.828  0.5643 -1.1441 -0.1425
  706MOL0     C93071   1.111   6.843   2.759 -0.3541  0.4026  0.2362
  706MOL0     C93072   0.961   6.875   2.800 -0.6022 -0.5538  1.0210
  706MOL0     C93073   0.870   6.787   2.710  0.0993  0.0242 -0.1906
  706MOL0     C93074   0.723   6.813   2.759 -1.0242  0.7498  0.3505
  706MOL0     C93075   0.627   6.752   2.661  0.0996 -0.3024 -0.6613
  706MOL0     C93076   0.484   6.808   2.687 -0.2779 -1.0439  1.1215
  706MOL0     N93077   0.418   6.803   2.558 -0.0404  0.3674 -0.3959
  706MOL0     C93078   0.326   6.706   2.537  0.1657  0.6533  0.0610
  706MOL0     C93079   0.287   6.726   2.411  0.7363 -0.4296  0.1649
  706MOL0     C93080   0.193   6.638   2.338  0.6566  0.5906  0.1779
  706MOL0     C93081   0.042   6.674   2.365 -0.4960 -0.6859  0.0073
  706MOL0     C93082  -0.034   6.598   2.245 -0.6742  0.0463  0.4201
  706MOL0     C93083  -0.189   6.617   2.252  0.1975  0.1063  0.0505
  706MOL0     O93084  -0.245   6.585   2.377  0.0029 -0.0351 -0.5388
  706MOL0     C93085  -0.358   6.657   2.400  0.3384  0.6364 -0.1278
  706MOL0     C93086  -0.348   6.767   2.482  1.1169 -0.2790 -0.6699
  706MOL0     C93087  -0.466   6.847   2.498 -0.6375 -0.6975 -0.0448
  706MOL0     C93088  -0.592   6.815   2.442 -0.9576  0.3506 -0.0335
  706MOL0     C93089  -0.713   6.880   2.479 -0.3582  0.2235 -0.4101
  706MOL0     O93090  -0.827   6.835   2.420  0.3483 -0.5942  1.1167
  706MOL0     C93091  -0.947   6.910   2.426 -0.2275  0.1724  0.1035
  706MOL0     C93092  -1.070   6.836   2.395 -0.3647 -0.3887  0.2460
  706MOL0     C93093  -1.191   6.899   2.393  0.1608  0.1958 -0.2932
  706MOL0     C93094  -1.202   7.032   2.431  0.2235 -0.5316  0.5575
  706MOL0     O93095  -1.317   7.105   2.452  0.0517  0.5017 -0.4936
  706MOL0     C93096  -1.430   7.044   2.399  0.1479  0.5127  0.0177
  706MOL0     C93097  -1.543   7.123   2.449 -0.6126 -1.0025 -0.0636
  706MOL0     C93098  -1.675   7.047   2.444 -0.3066  0.3730  0.1196
  706MOL0     C93099  -1.804   7.124   2.464  0.5364 -0.7972  0.3919
  706MOL0     C93100  -1.918   7.040   2.397  0.1071  0.1037 -0.2884
  706MOL0     C93101  -2.050   7.113   2.408  0.7029 -0.0030  0.3469
  706MOL0     C93102  -2.162   7.035   2.359  0.4268  0.3002 -0.5120
  706MOL0     C93103  -2.284   7.107   2.317  0.4535 -0.2209 -0.3299
  706MOL0    Cl93104  -2.336   7.247   2.440 -0.2999  0.7207  0.3252
  706MOL0     C93105  -1.089   7.103   2.469 -0.7855 -0.6115  0.4595
  706MOL0     C93106  -0.964   7.046   2.455  0.1452  0.3364  0.0163
  706MOL0     O93107  -0.702   6.973   2.561  0.3864  0.1480 -0.4443
  706MOL0     C93108  -0.595   6.705   2.353 -0.3774 -0.7933  0.3655
  706MOL0     C93109  -0.479   6.624   2.329  0.3454  0.2699  0.1489
  706MOL0     N93110   0.367   6.823   2.356 -0.1778 -0.6589  0.2468
  706MOL0     N93111   0.447   6.867   2.444 -0.1179  0.2703  0.5677
  706MOL0     C93112   1.645   6.885   2.810 -0.2820 -0.4221  0.0182
  706MOL0     C93113   1.778   6.858   2.855  0.6201 -0.0795  1.0434
  706MOL0     C93114   2.174   6.689   2.934  0.0722 -0.7514  0.1549
  706MOL0     C93115   2.278   6.665   2.832 -1.0582 -0.1631 -0.0374
  706MOL0     C93116   2.414   6.659   2.864  0.1477  1.0365  0.5963
  706MOL0     C93117   2.454   6.669   2.994  0.5827  1.1134 -0.2189
  706MOL0     O93118   2.576   6.632   3.042  0.0598 -0.1897  0.4582
  706MOL0     C93119   2.679   6.581   2.950  0.0822  0.4505 -0.1503
  706MOL0     C93120   2.816   6.554   3.011  0.3258  0.7307  0.1657
  706MOL0     C93121   2.811   6.432   3.103 -0.3075 -0.1606 -0.2299
  706MOL0     C93122   2.942   6.413   3.185  0.0535 -0.9083 -0.7664
  706MOL0     C93123   2.930   6.298   3.276  0.7542  0.2796 -0.1760
  706MOL0     C93124   2.910   6.200   3.341 -0.4959 -0.0165  0.0894
  706MOL0     C93125   2.355   6.702   3.095 -0.4971  0.9768  0.5959
  706MOL0     C93126   2.216   6.719   3.066 -0.2432  0.0659  0.3115
  706MOL0     H93127   1.714   6.633   3.100  2.3198  0.0575  0.1212
  706MOL0     H93128   1.502   6.645   3.021 -0.7847 -0.7431 -1.0115
  706MOL0     H93129   1.378   6.951   2.699 -0.5982  0.6607  0.2584
  706MOL0     H93130   1.393   7.029   2.854  0.1533  0.2069 -1.2227
  706MOL0     H93131   1.163   7.050   2.788  1.0657 -0.4963  0.9348
  706MOL0     H93132   1.194   6.945   2.937  1.3502 -1.6181 -0.1592
  706MOL0     H93133   1.143   6.750   2.806  1.4296  1.2664  0.8066
  706MOL0     H93134   1.122   6.832   2.651 -0.5985  2.8465 -0.1045
  706MOL0     H93135   0.947   6.850   2.906  2.6160 -0.0315  1.6839
  706MOL0     H93136   0.943   6.981   2.782  1.6065 -0.0883  1.2936
  706MOL0     H93137   0.909   6.685   2.708  0.2042  0.0277  1.0686
  706MOL0     H93138   0.876   6.832   2.610 -4.0206 -0.2846 -0.7713
  706MOL0     H93139   0.717   6.922   2.767 -0.8451  0.8064 -0.2445
  706MOL0     H93140   0.722   6.765   2.857  3.5439 -0.5605 -0.0174
  706MOL0     H93141   0.660   6.771   2.558  0.2485  0.1780 -0.5277
  706MOL0     H93142   0.618   6.643   2.667 -1.3517 -0.3334 -2.4357
  706MOL0     H93143   0.491   6.911   2.720  1.9731 -2.1447  4.6288
  706MOL0     H93144   0.428   6.759   2.767  2.0568 -1.4688  2.5953
  706MOL0     H93145   0.298   6.625   2.604  1.9299 -0.8646 -0.9405
  706MOL0     H93146   0.213   6.533   2.360 -0.4292  0.2275 -0.4666
  706MOL0     H93147   0.218   6.646   2.232 -0.3239 -1.2311 -0.2292
  706MOL0     H93148   0.018   6.780   2.363 -0.7186 -0.5170  3.7494
  706MOL0     H93149  -0.002   6.627   2.454 -0.2113  0.3530  0.7235
  706MOL0     H93150   0.003   6.640   2.151  0.7351  1.0266  1.3654
  706MOL0     H93151   0.005   6.497   2.261  4.6785  2.1230  2.9289
  706MOL0     H93152  -0.231   6.565   2.165  0.0581 -0.8323  0.6652
  706MOL0     H93153  -0.202   6.723   2.230  0.5164  0.2896  0.7220
  706MOL0     H93154  -0.261   6.775   2.547 -0.2015  0.8704  1.0291
  706MOL0     H93155  -0.454   6.929   2.568 -0.6704 -0.2625 -0.5468
  706MOL0     H93156  -1.055   6.733   2.364  1.4204  0.1485 -0.8654
  706MOL0     H93157  -1.277   6.837   2.372 -0.4190  0.5798  0.8307
  706MOL0     H93158  -1.443   6.950   2.453  1.6586  0.2644 -0.0008
  706MOL0     H93159  -1.433   7.036   2.290  1.9159 -1.0738  0.0177
  706MOL0     H93160  -1.544   7.214   2.388  1.6008 -0.8470  0.0442
  706MOL0     H93161  -1.533   7.165   2.550  0.4967 -1.1681 -0.0872
  706MOL0     H93162  -1.663   6.966   2.516  0.3083 -0.1471 -0.5530
  706MOL0     H93163  -1.694   6.998   2.348 -0.2001 -0.9539  0.7586
  706MOL0     H93164  -1.823   7.148   2.569  1.1042  2.3294 -0.1039
  706MOL0     H93165  -1.797   7.225   2.421 -0.0652 -1.3798 -1.1352
  706MOL0     H93166  -1.913   6.942   2.445  0.8619  0.4360  0.3436
  706MOL0     H93167  -1.895   7.031   2.290 -1.3189  3.1098 -0.9589
  706MOL0     H93168  -2.051   7.209   2.355 -4.0902  0.0446  0.0541
  706MOL0     H93169  -2.063   7.141   2.513 -2.3613  1.4195 -0.2915
  706MOL0     H93170  -2.125   6.969   2.281  1.2799 -2.4030  2.0022
  706MOL0     H93171  -2.190   6.971   2.443 -1.5714  0.0835 -1.2786
  706MOL0     H93172  -2.364   7.034   2.300 -0.8301  1.2155 -0.7175
  706MOL0     H93173  -2.262   7.150   2.218  0.4377 -1.2106 -0.7718
  706MOL0     H93174  -1.096   7.209   2.491  1.5321 -0.2576 -0.2232
  706MOL0     H93175  -0.876   7.107   2.473 -1.0298  1.0388  4.8175
  706MOL0     H93176  -0.689   6.684   2.303 -0.7920  4.4947 -1.7653
  706MOL0     H93177  -0.472   6.527   2.282  1.3566  0.6360 -0.5022
  706MOL0     H93178   1.640   6.954   2.726 -1.3583 -0.9630 -0.3833
  706MOL0     H93179   1.863   6.916   2.819 -0.1883  1.6487  1.7799
  706MOL0     H93180   2.265   6.672   2.724  0.5418  2.6098 -0.1480
  706MOL0     H93181   2.479   6.627   2.783 -1.0426 -0.4187  0.1686
  706MOL0     H93182   2.702   6.653   2.871 -0.4813  3.0568  1.9456
  706MOL0     H93183   2.658   6.482   2.906 -0.6107  0.4344  0.2148
  706MOL0     H93184   2.881   6.514   2.932 -1.4410 -1.9261 -0.0666
  706MOL0     H93185   2.855   6.648   3.054  1.9845  0.5437 -0.8180
  706MOL0     H93186   2.786   6.349   3.036  1.0183  0.1010 -1.1106
  706MOL0     H93187   2.728   6.456   3.169 -3.0327 -0.5090 -3.2890
  706MOL0     H93188   3.019   6.391   3.110 -1.2801 -0.6779 -2.2609
  706MOL0     H93189   2.955   6.505   3.242 -3.0681 -0.6621 -0.2848
  706MOL0     H93190   2.887   6.111   3.396  1.4562 -0.3431  0.4149
  706MOL0     H93191   2.377   6.726   3.198 -1.1715  0.8649  0.7709
  706MOL0     H93192   2.136   6.742   3.136 -0.0003 -2.0762  1.4016
  707MOL0     O93193   2.360   7.025   9.728  0.2477 -0.4279 -0.1528
  707MOL0     C93194   2.351   6.995   9.844  0.1240 -0.1564  0.0438
  707MOL0     O93195   2.237   6.968   9.913 -0.4909  0.2314 -0.0007
  707MOL0     C93196   2.123   6.978   9.841  0.3784 -0.2636 -0.5414
  707MOL0     C93197   2.045   7.098   9.856 -0.8335  0.0482 -0.0589
  707MOL0     C93198   1.925   7.108   9.780  0.6302 -0.4543  0.0314
  707MOL0     C93199   1.885   7.006   9.696 -0.0111 -0.1195  0.7487
  707MOL0     O93200   1.766   7.033   9.622 -0.0922  0.3684 -0.2947
  707MOL0     C93201   1.740   6.944   9.516 -0.4074 -0.7532 -0.0885
  707MOL0     C93202   1.678   6.809   9.560  0.0478  0.5633  0.6083
  707MOL0     C93203   1.551   6.823   9.647 -0.3250  0.7604 -0.0007
  707MOL0     C93204   1.500   6.683   9.697 -0.2799  0.4440  0.5857
  707MOL0     C93205   1.452   6.603   9.569 -0.2115  0.1646 -0.0072
  707MOL0     C93206   1.410   6.457   9.603  0.5216  0.5331  0.5975
  707MOL0     C93207   1.362   6.381   9.485  0.2361 -0.2863  0.0156
  707MOL0     C93208   1.375   6.226   9.508  0.3089  0.2166 -0.3710
  707MOL0     N93209   1.261   6.175   9.582  0.1973 -0.1489 -0.2341
  707MOL0     C93210   1.269   6.127   9.711 -0.1083 -0.1629 -1.1468
  707MOL0     C93211   1.143   6.099   9.746 -0.4464 -0.1132 -0.5565
  707MOL0     C93212   1.102   6.028   9.874  0.2605  0.1868 -0.0297
  707MOL0     C93213   0.954   6.048   9.899 -0.5557  0.0202 -0.7420
  707MOL0     C93214   0.890   5.947   9.987  0.2925  0.9858 -0.3551
  707MOL0     C93215   0.858   5.998  10.123  0.5299 -0.6380  0.0490
  707MOL0     O93216   0.763   6.109  10.118  0.1386  0.5717 -0.3452
  707MOL0     C93217   0.638   6.090  10.154  0.8462  0.0410 -0.2551
  707MOL0     C93218   0.558   6.198  10.147  0.3959  0.1256  0.5251
  707MOL0     C93219   0.425   6.196  10.196 -0.0714 -0.4645  1.4229
  707MOL0     C93220   0.365   6.075  10.232 -0.0101 -0.1809  0.3327
  707MOL0     C93221   0.219   6.071  10.272 -0.1326 -0.1125 -0.5477
  707MOL0     O93222   0.152   6.186  10.280  0.2298 -0.2600 -0.1275
  707MOL0     C93223   0.015   6.178  10.287  0.5518  0.2715  0.7359
  707MOL0     C93224  -0.047   6.246  10.390 -0.4298  0.0030  0.5094
  707MOL0     C93225  -0.184   6.252  10.405  0.1552  0.9029  0.1436
  707MOL0     C93226  -0.262   6.184  10.311  0.3347  1.4254  0.2191
  707MOL0     O93227  -0.399   6.208  10.335  0.3867  0.0185 -0.2518
  707MOL0     C93228  -0.490   6.122  10.274 -0.7348 -0.0166 -0.1793
  707MOL0     C93229  -0.626   6.164  10.337 -0.8464  0.1068  1.2331
  707MOL0     C93230  -0.725   6.056  10.308  0.0356 -0.3909 -0.5774
  707MOL0     C93231  -0.863   6.099  10.372 -0.9225 -0.7717  0.0169
  707MOL0     C93232  -0.984   6.036  10.300  0.3851 -0.0736 -0.8550
  707MOL0     C93233  -1.109   6.063  10.381  0.3377 -0.1600 -0.9644
  707MOL0     C93234  -1.234   5.994  10.325 -0.5856  1.2818 -0.0733
  707MOL0     C93235  -1.237   5.837  10.350  0.6697  0.3876 -0.0776
  707MOL0    Cl93236  -1.385   5.788  10.263 -0.3533 -0.4550  0.1567
  707MOL0     C93237  -0.210   6.118  10.195  0.1893  0.6024 -0.3244
  707MOL0     C93238  -0.073   6.120  10.187 -0.7360  0.4336  0.0617
  707MOL0     O93239   0.172   5.966  10.307 -0.1668  0.7741 -0.0753
  707MOL0     C93240   0.444   5.956  10.220 -0.7719 -0.5249  0.5945
  707MOL0     C93241   0.584   5.965  10.192  0.3784  0.3805  0.0157
  707MOL0     N93242   1.056   6.127   9.635 -0.4856 -0.3936 -0.4356
  707MOL0     N93243   1.131   6.173   9.541 -0.1640  0.7468  0.4720
  707MOL0     C93244   1.973   6.896   9.685 -0.1878 -0.2903 -0.3638
  707MOL0     C93245   2.084   6.879   9.756  0.3272 -0.1899 -0.2578
  707MOL0     C93246   2.475   6.994   9.925  0.2237 -0.1733  0.3784
  707MOL0     C93247   2.580   6.905   9.888  0.5601 -0.2210 -0.0179
  707MOL0     C93248   2.695   6.902   9.965  0.6126  0.8904  0.2137
  707MOL0     C93249   2.704   6.989  10.077  0.0302  0.6655 -0.7612
  707MOL0     O93250   2.810   6.979  10.173  0.9457 -0.3994  0.0196
  707MOL0     C93251   2.855   6.847  10.204 -0.4492 -0.2441  0.6035
  707MOL0     C93252   2.850   6.830  10.354 -0.1502  0.9001 -0.0057
  707MOL0     C93253   2.711   6.800  10.409  0.0476 -0.8074 -0.5701
  707MOL0     C93254   2.713   6.819  10.560  0.6744  0.1521 -0.0091
  707MOL0     C93255   2.579   6.859  10.607 -0.4335  0.0233 -0.0123
  707MOL0     C93256   2.464   6.884  10.638  0.1822 -0.5484 -0.2466
  707MOL0     C93257   2.609   7.085  10.105  0.3551 -0.4281  0.0906
  707MOL0     C93258   2.496   7.088  10.032  0.6230  0.0428 -0.4823
  707MOL0     H93259   2.071   7.178   9.925 -1.2245  0.1661 -0.0466
  707MOL0     H93260   1.865   7.199   9.784 -3.0098 -2.6658  0.2915
  707MOL0     H93261   1.833   6.927   9.460  0.3297 -0.0252  0.8783
  707MOL0     H93262   1.676   7.000   9.447 -1.3964  0.4935  1.7464
  707MOL0     H93263   1.749   6.748   9.616 -0.8056  0.2566  1.3779
  707MOL0     H93264   1.661   6.756   9.466  0.2459 -1.0870  1.4625
  707MOL0     H93265   1.471   6.883   9.603 -1.5104 -1.6677 -1.3944
  707MOL0     H93266   1.583   6.885   9.731  0.0535  0.4809  0.0639
  707MOL0     H93267   1.576   6.630   9.756 -0.6971 -0.4262  0.3527
  707MOL0     H93268   1.410   6.683   9.759  0.4016 -3.5776  1.8506
  707MOL0     H93269   1.528   6.595   9.491  1.3087 -2.2592  1.5669
  707MOL0     H93270   1.371   6.657   9.521 -1.3526  0.8149  2.4960
  707MOL0     H93271   1.331   6.461   9.679 -0.0651  0.5821 -0.0077
  707MOL0     H93272   1.500   6.401   9.631  0.2245 -0.6952 -0.7878
  707MOL0     H93273   1.261   6.414   9.460  0.8230  1.2381 -0.4436
  707MOL0     H93274   1.437   6.398   9.408  1.7456 -4.7254  0.2229
  707MOL0     H93275   1.460   6.194   9.570 -1.7954 -1.9119  1.6602
  707MOL0     H93276   1.374   6.178   9.410  2.7724 -1.0667  0.1520
  707MOL0     H93277   1.355   6.129   9.778 -0.2227  2.3170 -1.0091
  707MOL0     H93278   1.163   6.045   9.964  0.4459 -2.1262  0.3592
  707MOL0     H93279   1.115   5.921   9.857  0.7176  0.1644  0.4191
  707MOL0     H93280   0.911   6.042   9.799  3.2230 -1.5511 -2.4542
  707MOL0     H93281   0.942   6.153   9.929 -3.3702 -0.1574 -0.9546
  707MOL0     H93282   0.803   5.900   9.940  0.9351 -2.6712  1.7709
  707MOL0     H93283   0.958   5.862   9.992 -0.0271  0.7275 -0.3452
  707MOL0     H93284   0.947   6.041  10.170 -1.3669  4.9242 -0.6860
  707MOL0     H93285   0.819   5.917  10.185 -1.1380 -0.9312 -1.2932
  707MOL0     H93286   0.584   6.295  10.107 -1.5672  0.6219  0.3378
  707MOL0     H93287   0.359   6.281  10.191  0.2732 -0.2366 -2.7459
  707MOL0     H93288   0.010   6.291  10.471  0.0839  0.5393 -0.1370
  707MOL0     H93289  -0.232   6.306  10.486 -1.8355  1.0909 -1.0978
  707MOL0     H93290  -0.469   6.016  10.293 -0.5661 -0.5954 -3.1541
  707MOL0     H93291  -0.478   6.137  10.167 -0.6431 -0.7102 -0.2716
  707MOL0     H93292  -0.664   6.255  10.290  0.6393  0.1370  0.0208
  707MOL0     H93293  -0.617   6.174  10.446  1.8531 -0.1303  1.0949
  707MOL0     H93294  -0.703   5.960  10.355 -1.9663 -0.3749  0.4846
  707MOL0     H93295  -0.738   6.031  10.202  0.5207 -1.2137 -0.4489
  707MOL0     H93296  -0.869   6.062  10.475 -0.4387 -0.4169  0.1755
  707MOL0     H93297  -0.889   6.204  10.358 -3.6822 -1.3342  0.3283
  707MOL0     H93298  -0.964   5.929  10.291  0.0804 -0.2834  0.6435
  707MOL0     H93299  -0.991   6.077  10.198 -1.4997  0.4118 -0.5756
  707MOL0     H93300  -1.121   6.172  10.381 -0.0938 -0.1355  1.5671
  707MOL0     H93301  -1.087   6.037  10.486  1.3091  0.5084 -0.9907
  707MOL0     H93302  -1.321   6.039  10.375 -2.0366 -1.7357  0.3393
  707MOL0     H93303  -1.238   6.012  10.217 -3.4430  0.3798 -0.2037
  707MOL0     H93304  -1.244   5.807  10.455  1.8649 -1.4751 -0.4905
  707MOL0     H93305  -1.153   5.777  10.314 -0.2817 -1.8516  1.2372
  707MOL0     H93306  -0.268   6.078  10.112  1.8512  1.1167 -1.8129
  707MOL0     H93307  -0.022   6.070  10.105 -2.8116 -1.1740 -0.3468
  707MOL0     H93308   0.413   5.853  10.232  2.0631 -1.8819 -2.1964
  707MOL0     H93309   0.630   5.868  10.206  2.8993  1.5553  0.3939
  707MOL0     H93310   1.941   6.818   9.617 -1.5957  1.3605 -1.7174
  707MOL0     H93311   2.144   6.788   9.753  0.6288  0.0301 -1.7702
  707MOL0     H93312   2.553   6.835   9.810  2.1032 -0.0329 -0.7702
  707MOL0     H93313   2.766   6.822   9.944 -1.2228 -0.3198 -1.7347
  707MOL0     H93314   2.953   6.830  10.159 -0.4666 -2.4233  1.2514
  707MOL0     H93315   2.784   6.775  10.161 -2.1391  1.4970  0.3591
  707MOL0     H93316   2.917   6.746  10.378 -1.1077  0.2666  0.5066
  707MOL0     H93317   2.888   6.925  10.393  3.7269  0.7887 -2.9343
  707MOL0     H93318   2.673   6.704  10.372 -2.6709  0.0822 -0.2970
  707MOL0     H93319   2.638   6.867  10.364  0.3794 -1.3230 -1.9645
  707MOL0     H93320   2.749   6.730  10.612 -0.3377 -0.9256 -1.1080
  707MOL0     H93321   2.787   6.893  10.592  2.0851 -2.3923  3.0975
  707MOL0     H93322   2.363   6.913  10.660  0.8165 -0.1477  2.5293
  707MOL0     H93323   2.627   7.163  10.178 -0.9582  0.4207 -0.4576
  707MOL0     H93324   2.421   7.162  10.057  0.7765 -0.7667  2.7894
  708MOL0     O93325   7.819   9.701   8.879  0.0668 -0.2481 -0.3620
  708MOL0     C93326   7.831   9.595   8.939  0.2678  0.3689 -0.3512
  708MOL0     O93327   7.741   9.543   9.024  0.9165  0.0290  0.6913
  708MOL0     C93328   7.620   9.598   9.067 -0.4019 -0.1174  1.0860
  708MOL0     C93329   7.559   9.518   9.164  0.6529  0.0984 -1.0902
  708MOL0     C93330   7.431   9.556   9.217 -0.4293 -0.6443 -0.2790
  708MOL0     C93331   7.365   9.673   9.169 -0.5737 -0.2563  0.3466
  708MOL0     O93332   7.246   9.720   9.220  0.6207 -0.1962 -0.2107
  708MOL0     C93333   7.154   9.799   9.140 -0.1124  0.3192 -0.1186
  708MOL0     C93334   7.106   9.738   9.011  0.1621  0.0964  0.3947
  708MOL0     C93335   6.983   9.814   8.954 -0.0627 -0.2068 -0.0845
  708MOL0     C93336   6.994   9.974   8.939 -0.3410  0.0454  0.0745
  708MOL0     C93337   6.862  10.047   8.909 -0.0795 -0.3093  0.0568
  708MOL0     C93338   6.776   9.974   8.801 -0.2329 -0.1157 -0.3469
  708MOL0     C93339   6.644  10.054   8.777 -0.4606  0.0642 -0.2429
  708MOL0     C93340   6.534   9.963   8.722  0.4242 -0.2726  0.0692
  708MOL0     N93341   6.477   9.865   8.816 -0.4748 -0.3792 -0.6931
  708MOL0     C93342   6.378   9.910   8.906 -0.1551 -0.2990  0.4395
  708MOL0     C93343   6.338   9.787   8.959  0.7041  0.5225 -0.2139
  708MOL0     C93344   6.213   9.771   9.051 -1.1873 -0.5757  0.4738
  708MOL0     C93345   6.083   9.800   8.973  0.2802  0.0427  0.2254
  708MOL0     C93346   5.952   9.803   9.051  0.2310 -1.1281 -0.4048
  708MOL0     C93347   5.888   9.662   9.057 -0.1051 -0.6243 -0.6210
  708MOL0     O93348   5.767   9.684   9.131 -0.4699  0.1582 -0.1526
  708MOL0     C93349   5.654   9.622   9.083 -0.5705 -0.3904  0.4198
  708MOL0     C93350   5.631   9.488   9.097 -0.3746  0.3419  0.6649
  708MOL0     C93351   5.500   9.436   9.064 -0.4413 -1.1671 -1.0276
  708MOL0     C93352   5.397   9.525   9.027 -0.3855 -0.2451  0.9325
  708MOL0     C93353   5.260   9.470   8.984  0.3264 -0.2617 -0.5582
  708MOL0     O93354   5.167   9.563   8.935  0.1682  0.1371 -0.0710
  708MOL0     C93355   5.042   9.521   8.868 -0.6507 -0.8227  0.5058
  708MOL0     C93356   5.032   9.402   8.792  0.5506  0.4343 -0.3693
  708MOL0     C93357   4.920   9.374   8.720  0.9109  0.0755  0.4861
  708MOL0     C93358   4.815   9.468   8.700 -0.6185  0.2237 -0.2704
  708MOL0     O93359   4.709   9.442   8.624 -0.4730  0.3216 -0.1744
  708MOL0     C93360   4.702   9.314   8.543 -0.5321 -0.4170 -0.0538
  708MOL0     C93361   4.598   9.311   8.435 -0.7094 -0.3270 -0.0378
  708MOL0     C93362   4.464   9.357   8.499  0.4688 -0.4787 -0.0994
  708MOL0     C93363   4.371   9.419   8.388 -0.3562 -0.2175  0.7547
  708MOL0     C93364   4.278   9.320   8.325  0.0218 -0.1664 -0.8446
  708MOL0     C93365   4.165   9.380   8.227 -0.1755 -0.0799 -1.5633
  708MOL0     C93366   4.053   9.438   8.308  0.2155  0.5499  0.4322
  708MOL0     C93367   3.917   9.480   8.232 -0.0076  0.2601  0.0874
  708MOL0    Cl93368   3.837   9.335   8.150  0.1090  0.2283 -0.0171
  708MOL0     C93369   4.829   9.586   8.772 -0.0613  0.5797  0.3821
  708MOL0     C93370   4.939   9.610   8.857  0.9403 -0.2320 -0.0832
  708MOL0     O93371   5.239   9.352   8.996  0.2114 -0.4003 -1.1283
  708MOL0     C93372   5.420   9.664   9.019 -0.2977 -0.1894  0.3015
  708MOL0     C93373   5.549   9.705   9.048 -0.3556 -0.1312 -0.6958
  708MOL0     N93374   6.416   9.678   8.904 -0.0038 -0.4639 -0.6635
  708MOL0     N93375   6.503   9.731   8.825 -0.1347 -0.1484 -0.5501
  708MOL0     C93376   7.433   9.754   9.067 -0.9149  0.1921 -0.0478
  708MOL0     C93377   7.562   9.717   9.032  0.3226 -0.4182 -0.1694
  708MOL0     C93378   7.962   9.531   8.926  0.6249  0.4083 -0.0400
  708MOL0     C93379   8.075   9.585   8.861 -0.6945  0.0948 -0.2136
  708MOL0     C93380   8.201   9.519   8.854  0.4928  0.0891  0.9306
  708MOL0     C93381   8.216   9.395   8.911 -0.7636  0.3332  0.3606
  708MOL0     O93382   8.343   9.345   8.897  0.2375 -0.2820 -0.3000
  708MOL0     C93383   8.368   9.216   8.948  0.1691 -0.4058 -0.0711
  708MOL0     C93384   8.513   9.177   8.909 -1.2549  0.2520  0.7888
  708MOL0     C93385   8.611   9.286   8.948 -0.4540 -0.4469  0.5504
  708MOL0     C93386   8.657   9.374   8.829 -0.4779  0.4421 -0.1236
  708MOL0     C93387   8.735   9.489   8.872  0.7181  0.2653 -0.0667
  708MOL0     C93388   8.804   9.577   8.925 -0.3495  1.0041 -0.2680
  708MOL0     C93389   8.097   9.339   8.976 -0.3515 -0.1191 -0.5155
  708MOL0     C93390   7.979   9.409   8.991  0.3761  0.7078  0.2380
  708MOL0     H93391   7.617   9.433   9.199  1.6961  0.5248 -1.7304
  708MOL0     H93392   7.377   9.499   9.292 -3.0514 -2.5336 -3.3454
  708MOL0     H93393   7.206   9.893   9.120  2.1216 -0.4590  1.6181
  708MOL0     H93394   7.067   9.818   9.205  2.1005 -0.1800  3.2342
  708MOL0     H93395   7.069   9.636   9.024  1.2393 -0.9222 -3.1496
  708MOL0     H93396   7.192   9.741   8.942 -0.1263 -0.3403  0.0072
  708MOL0     H93397   6.901   9.783   9.020 -1.5958  3.1700 -0.2020
  708MOL0     H93398   6.957   9.780   8.853 -0.1760  2.1206 -0.9013
  708MOL0     H93399   7.039  10.021   9.027 -0.4984 -0.3708  0.3843
  708MOL0     H93400   7.067   9.989   8.860  1.3923  0.3150  1.6598
  708MOL0     H93401   6.882  10.144   8.863  2.9454 -0.4675  0.8412
  708MOL0     H93402   6.798  10.073   8.995 -0.5902  3.7170 -1.3030
  708MOL0     H93403   6.754   9.877   8.846  1.8436  0.1792  1.4645
  708MOL0     H93404   6.817   9.955   8.702  1.5712 -1.3918  0.5921
  708MOL0     H93405   6.610  10.093   8.874  2.9608 -2.5875  2.2983
  708MOL0     H93406   6.669  10.129   8.702 -0.3472  1.1276  0.8327
  708MOL0     H93407   6.578   9.906   8.640  2.1610 -2.4237  2.3443
  708MOL0     H93408   6.448  10.021   8.688  0.1212 -0.7288  0.0596
  708MOL0     H93409   6.341  10.011   8.919  0.3066  0.1770 -1.5683
  708MOL0     H93410   6.223   9.842   9.133 -0.3321 -1.6686  1.3574
  708MOL0     H93411   6.208   9.672   9.099 -3.5645 -1.8677 -2.1557
  708MOL0     H93412   6.061   9.727   8.895  1.3629  0.3757 -0.4185
  708MOL0     H93413   6.090   9.902   8.935 -0.3080  0.5479  1.4029
  708MOL0     H93414   5.956   9.866   9.140 -2.6831 -2.1885  0.6043
  708MOL0     H93415   5.882   9.856   8.987  0.8618  0.0687 -0.1333
  708MOL0     H93416   5.951   9.602   9.123  1.1228 -0.3189 -1.4983
  708MOL0     H93417   5.871   9.617   8.959  0.8385 -0.6953 -0.7575
  708MOL0     H93418   5.708   9.428   9.144 -0.5589 -0.0993  0.4170
  708MOL0     H93419   5.495   9.328   9.077  1.2908 -1.2792 -1.1432
  708MOL0     H93420   5.108   9.325   8.804 -1.4511 -1.3831  1.9665
  708MOL0     H93421   4.931   9.274   8.680 -1.8532  0.8676 -2.7158
  708MOL0     H93422   4.681   9.231   8.610  1.4162 -0.4220  0.6285
  708MOL0     H93423   4.800   9.295   8.497 -1.1626 -0.3201 -1.4881
  708MOL0     H93424   4.586   9.205   8.411 -0.6976 -0.8387  2.0525
  708MOL0     H93425   4.630   9.381   8.356  0.7822  0.7762  1.4732
  708MOL0     H93426   4.484   9.430   8.578 -1.4019  0.4655 -0.4407
  708MOL0     H93427   4.426   9.265   8.544  2.2269 -1.7915 -1.1652
  708MOL0     H93428   4.312   9.501   8.429  1.6745  1.9079 -0.3342
  708MOL0     H93429   4.428   9.469   8.309 -1.0534  0.0104  0.3867
  708MOL0     H93430   4.225   9.267   8.404  0.1360  2.2900  0.9694
  708MOL0     H93431   4.333   9.253   8.258  0.2664 -1.8155  0.9244
  708MOL0     H93432   4.123   9.302   8.164 -1.8006 -0.6806  0.1599
  708MOL0     H93433   4.202   9.456   8.157 -0.7857  0.6390 -1.1265
  708MOL0     H93434   4.016   9.368   8.384 -0.3604 -0.8477 -1.0660
  708MOL0     H93435   4.093   9.525   8.361  2.0207  0.4848 -0.7571
  708MOL0     H93436   3.949   9.561   8.166  3.8424 -1.7334 -0.8303
  708MOL0     H93437   3.848   9.524   8.304 -3.2105 -1.4976 -1.6636
  708MOL0     H93438   4.750   9.658   8.752 -0.5556  0.1127  0.6196
  708MOL0     H93439   4.936   9.698   8.920  1.5687 -0.0842 -0.2527
  708MOL0     H93440   5.337   9.732   8.998 -1.2330 -1.3787  0.0430
  708MOL0     H93441   5.567   9.811   9.061  4.0298 -0.8966  0.9570
  708MOL0     H93442   7.391   9.846   9.027 -1.5202 -0.3996 -0.7925
  708MOL0     H93443   7.609   9.777   8.955 -1.2056  1.4091  0.2546
  708MOL0     H93444   8.061   9.681   8.812  0.8637 -1.3772 -3.8512
  708MOL0     H93445   8.288   9.567   8.811  0.4472  0.4808  1.2694
  708MOL0     H93446   8.292   9.156   8.898 -0.4550 -0.9414  1.4589
  708MOL0     H93447   8.356   9.211   9.057 -2.9836  0.5672 -0.2861
  708MOL0     H93448   8.531   9.078   8.953 -3.3717 -1.1894 -1.2718
  708MOL0     H93449   8.528   9.149   8.804 -2.0429 -0.9233  0.9672
  708MOL0     H93450   8.699   9.232   8.984  0.5826  1.6030  1.2511
  708MOL0     H93451   8.579   9.352   9.029 -0.0653 -0.4726  0.7238
  708MOL0     H93452   8.720   9.318   8.759  0.5567 -0.6914  1.6625
  708MOL0     H93453   8.565   9.411   8.782 -0.4479 -1.5333 -1.9189
  708MOL0     H93454   8.879   9.645   8.960 -0.0915 -0.7237  2.8663
  708MOL0     H93455   8.116   9.243   9.023  2.3980  2.1096  3.5159
  708MOL0     H93456   7.905   9.361   9.053  0.1210  0.1932 -0.4471
  709MOL0     O93457   7.059   9.104   4.722  0.8280  0.7864  0.5970
  709MOL0     C93458   7.137   9.013   4.707  0.6882 -0.4409 -0.5278
  709MOL0     O93459   7.149   8.908   4.795 -0.3672  0.0034  0.5561
  709MOL0     C93460   7.064   8.891   4.901 -0.2661  0.5976  0.1281
  709MOL0     C93461   7.044   8.985   5.004  0.4979 -0.7079  0.6305
  709MOL0     C93462   6.954   8.952   5.114 -0.8628 -1.3627 -0.2834
  709MOL0     C93463   6.892   8.827   5.112  0.3669  0.1783 -1.0358
  709MOL0     O93464   6.798   8.790   5.205 -0.3301  0.3775 -0.7516
  709MOL0     C93465   6.795   8.854   5.337 -0.6835 -0.3849 -0.6794
  709MOL0     C93466   6.671   8.792   5.416 -0.1225 -0.8252  0.1165
  709MOL0     C93467   6.671   8.801   5.567 -0.0186 -0.5959 -0.2176
  709MOL0     C93468   6.587   8.919   5.615 -0.1172  1.3125  0.5780
  709MOL0     C93469   6.574   8.907   5.765  1.0460  0.6854  0.3503
  709MOL0     C93470   6.459   8.993   5.822 -0.3439 -0.0171 -0.1796
  709MOL0     C93471   6.423   8.954   5.961 -0.7666  0.0529 -0.2366
  709MOL0     C93472   6.322   9.063   6.010  0.1928 -0.1185  0.0363
  709MOL0     N93473   6.252   9.033   6.141  0.6888  0.4050  0.2400
  709MOL0     C93474   6.311   9.022   6.265  0.3750  0.6140 -0.3465
  709MOL0     C93475   6.214   9.001   6.351 -0.2437  0.4915 -0.5208
  709MOL0     C93476   6.236   8.961   6.497  0.1930  0.3930 -0.2077
  709MOL0     C93477   6.132   8.856   6.533 -0.2928  0.7988  0.2689
  709MOL0     C93478   6.129   8.818   6.686  0.3587  0.3694 -0.0658
  709MOL0     C93479   6.001   8.758   6.740  0.0642  0.0212  0.2086
  709MOL0     O93480   5.899   8.849   6.730 -0.0336 -0.0573  0.1705
  709MOL0     C93481   5.764   8.821   6.757 -0.2494  0.3389 -0.0936
  709MOL0     C93482   5.665   8.909   6.735 -0.0099 -0.4545 -0.5447
  709MOL0     C93483   5.526   8.876   6.748  0.4654  0.0543 -0.0756
  709MOL0     C93484   5.488   8.743   6.783 -0.1146  0.1554 -0.5287
  709MOL0     C93485   5.343   8.690   6.797 -0.1499  0.3383 -0.3013
  709MOL0     O93486   5.238   8.770   6.766 -0.2596 -0.7075 -0.3614
  709MOL0     C93487   5.106   8.728   6.767 -0.2080 -0.2110 -0.9719
  709MOL0     C93488   5.050   8.649   6.872  0.2335 -0.9385 -0.6723
  709MOL0     C93489   4.913   8.625   6.887 -0.2729  0.1964 -0.1221
  709MOL0     C93490   4.823   8.668   6.787 -0.0468  0.1208  0.7007
  709MOL0     O93491   4.691   8.637   6.790  0.1537  0.2585 -0.1200
  709MOL0     C93492   4.622   8.609   6.918  0.0560 -0.0524  0.9047
  709MOL0     C93493   4.475   8.588   6.898 -0.3699  0.0856  0.2269
  709MOL0     C93494   4.398   8.555   7.027  0.8071 -0.7259 -0.5762
  709MOL0     C93495   4.269   8.481   6.982  0.2451  0.5991  0.2689
  709MOL0     C93496   4.177   8.424   7.088  0.7188  0.4631 -0.5178
  709MOL0     C93497   4.255   8.325   7.180  0.0862  0.0972  0.2172
  709MOL0     C93498   4.169   8.259   7.279  0.7002 -0.6799 -0.1473
  709MOL0     C93499   4.232   8.140   7.366 -0.7756 -0.0896  0.0530
  709MOL0    Cl93500   4.229   7.989   7.264  0.0363  0.0464  0.0308
  709MOL0     C93501   4.873   8.750   6.678  0.4689 -0.2840 -0.3178
  709MOL0     C93502   5.011   8.777   6.667 -0.8996 -0.1184  0.2127
  709MOL0     O93503   5.333   8.576   6.832  0.4830 -0.3438 -0.0302
  709MOL0     C93504   5.593   8.653   6.818  0.5493 -0.0368  0.6968
  709MOL0     C93505   5.729   8.693   6.801 -0.1451  0.2405  0.3701
  709MOL0     N93506   6.092   9.018   6.282  0.1095 -0.7935 -0.5271
  709MOL0     N93507   6.119   9.019   6.155 -0.2678  0.8101  0.2554
  709MOL0     C93508   6.908   8.733   5.010 -0.8200  0.0163  0.3199
  709MOL0     C93509   6.997   8.767   4.903  0.5924  0.6117 -0.5089
  709MOL0     C93510   7.225   9.007   4.590  0.7966 -0.6074  0.4026
  709MOL0     C93511   7.341   8.931   4.590  0.0128  0.1727  0.2401
  709MOL0     C93512   7.437   8.941   4.480 -0.6074  0.0215 -0.2910
  709MOL0     C93513   7.412   9.027   4.377 -0.7327  0.0062  0.3620
  709MOL0     O93514   7.492   9.037   4.261  0.9702  0.1707  0.8683
  709MOL0     C93515   7.606   8.953   4.245  0.0950  0.1865 -0.0877
  709MOL0     C93516   7.679   9.001   4.122 -0.7589 -0.9350 -0.1630
  709MOL0     C93517   7.788   8.900   4.075  0.2477  0.7235 -0.6757
  709MOL0     C93518   7.857   8.963   3.954 -0.9464  0.3549  0.3803
  709MOL0     C93519   7.904   8.866   3.862  0.4154 -0.1212  0.3815
  709MOL0     C93520   7.961   8.786   3.796 -0.1069 -0.4355 -0.8167
  709MOL0     C93521   7.307   9.113   4.394  0.4596 -0.4208 -0.0210
  709MOL0     C93522   7.214   9.110   4.490 -0.1746 -0.4733  0.7742
  709MOL0     H93523   7.084   9.085   4.991 -2.5355  0.3202 -2.2105
  709MOL0     H93524   6.937   9.022   5.195  0.2740  1.3513 -2.2164
  709MOL0     H93525   6.790   8.963   5.333 -1.5565 -0.2420  1.9350
  709MOL0     H93526   6.888   8.825   5.386 -1.2116 -3.1243 -1.1670
  709MOL0     H93527   6.655   8.688   5.384 -2.5171 -0.4277 -0.1757
  709MOL0     H93528   6.588   8.847   5.373 -0.6610 -2.3937 -0.9551
  709MOL0     H93529   6.774   8.802   5.603  0.5102  2.2833 -1.5264
  709MOL0     H93530   6.622   8.708   5.598 -0.7812 -1.4336 -3.4976
  709MOL0     H93531   6.637   9.008   5.575 -1.4887 -0.4743 -6.3335
  709MOL0     H93532   6.485   8.923   5.577 -0.1776  1.2298  0.7285
  709MOL0     H93533   6.666   8.945   5.809  1.3281  0.9321 -0.4274
  709MOL0     H93534   6.556   8.805   5.800 -0.8147  1.0098  0.4531
  709MOL0     H93535   6.372   8.971   5.758 -1.8063  0.6692  1.4856
  709MOL0     H93536   6.490   9.098   5.817 -1.6556  0.3851 -0.4950
  709MOL0     H93537   6.370   8.859   5.962 -2.0377  0.7419  0.4566
  709MOL0     H93538   6.504   8.947   6.035 -0.8689  3.3693  0.3346
  709MOL0     H93539   6.241   9.063   5.937 -1.4742  0.4407  1.8082
  709MOL0     H93540   6.368   9.161   6.026  0.4561 -0.0925 -0.8469
  709MOL0     H93541   6.417   9.036   6.280  0.2867  0.1384  0.8206
  709MOL0     H93542   6.228   9.052   6.557  1.8336 -0.1436  0.8889
  709MOL0     H93543   6.333   8.918   6.523 -0.1158 -0.5263 -0.5361
  709MOL0     H93544   6.147   8.763   6.476  0.6797  1.0232  0.1403
  709MOL0     H93545   6.032   8.894   6.510 -0.7938 -0.2991  0.5631
  709MOL0     H93546   6.208   8.742   6.684  2.7663  2.7444 -0.9219
  709MOL0     H93547   6.153   8.904   6.748  0.2474 -0.0456  0.5657
  709MOL0     H93548   6.019   8.722   6.842  5.6649  0.4447 -0.3078
  709MOL0     H93549   5.987   8.671   6.675  0.7676  0.0857 -0.0405
  709MOL0     H93550   5.688   9.008   6.697 -3.5984  0.8588  0.2619
  709MOL0     H93551   5.446   8.944   6.720 -2.3357 -2.3592  1.4520
  709MOL0     H93552   5.118   8.620   6.952  1.1374  1.6545 -0.4226
  709MOL0     H93553   4.887   8.563   6.972  0.5588  2.1559  1.6546
  709MOL0     H93554   4.640   8.694   6.984 -0.5591  0.3208  0.6020
  709MOL0     H93555   4.666   8.521   6.966  0.3554  1.2577  3.1489
  709MOL0     H93556   4.478   8.505   6.825 -0.8209  1.4871 -1.4634
  709MOL0     H93557   4.444   8.677   6.843 -1.6169 -0.6733 -0.3575
  709MOL0     H93558   4.361   8.644   7.079 -1.0883 -0.6972 -1.8574
  709MOL0     H93559   4.461   8.504   7.100 -0.1684  0.8645  1.4732
  709MOL0     H93560   4.207   8.552   6.926 -1.4395  1.3338  2.8845
  709MOL0     H93561   4.296   8.389   6.930  1.4647 -0.3497  2.4883
  709MOL0     H93562   4.093   8.371   7.043  1.4828 -1.5922  0.3204
  709MOL0     H93563   4.130   8.504   7.144  0.6118  1.4268 -1.9369
  709MOL0     H93564   4.333   8.385   7.228  2.4355  0.9592 -4.1261
  709MOL0     H93565   4.292   8.245   7.116 -3.2030 -0.4187 -1.2682
  709MOL0     H93566   4.130   8.335   7.347 -3.2583  0.9190 -3.7337
  709MOL0     H93567   4.080   8.223   7.226 -0.2703 -0.1193  1.0542
  709MOL0     H93568   4.168   8.128   7.453  1.7198  0.8442  2.1580
  709MOL0     H93569   4.330   8.159   7.412 -1.4861  0.3086  1.4374
  709MOL0     H93570   4.809   8.790   6.600 -1.0947 -0.8297  0.6448
  709MOL0     H93571   5.045   8.833   6.581  0.7218 -0.8057  0.3603
  709MOL0     H93572   5.577   8.557   6.866 -1.0199  1.4585  3.4286
  709MOL0     H93573   5.810   8.627   6.829  0.8780  1.6828  0.9061
  709MOL0     H93574   6.849   8.643   5.020  1.0786 -1.0228  3.6431
  709MOL0     H93575   7.021   8.694   4.826 -1.6895 -3.7273  2.4690
  709MOL0     H93576   7.373   8.867   4.672  1.4587 -0.2205 -0.6025
  709MOL0     H93577   7.522   8.874   4.477 -0.6164 -0.0276  0.4336
  709MOL0     H93578   7.571   8.851   4.225  1.7178 -0.3851 -0.1740
  709MOL0     H93579   7.673   8.955   4.331  0.0569 -0.8764 -0.0255
  709MOL0     H93580   7.601   9.007   4.045  1.0753  1.3756 -1.9730
  709MOL0     H93581   7.720   9.099   4.145 -0.2151 -1.3835  0.8691
  709MOL0     H93582   7.753   8.802   4.042 -0.7657  0.3630  1.3227
  709MOL0     H93583   7.847   8.889   4.166 -2.7611  0.2116  1.3457
  709MOL0     H93584   7.798   9.038   3.901 -0.0170 -0.9987 -2.8168
  709MOL0     H93585   7.948   9.011   3.990 -0.5046  1.0707 -1.5943
  709MOL0     H93586   8.016   8.711   3.743  0.7631  0.0880 -0.6690
  709MOL0     H93587   7.301   9.199   4.328  2.8004 -0.6661 -0.6738
  709MOL0     H93588   7.133   9.179   4.512  0.8464 -0.0403  3.6236
  710MOL0     O93589   8.160   1.142   0.500 -0.3041 -0.2215 -0.3408
  710MOL0     C93590   8.190   1.184   0.388  0.5496  0.1453 -0.0511
  710MOL0     O93591   8.092   1.216   0.291 -0.0697  1.0452  0.1327
  710MOL0     C93592   7.961   1.170   0.303 -0.4148 -0.5567  0.2269
  710MOL0     C93593   7.871   1.240   0.219 -0.7521  0.1156  0.0182
  710MOL0     C93594   7.731   1.224   0.220  0.4815 -0.9870  0.1779
  710MOL0     C93595   7.676   1.144   0.320 -0.6569  0.3574  0.1335
  710MOL0     O93596   7.539   1.127   0.331  0.8736  0.5447  0.0752
  710MOL0     C93597   7.476   1.118   0.466  0.5450  0.1497 -0.0283
  710MOL0     C93598   7.330   1.178   0.457 -0.6818 -0.3580  0.3531
  710MOL0     C93599   7.237   1.065   0.409  0.2085 -0.1400  0.2257
  710MOL0     C93600   7.271   1.029   0.263  0.4975 -0.1154  0.3143
  710MOL0     C93601   7.145   0.974   0.204  1.0871  0.4161 -0.3006
  710MOL0     C93602   7.153   0.974   0.047 -0.9876 -0.8911 -0.5169
  710MOL0     C93603   7.022   0.951  -0.033  0.2149  0.5746 -0.0138
  710MOL0     C93604   6.951   0.816   0.017  1.2329 -0.3105  0.6974
  710MOL0     N93605   7.043   0.698  -0.002  0.2831  0.2643 -0.0123
  710MOL0     C93606   7.103   0.666  -0.129  0.1274 -0.5084 -0.3885
  710MOL0     C93607   7.166   0.547  -0.111  0.5703  0.0562 -0.4190
  710MOL0     C93608   7.231   0.463  -0.215 -0.3249  0.0727  0.3674
  710MOL0     C93609   7.388   0.511  -0.214  0.2576  0.0078 -0.1495
  710MOL0     C93610   7.458   0.447  -0.328  0.2754  0.9338  0.5949
  710MOL0     C93611   7.606   0.475  -0.319  1.2775 -0.7791  0.2026
  710MOL0     O93612   7.624   0.612  -0.367  0.4439  0.5806 -0.3434
  710MOL0     C93613   7.758   0.647  -0.381 -0.0975 -0.0388 -0.0300
  710MOL0     C93614   7.864   0.588  -0.302  0.7097 -0.3280  0.4830
  710MOL0     C93615   7.996   0.628  -0.320 -0.3571  0.7050 -0.7794
  710MOL0     C93616   8.025   0.724  -0.413 -0.5219 -0.2688  0.8390
  710MOL0     C93617   8.167   0.761  -0.454  0.0621  0.6313 -0.5521
  710MOL0     O93618   8.260   0.679  -0.400 -0.1247 -0.3728 -0.4675
  710MOL0     C93619   8.391   0.703  -0.439  0.7549  0.6004 -0.6451
  710MOL0     C93620   8.475   0.719  -0.333 -0.3044 -0.7383  0.1666
  710MOL0     C93621   8.613   0.732  -0.358 -0.0018  0.4095  0.1695
  710MOL0     C93622   8.661   0.727  -0.494  0.2177  0.0296  0.0508
  710MOL0     O93623   8.785   0.755  -0.529  0.4961  1.1701  0.4790
  710MOL0     C93624   8.885   0.757  -0.430 -0.8169 -0.2099  0.0604
  710MOL0     C93625   8.910   0.616  -0.377  0.6147 -0.5863  0.2307
  710MOL0     C93626   9.017   0.611  -0.268 -0.0362  0.8923  0.2752
  710MOL0     C93627   9.154   0.643  -0.323  1.5406 -0.0780  0.2870
  710MOL0     C93628   9.243   0.641  -0.201  0.1011 -0.8827 -0.0156
  710MOL0     C93629   9.377   0.703  -0.220  0.4026  1.0270 -0.3239
  710MOL0     C93630   9.470   0.665  -0.107  0.4033  0.5036 -0.3413
  710MOL0     C93631   9.605   0.737  -0.120  0.0447 -0.7788  0.7033
  710MOL0    Cl93632   9.678   0.742   0.043  0.0736 -0.0781  0.3399
  710MOL0     C93633   8.566   0.727  -0.591 -0.9325  0.3230  1.1476
  710MOL0     C93634   8.433   0.697  -0.572  0.7477 -0.3885 -0.9629
  710MOL0     O93635   8.192   0.862  -0.518 -0.1773 -0.3241  0.3465
  710MOL0     C93636   7.924   0.791  -0.483  0.2278 -0.3485  0.7369
  710MOL0     C93637   7.791   0.749  -0.468  0.3696 -0.5047 -0.3630
  710MOL0     N93638   7.143   0.506   0.021 -0.2273  0.1158  0.9959
  710MOL0     N93639   7.077   0.603   0.083 -0.3195 -0.2247 -0.0664
  710MOL0     C93640   7.764   1.069   0.400 -0.1421  1.1192 -0.4985
  710MOL0     C93641   7.901   1.071   0.392 -0.4922  0.2737 -0.3717
  710MOL0     C93642   8.329   1.198   0.343 -0.1237  0.5780 -0.3912
  710MOL0     C93643   8.443   1.205   0.429  0.5315  0.1783 -0.0093
  710MOL0     C93644   8.567   1.227   0.367  0.3934 -1.0383 -0.0056
  710MOL0     C93645   8.579   1.247   0.230  0.0056  0.1669  0.3242
  710MOL0     O93646   8.700   1.268   0.165 -0.1067 -0.2483  0.1142
  710MOL0     C93647   8.821   1.274   0.235  0.2914  0.0139  0.0088
  710MOL0     C93648   8.922   1.313   0.126 -0.7582  0.2331  0.1641
  710MOL0     C93649   9.067   1.314   0.177  0.6078  0.4549  0.6155
  710MOL0     C93650   9.104   1.444   0.236  0.0404 -0.3559  0.1884
  710MOL0     C93651   9.248   1.439   0.278  0.2672 -0.7384 -0.1104
  710MOL0     C93652   9.360   1.434   0.322 -0.2113 -0.6330  0.2368
  710MOL0     C93653   8.469   1.240   0.144  0.0110  0.3696 -0.3270
  710MOL0     C93654   8.347   1.204   0.201  0.3459 -0.1715 -0.8388
  710MOL0     H93655   7.920   1.316   0.160  0.7173  0.8200  2.0212
  710MOL0     H93656   7.666   1.289   0.163  0.6988  0.4233  1.4642
  710MOL0     H93657   7.524   1.173   0.548 -4.0411  1.5881  2.0389
  710MOL0     H93658   7.486   1.014   0.497 -0.1809 -0.8355 -2.7738
  710MOL0     H93659   7.324   1.264   0.390 -3.5706 -0.2197  0.6807
  710MOL0     H93660   7.297   1.213   0.555 -1.6147 -0.0887 -0.0488
  710MOL0     H93661   7.140   1.111   0.429  0.6053  2.4929 -3.1384
  710MOL0     H93662   7.235   0.978   0.476 -2.3729 -1.3425 -1.2789
  710MOL0     H93663   7.306   1.116   0.208  2.7313 -0.1039  1.6370
  710MOL0     H93664   7.353   0.957   0.251 -0.6899 -1.5903  0.7617
  710MOL0     H93665   7.055   1.030   0.230 -0.0303 -0.8182 -1.3556
  710MOL0     H93666   7.122   0.874   0.241 -0.8800  1.0887  0.3675
  710MOL0     H93667   7.221   0.895   0.015 -2.0286 -2.2666  0.5763
  710MOL0     H93668   7.185   1.076   0.022 -2.3828 -0.1745  0.4519
  710MOL0     H93669   6.947   1.029  -0.044  0.4893  0.7236 -0.8865
  710MOL0     H93670   7.057   0.947  -0.136  1.4401  1.4776  0.3350
  710MOL0     H93671   6.856   0.802  -0.037  1.4831 -0.8477  0.3881
  710MOL0     H93672   6.934   0.833   0.123 -2.7348 -1.2836  0.3839
  710MOL0     H93673   7.104   0.719  -0.224 -1.0918  0.5799  0.1768
  710MOL0     H93674   7.187   0.482  -0.314  0.9553  0.6210 -0.1120
  710MOL0     H93675   7.223   0.356  -0.193  0.4009  0.3009  1.8548
  710MOL0     H93676   7.429   0.486  -0.116 -0.3454 -2.2811 -0.4426
  710MOL0     H93677   7.376   0.620  -0.218 -0.6261  0.0270  1.6763
  710MOL0     H93678   7.441   0.339  -0.335 -1.1561  1.1549  0.3478
  710MOL0     H93679   7.432   0.499  -0.421  0.3398  1.8308  1.0673
  710MOL0     H93680   7.653   0.409  -0.393 -1.1764 -0.2608 -2.0047
  710MOL0     H93681   7.631   0.458  -0.214 -1.4369  0.8821  1.2400
  710MOL0     H93682   7.839   0.515  -0.226 -2.5232  0.5243  0.3664
  710MOL0     H93683   8.066   0.567  -0.264 -0.8894  1.4469  0.7600
  710MOL0     H93684   8.433   0.723  -0.233  0.5023 -2.5724  0.6352
  710MOL0     H93685   8.665   0.739  -0.263 -1.6984  1.0291  1.0805
  710MOL0     H93686   8.839   0.816  -0.350 -1.7589 -1.6943  0.6574
  710MOL0     H93687   8.972   0.802  -0.478 -2.2142  1.0663 -1.4201
  710MOL0     H93688   8.933   0.556  -0.466 -1.4205 -0.7338 -0.2473
  710MOL0     H93689   8.816   0.584  -0.329 -0.3940  1.5112 -0.2248
  710MOL0     H93690   9.025   0.513  -0.220 -0.8214  0.4036 -0.5679
  710MOL0     H93691   8.976   0.679  -0.193 -3.3745 -0.0248 -0.5845
  710MOL0     H93692   9.186   0.570  -0.398  3.1711  1.1187 -0.2390
  710MOL0     H93693   9.147   0.745  -0.364  2.4849 -0.4703 -0.9130
  710MOL0     H93694   9.260   0.540  -0.165 -1.0331 -0.9520  0.3874
  710MOL0     H93695   9.199   0.700  -0.119  0.9552 -0.0188 -0.1623
  710MOL0     H93696   9.367   0.812  -0.219 -0.1573  0.9734  1.0118
  710MOL0     H93697   9.416   0.669  -0.317 -0.5309  1.7181 -0.9631
  710MOL0     H93698   9.426   0.675  -0.007  2.0630  0.2716  0.4431
  710MOL0     H93699   9.499   0.559  -0.109 -0.0413  0.0648  4.1974
  710MOL0     H93700   9.584   0.838  -0.156 -0.5712 -1.4934 -1.0239
  710MOL0     H93701   9.677   0.693  -0.190 -0.7473 -3.2490  1.3766
  710MOL0     H93702   8.610   0.725  -0.690 -1.9512 -0.1468  0.6876
  710MOL0     H93703   8.354   0.671  -0.642 -1.4861 -1.4891  1.7854
  710MOL0     H93704   7.952   0.862  -0.560  1.7923 -1.2363  0.4417
  710MOL0     H93705   7.707   0.796  -0.518 -0.4976  0.1756  1.5923
  710MOL0     H93706   7.726   1.012   0.484 -2.5983  2.3003 -0.7360
  710MOL0     H93707   7.957   1.009   0.461  1.9119  0.9989 -1.5696
  710MOL0     H93708   8.426   1.207   0.536 -2.1206  4.1575 -0.2876
  710MOL0     H93709   8.655   1.235   0.430 -0.0419  1.0408  0.4028
  710MOL0     H93710   8.845   1.177   0.280 -1.7418  0.6314  2.6681
  710MOL0     H93711   8.807   1.351   0.311  1.1126  0.2268 -0.0449
  710MOL0     H93712   8.919   1.235   0.050 -3.5599  1.7799 -1.4991
  710MOL0     H93713   8.903   1.409   0.078  0.2684 -0.5823 -2.0356
  710MOL0     H93714   9.146   1.289   0.105  1.3716 -0.3931  1.7031
  710MOL0     H93715   9.077   1.239   0.256  0.6685  0.0743  0.2486
  710MOL0     H93716   9.082   1.527   0.168  0.6514  0.0346  0.4564
  710MOL0     H93717   9.046   1.462   0.327  2.5643  1.3153  1.6188
  710MOL0     H93718   9.458   1.438   0.365 -0.6017 -0.8664  1.1861
  710MOL0     H93719   8.476   1.268   0.039  2.2957  0.6237 -0.1677
  710MOL0     H93720   8.263   1.194   0.132  1.0421 -4.0919 -1.3502
  711MOL0     O93721  11.030  10.542   8.393  0.0315 -0.4900  1.1027
  711MOL0     C93722  10.999  10.619   8.483 -0.4598 -0.1047  0.4429
  711MOL0     O93723  10.883  10.682   8.516  0.8803 -0.0915  0.9315
  711MOL0     C93724  10.763  10.642   8.452 -0.1679  0.0963 -0.6219
  711MOL0     C93725  10.664  10.746   8.438 -0.2494 -0.1941  0.3381
  711MOL0     C93726  10.533  10.710   8.395  0.3944 -0.1589 -0.0169
  711MOL0     C93727  10.504  10.582   8.371  1.3345  1.2763 -0.4693
  711MOL0     O93728  10.374  10.548   8.336 -0.5432 -0.4064 -0.7491
  711MOL0     C93729  10.319  10.458   8.436 -0.1119 -0.0242 -0.3342
  711MOL0     C93730  10.171  10.476   8.436  0.0103  0.3029  0.1474
  711MOL0     C93731  10.117  10.381   8.542  0.6497 -0.9048 -0.8264
  711MOL0     C93732   9.969  10.415   8.590 -0.3534  0.6126  0.5704
  711MOL0     C93733   9.899  10.322   8.692 -0.1309 -0.1743  0.4204
  711MOL0     C93734   9.959  10.344   8.830 -0.2680 -0.3569 -0.1521
  711MOL0     C93735   9.889  10.248   8.929  0.1586  0.3361  0.1899
  711MOL0     C93736   9.953  10.281   9.074 -0.0630 -0.2191 -0.3871
  711MOL0     N93737   9.848  10.367   9.132  0.4826 -0.2141  0.2424
  711MOL0     C93738   9.762  10.322   9.234  0.8006 -0.7141  0.3441
  711MOL0     C93739   9.712  10.439   9.284 -0.1863  0.4394 -0.7537
  711MOL0     C93740   9.599  10.430   9.385 -0.0625 -0.0949 -0.1410
  711MOL0     C93741   9.462  10.441   9.323  0.5704 -0.1739 -0.1308
  711MOL0     C93742   9.427  10.322   9.244 -0.5269 -0.1139  0.1290
  711MOL0     C93743   9.289  10.339   9.194 -0.0696 -0.8005  0.2632
  711MOL0     O93744   9.189  10.321   9.298 -0.8221 -0.3729  0.4524
  711MOL0     C93745   9.053  10.317   9.274 -0.3111 -0.7847  0.2982
  711MOL0     C93746   8.969  10.285   9.373 -0.2289  0.0503  0.3937
  711MOL0     C93747   8.829  10.294   9.349 -0.3156  0.1543  0.9227
  711MOL0     C93748   8.767  10.316   9.225  1.0586  0.4182  0.5051
  711MOL0     C93749   8.622  10.336   9.198  0.1808 -0.3803 -0.3180
  711MOL0     O93750   8.577  10.344   9.061  0.3143 -0.0917  0.3032
  711MOL0     C93751   8.445  10.374   9.025 -1.5823 -0.4343 -0.8920
  711MOL0     C93752   8.401  10.324   8.905  0.0008  0.3796  0.6806
  711MOL0     C93753   8.268  10.352   8.851 -0.2358  0.4529 -0.2407
  711MOL0     C93754   8.176  10.415   8.929  0.2216 -0.0872  0.0670
  711MOL0     O93755   8.050  10.442   8.883  0.0734  0.8468 -0.0565
  711MOL0     C93756   7.950  10.492   8.973 -0.0234  0.9838 -0.0818
  711MOL0     C93757   7.827  10.513   8.882  0.2555 -0.5598 -0.0389
  711MOL0     C93758   7.721  10.559   8.978 -0.4685 -0.4590  0.5980
  711MOL0     C93759   7.591  10.596   8.908 -0.6692 -0.5943  0.2969
  711MOL0     C93760   7.475  10.630   9.008  0.9184 -0.1777 -0.3175
  711MOL0     C93761   7.345  10.656   8.935  0.6606 -0.9517  0.0871
  711MOL0     C93762   7.237  10.691   9.041 -1.1015 -0.8864  0.4484
  711MOL0     C93763   7.091  10.687   8.987  0.3598  0.3611  0.0641
  711MOL0    Cl93764   7.083  10.800   8.858 -0.0268  0.3138 -0.2529
  711MOL0     C93765   8.221  10.473   9.052 -0.0654 -0.2973  0.1460
  711MOL0     C93766   8.355  10.461   9.095 -0.1263  0.2126  0.6597
  711MOL0     O93767   8.548  10.337   9.293  0.5148  0.0677  0.2776
  711MOL0     C93768   8.859  10.338   9.119  1.0628  0.1751  0.4000
  711MOL0     C93769   8.995  10.350   9.147 -0.1753 -0.3796 -0.3879
  711MOL0     N93770   9.758  10.552   9.210  0.4603  0.6239  0.3481
  711MOL0     N93771   9.841  10.502   9.119 -0.3881  0.4301  0.5726
  711MOL0     C93772  10.606  10.481   8.369 -0.1188 -0.0789  0.2866
  711MOL0     C93773  10.733  10.511   8.409 -0.5421 -0.3395 -0.8981
  711MOL0     C93774  11.117  10.656   8.563  0.0008 -1.2351 -1.3678
  711MOL0     C93775  11.140  10.787   8.608  0.2238 -0.0031  0.6153
  711MOL0     C93776  11.269  10.821   8.673  0.7482 -0.5751 -0.4769
  711MOL0     C93777  11.358  10.726   8.703  0.4957 -0.6979 -0.8740
  711MOL0     O93778  11.481  10.740   8.770  0.0160 -0.2627  0.5561
  711MOL0     C93779  11.506  10.877   8.813 -0.1049  0.4827 -0.0671
  711MOL0     C93780  11.571  10.970   8.700  0.3522  0.0901  0.2726
  711MOL0     C93781  11.684  10.914   8.611 -0.1516  0.2595 -0.2857
  711MOL0     C93782  11.824  10.907   8.674  0.4014  0.1294  0.1330
  711MOL0     C93783  11.892  11.037   8.670 -0.0711 -0.7485 -0.0057
  711MOL0     C93784  11.958  11.143   8.677  0.4645  0.3509  0.0009
  711MOL0     C93785  11.334  10.598   8.668  0.6738  0.1929  0.2274
  711MOL0     C93786  11.211  10.564   8.611 -0.0676 -0.0226  0.2742
  711MOL0     H93787  10.699  10.841   8.479  1.3325 -0.2017 -0.9095
  711MOL0     H93788  10.445  10.775   8.396  0.6295  0.1805  1.9523
  711MOL0     H93789  10.357  10.473   8.537  3.6157 -0.1064 -1.5961
  711MOL0     H93790  10.350  10.357   8.409  2.5193  1.0109 -1.4937
  711MOL0     H93791  10.125  10.459   8.338  0.6598  1.0505 -0.3106
  711MOL0     H93792  10.155  10.579   8.468 -0.3237 -0.4746  2.6573
  711MOL0     H93793  10.184  10.392   8.629 -0.4996  0.2995 -0.0617
  711MOL0     H93794  10.114  10.283   8.493  1.1783 -2.1641  1.5002
  711MOL0     H93795   9.948  10.511   8.638  0.2148  0.3862  1.2779
  711MOL0     H93796   9.908  10.418   8.499 -1.5669 -0.6760  1.3076
  711MOL0     H93797   9.914  10.217   8.664 -1.8719 -0.7987  1.6068
  711MOL0     H93798   9.793  10.350   8.683 -0.0503  1.0786  2.6887
  711MOL0     H93799   9.949  10.446   8.869  1.2205 -0.0688 -0.4597
  711MOL0     H93800  10.065  10.319   8.830 -0.4173 -1.0209  0.1850
  711MOL0     H93801   9.780  10.254   8.934  0.1242 -0.1088  0.0202
  711MOL0     H93802   9.916  10.144   8.911  1.2145  0.2508  2.0784
  711MOL0     H93803  10.048  10.333   9.057  1.4520 -3.1064 -1.4066
  711MOL0     H93804   9.963  10.195   9.140  2.4737 -0.4350 -0.9513
  711MOL0     H93805   9.739  10.219   9.261  0.2589 -0.8336 -0.5349
  711MOL0     H93806   9.620  10.513   9.453  2.4147 -1.4353  0.8811
  711MOL0     H93807   9.614  10.335   9.438  1.4152 -0.8160 -1.7371
  711MOL0     H93808   9.445  10.530   9.261 -1.5744 -1.8853 -2.2066
  711MOL0     H93809   9.392  10.441   9.407  1.3786  0.7942  0.5671
  711MOL0     H93810   9.495  10.310   9.159 -1.5197  0.8715 -0.8285
  711MOL0     H93811   9.428  10.237   9.312  0.5950  0.9455  1.5149
  711MOL0     H93812   9.264  10.268   9.115 -1.7524  1.2918 -1.2221
  711MOL0     H93813   9.272  10.437   9.148 -0.1726 -0.5179  0.8902
  711MOL0     H93814   9.013  10.252   9.466 -0.2571  0.0225  0.3972
  711MOL0     H93815   8.781  10.265   9.442  0.5599 -2.6130  0.5986
  711MOL0     H93816   8.474  10.281   8.838  0.2777 -0.0187  1.2243
  711MOL0     H93817   8.234  10.320   8.754 -2.8977  0.0287  0.7416
  711MOL0     H93818   7.974  10.590   9.016 -3.1179  2.3095 -1.0716
  711MOL0     H93819   7.933  10.411   9.046  0.0814 -1.4790 -2.6159
  711MOL0     H93820   7.791  10.422   8.835  0.0962  0.2724 -1.5854
  711MOL0     H93821   7.849  10.588   8.805  0.8106  0.4563  1.0687
  711MOL0     H93822   7.755  10.645   9.035 -2.0260  0.6059 -0.0133
  711MOL0     H93823   7.693  10.482   9.051 -0.2765  0.1011  1.2708
  711MOL0     H93824   7.603  10.674   8.832  1.4371 -1.7381 -0.6384
  711MOL0     H93825   7.565  10.511   8.844 -1.6967  0.0617 -0.1901
  711MOL0     H93826   7.507  10.719   9.063 -1.1617 -0.1245  0.9056
  711MOL0     H93827   7.460  10.546   9.076  1.6821 -0.4328 -0.4587
  711MOL0     H93828   7.308  10.575   8.872 -1.2366 -2.1313  2.5828
  711MOL0     H93829   7.349  10.732   8.856 -1.3192 -2.4617 -1.5760
  711MOL0     H93830   7.232  10.611   9.115 -1.0890 -2.1418 -0.8711
  711MOL0     H93831   7.260  10.782   9.098  0.0664 -3.2956  4.2057
  711MOL0     H93832   7.018  10.720   9.062  1.0559  1.6929  0.1743
  711MOL0     H93833   7.062  10.590   8.946 -0.4263  0.9148 -0.7160
  711MOL0     H93834   8.173  10.546   9.115  0.7974 -1.5409  2.3627
  711MOL0     H93835   8.381  10.504   9.191  1.0230  1.8857 -0.3515
  711MOL0     H93836   8.827  10.350   9.016 -0.8643  0.5455  0.9939
  711MOL0     H93837   9.061  10.391   9.071 -0.2934  0.7335  0.0869
  711MOL0     H93838  10.576  10.383   8.334 -1.6301  0.7085 -0.7317
  711MOL0     H93839  10.810  10.437   8.429 -0.6570  0.2029  2.0992
  711MOL0     H93840  11.065  10.865   8.594 -2.4550 -2.5349 -0.2638
  711MOL0     H93841  11.278  10.926   8.698 -0.0499 -0.6754  0.2583
  711MOL0     H93842  11.574  10.869   8.899 -2.3528  0.2314  1.7670
  711MOL0     H93843  11.422  10.929   8.858  0.0606  2.1190 -1.5301
  711MOL0     H93844  11.489  11.014   8.644 -2.3994 -0.9683  3.1771
  711MOL0     H93845  11.622  11.053   8.751 -1.7714  2.4352 -1.2345
  711MOL0     H93846  11.684  10.980   8.524  0.8344  0.3734 -0.2027
  711MOL0     H93847  11.652  10.821   8.564 -3.3148  1.4528 -0.7388
  711MOL0     H93848  11.808  10.872   8.777  0.4031 -1.6401 -0.4275
  711MOL0     H93849  11.877  10.834   8.612  0.4051  2.2844 -2.5839
  711MOL0     H93850  12.014  11.234   8.680  0.1669  0.5336  0.0904
  711MOL0     H93851  11.410  10.524   8.693  0.0157 -0.5857 -0.0424
  711MOL0     H93852  11.184  10.461   8.590 -0.5517  0.7373 -3.7222
  712MOL0     O93853   2.524  10.920   3.948  0.0118  0.3222 -0.2467
  712MOL0     C93854   2.639  10.875   3.934 -0.3722 -0.5229  0.6216
  712MOL0     O93855   2.671  10.740   3.928 -0.1148  0.5183 -0.2781
  712MOL0     C93856   2.571  10.649   3.952 -0.0630 -0.2909  0.4354
  712MOL0     C93857   2.497  10.650   4.070 -0.7819 -0.2687  0.6231
  712MOL0     C93858   2.396  10.557   4.106 -1.0058 -0.9246 -0.3325
  712MOL0     C93859   2.373  10.464   4.011  0.5090  0.2629  0.4552
  712MOL0     O93860   2.269  10.372   4.020  0.4656 -0.4095  0.3479
  712MOL0     C93861   2.213  10.340   4.143  0.7948  0.1474 -0.2057
  712MOL0     C93862   2.104  10.235   4.128  0.0989  0.8788  0.3646
  712MOL0     C93863   1.992  10.303   4.058  0.2097  0.2163 -0.7609
  712MOL0     C93864   1.904  10.390   4.150  0.2022  0.8789  0.2534
  712MOL0     C93865   1.766  10.429   4.096  0.3057  0.0862 -0.2895
  712MOL0     C93866   1.710  10.532   4.185  0.1616 -0.3448 -0.9000
  712MOL0     C93867   1.570  10.585   4.154  0.5945  0.8788 -0.0075
  712MOL0     C93868   1.460  10.493   4.180  0.3723  0.7328 -0.1260
  712MOL0     N93869   1.326  10.536   4.146 -0.0153  0.8975  0.1908
  712MOL0     C93870   1.264  10.567   4.029 -0.0116  0.1195 -0.0150
  712MOL0     C93871   1.136  10.597   4.059 -0.4558  0.3535 -0.4077
  712MOL0     C93872   1.030  10.623   3.964  0.1544 -0.0361  0.4723
  712MOL0     C93873   0.882  10.623   4.021  0.2696 -0.7957  0.0784
  712MOL0     C93874   0.790  10.678   3.910 -0.2411 -0.1556 -0.1424
  712MOL0     C93875   0.651  10.708   3.955  0.7270  0.4996 -0.8671
  712MOL0     O93876   0.579  10.748   3.834 -0.0762  0.2938  0.4670
  712MOL0     C93877   0.439  10.751   3.830  0.4551 -0.0754 -0.4137
  712MOL0     C93878   0.367  10.715   3.715  0.3419  0.2199 -0.3098
  712MOL0     C93879   0.231  10.722   3.710 -0.2909  0.5563 -0.8187
  712MOL0     C93880   0.155  10.776   3.817 -0.0784 -0.2158 -0.2500
  712MOL0     C93881   0.006  10.783   3.804  0.2745 -0.0732 -0.2711
  712MOL0     O93882  -0.062  10.793   3.923  0.5940  0.6333  0.2796
  712MOL0     C93883  -0.198  10.778   3.921  0.2554  0.7855 -0.4538
  712MOL0     C93884  -0.257  10.667   3.990  0.4316  0.4135 -0.1601
  712MOL0     C93885  -0.393  10.662   4.007 -0.3077  0.2458  0.7574
  712MOL0     C93886  -0.474  10.766   3.959  0.5006 -0.3790  1.2792
  712MOL0     O93887  -0.614  10.769   3.982  0.6053  0.7339  1.5660
  712MOL0     C93888  -0.678  10.661   4.053  0.8631  0.2118  0.3901
  712MOL0     C93889  -0.830  10.675   4.082 -1.2015  0.7326  0.1472
  712MOL0     C93890  -0.862  10.708   4.230  0.6009  0.1238  0.0578
  712MOL0     C93891  -1.009  10.705   4.267 -1.0123  0.2632 -0.0742
  712MOL0     C93892  -1.037  10.805   4.374  0.7248 -0.1666 -0.1097
  712MOL0     C93893  -1.168  10.761   4.455 -0.4295 -0.3221 -0.7026
  712MOL0     C93894  -1.217  10.856   4.563 -0.2429  0.0958  0.2438
  712MOL0     C93895  -1.326  10.793   4.642  0.9214  0.8814 -0.1580
  712MOL0    Cl93896  -1.454  10.733   4.540 -0.5328  0.0163  0.0606
  712MOL0     C93897  -0.410  10.880   3.884 -0.0633 -0.2137  0.0225
  712MOL0     C93898  -0.275  10.876   3.864 -0.0672  0.3849  0.7702
  712MOL0     O93899  -0.043  10.785   3.696  0.3792  0.1965  0.2684
  712MOL0     C93900   0.223  10.809   3.934  0.2566 -0.1889 -0.2580
  712MOL0     C93901   0.361  10.799   3.936  0.4202  0.6640 -0.3754
  712MOL0     N93902   1.122  10.588   4.195  0.4135  0.0066 -0.4782
  712MOL0     N93903   1.239  10.557   4.243  0.2504 -0.8879 -0.3772
  712MOL0     C93904   2.452  10.457   3.893  0.1202  0.0240  0.5634
  712MOL0     C93905   2.546  10.542   3.865  0.9425 -0.1022 -0.5532
  712MOL0     C93906   2.755  10.964   3.908 -0.3908 -0.2087 -0.7956
  712MOL0     C93907   2.890  10.913   3.901  0.0034  0.3071  0.4422
  712MOL0     C93908   3.000  11.000   3.875  0.2951  0.0041  0.5626
  712MOL0     C93909   2.979  11.141   3.884 -0.5621  0.1260 -0.2496
  712MOL0     O93910   3.074  11.239   3.867  0.1692  0.6015 -0.4886
  712MOL0     C93911   3.203  11.199   3.832 -0.0624 -0.2338 -0.0952
  712MOL0     C93912   3.288  11.334   3.820  0.6359  0.4887 -0.2105
  712MOL0     C93913   3.435  11.306   3.839  0.6512 -0.2612  0.1691
  712MOL0     C93914   3.520  11.428   3.828 -0.2817 -0.5414  0.7023
  712MOL0     C93915   3.658  11.384   3.829  0.0105  0.3225  0.2302
  712MOL0     C93916   3.772  11.345   3.822  0.4452  0.1801  0.3786
  712MOL0     C93917   2.847  11.188   3.895  0.8393 -0.0101 -0.5464
  712MOL0     C93918   2.738  11.102   3.908  0.1784 -0.1165  0.6328
  712MOL0     H93919   2.519  10.733   4.137 -1.0328  0.0634  0.2954
  712MOL0     H93920   2.346  10.574   4.201  0.6519 -2.7237  0.9326
  712MOL0     H93921   2.164  10.417   4.203  0.3607 -0.7469  0.6123
  712MOL0     H93922   2.300  10.301   4.197  0.1587 -1.2642 -0.1540
  712MOL0     H93923   2.069  10.179   4.215  0.6737 -4.4474 -2.3784
  712MOL0     H93924   2.148  10.148   4.078  0.0933  0.2817  1.3636
  712MOL0     H93925   1.932  10.229   4.004  1.2082 -1.0298 -0.2114
  712MOL0     H93926   2.032  10.367   3.979  1.8142  0.8388  0.4948
  712MOL0     H93927   1.889  10.333   4.242  0.3301 -1.4565 -1.1016
  712MOL0     H93928   1.965  10.478   4.172  2.6428  0.2100 -3.0254
  712MOL0     H93929   1.693  10.348   4.087  0.4074 -0.1261  0.7553
  712MOL0     H93930   1.774  10.475   3.997  1.0529  0.7952  0.0886
  712MOL0     H93931   1.765  10.627   4.179 -0.6267  0.3764  1.7193
  712MOL0     H93932   1.713  10.493   4.288  0.7681 -2.4119 -1.6607
  712MOL0     H93933   1.548  10.679   4.205 -1.5925 -0.6226  2.0488
  712MOL0     H93934   1.557  10.608   4.048  1.0091 -1.0705 -0.5260
  712MOL0     H93935   1.466  10.486   4.289 -0.8492  0.9198 -0.0312
  712MOL0     H93936   1.478  10.395   4.134  2.1788  2.1292 -2.5618
  712MOL0     H93937   1.299  10.545   3.929 -1.5337  0.8719 -0.7578
  712MOL0     H93938   1.035  10.560   3.875 -0.9507  0.9171 -0.2962
  712MOL0     H93939   1.050  10.725   3.929 -1.2892 -0.0542 -0.5081
  712MOL0     H93940   0.874  10.689   4.107  0.3734  1.6394 -1.6890
  712MOL0     H93941   0.852  10.522   4.050  1.1743 -0.3377  2.8764
  712MOL0     H93942   0.826  10.778   3.884 -1.8825  0.3289 -0.6791
  712MOL0     H93943   0.794  10.605   3.828 -0.8663 -3.0506  2.2314
  712MOL0     H93944   0.653  10.788   4.030 -1.4313  0.8330 -1.0964
  712MOL0     H93945   0.605  10.618   3.997  2.1504  0.0272 -0.2764
  712MOL0     H93946   0.423  10.676   3.631 -0.7062 -0.5012 -0.6848
  712MOL0     H93947   0.186  10.689   3.616 -0.6663 -0.9853 -0.1218
  712MOL0     H93948  -0.204  10.583   4.033 -0.4633  0.5154  1.1915
  712MOL0     H93949  -0.438  10.577   4.056  0.9013 -0.8904 -0.0671
  712MOL0     H93950  -0.628  10.644   4.150 -0.4733 -1.4455  0.8321
  712MOL0     H93951  -0.667  10.566   4.001 -2.3543 -1.7163  2.8834
  712MOL0     H93952  -0.876  10.584   4.043 -0.5415  0.5888 -0.3099
  712MOL0     H93953  -0.871  10.764   4.032  2.0497  0.9477 -2.5224
  712MOL0     H93954  -0.813  10.803   4.254  1.6229  0.3537 -2.5362
  712MOL0     H93955  -0.821  10.632   4.297 -1.1834 -3.7041 -2.8474
  712MOL0     H93956  -1.068  10.717   4.175 -0.7748 -1.0887 -0.4295
  712MOL0     H93957  -1.040  10.607   4.303 -1.6870  1.1762  1.9539
  712MOL0     H93958  -1.063  10.898   4.323  0.2737  0.2336  0.8248
  712MOL0     H93959  -0.947  10.815   4.435  0.7022  0.9193 -0.2397
  712MOL0     H93960  -1.144  10.668   4.507 -1.0797  0.0052  0.2234
  712MOL0     H93961  -1.242  10.743   4.376  1.0891  0.0926 -2.2733
  712MOL0     H93962  -1.137  10.887   4.631  0.5280  1.3428 -1.1755
  712MOL0     H93963  -1.258  10.941   4.507  0.9714 -0.6410 -1.8496
  712MOL0     H93964  -1.372  10.859   4.716 -1.7773 -2.6476  1.6243
  712MOL0     H93965  -1.274  10.716   4.699 -0.1535  0.1212 -0.1838
  712MOL0     H93966  -0.477  10.958   3.849 -0.9613  0.5073  3.0649
  712MOL0     H93967  -0.228  10.955   3.806  2.2863  0.3734  2.5049
  712MOL0     H93968   0.162  10.835   4.020 -1.0965 -1.1848 -0.8900
  712MOL0     H93969   0.412  10.839   4.023 -1.7361  2.3924  0.1691
  712MOL0     H93970   2.427  10.378   3.823  1.1128 -1.4711  1.8419
  712MOL0     H93971   2.605  10.527   3.775  1.2831 -3.6080  0.1092
  712MOL0     H93972   2.905  10.806   3.891  1.9152  0.5586  0.3530
  712MOL0     H93973   3.099  10.962   3.852  0.2213  0.0994  0.0745
  712MOL0     H93974   3.203  11.134   3.745 -0.5996 -2.4282  1.4709
  712MOL0     H93975   3.247  11.128   3.902 -0.3062  0.5408  0.8780
  712MOL0     H93976   3.271  11.382   3.723  1.3991  1.9078  0.3313
  712MOL0     H93977   3.258  11.399   3.902  4.9387  0.3735  1.7375
  712MOL0     H93978   3.471  11.240   3.760  4.0087  1.9027 -0.2969
  712MOL0     H93979   3.447  11.265   3.940 -3.1250  0.3645  1.0170
  712MOL0     H93980   3.498  11.482   3.735  2.2490  0.0298  0.3780
  712MOL0     H93981   3.506  11.490   3.917  4.7914  0.8414  0.8298
  712MOL0     H93982   3.878  11.331   3.825  0.3838 -0.4536 -0.1138
  712MOL0     H93983   2.807  11.288   3.887 -0.8660 -0.4815  1.2744
  712MOL0     H93984   2.637  11.140   3.904  0.5231  0.7335 -0.1292
  713MOL0     O93985   9.710   6.506   6.588 -0.0309 -0.0434 -0.0865
  713MOL0     C93986   9.706   6.520   6.463  0.0306 -0.1427 -0.2309
  713MOL0     O93987   9.598   6.517   6.379 -0.1000  0.3074  0.2332
  713MOL0     C93988   9.476   6.480   6.424 -0.8013  0.5662  1.2658
  713MOL0     C93989   9.400   6.565   6.504  0.2205 -0.4192  0.0147
  713MOL0     C93990   9.268   6.536   6.546  0.7105  0.3843  0.9083
  713MOL0     C93991   9.213   6.409   6.521 -0.2139  0.2750  0.0534
  713MOL0     O93992   9.089   6.389   6.573 -0.2866  0.2024 -0.3520
  713MOL0     C93993   9.049   6.261   6.613 -0.2356 -0.2613 -0.2551
  713MOL0     C93994   8.942   6.218   6.517  1.3668 -0.0115  0.1190
  713MOL0     C93995   8.813   6.294   6.519  0.1071  0.4522  0.6104
  713MOL0     C93996   8.704   6.246   6.424  0.8678 -0.2119 -0.7151
  713MOL0     C93997   8.562   6.263   6.490  0.8968 -0.1696 -1.0339
  713MOL0     C93998   8.448   6.225   6.400  0.4382  0.7005  0.7386
  713MOL0     C93999   8.306   6.200   6.461  1.0269 -0.1961  0.1091
  713MOL0     C94000   8.230   6.328   6.482  0.2549  0.0546 -0.3259
  713MOL0     N94001   8.099   6.310   6.559 -0.5976  0.0066 -0.7899
  713MOL0     C94002   8.055   6.192   6.618 -0.0884 -1.4943 -0.1857
  713MOL0     C94003   7.940   6.232   6.683 -0.3883 -0.2276 -0.1657
  713MOL0     C94004   7.869   6.136   6.773 -0.0483  0.0992 -0.1484
  713MOL0     C94005   7.768   6.221   6.855  0.5305 -0.0842 -0.5264
  713MOL0     C94006   7.724   6.160   6.989 -0.3242 -1.3251 -0.6852
  713MOL0     C94007   7.658   6.029   6.957 -0.0864 -0.7105  1.0928
  713MOL0     O94008   7.568   6.015   7.069 -0.0786  0.2808 -0.6993
  713MOL0     C94009   7.432   6.030   7.061  0.0832 -0.2522  0.3634
  713MOL0     C94010   7.366   6.068   6.946 -0.4766 -0.2419 -0.7228
  713MOL0     C94011   7.224   6.080   6.948  0.5989  0.4317  0.6886
  713MOL0     C94012   7.154   6.060   7.070 -0.0133  0.7938 -0.2505
  713MOL0     C94013   7.010   6.074   7.072 -0.5717  0.0111  0.8445
  713MOL0     O94014   6.958   6.079   7.194 -1.0617 -0.3229 -0.3174
  713MOL0     C94015   6.823   6.093   7.222 -0.1070  0.3451 -0.4047
  713MOL0     C94016   6.791   6.119   7.356  0.7542 -0.6601  0.5804
  713MOL0     C94017   6.661   6.144   7.391 -0.2372  0.7128  0.1470
  713MOL0     C94018   6.554   6.124   7.306 -0.2765 -0.3401  0.4131
  713MOL0     O94019   6.431   6.148   7.358 -0.4142  0.1649  0.2626
  713MOL0     C94020   6.313   6.124   7.276 -0.3763 -0.4061 -0.6520
  713MOL0     C94021   6.198   6.160   7.368 -0.5915 -0.0977  0.3068
  713MOL0     C94022   6.061   6.135   7.314  0.3077  0.3076 -0.1648
  713MOL0     C94023   5.956   6.154   7.414 -0.5496 -0.9109  0.1714
  713MOL0     C94024   5.815   6.112   7.353  0.0160  0.5573 -0.2857
  713MOL0     C94025   5.705   6.153   7.449  0.4255 -0.5536 -0.2098
  713MOL0     C94026   5.565   6.133   7.391 -0.0485 -0.2962  0.1795
  713MOL0     C94027   5.464   6.176   7.490  0.5322 -0.9520 -0.3280
  713MOL0    Cl94028   5.313   6.132   7.416 -0.0063  0.1143  0.3675
  713MOL0     C94029   6.580   6.095   7.168  0.7557  0.7061 -0.3481
  713MOL0     C94030   6.713   6.084   7.127 -0.1127  0.1358  0.6030
  713MOL0     O94031   6.955   6.093   6.964  0.5690  0.6725 -1.0377
  713MOL0     C94032   7.226   6.020   7.183  0.8593 -0.6165 -0.1275
  713MOL0     C94033   7.362   6.004   7.176  0.0527  0.4402  0.1704
  713MOL0     N94034   7.912   6.362   6.647 -0.2593  0.9581  0.6438
  713MOL0     N94035   7.999   6.404   6.569 -0.1841  0.6350  0.8714
  713MOL0     C94036   9.299   6.322   6.456  0.1135  0.3025  0.1093
  713MOL0     C94037   9.420   6.352   6.397 -1.1048 -0.7264 -1.0596
  713MOL0     C94038   9.835   6.544   6.403  0.0118  0.0846  0.0148
  713MOL0     C94039   9.948   6.572   6.481 -0.5046 -0.2811 -0.3666
  713MOL0     C94040  10.079   6.591   6.430 -0.6261  0.6526  0.4168
  713MOL0     C94041  10.098   6.586   6.294 -0.6783 -0.7918 -0.1066
  713MOL0     O94042  10.222   6.608   6.246 -0.2626 -0.2616 -0.7070
  713MOL0     C94043  10.263   6.574   6.113 -0.7183  0.6831  0.4233
  713MOL0     C94044  10.254   6.689   6.016  0.2256  0.2493 -0.6026
  713MOL0     C94045  10.361   6.798   6.045 -0.3920  0.3883 -0.2129
  713MOL0     C94046  10.371   6.900   5.935 -0.4572  0.4908  0.6377
  713MOL0     C94047  10.281   7.015   5.964 -0.5417 -0.5654 -0.1901
  713MOL0     C94048  10.232   7.124   5.994  0.6526  0.2271  0.4981
  713MOL0     C94049   9.982   6.573   6.210 -0.1137  0.6200  0.9127
  713MOL0     C94050   9.851   6.559   6.261  0.5542 -0.6296 -0.1401
  713MOL0     H94051   9.448   6.662   6.513 -0.9757  0.3756 -1.5672
  713MOL0     H94052   9.214   6.599   6.615 -0.3531  0.5743 -0.0688
  713MOL0     H94053   9.012   6.271   6.716 -0.9382  1.8314 -0.6583
  713MOL0     H94054   9.132   6.191   6.612  0.7623  0.8506  0.7576
  713MOL0     H94055   8.922   6.111   6.528  1.1570 -0.0238 -0.3276
  713MOL0     H94056   8.981   6.219   6.415 -1.7335 -2.5298 -1.2570
  713MOL0     H94057   8.823   6.401   6.497 -3.5429  1.2740  2.2215
  713MOL0     H94058   8.771   6.309   6.619 -0.6375 -1.4131  0.6137
  713MOL0     H94059   8.711   6.293   6.325 -0.3026 -0.5681 -0.9948
  713MOL0     H94060   8.721   6.140   6.405  1.4445 -1.1996  4.1007
  713MOL0     H94061   8.542   6.369   6.508 -1.3446 -0.6549 -0.3609
  713MOL0     H94062   8.565   6.212   6.587  1.6844 -0.9672 -1.4650
  713MOL0     H94063   8.479   6.138   6.341 -1.2748 -0.5383  1.5655
  713MOL0     H94064   8.426   6.306   6.331 -0.3298  1.1545  1.4852
  713MOL0     H94065   8.244   6.138   6.395  3.0678 -2.2749  0.0365
  713MOL0     H94066   8.319   6.154   6.560  0.6271  2.7918  1.6708
  713MOL0     H94067   8.214   6.361   6.379 -3.0337  0.6057  0.2423
  713MOL0     H94068   8.287   6.397   6.544  0.6593 -0.4303 -0.1539
  713MOL0     H94069   8.105   6.095   6.618  0.4837 -1.2029 -1.0597
  713MOL0     H94070   7.942   6.094   6.842 -1.3914 -1.6670  0.2846
  713MOL0     H94071   7.810   6.063   6.716 -1.5159  0.9268  0.2444
  713MOL0     H94072   7.681   6.235   6.790  0.4114  0.2417 -0.2986
  713MOL0     H94073   7.818   6.312   6.889  2.1325 -1.6680  1.6251
  713MOL0     H94074   7.812   6.153   7.054  0.4961  1.2844 -1.4100
  713MOL0     H94075   7.646   6.214   7.043 -1.8124 -1.9936 -2.0646
  713MOL0     H94076   7.746   5.965   6.946  1.5989  1.4708  1.2898
  713MOL0     H94077   7.603   6.024   6.862  0.4946 -0.5252  0.7444
  713MOL0     H94078   7.423   6.085   6.856 -0.0047  3.0523  0.0661
  713MOL0     H94079   7.179   6.104   6.852  0.7773  0.3803  0.5923
  713MOL0     H94080   6.869   6.111   7.431  1.7304 -0.9684 -0.4498
  713MOL0     H94081   6.630   6.168   7.492 -2.1710 -1.4294  0.1290
  713MOL0     H94082   6.295   6.018   7.255  1.1771 -0.5819 -1.2085
  713MOL0     H94083   6.321   6.178   7.181 -0.5348 -2.0504 -1.6417
  713MOL0     H94084   6.199   6.263   7.406 -0.7915  0.0164  0.0089
  713MOL0     H94085   6.209   6.096   7.456  0.1042 -0.7147 -0.2215
  713MOL0     H94086   6.052   6.036   7.269  0.5481  0.8933 -1.5601
  713MOL0     H94087   6.048   6.201   7.228 -4.4635  0.4873  0.4225
  713MOL0     H94088   5.972   6.106   7.511 -0.3081  1.8684  1.6228
  713MOL0     H94089   5.969   6.261   7.432  3.7863 -1.4571  1.6862
  713MOL0     H94090   5.810   6.005   7.330  0.5595  0.6633 -0.9070
  713MOL0     H94091   5.811   6.164   7.257 -0.9302  3.8845  1.4116
  713MOL0     H94092   5.709   6.259   7.475 -2.8727 -0.1448 -0.9822
  713MOL0     H94093   5.715   6.094   7.541  0.0133  0.7108  0.6810
  713MOL0     H94094   5.545   6.185   7.298 -1.7681 -1.0669  0.0867
  713MOL0     H94095   5.558   6.026   7.368  1.1131 -0.5852  1.0445
  713MOL0     H94096   5.458   6.282   7.517 -1.5400 -1.2710  0.6406
  713MOL0     H94097   5.486   6.126   7.585  0.5896 -1.4595 -0.6085
  713MOL0     H94098   6.491   6.089   7.106 -2.3401  3.1147  3.3213
  713MOL0     H94099   6.733   6.075   7.020  2.1309  0.9967  0.8900
  713MOL0     H94100   7.178   5.998   7.278  3.3219 -2.5525  0.7695
  713MOL0     H94101   7.428   5.969   7.255 -0.8460 -0.6310  0.4724
  713MOL0     H94102   9.261   6.222   6.437  0.4910  0.0547  0.6414
  713MOL0     H94103   9.475   6.272   6.349  2.2518  0.4568  0.4579
  713MOL0     H94104   9.937   6.587   6.588  0.9730 -0.5527 -0.1564
  713MOL0     H94105  10.166   6.616   6.489  1.5385 -2.1410 -1.3280
  713MOL0     H94106  10.213   6.484   6.074  1.9288 -1.1058  0.8936
  713MOL0     H94107  10.368   6.543   6.112 -1.4068 -2.1416 -2.0140
  713MOL0     H94108  10.250   6.642   5.917 -1.9166 -2.1214  0.4920
  713MOL0     H94109  10.154   6.729   6.035 -2.0257 -3.4815 -3.2424
  713MOL0     H94110  10.462   6.756   6.056 -0.8648 -0.7928 -0.1857
  713MOL0     H94111  10.335   6.848   6.138  2.2899  0.3260  0.6630
  713MOL0     H94112  10.472   6.940   5.926  0.1153 -0.8989  0.5982
  713MOL0     H94113  10.361   6.860   5.833  1.0851  2.5751 -0.4239
  713MOL0     H94114  10.174   7.211   6.016  2.1381  0.6818  2.9050
  713MOL0     H94115   9.995   6.562   6.103 -3.7434 -0.1670  0.4058
  713MOL0     H94116   9.766   6.534   6.198 -0.4058 -2.1134  1.6634
  714MOL0     O94117   1.056   3.168   1.675  0.0080  0.0562  0.6248
  714MOL0     C94118   1.126   3.223   1.587 -0.1163  0.6004  0.7301
  714MOL0     O94119   1.067   3.280   1.476  1.0953  0.3081 -0.5506
  714MOL0     C94120   0.924   3.286   1.459  0.1827 -1.3354 -0.2189
  714MOL0     C94121   0.857   3.412   1.432 -0.7198  0.1407  0.8620
  714MOL0     C94122   0.720   3.409   1.405  0.1568  0.2307  0.4036
  714MOL0     C94123   0.652   3.285   1.396 -0.2014  0.3270 -0.3898
  714MOL0     O94124   0.518   3.276   1.371  0.1753  0.1533 -0.2424
  714MOL0     C94125   0.430   3.389   1.391  1.0477  0.3410  0.1485
  714MOL0     C94126   0.288   3.339   1.379  0.1069  0.5863 -0.1663
  714MOL0     C94127   0.177   3.448   1.392  1.0495  0.4431  0.2506
  714MOL0     C94128   0.038   3.383   1.372 -1.0262  0.9386  0.1738
  714MOL0     C94129  -0.085   3.472   1.363  1.1262 -0.3661  0.0599
  714MOL0     C94130  -0.151   3.492   1.502 -1.3662 -0.0957 -0.3216
  714MOL0     C94131  -0.269   3.583   1.499 -0.0914  0.1039 -1.2406
  714MOL0     C94132  -0.233   3.730   1.491  0.9077 -0.1480  0.3236
  714MOL0     N94133  -0.362   3.803   1.490 -0.1036  0.5144  0.1152
  714MOL0     C94134  -0.435   3.828   1.379  0.0385 -0.5853 -0.0140
  714MOL0     C94135  -0.520   3.925   1.415  0.5585  0.1979  0.9040
  714MOL0     C94136  -0.632   3.976   1.329 -0.1743  0.0301  0.1252
  714MOL0     C94137  -0.739   3.871   1.297 -0.3267 -0.1758  1.7618
  714MOL0     C94138  -0.835   3.925   1.188 -0.4752  1.1820  0.4029
  714MOL0     C94139  -0.977   3.863   1.187 -0.2262 -0.4276 -0.2189
  714MOL0     O94140  -1.035   3.909   1.067 -0.0897  0.5039  0.4768
  714MOL0     C94141  -1.152   3.856   1.020 -0.9175 -0.1300  0.5673
  714MOL0     C94142  -1.215   3.761   1.098  0.1093  0.7044 -0.1448
  714MOL0     C94143  -1.345   3.733   1.056  0.0356  0.3177 -0.1138
  714MOL0     C94144  -1.409   3.777   0.932 -0.7902 -0.3880  0.2146
  714MOL0     C94145  -1.552   3.750   0.903  0.1351  0.0553  0.8146
  714MOL0     O94146  -1.632   3.833   0.831 -0.1396  0.7550 -0.3434
  714MOL0     C94147  -1.764   3.823   0.841  1.4718  0.7139  0.5318
  714MOL0     C94148  -1.842   3.853   0.726  0.0237 -0.3775 -0.6670
  714MOL0     C94149  -1.984   3.850   0.730  0.0409 -0.7560  0.2146
  714MOL0     C94150  -2.050   3.839   0.853  0.0174 -0.1444 -0.5925
  714MOL0     O94151  -2.185   3.849   0.864  0.1939 -0.3247  0.7264
  714MOL0     C94152  -2.249   3.876   0.993 -0.5532  0.2927  0.2674
  714MOL0     C94153  -2.380   3.946   0.969 -0.0630  0.4317 -0.2473
  714MOL0     C94154  -2.481   3.863   0.884  0.4285  0.5479  0.2189
  714MOL0     C94155  -2.593   3.954   0.837  0.3694 -0.4209 -0.9279
  714MOL0     C94156  -2.683   3.882   0.740 -0.1961  0.1265 -0.4316
  714MOL0     C94157  -2.804   3.963   0.697  0.3860 -0.7019 -0.0043
  714MOL0     C94158  -2.871   3.897   0.574 -0.2825 -0.2005 -0.0093
  714MOL0     C94159  -2.958   4.007   0.510 -0.2367  0.3874  0.9184
  714MOL0    Cl94160  -3.126   3.986   0.557  0.2098  0.1174 -0.4544
  714MOL0     C94161  -1.972   3.813   0.967 -0.1223  0.1219  0.4870
  714MOL0     C94162  -1.837   3.800   0.954  0.2450  0.3273 -0.3979
  714MOL0     O94163  -1.593   3.651   0.961  0.1879 -0.2079  0.6071
  714MOL0     C94164  -1.325   3.857   0.851  0.1911 -0.3605  0.5379
  714MOL0     C94165  -1.201   3.896   0.898  0.0897 -0.2032 -0.2604
  714MOL0     N94166  -0.508   3.937   1.552 -0.6296  0.7139 -0.4280
  714MOL0     N94167  -0.403   3.878   1.591 -0.1532  0.3176 -0.8899
  714MOL0     C94168   0.718   3.162   1.410 -0.5627  0.0831  1.2044
  714MOL0     C94169   0.855   3.165   1.452 -0.2554  0.1195 -0.6476
  714MOL0     C94170   1.264   3.208   1.591  0.2163 -0.3255 -0.7847
  714MOL0     C94171   1.318   3.130   1.694  0.5001 -0.5715 -1.1704
  714MOL0     C94172   1.452   3.111   1.698 -0.4306 -0.3069 -0.1898
  714MOL0     C94173   1.542   3.172   1.608 -0.3211 -0.2926 -0.6564
  714MOL0     O94174   1.672   3.146   1.620  0.7099  0.6300 -0.6370
  714MOL0     C94175   1.728   3.108   1.753 -0.9153 -0.7320  0.5049
  714MOL0     C94176   1.876   3.064   1.736  0.1847 -0.0911  0.3836
  714MOL0     C94177   1.967   3.177   1.692 -0.3545  0.6855  0.1464
  714MOL0     C94178   2.013   3.181   1.548 -0.6351  0.6317  0.2873
  714MOL0     C94179   2.098   3.299   1.531  0.6228  0.8483 -1.1243
  714MOL0     C94180   2.176   3.388   1.517  0.0261  0.4049  0.5868
  714MOL0     C94181   1.494   3.258   1.511  0.6115 -0.0976 -0.2449
  714MOL0     C94182   1.352   3.276   1.503  0.3324  0.0253  0.1166
  714MOL0     H94183   0.901   3.511   1.431 -1.0758  0.3369 -1.7989
  714MOL0     H94184   0.671   3.503   1.384  1.2580 -0.0558 -4.8619
  714MOL0     H94185   0.445   3.472   1.321 -1.1535  2.9004  2.4776
  714MOL0     H94186   0.444   3.430   1.491  2.0975  0.6574 -0.1156
  714MOL0     H94187   0.278   3.259   1.452 -0.8030  0.9958  0.1691
  714MOL0     H94188   0.274   3.295   1.280 -0.3872 -2.0469  0.9872
  714MOL0     H94189   0.187   3.525   1.315  0.7473 -1.0905 -1.3845
  714MOL0     H94190   0.186   3.496   1.490  0.9834  0.9928 -0.0096
  714MOL0     H94191   0.040   3.326   1.279  1.6261  1.5744 -0.2467
  714MOL0     H94192   0.029   3.310   1.454  1.6708 -0.3565 -0.5622
  714MOL0     H94193  -0.154   3.438   1.286  2.9313  0.1213 -1.8642
  714MOL0     H94194  -0.061   3.570   1.321 -0.9265  0.7634  1.3118
  714MOL0     H94195  -0.082   3.544   1.569 -2.3599  2.2398 -0.9973
  714MOL0     H94196  -0.177   3.392   1.537  2.8310 -0.9773  0.8471
  714MOL0     H94197  -0.333   3.545   1.419 -3.7961 -0.2519  1.6554
  714MOL0     H94198  -0.334   3.563   1.584 -0.2167  1.4396 -0.9894
  714MOL0     H94199  -0.172   3.745   1.401 -1.9772  1.7762 -1.5027
  714MOL0     H94200  -0.167   3.759   1.572  2.2257 -0.6130 -0.5437
  714MOL0     H94201  -0.425   3.780   1.283  0.3835 -0.8619  0.1567
  714MOL0     H94202  -0.580   4.018   1.242  0.0628 -1.5568 -0.5270
  714MOL0     H94203  -0.675   4.058   1.388  1.1045  0.3040  0.7032
  714MOL0     H94204  -0.796   3.857   1.389 -1.5482  0.7507  1.1747
  714MOL0     H94205  -0.690   3.776   1.273  0.2492 -0.0229  2.2753
  714MOL0     H94206  -0.844   4.034   1.192 -0.2338  1.2956 -1.4254
  714MOL0     H94207  -0.781   3.898   1.097  1.9121 -1.9363  2.5528
  714MOL0     H94208  -1.035   3.891   1.275  1.0843 -1.3256  0.9631
  714MOL0     H94209  -0.962   3.755   1.195  0.9298 -0.2240  0.6018
  714MOL0     H94210  -1.178   3.711   1.187 -3.4677 -0.3918  0.9106
  714MOL0     H94211  -1.404   3.674   1.125  0.6018 -1.3525 -1.0155
  714MOL0     H94212  -1.787   3.871   0.634  0.8656 -0.6817 -0.2348
  714MOL0     H94213  -2.038   3.864   0.637 -2.4719 -1.2268  1.5111
  714MOL0     H94214  -2.188   3.938   1.060 -1.8591 -0.3585  2.1149
  714MOL0     H94215  -2.259   3.781   1.045  1.4261  0.2944  0.7497
  714MOL0     H94216  -2.359   4.042   0.921 -2.2992  1.2358  0.2730
  714MOL0     H94217  -2.418   3.967   1.069  0.9570 -3.3945  1.1336
  714MOL0     H94218  -2.515   3.769   0.928  3.4545 -0.6159  0.3275
  714MOL0     H94219  -2.429   3.835   0.792  0.0478  0.3414  0.0656
  714MOL0     H94220  -2.648   3.974   0.929  1.0774  0.1962 -0.6392
  714MOL0     H94221  -2.548   4.041   0.790  0.1348  1.1461  1.5631
  714MOL0     H94222  -2.708   3.786   0.787  1.5559 -0.3810 -0.4429
  714MOL0     H94223  -2.632   3.866   0.645 -1.5933 -0.5028 -1.1025
  714MOL0     H94224  -2.769   4.063   0.670 -1.3145 -0.7756 -2.9895
  714MOL0     H94225  -2.883   3.980   0.771  0.7113 -0.6018  0.3215
  714MOL0     H94226  -2.802   3.874   0.492 -0.5334 -0.5845 -0.1175
  714MOL0     H94227  -2.920   3.803   0.601 -0.3474 -0.5737 -1.3160
  714MOL0     H94228  -2.950   3.985   0.403  0.0237 -2.3510  1.4334
  714MOL0     H94229  -2.913   4.105   0.531  1.0039  0.0464  0.0023
  714MOL0     H94230  -2.018   3.785   1.061 -0.4088  0.5066  0.4637
  714MOL0     H94231  -1.780   3.773   1.043  1.1825 -0.7682 -1.3023
  714MOL0     H94232  -1.369   3.890   0.758  0.8999 -2.0794 -0.4441
  714MOL0     H94233  -1.143   3.958   0.830 -0.2671  0.5286  0.0881
  714MOL0     H94234   0.650   3.078   1.404 -0.9374  0.4510 -0.1596
  714MOL0     H94235   0.905   3.073   1.483 -1.7200 -0.0730  1.3472
  714MOL0     H94236   1.254   3.075   1.762 -0.5156  0.8830 -0.9089
  714MOL0     H94237   1.488   3.042   1.774  2.7945 -0.4008 -1.6418
  714MOL0     H94238   1.680   3.021   1.797  0.4702 -1.7434  0.0925
  714MOL0     H94239   1.719   3.197   1.816 -4.6622  1.0353 -2.1229
  714MOL0     H94240   1.903   3.026   1.835  0.6035 -2.3847 -0.5489
  714MOL0     H94241   1.878   2.983   1.662  0.8678  0.8535 -0.6612
  714MOL0     H94242   2.062   3.173   1.746  0.6279 -2.3367 -1.6133
  714MOL0     H94243   1.909   3.267   1.717 -2.1595 -1.1874  3.2702
  714MOL0     H94244   2.083   3.101   1.522 -1.9651  0.3240 -2.8237
  714MOL0     H94245   1.925   3.172   1.483 -1.8144 -2.3932  2.0982
  714MOL0     H94246   2.234   3.474   1.489 -0.8333  0.3658 -1.4745
  714MOL0     H94247   1.558   3.302   1.435 -1.3188  2.0238 -0.7773
  714MOL0     H94248   1.322   3.337   1.418  2.7172 -1.4100 -1.8706
  715MOL0     O94249   1.804   6.598   3.341 -0.2833 -0.1617  0.3052
  715MOL0     C94250   1.861   6.501   3.295 -0.4609 -0.1155  0.3353
  715MOL0     O94251   1.815   6.416   3.199 -0.4083  0.0432 -0.5077
  715MOL0     C94252   1.684   6.394   3.179  0.1705  0.4045  0.4459
  715MOL0     C94253   1.586   6.410   3.280 -0.3595  0.2539  0.1348
  715MOL0     C94254   1.460   6.358   3.258  0.6367 -0.2257  0.3158
  715MOL0     C94255   1.431   6.304   3.127  0.2071  0.7948 -0.3447
  715MOL0     O94256   1.302   6.249   3.095  0.3484 -0.1731 -1.0031
  715MOL0     C94257   1.202   6.261   3.199 -0.0970  1.3361  0.9706
  715MOL0     C94258   1.077   6.214   3.125 -0.7621  0.1778  0.2163
  715MOL0     C94259   0.934   6.261   3.167  0.2142  0.2843 -0.4650
  715MOL0     C94260   0.822   6.194   3.090  0.6451  0.8867 -0.4954
  715MOL0     C94261   0.682   6.242   3.134 -0.6578 -0.1822  0.6283
  715MOL0     C94262   0.685   6.406   3.102 -0.3546 -0.2798 -0.3890
  715MOL0     C94263   0.546   6.470   3.096  0.0613 -0.1463 -0.9421
  715MOL0     C94264   0.453   6.425   2.976  0.0997  0.0236 -0.1518
  715MOL0     N94265   0.329   6.495   2.968 -0.0949 -0.2917  0.1990
  715MOL0     C94266   0.222   6.427   2.922 -0.0654 -0.5062  0.3068
  715MOL0     C94267   0.130   6.524   2.914  0.2123 -1.1624 -0.5476
  715MOL0     C94268  -0.006   6.491   2.860 -0.6610 -0.3021 -0.5016
  715MOL0     C94269  -0.090   6.386   2.942 -0.0643  0.6219 -0.5752
  715MOL0     C94270  -0.149   6.448   3.068  0.0692 -0.0682  0.2393
  715MOL0     C94271  -0.269   6.370   3.129  0.5414  0.3108  0.0892
  715MOL0     O94272  -0.379   6.411   3.057 -0.3538 -0.0621  0.1196
  715MOL0     C94273  -0.500   6.402   3.117 -0.3266 -0.1907  0.4354
  715MOL0     C94274  -0.588   6.513   3.104  0.5177  0.2867  1.3527
  715MOL0     C94275  -0.724   6.505   3.142 -0.0293  0.5968 -0.1545
  715MOL0     C94276  -0.771   6.386   3.202 -0.5203 -0.3264 -0.2300
  715MOL0     C94277  -0.909   6.371   3.223 -0.1364 -0.1630  0.2625
  715MOL0     O94278  -0.984   6.482   3.212 -0.1222 -0.5888 -0.1437
  715MOL0     C94279  -1.123   6.486   3.241 -0.4073 -0.3680  0.1738
  715MOL0     C94280  -1.208   6.381   3.297 -1.1307  0.2702 -0.6536
  715MOL0     C94281  -1.345   6.398   3.324 -0.2249  0.4168  0.2781
  715MOL0     C94282  -1.416   6.510   3.282 -0.5119 -0.6276  0.4115
  715MOL0     O94283  -1.551   6.532   3.296 -0.1016  0.1270  1.0993
  715MOL0     C94284  -1.632   6.442   3.376  0.4278 -0.8000  0.1108
  715MOL0     C94285  -1.764   6.514   3.411  0.2490 -0.4197 -0.1800
  715MOL0     C94286  -1.838   6.447   3.524 -0.2931  0.0713  0.1186
  715MOL0     C94287  -1.960   6.537   3.546  0.7869  0.1294  0.1955
  715MOL0     C94288  -2.075   6.451   3.614 -0.3714 -0.6051 -0.2379
  715MOL0     C94289  -2.206   6.528   3.626  0.4719  0.7485  0.3005
  715MOL0     C94290  -2.321   6.433   3.664 -0.0006  0.7408  0.0487
  715MOL0     C94291  -2.442   6.512   3.700 -0.2722  0.4592 -0.6044
  715MOL0    Cl94292  -2.566   6.405   3.765  0.3270  0.0336  0.1730
  715MOL0     C94293  -1.340   6.614   3.223 -0.2539  0.5885  0.4046
  715MOL0     C94294  -1.199   6.599   3.201 -0.1058  0.0530 -0.0654
  715MOL0     O94295  -0.948   6.261   3.258 -0.2953 -0.0766  0.5706
  715MOL0     C94296  -0.680   6.282   3.232 -0.5679 -0.6098  0.9738
  715MOL0     C94297  -0.546   6.292   3.191  0.0823  0.1847  0.2682
  715MOL0     N94298   0.182   6.647   2.946  0.3006 -0.2236 -0.0072
  715MOL0     N94299   0.301   6.626   2.981 -0.6279 -0.9077 -0.4583
  715MOL0     C94300   1.530   6.284   3.030 -0.0668  0.0337  0.0541
  715MOL0     C94301   1.659   6.330   3.054 -0.1823  0.3695  0.2744
  715MOL0     C94302   2.003   6.500   3.334  0.7209  0.9865  0.7162
  715MOL0     C94303   2.039   6.553   3.458 -0.6446  0.0269 -0.1269
  715MOL0     C94304   2.181   6.558   3.485  0.3764 -0.6401  0.7594
  715MOL0     C94305   2.285   6.510   3.402 -0.6951 -0.2914  0.2889
  715MOL0     O94306   2.414   6.531   3.447 -0.2500  0.5654 -0.2307
  715MOL0     C94307   2.505   6.421   3.419  0.1694  0.9655 -0.1790
  715MOL0     C94308   2.525   6.327   3.547 -0.0566  0.9609  0.1256
  715MOL0     C94309   2.553   6.400   3.673  0.7046 -0.3598 -0.6812
  715MOL0     C94310   2.611   6.307   3.778 -0.0839 -0.7581 -0.2430
  715MOL0     C94311   2.761   6.323   3.792 -0.2098  0.0282  0.2253
  715MOL0     C94312   2.880   6.312   3.796  0.1961  0.4455 -0.0680
  715MOL0     C94313   2.244   6.457   3.279  0.8892  0.8466 -0.0801
  715MOL0     C94314   2.104   6.456   3.242 -1.0277 -0.2075 -0.9867
  715MOL0     H94315   1.602   6.455   3.377 -2.5534 -1.4476  1.3896
  715MOL0     H94316   1.378   6.357   3.329 -0.5025 -1.8786 -0.9462
  715MOL0     H94317   1.194   6.364   3.237  0.7769  1.1061  1.8197
  715MOL0     H94318   1.220   6.193   3.283 -2.6668  1.3954  1.6440
  715MOL0     H94319   1.069   6.105   3.125 -7.4932  0.2318 -1.7852
  715MOL0     H94320   1.088   6.248   3.022 -1.9523 -0.2708 -0.0782
  715MOL0     H94321   0.926   6.370   3.158 -2.4110  0.2340  0.3126
  715MOL0     H94322   0.917   6.232   3.271  0.5480  1.6027 -0.0269
  715MOL0     H94323   0.829   6.212   2.982 -0.4271  0.2669 -0.6809
  715MOL0     H94324   0.827   6.086   3.107  1.4044  0.4496 -3.0940
  715MOL0     H94325   0.657   6.204   3.233 -1.8014 -2.1696 -0.3652
  715MOL0     H94326   0.606   6.201   3.067 -0.7834  0.8840  0.0963
  715MOL0     H94327   0.738   6.439   3.012 -0.5926  3.3865  0.6506
  715MOL0     H94328   0.735   6.450   3.188 -1.5198  2.1048 -0.8347
  715MOL0     H94329   0.504   6.432   3.189  3.8304  0.7875  1.3428
  715MOL0     H94330   0.552   6.579   3.100 -1.0542 -0.0769 -0.6917
  715MOL0     H94331   0.425   6.320   2.993 -1.6616  0.6963  1.3385
  715MOL0     H94332   0.499   6.434   2.877 -0.2628  2.0421 -0.1615
  715MOL0     H94333   0.202   6.326   2.889 -1.5606 -0.5195  1.1462
  715MOL0     H94334   0.011   6.464   2.756  1.0627 -2.0936  0.1681
  715MOL0     H94335  -0.062   6.584   2.869  1.8169  1.1383  1.6321
  715MOL0     H94336  -0.029   6.301   2.974 -2.8176 -0.9838  0.7830
  715MOL0     H94337  -0.169   6.352   2.876  0.0002 -1.1960  0.2207
  715MOL0     H94338  -0.064   6.438   3.136  3.8162 -1.0657 -4.0977
  715MOL0     H94339  -0.180   6.552   3.054 -0.6372 -0.0278  1.8345
  715MOL0     H94340  -0.290   6.391   3.234 -1.4174 -1.9159  0.2085
  715MOL0     H94341  -0.258   6.262   3.116 -1.9779 -0.3726  2.6689
  715MOL0     H94342  -0.557   6.606   3.057 -0.0525 -0.3724 -0.4150
  715MOL0     H94343  -0.788   6.591   3.123 -4.1854 -2.1312  0.1719
  715MOL0     H94344  -1.162   6.293   3.343 -3.2379 -1.5962 -1.8954
  715MOL0     H94345  -1.399   6.318   3.375  1.4940 -0.3099  1.0383
  715MOL0     H94346  -1.580   6.414   3.468  0.4784 -3.3519 -0.6061
  715MOL0     H94347  -1.652   6.350   3.319  0.9508  0.1000 -1.5783
  715MOL0     H94348  -1.827   6.515   3.322 -1.1593  0.1156  0.7877
  715MOL0     H94349  -1.754   6.620   3.438 -1.5992 -0.5740  1.3186
  715MOL0     H94350  -1.777   6.439   3.614  0.3544 -0.8131 -0.3903
  715MOL0     H94351  -1.867   6.345   3.497 -0.2817  0.1720 -0.2912
  715MOL0     H94352  -1.934   6.621   3.611 -2.7918  0.9058  0.8229
  715MOL0     H94353  -1.996   6.580   3.452 -1.7118 -1.1364  0.4917
  715MOL0     H94354  -2.050   6.417   3.715 -1.0335 -2.3555 -0.6346
  715MOL0     H94355  -2.089   6.360   3.556  0.7699  0.3089 -2.0345
  715MOL0     H94356  -2.223   6.567   3.526  0.5338 -0.1706 -0.0811
  715MOL0     H94357  -2.193   6.612   3.695 -0.1536  1.8646 -0.9139
  715MOL0     H94358  -2.350   6.360   3.588 -1.2229  0.9605  0.2758
  715MOL0     H94359  -2.298   6.376   3.755 -1.1985 -0.4818 -0.3791
  715MOL0     H94360  -2.477   6.568   3.613 -2.1361 -0.6611 -0.6227
  715MOL0     H94361  -2.419   6.583   3.780  2.0525 -1.7975  0.9107
  715MOL0     H94362  -1.386   6.712   3.214  0.1547  0.8739  1.3177
  715MOL0     H94363  -1.145   6.689   3.169 -3.2074  1.6155 -1.2793
  715MOL0     H94364  -0.715   6.198   3.292  0.6609  0.6497  3.6374
  715MOL0     H94365  -0.480   6.211   3.219 -1.9303 -1.2089  1.3035
  715MOL0     H94366   1.498   6.245   2.934  0.4737 -0.3369  0.0227
  715MOL0     H94367   1.736   6.313   2.979  0.1678 -2.0957  1.1014
  715MOL0     H94368   1.973   6.603   3.528  1.0501  3.3070 -0.6507
  715MOL0     H94369   2.197   6.609   3.580 -1.1849  1.5067 -0.0544
  715MOL0     H94370   2.607   6.446   3.389  0.3888 -1.6943 -2.0196
  715MOL0     H94371   2.467   6.357   3.338  0.5464  1.4341 -0.7390
  715MOL0     H94372   2.437   6.263   3.554 -0.6407  1.4847 -1.7811
  715MOL0     H94373   2.611   6.264   3.522 -1.2955 -1.1821  0.9769
  715MOL0     H94374   2.456   6.440   3.704 -0.1130 -1.8919 -1.1357
  715MOL0     H94375   2.605   6.494   3.655  0.4682  0.0601  0.7395
  715MOL0     H94376   2.564   6.350   3.867  0.0965 -0.2891 -0.3717
  715MOL0     H94377   2.583   6.205   3.753 -0.3318 -0.5284 -0.9322
  715MOL0     H94378   2.983   6.282   3.798  0.2378  0.6210  0.7312
  715MOL0     H94379   2.318   6.428   3.205  0.6711 -1.1652  0.4273
  715MOL0     H94380   2.075   6.438   3.139 -0.9846 -1.0761 -0.8620
  716MOL0     O94381   7.101   8.319   8.782 -0.1296  0.6106 -0.6468
  716MOL0     C94382   7.131   8.438   8.773 -0.1513  0.0099  0.4015
  716MOL0     O94383   7.057   8.548   8.745  0.0331  0.2073 -0.0431
  716MOL0     C94384   6.914   8.535   8.755 -0.6216 -0.5002  0.0718
  716MOL0     C94385   6.839   8.608   8.669 -0.1054 -0.6700  0.5790
  716MOL0     C94386   6.695   8.621   8.689  0.4129  0.3219 -0.5504
  716MOL0     C94387   6.633   8.545   8.782 -0.1636  0.6520 -0.9406
  716MOL0     O94388   6.496   8.530   8.787 -0.2631  0.1441  0.4608
  716MOL0     C94389   6.423   8.629   8.717  0.6574 -0.6008  0.5794
  716MOL0     C94390   6.280   8.651   8.783 -1.1628 -0.2277 -0.3522
  716MOL0     C94391   6.193   8.741   8.697 -1.3126 -0.2985 -0.0861
  716MOL0     C94392   6.053   8.763   8.758  1.0765  0.2154 -0.0802
  716MOL0     C94393   5.971   8.852   8.660 -0.1311 -0.4589  0.3558
  716MOL0     C94394   5.818   8.859   8.697 -1.3228  0.4487 -0.3799
  716MOL0     C94395   5.724   8.829   8.585 -0.6248 -0.8073 -0.5086
  716MOL0     C94396   5.704   8.946   8.492 -0.1500 -0.3204 -0.5481
  716MOL0     N94397   5.582   8.930   8.402 -0.6816  0.1450 -0.3104
  716MOL0     C94398   5.460   8.988   8.411 -0.4531 -0.1179  1.0951
  716MOL0     C94399   5.378   8.923   8.319  0.1946 -0.4775 -0.3297
  716MOL0     C94400   5.243   8.955   8.278  0.4862  0.0727  0.1090
  716MOL0     C94401   5.192   8.913   8.139  0.2310  0.4847  0.4596
  716MOL0     C94402   5.037   8.920   8.135  0.5315  0.1420  0.0799
  716MOL0     C94403   4.995   9.064   8.144  0.3980  0.6445 -0.2065
  716MOL0     O94404   4.855   9.059   8.121 -0.3774  0.0889  0.1829
  716MOL0     C94405   4.789   9.178   8.108  0.4642 -0.6935  0.3111
  716MOL0     C94406   4.824   9.300   8.162 -0.0052 -0.1387  0.2300
  716MOL0     C94407   4.753   9.414   8.115  0.6274  0.1343 -0.5258
  716MOL0     C94408   4.634   9.408   8.042 -0.3712  0.1541  0.9824
  716MOL0     C94409   4.565   9.532   8.001  0.6620  1.1955  0.2169
  716MOL0     O94410   4.433   9.518   7.952  0.4266  0.3717  0.2046
  716MOL0     C94411   4.388   9.633   7.883  0.0597  0.3902 -0.4169
  716MOL0     C94412   4.258   9.676   7.907 -0.0902 -0.6321 -0.9843
  716MOL0     C94413   4.212   9.792   7.852 -0.7348 -0.2076  0.1277
  716MOL0     C94414   4.286   9.853   7.747  0.1269 -1.1854  0.2171
  716MOL0     O94415   4.215   9.962   7.692  0.2166 -0.4670  0.1908
  716MOL0     C94416   4.222   9.985   7.553 -0.5237 -0.0147  0.1257
  716MOL0     C94417   4.102  10.087   7.528  1.1589 -0.5130 -0.2253
  716MOL0     C94418   3.965  10.037   7.572  0.1418 -0.2634  0.3419
  716MOL0     C94419   3.867  10.144   7.507  0.1356 -1.0115 -0.5802
  716MOL0     C94420   3.761  10.180   7.621  0.9791  0.4469 -0.0536
  716MOL0     C94421   3.665  10.285   7.576  0.7369 -0.5293  0.2488
  716MOL0     C94422   3.571  10.233   7.465  0.2951 -0.2295  0.3617
  716MOL0     C94423   3.442  10.315   7.444 -0.1616 -0.4811 -0.3193
  716MOL0    Cl94424   3.360  10.223   7.311 -0.1975 -0.1915 -0.0116
  716MOL0     C94425   4.409   9.802   7.708  0.3301 -0.4652  0.6947
  716MOL0     C94426   4.463   9.692   7.773 -0.4888  0.0032  0.3699
  716MOL0     O94427   4.624   9.635   8.001 -0.4880  0.1152 -0.4612
  716MOL0     C94428   4.596   9.281   8.012 -1.5105  0.5369 -0.2514
  716MOL0     C94429   4.666   9.167   8.047  0.6011  0.0915 -0.2367
  716MOL0     N94430   5.458   8.828   8.256  0.1048  0.0952  0.1983
  716MOL0     N94431   5.576   8.833   8.305  0.0983  0.1419 -0.3910
  716MOL0     C94432   6.709   8.454   8.859 -1.2168  0.4509 -1.2272
  716MOL0     C94433   6.851   8.464   8.857  0.0758 -0.2042 -0.1337
  716MOL0     C94434   7.281   8.467   8.766  0.4939 -0.2138 -0.1539
  716MOL0     C94435   7.319   8.603   8.736 -0.2573 -0.2078 -1.6262
  716MOL0     C94436   7.453   8.642   8.724 -0.8883  0.2448  0.0132
  716MOL0     C94437   7.556   8.546   8.743 -0.6239 -0.1786  1.0203
  716MOL0     O94438   7.689   8.576   8.740 -0.1433 -0.1018  0.0039
  716MOL0     C94439   7.736   8.701   8.688 -0.0082  0.0289  0.1236
  716MOL0     C94440   7.880   8.682   8.627  1.1784 -0.6956  0.4407
  716MOL0     C94441   7.978   8.651   8.743  0.3974 -0.0327 -0.1431
  716MOL0     C94442   7.973   8.504   8.781 -0.6673 -0.3898 -0.4217
  716MOL0     C94443   8.108   8.457   8.813  0.0674  0.1041 -0.1563
  716MOL0     C94444   8.222   8.444   8.847  0.1091  0.4758 -0.1428
  716MOL0     C94445   7.526   8.409   8.771  0.0671 -0.1493 -0.0069
  716MOL0     C94446   7.389   8.368   8.780  0.3559 -0.5022  0.1592
  716MOL0     H94447   6.894   8.667   8.597  0.4283 -2.0610 -0.1928
  716MOL0     H94448   6.658   8.691   8.615  2.0545  3.3573  1.2588
  716MOL0     H94449   6.404   8.590   8.616  1.0583 -2.3761  1.1613
  716MOL0     H94450   6.470   8.727   8.711  1.6259 -1.1107 -0.9819
  716MOL0     H94451   6.294   8.689   8.885  1.6953 -0.9904 -0.3558
  716MOL0     H94452   6.233   8.552   8.788  3.5417 -2.7651  0.1349
  716MOL0     H94453   6.178   8.708   8.594  1.8139  1.7526 -1.3538
  716MOL0     H94454   6.240   8.840   8.700 -1.2126 -0.3570  1.7176
  716MOL0     H94455   5.997   8.669   8.764  0.4550  0.6207  0.7095
  716MOL0     H94456   6.046   8.800   8.861 -1.5165  1.5260 -0.6322
  716MOL0     H94457   5.978   8.804   8.562 -0.5734 -0.8943  0.5314
  716MOL0     H94458   6.007   8.955   8.660 -3.5071  0.8846 -0.4273
  716MOL0     H94459   5.794   8.955   8.744  1.4174  0.4155  1.3254
  716MOL0     H94460   5.804   8.786   8.777  1.0252  1.2279  0.8408
  716MOL0     H94461   5.757   8.735   8.539 -1.5705 -1.1022 -0.6195
  716MOL0     H94462   5.629   8.814   8.638  0.1190  1.0245  1.4582
  716MOL0     H94463   5.793   8.973   8.435 -0.1518  1.1202  0.0708
  716MOL0     H94464   5.676   9.034   8.551  1.7773  1.7759 -2.5625
  716MOL0     H94465   5.441   9.076   8.473  0.2924  0.2133  0.8636
  716MOL0     H94466   5.225   9.061   8.293 -3.7113 -0.3754 -0.4342
  716MOL0     H94467   5.177   8.900   8.346 -0.8624  2.0274  0.4683
  716MOL0     H94468   5.212   8.807   8.123 -0.7591 -0.0915  2.6475
  716MOL0     H94469   5.216   8.982   8.058 -0.3892 -1.4471 -1.4596
  716MOL0     H94470   4.997   8.877   8.042  1.7194  1.5618 -1.1524
  716MOL0     H94471   4.996   8.865   8.220  0.0895 -2.2056 -1.5372
  716MOL0     H94472   5.049   9.126   8.073  2.8545 -0.9855  0.1018
  716MOL0     H94473   5.019   9.102   8.244  3.0937 -3.3449  0.9119
  716MOL0     H94474   4.913   9.299   8.224 -1.3008 -0.0050  2.1940
  716MOL0     H94475   4.792   9.509   8.150 -2.0967  1.1446  0.0589
  716MOL0     H94476   4.209   9.615   7.982  0.4037 -0.6754 -0.6929
  716MOL0     H94477   4.113   9.831   7.877 -0.3880  0.7380  0.0694
  716MOL0     H94478   4.201   9.891   7.502  1.7289 -1.7294  2.1014
  716MOL0     H94479   4.316  10.034   7.527 -0.9566  0.5425 -0.4198
  716MOL0     H94480   4.096  10.122   7.425  0.5136 -0.5054 -0.1919
  716MOL0     H94481   4.139  10.165   7.595  1.1028 -1.9042  1.5084
  716MOL0     H94482   3.949  10.034   7.680 -0.0014  1.2201  0.3817
  716MOL0     H94483   3.950   9.936   7.534 -1.3966  0.7116 -1.8485
  716MOL0     H94484   3.910  10.243   7.490 -0.9575 -0.4627 -0.3005
  716MOL0     H94485   3.819  10.107   7.416 -0.5813  1.4673 -1.2925
  716MOL0     H94486   3.811  10.217   7.710 -0.5386 -0.3462  1.1782
  716MOL0     H94487   3.716  10.084   7.648  1.9709 -0.3395 -1.0803
  716MOL0     H94488   3.724  10.372   7.546  0.1289  0.1147  0.9067
  716MOL0     H94489   3.609  10.305   7.667  1.2491 -3.4036  1.3118
  716MOL0     H94490   3.629  10.220   7.373 -0.5785 -1.3039 -0.0545
  716MOL0     H94491   3.543  10.134   7.503  1.0440  0.2405  2.2423
  716MOL0     H94492   3.477  10.416   7.420  1.2329 -1.1381 -1.1389
  716MOL0     H94493   3.374  10.308   7.530 -2.0479 -1.1139 -1.7860
  716MOL0     H94494   4.461   9.845   7.623  1.5833  0.1024  1.7138
  716MOL0     H94495   4.553   9.645   7.735  0.5121  0.6315  1.9110
  716MOL0     H94496   4.501   9.267   7.962 -1.6942  0.9974 -0.0329
  716MOL0     H94497   4.629   9.067   8.027  0.5196  0.0634  0.0470
  716MOL0     H94498   6.662   8.391   8.934 -0.5332  1.6822  0.3048
  716MOL0     H94499   6.903   8.406   8.933  0.6874  2.5020  1.6596
  716MOL0     H94500   7.254   8.688   8.716  1.0638  1.4465  0.6044
  716MOL0     H94501   7.477   8.747   8.709  0.7010 -0.0490  0.2442
  716MOL0     H94502   7.742   8.788   8.754 -1.9329 -1.0063  1.7682
  716MOL0     H94503   7.669   8.729   8.607 -1.0401  1.8183  1.5159
  716MOL0     H94504   7.885   8.621   8.536  0.2651 -0.3612  0.1611
  716MOL0     H94505   7.912   8.779   8.587 -2.4066  0.0359 -1.0810
  716MOL0     H94506   7.959   8.718   8.828 -1.4303  3.9687 -3.3395
  716MOL0     H94507   8.080   8.671   8.707  2.0545  1.0095  4.4248
  716MOL0     H94508   7.902   8.485   8.862  1.3958  1.2291  1.9357
  716MOL0     H94509   7.944   8.452   8.690 -1.9260 -0.0650 -0.2221
  716MOL0     H94510   8.316   8.399   8.868 -0.4944 -0.7455  0.0500
  716MOL0     H94511   7.608   8.341   8.789  2.2933  2.2701 -0.3911
  716MOL0     H94512   7.381   8.262   8.805  1.1327 -1.0947 -1.8500
  717MOL0     O94513   2.301   3.141   3.943  0.5065 -0.5640  0.2199
  717MOL0     C94514   2.319   3.196   3.836 -0.9832 -0.8719  0.3245
  717MOL0     O94515   2.234   3.285   3.771  0.4997 -0.1380 -0.0259
  717MOL0     C94516   2.104   3.295   3.824  0.2282  0.4695  0.5699
  717MOL0     C94517   2.002   3.205   3.785 -0.2849 -0.6132  0.5061
  717MOL0     C94518   1.871   3.216   3.819 -0.2069 -0.2462  0.0292
  717MOL0     C94519   1.834   3.329   3.906 -0.3010  0.7704  0.2531
  717MOL0     O94520   1.711   3.351   3.960  0.3384 -0.0696  0.0533
  717MOL0     C94521   1.627   3.230   3.987 -0.3387 -0.2166 -0.3990
  717MOL0     C94522   1.534   3.236   4.103 -0.4819  0.2756 -0.1706
  717MOL0     C94523   1.459   3.372   4.108  1.1511  0.0025 -0.6273
  717MOL0     C94524   1.358   3.362   4.220  0.5643 -0.7751 -0.1603
  717MOL0     C94525   1.285   3.499   4.221  0.3192 -0.4044 -0.4018
  717MOL0     C94526   1.186   3.507   4.336  0.5140 -1.0858  0.2781
  717MOL0     C94527   1.099   3.642   4.332  0.8389 -0.4990 -1.4313
  717MOL0     C94528   1.151   3.741   4.442  0.0909 -0.4260 -0.1818
  717MOL0     N94529   1.101   3.875   4.416  0.2688  0.5771 -1.1485
  717MOL0     C94530   0.969   3.912   4.394 -0.1447 -0.2041 -0.2330
  717MOL0     C94531   0.973   4.046   4.379  0.0551 -0.2509 -0.7184
  717MOL0     C94532   0.852   4.147   4.360 -0.3558  0.3237  0.0114
  717MOL0     C94533   0.781   4.176   4.494 -0.4296  0.1716 -0.0913
  717MOL0     C94534   0.684   4.068   4.541 -0.0241  0.0933  0.0700
  717MOL0     C94535   0.601   4.125   4.655  0.5462  0.0757  0.2643
  717MOL0     O94536   0.521   4.025   4.723 -0.0583  0.6692  0.1449
  717MOL0     C94537   0.401   4.060   4.784 -0.1904  0.2540 -0.5525
  717MOL0     C94538   0.370   4.013   4.915 -0.4668 -0.6544 -0.1616
  717MOL0     C94539   0.265   4.071   4.983  0.3833 -0.2133  0.1815
  717MOL0     C94540   0.173   4.158   4.928  0.4209  0.1808  0.5718
  717MOL0     C94541   0.061   4.220   5.012  0.1641  0.0215  0.6327
  717MOL0     O94542  -0.013   4.315   4.951 -0.4047 -0.3688 -0.1860
  717MOL0     C94543  -0.097   4.391   5.026  0.4859 -0.1785  0.1784
  717MOL0     C94544  -0.172   4.360   5.142  0.7167  0.1167  0.5111
  717MOL0     C94545  -0.247   4.458   5.200  0.9808 -0.1124 -0.3163
  717MOL0     C94546  -0.243   4.589   5.159  0.6126  0.8518 -0.6051
  717MOL0     O94547  -0.308   4.677   5.243  0.5355  0.8578  0.0214
  717MOL0     C94548  -0.333   4.805   5.200  0.3260  0.1269 -0.2483
  717MOL0     C94549  -0.463   4.853   5.254 -0.1057  0.2488 -0.4866
  717MOL0     C94550  -0.435   4.940   5.380 -0.4095 -0.8366 -0.0103
  717MOL0     C94551  -0.559   4.996   5.449  0.4330  0.2342  0.7350
  717MOL0     C94552  -0.521   5.102   5.549 -0.3840 -0.3221  0.4198
  717MOL0     C94553  -0.639   5.126   5.643  0.3412  0.2069 -0.1685
  717MOL0     C94554  -0.768   5.205   5.596  0.1505  0.7849  0.1497
  717MOL0     C94555  -0.729   5.337   5.514 -0.0207  0.2572 -0.5712
  717MOL0    Cl94556  -0.871   5.433   5.462 -0.1576  0.1449  0.1790
  717MOL0     C94557  -0.167   4.625   5.047  0.1212  0.1520 -1.0235
  717MOL0     C94558  -0.106   4.520   4.972 -0.5161 -0.2068 -0.7464
  717MOL0     O94559   0.049   4.189   5.134  0.7251  0.0620 -0.1449
  717MOL0     C94560   0.198   4.196   4.789 -0.1561 -0.3660 -0.0799
  717MOL0     C94561   0.311   4.150   4.720 -0.7873  0.6631 -0.1404
  717MOL0     N94562   1.108   4.083   4.379 -0.1854  0.3017  0.6337
  717MOL0     N94563   1.180   3.974   4.389 -0.3981  0.0564  0.2616
  717MOL0     C94564   1.932   3.420   3.951 -0.2576  0.3843  0.6983
  717MOL0     C94565   2.061   3.406   3.898  0.1621 -0.6212  0.1468
  717MOL0     C94566   2.464   3.202   3.787 -0.1108  0.6416 -0.3823
  717MOL0     C94567   2.571   3.144   3.865 -0.7606  0.4478 -0.4073
  717MOL0     C94568   2.705   3.139   3.816 -0.8049 -0.6168 -1.3139
  717MOL0     C94569   2.744   3.196   3.700 -0.0661 -0.9673 -0.4358
  717MOL0     O94570   2.874   3.205   3.652  0.3773 -0.0579  0.4930
  717MOL0     C94571   2.995   3.175   3.726  0.1101 -0.1771 -0.0062
  717MOL0     C94572   3.111   3.133   3.629 -0.0295  0.4258  0.6834
  717MOL0     C94573   3.140   3.236   3.520 -0.4248 -0.5052 -0.3586
  717MOL0     C94574   3.265   3.191   3.427 -0.3823 -0.4477  0.1080
  717MOL0     C94575   3.389   3.203   3.499  0.1781 -0.8383 -0.2820
  717MOL0     C94576   3.478   3.211   3.576 -0.4376  0.1301 -0.1730
  717MOL0     C94577   2.641   3.260   3.626 -0.0893 -0.7638  0.0797
  717MOL0     C94578   2.506   3.253   3.662 -0.0111  0.5317  0.5410
  717MOL0     H94579   2.018   3.125   3.713 -0.7875 -0.0976 -0.1922
  717MOL0     H94580   1.802   3.142   3.781  0.7390 -2.0171  1.5777
  717MOL0     H94581   1.681   3.136   4.003 -0.7162  0.1779  4.9100
  717MOL0     H94582   1.563   3.228   3.898 -2.2152 -0.4433  0.9180
  717MOL0     H94583   1.587   3.221   4.197 -1.4684 -0.3810  0.2877
  717MOL0     H94584   1.465   3.152   4.097  0.9719 -1.1211  1.7025
  717MOL0     H94585   1.413   3.379   4.009 -1.8359 -0.7007  0.5989
  717MOL0     H94586   1.534   3.451   4.116  2.9323 -1.5425 -1.4661
  717MOL0     H94587   1.295   3.277   4.194 -0.0916  0.0315 -1.2942
  717MOL0     H94588   1.404   3.348   4.318 -0.4058  0.7082  0.5320
  717MOL0     H94589   1.238   3.516   4.124 -0.0663  1.4936  0.0678
  717MOL0     H94590   1.350   3.586   4.231 -2.4085  1.7559 -0.2359
  717MOL0     H94591   1.237   3.489   4.431 -1.2563  0.5693  1.6228
  717MOL0     H94592   1.124   3.417   4.327  0.1609 -0.9070  0.8507
  717MOL0     H94593   1.115   3.693   4.237 -0.4515  3.4188  0.2441
  717MOL0     H94594   0.998   3.614   4.362  0.8132 -0.0477 -1.0828
  717MOL0     H94595   1.261   3.742   4.437  0.0396  0.6283 -2.2064
  717MOL0     H94596   1.124   3.702   4.540 -1.5848  0.8836 -0.0880
  717MOL0     H94597   0.882   3.846   4.398  0.2234 -0.6970 -0.2698
  717MOL0     H94598   0.778   4.105   4.291 -1.2756  1.1546  0.4704
  717MOL0     H94599   0.885   4.240   4.314 -1.4872  0.3070 -0.8686
  717MOL0     H94600   0.713   4.263   4.490 -2.5032 -1.3827 -0.4003
  717MOL0     H94601   0.854   4.198   4.572 -1.4827  3.1570  0.2235
  717MOL0     H94602   0.616   4.042   4.460  1.8848 -0.2600 -1.5003
  717MOL0     H94603   0.736   3.981   4.582  0.4389  0.3689  0.0745
  717MOL0     H94604   0.533   4.193   4.603 -1.1539 -1.8122 -0.1307
  717MOL0     H94605   0.669   4.178   4.722  0.2414 -0.9783  1.4588
  717MOL0     H94606   0.440   3.938   4.950 -0.0581 -0.0289  0.3862
  717MOL0     H94607   0.254   4.054   5.090  1.5789 -1.7427  0.0882
  717MOL0     H94608  -0.169   4.258   5.180  0.1017  0.4928  1.5900
  717MOL0     H94609  -0.297   4.428   5.291  1.2548 -0.4595 -0.2785
  717MOL0     H94610  -0.342   4.806   5.091  0.1162 -0.6753 -0.2395
  717MOL0     H94611  -0.253   4.874   5.232  0.8967 -0.4947 -0.3171
  717MOL0     H94612  -0.536   4.776   5.282 -0.6274  1.3015  1.2059
  717MOL0     H94613  -0.500   4.919   5.175  2.5405  4.0298  1.1051
  717MOL0     H94614  -0.350   5.007   5.362 -0.4866 -1.6157 -4.7881
  717MOL0     H94615  -0.391   4.866   5.447 -0.1331 -1.6701 -1.0766
  717MOL0     H94616  -0.619   5.047   5.373  1.3650  2.4227  1.3774
  717MOL0     H94617  -0.614   4.910   5.488 -0.4962 -1.1631 -3.1872
  717MOL0     H94618  -0.491   5.192   5.495  0.4519 -1.3148 -0.8242
  717MOL0     H94619  -0.435   5.064   5.605  0.0958 -0.0456 -0.1263
  717MOL0     H94620  -0.605   5.171   5.737  0.8757 -1.1263  0.2975
  717MOL0     H94621  -0.678   5.029   5.675  0.3491 -0.2676 -1.5437
  717MOL0     H94622  -0.820   5.136   5.529 -0.3460  1.2844  0.0059
  717MOL0     H94623  -0.841   5.229   5.673  0.7480 -0.7946  1.2422
  717MOL0     H94624  -0.666   5.314   5.428  3.2065 -1.5111  2.0513
  717MOL0     H94625  -0.667   5.395   5.583  0.2225 -0.0549 -0.5240
  717MOL0     H94626  -0.167   4.727   5.010 -1.4030  0.8557  0.7178
  717MOL0     H94627  -0.052   4.548   4.882  2.3415 -3.9897 -0.4701
  717MOL0     H94628   0.139   4.271   4.738  0.7209  0.0570 -0.4885
  717MOL0     H94629   0.329   4.179   4.617  2.3078 -2.4789 -0.6977
  717MOL0     H94630   1.908   3.510   4.007 -0.0125  0.5943  0.4645
  717MOL0     H94631   2.141   3.475   3.921 -0.9647  0.4238  1.0846
  717MOL0     H94632   2.552   3.101   3.962 -2.5171 -0.7372 -1.2312
  717MOL0     H94633   2.775   3.096   3.887 -1.4009  3.9681  2.5115
  717MOL0     H94634   2.978   3.091   3.794 -0.6944  0.4681  0.6268
  717MOL0     H94635   3.022   3.269   3.774 -2.4138 -0.0548  1.3549
  717MOL0     H94636   3.197   3.108   3.693  1.9651  0.0415 -1.9838
  717MOL0     H94637   3.073   3.040   3.585 -2.0645  0.2337  2.6314
  717MOL0     H94638   3.161   3.334   3.564 -1.4557 -0.3298 -0.2357
  717MOL0     H94639   3.047   3.253   3.465 -0.6150  1.4835  0.4777
  717MOL0     H94640   3.250   3.088   3.393 -0.7551 -0.8981  1.5581
  717MOL0     H94641   3.283   3.267   3.351  0.7609 -2.5758 -1.8711
  717MOL0     H94642   3.567   3.217   3.635 -1.6826  0.1106  1.8057
  717MOL0     H94643   2.664   3.311   3.533 -0.3346 -1.7896 -0.5638
  717MOL0     H94644   2.432   3.277   3.586  0.4299 -3.5687 -1.4853
  718MOL0     O94645   8.625   6.360   1.743  0.0323 -0.2674 -0.4414
  718MOL0     C94646   8.716   6.348   1.824 -0.6860  0.4028  0.4617
  718MOL0     O94647   8.702   6.329   1.960 -0.3694 -0.0254  0.6529
  718MOL0     C94648   8.570   6.341   2.009  0.9114 -0.5655 -0.3870
  718MOL0     C94649   8.535   6.247   2.104 -0.1037  0.0137 -0.2050
  718MOL0     C94650   8.410   6.245   2.161 -0.1508  0.1125 -0.1753
  718MOL0     C94651   8.317   6.344   2.137 -0.3813  0.9129 -0.5127
  718MOL0     O94652   8.191   6.325   2.186  0.2918 -0.5883  0.2137
  718MOL0     C94653   8.081   6.410   2.143  0.8698  0.6545 -0.2629
  718MOL0     C94654   8.049   6.521   2.238  0.4144 -0.3835  0.0095
  718MOL0     C94655   7.974   6.638   2.187  0.9041 -0.7463 -0.5398
  718MOL0     C94656   7.930   6.740   2.299  0.4561  0.0985  0.9265
  718MOL0     C94657   7.811   6.838   2.260 -0.7639 -0.3709  0.3477
  718MOL0     C94658   7.671   6.786   2.266 -0.1465 -0.5221  0.8064
  718MOL0     C94659   7.586   6.911   2.268  0.0808 -0.5943 -0.4620
  718MOL0     C94660   7.435   6.874   2.247 -0.4621 -0.8719 -0.5169
  718MOL0     N94661   7.351   6.990   2.253 -0.9961  1.0025 -0.0900
  718MOL0     C94662   7.219   6.959   2.259 -1.4866 -0.3618  0.0953
  718MOL0     C94663   7.158   7.088   2.251  0.5954 -0.1527  0.9692
  718MOL0     C94664   7.002   7.100   2.237  0.1798 -0.1316 -0.1278
  718MOL0     C94665   6.924   7.062   2.366 -0.1947  0.4183 -0.0120
  718MOL0     C94666   6.775   7.043   2.358 -0.1323 -0.4472 -0.0209
  718MOL0     C94667   6.699   7.158   2.299  0.4225 -0.6945  0.5892
  718MOL0     O94668   6.567   7.166   2.360  0.0070  0.6936 -0.5805
  718MOL0     C94669   6.480   7.261   2.310  0.2082  0.0209 -0.0400
  718MOL0     C94670   6.510   7.354   2.212  0.0534 -0.3661 -0.2103
  718MOL0     C94671   6.409   7.449   2.180  0.8887  0.3169  0.0168
  718MOL0     C94672   6.284   7.443   2.237  0.2263 -0.1590 -0.9125
  718MOL0     C94673   6.175   7.537   2.204 -0.9151 -0.1357  0.4589
  718MOL0     O94674   6.056   7.522   2.266 -0.0372 -0.0527 -0.2017
  718MOL0     C94675   5.966   7.621   2.249  0.2767  0.3165 -0.1537
  718MOL0     C94676   5.960   7.730   2.334 -0.0826 -0.0568  0.7122
  718MOL0     C94677   5.862   7.825   2.308  0.3407 -0.3157 -0.4492
  718MOL0     C94678   5.772   7.820   2.203 -0.1891  0.4855  0.0971
  718MOL0     O94679   5.685   7.922   2.168  0.1663  0.5838  0.2510
  718MOL0     C94680   5.550   7.884   2.147 -0.6004 -0.3582 -0.3711
  718MOL0     C94681   5.478   8.012   2.110 -0.2391  0.1967  0.3501
  718MOL0     C94682   5.322   7.990   2.101  0.2835  0.5216  0.0399
  718MOL0     C94683   5.279   7.971   1.956 -0.3729  0.6382 -0.8133
  718MOL0     C94684   5.130   7.941   1.925 -0.1035  0.1997 -0.4187
  718MOL0     C94685   5.059   7.828   2.004  0.1429 -0.7314  0.8478
  718MOL0     C94686   4.936   7.769   1.925 -0.4004  0.7948 -0.1415
  718MOL0     C94687   4.845   7.877   1.865  0.9844 -0.5429  0.1653
  718MOL0    Cl94688   4.698   7.800   1.801 -0.2066  0.1123 -0.3696
  718MOL0     C94689   5.777   7.708   2.125  0.3380  0.3261  0.1350
  718MOL0     C94690   5.874   7.616   2.147 -0.0939 -0.3933 -0.2345
  718MOL0     O94691   6.204   7.630   2.127  0.5033  0.0488 -0.1687
  718MOL0     C94692   6.261   7.343   2.338 -0.1424 -0.4263  0.5443
  718MOL0     C94693   6.357   7.251   2.372 -0.1552  0.3144 -0.1782
  718MOL0     N94694   7.250   7.185   2.233  0.1309  0.2182 -0.3351
  718MOL0     N94695   7.367   7.127   2.239 -0.8891  0.1562 -0.2482
  718MOL0     C94696   8.355   6.448   2.051  0.8823  0.5569 -0.3759
  718MOL0     C94697   8.475   6.449   1.991 -0.4165 -0.4422 -0.1002
  718MOL0     C94698   8.852   6.341   1.772 -0.0252 -0.2745 -0.4617
  718MOL0     C94699   8.964   6.366   1.855  0.9089 -0.5869 -0.3556
  718MOL0     C94700   9.096   6.343   1.811 -1.0193 -0.1056  0.7168
  718MOL0     C94701   9.119   6.324   1.673 -0.0800 -0.3505  0.2958
  718MOL0     O94702   9.245   6.305   1.616  0.1005  0.5909 -0.1982
  718MOL0     C94703   9.359   6.301   1.696 -0.1876  0.0671 -0.5702
  718MOL0     C94704   9.372   6.173   1.785 -0.9396 -0.1520  0.2726
  718MOL0     C94705   9.396   6.038   1.707 -0.1225 -0.1456  0.0473
  718MOL0     C94706   9.257   5.966   1.692  0.3482  0.5226  0.2809
  718MOL0     C94707   9.275   5.857   1.595  0.0530  0.7868  0.2760
  718MOL0     C94708   9.282   5.771   1.510 -0.8357 -0.4485 -0.4706
  718MOL0     C94709   9.004   6.314   1.587  0.2541 -0.6349  0.5819
  718MOL0     C94710   8.872   6.315   1.634  0.2032  0.1773 -0.1611
  718MOL0     H94711   8.602   6.163   2.117 -1.4463 -1.1315 -0.3668
  718MOL0     H94712   8.375   6.176   2.237  0.0972  2.5968  2.3503
  718MOL0     H94713   7.983   6.362   2.138  1.2065 -0.0910  0.1321
  718MOL0     H94714   8.093   6.442   2.039  3.4270 -1.4036 -0.7008
  718MOL0     H94715   8.141   6.568   2.275 -0.4267  2.1577 -0.9251
  718MOL0     H94716   7.995   6.479   2.324  2.6105  0.0436  1.7047
  718MOL0     H94717   7.886   6.591   2.143 -1.2508  1.7298  0.8844
  718MOL0     H94718   8.021   6.690   2.103 -2.0702  1.4429 -1.0015
  718MOL0     H94719   7.897   6.685   2.388 -2.6437  1.2363  0.6186
  718MOL0     H94720   8.017   6.801   2.324 -0.0457  1.4833 -0.5516
  718MOL0     H94721   7.818   6.879   2.158 -0.7769  0.4309  0.6625
  718MOL0     H94722   7.819   6.918   2.334  0.3612 -0.4835  0.3686
  718MOL0     H94723   7.665   6.735   2.363 -1.2589 -0.9725  0.5152
  718MOL0     H94724   7.651   6.723   2.179  3.9396 -2.0480  0.7424
  718MOL0     H94725   7.595   6.962   2.365 -1.6909 -2.4300  0.7469
  718MOL0     H94726   7.616   6.971   2.182  2.6852 -2.4787 -0.9783
  718MOL0     H94727   7.407   6.795   2.317 -0.5221 -0.5636 -0.1888
  718MOL0     H94728   7.421   6.839   2.144 -0.6572  0.4447 -0.9563
  718MOL0     H94729   7.177   6.860   2.274  1.9992 -2.4639 -2.5587
  718MOL0     H94730   6.968   7.034   2.157 -0.0532 -1.4138  0.9730
  718MOL0     H94731   6.971   7.201   2.212  0.4605 -0.4709 -1.9417
  718MOL0     H94732   6.925   7.153   2.426 -0.3947 -0.2896  1.1038
  718MOL0     H94733   6.977   6.981   2.417  1.8358  1.4416 -0.3950
  718MOL0     H94734   6.755   6.949   2.307  2.9562 -0.3984 -1.5526
  718MOL0     H94735   6.742   7.035   2.462 -2.8329 -3.5487 -0.9605
  718MOL0     H94736   6.695   7.149   2.190 -1.7726  2.2823  0.2909
  718MOL0     H94737   6.738   7.258   2.319 -1.9880  0.7241 -1.2119
  718MOL0     H94738   6.611   7.360   2.172 -0.0147  3.7608 -0.1547
  718MOL0     H94739   6.429   7.521   2.102 -0.4357  0.4208 -0.2386
  718MOL0     H94740   6.018   7.747   2.425 -1.7109  0.6744  1.6537
  718MOL0     H94741   5.863   7.911   2.373 -3.6640 -0.1785 -0.3406
  718MOL0     H94742   5.502   7.831   2.230 -1.1741 -1.1816 -1.2138
  718MOL0     H94743   5.539   7.812   2.066  0.5350 -1.2831  0.2629
  718MOL0     H94744   5.516   8.049   2.014 -1.7006 -1.3452 -0.9037
  718MOL0     H94745   5.493   8.090   2.185  0.2968 -0.7754  1.2820
  718MOL0     H94746   5.267   8.075   2.143 -0.0488  1.5349 -2.2854
  718MOL0     H94747   5.287   7.901   2.154 -0.0543 -0.6007 -1.9839
  718MOL0     H94748   5.313   8.063   1.906 -0.2043  2.4659  2.4336
  718MOL0     H94749   5.334   7.880   1.928 -0.5084 -0.1148  1.2123
  718MOL0     H94750   5.111   7.915   1.820 -0.9893  0.4331 -0.3288
  718MOL0     H94751   5.077   8.037   1.932 -0.6622  0.0309 -1.9460
  718MOL0     H94752   5.026   7.882   2.094 -1.0336 -1.5146  0.9048
  718MOL0     H94753   5.140   7.760   2.031  1.5306  0.4701 -0.1235
  718MOL0     H94754   4.958   7.697   1.845  1.3286  0.9468  0.1682
  718MOL0     H94755   4.889   7.694   1.989 -1.0218  1.2981  0.0047
  718MOL0     H94756   4.892   7.929   1.781 -1.1762  2.4034  0.5867
  718MOL0     H94757   4.810   7.948   1.941 -1.7722  0.5249 -1.9129
  718MOL0     H94758   5.714   7.689   2.039  0.6854 -2.9465  0.4950
  718MOL0     H94759   5.867   7.530   2.081 -1.1107 -0.6640  0.2044
  718MOL0     H94760   6.165   7.346   2.389 -0.6951  2.1945 -0.4919
  718MOL0     H94761   6.340   7.177   2.448 -0.4462  0.1085 -0.4396
  718MOL0     H94762   8.278   6.523   2.034  1.4643  0.6232 -3.2708
  718MOL0     H94763   8.494   6.534   1.925  0.9557 -0.3274  0.4078
  718MOL0     H94764   8.949   6.367   1.962  4.5949  0.8181  0.2774
  718MOL0     H94765   9.178   6.360   1.878  0.3650  2.1032 -1.3649
  718MOL0     H94766   9.365   6.394   1.753 -1.8287 -0.7169  0.9663
  718MOL0     H94767   9.454   6.307   1.641  0.5033  0.0693  0.5871
  718MOL0     H94768   9.458   6.200   1.846 -1.4455  0.7881  0.5979
  718MOL0     H94769   9.304   6.154   1.869  0.2101 -0.5969  1.1372
  718MOL0     H94770   9.457   5.976   1.773  0.1235  2.4290  2.3807
  718MOL0     H94771   9.435   6.058   1.606  3.0020 -0.8562  1.0031
  718MOL0     H94772   9.231   5.920   1.788 -1.3580 -0.6048 -0.6776
  718MOL0     H94773   9.171   6.027   1.664 -1.3152 -1.3417  1.0736
  718MOL0     H94774   9.280   5.695   1.434 -1.9135 -2.2118  1.2448
  718MOL0     H94775   9.026   6.305   1.481  0.0384  0.2790  0.4457
  718MOL0     H94776   8.783   6.316   1.573 -0.2425  1.5374  0.4806
  719MOL0     O94777  10.555   4.472   7.475  0.4397  0.1638 -0.0825
  719MOL0     C94778  10.543   4.592   7.502  0.2380 -0.7282 -0.1133
  719MOL0     O94779  10.420   4.661   7.532  0.2550 -0.2231  0.1775
  719MOL0     C94780  10.312   4.581   7.527  0.9590 -0.3158 -0.4953
  719MOL0     C94781  10.219   4.589   7.423  0.1462 -0.0446  0.8876
  719MOL0     C94782  10.104   4.513   7.426  0.0225 -0.5070  0.2329
  719MOL0     C94783  10.069   4.444   7.538 -0.1492  1.0892  0.1292
  719MOL0     O94784   9.939   4.384   7.546 -0.1231 -0.5336 -0.1816
  719MOL0     C94785   9.847   4.454   7.633 -0.3432  0.8152 -0.8308
  719MOL0     C94786   9.734   4.358   7.675  1.5698  0.8126 -0.1560
  719MOL0     C94787   9.656   4.414   7.802  0.0088 -0.0027 -0.7706
  719MOL0     C94788   9.532   4.336   7.843 -0.1345  0.0410 -0.2176
  719MOL0     C94789   9.409   4.375   7.761  0.1978 -0.7436  0.9499
  719MOL0     C94790   9.301   4.279   7.788  0.5499  0.5642 -0.5259
  719MOL0     C94791   9.183   4.311   7.703 -0.0934 -0.6664  0.5186
  719MOL0     C94792   9.074   4.207   7.710 -0.3344  0.1311  0.0887
  719MOL0     N94793   8.951   4.266   7.763  0.0596 -0.4435 -0.3024
  719MOL0     C94794   8.945   4.313   7.895 -0.5191  0.3244  0.3301
  719MOL0     C94795   8.844   4.402   7.894  0.6885  0.5169 -0.6565
  719MOL0     C94796   8.777   4.482   8.007  0.6695  0.5781  0.2881
  719MOL0     C94797   8.877   4.583   8.053 -0.0150 -0.4227 -0.3571
  719MOL0     C94798   8.839   4.644   8.187  0.2849 -0.4088 -0.2633
  719MOL0     C94799   8.714   4.736   8.178 -0.2436  0.1990 -0.0792
  719MOL0     O94800   8.715   4.849   8.264  0.5535 -0.2970 -0.2157
  719MOL0     C94801   8.606   4.856   8.336  0.1992 -1.1751  0.2366
  719MOL0     C94802   8.569   4.771   8.438 -0.8154 -0.4478  0.0482
  719MOL0     C94803   8.449   4.771   8.506 -0.5486  0.2628 -0.1732
  719MOL0     C94804   8.349   4.869   8.471 -0.9603  0.1183 -0.0137
  719MOL0     C94805   8.219   4.883   8.546 -0.1962 -0.7271  0.4277
  719MOL0     O94806   8.155   5.004   8.538 -0.6545  0.1986 -0.4556
  719MOL0     C94807   8.031   5.010   8.578 -0.3262 -0.0246  0.0445
  719MOL0     C94808   7.977   4.953   8.695  0.3053 -1.0216 -0.1394
  719MOL0     C94809   7.846   4.982   8.732  0.4476 -0.7015  0.0463
  719MOL0     C94810   7.758   5.057   8.650 -0.3827 -0.9441  0.1024
  719MOL0     O94811   7.629   5.093   8.691  0.6232  0.0070  0.4193
  719MOL0     C94812   7.568   5.024   8.796  0.2567 -0.1333 -0.5459
  719MOL0     C94813   7.435   5.096   8.832  0.4321  0.8117  0.0926
  719MOL0     C94814   7.372   5.027   8.948  0.5277  0.4111 -0.7240
  719MOL0     C94815   7.242   5.103   8.976 -0.3325  0.2267  0.2588
  719MOL0     C94816   7.154   5.038   9.086  0.1114 -0.2927 -0.2466
  719MOL0     C94817   7.049   4.961   9.012  0.3586 -0.2447  0.4019
  719MOL0     C94818   6.956   4.881   9.093 -0.8546  0.2276 -0.6186
  719MOL0     C94819   6.867   4.775   9.017 -0.1420 -0.8449  0.0272
  719MOL0    Cl94820   6.698   4.824   8.975  0.2470  0.3982  0.0569
  719MOL0     C94821   7.819   5.109   8.537  0.3635  0.3424  0.2125
  719MOL0     C94822   7.947   5.087   8.496  0.0674  0.2373  1.0378
  719MOL0     O94823   8.166   4.778   8.585 -0.4488 -0.3270  0.1806
  719MOL0     C94824   8.379   4.956   8.367 -0.1209  0.9965  0.3226
  719MOL0     C94825   8.506   4.947   8.301  0.1007  0.2954 -0.0578
  719MOL0     N94826   8.792   4.402   7.764  0.1443 -0.2506  0.3516
  719MOL0     N94827   8.851   4.319   7.691 -0.4661  0.2073 -0.4784
  719MOL0     C94828  10.161   4.438   7.642 -0.1561 -0.2725 -0.8688
  719MOL0     C94829  10.279   4.505   7.645  0.6460  0.2943  0.6648
  719MOL0     C94830  10.660   4.675   7.516 -0.4762 -0.7755 -0.4940
  719MOL0     C94831  10.783   4.622   7.466 -0.0614  0.2961  0.1813
  719MOL0     C94832  10.897   4.695   7.481 -0.4300  0.6066  0.1964
  719MOL0     C94833  10.903   4.824   7.549 -0.5135 -0.4545  0.0487
  719MOL0     O94834  11.024   4.888   7.554  0.5669 -0.7094 -0.1616
  719MOL0     C94835  11.006   5.027   7.511 -0.0595 -0.2129 -0.1796
  719MOL0     C94836  11.137   5.071   7.428  0.4699  0.8245  0.0081
  719MOL0     C94837  11.138   5.001   7.302  0.3889 -0.5739 -0.0351
  719MOL0     C94838  11.272   5.025   7.229 -0.4630 -0.4931 -0.1908
  719MOL0     C94839  11.300   5.165   7.202  0.3350 -0.6648 -0.2735
  719MOL0     C94840  11.320   5.277   7.165  0.8756 -0.1301  0.1406
  719MOL0     C94841  10.783   4.872   7.603 -0.9896 -0.5720  1.2992
  719MOL0     C94842  10.663   4.801   7.589 -0.2757  0.2282  0.3203
  719MOL0     H94843  10.234   4.636   7.326  0.0082 -1.9122 -0.0948
  719MOL0     H94844  10.039   4.510   7.340  2.8451 -1.4849 -2.0458
  719MOL0     H94845   9.816   4.551   7.593  0.6141  1.3278 -0.3732
  719MOL0     H94846   9.896   4.468   7.730  1.5936 -2.0384 -1.2744
  719MOL0     H94847   9.765   4.262   7.716 -1.2389  0.8907  2.5819
  719MOL0     H94848   9.662   4.349   7.593 -1.7424 -1.4199  2.6762
  719MOL0     H94849   9.621   4.516   7.791 -1.2449 -0.2073  0.9133
  719MOL0     H94850   9.725   4.416   7.887 -2.1542 -2.7517  1.2556
  719MOL0     H94851   9.542   4.227   7.833 -1.7159 -0.2830  1.3670
  719MOL0     H94852   9.512   4.352   7.949  1.9090  0.7424  0.1072
  719MOL0     H94853   9.437   4.369   7.655  2.1515  3.2727  1.0344
  719MOL0     H94854   9.389   4.482   7.773  0.3997 -0.3965 -1.2583
  719MOL0     H94855   9.264   4.303   7.888  0.2541 -0.5147 -0.3682
  719MOL0     H94856   9.330   4.174   7.784 -2.0215 -0.2392  0.2833
  719MOL0     H94857   9.145   4.409   7.734  1.0110  0.8684 -2.5839
  719MOL0     H94858   9.220   4.323   7.601  3.9766  0.3982  1.9128
  719MOL0     H94859   9.120   4.123   7.764  3.4247  1.9122 -0.0162
  719MOL0     H94860   9.054   4.172   7.609  0.9089 -1.1518  0.2407
  719MOL0     H94861   9.016   4.281   7.970  0.0513  1.7354  0.4041
  719MOL0     H94862   8.740   4.419   8.088 -1.9103  1.7369  0.1035
  719MOL0     H94863   8.684   4.530   7.974  0.0485 -0.4782  0.4639
  719MOL0     H94864   8.895   4.667   7.986 -3.7566  2.3056  1.6773
  719MOL0     H94865   8.970   4.528   8.071 -1.0448 -1.8884  0.8324
  719MOL0     H94866   8.820   4.562   8.258 -3.5124  1.0668  0.7176
  719MOL0     H94867   8.927   4.701   8.218  1.2746 -1.0270 -1.8497
  719MOL0     H94868   8.635   4.661   8.189  0.7159 -1.0728 -1.5012
  719MOL0     H94869   8.709   4.768   8.074  1.1303 -1.1267 -0.6026
  719MOL0     H94870   8.645   4.698   8.464 -0.9571 -0.3062  0.8719
  719MOL0     H94871   8.441   4.698   8.586  0.4325  1.6644  1.2911
  719MOL0     H94872   8.039   4.889   8.757 -0.3110 -0.8442  0.6836
  719MOL0     H94873   7.813   4.958   8.832  2.7148  2.8238  1.8614
  719MOL0     H94874   7.638   5.018   8.879 -0.4091  2.2404  0.2656
  719MOL0     H94875   7.540   4.923   8.765 -2.9602  0.8268 -1.1689
  719MOL0     H94876   7.357   5.104   8.756 -2.3474 -1.3631  2.4566
  719MOL0     H94877   7.472   5.193   8.865  2.9301 -0.9306  2.8918
  719MOL0     H94878   7.448   5.031   9.026  1.1905 -2.5851 -1.0621
  719MOL0     H94879   7.345   4.921   8.934 -2.1917  0.9387 -0.0995
  719MOL0     H94880   7.282   5.200   9.008 -0.0348 -1.1093  4.4015
  719MOL0     H94881   7.178   5.111   8.888 -0.3713  1.2154  0.3702
  719MOL0     H94882   7.107   5.117   9.146  0.4967 -0.8173  0.7678
  719MOL0     H94883   7.218   4.975   9.148 -3.3964 -2.9998  0.9426
  719MOL0     H94884   7.098   4.887   8.948 -0.7523 -3.7653  3.2760
  719MOL0     H94885   6.987   5.027   8.952  0.8345 -1.6684 -1.7748
  719MOL0     H94886   7.022   4.827   9.162 -0.4414  1.2920 -0.1542
  719MOL0     H94887   6.903   4.941   9.168 -2.1237 -1.6086  0.0027
  719MOL0     H94888   6.842   4.691   9.083 -4.1132  0.1791  0.0821
  719MOL0     H94889   6.911   4.726   8.929 -0.7980  2.4772 -2.3268
  719MOL0     H94890   7.756   5.175   8.478 -0.3033  0.4548  1.0379
  719MOL0     H94891   7.984   5.128   8.403 -1.2447  1.2693  0.9457
  719MOL0     H94892   8.305   5.024   8.324 -0.1317  0.9869  0.3261
  719MOL0     H94893   8.507   5.019   8.220  0.1592  1.2946  0.8048
  719MOL0     H94894  10.132   4.385   7.732 -1.4752  0.6295 -0.7391
  719MOL0     H94895  10.344   4.486   7.729  0.6922 -2.6754  0.0809
  719MOL0     H94896  10.795   4.524   7.420 -0.0413  0.8779 -1.0780
  719MOL0     H94897  10.988   4.646   7.447 -1.2379 -0.8316  0.0116
  719MOL0     H94898  10.999   5.100   7.593 -2.4509 -0.3614 -0.2010
  719MOL0     H94899  10.919   5.041   7.445  1.9326  6.8012 -2.2860
  719MOL0     H94900  11.116   5.177   7.416 -1.0153  0.8788  2.4214
  719MOL0     H94901  11.226   5.044   7.486 -0.0999 -0.3544  0.3711
  719MOL0     H94902  11.053   5.042   7.246  0.0186  1.3691  1.8202
  719MOL0     H94903  11.119   4.895   7.322  1.5513 -0.1569  4.1926
  719MOL0     H94904  11.353   4.978   7.286  1.6151 -0.2366 -2.7517
  719MOL0     H94905  11.281   4.974   7.133 -1.5091 -1.5316  0.2379
  719MOL0     H94906  11.337   5.372   7.118 -0.1776  0.8594  1.6640
  719MOL0     H94907  10.776   4.963   7.661 -3.9706 -0.4777  0.9653
  719MOL0     H94908  10.567   4.837   7.627  0.3235  3.4674 -0.8919
  720MOL0     O94909   7.863   2.004   6.388 -0.2596  0.5601 -0.3952
  720MOL0     C94910   7.896   1.905   6.329 -0.1561 -0.1089 -1.0323
  720MOL0     O94911   7.818   1.801   6.289 -0.0803  0.4568 -0.2968
  720MOL0     C94912   7.685   1.815   6.310 -0.0474 -0.5450 -0.4372
  720MOL0     C94913   7.611   1.846   6.196 -0.2460  0.8587  0.2052
  720MOL0     C94914   7.470   1.834   6.194  0.6929  0.5846 -0.7542
  720MOL0     C94915   7.403   1.779   6.305 -0.2973  0.3986 -0.6187
  720MOL0     O94916   7.268   1.763   6.309 -0.6621  0.3941  0.0284
  720MOL0     C94917   7.201   1.839   6.408 -0.3697 -0.3824 -0.5611
  720MOL0     C94918   7.052   1.841   6.404 -0.0273  1.0091 -0.0283
  720MOL0     C94919   7.006   1.695   6.385  0.0737  1.6980  0.6520
  720MOL0     C94920   6.858   1.681   6.380  0.6250  1.1035  0.3728
  720MOL0     C94921   6.828   1.529   6.346 -0.6328  0.2315  0.4114
  720MOL0     C94922   6.672   1.513   6.335 -0.2503 -0.8143  0.4738
  720MOL0     C94923   6.598   1.545   6.468 -0.4028  0.2481 -0.3550
  720MOL0     C94924   6.488   1.448   6.505 -0.4711  0.0745  0.3201
  720MOL0     N94925   6.411   1.496   6.622  0.0064  0.8128  0.0077
  720MOL0     C94926   6.342   1.614   6.624  0.2803 -0.2893  0.1867
  720MOL0     C94927   6.262   1.603   6.740  0.3115  0.1156 -0.1301
  720MOL0     C94928   6.166   1.704   6.789 -0.1587  0.6310  0.3079
  720MOL0     C94929   6.032   1.681   6.719 -0.4121 -1.4324 -0.2342
  720MOL0     C94930   5.967   1.548   6.731  0.1609 -0.1126 -0.9155
  720MOL0     C94931   5.855   1.533   6.628 -0.8002  0.3095  0.0976
  720MOL0     O94932   5.750   1.620   6.652  0.6016 -0.2553 -0.3876
  720MOL0     C94933   5.639   1.615   6.567  0.4494 -0.3073 -0.1208
  720MOL0     C94934   5.547   1.725   6.578 -0.3147 -0.4288  0.6679
  720MOL0     C94935   5.435   1.728   6.496 -0.1114 -0.2331  0.2606
  720MOL0     C94936   5.411   1.626   6.399  0.6208 -0.1346  0.5283
  720MOL0     C94937   5.291   1.633   6.306 -0.0439 -0.2982 -0.8394
  720MOL0     O94938   5.255   1.523   6.241  0.3523 -0.0945  0.5111
  720MOL0     C94939   5.131   1.523   6.183 -0.1757  0.8538 -0.1107
  720MOL0     C94940   5.016   1.585   6.228 -0.1778  0.6888 -0.4924
  720MOL0     C94941   4.895   1.572   6.167 -0.0023 -0.0287 -0.1491
  720MOL0     C94942   4.879   1.480   6.065  0.1474  0.5144  0.6877
  720MOL0     O94943   4.758   1.467   6.009  0.5496 -0.5908 -0.1689
  720MOL0     C94944   4.749   1.413   5.873 -0.5239  0.6309  0.7965
  720MOL0     C94945   4.605   1.410   5.825 -0.1008  0.1755 -0.5577
  720MOL0     C94946   4.596   1.373   5.678  0.7014  1.5708 -0.3119
  720MOL0     C94947   4.469   1.408   5.591  0.5402 -0.4418 -0.8278
  720MOL0     C94948   4.412   1.553   5.609  1.9252  0.1934  0.2066
  720MOL0     C94949   4.311   1.581   5.499  1.3102 -0.3980 -0.8481
  720MOL0     C94950   4.201   1.473   5.502 -0.5952  0.0652  0.5169
  720MOL0     C94951   4.058   1.510   5.445  0.5749 -0.0510 -0.3542
  720MOL0    Cl94952   4.072   1.564   5.275  0.1671 -0.3250  0.3969
  720MOL0     C94953   4.992   1.411   6.021 -0.8654  0.1651 -0.9068
  720MOL0     C94954   5.122   1.434   6.076  0.7597 -0.1668  0.8605
  720MOL0     O94955   5.232   1.745   6.290 -0.4938 -0.3424 -0.3161
  720MOL0     C94956   5.495   1.514   6.398  0.0683 -0.6083  0.3822
  720MOL0     C94957   5.611   1.513   6.477 -0.2998 -0.1064 -0.4341
  720MOL0     N94958   6.287   1.483   6.798  0.6203  0.7601 -0.5838
  720MOL0     N94959   6.381   1.418   6.731  0.0564 -0.4021  0.0854
  720MOL0     C94960   7.482   1.748   6.420 -0.8629 -0.2132 -0.0677
  720MOL0     C94961   7.625   1.758   6.417 -0.2473  0.0063 -0.0716
  720MOL0     C94962   8.041   1.893   6.318  0.0038  0.7612 -0.4455
  720MOL0     C94963   8.100   1.766   6.284 -0.4078 -0.7737 -0.4066
  720MOL0     C94964   8.237   1.747   6.272 -0.5154  0.1315 -0.8646
  720MOL0     C94965   8.319   1.858   6.286 -0.0945 -0.1867  0.2335
  720MOL0     O94966   8.449   1.841   6.256 -0.7031  1.0401 -0.3724
  720MOL0     C94967   8.550   1.920   6.322  0.2047  0.6372 -0.3540
  720MOL0     C94968   8.564   1.905   6.473 -0.5253  0.6450 -0.2857
  720MOL0     C94969   8.667   2.004   6.534 -1.0089 -0.4444  0.5111
  720MOL0     C94970   8.808   1.948   6.530  0.0439  0.3068  0.7840
  720MOL0     C94971   8.903   2.013   6.615 -0.6622  0.6833  0.1422
  720MOL0     C94972   8.999   2.066   6.666 -0.0703  0.6606 -0.8490
  720MOL0     C94973   8.262   1.989   6.318 -0.2675 -0.2030  0.4532
  720MOL0     C94974   8.125   2.005   6.335  0.3463 -0.0552  0.0171
  720MOL0     H94975   7.672   1.871   6.110 -0.2387  3.7531  0.9446
  720MOL0     H94976   7.412   1.874   6.111 -1.2683 -2.7971 -1.2049
  720MOL0     H94977   7.240   1.942   6.407 -4.3871  1.3362 -0.5636
  720MOL0     H94978   7.206   1.787   6.504 -2.7220 -1.0502 -0.7430
  720MOL0     H94979   7.027   1.892   6.311  0.9602 -1.2063 -1.6019
  720MOL0     H94980   7.007   1.879   6.496 -0.7862 -2.1088  1.0046
  720MOL0     H94981   7.051   1.638   6.468 -1.0679  2.0055  1.5028
  720MOL0     H94982   7.045   1.657   6.290  1.5590  2.1986  1.0285
  720MOL0     H94983   6.827   1.713   6.480  0.1139 -0.3317  0.6832
  720MOL0     H94984   6.816   1.744   6.300  0.7500 -0.5236 -1.0244
  720MOL0     H94985   6.871   1.458   6.417 -1.6582 -0.2162  0.6075
  720MOL0     H94986   6.862   1.509   6.245 -2.6553 -0.4004 -0.1853
  720MOL0     H94987   6.635   1.421   6.289  2.6561 -0.7215 -2.4433
  720MOL0     H94988   6.633   1.586   6.263 -1.9077  1.4421  3.4246
  720MOL0     H94989   6.669   1.554   6.550  0.1109 -0.1310 -0.7549
  720MOL0     H94990   6.546   1.639   6.449  0.5022  0.3477 -2.6582
  720MOL0     H94991   6.531   1.350   6.531 -1.6769 -0.3693  0.7449
  720MOL0     H94992   6.430   1.431   6.414 -1.3420  0.6240  0.7574
  720MOL0     H94993   6.346   1.705   6.564  0.8566 -0.8884 -0.7069
  720MOL0     H94994   6.205   1.799   6.752 -1.2743  1.0222  0.0983
  720MOL0     H94995   6.147   1.706   6.897 -1.3998 -1.2256  0.1821
  720MOL0     H94996   6.051   1.705   6.614 -0.2567  2.0143  0.4359
  720MOL0     H94997   5.968   1.761   6.757  1.2447 -0.1792  0.0494
  720MOL0     H94998   6.035   1.465   6.715 -2.6218 -3.1644  1.6979
  720MOL0     H94999   5.927   1.536   6.832  0.2779  1.7336 -0.5997
  720MOL0     H95000   5.837   1.426   6.642  0.6352  0.3998  4.3950
  720MOL0     H95001   5.896   1.548   6.528  1.8956 -1.9903  0.7432
  720MOL0     H95002   5.564   1.799   6.655 -0.2267 -1.9791  2.1882
  720MOL0     H95003   5.363   1.810   6.500  0.5298  0.3668 -0.3114
  720MOL0     H95004   5.017   1.642   6.320 -0.2529  0.5302 -0.3915
  720MOL0     H95005   4.811   1.634   6.195 -1.0863 -0.5035 -2.1515
  720MOL0     H95006   4.788   1.311   5.877  0.5954  1.0484  0.8691
  720MOL0     H95007   4.812   1.465   5.800 -1.2969 -5.2022 -4.8582
  720MOL0     H95008   4.569   1.513   5.832  0.3718  0.2774  0.5934
  720MOL0     H95009   4.545   1.350   5.894  1.0050  0.1610  0.4168
  720MOL0     H95010   4.595   1.264   5.674 -3.0112  1.4551  0.2026
  720MOL0     H95011   4.674   1.409   5.610  1.8889 -0.3413 -0.0455
  720MOL0     H95012   4.497   1.400   5.486  0.1042  1.5271 -1.1293
  720MOL0     H95013   4.394   1.337   5.627  1.0773 -1.0434 -0.8742
  720MOL0     H95014   4.496   1.622   5.600  0.6509  1.6717 -1.2088
  720MOL0     H95015   4.370   1.569   5.709  1.6489 -0.2031  0.1543
  720MOL0     H95016   4.352   1.585   5.398  0.2659  0.3999 -1.2644
  720MOL0     H95017   4.267   1.679   5.520  2.5208 -0.0775  0.3081
  720MOL0     H95018   4.238   1.393   5.437  2.8848  1.5953  0.3954
  720MOL0     H95019   4.185   1.431   5.602 -0.5209 -0.5036  0.2945
  720MOL0     H95020   4.016   1.597   5.496  0.9337  1.4638 -2.5054
  720MOL0     H95021   3.988   1.427   5.456 -1.2128  1.4999  0.6042
  720MOL0     H95022   4.976   1.328   5.953 -0.9115 -1.9435  1.5282
  720MOL0     H95023   5.214   1.384   6.047  1.2974  1.8397 -1.1847
  720MOL0     H95024   5.474   1.438   6.325 -0.8307  0.0576 -0.0723
  720MOL0     H95025   5.674   1.424   6.471 -1.9338 -1.2130 -2.1590
  720MOL0     H95026   7.433   1.716   6.511 -3.5960  3.9470  0.2652
  720MOL0     H95027   7.684   1.712   6.495  0.6487  1.9566  0.4498
  720MOL0     H95028   8.024   1.689   6.272  0.4812 -1.7180 -0.0874
  720MOL0     H95029   8.268   1.646   6.246 -2.0529 -0.9581  1.1672
  720MOL0     H95030   8.527   2.022   6.288 -0.5725  0.2015 -1.1827
  720MOL0     H95031   8.642   1.888   6.272  0.3385 -0.1441  0.3727
  720MOL0     H95032   8.466   1.925   6.517 -1.0796 -2.9482  0.4086
  720MOL0     H95033   8.592   1.803   6.498 -0.4363  0.7628  0.1058
  720MOL0     H95034   8.638   2.015   6.639 -3.0741 -2.6014  0.2471
  720MOL0     H95035   8.668   2.103   6.488 -1.2106  0.1073  1.6514
  720MOL0     H95036   8.799   1.844   6.563 -3.0286 -0.3869 -1.7206
  720MOL0     H95037   8.831   1.950   6.424 -2.0762  0.1956  0.2737
  720MOL0     H95038   9.088   2.113   6.703  1.3135 -0.3908 -2.6274
  720MOL0     H95039   8.326   2.075   6.334 -0.9831  0.5588 -0.6477
  720MOL0     H95040   8.099   2.108   6.355  1.5806  0.4492 -0.8076
  721MOL0     O95041   0.407   1.902  10.554 -0.0011 -0.3155 -0.0421
  721MOL0     C95042   0.519   1.878  10.600  0.4652  0.0381 -0.5929
  721MOL0     O95043   0.540   1.791  10.708  0.5706 -0.0767  0.4461
  721MOL0     C95044   0.426   1.740  10.768  0.3903 -1.2346 -0.4653
  721MOL0     C95045   0.384   1.796  10.893  0.2953  0.1784 -0.3660
  721MOL0     C95046   0.276   1.743  10.962 -0.3644  0.1226  0.4166
  721MOL0     C95047   0.210   1.635  10.913  0.2008  0.4039  0.2622
  721MOL0     O95048   0.098   1.579  10.968 -0.0859  0.4676 -0.4987
  721MOL0     C95049  -0.029   1.645  10.934  0.1117 -0.5471 -0.9222
  721MOL0     C95050  -0.090   1.593  10.801 -0.4007 -0.2883 -0.4841
  721MOL0     C95051  -0.142   1.454  10.826  0.1736 -0.9189 -0.3692
  721MOL0     C95052  -0.227   1.411  10.711  0.4301 -0.2425  0.1542
  721MOL0     C95053  -0.313   1.288  10.728  1.0428  0.4065 -0.5987
  721MOL0     C95054  -0.409   1.297  10.857  0.5031  1.1796 -0.1606
  721MOL0     C95055  -0.504   1.419  10.853 -0.1382  0.2432  0.0867
  721MOL0     C95056  -0.584   1.434  10.722 -0.1434  0.4154 -0.1116
  721MOL0     N95057  -0.652   1.566  10.723  0.4694 -0.8608 -0.2635
  721MOL0     C95058  -0.594   1.688  10.709 -1.0724  1.1348 -0.2664
  721MOL0     C95059  -0.693   1.779  10.735 -0.4021  0.2584 -0.3254
  721MOL0     C95060  -0.689   1.927  10.743  0.1081  0.4546  0.0265
  721MOL0     C95061  -0.658   1.997  10.606 -0.0630 -0.0257 -0.1237
  721MOL0     C95062  -0.643   2.152  10.622 -0.8286  0.3150  0.0934
  721MOL0     C95063  -0.505   2.183  10.689  0.5127  0.2141 -0.6243
  721MOL0     O95064  -0.491   2.322  10.715  0.1339  0.2193  0.2689
  721MOL0     C95065  -0.394   2.373  10.796 -0.2819 -0.8877  0.0981
  721MOL0     C95066  -0.285   2.295  10.840  0.0817  0.1729 -0.1568
  721MOL0     C95067  -0.164   2.358  10.887  1.1043  0.3960 -0.4703
  721MOL0     C95068  -0.172   2.498  10.906  0.1458  0.2786  0.2961
  721MOL0     C95069  -0.047   2.563  10.967  0.5810 -0.1806  0.4535
  721MOL0     O95070   0.063   2.483  10.978 -0.0220 -0.4776 -0.3746
  721MOL0     C95071   0.181   2.537  11.026 -0.9379  0.1919  0.7189
  721MOL0     C95072   0.264   2.452  11.102 -1.0992  0.5951  1.2454
  721MOL0     C95073   0.394   2.483  11.139  0.0381 -0.5972 -0.8297
  721MOL0     C95074   0.448   2.613  11.102  0.0413  0.3721  0.1879
  721MOL0     O95075   0.580   2.648  11.106  0.2380  1.0260  0.7575
  721MOL0     C95076   0.675   2.554  11.160 -0.2147 -0.0264  0.5869
  721MOL0     C95077   0.801   2.637  11.186  0.3719 -0.2264 -0.7561
  721MOL0     C95078   0.847   2.688  11.047  0.8932 -0.6064 -0.2219
  721MOL0     C95079   0.994   2.733  11.041  0.0318  0.3129 -0.1724
  721MOL0     C95080   1.018   2.820  10.909  0.3876  0.0750  0.3483
  721MOL0     C95081   1.158   2.885  10.889 -0.1067  0.8110  0.8317
  721MOL0     C95082   1.183   2.927  10.742 -0.6099 -0.6055 -0.3439
  721MOL0     C95083   1.321   2.996  10.720  0.1028 -0.1521 -0.5327
  721MOL0    Cl95084   1.462   2.877  10.762  0.1366 -0.2028 -0.1953
  721MOL0     C95085   0.363   2.707  11.036 -0.2502  0.6379  0.3167
  721MOL0     C95086   0.233   2.664  11.000 -0.3722 -0.1785  0.2366
  721MOL0     O95087  -0.050   2.675  11.005 -0.0343  0.0471  0.9069
  721MOL0     C95088  -0.293   2.567  10.881 -0.7961 -0.4036 -0.6391
  721MOL0     C95089  -0.401   2.503  10.826  0.1492 -0.6703 -0.7350
  721MOL0     N95090  -0.815   1.711  10.749 -0.8010 -0.4154 -0.6978
  721MOL0     N95091  -0.782   1.584  10.735  0.5874  0.1674 -0.1932
  721MOL0     C95092   0.262   1.569  10.796 -0.1400  0.3158 -0.6871
  721MOL0     C95093   0.366   1.619  10.713 -0.1591  0.5952 -0.5109
  721MOL0     C95094   0.633   1.940  10.534  0.3905  0.2324  0.4962
  721MOL0     C95095   0.619   2.006  10.405  0.2341  0.0570 -1.0473
  721MOL0     C95096   0.727   2.070  10.341  0.7025 -0.1892 -0.3792
  721MOL0     C95097   0.856   2.081  10.405 -0.4732 -0.1016  0.1041
  721MOL0     O95098   0.965   2.136  10.334  0.6817  0.2777  0.2214
  721MOL0     C95099   1.099   2.127  10.379  1.3102 -0.7161  0.0318
  721MOL0     C95100   1.150   1.988  10.348 -0.2617 -0.2673  0.0230
  721MOL0     C95101   1.131   1.952  10.198 -0.1814  1.0851  0.6048
  721MOL0     C95102   1.172   1.815  10.158 -0.5879 -0.4867 -0.1284
  721MOL0     C95103   1.307   1.781  10.205 -0.0239 -0.4593  0.3896
  721MOL0     C95104   1.421   1.760  10.240  0.9709 -0.4991 -0.3888
  721MOL0     C95105   0.865   2.007  10.529  0.4401  0.3866  0.0793
  721MOL0     C95106   0.759   1.942  10.587  0.3053  0.9249 -0.3635
  721MOL0     H95107   0.442   1.875  10.939  2.0482 -1.9200  1.2576
  721MOL0     H95108   0.245   1.796  11.051 -0.6405 -0.9795  0.9975
  721MOL0     H95109  -0.012   1.752  10.923  0.7725 -0.7839 -2.4083
  721MOL0     H95110  -0.106   1.631  11.011  1.4159  1.3733  0.8576
  721MOL0     H95111  -0.019   1.594  10.718  1.0370 -0.9602  0.6880
  721MOL0     H95112  -0.170   1.663  10.776  0.7223  0.8850 -0.8846
  721MOL0     H95113  -0.202   1.444  10.917 -0.8359  1.0527 -0.7661
  721MOL0     H95114  -0.054   1.390  10.842  2.7657  2.6132  0.9233
  721MOL0     H95115  -0.284   1.497  10.673 -0.1017  1.1422  3.7066
  721MOL0     H95116  -0.155   1.386  10.633  3.5703 -0.5520  2.9361
  721MOL0     H95117  -0.258   1.196  10.750 -1.4581 -0.4688  2.7267
  721MOL0     H95118  -0.371   1.284  10.635 -2.2046  0.8517  1.2373
  721MOL0     H95119  -0.350   1.308  10.948  1.5169  0.3698 -0.6909
  721MOL0     H95120  -0.472   1.207  10.862 -1.2448  2.2697 -1.3464
  721MOL0     H95121  -0.574   1.436  10.935  0.5914  2.6365  0.2865
  721MOL0     H95122  -0.441   1.508  10.863  2.3723 -1.5119  0.8522
  721MOL0     H95123  -0.646   1.345  10.719  0.2377  0.0631  1.4254
  721MOL0     H95124  -0.518   1.418  10.636  0.0152  0.3402  0.0227
  721MOL0     H95125  -0.488   1.698  10.688 -1.1337  1.0923 -0.5986
  721MOL0     H95126  -0.611   1.952  10.815 -0.2676  0.9349  0.2740
  721MOL0     H95127  -0.788   1.952  10.781  0.6302  0.2974  1.5560
  721MOL0     H95128  -0.742   1.987  10.537  0.0134  0.0980 -0.2348
  721MOL0     H95129  -0.566   1.963  10.559  1.3540  1.0499  1.7219
  721MOL0     H95130  -0.647   2.201  10.524  0.1318 -2.3685 -1.4060
  721MOL0     H95131  -0.722   2.193  10.686  1.7554  2.4811  2.1452
  721MOL0     H95132  -0.418   2.148  10.633 -0.0337 -1.5760 -0.4101
  721MOL0     H95133  -0.496   2.127  10.782  1.2649  1.8374  0.3192
  721MOL0     H95134  -0.282   2.188  10.823 -1.5190 -0.0211  0.5320
  721MOL0     H95135  -0.085   2.289  10.914 -1.3076 -1.8653  1.4548
  721MOL0     H95136   0.241   2.346  11.100  1.0469 -0.0268 -3.0297
  721MOL0     H95137   0.452   2.411  11.196  0.3288 -0.8608 -1.4485
  721MOL0     H95138   0.706   2.481  11.085  1.8245  1.0377  0.3191
  721MOL0     H95139   0.638   2.510  11.252 -0.0759  0.3281  0.8166
  721MOL0     H95140   0.881   2.579  11.233  0.8590  0.6274 -0.4891
  721MOL0     H95141   0.791   2.723  11.254  4.2142 -1.3112  1.4639
  721MOL0     H95142   0.789   2.778  11.024  0.3722 -1.2957 -1.7587
  721MOL0     H95143   0.834   2.613  10.968 -0.7332  0.0262 -0.5841
  721MOL0     H95144   1.022   2.798  11.124  1.8311 -1.1023  0.4134
  721MOL0     H95145   1.061   2.646  11.039 -1.8251 -1.1698 -0.9178
  721MOL0     H95146   0.950   2.905  10.913  1.0487  0.7224 -1.3392
  721MOL0     H95147   0.994   2.764  10.818  1.6933  1.3673 -0.8491
  721MOL0     H95148   1.243   2.823  10.919  0.0489 -0.3765 -1.7710
  721MOL0     H95149   1.160   2.966  10.963  1.8472 -1.1894  3.1460
  721MOL0     H95150   1.170   2.840  10.678 -0.0330  0.2333 -1.6491
  721MOL0     H95151   1.104   2.994  10.706 -1.3272 -1.5565 -0.5808
  721MOL0     H95152   1.324   3.085  10.783  1.3115  0.8023 -1.8526
  721MOL0     H95153   1.326   3.028  10.616  1.3684  0.6509 -0.2536
  721MOL0     H95154   0.401   2.800  10.995  0.1362  1.3261  2.1436
  721MOL0     H95155   0.179   2.736  10.941  2.4997 -0.0282 -2.4583
  721MOL0     H95156  -0.297   2.675  10.892  3.2646 -0.1931  0.2366
  721MOL0     H95157  -0.486   2.566  10.803  0.2783  0.1067  0.7547
  721MOL0     H95158   0.202   1.480  10.775  0.5312  0.1409 -1.9302
  721MOL0     H95159   0.408   1.576  10.623 -1.3088 -1.8537  0.0433
  721MOL0     H95160   0.522   2.010  10.356 -0.0608 -0.4943 -0.5254
  721MOL0     H95161   0.711   2.115  10.244 -3.5994  0.5020  0.4292
  721MOL0     H95162   1.115   2.132  10.487  1.7018  0.3134 -0.0689
  721MOL0     H95163   1.166   2.196  10.328  1.5239 -1.9526 -1.4445
  721MOL0     H95164   1.254   1.980  10.380 -0.9097 -0.0540  2.4100
  721MOL0     H95165   1.098   1.914  10.409  2.8436 -1.7295  1.0627
  721MOL0     H95166   1.184   2.016  10.126  0.1377 -0.9284 -1.0502
  721MOL0     H95167   1.024   1.956  10.174 -0.2182 -0.2737  0.4931
  721MOL0     H95168   1.104   1.746  10.209 -0.7778 -1.2086 -1.3179
  721MOL0     H95169   1.167   1.804  10.049  0.0078  1.2232 -0.3557
  721MOL0     H95170   1.523   1.740  10.269  0.9424 -1.0066 -0.6325
  721MOL0     H95171   0.960   2.002  10.582 -0.4880  1.6396  1.9618
  721MOL0     H95172   0.764   1.901  10.687 -1.6909  2.5915  0.5047
  722MOL0     O95173   2.044   9.073   7.449 -0.0684 -0.0268 -0.3625
  722MOL0     C95174   2.081   8.962   7.490 -0.3383 -0.6965 -0.6074
  722MOL0     O95175   2.008   8.859   7.509 -0.1347 -0.3018 -0.0723
  722MOL0     C95176   1.873   8.837   7.482 -0.5413  0.3896 -0.2427
  722MOL0     C95177   1.832   8.709   7.515  0.3824  0.4757  0.2785
  722MOL0     C95178   1.689   8.675   7.497 -0.0522  0.2134  0.8101
  722MOL0     C95179   1.602   8.772   7.436  0.4030  0.6188  0.1888
  722MOL0     O95180   1.468   8.746   7.406 -0.0128 -0.1884 -0.1984
  722MOL0     C95181   1.374   8.823   7.489 -1.0443  0.6385  0.4651
  722MOL0     C95182   1.235   8.814   7.434  0.1810 -0.2140 -0.2546
  722MOL0     C95183   1.201   8.669   7.432 -0.6671 -0.1519 -0.3865
  722MOL0     C95184   1.041   8.664   7.410  0.3122  0.5236  0.2536
  722MOL0     C95185   0.984   8.522   7.403 -0.4295  0.0664 -0.3171
  722MOL0     C95186   0.833   8.535   7.377 -0.4757 -0.2966 -0.3276
  722MOL0     C95187   0.767   8.397   7.358 -0.3385 -0.0574  0.5976
  722MOL0     C95188   0.615   8.404   7.346  0.3646  0.4729  0.6693
  722MOL0     N95189   0.542   8.277   7.331 -0.1453 -0.1812 -0.1914
  722MOL0     C95190   0.432   8.236   7.402 -0.0370  0.4896 -0.0940
  722MOL0     C95191   0.393   8.123   7.336 -0.6109 -0.6120  0.0527
  722MOL0     C95192   0.273   8.047   7.357 -0.1218 -0.9359 -0.4083
  722MOL0     C95193   0.152   8.122   7.282 -0.3769  0.1871 -0.1364
  722MOL0     C95194   0.105   8.038   7.161  0.0870  0.3432  0.2663
  722MOL0     C95195  -0.042   8.055   7.133  0.5977  0.1945  0.2201
  722MOL0     O95196  -0.133   8.004   7.238 -0.0045 -0.0631 -0.0382
  722MOL0     C95197  -0.271   8.005   7.214  0.4360 -0.2938  0.4758
  722MOL0     C95198  -0.342   7.916   7.298  0.3971 -0.4554  0.1602
  722MOL0     C95199  -0.483   7.907   7.273  0.0514  0.2150  0.6123
  722MOL0     C95200  -0.542   7.985   7.176  0.0691  0.1351  0.7655
  722MOL0     C95201  -0.689   8.001   7.165 -0.3595  0.6506  0.8175
  722MOL0     O95202  -0.747   8.094   7.081  0.0468 -0.4807  0.6824
  722MOL0     C95203  -0.878   8.117   7.098  0.1407 -0.0897  0.6346
  722MOL0     C95204  -1.008   7.950   7.107  0.2453  0.2220  0.3685
  722MOL0     C95205  -1.219   7.978   7.076 -0.0589  0.1998 -0.8807
  722MOL0     C95206  -1.293   8.173   7.044 -0.3534  0.3964 -0.1523
  722MOL0     O95207  -1.435   8.182   7.047  0.5296  0.0676 -0.5969
  722MOL0     C95208  -1.489   8.321   7.059 -0.9271 -0.6233  0.7783
  722MOL0     C95209  -1.633   8.320   7.096  0.1101  0.5987  0.0450
  722MOL0     C95210  -1.707   8.442   7.043  0.3662 -0.3856 -1.0169
  722MOL0     C95211  -1.849   8.460   7.113 -1.0443 -0.0004 -0.6005
  722MOL0     C95212  -1.959   8.377   7.045 -0.5410  0.7260  0.5165
  722MOL0     C95213  -2.100   8.392   7.111 -0.6241  0.2785 -0.1761
  722MOL0     C95214  -2.149   8.535   7.081  0.7071 -0.3350  0.8797
  722MOL0     C95215  -2.298   8.550   7.104  0.2334 -0.1849 -0.6175
  722MOL0    Cl95216  -2.314   8.675   7.223  0.4912 -0.3312 -0.3891
  722MOL0     C95217  -1.162   8.339   7.032 -0.1674 -0.0125  0.7164
  722MOL0     C95218  -0.956   8.313   7.060  0.1345  0.0574 -0.1158
  722MOL0     O95219  -0.756   7.935   7.249 -1.3246 -0.1456 -0.5189
  722MOL0     C95220  -0.467   8.069   7.096 -0.5789  0.1139 -0.8294
  722MOL0     C95221  -0.329   8.073   7.109 -0.5776 -0.6204 -0.3362
  722MOL0     N95222   0.486   8.087   7.243  0.2956 -0.3638 -0.3141
  722MOL0     N95223   0.579   8.181   7.242  0.1343  0.4381  0.3556
  722MOL0     C95224   1.653   8.895   7.393  0.1729 -0.0046  0.1874
  722MOL0     C95225   1.785   8.924   7.412 -0.6793  0.6582 -0.4127
  722MOL0     C95226   2.221   8.957   7.555 -0.1759 -0.0192  0.3783
  722MOL0     C95227   2.296   9.079   7.572 -0.0317  0.1189 -0.4570
  722MOL0     C95228   2.424   9.078   7.631  0.4083 -0.3803 -0.0723
  722MOL0     C95229   2.482   8.962   7.675 -0.0157 -0.3398 -0.0110
  722MOL0     O95230   2.606   8.954   7.726  0.4534  0.3794  0.0163
  722MOL0     C95231   2.695   9.072   7.741 -0.3746  0.7201  0.6938
  722MOL0     C95232   2.839   9.028   7.777  0.3905  0.8154  0.7596
  722MOL0     C95233   2.923   9.144   7.815 -0.3675 -0.8665 -1.3251
  722MOL0     C95234   3.054   9.107   7.896 -0.6542  0.3891  0.6185
  722MOL0     C95235   3.149   9.034   7.811 -0.3721  0.1628 -0.9806
  722MOL0     C95236   3.244   8.987   7.747  0.0325 -0.0530  0.5074
  722MOL0     C95237   2.405   8.844   7.663 -0.2599  0.2401 -0.0805
  722MOL0     C95238   2.278   8.836   7.603  0.8401  0.3814 -0.4478
  722MOL0     H95239   1.891   8.632   7.564  1.2775  0.8341 -0.2073
  722MOL0     H95240   1.662   8.573   7.519 -1.1720  0.1376 -0.7916
  722MOL0     H95241   1.406   8.927   7.483 -2.3504  1.0316 -0.1967
  722MOL0     H95242   1.379   8.781   7.590 -1.6380 -1.9726 -0.5246
  722MOL0     H95243   1.233   8.857   7.333 -0.0572  1.9552  0.6105
  722MOL0     H95244   1.171   8.872   7.500  2.7609  1.4025  1.0123
  722MOL0     H95245   1.226   8.620   7.526 -1.5553  0.5853  0.2564
  722MOL0     H95246   1.253   8.618   7.350  0.3315  1.0118 -0.5049
  722MOL0     H95247   0.984   8.703   7.495 -0.3659 -0.2695  0.1669
  722MOL0     H95248   1.009   8.715   7.319  0.0934 -0.2744 -0.1198
  722MOL0     H95249   0.995   8.464   7.495 -2.4783 -0.4802 -0.3685
  722MOL0     H95250   1.027   8.453   7.329 -0.7428 -1.4615  0.8813
  722MOL0     H95251   0.817   8.597   7.288 -2.1838 -0.4886 -0.1922
  722MOL0     H95252   0.796   8.589   7.465  2.1191  0.6214  0.2762
  722MOL0     H95253   0.800   8.351   7.265  0.3184  1.4021  0.0746
  722MOL0     H95254   0.795   8.335   7.443 -1.7881  0.0155  1.1555
  722MOL0     H95255   0.608   8.478   7.266  2.2866  2.1716  1.9637
  722MOL0     H95256   0.577   8.453   7.436 -0.5357  2.0764 -0.5303
  722MOL0     H95257   0.365   8.281   7.474 -0.7674 -0.2514 -0.2931
  722MOL0     H95258   0.251   8.041   7.464  1.3144 -3.5952 -0.1833
  722MOL0     H95259   0.284   7.951   7.306 -0.6714 -0.6066 -1.1648
  722MOL0     H95260   0.177   8.217   7.234 -0.8436 -1.2054 -3.4054
  722MOL0     H95261   0.071   8.140   7.353  0.3048  0.5546  0.5727
  722MOL0     H95262   0.162   8.063   7.070 -1.8270 -1.7444 -1.6433
  722MOL0     H95263   0.130   7.933   7.179  0.9430  0.9057  2.6491
  722MOL0     H95264  -0.063   8.005   7.038 -0.5396  0.8643  0.1043
  722MOL0     H95265  -0.058   8.161   7.110  1.3061 -0.0549 -1.5745
  722MOL0     H95266  -0.285   7.867   7.377 -0.2396 -1.1414  0.2134
  722MOL0     H95267  -0.530   7.838   7.343 -1.0464 -1.6941 -1.8832
  722MOL0     H95268  -0.968   7.850   7.125 -2.9005 -1.0018  1.1770
  722MOL0     H95269  -1.286   7.892   7.084  2.6623 -2.0506 -0.8325
  722MOL0     H95270  -1.480   8.359   6.957  0.3361 -0.0076  1.1035
  722MOL0     H95271  -1.423   8.383   7.120  1.3464 -2.7984  0.7253
  722MOL0     H95272  -1.647   8.319   7.205 -3.9633  0.0181 -0.3181
  722MOL0     H95273  -1.678   8.223   7.072  0.2460 -0.5427  3.7158
  722MOL0     H95274  -1.716   8.446   6.934  2.2416 -0.1859 -1.1948
  722MOL0     H95275  -1.654   8.534   7.069 -1.0574  0.7451 -1.9778
  722MOL0     H95276  -1.839   8.458   7.222 -0.5468  1.9574 -0.5756
  722MOL0     H95277  -1.878   8.564   7.092  0.9194  0.3776 -1.7092
  722MOL0     H95278  -1.927   8.273   7.036 -0.4876  0.9270 -2.9518
  722MOL0     H95279  -1.961   8.402   6.939  0.1096  1.3272  0.6350
  722MOL0     H95280  -2.087   8.366   7.216  1.8401  0.4045 -0.3877
  722MOL0     H95281  -2.170   8.325   7.060 -3.0333  0.7790  2.2620
  722MOL0     H95282  -2.095   8.615   7.133  1.3239  0.9253 -1.5135
  722MOL0     H95283  -2.131   8.553   6.974 -0.1529  2.1400  1.0764
  722MOL0     H95284  -2.333   8.456   7.147  2.7704  0.0570  2.3682
  722MOL0     H95285  -2.351   8.573   7.011 -0.7745 -0.2347 -0.0634
  722MOL0     H95286  -1.204   8.437   7.012  0.8420 -0.0049 -1.7329
  722MOL0     H95287  -0.889   8.395   7.037  0.4398 -0.6378 -1.8363
  722MOL0     H95288  -0.499   8.120   7.006  1.1204 -0.7311 -1.9650
  722MOL0     H95289  -0.270   8.129   7.038  2.8815 -0.8847  2.0560
  722MOL0     H95290   1.584   8.970   7.355  0.1136  0.3079  0.9069
  722MOL0     H95291   1.805   9.026   7.384 -2.8783  2.1410  2.8002
  722MOL0     H95292   2.254   9.174   7.539 -0.0283  0.8817  1.5812
  722MOL0     H95293   2.490   9.164   7.634 -1.0728  0.8643 -1.1937
  722MOL0     H95294   2.646   9.150   7.799  1.1936 -0.0393  3.1728
  722MOL0     H95295   2.707   9.122   7.644 -3.1992 -0.1476 -0.2261
  722MOL0     H95296   2.833   8.950   7.854  1.1727  0.2347  0.2481
  722MOL0     H95297   2.886   8.984   7.689 -0.0174  1.3564  0.2660
  722MOL0     H95298   2.871   9.218   7.877  1.6074 -1.1521  0.7836
  722MOL0     H95299   2.957   9.195   7.725  1.1330  1.4043  0.3884
  722MOL0     H95300   3.102   9.195   7.940  0.9406  1.2515 -2.5137
  722MOL0     H95301   3.029   9.034   7.973  1.7082 -3.7231 -2.1187
  722MOL0     H95302   3.326   8.949   7.690 -0.7333 -1.6636  0.4195
  722MOL0     H95303   2.434   8.748   7.705 -0.5507  0.1036 -0.1864
  722MOL0     H95304   2.228   8.740   7.593  0.3869  0.2117  2.6602
  723MOL0     O95305   8.008   7.278   6.601 -0.0380  0.5127 -0.2380
  723MOL0     C95306   7.997   7.227   6.494 -0.0102  0.2639  0.1771
  723MOL0     O95307   7.880   7.174   6.440 -0.2855  0.1350 -0.5818
  723MOL0     C95308   7.766   7.161   6.520 -0.3224 -0.2528 -0.7789
  723MOL0     C95309   7.645   7.197   6.472  0.4075 -0.2597  0.1607
  723MOL0     C95310   7.522   7.191   6.536 -0.5510 -0.7452  0.2874
  723MOL0     C95311   7.524   7.138   6.663 -0.2596  0.7537  0.3201
  723MOL0     O95312   7.400   7.115   6.710  0.2066 -0.3129  0.0746
  723MOL0     C95313   7.384   7.002   6.799  0.2904 -0.8998  0.7352
  723MOL0     C95314   7.238   6.954   6.805  0.3139  0.2253  0.1928
  723MOL0     C95315   7.133   7.033   6.888 -0.8004  0.1868  0.0997
  723MOL0     C95316   7.133   6.981   7.032 -1.1623  0.2298 -0.6610
  723MOL0     C95317   7.256   7.011   7.120  0.4518 -0.7688  0.1064
  723MOL0     C95318   7.299   7.164   7.098 -0.1696 -0.4295  0.4764
  723MOL0     C95319   7.203   7.269   7.161  0.0032  0.0702 -0.1773
  723MOL0     C95320   7.147   7.240   7.306  0.3764 -0.0984  0.4305
  723MOL0     N95321   7.247   7.255   7.410 -0.0182 -0.1754 -0.4263
  723MOL0     C95322   7.372   7.201   7.425  0.7289  0.2663  0.7808
  723MOL0     C95323   7.422   7.265   7.533 -0.7941 -0.1281 -0.7179
  723MOL0     C95324   7.572   7.251   7.571  0.1166 -1.4135  0.2082
  723MOL0     C95325   7.607   7.305   7.708 -0.2665 -0.1351 -1.1343
  723MOL0     C95326   7.732   7.260   7.774  0.0891  0.1057  0.4387
  723MOL0     C95327   7.861   7.327   7.709  0.8601  0.8685 -0.1698
  723MOL0     O95328   7.970   7.282   7.782 -0.2266 -0.0904 -0.0304
  723MOL0     C95329   8.096   7.271   7.720  0.2653 -0.2470  0.4989
  723MOL0     C95330   8.122   7.257   7.581 -0.2388  1.0645 -0.4747
  723MOL0     C95331   8.254   7.242   7.535 -0.0458 -0.3028 -0.3025
  723MOL0     C95332   8.369   7.247   7.617  0.6248 -0.0420  0.3174
  723MOL0     C95333   8.500   7.250   7.553 -0.2267  0.9499 -0.0889
  723MOL0     O95334   8.608   7.266   7.640  0.0840  0.0377 -0.1581
  723MOL0     C95335   8.741   7.254   7.601  0.4282  0.0125  0.7552
  723MOL0     C95336   8.787   7.180   7.492  0.4655  0.2475 -0.2694
  723MOL0     C95337   8.925   7.154   7.480 -0.2111 -0.1786  0.4640
  723MOL0     C95338   9.016   7.222   7.562  0.4867 -0.6771 -0.2026
  723MOL0     O95339   9.155   7.215   7.553  0.1355 -0.7141 -0.8786
  723MOL0     C95340   9.210   7.140   7.452 -0.4317  0.1807 -0.7300
  723MOL0     C95341   9.353   7.113   7.498  0.4089  0.4033  0.5449
  723MOL0     C95342   9.423   7.033   7.389 -0.0152  0.7862 -0.2073
  723MOL0     C95343   9.562   6.981   7.426  0.4211 -0.6008 -0.9627
  723MOL0     C95344   9.624   6.911   7.311 -0.1800 -0.1306  0.5353
  723MOL0     C95345   9.776   6.878   7.340 -0.5678  0.5983  0.5944
  723MOL0     C95346   9.840   6.803   7.218  0.5866 -0.0775  0.3248
  723MOL0     C95347   9.991   6.825   7.212  0.1584 -0.6056  0.5847
  723MOL0    Cl95348  10.047   6.798   7.373  0.1039  0.2585 -0.3427
  723MOL0     C95349   8.969   7.309   7.661  0.4496 -0.2098  0.3275
  723MOL0     C95350   8.832   7.318   7.683  0.0041  0.2307 -0.1776
  723MOL0     O95351   8.504   7.246   7.427 -0.1029 -0.6846  0.4256
  723MOL0     C95352   8.340   7.251   7.751  0.5355 -0.3167  0.5629
  723MOL0     C95353   8.212   7.269   7.798  0.2190  0.5914 -0.2143
  723MOL0     N95354   7.328   7.356   7.585 -0.1638  0.2984  0.5297
  723MOL0     N95355   7.222   7.327   7.520  0.5349 -0.2815  0.2350
  723MOL0     C95356   7.643   7.116   6.733 -0.6143  0.8159  0.2056
  723MOL0     C95357   7.765   7.115   6.663 -0.7474 -0.2999  0.0970
  723MOL0     C95358   8.117   7.227   6.401 -0.5591 -1.0853 -0.2763
  723MOL0     C95359   8.134   7.147   6.284  0.0149 -0.2325 -0.0802
  723MOL0     C95360   8.239   7.167   6.196  0.5244  1.0939  0.2376
  723MOL0     C95361   8.349   7.251   6.239  0.3248  0.2780  0.5687
  723MOL0     O95362   8.477   7.266   6.177  0.2248 -0.1423 -0.7153
  723MOL0     C95363   8.537   7.157   6.105  0.0276  0.0004 -0.5164
  723MOL0     C95364   8.581   7.044   6.209  0.3831 -0.5035  0.3572
  723MOL0     C95365   8.693   6.967   6.140 -0.0238  0.2509  0.1684
  723MOL0     C95366   8.813   7.044   6.099 -0.4782  0.1094 -0.2232
  723MOL0     C95367   8.933   6.966   6.082  0.2577 -0.1078  0.4688
  723MOL0     C95368   9.032   6.903   6.062 -0.3878  0.2633  0.4039
  723MOL0     C95369   8.327   7.334   6.344 -0.7006  0.0542  0.3842
  723MOL0     C95370   8.218   7.318   6.431 -0.7563 -0.0513  1.4424
  723MOL0     H95371   7.643   7.228   6.368 -0.9100 -0.4493  0.1060
  723MOL0     H95372   7.429   7.217   6.487  2.1831  2.4287 -3.9633
  723MOL0     H95373   7.422   7.025   6.899 -0.0559  0.4759  0.5769
  723MOL0     H95374   7.450   6.924   6.760 -0.0150 -0.8897  0.1839
  723MOL0     H95375   7.246   6.847   6.829 -0.0085 -0.5749 -2.8839
  723MOL0     H95376   7.199   6.961   6.703  1.8970  0.0125 -0.4565
  723MOL0     H95377   7.031   7.011   6.855 -2.3896  3.1136  2.4989
  723MOL0     H95378   7.138   7.142   6.877 -0.3338  0.2121  0.4869
  723MOL0     H95379   7.047   7.032   7.077  0.2911  2.8151 -0.6036
  723MOL0     H95380   7.110   6.874   7.037  0.0080  0.0047  2.5048
  723MOL0     H95381   7.344   6.952   7.094  0.9966 -0.3452  0.9514
  723MOL0     H95382   7.235   6.991   7.225 -1.4583 -1.8014 -0.4276
  723MOL0     H95383   7.312   7.189   6.993 -4.4356  1.0110  0.1026
  723MOL0     H95384   7.395   7.176   7.149 -0.2068  0.4709  0.3516
  723MOL0     H95385   7.259   7.362   7.170  0.8327 -0.4171 -0.1953
  723MOL0     H95386   7.121   7.288   7.091 -0.5353 -4.6808 -1.1962
  723MOL0     H95387   7.119   7.135   7.317 -0.4669  0.1641  0.9246
  723MOL0     H95388   7.057   7.296   7.334 -0.7958 -0.6977 -1.9035
  723MOL0     H95389   7.425   7.134   7.358 -0.2205  1.2533 -1.0174
  723MOL0     H95390   7.615   7.325   7.503 -0.1866 -0.3043  1.1964
  723MOL0     H95391   7.616   7.153   7.550 -0.0330 -1.0635 -2.0257
  723MOL0     H95392   7.528   7.273   7.777  0.9478  1.4486  1.1215
  723MOL0     H95393   7.607   7.414   7.699 -1.2482 -0.0839 -0.6403
  723MOL0     H95394   7.728   7.281   7.881 -1.9697  0.7677  0.2757
  723MOL0     H95395   7.738   7.152   7.762 -2.6344  0.1635 -2.7523
  723MOL0     H95396   7.853   7.436   7.706 -0.4081  0.7696 -2.0359
  723MOL0     H95397   7.867   7.296   7.604 -1.1699 -1.2429  0.2360
  723MOL0     H95398   8.043   7.260   7.507  1.4541 -0.3158 -2.4703
  723MOL0     H95399   8.263   7.235   7.427  1.1715 -0.1787 -0.2255
  723MOL0     H95400   8.731   7.130   7.413  2.2410 -1.0992 -0.7361
  723MOL0     H95401   8.951   7.104   7.387 -3.0175 -0.5733 -0.2124
  723MOL0     H95402   9.216   7.192   7.356  1.0508 -0.5517 -1.0571
  723MOL0     H95403   9.159   7.043   7.444  0.6496 -0.5202  0.5130
  723MOL0     H95404   9.355   7.058   7.592  0.9652 -2.6927 -1.1684
  723MOL0     H95405   9.416   7.203   7.504  2.2051 -0.8481  1.2394
  723MOL0     H95406   9.430   7.094   7.298  1.4755  0.4438 -0.3462
  723MOL0     H95407   9.355   6.948   7.377 -0.6042  1.2338 -0.0739
  723MOL0     H95408   9.619   7.073   7.443 -0.9811  0.1166  0.0840
  723MOL0     H95409   9.562   6.918   7.515  3.6030  0.1695 -0.2969
  723MOL0     H95410   9.619   6.979   7.226 -0.7997 -1.3122 -0.3914
  723MOL0     H95411   9.563   6.821   7.299 -3.5024  2.0252 -0.0945
  723MOL0     H95412   9.781   6.808   7.424 -0.5523  1.1618  1.0649
  723MOL0     H95413   9.829   6.970   7.367  2.5853  0.0774 -2.9495
  723MOL0     H95414   9.801   6.702   7.231 -1.2477  0.7155  1.3011
  723MOL0     H95415   9.788   6.835   7.128 -1.6765 -2.3476  0.7318
  723MOL0     H95416  10.010   6.930   7.185  1.2674 -0.1274  2.9572
  723MOL0     H95417  10.035   6.763   7.134  0.0772  1.2763 -1.0359
  723MOL0     H95418   9.040   7.362   7.723 -2.0068  2.3654  1.1159
  723MOL0     H95419   8.791   7.395   7.747 -1.4949 -0.5971 -0.0913
  723MOL0     H95420   8.423   7.247   7.821  0.6056 -3.7258  0.4529
  723MOL0     H95421   8.194   7.296   7.902  3.0139  0.3463  0.4017
  723MOL0     H95422   7.630   7.087   6.837 -3.4472 -1.3313 -0.6268
  723MOL0     H95423   7.855   7.075   6.709  0.3183 -1.3338 -2.6660
  723MOL0     H95424   8.060   7.075   6.252  3.6391 -2.6319 -3.9864
  723MOL0     H95425   8.241   7.115   6.100  1.1890  3.0265 -0.8384
  723MOL0     H95426   8.620   7.213   6.063 -0.6623  2.8461  1.6114
  723MOL0     H95427   8.479   7.115   6.023 -1.5522  0.7717  0.1675
  723MOL0     H95428   8.603   7.092   6.305 -0.1866 -0.1603  0.3211
  723MOL0     H95429   8.492   6.984   6.232  1.5072 -0.8289  4.6415
  723MOL0     H95430   8.654   6.910   6.055  0.3027 -3.0926  2.0945
  723MOL0     H95431   8.730   6.891   6.209 -0.5702  1.9573  2.4547
  723MOL0     H95432   8.795   7.093   6.002 -0.0462  1.7422  0.4898
  723MOL0     H95433   8.833   7.127   6.167  1.1455  1.5770 -2.3266
  723MOL0     H95434   9.126   6.855   6.046 -0.4154  0.7868 -1.8123
  723MOL0     H95435   8.390   7.421   6.359 -0.0534 -0.4453  0.6039
  723MOL0     H95436   8.216   7.369   6.526 -0.8006  3.6537 -0.3437
  724MOL0     O95437   8.805  11.154   3.286 -0.0307 -0.2437  0.4639
  724MOL0     C95438   8.879  11.221   3.357 -0.1284  0.0081  0.9252
  724MOL0     O95439   8.853  11.354   3.390  0.0083 -0.1465  0.0104
  724MOL0     C95440   8.737  11.419   3.362 -0.6178  0.8446 -0.2277
  724MOL0     C95441   8.751  11.557   3.397 -0.0241 -0.4589 -0.3859
  724MOL0     C95442   8.647  11.645   3.394  0.4246  0.1903 -1.0814
  724MOL0     C95443   8.523  11.591   3.359  0.3005  0.5203 -0.0634
  724MOL0     O95444   8.425  11.684   3.364 -1.1226 -0.0496  0.4420
  724MOL0     C95445   8.373  11.721   3.237 -0.6572  0.5774 -0.3921
  724MOL0     C95446   8.228  11.728   3.249  0.3713  0.3958  0.1734
  724MOL0     C95447   8.186  11.812   3.370  0.0125  0.0523  0.0512
  724MOL0     C95448   8.034  11.820   3.392  0.6593 -0.2405 -0.6315
  724MOL0     C95449   8.012  11.909   3.514  0.0724  0.0353  0.6263
  724MOL0     C95450   7.865  11.934   3.546  0.9906 -0.1311 -1.0815
  724MOL0     C95451   7.814  12.046   3.460 -0.2845 -0.3213  0.0788
  724MOL0     C95452   7.669  12.079   3.484 -0.2805  0.2168 -0.8658
  724MOL0     N95453   7.619  12.156   3.368 -0.6021 -0.3961  0.4536
  724MOL0     C95454   7.635  12.294   3.356 -0.6103  0.1468 -0.1962
  724MOL0     C95455   7.579  12.331   3.237  0.1853 -0.7011  0.0750
  724MOL0     C95456   7.575  12.476   3.182 -0.3865 -1.0361 -0.0163
  724MOL0     C95457   7.434  12.535   3.158 -0.9073 -0.0740 -0.6211
  724MOL0     C95458   7.433  12.687   3.156 -0.4633 -0.3171 -0.3875
  724MOL0     C95459   7.291  12.739   3.133  0.7817  0.4203  0.1631
  724MOL0     O95460   7.306  12.881   3.162 -0.0124 -0.3707  0.4972
  724MOL0     C95461   7.190  12.962   3.148 -0.6433  0.0058 -0.6514
  724MOL0     C95462   7.066  12.920   3.108  0.2334 -0.7249  0.4085
  724MOL0     C95463   6.954  13.007   3.121  0.3044  0.2146  0.1774
  724MOL0     C95464   6.966  13.140   3.173  0.5913  0.2828  0.5908
  724MOL0     C95465   6.846  13.235   3.179 -0.6536  0.3691  0.1319
  724MOL0     O95466   6.740  13.186   3.118  0.4563 -1.1562 -0.0060
  724MOL0     C95467   6.621  13.255   3.127  0.3429 -0.3987  0.0715
  724MOL0     C95468   6.598  13.370   3.055 -0.1504  0.0497  0.1428
  724MOL0     C95469   6.487  13.451   3.075  0.5322  0.2450 -0.0766
  724MOL0     C95470   6.399  13.416   3.183  0.5034  0.2126 -0.0692
  724MOL0     O95471   6.286  13.488   3.207 -0.2421 -0.3656 -0.3176
  724MOL0     C95472   6.244  13.588   3.114  0.0316  0.4442 -0.9184
  724MOL0     C95473   6.156  13.693   3.184 -0.0541 -0.1645  0.7644
  724MOL0     C95474   6.021  13.639   3.247  0.1570 -0.1264 -0.8543
  724MOL0     C95475   5.951  13.516   3.175 -0.0586 -0.1287  0.2167
  724MOL0     C95476   5.844  13.456   3.257  0.0323 -0.2758 -0.1680
  724MOL0     C95477   5.740  13.563   3.305  0.6509  0.2226 -0.0938
  724MOL0     C95478   5.635  13.497   3.395  0.8839 -0.0495 -0.0092
  724MOL0     C95479   5.546  13.606   3.451  0.3826 -0.8677 -0.6491
  724MOL0    Cl95480   5.447  13.682   3.327 -0.1370  0.0329  0.0053
  724MOL0     C95481   6.408  13.291   3.250  0.2321  0.0298 -0.1428
  724MOL0     C95482   6.524  13.216   3.220  0.4608 -0.4574 -0.3588
  724MOL0     O95483   6.863  13.344   3.232 -0.4713  0.2235  0.0949
  724MOL0     C95484   7.092  13.185   3.205  0.0889  0.7647  0.2880
  724MOL0     C95485   7.199  13.097   3.191 -0.2718  0.8369  0.3396
  724MOL0     N95486   7.520  12.218   3.182 -0.1914 -0.6316  0.0718
  724MOL0     N95487   7.559  12.112   3.252 -0.5792 -0.7136  0.1864
  724MOL0     C95488   8.510  11.456   3.319  0.6151  0.5557  0.5110
  724MOL0     C95489   8.613  11.368   3.321 -1.1173 -0.1071 -0.6273
  724MOL0     C95490   9.006  11.160   3.396 -0.0195 -0.5847  0.1723
  724MOL0     C95491   9.021  11.019   3.380 -0.0216  0.0468  0.1734
  724MOL0     C95492   9.137  10.963   3.427 -0.0323  0.6285 -0.3633
  724MOL0     C95493   9.233  11.027   3.500  0.0001 -0.1339 -0.2641
  724MOL0     O95494   9.335  10.954   3.539 -0.1204  0.2657 -0.6494
  724MOL0     C95495   9.451  11.016   3.594 -0.3353  0.1027  0.3861
  724MOL0     C95496   9.532  10.911   3.665  0.1356 -0.1341 -0.2445
  724MOL0     C95497   9.661  10.961   3.726 -0.9066  0.4683 -0.5978
  724MOL0     C95498   9.695  10.873   3.852 -0.2521 -0.1186  0.4640
  724MOL0     C95499   9.839  10.875   3.887  0.5018  0.4024  0.4292
  724MOL0     C95500   9.956  10.871   3.912  0.5161 -0.3400 -0.1333
  724MOL0     C95501   9.211  11.161   3.532 -0.3101 -0.2970 -0.0786
  724MOL0     C95502   9.102  11.232   3.470  0.5281 -0.2180 -0.3372
  724MOL0     H95503   8.847  11.592   3.433  0.1497 -1.2126 -0.0834
  724MOL0     H95504   8.661  11.751   3.417  2.3557 -0.7311  2.9752
  724MOL0     H95505   8.391  11.657   3.151 -1.4536  1.6110 -1.3637
  724MOL0     H95506   8.405  11.822   3.210 -2.4385  0.9790 -1.1115
  724MOL0     H95507   8.178  11.632   3.256 -2.1832  1.6532  0.1550
  724MOL0     H95508   8.188  11.774   3.158 -0.8471  0.6305  0.8095
  724MOL0     H95509   8.227  11.913   3.365  2.5183 -0.9498 -0.8580
  724MOL0     H95510   8.230  11.758   3.454  1.7404 -1.7156 -1.8758
  724MOL0     H95511   7.987  11.872   3.308  0.2099  0.9508  0.3323
  724MOL0     H95512   7.997  11.719   3.409  2.5509 -0.6549  1.4197
  724MOL0     H95513   8.064  12.004   3.498  1.7480 -0.8710  0.4282
  724MOL0     H95514   8.071  11.873   3.600 -1.7176 -0.9529  1.5058
  724MOL0     H95515   7.862  11.965   3.651  2.5373  0.3863 -1.1645
  724MOL0     H95516   7.811  11.840   3.530  3.1076 -1.5604 -0.3501
  724MOL0     H95517   7.873  12.134   3.488  0.8507 -1.1702  0.4152
  724MOL0     H95518   7.832  12.025   3.354  1.8473  0.1290  0.3195
  724MOL0     H95519   7.660  12.135   3.577 -1.6868 -0.5137 -0.5416
  724MOL0     H95520   7.612  11.987   3.495  0.5216 -0.1304  0.6904
  724MOL0     H95521   7.683  12.360   3.428 -0.2578 -0.5419  0.2082
  724MOL0     H95522   7.643  12.493   3.097  0.8402 -0.2674  1.0741
  724MOL0     H95523   7.625  12.535   3.260 -0.1417  0.0442 -0.9657
  724MOL0     H95524   7.371  12.501   3.240 -0.2852  0.8857  0.2897
  724MOL0     H95525   7.393  12.496   3.064 -1.5143  2.9070 -1.7160
  724MOL0     H95526   7.450  12.715   3.261 -0.3372  0.7699 -0.6896
  724MOL0     H95527   7.511  12.718   3.086 -0.4076 -2.6051 -1.4399
  724MOL0     H95528   7.232  12.686   3.209 -1.7908 -0.4259 -2.2482
  724MOL0     H95529   7.244  12.710   3.039 -0.3231 -0.5680  0.9877
  724MOL0     H95530   7.045  12.816   3.085  1.1073 -0.3814 -2.3395
  724MOL0     H95531   6.855  12.977   3.090  0.0594 -1.4596  2.3597
  724MOL0     H95532   6.675  13.397   2.983  0.9976  0.0815  1.3302
  724MOL0     H95533   6.479  13.543   3.019  1.4164  1.7399  2.0889
  724MOL0     H95534   6.195  13.544   3.027 -0.6030 -0.3707 -0.1647
  724MOL0     H95535   6.329  13.649   3.080  1.6901 -1.8996 -1.2503
  724MOL0     H95536   6.120  13.744   3.095  1.6150 -1.7698 -0.9171
  724MOL0     H95537   6.210  13.758   3.254 -2.0725  1.3734  0.9746
  724MOL0     H95538   5.964  13.727   3.278  0.8767  1.1330 -2.8596
  724MOL0     H95539   6.048  13.592   3.342 -1.2043  0.6497 -0.0533
  724MOL0     H95540   5.908  13.551   3.081 -1.6745 -1.5279  0.3880
  724MOL0     H95541   6.026  13.441   3.149  1.7234  1.1303  1.4879
  724MOL0     H95542   5.885  13.411   3.347  1.9641  0.6475 -0.5487
  724MOL0     H95543   5.803  13.373   3.198  1.3373  0.6627 -2.5144
  724MOL0     H95544   5.697  13.598   3.211  2.3296 -0.1933 -1.0577
  724MOL0     H95545   5.782  13.648   3.360 -0.8883  0.1679  1.2130
  724MOL0     H95546   5.570  13.433   3.334 -1.6343  2.9078 -0.6503
  724MOL0     H95547   5.686  13.447   3.478 -0.6456 -1.4797  0.1266
  724MOL0     H95548   5.604  13.682   3.503 -1.0607 -0.6521  0.7130
  724MOL0     H95549   5.473  13.562   3.520  0.3646 -0.6794 -0.5464
  724MOL0     H95550   6.332  13.264   3.323  1.4029 -2.4030  0.2748
  724MOL0     H95551   6.540  13.124   3.276  0.1882 -0.8351 -0.8979
  724MOL0     H95552   7.114  13.288   3.234 -1.5237  1.3820 -0.5480
  724MOL0     H95553   7.299  13.134   3.212  1.6176 -4.0656  1.3446
  724MOL0     H95554   8.414  11.421   3.284  0.4449  1.3061  0.2369
  724MOL0     H95555   8.589  11.264   3.302 -0.4744 -0.0151 -2.0737
  724MOL0     H95556   8.952  10.962   3.320 -0.7572  1.1565 -0.0738
  724MOL0     H95557   9.131  10.859   3.398  0.5236 -0.2921  2.4742
  724MOL0     H95558   9.420  11.087   3.671 -1.6004  2.5996 -2.2086
  724MOL0     H95559   9.521  11.060   3.521  1.1554 -1.1851  0.9798
  724MOL0     H95560   9.468  10.870   3.743  2.1578  0.2633  1.7346
  724MOL0     H95561   9.561  10.840   3.587 -0.2085  4.1735 -4.8112
  724MOL0     H95562   9.664  11.065   3.759  1.8696 -0.1179  1.3195
  724MOL0     H95563   9.738  10.954   3.647 -1.2999 -0.1669 -0.9391
  724MOL0     H95564   9.641  10.923   3.933  2.0448  2.0499  0.7941
  724MOL0     H95565   9.664  10.769   3.842 -0.6092 -0.0372  0.7060
  724MOL0     H95566  10.063  10.868   3.916  0.4713 -0.6470  1.4564
  724MOL0     H95567   9.275  11.217   3.599 -0.4001  0.0972 -0.3179
  724MOL0     H95568   9.076  11.333   3.501 -2.0006 -0.8384 -0.1920
  725MOL0     O95569   0.401   2.984   7.413  0.2608 -0.0928 -0.0439
  725MOL0     C95570   0.500   2.933   7.465 -0.0576 -0.2693  0.0280
  725MOL0     O95571   0.492   2.848   7.571 -0.3942 -0.1951 -0.3711
  725MOL0     C95572   0.363   2.806   7.608 -0.3916  0.5254 -0.4766
  725MOL0     C95573   0.304   2.877   7.705  0.6131 -0.1304 -0.1236
  725MOL0     C95574   0.180   2.837   7.751  0.1528 -0.0825  0.1382
  725MOL0     C95575   0.114   2.722   7.700 -0.4109 -0.5326 -0.5748
  725MOL0     O95576  -0.006   2.672   7.726 -0.3751  0.8398  0.0653
  725MOL0     C95577  -0.068   2.725   7.839  0.4208 -0.6539 -0.3691
  725MOL0     C95578  -0.212   2.676   7.866 -0.2127  0.1314 -0.6735
  725MOL0     C95579  -0.224   2.533   7.906 -0.0610 -0.2391 -0.4403
  725MOL0     C95580  -0.370   2.511   7.951 -0.3356 -0.3452  0.5012
  725MOL0     C95581  -0.395   2.362   7.982 -0.4179 -0.0856 -0.1246
  725MOL0     C95582  -0.537   2.358   8.023  0.2776 -1.1988  0.1259
  725MOL0     C95583  -0.574   2.220   8.067  0.1491  0.2499  0.3925
  725MOL0     C95584  -0.722   2.213   8.093 -0.2099  0.0923  0.1992
  725MOL0     N95585  -0.767   2.281   8.213 -0.5121  0.3829 -0.1778
  725MOL0     C95586  -0.823   2.409   8.216 -0.1226 -0.4291 -0.4236
  725MOL0     C95587  -0.836   2.436   8.352  0.1943 -1.0593 -0.5257
  725MOL0     C95588  -0.889   2.559   8.423 -0.3775 -0.3402  0.6814
  725MOL0     C95589  -1.038   2.576   8.405  0.8499  0.0558  1.1221
  725MOL0     C95590  -1.133   2.482   8.479 -0.2249 -0.0249 -0.4264
  725MOL0     C95591  -1.281   2.511   8.471  0.0870  0.3560 -0.6074
  725MOL0     O95592  -1.341   2.461   8.353  0.1240  0.1450  0.0593
  725MOL0     C95593  -1.400   2.334   8.349  0.4463 -0.5379  0.1739
  725MOL0     C95594  -1.491   2.313   8.246  0.4149 -0.5083 -0.1847
  725MOL0     C95595  -1.565   2.194   8.240  0.0063  0.5376  0.2731
  725MOL0     C95596  -1.544   2.087   8.325 -0.3129 -0.3337 -0.6066
  725MOL0     C95597  -1.625   1.964   8.331  0.4138 -0.1059 -1.0059
  725MOL0     O95598  -1.701   1.939   8.226  0.2535  0.1646 -0.1470
  725MOL0     C95599  -1.756   1.811   8.215  0.2756  0.1537 -0.2050
  725MOL0     C95600  -1.693   1.692   8.257  0.7882  0.6392 -0.1319
  725MOL0     C95601  -1.759   1.570   8.256 -0.7282  0.5506  0.5644
  725MOL0     C95602  -1.893   1.562   8.208 -0.8423  0.0971  0.6716
  725MOL0     O95603  -1.979   1.456   8.222  0.1087 -0.1724 -0.5177
  725MOL0     C95604  -1.948   1.342   8.305 -0.3197 -0.0863  0.4885
  725MOL0     C95605  -2.070   1.266   8.339  0.2933 -0.2059  0.1008
  725MOL0     C95606  -2.048   1.117   8.343 -0.2504  0.6781 -0.4197
  725MOL0     C95607  -2.185   1.049   8.376 -0.4618 -0.3928  0.2802
  725MOL0     C95608  -2.183   0.900   8.355  0.1716 -0.7242 -0.4497
  725MOL0     C95609  -2.325   0.852   8.354 -1.2019 -0.0871  0.1826
  725MOL0     C95610  -2.333   0.710   8.308  1.0803  0.5899  0.6541
  725MOL0     C95611  -2.485   0.666   8.297 -0.1032  0.5989 -0.1288
  725MOL0    Cl95612  -2.520   0.496   8.341 -0.2553 -0.3793 -0.5568
  725MOL0     C95613  -1.954   1.682   8.167  1.1385 -0.0696 -0.1308
  725MOL0     C95614  -1.887   1.803   8.175 -0.4202  0.7029  0.3631
  725MOL0     O95615  -1.629   1.904   8.441 -0.3022 -0.4635 -0.5139
  725MOL0     C95616  -1.447   2.108   8.425 -0.3871 -0.3143 -0.5981
  725MOL0     C95617  -1.372   2.232   8.433 -0.7179  0.2975  0.8421
  725MOL0     N95618  -0.802   2.317   8.424  0.6431 -0.1932  0.4439
  725MOL0     N95619  -0.782   2.229   8.339 -0.3145 -0.5324  0.5616
  725MOL0     C95620   0.184   2.654   7.598 -0.4168 -0.1935 -0.0414
  725MOL0     C95621   0.304   2.695   7.547 -0.1806 -0.2015 -0.5967
  725MOL0     C95622   0.638   2.964   7.416  0.4072 -0.0106  0.1563
  725MOL0     C95623   0.656   3.028   7.291 -0.2820  0.8000  0.5424
  725MOL0     C95624   0.777   3.079   7.265  0.5100 -0.9715 -0.9066
  725MOL0     C95625   0.892   3.057   7.342  1.1427 -0.4883 -0.6183
  725MOL0     O95626   1.016   3.097   7.298  0.4454  0.1543  0.5252
  725MOL0     C95627   1.130   3.111   7.393  1.7935 -0.3773 -0.0394
  725MOL0     C95628   1.231   3.213   7.346  0.0190  0.6988  0.2072
  725MOL0     C95629   1.181   3.358   7.330 -0.7449  0.5020 -0.0705
  725MOL0     C95630   1.295   3.451   7.288 -0.3731 -0.4340 -0.3719
  725MOL0     C95631   1.233   3.588   7.262  0.2338  0.2751  1.0691
  725MOL0     C95632   1.168   3.682   7.232 -0.7266 -0.3550  0.0419
  725MOL0     C95633   0.877   2.981   7.458  0.5296  0.1586  0.8381
  725MOL0     C95634   0.747   2.935   7.493 -0.6631 -0.5850  0.6971
  725MOL0     H95635   0.362   2.953   7.757 -0.5051 -1.3826  3.2011
  725MOL0     H95636   0.127   2.886   7.832 -1.6571  0.6518 -1.4101
  725MOL0     H95637  -0.069   2.834   7.832  1.3815 -0.6222 -0.0678
  725MOL0     H95638  -0.006   2.697   7.925 -0.7269  1.8544  1.4258
  725MOL0     H95639  -0.269   2.679   7.773 -0.1869 -0.9662 -0.7393
  725MOL0     H95640  -0.259   2.742   7.940  0.1095  1.4989 -1.6662
  725MOL0     H95641  -0.148   2.513   7.982 -0.9312 -0.8786  0.2893
  725MOL0     H95642  -0.200   2.459   7.830 -3.7569  0.4865 -2.5265
  725MOL0     H95643  -0.403   2.573   8.035  1.4856  1.0185  0.2691
  725MOL0     H95644  -0.435   2.552   7.873 -0.5838 -1.0898  0.3043
  725MOL0     H95645  -0.327   2.333   8.063 -0.2945  1.8505  0.5188
  725MOL0     H95646  -0.388   2.293   7.897 -1.8009 -3.3520  2.1646
  725MOL0     H95647  -0.599   2.390   7.939 -2.1363 -2.6377  1.2379
  725MOL0     H95648  -0.556   2.427   8.105 -2.2809 -2.3327  0.5929
  725MOL0     H95649  -0.549   2.150   7.987 -0.0896  0.5966  0.0051
  725MOL0     H95650  -0.520   2.193   8.157 -0.7882 -0.0762  0.8695
  725MOL0     H95651  -0.755   2.108   8.092  1.8025 -0.6813  2.7422
  725MOL0     H95652  -0.771   2.260   8.008 -2.5267 -1.5492  0.5326
  725MOL0     H95653  -0.853   2.474   8.134 -0.3271  1.6767  1.2466
  725MOL0     H95654  -0.848   2.644   8.367  1.0324 -1.1794  0.3985
  725MOL0     H95655  -0.847   2.572   8.523  1.5591 -0.1835 -0.1077
  725MOL0     H95656  -1.055   2.575   8.297  2.3138  1.6369  0.8379
  725MOL0     H95657  -1.063   2.678   8.434  0.6478  0.4398 -0.3465
  725MOL0     H95658  -1.102   2.383   8.446  0.5240  0.3270 -0.8060
  725MOL0     H95659  -1.118   2.492   8.587  0.1892  2.8875 -0.6662
  725MOL0     H95660  -1.295   2.619   8.472 -0.3519  0.3138  1.1365
  725MOL0     H95661  -1.335   2.474   8.558 -0.3830  0.3437 -0.8974
  725MOL0     H95662  -1.524   2.391   8.178  1.6547 -1.0596 -1.4695
  725MOL0     H95663  -1.644   2.184   8.166 -0.0178 -0.3265  0.4041
  725MOL0     H95664  -1.591   1.697   8.292  0.6869 -0.0252  0.2819
  725MOL0     H95665  -1.708   1.478   8.284  1.8302  1.7030 -0.0151
  725MOL0     H95666  -1.894   1.376   8.394  1.7804 -1.3007 -0.2406
  725MOL0     H95667  -1.879   1.271   8.257 -0.1985  2.0407 -2.8288
  725MOL0     H95668  -2.147   1.299   8.269  0.9180  0.4543 -0.2889
  725MOL0     H95669  -2.090   1.299   8.442  1.2884 -0.3118  0.3429
  725MOL0     H95670  -1.974   1.085   8.417  2.2390 -2.1636 -3.7737
  725MOL0     H95671  -2.001   1.082   8.251  0.1193 -1.6001  0.5590
  725MOL0     H95672  -2.215   1.074   8.478 -0.2570  0.9782  0.0304
  725MOL0     H95673  -2.261   1.094   8.310  1.0147  2.1392  0.1597
  725MOL0     H95674  -2.132   0.850   8.438 -0.5992  0.0520  0.5130
  725MOL0     H95675  -2.142   0.864   8.260  2.6630  0.6791  0.0186
  725MOL0     H95676  -2.391   0.912   8.291  0.1163  1.2050 -0.0322
  725MOL0     H95677  -2.362   0.850   8.456 -2.7919 -1.1637 -0.3869
  725MOL0     H95678  -2.285   0.685   8.213 -0.1212 -0.3345  0.2735
  725MOL0     H95679  -2.283   0.656   8.390 -1.5810  0.5629  2.3723
  725MOL0     H95680  -2.521   0.693   8.197  3.8034  3.0426 -1.0891
  725MOL0     H95681  -2.539   0.727   8.370  0.6164  1.8769 -0.6462
  725MOL0     H95682  -2.058   1.683   8.135  1.9709  1.3725 -3.2205
  725MOL0     H95683  -1.935   1.898   8.156 -0.6070  1.0526  2.3015
  725MOL0     H95684  -1.422   2.036   8.501 -0.8132 -0.6258 -0.7487
  725MOL0     H95685  -1.297   2.241   8.511 -0.1011  1.4998  0.1411
  725MOL0     H95686   0.152   2.560   7.554  0.0327 -0.3454 -0.0512
  725MOL0     H95687   0.350   2.652   7.458 -1.4914 -1.7515 -0.5767
  725MOL0     H95688   0.580   3.051   7.217  0.8007  0.1356 -0.8139
  725MOL0     H95689   0.786   3.145   7.179  1.2601 -1.0347 -0.8857
  725MOL0     H95690   1.166   3.009   7.408 -1.0636 -1.1043  3.2034
  725MOL0     H95691   1.098   3.142   7.493  0.0605 -0.5000 -0.5259
  725MOL0     H95692   1.313   3.210   7.419 -0.7001 -0.0377  1.0127
  725MOL0     H95693   1.266   3.177   7.249 -1.1125  2.1720 -0.7898
  725MOL0     H95694   1.149   3.382   7.432  1.7659 -1.3728  1.2710
  725MOL0     H95695   1.095   3.377   7.265  1.0652  3.7874 -1.7955
  725MOL0     H95696   1.357   3.460   7.377  0.0534 -3.5782 -0.2510
  725MOL0     H95697   1.346   3.422   7.196 -3.0873 -0.1218 -2.0842
  725MOL0     H95698   1.117   3.775   7.214 -0.7503 -0.1862  0.9262
  725MOL0     H95699   0.964   2.949   7.515  1.1327  2.3303  1.2544
  725MOL0     H95700   0.725   2.874   7.580  0.5209 -1.4291  0.4331
  726MOL0     O95701  10.861   7.915   9.092  0.1754 -0.4499  0.6003
  726MOL0     C95702  10.878   7.833   9.001 -0.3379 -0.1080 -0.0358
  726MOL0     O95703  10.789   7.760   8.933 -0.3629  0.1421 -0.5964
  726MOL0     C95704  10.649   7.760   8.944  0.0057 -0.1587  0.4258
  726MOL0     C95705  10.572   7.688   8.851 -0.4379 -0.2300  0.1050
  726MOL0     C95706  10.429   7.678   8.851 -0.9198 -0.5567  1.3618
  726MOL0     C95707  10.364   7.730   8.955 -1.1781 -0.5511 -0.3713
  726MOL0     O95708  10.238   7.692   8.956  0.4740  0.0468  0.6941
  726MOL0     C95709  10.150   7.787   9.000  0.6391 -0.2767 -0.8224
  726MOL0     C95710  10.002   7.755   8.964 -0.5124 -0.0330 -0.9753
  726MOL0     C95711   9.955   7.632   9.057 -1.1244  1.0306  0.0080
  726MOL0     C95712   9.809   7.613   9.021  0.1037 -0.2687  0.4024
  726MOL0     C95713   9.739   7.530   9.130 -0.3073  0.2432 -0.6103
  726MOL0     C95714   9.745   7.381   9.099 -0.3141  0.3574 -0.0148
  726MOL0     C95715   9.628   7.321   9.171  0.4966 -0.0935  0.4449
  726MOL0     C95716   9.636   7.170   9.158  0.1766 -1.2554  0.1046
  726MOL0     N95717   9.731   7.112   9.244  0.2680 -0.0543  0.2225
  726MOL0     C95718   9.870   7.107   9.226  0.5583  0.2717 -0.5599
  726MOL0     C95719   9.910   7.040   9.338 -1.0640  0.5012 -0.5260
  726MOL0     C95720  10.047   6.983   9.369 -0.2455  0.0951  0.5082
  726MOL0     C95721  10.162   7.079   9.323  0.5896  0.1316  0.0324
  726MOL0     C95722  10.275   6.986   9.293 -0.2776  0.4302  0.2377
  726MOL0     C95723  10.401   7.063   9.304 -0.3865  0.0040 -0.1635
  726MOL0     O95724  10.505   6.974   9.262 -0.1172 -0.9907  0.3329
  726MOL0     C95725  10.631   7.019   9.261 -0.5425  0.0550  0.0674
  726MOL0     C95726  10.674   7.150   9.291  0.5013  1.5997  0.4843
  726MOL0     C95727  10.810   7.169   9.303 -0.6375 -0.6375  0.5955
  726MOL0     C95728  10.907   7.075   9.271 -0.0282  0.7984  0.2649
  726MOL0     C95729  11.049   7.114   9.266 -0.5586 -0.4862 -1.0990
  726MOL0     O95730  11.128   7.029   9.198  0.1537  0.8701  0.3477
  726MOL0     C95731  11.265   7.037   9.191  0.2299  0.1357 -0.6992
  726MOL0     C95732  11.340   7.077   9.304  0.1640  0.1668  0.6271
  726MOL0     C95733  11.480   7.093   9.292  0.3806  0.3993  0.5883
  726MOL0     C95734  11.541   7.068   9.177 -0.6610  0.2404 -0.4153
  726MOL0     O95735  11.679   7.109   9.174 -0.3090 -1.0237 -0.3958
  726MOL0     C95736  11.764   7.077   9.063 -0.1334 -0.5542 -0.2131
  726MOL0     C95737  11.905   7.111   9.091  0.1869  0.4762  0.9567
  726MOL0     C95738  11.945   7.051   9.223  0.0847 -1.1227 -0.0082
  726MOL0     C95739  12.099   7.054   9.236  1.0779  0.1246  0.0297
  726MOL0     C95740  12.144   7.048   9.382  0.1921  0.2022 -0.4127
  726MOL0     C95741  12.288   6.992   9.386 -0.1728 -0.0425  0.3852
  726MOL0     C95742  12.333   6.951   9.531 -0.9336  0.8545  0.3301
  726MOL0     C95743  12.349   7.066   9.630 -0.5064 -0.4760  0.0624
  726MOL0    Cl95744  12.466   7.188   9.563 -0.4779 -0.3516 -0.1799
  726MOL0     C95745  11.462   7.017   9.069  0.2411  0.6461 -0.0267
  726MOL0     C95746  11.327   7.004   9.073 -0.3722 -0.3055  0.3923
  726MOL0     O95747  11.084   7.230   9.297 -0.1741 -0.2311  0.1046
  726MOL0     C95748  10.859   6.946   9.255 -0.1136 -0.0535  1.2020
  726MOL0     C95749  10.725   6.918   9.244  0.4404 -0.2626  0.1416
  726MOL0     N95750   9.803   7.015   9.417  0.0870 -0.1548  0.2921
  726MOL0     N95751   9.694   7.063   9.359 -0.6826  0.0826 -0.6740
  726MOL0     C95752  10.434   7.809   9.055  0.5789  0.5142  0.4703
  726MOL0     C95753  10.574   7.820   9.046 -0.1942 -0.8166  0.2583
  726MOL0     C95754  11.018   7.823   8.946  0.0204  0.5871 -0.3098
  726MOL0     C95755  11.111   7.924   8.979 -0.1849  0.0101 -0.0845
  726MOL0     C95756  11.245   7.916   8.930  0.8857  0.4839  0.3418
  726MOL0     C95757  11.282   7.807   8.845 -0.7086  0.1561 -0.4754
  726MOL0     O95758  11.413   7.813   8.805  0.0610  0.6516 -0.2793
  726MOL0     C95759  11.466   7.719   8.711  0.6465  0.8319 -1.4945
  726MOL0     C95760  11.616   7.724   8.722 -0.6835 -0.6458  0.2201
  726MOL0     C95761  11.682   7.634   8.616 -0.5066 -0.3738  0.2386
  726MOL0     C95762  11.836   7.630   8.623  0.2719 -0.4773  0.1353
  726MOL0     C95763  11.881   7.571   8.746 -0.7259  0.8478 -0.2367
  726MOL0     C95764  11.920   7.514   8.849  0.3387 -0.7006  0.1754
  726MOL0     C95765  11.186   7.716   8.806  0.5847 -0.0303  0.3771
  726MOL0     C95766  11.058   7.721   8.855  0.2527  0.7952  0.6631
  726MOL0     H95767  10.634   7.633   8.781 -1.2703 -3.8892  1.9981
  726MOL0     H95768  10.371   7.612   8.789 -1.3110 -1.4718  2.6572
  726MOL0     H95769  10.170   7.885   8.956 -2.0225  1.2702  1.1041
  726MOL0     H95770  10.155   7.798   9.108 -1.0454 -0.7880 -0.6559
  726MOL0     H95771  10.003   7.724   8.859 -1.2651 -1.6940 -0.5244
  726MOL0     H95772   9.943   7.846   8.981 -4.1146 -1.9731 -2.0415
  726MOL0     H95773   9.976   7.656   9.162  0.2066 -2.1197  0.5794
  726MOL0     H95774  10.007   7.540   9.028 -2.7402  0.5631 -1.5683
  726MOL0     H95775   9.751   7.706   9.014 -0.6746 -0.8824 -2.1758
  726MOL0     H95776   9.793   7.572   8.922  1.1304 -0.9666  0.5134
  726MOL0     H95777   9.632   7.555   9.130 -0.8341 -1.8669  0.1759
  726MOL0     H95778   9.769   7.549   9.233 -1.3590 -0.3657 -0.1773
  726MOL0     H95779   9.842   7.345   9.134 -0.0318  0.2304 -0.9048
  726MOL0     H95780   9.723   7.365   8.993 -2.7710 -0.6925  0.5849
  726MOL0     H95781   9.636   7.347   9.277 -2.8654 -2.4499  1.4364
  726MOL0     H95782   9.535   7.364   9.134 -0.8208 -1.7346  1.6500
  726MOL0     H95783   9.668   7.150   9.055  0.7642 -1.9361  0.4094
  726MOL0     H95784   9.539   7.124   9.175  0.1678 -2.6277 -2.9449
  726MOL0     H95785   9.928   7.139   9.139  0.0893  0.0387 -0.9603
  726MOL0     H95786  10.058   6.892   9.310  1.4005  1.9781 -2.2984
  726MOL0     H95787  10.060   6.960   9.475 -0.7416  1.0964  0.7987
  726MOL0     H95788  10.189   7.145   9.405  0.4411 -0.1190  0.2848
  726MOL0     H95789  10.142   7.145   9.237 -1.1886 -0.0881  0.2265
  726MOL0     H95790  10.279   6.897   9.357  2.0561  1.4240  1.5993
  726MOL0     H95791  10.268   6.943   9.193  5.1023  0.8323 -0.6135
  726MOL0     H95792  10.423   7.093   9.407  0.6762 -0.1839 -0.3225
  726MOL0     H95793  10.399   7.154   9.244 -3.3281  0.1302  0.0109
  726MOL0     H95794  10.611   7.238   9.298 -0.6596  0.9307 -0.8472
  726MOL0     H95795  10.846   7.267   9.333  1.4817 -2.1691  3.7666
  726MOL0     H95796  11.305   7.092   9.406  2.5465  0.1432  1.4948
  726MOL0     H95797  11.539   7.138   9.370  3.3869  1.6491 -2.1831
  726MOL0     H95798  11.744   7.134   8.972  3.0708  0.4968 -0.3892
  726MOL0     H95799  11.769   6.969   9.050 -2.5462 -0.7061 -0.2326
  726MOL0     H95800  11.902   7.221   9.096  1.0175  0.5348  0.2717
  726MOL0     H95801  11.970   7.078   9.010  1.4598  1.6178  1.4666
  726MOL0     H95802  11.902   6.950   9.216 -3.2706  0.3009 -2.1742
  726MOL0     H95803  11.897   7.101   9.308  0.9353  3.3653 -1.9392
  726MOL0     H95804  12.128   6.963   9.182 -0.4134 -1.4135  1.6626
  726MOL0     H95805  12.132   7.141   9.179  0.7067 -0.8164 -1.6833
  726MOL0     H95806  12.068   6.994   9.440 -1.9443  2.1098 -1.2633
  726MOL0     H95807  12.146   7.146   9.430 -1.6062 -0.6662  1.6322
  726MOL0     H95808  12.352   7.067   9.340  0.6930 -1.3961 -0.7330
  726MOL0     H95809  12.304   6.899   9.329  2.2162  0.0183  0.8578
  726MOL0     H95810  12.263   6.873   9.560  0.9830  0.1364  3.4236
  726MOL0     H95811  12.428   6.897   9.530 -1.8933 -1.0322 -2.6058
  726MOL0     H95812  12.390   7.022   9.722 -0.9771  2.4034  1.7608
  726MOL0     H95813  12.253   7.108   9.661  0.4263  0.3568  1.9811
  726MOL0     H95814  11.522   7.007   8.979 -0.3519  2.9188 -0.7574
  726MOL0     H95815  11.268   6.968   8.989 -1.0133 -0.6457  0.9702
  726MOL0     H95816  10.925   6.864   9.229 -2.1651 -0.6805 -2.7266
  726MOL0     H95817  10.691   6.818   9.217  2.5533 -1.1398  0.5159
  726MOL0     H95818  10.376   7.850   9.137 -3.1060 -1.3754 -0.9430
  726MOL0     H95819  10.625   7.878   9.123  0.0899  0.2459 -0.7032
  726MOL0     H95820  11.075   8.008   9.037 -1.8989 -0.4491 -0.4369
  726MOL0     H95821  11.314   7.996   8.954  0.9328  0.6907 -0.4712
  726MOL0     H95822  11.436   7.737   8.608  1.1386  1.2511 -1.5730
  726MOL0     H95823  11.448   7.617   8.744  2.8563  0.7907 -0.1662
  726MOL0     H95824  11.646   7.828   8.712 -0.2972 -0.9157 -1.7639
  726MOL0     H95825  11.643   7.688   8.822  0.0581  1.0046  0.6383
  726MOL0     H95826  11.660   7.689   8.524 -0.3730  0.9339  0.9637
  726MOL0     H95827  11.637   7.535   8.603  0.5052 -0.8323  0.1092
  726MOL0     H95828  11.870   7.572   8.537  0.5222 -3.9624  2.3630
  726MOL0     H95829  11.880   7.730   8.618  1.5113 -0.8731  2.0262
  726MOL0     H95830  11.950   7.452   8.932  3.2374  1.6320  1.0654
  726MOL0     H95831  11.211   7.634   8.739  2.9595  0.7775  0.2027
  726MOL0     H95832  10.985   7.653   8.813  0.6964  1.0628 -0.5732
  727MOL0     O95833   9.326   4.693   0.849  0.5948  0.2491 -0.3067
  727MOL0     C95834   9.376   4.701   0.739  0.3088 -1.2973  0.1702
  727MOL0     O95835   9.324   4.756   0.631 -0.3068 -0.4610 -0.8160
  727MOL0     C95836   9.202   4.814   0.645 -0.0291 -0.0253 -0.0577
  727MOL0     C95837   9.108   4.791   0.541  0.3890  0.0318  0.1312
  727MOL0     C95838   8.976   4.840   0.542 -0.4149  1.0363  0.6291
  727MOL0     C95839   8.942   4.937   0.635  0.1615  0.4265 -0.2991
  727MOL0     O95840   8.816   4.992   0.623  0.0029  0.1487 -0.3159
  727MOL0     C95841   8.754   5.045   0.745  0.7969 -0.3593  0.5547
  727MOL0     C95842   8.597   5.086   0.709 -0.2238  0.2218 -1.0732
  727MOL0     C95843   8.517   4.995   0.618 -0.1700 -0.5522  0.2091
  727MOL0     C95844   8.379   5.056   0.570 -0.5942 -0.4812  0.0358
  727MOL0     C95845   8.309   4.949   0.487 -0.8774  0.1287 -0.3702
  727MOL0     C95846   8.172   4.999   0.444 -0.0386  0.5916  0.8039
  727MOL0     C95847   8.097   4.888   0.368 -0.4222  0.4111  0.3901
  727MOL0     C95848   8.171   4.827   0.243 -0.3603  0.3546  0.3590
  727MOL0     N95849   8.099   4.711   0.186 -0.3129  0.5462  0.4976
  727MOL0     C95850   8.145   4.578   0.202 -0.4131 -0.8035  0.3575
  727MOL0     C95851   8.065   4.508   0.116 -0.0111  0.2805 -0.3930
  727MOL0     C95852   8.073   4.355   0.095  0.3756  0.0450 -0.2081
  727MOL0     C95853   7.943   4.281   0.132 -0.6980 -0.0299 -0.9052
  727MOL0     C95854   7.941   4.266   0.282 -0.1179 -0.2278  0.1665
  727MOL0     C95855   7.830   4.192   0.349  0.8278  0.1430  0.1493
  727MOL0     O95856   7.717   4.287   0.349 -0.0372  0.4639  0.2204
  727MOL0     C95857   7.584   4.248   0.341  0.9544  0.3011  0.2029
  727MOL0     C95858   7.479   4.349   0.343 -0.4040  0.3205  0.0532
  727MOL0     C95859   7.347   4.311   0.317  0.4227  0.2251 -0.4580
  727MOL0     C95860   7.311   4.172   0.306  0.1374  0.3356 -0.4222
  727MOL0     C95861   7.172   4.135   0.297  0.9241 -0.0326  0.5706
  727MOL0     O95862   7.144   4.004   0.257  0.4177 -0.5402 -0.6522
  727MOL0     C95863   7.017   3.955   0.263 -0.5215  0.1033  0.2042
  727MOL0     C95864   6.910   4.005   0.193  0.3136  0.0062  0.2694
  727MOL0     C95865   6.777   3.958   0.192  0.0656  0.1163  0.0753
  727MOL0     C95866   6.751   3.849   0.277 -0.2736 -0.1647  0.7179
  727MOL0     O95867   6.617   3.796   0.276 -0.2008  0.2552  0.7954
  727MOL0     C95868   6.586   3.674   0.345 -0.2368 -0.5616  0.1594
  727MOL0     C95869   6.454   3.609   0.298 -0.0396  0.1195  0.0132
  727MOL0     C95870   6.326   3.687   0.336 -0.4700 -0.3235  0.0534
  727MOL0     C95871   6.200   3.625   0.276  0.1429 -0.3330  1.0103
  727MOL0     C95872   6.076   3.713   0.318 -0.2892  1.0206 -0.0865
  727MOL0     C95873   5.945   3.681   0.234 -0.5153  0.3935  0.2375
  727MOL0     C95874   5.843   3.784   0.260 -0.0596 -0.1352 -0.0243
  727MOL0     C95875   5.704   3.735   0.226 -0.2031  1.0608 -0.3171
  727MOL0    Cl95876   5.591   3.874   0.260  0.6355 -0.0458 -0.3748
  727MOL0     C95877   6.858   3.786   0.349 -0.2274  0.0604  0.2305
  727MOL0     C95878   6.985   3.845   0.341  0.4207 -0.4064 -0.5871
  727MOL0     O95879   7.090   4.221   0.325 -0.0841  0.0371 -0.2401
  727MOL0     C95880   7.410   4.074   0.314  0.2763 -0.3869 -0.0986
  727MOL0     C95881   7.542   4.111   0.341  0.0070  0.6138 -0.5611
  727MOL0     N95882   7.986   4.594   0.043  0.0586 -0.1345  0.0491
  727MOL0     N95883   8.016   4.715   0.081 -0.1414 -1.5305  0.5695
  727MOL0     C95884   9.028   4.965   0.739  0.0873  0.5338 -0.0180
  727MOL0     C95885   9.157   4.900   0.741  0.4566 -0.2854 -0.1778
  727MOL0     C95886   9.517   4.670   0.728 -0.4036  0.5971  0.0650
  727MOL0     C95887   9.605   4.713   0.628  0.5297  0.0998  0.0786
  727MOL0     C95888   9.740   4.661   0.622 -0.7159 -0.6647 -0.3555
  727MOL0     C95889   9.793   4.562   0.703  0.1129  0.3453 -0.3218
  727MOL0     O95890   9.926   4.519   0.683 -0.4799 -0.3032  0.2390
  727MOL0     C95891   9.957   4.387   0.736 -0.5942  1.6491  0.5373
  727MOL0     C95892  10.038   4.400   0.862  0.1583 -0.6068  0.2439
  727MOL0     C95893  10.049   4.259   0.939  0.5385 -0.6981  1.0599
  727MOL0     C95894  10.139   4.271   1.062  1.0939 -0.3825 -0.3483
  727MOL0     C95895  10.058   4.339   1.170 -0.3216  0.4921  0.1849
  727MOL0     C95896   9.983   4.388   1.252  0.2178  0.4278  0.2989
  727MOL0     C95897   9.706   4.528   0.812  0.1944  1.0383  0.1780
  727MOL0     C95898   9.576   4.583   0.826 -1.4219  0.4219  0.1538
  727MOL0     H95899   9.158   4.731   0.466  5.0900  0.4171  2.5226
  727MOL0     H95900   8.907   4.816   0.461  1.2741 -2.4195  0.0352
  727MOL0     H95901   8.799   5.138   0.782  1.3004 -0.9504  1.4581
  727MOL0     H95902   8.751   4.969   0.824  1.9959 -0.9682  0.0390
  727MOL0     H95903   8.613   5.188   0.671  1.3743  0.3808 -0.0844
  727MOL0     H95904   8.553   5.100   0.808 -0.5334 -0.3810 -1.1265
  727MOL0     H95905   8.501   4.896   0.663  0.6197 -2.2860 -3.0188
  727MOL0     H95906   8.578   4.974   0.530  1.2872 -0.6892  1.2095
  727MOL0     H95907   8.316   5.074   0.658  0.4081  0.6066  0.5563
  727MOL0     H95908   8.386   5.156   0.527  2.4253 -0.9610 -0.7634
  727MOL0     H95909   8.306   4.858   0.547 -2.7986  1.3039  1.4299
  727MOL0     H95910   8.368   4.928   0.397 -0.1755  1.9054 -0.3772
  727MOL0     H95911   8.179   5.085   0.377  1.9545 -0.6231 -0.6727
  727MOL0     H95912   8.118   5.034   0.532  1.2852  1.5193  1.2693
  727MOL0     H95913   8.082   4.810   0.442  0.0439 -2.8065 -2.6463
  727MOL0     H95914   7.999   4.929   0.344 -1.8367 -2.6906  0.4440
  727MOL0     H95915   8.269   4.789   0.273  0.2874  2.9570  1.8553
  727MOL0     H95916   8.177   4.900   0.162  2.5093 -0.4591 -0.2719
  727MOL0     H95917   8.234   4.547   0.257  1.9971  2.9718 -1.0319
  727MOL0     H95918   8.162   4.312   0.142  0.3124 -2.8255 -2.4253
  727MOL0     H95919   8.092   4.335  -0.011  1.4365  0.8503 -0.1850
  727MOL0     H95920   7.952   4.180   0.091  4.0383 -1.7790  3.3001
  727MOL0     H95921   7.862   4.337   0.084 -0.6403  1.1715  0.3267
  727MOL0     H95922   8.031   4.215   0.320 -2.0061 -2.5443  1.8639
  727MOL0     H95923   7.945   4.367   0.323 -1.4555  0.7477 -1.9654
  727MOL0     H95924   7.851   4.168   0.454  0.1011 -0.9764  0.0545
  727MOL0     H95925   7.795   4.101   0.300 -1.4462  1.1992 -0.3235
  727MOL0     H95926   7.509   4.454   0.349  2.9844 -0.5089 -0.4501
  727MOL0     H95927   7.261   4.377   0.321 -0.0008 -0.3481 -0.0513
  727MOL0     H95928   6.933   4.091   0.130  0.7077  0.6707  1.2959
  727MOL0     H95929   6.697   4.001   0.134 -2.0512 -0.3326  2.4706
  727MOL0     H95930   6.579   3.691   0.453  2.9737  2.3822  0.0944
  727MOL0     H95931   6.663   3.600   0.321 -0.6963 -0.8544 -0.4029
  727MOL0     H95932   6.451   3.508   0.338  0.5665  0.2634  0.4332
  727MOL0     H95933   6.474   3.601   0.190 -0.2946  2.3427 -0.2553
  727MOL0     H95934   6.356   3.788   0.305  2.6847 -1.2934 -0.3988
  727MOL0     H95935   6.313   3.693   0.444 -3.4969 -3.3106  0.0335
  727MOL0     H95936   6.222   3.633   0.169 -1.7810 -1.4224  0.4751
  727MOL0     H95937   6.186   3.520   0.304 -1.5049 -0.1463  1.0076
  727MOL0     H95938   6.103   3.818   0.303  1.6094  0.8517  1.6903
  727MOL0     H95939   6.056   3.681   0.420 -3.1935 -1.1279 -1.1991
  727MOL0     H95940   5.915   3.580   0.265 -1.0587  1.1555  2.3729
  727MOL0     H95941   5.983   3.679   0.132  0.9603  0.6124  0.7535
  727MOL0     H95942   5.853   3.799   0.368  1.0220 -0.2887 -0.0916
  727MOL0     H95943   5.858   3.883   0.217 -2.0912  0.1036 -0.3158
  727MOL0     H95944   5.681   3.652   0.293  0.2421  0.8871 -0.3765
  727MOL0     H95945   5.679   3.709   0.123 -3.5061  2.2292  0.0651
  727MOL0     H95946   6.852   3.696   0.410  0.7324  1.3237  2.3034
  727MOL0     H95947   7.067   3.798   0.395 -2.1728 -1.2435  3.0384
  727MOL0     H95948   7.378   3.971   0.300  0.2070 -0.3018 -0.5776
  727MOL0     H95949   7.609   4.026   0.353 -0.9629 -0.0424  0.4006
  727MOL0     H95950   8.989   5.029   0.818 -0.2069  1.1213 -0.6219
  727MOL0     H95951   9.221   4.926   0.825  1.7482  1.4684 -1.6143
  727MOL0     H95952   9.577   4.768   0.539 -1.3409 -1.3280 -0.2758
  727MOL0     H95953   9.797   4.679   0.531 -2.1964 -1.2179 -1.4236
  727MOL0     H95954  10.020   4.326   0.670 -0.9280 -1.1789  2.6470
  727MOL0     H95955   9.872   4.320   0.754  2.1470 -2.0375  1.0960
  727MOL0     H95956  10.133   4.445   0.833 -0.4649  0.8569  0.3954
  727MOL0     H95957   9.987   4.467   0.931  1.8170  1.2504 -0.2302
  727MOL0     H95958  10.109   4.197   0.872  0.4684  0.8258 -0.4850
  727MOL0     H95959   9.952   4.218   0.970 -0.9572  1.4766 -0.4503
  727MOL0     H95960  10.180   4.175   1.097  1.9551  0.2484  0.4301
  727MOL0     H95961  10.227   4.331   1.040  0.0352  0.5102 -2.3754
  727MOL0     H95962   9.927   4.420   1.337  2.2157  0.3224  1.7190
  727MOL0     H95963   9.747   4.462   0.889 -0.8541  2.3909  1.9727
  727MOL0     H95964   9.521   4.540   0.910 -0.1976 -0.5082  0.5067
  728MOL0     O95965   2.746   8.130   8.584 -1.0209 -0.5461 -0.2530
  728MOL0     C95966   2.743   8.223   8.505  0.2605 -0.0615 -0.4462
  728MOL0     O95967   2.625   8.266   8.441 -0.3106 -0.1298 -0.6326
  728MOL0     C95968   2.501   8.207   8.453 -0.5949 -0.3036 -0.1499
  728MOL0     C95969   2.452   8.124   8.559 -1.5811 -1.2156  0.5859
  728MOL0     C95970   2.327   8.072   8.556 -0.2479  0.2482  0.8010
  728MOL0     C95971   2.232   8.093   8.451  0.0282 -0.4681  0.3359
  728MOL0     O95972   2.114   8.029   8.448 -0.1046  0.3050  0.0349
  728MOL0     C95973   1.995   8.089   8.384 -0.1491  0.1612  0.3082
  728MOL0     C95974   1.953   8.227   8.436 -0.3860  0.1625  0.2382
  728MOL0     C95975   1.827   8.272   8.363 -0.0386  0.2256 -0.1031
  728MOL0     C95976   1.772   8.412   8.398  0.1536 -0.3586 -0.2977
  728MOL0     C95977   1.657   8.455   8.304 -0.1232 -0.6908  0.0448
  728MOL0     C95978   1.590   8.594   8.336 -0.3418 -0.0270 -0.2830
  728MOL0     C95979   1.476   8.619   8.236 -0.3876 -0.8394 -0.2788
  728MOL0     C95980   1.379   8.719   8.301  0.2220 -0.6237 -0.0750
  728MOL0     N95981   1.414   8.859   8.304 -0.2905 -0.1427  0.3154
  728MOL0     C95982   1.481   8.935   8.206 -0.2989  0.0458 -0.8238
  728MOL0     C95983   1.498   9.055   8.271  0.1539  0.9584 -0.0487
  728MOL0     C95984   1.574   9.168   8.206  0.1378  0.1918  0.2048
  728MOL0     C95985   1.722   9.134   8.205 -0.9058  0.0151  0.2526
  728MOL0     C95986   1.799   9.264   8.173 -0.1660 -0.4983  0.0813
  728MOL0     C95987   1.939   9.232   8.117  0.3272 -0.3405  0.0567
  728MOL0     O95988   1.987   9.358   8.082  0.2434  0.3825  0.2503
  728MOL0     C95989   2.120   9.367   8.068 -0.6657 -0.1705  0.1509
  728MOL0     C95990   2.188   9.294   7.970  0.4028 -0.8894  0.0959
  728MOL0     C95991   2.328   9.278   7.982 -0.1476 -0.9978 -0.1563
  728MOL0     C95992   2.400   9.332   8.089 -0.7668 -0.2472  0.6730
  728MOL0     C95993   2.553   9.323   8.097  0.2080  0.9541 -0.3389
  728MOL0     O95994   2.609   9.388   8.201 -0.7678 -0.0416 -0.2095
  728MOL0     C95995   2.743   9.394   8.206  0.2092 -0.5965 -1.0031
  728MOL0     C95996   2.827   9.288   8.244 -0.7350  0.6564  0.3638
  728MOL0     C95997   2.966   9.311   8.248  0.4053  0.6621 -0.6780
  728MOL0     C95998   3.018   9.440   8.236  0.5096 -0.2786 -0.0417
  728MOL0     O95999   3.147   9.481   8.258 -0.7073 -0.4706  0.1812
  728MOL0     C96000   3.248   9.391   8.218 -0.1034  0.4946 -0.7090
  728MOL0     C96001   3.371   9.467   8.166  0.5181 -0.7156 -0.6689
  728MOL0     C96002   3.447   9.537   8.283  0.8230 -0.0167  0.4956
  728MOL0     C96003   3.553   9.639   8.238 -0.2736 -0.4383  0.3404
  728MOL0     C96004   3.617   9.703   8.366  0.3723  0.2970 -0.0313
  728MOL0     C96005   3.720   9.810   8.335  0.4153 -0.8167  0.7369
  728MOL0     C96006   3.639   9.946   8.302 -0.3444  0.8017  0.1457
  728MOL0     C96007   3.714  10.035   8.212  0.2401 -0.2379 -0.3682
  728MOL0    Cl96008   3.603  10.152   8.146  0.5444  0.3950 -0.1133
  728MOL0     C96009   2.928   9.547   8.215  0.3839  0.3355 -0.0792
  728MOL0     C96010   2.790   9.524   8.198 -0.3855 -1.0669 -0.6452
  728MOL0     O96011   2.608   9.259   8.005 -0.2753 -0.1785 -0.2300
  728MOL0     C96012   2.332   9.420   8.176  0.4165  0.0313 -0.3731
  728MOL0     C96013   2.193   9.428   8.171 -0.6571  0.2264  0.3868
  728MOL0     N96014   1.433   9.053   8.390  0.8113 -0.2769  0.2162
  728MOL0     N96015   1.375   8.941   8.411  0.1894  0.7049  0.1706
  728MOL0     C96016   2.279   8.181   8.350 -0.4657  0.1060 -0.5148
  728MOL0     C96017   2.406   8.231   8.349 -1.4155 -0.2221 -1.0873
  728MOL0     C96018   2.864   8.299   8.454 -0.4743 -0.7391 -0.1163
  728MOL0     C96019   2.849   8.411   8.362  0.1704 -0.6669 -0.3362
  728MOL0     C96020   2.955   8.499   8.335  0.3503  0.2970  0.4608
  728MOL0     C96021   3.091   8.473   8.385 -0.4902  0.9612  0.4826
  728MOL0     O96022   3.196   8.552   8.350 -0.6587  0.1637  0.4856
  728MOL0     C96023   3.324   8.483   8.342 -0.0420 -0.5349 -0.1033
  728MOL0     C96024   3.429   8.587   8.332  0.6578  0.6130 -0.3705
  728MOL0     C96025   3.577   8.530   8.334 -0.3795  0.8596  0.4610
  728MOL0     C96026   3.678   8.646   8.332 -0.3658 -0.2038 -0.1619
  728MOL0     C96027   3.821   8.602   8.337  0.2450 -0.1857 -0.0156
  728MOL0     C96028   3.933   8.571   8.360 -0.3987 -0.2520 -0.3477
  728MOL0     C96029   3.103   8.368   8.481  0.0858  0.3306  0.4369
  728MOL0     C96030   2.992   8.283   8.512  1.1302 -0.6374  0.4246
  728MOL0     H96031   2.521   8.108   8.641  0.4936  0.6484 -0.6671
  728MOL0     H96032   2.304   8.009   8.641  0.4726 -0.4179  0.5079
  728MOL0     H96033   1.916   8.015   8.399  0.5217 -1.0535 -1.7277
  728MOL0     H96034   2.021   8.102   8.278  2.8627  1.1054  1.0738
  728MOL0     H96035   2.031   8.304   8.426  0.5129 -0.7062  0.3650
  728MOL0     H96036   1.948   8.226   8.546 -0.2966 -2.3553  0.2839
  728MOL0     H96037   1.748   8.199   8.379  2.3495 -2.0452  2.2932
  728MOL0     H96038   1.846   8.282   8.256  1.3671  1.6722  0.2335
  728MOL0     H96039   1.743   8.396   8.502 -2.0282  2.5262 -0.3260
  728MOL0     H96040   1.862   8.476   8.396 -1.9507  2.9872 -4.2346
  728MOL0     H96041   1.581   8.377   8.303 -1.3603  0.4743 -0.0363
  728MOL0     H96042   1.708   8.444   8.208  3.2816 -1.8012  1.8019
  728MOL0     H96043   1.672   8.666   8.329 -0.4557  0.7859  4.1055
  728MOL0     H96044   1.561   8.599   8.441  1.1003  1.1573  0.0835
  728MOL0     H96045   1.511   8.659   8.140  1.3176 -2.0505 -0.2047
  728MOL0     H96046   1.416   8.529   8.220 -2.2365  0.2532  0.2035
  728MOL0     H96047   1.353   8.686   8.402  1.4591  4.6053  2.2952
  728MOL0     H96048   1.277   8.721   8.261 -1.4188  1.3128  3.6811
  728MOL0     H96049   1.516   8.895   8.112 -0.2266 -4.1775  0.7818
  728MOL0     H96050   1.558   9.255   8.271 -1.4298 -0.9325  1.3925
  728MOL0     H96051   1.544   9.186   8.103  1.1463 -2.2606 -0.5846
  728MOL0     H96052   1.746   9.056   8.132 -1.4946  1.0261 -1.0643
  728MOL0     H96053   1.754   9.103   8.305 -2.4779  2.4339  1.6020
  728MOL0     H96054   1.753   9.325   8.094  0.0710  1.0283  1.0682
  728MOL0     H96055   1.814   9.319   8.266  2.3159  0.1352 -0.6104
  728MOL0     H96056   1.928   9.167   8.029  1.3794 -1.2535  0.5585
  728MOL0     H96057   2.002   9.179   8.190  1.5674  0.8819 -0.0969
  728MOL0     H96058   2.125   9.250   7.893  0.6791 -0.9731 -0.0813
  728MOL0     H96059   2.374   9.219   7.904  0.0848  0.4409 -1.1350
  728MOL0     H96060   2.786   9.190   8.261 -0.9667  0.7565  0.3888
  728MOL0     H96061   3.022   9.223   8.276 -1.0598  0.6309  2.7607
  728MOL0     H96062   3.213   9.324   8.139 -2.1050 -0.6816  1.0555
  728MOL0     H96063   3.283   9.331   8.302  2.7380  2.1336 -0.6048
  728MOL0     H96064   3.337   9.546   8.098 -0.5631 -1.1588 -0.6613
  728MOL0     H96065   3.442   9.398   8.119 -0.9992 -2.4653 -0.5054
  728MOL0     H96066   3.490   9.453   8.339 -2.2872 -0.1796  2.9415
  728MOL0     H96067   3.365   9.573   8.346  0.0658 -2.2566  0.9126
  728MOL0     H96068   3.631   9.594   8.175 -1.0955 -0.7969 -0.4369
  728MOL0     H96069   3.507   9.718   8.178  1.5724 -0.9078 -1.8433
  728MOL0     H96070   3.661   9.617   8.419 -2.5684 -2.0535 -1.1014
  728MOL0     H96071   3.536   9.734   8.433 -0.3009 -2.5726  0.6179
  728MOL0     H96072   3.778   9.782   8.247  1.9416  0.2879  1.3529
  728MOL0     H96073   3.787   9.830   8.419  2.4713 -0.9947 -0.8101
  728MOL0     H96074   3.556   9.916   8.237  0.6129 -0.3169 -0.5883
  728MOL0     H96075   3.601  10.002   8.388  1.4538  1.9993  0.2116
  728MOL0     H96076   3.762   9.977   8.133  0.2680 -1.2742  0.3912
  728MOL0     H96077   3.799  10.093   8.249 -1.3526  2.1653 -0.2436
  728MOL0     H96078   2.966   9.648   8.226  2.0097 -0.0152 -1.9822
  728MOL0     H96079   2.728   9.610   8.174  2.0547  1.5076  1.4656
  728MOL0     H96080   2.389   9.482   8.245 -1.5391  1.2213  0.2600
  728MOL0     H96081   2.139   9.474   8.253 -1.1046  0.3484  0.0321
  728MOL0     H96082   2.221   8.207   8.262 -2.6091 -1.8099  0.2333
  728MOL0     H96083   2.438   8.282   8.259 -1.9060 -1.6424 -2.1171
  728MOL0     H96084   2.746   8.423   8.329 -0.7942 -2.3719  1.8383
  728MOL0     H96085   2.928   8.573   8.260 -1.7154  1.0825  1.8982
  728MOL0     H96086   3.323   8.400   8.271  0.8149 -0.7322  0.1055
  728MOL0     H96087   3.339   8.437   8.440 -0.8661  0.6425  0.6025
  728MOL0     H96088   3.409   8.628   8.232  3.2384 -0.1280 -1.2822
  728MOL0     H96089   3.419   8.665   8.408 -0.1574  2.0072 -1.8324
  728MOL0     H96090   3.599   8.462   8.252  2.4612  1.4001  0.6882
  728MOL0     H96091   3.588   8.472   8.426  1.7699 -0.6021 -0.6292
  728MOL0     H96092   3.654   8.710   8.246 -1.0294  0.5967  0.5999
  728MOL0     H96093   3.655   8.702   8.423  0.4779 -1.2195  0.6980
  728MOL0     H96094   4.030   8.533   8.387 -0.1464  0.8344  0.3113
  728MOL0     H96095   3.188   8.339   8.542  1.2699 -1.2190 -1.8163
  728MOL0     H96096   3.016   8.204   8.582 -0.3901  0.0195  1.7471
  729MOL0     O96097   6.683   5.383   8.837 -0.0334 -0.0490 -0.1523
  729MOL0     C96098   6.718   5.491   8.880  0.3412 -0.6330  0.0957
  729MOL0     O96099   6.637   5.585   8.939 -0.4222 -0.3132  0.4074
  729MOL0     C96100   6.505   5.553   8.955  0.5607 -0.3039 -1.0672
  729MOL0     C96101   6.413   5.595   8.864  0.3059 -0.3189 -0.7966
  729MOL0     C96102   6.277   5.576   8.886 -0.6047 -0.1219  0.3262
  729MOL0     C96103   6.244   5.505   8.998 -0.2248  0.3073 -0.4985
  729MOL0     O96104   6.110   5.482   9.016  0.0146 -0.4357  0.2569
  729MOL0     C96105   6.068   5.480   9.154  1.1746 -0.0733 -0.6579
  729MOL0     C96106   5.935   5.553   9.147 -0.1001 -0.0717 -1.0554
  729MOL0     C96107   5.836   5.464   9.074  0.7966 -0.6700 -1.1031
  729MOL0     C96108   5.732   5.422   9.177  0.0528 -0.7411 -0.5115
  729MOL0     C96109   5.615   5.348   9.107 -0.3623 -0.8368 -0.5004
  729MOL0     C96110   5.654   5.232   9.017  0.1324 -0.0253 -0.1861
  729MOL0     C96111   5.539   5.136   9.002  0.7943 -1.6976  0.5366
  729MOL0     C96112   5.427   5.192   8.915  0.3764  0.7321  0.7335
  729MOL0     N96113   5.485   5.240   8.789 -0.2058 -0.8256  1.0583
  729MOL0     C96114   5.551   5.163   8.697 -0.0528  0.1013 -1.2056
  729MOL0     C96115   5.593   5.254   8.603  0.4055  0.1645 -0.3841
  729MOL0     C96116   5.669   5.229   8.476 -0.0623 -0.0212 -0.1602
  729MOL0     C96117   5.574   5.185   8.365  0.5406 -0.3709  0.8731
  729MOL0     C96118   5.637   5.215   8.219 -0.6751 -0.4259 -0.5072
  729MOL0     C96119   5.640   5.078   8.151  0.7918  0.0453  0.2068
  729MOL0     O96120   5.715   4.978   8.212  0.6618  0.0482 -0.5154
  729MOL0     C96121   5.851   5.008   8.228 -0.8336 -0.4705 -0.7653
  729MOL0     C96122   5.931   5.098   8.151  0.8222 -0.7818 -0.2234
  729MOL0     C96123   6.072   5.090   8.152 -0.5131  1.4883 -0.1332
  729MOL0     C96124   6.138   4.989   8.217 -0.5254  0.4226 -0.3850
  729MOL0     C96125   6.280   4.979   8.202  0.2683  0.4029  0.2430
  729MOL0     O96126   6.345   5.083   8.146 -0.2598  0.5724 -1.0733
  729MOL0     C96127   6.478   5.061   8.134  0.5362  0.3339 -0.2223
  729MOL0     C96128   6.524   5.002   8.018  0.1972 -0.2111  0.4315
  729MOL0     C96129   6.653   4.949   8.008  0.3384 -0.1575  0.0130
  729MOL0     C96130   6.740   4.975   8.119 -0.1798 -0.5497  0.8353
  729MOL0     O96131   6.876   4.941   8.108 -0.1776 -0.0847 -0.2689
  729MOL0     C96132   6.948   5.005   8.002 -0.7786 -0.1448 -0.2280
  729MOL0     C96133   7.017   4.918   7.895  0.0713 -0.3424 -0.1158
  729MOL0     C96134   6.927   4.865   7.781  0.5516  0.5577  0.3140
  729MOL0     C96135   7.016   4.769   7.685 -0.7054 -0.3098  0.2589
  729MOL0     C96136   6.946   4.743   7.546  0.0877 -0.0247  0.3784
  729MOL0     C96137   6.822   4.652   7.569  0.3159 -1.0934  0.6110
  729MOL0     C96138   6.762   4.615   7.426 -0.2184  0.4032  0.3222
  729MOL0     C96139   6.717   4.727   7.341 -0.7411  0.2398  0.0315
  729MOL0    Cl96140   6.619   4.834   7.445  0.1449  0.1245  0.2399
  729MOL0     C96141   6.695   5.037   8.236  0.0378  0.0239  0.3551
  729MOL0     C96142   6.563   5.085   8.240 -0.6400  0.6820  0.4421
  729MOL0     O96143   6.329   4.872   8.233 -0.3086  0.2285 -0.1507
  729MOL0     C96144   6.063   4.894   8.291  0.3361  0.5234  0.4422
  729MOL0     C96145   5.923   4.905   8.296  0.1721 -0.6023  0.2879
  729MOL0     N96146   5.539   5.383   8.631 -0.6494 -0.2465  0.3657
  729MOL0     N96147   5.492   5.374   8.750 -0.1615 -0.9776 -0.8010
  729MOL0     C96148   6.338   5.455   9.086 -0.0069  0.2794  0.1551
  729MOL0     C96149   6.472   5.475   9.062  1.0196 -0.0511  0.4760
  729MOL0     C96150   6.863   5.515   8.884 -1.0806  0.0661 -0.1935
  729MOL0     C96151   6.911   5.637   8.916 -0.7641  0.2767 -0.4035
  729MOL0     C96152   7.054   5.661   8.918  0.2126  0.0534 -0.2295
  729MOL0     C96153   7.148   5.568   8.889 -0.0464 -1.1070 -0.2423
  729MOL0     O96154   7.278   5.611   8.914 -0.1825  0.3421 -0.0184
  729MOL0     C96155   7.380   5.515   8.874 -0.2146  0.7390 -0.3550
  729MOL0     C96156   7.508   5.578   8.892  0.4206 -0.2863 -0.3572
  729MOL0     C96157   7.622   5.488   8.836  0.4109 -0.6427  0.3423
  729MOL0     C96158   7.764   5.527   8.876  0.3319 -0.0576 -0.3539
  729MOL0     C96159   7.864   5.417   8.855  0.3264 -0.3088  0.8152
  729MOL0     C96160   7.950   5.339   8.823  0.4644 -0.6966 -0.2195
  729MOL0     C96161   7.104   5.443   8.844  0.9407 -0.0150  0.0842
  729MOL0     C96162   6.966   5.421   8.846  0.5009  0.9187  0.2966
  729MOL0     H96163   6.445   5.662   8.785  2.8275  1.2487  1.3692
  729MOL0     H96164   6.201   5.621   8.823  0.2000  0.9394  0.0733
  729MOL0     H96165   6.134   5.533   9.224 -0.9580  1.8089  0.0548
  729MOL0     H96166   6.061   5.375   9.181  0.5767 -0.3978 -2.0340
  729MOL0     H96167   5.950   5.652   9.102  1.2208  1.4394  2.4029
  729MOL0     H96168   5.907   5.585   9.248 -1.2553 -1.3355 -0.9521
  729MOL0     H96169   5.884   5.383   9.018  0.3564  0.2196 -2.8233
  729MOL0     H96170   5.785   5.522   8.997  0.7703 -1.2802 -1.5548
  729MOL0     H96171   5.778   5.344   9.240 -0.2554 -0.0402  0.6155
  729MOL0     H96172   5.694   5.501   9.242  0.5627  0.3449 -1.4925
  729MOL0     H96173   5.557   5.420   9.049 -1.0022 -0.4461  0.5968
  729MOL0     H96174   5.540   5.320   9.182  0.8173  1.8897  1.9038
  729MOL0     H96175   5.731   5.172   9.066 -0.0222 -2.0236 -2.2277
  729MOL0     H96176   5.695   5.278   8.927  0.5842  0.7649  0.4066
  729MOL0     H96177   5.586   5.045   8.965  1.0188 -1.0118 -0.9267
  729MOL0     H96178   5.498   5.115   9.102 -1.5715  1.0251  0.2705
  729MOL0     H96179   5.370   5.259   8.980 -0.6237  0.9437 -0.3521
  729MOL0     H96180   5.358   5.110   8.895  1.5882 -0.4197  1.1368
  729MOL0     H96181   5.574   5.057   8.700  1.5504  0.4425  0.5289
  729MOL0     H96182   5.758   5.166   8.487 -0.4857 -0.5834  0.0979
  729MOL0     H96183   5.707   5.328   8.454  0.6608  0.3097  2.2648
  729MOL0     H96184   5.481   5.242   8.377 -0.1535 -1.4173  0.5784
  729MOL0     H96185   5.552   5.081   8.391 -0.0703 -0.4381  0.1298
  729MOL0     H96186   5.571   5.282   8.164  0.8254  1.7858  0.2600
  729MOL0     H96187   5.735   5.262   8.227 -0.7947  0.0019 -1.4175
  729MOL0     H96188   5.663   5.102   8.047 -2.0161 -1.3483 -0.8556
  729MOL0     H96189   5.538   5.037   8.150 -0.6991  3.3577  0.8688
  729MOL0     H96190   5.884   5.167   8.082 -1.1125 -0.3751  1.4121
  729MOL0     H96191   6.137   5.159   8.099 -0.9955  0.7180 -1.7842
  729MOL0     H96192   6.456   4.993   7.935  0.3769  1.5940  0.0517
  729MOL0     H96193   6.681   4.893   7.919 -1.0233 -2.7152  1.1175
  729MOL0     H96194   7.030   5.057   8.052 -2.4395  2.2048  0.1849
  729MOL0     H96195   6.885   5.075   7.947 -1.7334  0.1533  1.1756
  729MOL0     H96196   7.073   4.838   7.943  1.3836 -0.9241 -2.4585
  729MOL0     H96197   7.099   4.981   7.860 -0.4797  0.9231  0.7876
  729MOL0     H96198   6.882   4.947   7.725  2.2223  0.1719 -1.7326
  729MOL0     H96199   6.854   4.810   7.841  0.5658  0.4777  0.2575
  729MOL0     H96200   7.116   4.812   7.678 -1.1685  0.9539  0.9701
  729MOL0     H96201   7.025   4.676   7.742  4.4363  1.0160  2.1289
  729MOL0     H96202   7.014   4.681   7.486  0.9709  1.1837  0.1024
  729MOL0     H96203   6.920   4.830   7.486 -3.4188 -0.9080  0.4365
  729MOL0     H96204   6.747   4.697   7.634 -0.7083 -0.8432 -0.7113
  729MOL0     H96205   6.850   4.560   7.621 -0.0378 -0.8492  1.2485
  729MOL0     H96206   6.833   4.547   7.376 -2.6944 -2.1441  0.0160
  729MOL0     H96207   6.680   4.547   7.450  0.0075  0.0976  0.2526
  729MOL0     H96208   6.659   4.689   7.256 -0.8471  1.8874 -0.6762
  729MOL0     H96209   6.798   4.785   7.297 -0.7496 -0.4443 -0.9246
  729MOL0     H96210   6.762   5.048   8.320  0.1124 -2.5250  0.6923
  729MOL0     H96211   6.530   5.123   8.336 -1.2205 -1.7094  1.2320
  729MOL0     H96212   6.111   4.812   8.344 -2.0644 -0.9435  0.5236
  729MOL0     H96213   5.869   4.822   8.342 -1.7125  1.1386  1.3871
  729MOL0     H96214   6.314   5.390   9.169  1.5774  1.3119  1.5053
  729MOL0     H96215   6.550   5.423   9.117 -1.1066 -0.7385  3.0550
  729MOL0     H96216   6.850   5.718   8.955  0.1596 -0.2097  2.2060
  729MOL0     H96217   7.096   5.756   8.949  1.9637 -0.9598  0.6558
  729MOL0     H96218   7.361   5.487   8.770 -1.4739 -0.2067  0.1053
  729MOL0     H96219   7.381   5.416   8.921 -0.0513  0.9244  0.0319
  729MOL0     H96220   7.500   5.673   8.838 -2.9892 -1.0283 -1.3880
  729MOL0     H96221   7.538   5.596   8.996 -1.3754 -0.3648  0.2050
  729MOL0     H96222   7.611   5.509   8.730  1.2509  2.3314  0.7489
  729MOL0     H96223   7.600   5.382   8.852 -0.7391 -0.5492 -0.5308
  729MOL0     H96224   7.781   5.623   8.826 -4.1717  1.1403 -0.0491
  729MOL0     H96225   7.759   5.560   8.980 -1.0592  0.4864 -0.5642
  729MOL0     H96226   8.043   5.295   8.796 -0.3465 -2.4135 -0.3285
  729MOL0     H96227   7.177   5.366   8.821 -0.8151 -1.2159 -1.8578
  729MOL0     H96228   6.936   5.322   8.814  1.7609  1.1586 -1.8384
  730MOL0     O96229   2.566   7.122   6.603  0.3822 -0.0926  0.1089
  730MOL0     C96230   2.616   7.152   6.711  0.8722 -0.0792 -0.4689
  730MOL0     O96231   2.561   7.234   6.813  0.5945  0.2341  0.1497
  730MOL0     C96232   2.435   7.280   6.789  0.3546  0.9198 -0.4426
  730MOL0     C96233   2.421   7.411   6.744 -0.2095 -0.2799  0.7822
  730MOL0     C96234   2.289   7.458   6.729  0.3306 -0.4708 -0.1552
  730MOL0     C96235   2.176   7.390   6.776 -0.2987 -0.8013  0.4766
  730MOL0     O96236   2.055   7.457   6.800 -0.0872 -0.2439  0.1124
  730MOL0     C96237   2.029   7.569   6.713  0.2560 -0.3118 -0.0074
  730MOL0     C96238   1.887   7.621   6.741  0.0355  0.1978 -0.4718
  730MOL0     C96239   1.787   7.502   6.731  0.5278  0.1540 -0.4296
  730MOL0     C96240   1.642   7.537   6.745  0.2906 -0.8505  0.0527
  730MOL0     C96241   1.552   7.423   6.783  0.1837  0.6877  0.1331
  730MOL0     C96242   1.421   7.470   6.841 -0.6385 -0.0176 -0.3067
  730MOL0     C96243   1.331   7.352   6.886  0.8323 -1.2503 -0.3433
  730MOL0     C96244   1.284   7.268   6.770 -0.0756 -0.6927  0.2337
  730MOL0     N96245   1.138   7.238   6.785  0.4406  0.4938  0.5342
  730MOL0     C96246   1.026   7.321   6.785  0.0272  0.3665 -0.1997
  730MOL0     C96247   0.924   7.247   6.822  0.0620  0.1563 -0.2217
  730MOL0     C96248   0.781   7.301   6.827  0.4751  0.7311  0.0882
  730MOL0     C96249   0.675   7.201   6.888  0.3539 -0.3468  0.2924
  730MOL0     C96250   0.545   7.281   6.914 -0.4456 -0.3833 -0.8023
  730MOL0     C96251   0.429   7.196   6.963 -0.0503  1.0303  0.5106
  730MOL0     O96252   0.337   7.289   7.017 -0.5506 -0.2888  0.5444
  730MOL0     C96253   0.208   7.273   6.974  0.5474 -0.3657 -0.4542
  730MOL0     C96254   0.170   7.310   6.839  0.0970  0.1896 -0.2245
  730MOL0     C96255   0.036   7.318   6.803 -0.1277 -0.9274  0.9489
  730MOL0     C96256  -0.065   7.271   6.885 -0.4571 -0.6257  0.3415
  730MOL0     C96257  -0.206   7.265   6.841 -0.3586 -0.3789 -0.2466
  730MOL0     O96258  -0.226   7.242   6.709  0.1300 -0.8470 -0.5661
  730MOL0     C96259  -0.358   7.248   6.670 -0.1509  0.5288  0.6242
  730MOL0     C96260  -0.421   7.367   6.640  1.4275  0.3602 -0.2757
  730MOL0     C96261  -0.560   7.360   6.608  0.0422  0.0522 -0.4210
  730MOL0     C96262  -0.631   7.242   6.592 -0.3897 -1.0851  0.9868
  730MOL0     O96263  -0.762   7.245   6.560 -0.4627  0.8596 -0.3514
  730MOL0     C96264  -0.848   7.263   6.669  0.4477 -0.8127  0.0711
  730MOL0     C96265  -0.981   7.319   6.621  0.2702  0.0583  0.2777
  730MOL0     C96266  -1.048   7.215   6.530  0.7053  0.5756  0.3173
  730MOL0     C96267  -1.178   7.258   6.459  0.3292  0.0713 -0.3205
  730MOL0     C96268  -1.278   7.144   6.418  0.7800  0.7460  0.4732
  730MOL0     C96269  -1.200   7.048   6.321  0.7260  0.1314 -0.1969
  730MOL0     C96270  -1.283   6.941   6.242 -0.5437 -0.0778 -0.1363
  730MOL0     C96271  -1.373   7.027   6.144 -0.5432 -0.5952 -0.2703
  730MOL0    Cl96272  -1.480   6.942   6.027 -0.3792 -0.4573  0.4294
  730MOL0     C96273  -0.561   7.124   6.617 -0.7809 -0.5997 -0.0093
  730MOL0     C96274  -0.430   7.127   6.650 -0.9379 -0.8251 -0.3978
  730MOL0     O96275  -0.289   7.282   6.925 -0.1769 -0.0756 -0.3912
  730MOL0     C96276  -0.031   7.237   7.018 -0.0217  0.8445 -0.1302
  730MOL0     C96277   0.105   7.238   7.062  0.3098 -0.2695  0.3552
  730MOL0     N96278   0.969   7.119   6.851  0.4511  0.1809 -0.7334
  730MOL0     N96279   1.095   7.109   6.824  0.4341 -0.2813 -0.4721
  730MOL0     C96280   2.201   7.272   6.838 -0.5478  0.5803  0.0656
  730MOL0     C96281   2.327   7.213   6.840  0.2832 -0.2895  0.3924
  730MOL0     C96282   2.733   7.081   6.757 -0.7516 -0.7651 -0.7105
  730MOL0     C96283   2.794   7.108   6.882  0.4118  0.4454  0.3451
  730MOL0     C96284   2.911   7.046   6.922  0.3212  1.3140  0.3261
  730MOL0     C96285   2.968   6.948   6.837 -0.3634  0.6292 -0.6340
  730MOL0     O96286   3.081   6.878   6.879  0.1382  0.4385  0.5294
  730MOL0     C96287   3.196   6.961   6.888 -0.2510  0.2454 -0.3646
  730MOL0     C96288   3.304   6.893   6.971 -0.1605  0.7744  0.4345
  730MOL0     C96289   3.277   6.832   7.114 -0.2658  0.5300  0.4109
  730MOL0     C96290   3.205   6.939   7.197  0.3380  0.3367  0.0267
  730MOL0     C96291   3.216   6.915   7.341  0.4074  0.9322  0.2388
  730MOL0     C96292   3.223   6.883   7.457  0.1855 -0.8711  0.1496
  730MOL0     C96293   2.913   6.916   6.716  0.2786 -0.4160  0.9247
  730MOL0     C96294   2.796   6.987   6.670  0.1962 -0.3669 -0.7559
  730MOL0     H96295   2.509   7.469   6.717  1.3993 -3.1470 -0.5918
  730MOL0     H96296   2.290   7.557   6.685 -2.2018 -0.0240  0.6019
  730MOL0     H96297   2.047   7.556   6.606  2.9230 -0.5915  0.4056
  730MOL0     H96298   2.103   7.642   6.750 -0.5483 -1.2521  3.8988
  730MOL0     H96299   1.858   7.694   6.665  0.6465  0.3823 -0.5275
  730MOL0     H96300   1.872   7.664   6.840 -3.1961  2.0268 -1.5969
  730MOL0     H96301   1.807   7.443   6.821 -1.3327  1.3567  0.8523
  730MOL0     H96302   1.794   7.449   6.636 -3.2202  0.9762 -1.3558
  730MOL0     H96303   1.637   7.606   6.830 -1.0069 -1.9774  0.9385
  730MOL0     H96304   1.601   7.586   6.657  2.2137  0.9881  0.1152
  730MOL0     H96305   1.607   7.362   6.855 -0.4269 -0.4988 -0.3667
  730MOL0     H96306   1.527   7.361   6.696 -3.8394  0.0382  1.5613
  730MOL0     H96307   1.364   7.544   6.783  1.6092  1.0578 -1.2396
  730MOL0     H96308   1.457   7.512   6.935  1.5066  0.4848 -1.3011
  730MOL0     H96309   1.384   7.279   6.948 -1.3226 -1.5044  1.3619
  730MOL0     H96310   1.243   7.381   6.945 -0.3024 -0.9178 -2.1298
  730MOL0     H96311   1.341   7.178   6.746 -0.6241 -0.3672 -2.7725
  730MOL0     H96312   1.301   7.323   6.676  2.3847 -2.8140 -0.7003
  730MOL0     H96313   1.035   7.429   6.790  0.9954  0.2451  1.3883
  730MOL0     H96314   0.738   7.316   6.727  1.4944  0.5242 -0.3930
  730MOL0     H96315   0.777   7.401   6.873  1.8678  0.7263  0.2451
  730MOL0     H96316   0.707   7.176   6.990 -1.0024 -1.6123  0.4356
  730MOL0     H96317   0.670   7.111   6.827 -2.1338 -1.2432  1.7015
  730MOL0     H96318   0.581   7.338   7.001  2.0870 -1.5186 -1.0185
  730MOL0     H96319   0.515   7.348   6.833 -0.7371  1.5357  0.8054
  730MOL0     H96320   0.460   7.125   7.041  0.7945  0.6596 -0.1468
  730MOL0     H96321   0.395   7.152   6.869  2.9050  2.4205 -1.3644
  730MOL0     H96322   0.242   7.351   6.769 -1.1429  3.0161  0.0128
  730MOL0     H96323   0.009   7.367   6.710  0.8174 -3.2886 -0.6852
  730MOL0     H96324  -0.377   7.465   6.651  2.1676  0.1671 -1.3499
  730MOL0     H96325  -0.625   7.447   6.596 -1.7940 -1.3737 -1.4459
  730MOL0     H96326  -0.807   7.339   6.735 -1.8278  0.3430  0.2451
  730MOL0     H96327  -0.863   7.175   6.733 -3.3456 -2.1169 -2.2636
  730MOL0     H96328  -0.963   7.411   6.564  0.0310  0.1383  0.3281
  730MOL0     H96329  -1.050   7.347   6.701 -0.6741 -0.5456 -0.2947
  730MOL0     H96330  -1.073   7.121   6.580 -0.6669  0.2288 -0.9424
  730MOL0     H96331  -0.983   7.189   6.446 -0.8451  2.1659 -1.4755
  730MOL0     H96332  -1.230   7.342   6.505 -0.0484 -0.1255 -0.3774
  730MOL0     H96333  -1.144   7.308   6.368  0.3336  1.0435  0.2140
  730MOL0     H96334  -1.368   7.186   6.373  1.7433  1.5713 -0.7369
  730MOL0     H96335  -1.318   7.089   6.504 -2.3941  0.7800 -0.8303
  730MOL0     H96336  -1.125   6.994   6.380  0.3632  0.7078  0.8108
  730MOL0     H96337  -1.144   7.108   6.248  0.4961  0.0320 -0.4603
  730MOL0     H96338  -1.220   6.881   6.176 -0.3721  1.1215 -1.0994
  730MOL0     H96339  -1.344   6.872   6.299 -0.0075 -0.7521 -0.3646
  730MOL0     H96340  -1.306   7.094   6.089 -2.0745  0.1826 -1.2378
  730MOL0     H96341  -1.437   7.098   6.196 -0.6284  0.2803 -1.5184
  730MOL0     H96342  -0.609   7.027   6.616 -0.2057 -1.0148  3.4067
  730MOL0     H96343  -0.363   7.042   6.651  0.1353 -0.0049  1.5395
  730MOL0     H96344  -0.101   7.183   7.081 -0.5639  0.9365 -0.6506
  730MOL0     H96345   0.124   7.218   7.167  1.3689  0.9272  0.4104
  730MOL0     H96346   2.114   7.217   6.874  0.4285 -0.1433  1.4201
  730MOL0     H96347   2.338   7.117   6.889  1.5422 -1.7594 -2.5442
  730MOL0     H96348   2.763   7.181   6.955 -0.5371 -0.6618  1.0799
  730MOL0     H96349   2.954   7.062   7.021 -0.5698  1.8408  0.6417
  730MOL0     H96350   3.173   7.059   6.930 -2.1912 -0.3072 -0.0267
  730MOL0     H96351   3.229   6.977   6.785  0.1378  0.8212 -0.1580
  730MOL0     H96352   3.336   6.803   6.918  0.9280  2.2690 -1.6083
  730MOL0     H96353   3.386   6.966   6.972 -1.3158  2.4461 -3.8954
  730MOL0     H96354   3.374   6.801   7.155 -1.4932 -0.2140  2.9496
  730MOL0     H96355   3.220   6.741   7.094  4.2418 -2.4107 -0.6051
  730MOL0     H96356   3.261   7.032   7.184 -1.8740  1.9468  1.2228
  730MOL0     H96357   3.102   6.960   7.165 -0.4687 -0.5010  1.8599
  730MOL0     H96358   3.232   6.847   7.557 -0.9801 -0.9312  0.2433
  730MOL0     H96359   2.952   6.838   6.650 -0.3900  0.5942 -0.7401
  730MOL0     H96360   2.753   6.972   6.572  1.6453  2.7053 -2.0056
  731MOL0     O96361   2.798   8.646   2.805 -0.5760 -0.4118  0.2201
  731MOL0     C96362   2.728   8.645   2.704 -0.2923  0.0482 -0.4878
  731MOL0     O96363   2.599   8.681   2.692  0.2526  1.1945  0.0377
  731MOL0     C96364   2.518   8.748   2.787  1.2376  0.2604  0.1134
  731MOL0     C96365   2.571   8.827   2.891  0.1173  0.3115  0.1520
  731MOL0     C96366   2.479   8.909   2.967 -0.9666 -0.3673  0.6777
  731MOL0     C96367   2.343   8.918   2.929 -0.7740  0.0892 -0.1839
  731MOL0     O96368   2.252   8.993   3.009 -0.0464 -0.2970  0.3576
  731MOL0     C96369   2.288   9.140   3.024 -0.9316  0.7100  0.4022
  731MOL0     C96370   2.158   9.221   3.044 -0.0644  0.2511 -0.0902
  731MOL0     C96371   2.061   9.222   2.928  0.1872  0.0412 -0.4219
  731MOL0     C96372   1.931   9.288   2.975  0.7026  0.1667  0.4112
  731MOL0     C96373   1.842   9.347   2.859 -0.7740 -0.8810  0.1789
  731MOL0     C96374   1.906   9.466   2.768  0.0183  0.9592  0.5349
  731MOL0     C96375   1.799   9.518   2.673 -0.3243  0.5433 -0.0433
  731MOL0     C96376   1.765   9.405   2.565  0.0819 -0.6342 -0.9248
  731MOL0     N96377   1.693   9.464   2.452 -0.5997 -0.1781  0.6892
  731MOL0     C96378   1.561   9.479   2.445  0.1611 -0.5002 -0.2723
  731MOL0     C96379   1.546   9.540   2.322  0.5158 -0.1829 -0.7390
  731MOL0     C96380   1.409   9.577   2.270  0.0447  0.1238  0.7929
  731MOL0     C96381   1.350   9.465   2.181  0.2352 -0.2313 -0.1082
  731MOL0     C96382   1.246   9.511   2.070 -0.0246  0.0287 -0.2919
  731MOL0     C96383   1.101   9.524   2.129  0.1849  0.2029  0.7350
  731MOL0     O96384   1.028   9.598   2.028 -0.2024  0.4043  0.2400
  731MOL0     C96385   0.897   9.628   2.061 -0.4024 -0.3178  0.2558
  731MOL0     C96386   0.828   9.720   1.985 -0.2580  0.1634  0.5237
  731MOL0     C96387   0.697   9.746   2.012  0.1315 -0.7194 -0.1366
  731MOL0     C96388   0.626   9.677   2.106  0.1992 -0.9788 -0.8593
  731MOL0     C96389   0.476   9.694   2.130 -0.4620 -0.4557 -0.3746
  731MOL0     O96390   0.414   9.615   2.220 -0.8889  0.4177 -0.3589
  731MOL0     C96391   0.274   9.621   2.229 -0.0700  0.2310 -0.2299
  731MOL0     C96392   0.199   9.743   2.245 -0.3702  0.2322 -0.2191
  731MOL0     C96393   0.065   9.744   2.287 -0.9135  0.2393 -0.2174
  731MOL0     C96394  -0.002   9.615   2.310  0.5468 -1.0599  0.1494
  731MOL0     O96395  -0.135   9.609   2.340 -0.0349  0.8651 -0.2320
  731MOL0     C96396  -0.226   9.649   2.238 -0.5798  0.2736  0.4457
  731MOL0     C96397  -0.373   9.620   2.272  0.7780 -0.1074 -0.2521
  731MOL0     C96398  -0.411   9.711   2.399 -0.3570 -0.1806  0.9168
  731MOL0     C96399  -0.550   9.687   2.442 -0.2856  0.1126 -0.9757
  731MOL0     C96400  -0.544   9.551   2.524 -0.0842  0.1034 -0.9666
  731MOL0     C96401  -0.671   9.502   2.578 -0.8031  0.2219  0.4630
  731MOL0     C96402  -0.750   9.605   2.649  0.0446 -0.8794 -0.9602
  731MOL0     C96403  -0.873   9.540   2.715 -0.6261 -0.5583  0.8170
  731MOL0    Cl96404  -0.830   9.436   2.852  0.3776 -0.1751 -0.3273
  731MOL0     C96405   0.078   9.501   2.278  0.2271 -0.4712 -0.3900
  731MOL0     C96406   0.212   9.499   2.251 -0.2899 -0.3728 -0.3155
  731MOL0     O96407   0.425   9.790   2.073 -0.1386 -0.0581  0.0580
  731MOL0     C96408   0.692   9.582   2.179 -0.4827 -0.3098 -0.3048
  731MOL0     C96409   0.829   9.558   2.163  0.4278 -1.2563 -0.4071
  731MOL0     N96410   1.668   9.569   2.269  0.2352  0.8898 -0.0167
  731MOL0     N96411   1.757   9.519   2.347 -0.2790  0.5359  0.8650
  731MOL0     C96412   2.287   8.836   2.837  0.1294  0.2131  1.5661
  731MOL0     C96413   2.375   8.755   2.762  0.0375  0.0756  0.6279
  731MOL0     C96414   2.785   8.584   2.582  0.1102 -0.7594 -0.5910
  731MOL0     C96415   2.921   8.537   2.581  0.1621 -0.2596 -0.2297
  731MOL0     C96416   2.979   8.489   2.460  0.2005 -0.6298 -0.1940
  731MOL0     C96417   2.914   8.519   2.331 -0.0924 -0.0160 -0.8463
  731MOL0     O96418   2.957   8.504   2.203  0.4911  0.1066  0.5049
  731MOL0     C96419   3.074   8.438   2.168  0.5106 -0.4807  0.3095
  731MOL0     C96420   3.081   8.294   2.185  0.1184 -0.7697  0.2700
  731MOL0     C96421   2.980   8.222   2.091  0.7149  1.0650 -0.1833
  731MOL0     C96422   2.869   8.126   2.155  0.2027 -0.4673 -0.4764
  731MOL0     C96423   2.937   8.009   2.205  0.6436 -0.5573 -0.4312
  731MOL0     C96424   2.994   7.909   2.232 -0.4291 -0.2420  0.4921
  731MOL0     C96425   2.780   8.553   2.345 -0.0289  0.5832  1.0608
  731MOL0     C96426   2.716   8.587   2.465 -0.9359  0.0735  0.1308
  731MOL0     H96427   2.677   8.824   2.914  0.3822 -0.3465 -1.1071
  731MOL0     H96428   2.518   8.968   3.049  0.0792  1.0781 -0.7856
  731MOL0     H96429   2.335   9.170   2.929 -1.0296  2.2723  0.8102
  731MOL0     H96430   2.356   9.147   3.109 -2.3697 -2.3887  1.9577
  731MOL0     H96431   2.190   9.324   3.061 -0.0800  0.0592  1.1526
  731MOL0     H96432   2.103   9.176   3.126 -2.8809 -1.8747 -2.8792
  731MOL0     H96433   2.036   9.119   2.901 -0.2420 -0.4081  1.5608
  731MOL0     H96434   2.114   9.279   2.851  0.9776 -1.6822 -1.2234
  731MOL0     H96435   1.865   9.216   3.023 -0.0072 -0.5863 -1.6149
  731MOL0     H96436   1.962   9.379   3.029  2.1943  1.4449 -2.4119
  731MOL0     H96437   1.747   9.389   2.896  0.0657  0.1276  1.2798
  731MOL0     H96438   1.817   9.265   2.791  2.0814 -1.3163 -0.4593
  731MOL0     H96439   1.991   9.427   2.711 -1.7174 -3.5872  0.6458
  731MOL0     H96440   1.938   9.548   2.833  0.3944  0.6278  0.7710
  731MOL0     H96441   1.708   9.552   2.724  0.9617  1.2783  1.8559
  731MOL0     H96442   1.842   9.604   2.621  1.3792 -0.1403  0.1744
  731MOL0     H96443   1.710   9.322   2.612  0.6308  0.1323  1.1322
  731MOL0     H96444   1.855   9.358   2.523  0.6999  0.8161 -1.2565
  731MOL0     H96445   1.497   9.466   2.531 -0.0137 -2.4881 -0.6485
  731MOL0     H96446   1.402   9.673   2.218 -1.2429  0.5582  1.7163
  731MOL0     H96447   1.345   9.592   2.357  0.6302  2.7418  0.8471
  731MOL0     H96448   1.303   9.388   2.242 -2.4076 -0.1838 -1.9260
  731MOL0     H96449   1.432   9.428   2.119  0.4681 -0.2892  0.2326
  731MOL0     H96450   1.270   9.609   2.030 -0.2798 -0.4145 -1.5867
  731MOL0     H96451   1.257   9.437   1.990  4.0944 -2.5898  2.3353
  731MOL0     H96452   1.106   9.583   2.221 -1.2115  3.2733 -1.0102
  731MOL0     H96453   1.065   9.421   2.135  2.0889 -0.5623 -0.2766
  731MOL0     H96454   0.883   9.770   1.905  0.0296 -1.5936 -0.4199
  731MOL0     H96455   0.639   9.803   1.939  1.6821  0.7028 -0.3202
  731MOL0     H96456   0.261   9.832   2.239  0.0052 -0.0083  0.0433
  731MOL0     H96457   0.013   9.832   2.321  0.6196  0.9167  0.4428
  731MOL0     H96458  -0.199   9.614   2.139  0.4999 -0.4425  0.9721
  731MOL0     H96459  -0.215   9.758   2.233  1.2585  0.1277  0.8680
  731MOL0     H96460  -0.388   9.515   2.297  1.4244 -0.0620  0.3731
  731MOL0     H96461  -0.429   9.652   2.184  0.2807 -0.4026 -0.0443
  731MOL0     H96462  -0.402   9.815   2.366 -1.7793  0.0839  1.2904
  731MOL0     H96463  -0.345   9.695   2.484  1.3104 -1.5422 -0.5647
  731MOL0     H96464  -0.581   9.771   2.506 -1.5420  0.3536 -1.8527
  731MOL0     H96465  -0.620   9.670   2.359 -1.1452 -0.8467 -0.0783
  731MOL0     H96466  -0.485   9.579   2.612  0.2586 -1.3627 -0.7183
  731MOL0     H96467  -0.490   9.470   2.475 -0.4844 -1.1052  0.5011
  731MOL0     H96468  -0.651   9.420   2.647  2.0196 -0.1257 -0.6625
  731MOL0     H96469  -0.740   9.463   2.502  0.9817 -1.8855 -0.1742
  731MOL0     H96470  -0.689   9.634   2.734 -1.1581 -0.1230 -0.3197
  731MOL0     H96471  -0.779   9.692   2.590  3.4967 -0.0346 -1.6142
  731MOL0     H96472  -0.935   9.488   2.642  1.4947 -0.8767 -0.8433
  731MOL0     H96473  -0.945   9.607   2.764 -0.5298 -0.1798  0.4508
  731MOL0     H96474   0.030   9.404   2.270  1.5062 -0.9952 -3.1588
  731MOL0     H96475   0.262   9.406   2.226  0.4579  0.2142 -1.0624
  731MOL0     H96476   0.638   9.523   2.253 -2.1011 -0.7102 -1.7250
  731MOL0     H96477   0.864   9.463   2.202 -1.6439 -2.4750 -1.2646
  731MOL0     H96478   2.180   8.832   2.820  0.4800 -0.8558 -0.7996
  731MOL0     H96479   2.331   8.702   2.678  1.5682 -1.3710  0.6867
  731MOL0     H96480   2.985   8.542   2.669  1.0267 -0.1162 -0.8635
  731MOL0     H96481   3.081   8.451   2.460  1.5377  2.3400  3.4498
  731MOL0     H96482   3.159   8.481   2.222  1.1337 -1.1810 -0.0881
  731MOL0     H96483   3.099   8.451   2.062  0.2573 -5.9969 -0.7621
  731MOL0     H96484   3.180   8.264   2.149  0.8865  1.8265  0.0160
  731MOL0     H96485   3.065   8.267   2.289 -0.6261 -0.1644  0.3236
  731MOL0     H96486   3.028   8.158   2.016 -1.8628 -1.7666  0.3718
  731MOL0     H96487   2.922   8.292   2.029  2.2255  0.5223 -2.3282
  731MOL0     H96488   2.816   8.190   2.227  1.2737  0.4890 -0.5197
  731MOL0     H96489   2.790   8.089   2.088  0.3377 -1.9936  0.1763
  731MOL0     H96490   3.055   7.827   2.263  0.7668  0.2944 -0.3455
  731MOL0     H96491   2.725   8.569   2.252  0.7355 -4.3851 -0.5031
  731MOL0     H96492   2.616   8.628   2.458 -1.2981 -0.2554  2.6458
  732MOL0     O96493   3.197   5.760   5.994  0.2629  0.1719 -0.9408
  732MOL0     C96494   3.198   5.702   6.102  0.0279 -0.4310 -0.5544
  732MOL0     O96495   3.086   5.672   6.172  0.4178  0.1178  0.8995
  732MOL0     C96496   2.958   5.697   6.119 -0.5100  0.5197  0.4373
  732MOL0     C96497   2.878   5.775   6.198  0.8747  0.6222 -0.1725
  732MOL0     C96498   2.747   5.808   6.159  0.9232 -0.1841 -0.8040
  732MOL0     C96499   2.704   5.768   6.033 -0.0706 -0.0637 -0.0759
  732MOL0     O96500   2.579   5.787   5.986  0.4334 -0.2568  0.6422
  732MOL0     C96501   2.464   5.814   6.076 -0.5137 -0.2279  0.3732
  732MOL0     C96502   2.337   5.806   5.991 -0.1998 -0.5262  1.0524
  732MOL0     C96503   2.316   5.923   5.894 -0.5469  0.0708 -0.1075
  732MOL0     C96504   2.185   5.900   5.809  0.1161 -0.0099 -0.1815
  732MOL0     C96505   2.140   6.041   5.756 -0.6395  0.1267  0.1256
  732MOL0     C96506   2.034   6.027   5.645  0.1739  0.3165 -0.8500
  732MOL0     C96507   1.887   5.995   5.699  0.8270 -0.0148 -0.5178
  732MOL0     C96508   1.786   5.980   5.594 -0.0722 -0.2271  0.0870
  732MOL0     N96509   1.667   5.921   5.657  0.1174 -0.4917  0.0774
  732MOL0     C96510   1.622   5.792   5.641  0.3408 -0.6931 -0.2485
  732MOL0     C96511   1.516   5.786   5.723 -0.3654  0.2584  0.4462
  732MOL0     C96512   1.425   5.668   5.740 -0.6830 -0.6016 -0.0199
  732MOL0     C96513   1.318   5.682   5.849  0.8887 -0.9677 -0.0006
  732MOL0     C96514   1.221   5.795   5.805 -0.0467  0.1537 -0.2055
  732MOL0     C96515   1.094   5.789   5.898 -0.7649 -0.4678  0.3586
  732MOL0     O96516   1.026   5.662   5.901 -0.1359  0.1539 -0.1753
  732MOL0     C96517   0.894   5.651   5.932 -0.8668 -0.1595  0.0522
  732MOL0     C96518   0.851   5.518   5.954  0.4076  0.0564 -0.1439
  732MOL0     C96519   0.722   5.495   5.997  0.0013 -0.2832 -0.4640
  732MOL0     C96520   0.629   5.599   6.008  0.1304  0.0126  0.5804
  732MOL0     C96521   0.490   5.569   6.034  0.2096 -0.9481 -0.8565
  732MOL0     O96522   0.411   5.681   6.059 -0.7905  0.2743  0.0288
  732MOL0     C96523   0.269   5.667   6.081 -0.4148 -0.5440  0.6437
  732MOL0     C96524   0.183   5.592   6.005 -0.1114  0.8982 -0.1330
  732MOL0     C96525   0.046   5.594   6.019  0.1172 -0.4148  0.4596
  732MOL0     C96526  -0.013   5.687   6.107 -1.2036  0.1655 -0.4054
  732MOL0     O96527  -0.149   5.712   6.112 -0.6335 -0.2327 -0.3894
  732MOL0     C96528  -0.239   5.614   6.068  0.3856 -0.4329 -1.1331
  732MOL0     C96529  -0.362   5.602   6.148  0.1639  0.4994  0.5035
  732MOL0     C96530  -0.474   5.701   6.104 -0.3434  0.0826  0.1441
  732MOL0     C96531  -0.586   5.684   6.202  0.4480 -0.4981 -0.0908
  732MOL0     C96532  -0.698   5.789   6.162 -0.3129  0.2959  0.3268
  732MOL0     C96533  -0.836   5.751   6.217  0.4482  0.6546  0.6640
  732MOL0     C96534  -0.943   5.831   6.153  0.1121 -0.8571  0.3511
  732MOL0     C96535  -1.076   5.814   6.233 -0.2684  0.5435 -0.2558
  732MOL0    Cl96536  -1.212   5.868   6.118 -0.3016  0.0134  0.2715
  732MOL0     C96537   0.066   5.771   6.186 -0.6451  0.4826 -0.5573
  732MOL0     C96538   0.211   5.757   6.170  0.5485  0.3879 -0.4021
  732MOL0     O96539   0.455   5.450   6.036  0.1093  0.1485  0.5372
  732MOL0     C96540   0.672   5.730   5.981  0.1933 -0.3144 -0.0511
  732MOL0     C96541   0.807   5.756   5.953  1.2890 -0.3502 -0.4190
  732MOL0     N96542   1.515   5.904   5.795 -0.2661  0.5821 -0.3558
  732MOL0     N96543   1.593   5.993   5.744 -0.3494  0.0890 -0.7975
  732MOL0     C96544   2.787   5.700   5.947  0.3434  0.4078  0.4721
  732MOL0     C96545   2.919   5.665   5.987 -0.2130 -0.0371 -0.3339
  732MOL0     C96546   3.323   5.645   6.162 -0.0713 -0.4684  0.0536
  732MOL0     C96547   3.443   5.668   6.089  0.3121  0.2160 -0.4520
  732MOL0     C96548   3.572   5.647   6.146  0.0582  0.2975 -0.3196
  732MOL0     C96549   3.575   5.607   6.281 -0.2582 -0.0186 -0.2841
  732MOL0     O96550   3.695   5.583   6.334 -0.2658  0.3791 -0.1046
  732MOL0     C96551   3.754   5.700   6.401 -0.0959  0.0398  0.3484
  732MOL0     C96552   3.894   5.672   6.440 -0.1358 -0.2344 -0.1216
  732MOL0     C96553   3.957   5.794   6.496 -0.0549 -0.7675  0.6686
  732MOL0     C96554   4.108   5.770   6.522  0.2560  0.1498 -0.1482
  732MOL0     C96555   4.173   5.890   6.578  0.4286  0.8011 -0.7524
  732MOL0     C96556   4.221   5.995   6.612  0.0513  0.0204  0.6563
  732MOL0     C96557   3.465   5.578   6.352  0.5250  0.0016 -0.3878
  732MOL0     C96558   3.333   5.603   6.298 -0.5330  0.5657 -0.3622
  732MOL0     H96559   2.912   5.794   6.299 -3.8353  2.4854  1.3492
  732MOL0     H96560   2.692   5.860   6.236 -0.3042 -2.3546 -0.1302
  732MOL0     H96561   2.473   5.914   6.118 -1.4083 -0.1768  0.4699
  732MOL0     H96562   2.471   5.737   6.153  0.3396  0.2908  0.8177
  732MOL0     H96563   2.249   5.806   6.056  1.6952 -0.5271  3.7998
  732MOL0     H96564   2.340   5.714   5.933  0.7539 -0.1646  0.5041
  732MOL0     H96565   2.402   5.934   5.827  0.0580 -0.8982  0.4812
  732MOL0     H96566   2.310   6.013   5.956 -0.2888  0.2093 -0.2789
  732MOL0     H96567   2.207   5.823   5.734  2.2842 -2.5520  2.7955
  732MOL0     H96568   2.111   5.856   5.876  0.4169  0.1513  0.2639
  732MOL0     H96569   2.226   6.093   5.713 -1.5295  2.8671  1.3809
  732MOL0     H96570   2.093   6.097   5.839 -2.7408  1.3812 -1.7827
  732MOL0     H96571   2.070   5.959   5.567 -2.8097  1.3314 -3.3377
  732MOL0     H96572   2.033   6.121   5.589 -1.1369  0.3824 -0.7355
  732MOL0     H96573   1.887   5.898   5.750 -1.8976 -0.1484 -0.6150
  732MOL0     H96574   1.855   6.077   5.763 -2.0560 -0.5417 -1.1311
  732MOL0     H96575   1.826   5.915   5.515  5.5627 -0.1110  2.4007
  732MOL0     H96576   1.764   6.082   5.562 -0.9382  0.3796  2.4429
  732MOL0     H96577   1.663   5.723   5.567  3.1427  1.8783 -1.3306
  732MOL0     H96578   1.481   5.579   5.766  2.6047  0.9624 -1.1952
  732MOL0     H96579   1.386   5.650   5.639 -1.1345 -0.2117  0.0755
  732MOL0     H96580   1.360   5.712   5.946  1.4408 -2.2960  0.1956
  732MOL0     H96581   1.263   5.588   5.864 -1.4196  0.2853 -0.2422
  732MOL0     H96582   1.261   5.897   5.808 -0.9598  0.5502 -0.9271
  732MOL0     H96583   1.196   5.775   5.701 -0.2974  2.2110 -0.5862
  732MOL0     H96584   1.031   5.867   5.854 -1.5817 -1.3097  0.0157
  732MOL0     H96585   1.126   5.811   6.000  1.9053 -1.5856 -0.1305
  732MOL0     H96586   0.919   5.433   5.951  0.1449 -0.2675  1.7602
  732MOL0     H96587   0.690   5.393   6.014 -0.1803  0.1084  1.9639
  732MOL0     H96588   0.220   5.510   5.945  2.0024 -0.4398  2.7833
  732MOL0     H96589  -0.009   5.520   5.961 -1.1974 -0.8485  2.1637
  732MOL0     H96590  -0.187   5.519   6.058 -1.3573 -1.4642 -0.7813
  732MOL0     H96591  -0.266   5.647   5.967  1.6560  0.0897 -1.3124
  732MOL0     H96592  -0.343   5.590   6.255 -1.5036 -4.7019  0.5095
  732MOL0     H96593  -0.387   5.497   6.129  3.9270 -0.5582  0.7015
  732MOL0     H96594  -0.513   5.683   6.003  0.0311  1.9771 -0.3783
  732MOL0     H96595  -0.447   5.807   6.100 -0.7675  0.2563  1.5624
  732MOL0     H96596  -0.619   5.580   6.203 -1.2676 -0.1138 -3.1331
  732MOL0     H96597  -0.554   5.712   6.303 -2.0698 -0.8438  0.8753
  732MOL0     H96598  -0.698   5.804   6.054  0.7088 -0.1938  0.2422
  732MOL0     H96599  -0.683   5.887   6.208 -0.2492 -0.8066  2.8013
  732MOL0     H96600  -0.844   5.770   6.324 -1.9880  0.8059  0.5029
  732MOL0     H96601  -0.854   5.646   6.191 -0.1844  0.6484  1.0993
  732MOL0     H96602  -0.925   5.939   6.150  1.1584 -1.0485 -1.4524
  732MOL0     H96603  -0.952   5.801   6.048 -0.2647  1.9002 -0.4866
  732MOL0     H96604  -1.077   5.870   6.327  0.7362  2.1108 -1.1254
  732MOL0     H96605  -1.087   5.709   6.258  2.8966 -0.0232 -0.7690
  732MOL0     H96606   0.021   5.836   6.260  1.2001 -1.0388  2.0612
  732MOL0     H96607   0.275   5.825   6.226  0.3975 -0.6442  1.0637
  732MOL0     H96608   0.614   5.821   5.988 -0.9795 -1.0613  0.1396
  732MOL0     H96609   0.826   5.863   5.958 -2.5754  0.4992 -0.9646
  732MOL0     H96610   2.747   5.672   5.850 -0.3661  1.1851  0.5317
  732MOL0     H96611   2.988   5.616   5.919  2.7253  2.3723  0.7094
  732MOL0     H96612   3.437   5.709   5.988 -2.2939  1.4007  0.1012
  732MOL0     H96613   3.659   5.677   6.089 -0.0265 -0.6901 -0.9851
  732MOL0     H96614   3.689   5.719   6.487 -2.4967 -1.4373 -1.0134
  732MOL0     H96615   3.748   5.783   6.331 -0.1710 -0.7558 -0.6112
  732MOL0     H96616   3.891   5.588   6.509  0.9706  1.6792  2.4176
  732MOL0     H96617   3.959   5.642   6.356 -1.7819 -0.6084 -1.3231
  732MOL0     H96618   3.904   5.818   6.589  1.6477  3.8086  0.6831
  732MOL0     H96619   3.953   5.875   6.423 -0.8423 -0.9157  0.5347
  732MOL0     H96620   4.123   5.695   6.601  0.2799  0.8599  0.5279
  732MOL0     H96621   4.148   5.737   6.426 -0.9246 -3.9058  0.5478
  732MOL0     H96622   4.277   6.080   6.643  1.0253 -0.4185  0.1253
  732MOL0     H96623   3.487   5.539   6.451  0.8914 -1.7930 -1.1415
  732MOL0     H96624   3.256   5.566   6.365  0.7840 -2.9750 -0.5553
  733MOL0     O96625  10.506   0.297   6.712 -0.1793  0.2448  0.6609
  733MOL0     C96626  10.517   0.200   6.637 -0.6078  0.5427  0.3812
  733MOL0     O96627  10.424   0.105   6.615 -0.5145  0.3496  0.2817
  733MOL0     C96628  10.321   0.106   6.709  0.5954  0.2901 -0.3732
  733MOL0     C96629  10.189   0.129   6.675 -0.2160  0.3150  0.3836
  733MOL0     C96630  10.088   0.122   6.770 -0.1542  0.3135  0.4994
  733MOL0     C96631  10.113   0.106   6.910 -0.0516 -0.2138 -0.5864
  733MOL0     O96632  10.021   0.110   7.011  0.5034  0.1663 -0.1706
  733MOL0     C96633   9.883   0.121   6.980 -0.0096  0.4111  0.9629
  733MOL0     C96634   9.832   0.265   6.973 -1.4983 -0.3793  0.3025
  733MOL0     C96635   9.688   0.274   6.920 -0.3842  0.5621 -0.1667
  733MOL0     C96636   9.591   0.204   7.010 -0.4875 -0.3276  0.5341
  733MOL0     C96637   9.445   0.217   6.964 -0.9606 -0.3093 -0.5226
  733MOL0     C96638   9.421   0.134   6.832  0.4559 -0.7007 -0.5935
  733MOL0     C96639   9.274   0.130   6.798 -1.2349 -0.3402 -0.6002
  733MOL0     C96640   9.256   0.023   6.703  1.1804 -0.3236  0.8945
  733MOL0     N96641   9.119   0.010   6.652 -0.3992 -0.1249  0.5216
  733MOL0     C96642   9.035  -0.095   6.662  0.4997 -0.8631 -0.3287
  733MOL0     C96643   8.930  -0.070   6.584 -0.5696 -0.7260  0.4540
  733MOL0     C96644   8.829  -0.170   6.560 -0.3600 -0.0572  0.4295
  733MOL0     C96645   8.689  -0.113   6.541 -0.1404 -0.2735 -0.1521
  733MOL0     C96646   8.578  -0.206   6.496 -0.1622  0.2904  0.1203
  733MOL0     C96647   8.441  -0.125   6.513 -0.9527  0.6809 -0.0733
  733MOL0     O96648   8.343  -0.228   6.504  0.3599  0.4785  0.0122
  733MOL0     C96649   8.208  -0.206   6.479 -0.9785 -0.6037 -0.5404
  733MOL0     C96650   8.126  -0.319   6.468 -0.9155 -0.1229  0.2389
  733MOL0     C96651   7.991  -0.300   6.440 -0.9907  0.6271  0.3157
  733MOL0     C96652   7.933  -0.178   6.431 -0.5246  0.7170  0.0841
  733MOL0     C96653   7.789  -0.166   6.407 -0.1825  0.7974  0.3530
  733MOL0     O96654   7.710  -0.278   6.384  0.2876  0.6716 -0.3549
  733MOL0     C96655   7.581  -0.269   6.348  0.5715 -0.2366  0.8820
  733MOL0     C96656   7.547  -0.380   6.270 -0.2983  0.2218 -0.1153
  733MOL0     C96657   7.413  -0.391   6.212  0.2928 -1.2275 -0.3253
  733MOL0     C96658   7.319  -0.287   6.244  0.3228  0.0088  0.3092
  733MOL0     O96659   7.183  -0.288   6.205 -0.4925 -0.1694  0.2100
  733MOL0     C96660   7.152  -0.375   6.094  0.0670  0.6078  1.0137
  733MOL0     C96661   7.018  -0.343   6.045 -0.0937 -0.4226 -0.1892
  733MOL0     C96662   6.913  -0.358   6.162  0.0861 -0.3641 -0.5256
  733MOL0     C96663   6.772  -0.325   6.114  0.6445  0.0965  0.2577
  733MOL0     C96664   6.665  -0.362   6.219  0.0453 -1.3290 -0.3676
  733MOL0     C96665   6.567  -0.463   6.162  0.0529 -0.7329 -1.4688
  733MOL0     C96666   6.457  -0.478   6.271 -0.1012 -0.4307 -0.3744
  733MOL0     C96667   6.368  -0.600   6.245 -0.0919 -0.5398 -0.0827
  733MOL0    Cl96668   6.218  -0.594   6.341  0.0018 -0.2195  0.3976
  733MOL0     C96669   7.363  -0.169   6.304 -0.4335 -0.1915  0.4625
  733MOL0     C96670   7.487  -0.162   6.362  0.3148 -0.5330  0.0513
  733MOL0     O96671   7.752  -0.049   6.416 -0.0224  0.5850 -0.2656
  733MOL0     C96672   8.015  -0.069   6.440 -1.6270 -0.3057 -0.2646
  733MOL0     C96673   8.151  -0.087   6.465  0.3333 -0.7175  0.1273
  733MOL0     N96674   8.951   0.052   6.523  0.5385  0.7873  0.5495
  733MOL0     N96675   9.062   0.100   6.572 -0.8864 -0.6244  0.3611
  733MOL0     C96676  10.246   0.093   6.949 -0.3410  0.0728  0.3630
  733MOL0     C96677  10.345   0.095   6.846 -0.1516  0.0019 -0.7357
  733MOL0     C96678  10.650   0.185   6.567  0.0930  0.0093  0.0706
  733MOL0     C96679  10.734   0.292   6.573 -0.1119  0.6506  0.5062
  733MOL0     C96680  10.867   0.274   6.521 -0.6548 -0.9408 -0.5756
  733MOL0     C96681  10.901   0.173   6.434 -0.2162 -0.7975 -0.0563
  733MOL0     O96682  11.017   0.150   6.368  0.3955  0.1227 -0.4171
  733MOL0     C96683  11.119   0.253   6.350 -0.4417 -0.3831 -0.8305
  733MOL0     C96684  11.227   0.204   6.254 -0.9274 -0.6880  0.6092
  733MOL0     C96685  11.166   0.165   6.116  0.2686 -0.3194 -0.6966
  733MOL0     C96686  11.250   0.198   6.000  0.3178  0.3415  0.3248
  733MOL0     C96687  11.376   0.126   6.023 -0.0617  0.7085 -0.3296
  733MOL0     C96688  11.475   0.057   6.046  0.1928  0.1333  0.2699
  733MOL0     C96689  10.801   0.074   6.411 -0.1883 -0.3551 -0.1594
  733MOL0     C96690  10.678   0.081   6.479 -0.3659 -0.6726 -0.7043
  733MOL0     H96691  10.178   0.151   6.569  1.6129  0.5791  0.2064
  733MOL0     H96692   9.991   0.138   6.724  0.6281 -0.6816 -1.5805
  733MOL0     H96693   9.834   0.053   7.051  1.3598 -0.5180  1.0576
  733MOL0     H96694   9.865   0.071   6.884  3.3206 -0.4710  0.6738
  733MOL0     H96695   9.893   0.327   6.908 -1.2497 -0.8353  0.0972
  733MOL0     H96696   9.829   0.301   7.077 -0.3969  0.2429  0.1263
  733MOL0     H96697   9.700   0.226   6.822  1.3522 -0.4104  0.4804
  733MOL0     H96698   9.658   0.377   6.901 -3.0538 -0.4300 -1.8180
  733MOL0     H96699   9.616   0.098   7.015  1.5364  0.1491  1.4241
  733MOL0     H96700   9.616   0.245   7.108  1.5999  0.8509 -0.4307
  733MOL0     H96701   9.425   0.323   6.950 -2.6615 -0.7784 -1.9058
  733MOL0     H96702   9.391   0.194   7.057  0.2870 -1.3743 -0.0226
  733MOL0     H96703   9.463   0.035   6.853 -0.8531 -1.4818 -1.5165
  733MOL0     H96704   9.474   0.182   6.749  0.1424  0.1852 -0.2973
  733MOL0     H96705   9.225   0.113   6.894  0.2518 -1.7267 -0.0404
  733MOL0     H96706   9.246   0.229   6.762 -1.1940 -0.4248 -0.8683
  733MOL0     H96707   9.292  -0.069   6.750  2.4478 -1.9232 -2.8529
  733MOL0     H96708   9.315   0.037   6.612  0.6364 -1.9319  0.2673
  733MOL0     H96709   9.048  -0.183   6.725  0.0750 -2.9889 -3.0333
  733MOL0     H96710   8.841  -0.239   6.644 -0.5304  3.1754  3.3307
  733MOL0     H96711   8.863  -0.214   6.465 -1.0298 -1.0569  0.6356
  733MOL0     H96712   8.690  -0.022   6.480  1.9416 -1.8879 -2.7804
  733MOL0     H96713   8.658  -0.083   6.641 -1.3809  0.0322 -0.6129
  733MOL0     H96714   8.601  -0.234   6.393 -0.5923 -0.5256  0.2381
  733MOL0     H96715   8.578  -0.291   6.565 -1.6919 -0.1912 -0.4256
  733MOL0     H96716   8.438  -0.057   6.427 -0.4199  0.6054 -0.1545
  733MOL0     H96717   8.443  -0.073   6.608 -0.8948  1.9147 -0.7291
  733MOL0     H96718   8.171  -0.418   6.474 -0.6718  0.0509  4.3488
  733MOL0     H96719   7.932  -0.390   6.422 -0.4695 -0.1010  1.9847
  733MOL0     H96720   7.612  -0.464   6.248  1.8407  1.7976 -0.0286
  733MOL0     H96721   7.390  -0.484   6.162  1.1973 -1.6830  0.0694
  733MOL0     H96722   7.163  -0.478   6.128  0.1979 -0.3093 -1.5759
  733MOL0     H96723   7.211  -0.361   6.003 -1.7973 -1.9775 -0.7228
  733MOL0     H96724   7.001  -0.420   5.969  0.9859 -1.7943  0.8928
  733MOL0     H96725   7.011  -0.250   5.990 -0.4726 -0.4594 -0.2038
  733MOL0     H96726   6.941  -0.290   6.243 -0.1609 -0.4801 -0.3421
  733MOL0     H96727   6.915  -0.463   6.192 -1.1548  0.3394  2.3216
  733MOL0     H96728   6.767  -0.218   6.090  0.1673 -0.5755 -3.2048
  733MOL0     H96729   6.752  -0.371   6.016 -1.5435 -1.4848  1.3669
  733MOL0     H96730   6.618  -0.267   6.246  2.4508 -0.7815  2.3977
  733MOL0     H96731   6.718  -0.401   6.306  1.1115 -0.5707 -0.6595
  733MOL0     H96732   6.613  -0.560   6.141 -1.9605 -2.5278  1.6909
  733MOL0     H96733   6.519  -0.428   6.069 -0.5752  0.6694 -0.6537
  733MOL0     H96734   6.500  -0.489   6.371  0.4932 -2.3254 -0.7965
  733MOL0     H96735   6.402  -0.384   6.280  0.5613 -0.0922  0.1720
  733MOL0     H96736   6.423  -0.689   6.278  1.1961  0.7710  1.4548
  733MOL0     H96737   6.345  -0.620   6.140  1.6188  1.6564 -0.9620
  733MOL0     H96738   7.303  -0.079   6.312  0.4269  0.4948 -0.4802
  733MOL0     H96739   7.514  -0.063   6.399 -0.6873 -0.2969  0.1677
  733MOL0     H96740   7.967   0.028   6.427 -0.1535  0.3689 -0.8815
  733MOL0     H96741   8.212   0.002   6.453 -1.4414  0.5928  0.4030
  733MOL0     H96742  10.279   0.079   7.051  0.6039  1.0625  0.2018
  733MOL0     H96743  10.442   0.110   6.893  0.1649 -1.7134 -0.7625
  733MOL0     H96744  10.719   0.377   6.639 -0.3316  0.4525  0.7116
  733MOL0     H96745  10.933   0.358   6.540  0.3613 -1.5089 -1.4890
  733MOL0     H96746  11.159   0.293   6.444 -1.4616  3.8673 -1.9817
  733MOL0     H96747  11.087   0.350   6.310 -0.8093 -0.2046 -0.1361
  733MOL0     H96748  11.299   0.286   6.243  1.0155 -2.5235 -1.6039
  733MOL0     H96749  11.277   0.116   6.295  0.1420 -0.5663 -0.3699
  733MOL0     H96750  11.069   0.215   6.108  0.7375  0.8649  0.5971
  733MOL0     H96751  11.147   0.058   6.104  0.0618 -0.2292 -1.1852
  733MOL0     H96752  11.201   0.171   5.906 -0.8600  2.8125  0.1389
  733MOL0     H96753  11.267   0.306   5.999 -1.1819  0.6018 -0.7674
  733MOL0     H96754  11.557  -0.012   6.040  0.3442  0.4410 -2.2462
  733MOL0     H96755  10.829  -0.016   6.358  2.0763  0.5352 -0.6020
  733MOL0     H96756  10.613  -0.005   6.469 -0.1088 -0.8987 -0.4579
  734MOL0     O96757   7.203   4.336   5.920  0.0215  0.4041  0.3182
  734MOL0     C96758   7.168   4.215   5.908  0.3934  0.9645 -0.6072
  734MOL0     O96759   7.258   4.107   5.912  0.4233 -0.0391  0.5123
  734MOL0     C96760   7.387   4.139   5.896 -0.3634 -0.0806 -0.0397
  734MOL0     C96761   7.438   4.184   5.781  0.0782 -0.2180 -0.0377
  734MOL0     C96762   7.579   4.210   5.783  0.3714 -0.1337 -0.2725
  734MOL0     C96763   7.661   4.208   5.900  0.1808 -0.8988 -0.3911
  734MOL0     O96764   7.795   4.238   5.893  0.3364 -1.2384 -0.2564
  734MOL0     C96765   7.885   4.191   5.998  0.6724  0.0628 -0.2574
  734MOL0     C96766   8.024   4.179   5.935 -0.6423  0.4509  0.0000
  734MOL0     C96767   8.135   4.175   6.040  0.0275  0.5601  0.1751
  734MOL0     C96768   8.265   4.137   5.972 -0.5049 -0.6293 -0.7346
  734MOL0     C96769   8.344   4.262   5.960  0.8800  0.2877 -0.0810
  734MOL0     C96770   8.479   4.243   5.896  0.5235  0.7586 -0.1746
  734MOL0     C96771   8.585   4.167   5.970  0.2651  0.3612 -0.0472
  734MOL0     C96772   8.619   4.229   6.103 -0.0685 -0.8997 -0.0693
  734MOL0     N96773   8.691   4.367   6.090  0.2007 -0.4056 -0.0448
  734MOL0     C96774   8.819   4.372   6.046 -0.7345 -0.2598 -1.4118
  734MOL0     C96775   8.863   4.483   6.099  0.4037  0.5029 -0.7339
  734MOL0     C96776   9.003   4.534   6.093  0.0795 -0.6057  0.3511
  734MOL0     C96777   9.077   4.536   6.228  0.3651  0.5727 -0.1718
  734MOL0     C96778   9.215   4.594   6.214 -0.7050 -0.1712  1.2443
  734MOL0     C96779   9.212   4.752   6.215  0.1529  0.5541 -0.2116
  734MOL0     O96780   9.191   4.814   6.084  0.1271  0.0946 -0.5256
  734MOL0     C96781   9.195   4.955   6.086  0.5630  0.0236 -0.0652
  734MOL0     C96782   9.205   5.016   5.965 -0.2343  0.6839 -0.0983
  734MOL0     C96783   9.211   5.158   5.951  0.1705  0.1233  0.3852
  734MOL0     C96784   9.197   5.238   6.067  0.4287 -0.4463  0.2390
  734MOL0     C96785   9.189   5.381   6.049  0.7689  0.5863 -0.0920
  734MOL0     O96786   9.219   5.434   5.930 -0.4076 -0.1673  0.3473
  734MOL0     C96787   9.200   5.567   5.920 -0.6108 -0.0544 -0.3459
  734MOL0     C96788   9.127   5.615   5.813 -0.1727 -0.2991 -0.4298
  734MOL0     C96789   9.130   5.753   5.788 -0.1456 -0.5531  0.0998
  734MOL0     C96790   9.205   5.843   5.862 -0.2178 -0.2324 -0.2818
  734MOL0     O96791   9.200   5.971   5.828 -0.7245  0.2417 -0.7840
  734MOL0     C96792   9.308   6.061   5.869  0.5596 -0.0902  0.1808
  734MOL0     C96793   9.266   6.188   5.798  0.0068 -0.5943  0.2668
  734MOL0     C96794   9.278   6.182   5.644  0.4782  0.2612  0.5797
  734MOL0     C96795   9.228   6.303   5.576 -0.1062 -0.0742  0.5843
  734MOL0     C96796   9.232   6.288   5.432  0.4258 -0.4090 -0.5988
  734MOL0     C96797   9.368   6.285   5.358 -0.1369 -0.3133  0.1015
  734MOL0     C96798   9.372   6.239   5.208 -0.3986  0.0646  0.6710
  734MOL0     C96799   9.324   6.090   5.185 -0.4499 -0.1392  0.4153
  734MOL0    Cl96800   9.368   6.048   5.007  0.0032  0.2225  0.1283
  734MOL0     C96801   9.272   5.792   5.971  0.7419  0.6046  0.3393
  734MOL0     C96802   9.283   5.657   5.988 -1.0385 -0.7253  0.1224
  734MOL0     O96803   9.142   5.441   6.144 -0.4595  0.6591  0.2038
  734MOL0     C96804   9.168   5.175   6.191 -0.2678  0.1896  1.0964
  734MOL0     C96805   9.184   5.039   6.199  0.1064 -0.4228  0.5326
  734MOL0     N96806   8.753   4.550   6.153 -0.7980 -0.9617  0.0065
  734MOL0     N96807   8.648   4.475   6.148  0.5432 -0.3512 -0.7177
  734MOL0     C96808   7.600   4.163   6.018  1.0721  0.8324 -0.1884
  734MOL0     C96809   7.460   4.136   6.015 -0.5597 -0.4896  0.4345
  734MOL0     C96810   7.027   4.182   5.890 -0.0894 -0.4767 -0.2396
  734MOL0     C96811   6.982   4.056   5.859 -0.5365  0.1031 -0.4736
  734MOL0     C96812   6.845   4.030   5.857 -0.1110  0.1588 -0.4523
  734MOL0     C96813   6.744   4.124   5.872 -0.0209 -0.6973 -0.1348
  734MOL0     O96814   6.612   4.097   5.858  1.0167  0.6965  0.1705
  734MOL0     C96815   6.516   4.194   5.818  1.2165 -0.3602 -0.0051
  734MOL0     C96816   6.379   4.120   5.813  0.5130  0.3132  0.8652
  734MOL0     C96817   6.379   3.988   5.726  0.1098 -0.1109  0.2278
  734MOL0     C96818   6.452   4.009   5.584 -0.4455 -0.0752  0.3511
  734MOL0     C96819   6.414   3.891   5.512 -0.8061  0.0742 -0.9220
  734MOL0     C96820   6.382   3.793   5.452 -1.2848  0.7843 -0.1878
  734MOL0     C96821   6.792   4.261   5.881  0.4501 -0.3078  0.1491
  734MOL0     C96822   6.925   4.291   5.890 -0.3317  0.4751 -0.4241
  734MOL0     H96823   7.378   4.203   5.693  0.6066  0.5490 -0.2458
  734MOL0     H96824   7.626   4.243   5.691  0.5685  1.4306  0.3692
  734MOL0     H96825   7.858   4.092   6.037  1.3736 -0.6423 -1.4877
  734MOL0     H96826   7.885   4.265   6.078  1.7612 -2.4829  2.2789
  734MOL0     H96827   8.043   4.256   5.859 -2.1083 -0.0998 -0.9576
  734MOL0     H96828   8.021   4.092   5.869  0.0276  0.6908 -0.3691
  734MOL0     H96829   8.095   4.110   6.118 -2.5657  1.6384 -0.1436
  734MOL0     H96830   8.139   4.272   6.091 -2.5324  0.1136  1.3859
  734MOL0     H96831   8.311   4.064   6.039 -1.8274 -1.5873 -0.8177
  734MOL0     H96832   8.245   4.082   5.880 -0.3698 -2.5113  0.3134
  734MOL0     H96833   8.355   4.311   6.057 -0.1845  1.4729 -0.5292
  734MOL0     H96834   8.293   4.334   5.896  0.7250  0.7083  0.5125
  734MOL0     H96835   8.527   4.338   5.870  1.5979  0.7035  1.4042
  734MOL0     H96836   8.462   4.193   5.801 -3.0080  1.6744 -0.1649
  734MOL0     H96837   8.552   4.063   5.980 -1.8204  1.2200  3.8970
  734MOL0     H96838   8.677   4.163   5.911  0.6039  2.3652  0.2580
  734MOL0     H96839   8.685   4.163   6.160  1.2457 -1.1600 -1.8041
  734MOL0     H96840   8.527   4.245   6.159 -2.3221 -1.8729 -3.1913
  734MOL0     H96841   8.865   4.292   5.990 -1.2074 -3.4905  2.3776
  734MOL0     H96842   8.997   4.639   6.066  0.2608  0.4516  3.9288
  734MOL0     H96843   9.061   4.480   6.017  0.3257  1.2447 -0.8184
  734MOL0     H96844   9.086   4.436   6.272  0.0237  1.1375  1.2259
  734MOL0     H96845   9.021   4.597   6.300 -2.0296 -2.7813  1.0472
  734MOL0     H96846   9.271   4.557   6.300  0.3446 -0.2316  0.5451
  734MOL0     H96847   9.264   4.560   6.123  0.1319 -0.2755  1.7228
  734MOL0     H96848   9.310   4.780   6.254  1.7416 -2.5691 -1.5987
  734MOL0     H96849   9.125   4.795   6.266 -0.5131  0.4189 -1.1961
  734MOL0     H96850   9.205   4.948   5.880  2.8945 -0.4002  0.6372
  734MOL0     H96851   9.216   5.205   5.853 -0.1515 -1.1865 -0.2816
  734MOL0     H96852   9.068   5.543   5.757 -0.3830 -1.1206  0.8137
  734MOL0     H96853   9.064   5.789   5.710 -0.9574 -0.5574  0.7602
  734MOL0     H96854   9.405   6.027   5.832 -0.5109 -0.6031 -2.4198
  734MOL0     H96855   9.303   6.066   5.978  1.5812  3.0226  0.2054
  734MOL0     H96856   9.328   6.270   5.834  2.3741 -1.5706 -1.3733
  734MOL0     H96857   9.163   6.190   5.835  0.2891 -1.4477  1.1510
  734MOL0     H96858   9.224   6.092   5.612  1.3503  0.0950 -0.4955
  734MOL0     H96859   9.383   6.168   5.616  0.1276 -0.6980 -0.3308
  734MOL0     H96860   9.133   6.338   5.618 -0.2996  1.5938 -1.1045
  734MOL0     H96861   9.309   6.372   5.602  3.3463 -2.8804 -1.7867
  734MOL0     H96862   9.162   6.364   5.395 -2.0184 -1.5477  1.3826
  734MOL0     H96863   9.179   6.196   5.405 -0.4778  0.4298 -1.7824
  734MOL0     H96864   9.442   6.220   5.405  1.9200  1.7950 -0.0524
  734MOL0     H96865   9.412   6.386   5.360  0.6611 -0.4599 -3.4026
  734MOL0     H96866   9.319   6.318   5.154  3.4669  3.9876  2.0158
  734MOL0     H96867   9.476   6.245   5.175 -0.5413 -1.7866 -0.2101
  734MOL0     H96868   9.216   6.093   5.198 -0.4185  1.0811  0.5569
  734MOL0     H96869   9.372   6.020   5.254 -0.3809 -2.9722 -2.2563
  734MOL0     H96870   9.312   5.869   6.037  0.8993  0.3988  0.4848
  734MOL0     H96871   9.340   5.627   6.076 -0.6410  1.2812  0.6124
  734MOL0     H96872   9.137   5.229   6.279 -2.8789 -0.3486  0.5752
  734MOL0     H96873   9.181   4.993   6.297  0.8798 -0.8494  0.3606
  734MOL0     H96874   7.650   4.142   6.112 -1.8741 -1.5815  0.9901
  734MOL0     H96875   7.416   4.104   6.109  2.1909 -2.2905  1.2400
  734MOL0     H96876   7.054   3.976   5.844 -0.5669 -0.3319  1.4412
  734MOL0     H96877   6.814   3.927   5.841 -2.3399  0.3126  2.0954
  734MOL0     H96878   6.546   4.245   5.726  0.9402  0.1867  0.2046
  734MOL0     H96879   6.502   4.276   5.889  0.2926  0.7754 -1.4379
  734MOL0     H96880   6.340   4.081   5.907 -0.7689 -4.0932 -1.2071
  734MOL0     H96881   6.297   4.176   5.768  0.6645  1.9086  2.4679
  734MOL0     H96882   6.274   3.963   5.708 -0.3401  1.4735  0.5384
  734MOL0     H96883   6.426   3.907   5.783 -1.4404 -2.5891 -1.7798
  734MOL0     H96884   6.407   4.093   5.530 -0.1958  0.7108  1.3349
  734MOL0     H96885   6.558   4.021   5.607  0.1148 -2.8674 -0.3863
  734MOL0     H96886   6.350   3.705   5.400  1.1584  0.2388 -0.8963
  734MOL0     H96887   6.720   4.341   5.894  2.7603  1.6217  2.0486
  734MOL0     H96888   6.947   4.396   5.908 -1.5734  0.4769  1.2791
  735MOL0     O96889   4.054  10.468  10.392 -0.4353 -0.0277  0.4525
  735MOL0     C96890   4.142  10.434  10.305 -0.0901 -0.4170  0.3007
  735MOL0     O96891   4.109  10.405  10.181 -0.0658  0.6165 -0.8034
  735MOL0     C96892   3.976  10.387  10.152  0.1997 -0.9240  0.6263
  735MOL0     C96893   3.889  10.488  10.114  0.1495 -0.0058  0.3175
  735MOL0     C96894   3.764  10.459  10.052  0.0101  0.1774  0.5743
  735MOL0     C96895   3.732  10.329  10.017  0.4029  0.0654 -0.6658
  735MOL0     O96896   3.630  10.288   9.928  0.1903 -0.1427 -0.1330
  735MOL0     C96897   3.510  10.354   9.906  0.5429 -0.5776  0.1307
  735MOL0     C96898   3.425  10.304   9.791  0.3667 -1.8506 -0.0076
  735MOL0     C96899   3.318  10.416   9.781 -0.5202  0.3839 -0.6274
  735MOL0     C96900   3.207  10.377   9.677 -0.0556 -0.4795 -0.2054
  735MOL0     C96901   3.115  10.498   9.650 -0.2685  0.0364 -1.4348
  735MOL0     C96902   3.020  10.517   9.766  0.1428 -0.2369  0.5662
  735MOL0     C96903   2.930  10.644   9.752  0.7898  0.5073  0.4884
  735MOL0     C96904   2.794  10.634   9.827  0.2158  0.2835  0.1637
  735MOL0     N96905   2.816  10.657   9.968 -0.3262  0.5111  0.3414
  735MOL0     C96906   2.828  10.556  10.061 -0.6546 -0.3243 -0.9088
  735MOL0     C96907   2.852  10.629  10.170  0.6928 -0.3350 -0.0073
  735MOL0     C96908   2.857  10.576  10.311  0.6199 -0.0874 -0.1036
  735MOL0     C96909   3.002  10.572  10.367 -0.3231  0.4233 -0.5447
  735MOL0     C96910   3.020  10.651  10.500  0.0547 -0.1319 -1.5466
  735MOL0     C96911   3.159  10.711  10.511 -0.2674  0.9078 -0.3875
  735MOL0     O96912   3.161  10.789  10.626 -0.1350 -0.6563  0.2571
  735MOL0     C96913   3.279  10.853  10.655 -0.3269  0.1658  0.3216
  735MOL0     C96914   3.270  10.956  10.748 -0.1851  0.2457 -0.4395
  735MOL0     C96915   3.389  11.030  10.784 -0.1858 -0.1339 -0.3695
  735MOL0     C96916   3.514  10.998  10.725  0.4456  0.8684 -0.4722
  735MOL0     C96917   3.641  11.077  10.762 -0.0554 -0.6999  0.2985
  735MOL0     O96918   3.636  11.160  10.866  0.1809  0.1491 -0.2740
  735MOL0     C96919   3.747  11.232  10.893 -0.0389 -0.1079  1.0602
  735MOL0     C96920   3.837  11.171  10.967 -0.4837 -0.6953  0.0155
  735MOL0     C96921   3.960  11.233  10.984 -0.8706 -0.5689  1.1110
  735MOL0     C96922   3.993  11.348  10.920 -0.2826  0.7081  0.5839
  735MOL0     O96923   4.122  11.382  10.910  0.1127  0.0829  0.0344
  735MOL0     C96924   4.164  11.473  10.799  0.0845 -0.3267 -0.4233
  735MOL0     C96925   4.316  11.446  10.776  0.0006  0.3243  0.2572
  735MOL0     C96926   4.367  11.536  10.663 -0.2550 -0.2099  0.0423
  735MOL0     C96927   4.525  11.534  10.653  0.5336  0.2096 -0.0797
  735MOL0     C96928   4.583  11.660  10.572  0.2644  0.1982 -0.1491
  735MOL0     C96929   4.732  11.657  10.595 -0.1808  0.6704  0.4451
  735MOL0     C96930   4.803  11.770  10.513 -0.8128  0.1418 -0.4182
  735MOL0     C96931   4.946  11.801  10.558 -0.7051 -0.1458  0.0659
  735MOL0    Cl96932   4.980  11.820  10.731 -0.2279 -0.2039 -0.0148
  735MOL0     C96933   3.896  11.406  10.841  0.1324 -0.1799  0.7101
  735MOL0     C96934   3.765  11.356  10.829 -0.0091  0.4745  0.5720
  735MOL0     O96935   3.744  11.055  10.698  0.6571 -0.4547 -0.0114
  735MOL0     C96936   3.529  10.886  10.637 -0.6886  0.7779 -0.6913
  735MOL0     C96937   3.409  10.827  10.597 -0.4875  0.3309 -0.3323
  735MOL0     N96938   2.849  10.765  10.149  1.4757  0.0702  0.5219
  735MOL0     N96939   2.821  10.773  10.026  0.1226 -0.0525  0.4442
  735MOL0     C96940   3.822  10.229  10.058  0.2485 -0.1959 -0.4204
  735MOL0     C96941   3.937  10.257  10.127 -0.0484 -0.3852 -0.1953
  735MOL0     C96942   4.281  10.438  10.351  0.0392 -0.0562  0.3722
  735MOL0     C96943   4.308  10.468  10.482 -0.6607  0.1902 -0.2836
  735MOL0     C96944   4.443  10.468  10.527  0.2066 -1.2550 -0.4422
  735MOL0     C96945   4.547  10.444  10.435 -0.1361 -0.3463  0.4335
  735MOL0     O96946   4.673  10.465  10.480 -0.3842 -0.0291 -0.0040
  735MOL0     C96947   4.784  10.482  10.397 -0.4569  0.6940  0.4430
  735MOL0     C96948   4.917  10.490  10.479  0.2570 -0.2650  0.5046
  735MOL0     C96949   5.035  10.539  10.395  0.1978 -0.2730  0.2671
  735MOL0     C96950   5.031  10.682  10.365  0.0369  0.1328 -0.0219
  735MOL0     C96951   5.123  10.708  10.244  1.0568  0.0235 -0.2853
  735MOL0     C96952   5.211  10.721  10.164 -0.5390  0.4277  0.9590
  735MOL0     C96953   4.515  10.426  10.301 -0.7913  0.7951 -0.4792
  735MOL0     C96954   4.379  10.408  10.261 -0.4399  0.4851 -0.7726
  735MOL0     H96955   3.922  10.588  10.141  1.0883 -0.7515  2.1146
  735MOL0     H96956   3.683  10.525  10.022 -1.4918 -2.2971 -1.1208
  735MOL0     H96957   3.523  10.461   9.886 -0.2847 -0.6184 -0.6903
  735MOL0     H96958   3.449  10.341   9.997  0.9162 -0.3350  0.4200
  735MOL0     H96959   3.382  10.212   9.830  1.0220 -0.7389  3.7818
  735MOL0     H96960   3.485  10.294   9.700  4.1266  2.1334  1.6324
  735MOL0     H96961   3.365  10.504   9.735 -1.4607  1.2744  0.0839
  735MOL0     H96962   3.276  10.442   9.878  3.3937  1.1927  1.0334
  735MOL0     H96963   3.251  10.353   9.580  3.3567 -0.5423  1.2157
  735MOL0     H96964   3.153  10.286   9.704 -1.5726  0.2929 -0.5498
  735MOL0     H96965   3.058  10.476   9.559 -0.4070 -1.7190 -0.9734
  735MOL0     H96966   3.164  10.593   9.631 -2.4321  1.0140 -2.5067
  735MOL0     H96967   3.081  10.528   9.856  0.6167 -0.0506  0.2242
  735MOL0     H96968   2.954  10.429   9.770 -0.7178  0.3467 -0.1741
  735MOL0     H96969   2.987  10.726   9.796 -0.6048  0.9473  1.5610
  735MOL0     H96970   2.910  10.664   9.647 -1.2053 -2.0854  0.2805
  735MOL0     H96971   2.743  10.539   9.811 -1.3644  1.1850 -0.3216
  735MOL0     H96972   2.724  10.711   9.794 -0.3503  0.4877  1.7698
  735MOL0     H96973   2.803  10.450  10.053 -0.0871 -0.5683  0.2817
  735MOL0     H96974   2.814  10.476  10.318 -3.6234  1.3923 -1.6629
  735MOL0     H96975   2.794  10.651  10.360 -0.2417  0.6913 -2.2861
  735MOL0     H96976   3.083  10.605  10.301  0.3087 -0.3978 -0.1880
  735MOL0     H96977   3.023  10.470  10.400 -2.8898  0.8970  3.2115
  735MOL0     H96978   2.945  10.729  10.509  1.4352  1.0869 -0.1503
  735MOL0     H96979   3.010  10.574  10.577 -1.6764 -0.3515 -1.9509
  735MOL0     H96980   3.183  10.759  10.416 -1.6249 -2.3635 -2.5719
  735MOL0     H96981   3.226  10.626  10.528 -1.3521  0.5210  2.4929
  735MOL0     H96982   3.175  10.975  10.797  1.7383 -0.0750  3.9111
  735MOL0     H96983   3.377  11.117  10.847 -0.3617 -2.3951  2.9230
  735MOL0     H96984   3.824  11.077  11.019 -0.2929 -0.3909  0.6203
  735MOL0     H96985   4.042  11.186  11.038  2.9847  3.0643 -0.9642
  735MOL0     H96986   4.151  11.574  10.839  0.8930 -0.8509  1.3116
  735MOL0     H96987   4.113  11.460  10.704 -1.1266 -3.6684  0.5385
  735MOL0     H96988   4.324  11.341  10.749 -0.5083  0.8873 -2.2968
  735MOL0     H96989   4.368  11.444  10.873 -0.9692 -1.7769  0.8037
  735MOL0     H96990   4.326  11.635  10.684  1.0897  0.1811  0.8839
  735MOL0     H96991   4.320  11.493  10.574 -1.5540 -0.4078  0.7998
  735MOL0     H96992   4.573  11.540  10.751  2.1003 -0.5406 -0.7631
  735MOL0     H96993   4.552  11.437  10.609  2.0589 -1.2509  3.7073
  735MOL0     H96994   4.542  11.752  10.615  2.7607 -0.0126  3.0497
  735MOL0     H96995   4.550  11.647  10.469 -0.6108 -3.3021  0.4440
  735MOL0     H96996   4.766  11.560  10.557 -1.1192  0.4793  0.0560
  735MOL0     H96997   4.765  11.654  10.699  3.5416 -0.3818 -0.6089
  735MOL0     H96998   4.804  11.742  10.407 -1.1488 -1.0574 -0.1239
  735MOL0     H96999   4.755  11.865  10.534  0.0981  0.5327 -0.0669
  735MOL0     H97000   4.973  11.884  10.494  0.2843 -0.0101  0.6386
  735MOL0     H97001   5.015  11.724  10.524  0.5565 -0.1293  2.3667
  735MOL0     H97002   3.926  11.491  10.780 -0.1777 -1.3043 -1.0806
  735MOL0     H97003   3.702  11.403  10.754  0.1102  2.5940  1.6944
  735MOL0     H97004   3.628  10.858  10.602  0.1509  0.4980  1.7243
  735MOL0     H97005   3.404  10.743  10.528 -1.3126  0.3882 -0.3520
  735MOL0     H97006   3.801  10.124  10.037  0.8754 -0.5236  0.5534
  735MOL0     H97007   4.015  10.182  10.139  0.2146  0.0899  1.1648
  735MOL0     H97008   4.234  10.476  10.561 -1.9376 -1.5056 -1.2455
  735MOL0     H97009   4.467  10.486  10.632 -2.3435  0.3759 -0.0462
  735MOL0     H97010   4.771  10.565  10.326 -1.1216 -0.9283 -1.4170
  735MOL0     H97011   4.798  10.392  10.337 -2.4121  0.1656  0.7046
  735MOL0     H97012   4.901  10.567  10.555  0.9297  1.0689 -0.6472
  735MOL0     H97013   4.944  10.393  10.521 -1.7763 -2.2004 -2.3039
  735MOL0     H97014   5.040  10.482  10.302 -0.8925 -0.9493  0.5959
  735MOL0     H97015   5.133  10.520  10.441 -0.0131  0.8888  1.2555
  735MOL0     H97016   4.929  10.707  10.336 -0.9840 -2.9774  0.5004
  735MOL0     H97017   5.073  10.722  10.458  1.3319 -3.3629  1.0917
  735MOL0     H97018   5.293  10.720  10.094  0.9208  3.1423  2.4699
  735MOL0     H97019   4.592  10.402  10.229 -0.0223  0.6018  0.3887
  735MOL0     H97020   4.362  10.381  10.157  0.6170  3.2555 -1.7572
  736MOL0     O97021   6.802  10.081   6.300  0.6254 -0.0736  0.5040
  736MOL0     C97022   6.843   9.976   6.248  0.0125 -0.1492 -0.2609
  736MOL0     O97023   6.802   9.853   6.275  0.3996  0.5900  0.0132
  736MOL0     C97024   6.681   9.825   6.340  0.8085  1.0930 -0.3572
  736MOL0     C97025   6.662   9.690   6.364 -0.5254  0.5062  0.4388
  736MOL0     C97026   6.537   9.634   6.411 -0.1357  0.3559 -0.1513
  736MOL0     C97027   6.432   9.720   6.441  0.6338 -0.5933  0.4588
  736MOL0     O97028   6.319   9.660   6.481  0.1434  0.6569  0.7376
  736MOL0     C97029   6.262   9.687   6.602  0.1304 -0.2287 -0.4768
  736MOL0     C97030   6.165   9.582   6.650  0.1171  0.2587 -1.0603
  736MOL0     C97031   6.073   9.624   6.769 -0.0317  0.1675 -0.5389
  736MOL0     C97032   5.975   9.515   6.811 -0.8768 -0.4198 -0.2499
  736MOL0     C97033   5.896   9.551   6.940  0.1508 -0.0122 -0.9724
  736MOL0     C97034   5.772   9.480   6.949  0.3940  0.1363 -0.0576
  736MOL0     C97035   5.777   9.322   6.956  0.0369 -0.2991 -0.1107
  736MOL0     C97036   5.651   9.248   6.977  0.4898 -0.0387 -0.7155
  736MOL0     N97037   5.541   9.302   6.894  0.6317 -0.1665  0.6211
  736MOL0     C97038   5.455   9.394   6.942  0.2084  0.1867 -0.3870
  736MOL0     C97039   5.353   9.393   6.855 -0.1196 -0.2182  0.1731
  736MOL0     C97040   5.228   9.469   6.873  1.0659 -0.7290 -0.7332
  736MOL0     C97041   5.223   9.596   6.789  0.6723 -0.4435 -0.4965
  736MOL0     C97042   5.231   9.560   6.638  0.8223 -0.0447  0.2025
  736MOL0     C97043   5.197   9.682   6.556  0.1580 -0.0036 -0.1934
  736MOL0     O97044   5.071   9.741   6.588 -0.5354  0.0520 -0.2330
  736MOL0     C97045   4.959   9.693   6.524  0.0656 -0.2355 -0.0974
  736MOL0     C97046   4.833   9.749   6.551  0.3818  0.4369 -0.1168
  736MOL0     C97047   4.717   9.713   6.490 -0.7273  0.1222  0.0440
  736MOL0     C97048   4.715   9.610   6.394 -0.0752  0.6000 -0.8132
  736MOL0     C97049   4.583   9.567   6.327  0.7661  0.2661 -0.1217
  736MOL0     O97050   4.482   9.663   6.335  0.4661  0.0012  0.2772
  736MOL0     C97051   4.368   9.638   6.267 -0.2327 -0.0890  0.1124
  736MOL0     C97052   4.350   9.574   6.144  0.1715 -0.6499  0.0596
  736MOL0     C97053   4.222   9.582   6.084  0.3642  1.0037  0.0852
  736MOL0     C97054   4.111   9.639   6.152  0.5338 -0.1585  0.1038
  736MOL0     O97055   3.989   9.638   6.080 -0.5730  0.1646  0.4525
  736MOL0     C97056   3.874   9.638   6.171  0.4478 -0.6312 -0.5240
  736MOL0     C97057   3.743   9.609   6.086  0.1778 -0.0918 -0.0791
  736MOL0     C97058   3.744   9.695   5.959 -0.5315 -0.2935 -0.2765
  736MOL0     C97059   3.611   9.670   5.894  0.5710 -1.3097  0.2237
  736MOL0     C97060   3.599   9.733   5.752  0.0799 -0.5263 -0.2869
  736MOL0     C97061   3.449   9.760   5.695 -0.3051 -0.3599  0.3704
  736MOL0     C97062   3.438   9.859   5.579  0.3357  1.1679 -1.4793
  736MOL0     C97063   3.493   9.784   5.464  0.2048  0.1051  0.8224
  736MOL0    Cl97064   3.379   9.645   5.423 -0.0781 -0.0998  0.5264
  736MOL0     C97065   4.131   9.686   6.290 -0.1745 -0.8224  0.5159
  736MOL0     C97066   4.264   9.697   6.337 -0.4684 -0.6889 -0.0812
  736MOL0     O97067   4.578   9.467   6.258 -0.0884  0.2255  0.6647
  736MOL0     C97068   4.842   9.548   6.365  0.8754  0.1254  0.1343
  736MOL0     C97069   4.958   9.591   6.426 -0.3064  0.0635 -0.7046
  736MOL0     N97070   5.385   9.315   6.749  0.3981 -0.3960 -0.8339
  736MOL0     N97071   5.494   9.255   6.773  0.8500 -0.2842  0.1887
  736MOL0     C97072   6.455   9.859   6.426  0.1160 -0.2809  0.1174
  736MOL0     C97073   6.574   9.911   6.383  0.3140 -0.2485  0.4540
  736MOL0     C97074   6.954   9.985   6.153 -0.8788 -0.5523  0.5062
  736MOL0     C97075   7.039  10.093   6.148  0.3644 -0.7824  0.0597
  736MOL0     C97076   7.142  10.091   6.054 -0.4392  0.6456  0.2059
  736MOL0     C97077   7.158   9.990   5.962  0.2899 -0.1785 -0.3845
  736MOL0     O97078   7.267  10.002   5.883 -0.1727 -0.2074 -0.8098
  736MOL0     C97079   7.294   9.904   5.779  0.6153 -0.1624 -0.1066
  736MOL0     C97080   7.430   9.951   5.732  0.4602  1.7363  0.5424
  736MOL0     C97081   7.525   9.970   5.850 -0.0843 -0.1036 -0.1494
  736MOL0     C97082   7.674   9.974   5.813  0.3595  0.5687  0.6808
  736MOL0     C97083   7.712  10.105   5.764  0.2998 -0.3160  0.6659
  736MOL0     C97084   7.742  10.220   5.729 -0.6403  0.4063  0.3593
  736MOL0     C97085   7.075   9.884   5.968  0.8240 -0.2854  0.1698
  736MOL0     C97086   6.972   9.879   6.060  0.7846 -0.1726  0.2514
  736MOL0     H97087   6.737   9.613   6.348  0.4292  1.2166  1.3509
  736MOL0     H97088   6.527   9.528   6.435  0.1015 -0.0358 -1.6379
  736MOL0     H97089   6.217   9.785   6.584  0.0854  0.5636  3.1991
  736MOL0     H97090   6.338   9.709   6.677 -0.1754 -1.5895  0.2577
  736MOL0     H97091   6.220   9.496   6.689 -0.4518  0.8758  1.2640
  736MOL0     H97092   6.103   9.560   6.562 -0.0960  1.5166 -1.2481
  736MOL0     H97093   6.018   9.717   6.755 -1.2427  0.1201  2.8796
  736MOL0     H97094   6.136   9.640   6.857  1.9822 -0.3830 -1.8278
  736MOL0     H97095   5.900   9.503   6.732 -0.2942 -2.9869 -0.5014
  736MOL0     H97096   6.025   9.419   6.829 -0.1713  0.5291  3.7607
  736MOL0     H97097   5.873   9.657   6.926  2.4189  0.5259 -1.0105
  736MOL0     H97098   5.950   9.524   7.032 -1.7868 -1.1978 -0.1154
  736MOL0     H97099   5.709   9.501   6.862  0.8629 -1.9003 -0.9628
  736MOL0     H97100   5.726   9.524   7.038 -0.9933 -0.5059 -0.4126
  736MOL0     H97101   5.816   9.274   6.866  0.8849  0.7808 -0.3484
  736MOL0     H97102   5.833   9.297   7.047 -2.4710 -0.8487  1.3980
  736MOL0     H97103   5.627   9.254   7.084  0.4362  0.7814 -0.7627
  736MOL0     H97104   5.676   9.143   6.962  2.8944  0.3756 -0.0685
  736MOL0     H97105   5.462   9.445   7.037 -0.4989 -0.7693  0.1988
  736MOL0     H97106   5.207   9.483   6.980 -1.2459  0.8484 -1.3098
  736MOL0     H97107   5.141   9.411   6.840  0.6596 -0.8414  0.4740
  736MOL0     H97108   5.311   9.656   6.815 -1.1639  2.6036 -0.8071
  736MOL0     H97109   5.145   9.668   6.816  0.7261 -0.3976 -0.4617
  736MOL0     H97110   5.327   9.523   6.601  1.2255  2.3193 -1.3398
  736MOL0     H97111   5.159   9.480   6.622  0.7071  0.4958 -2.3406
  736MOL0     H97112   5.211   9.663   6.450  1.1757  0.0791 -0.0816
  736MOL0     H97113   5.275   9.758   6.569  0.6558 -0.7301  1.3241
  736MOL0     H97114   4.810   9.814   6.635 -2.5261 -0.7254  0.1092
  736MOL0     H97115   4.628   9.768   6.517  0.4216  1.8724  0.4380
  736MOL0     H97116   4.436   9.535   6.090  2.1237  1.2179  1.6316
  736MOL0     H97117   4.203   9.514   6.002 -2.9734 -2.1550  3.0876
  736MOL0     H97118   3.852   9.726   6.232  4.1590 -0.2536  0.4936
  736MOL0     H97119   3.887   9.562   6.248  2.3712  0.8048  0.6558
  736MOL0     H97120   3.656   9.627   6.150  1.2285 -0.8177  1.6375
  736MOL0     H97121   3.747   9.502   6.064  2.0329 -0.2741  0.9530
  736MOL0     H97122   3.829   9.665   5.897  0.5535  0.7374  0.6832
  736MOL0     H97123   3.747   9.802   5.979  2.4235 -0.0951 -1.3368
  736MOL0     H97124   3.590   9.564   5.879  1.2933 -1.2607 -1.2591
  736MOL0     H97125   3.534   9.705   5.963  0.5274  1.4240 -1.0785
  736MOL0     H97126   3.655   9.670   5.682  2.0225  0.8046 -0.0207
  736MOL0     H97127   3.647   9.831   5.760 -1.0045  0.0587 -0.6859
  736MOL0     H97128   3.384   9.807   5.770 -1.6332  1.0686 -1.5646
  736MOL0     H97129   3.400   9.664   5.676  1.5911 -1.8957  2.7031
  736MOL0     H97130   3.332   9.885   5.565 -0.2417 -0.0160  0.4471
  736MOL0     H97131   3.507   9.943   5.588 -0.6715  1.9477 -0.6970
  736MOL0     H97132   3.591   9.742   5.492  1.9928  0.6527 -3.8359
  736MOL0     H97133   3.506   9.849   5.378 -0.4881 -0.9445 -0.1025
  736MOL0     H97134   4.048   9.738   6.337  1.2929  0.4176  1.8252
  736MOL0     H97135   4.291   9.735   6.434  0.5832 -4.7005  1.3995
  736MOL0     H97136   4.852   9.454   6.310 -0.9265  1.0638 -1.9792
  736MOL0     H97137   5.051   9.549   6.388  0.9189  0.8554  1.2911
  736MOL0     H97138   6.376   9.931   6.447 -1.2705 -1.0985 -1.9107
  736MOL0     H97139   6.591  10.018   6.375 -0.0998 -0.1001  1.4541
  736MOL0     H97140   7.036  10.171   6.222 -0.0034  0.2863 -1.0577
  736MOL0     H97141   7.216  10.170   6.061  0.7155 -0.4554  0.7758
  736MOL0     H97142   7.217   9.920   5.703  1.3542 -1.6216 -1.2203
  736MOL0     H97143   7.291   9.799   5.808 -3.7495 -0.1613  0.1709
  736MOL0     H97144   7.466   9.879   5.658 -1.0322  1.2910  0.2251
  736MOL0     H97145   7.417  10.047   5.682 -0.4815  0.3542 -2.0505
  736MOL0     H97146   7.510   9.885   5.918 -0.7784 -1.2659 -1.6713
  736MOL0     H97147   7.490  10.055   5.910 -0.4757  0.3274 -0.9738
  736MOL0     H97148   7.728   9.945   5.904 -1.8311  0.8644  2.1508
  736MOL0     H97149   7.706   9.908   5.732 -2.2123  0.4850 -0.3508
  736MOL0     H97150   7.771  10.318   5.698 -1.0416  0.0004 -1.4387
  736MOL0     H97151   7.083   9.790   5.915  0.9167  0.5944 -1.4476
  736MOL0     H97152   6.913   9.788   6.056  1.8671 -0.9729  1.7247
  737MOL0     O97153  10.308   1.034   7.209 -0.8113 -0.2334 -0.0067
  737MOL0     C97154  10.382   1.132   7.198  0.0777  0.5631  0.3909
  737MOL0     O97155  10.344   1.259   7.173  0.6605  0.7315 -0.9571
  737MOL0     C97156  10.212   1.303   7.149 -0.1077 -0.7201  0.0570
  737MOL0     C97157  10.120   1.233   7.066 -1.7442  0.8657  0.2282
  737MOL0     C97158  10.000   1.289   7.024 -0.6897  0.1674  0.0645
  737MOL0     C97159   9.971   1.421   7.055 -0.8378 -0.4345  0.4092
  737MOL0     O97160   9.856   1.482   7.017 -0.5964 -0.3396 -0.3153
  737MOL0     C97161   9.871   1.570   6.903 -0.5750 -0.4944 -0.5762
  737MOL0     C97162   9.734   1.617   6.863 -0.3815 -0.4830  0.5578
  737MOL0     C97163   9.620   1.524   6.875  0.6338  0.0308  0.5186
  737MOL0     C97164   9.647   1.384   6.799 -0.2409  0.2939 -1.3352
  737MOL0     C97165   9.534   1.285   6.798  0.0856 -0.7628 -0.4507
  737MOL0     C97166   9.563   1.159   6.728 -0.8167  0.0879  0.3789
  737MOL0     C97167   9.622   1.070   6.824  0.1685 -0.6996  0.4619
  737MOL0     C97168   9.694   0.949   6.762  0.3077  0.2958 -0.7456
  737MOL0     N97169   9.599   0.846   6.709 -0.2415 -0.3267 -0.2969
  737MOL0     C97170   9.539   0.755   6.792 -0.3116 -0.5944  0.0239
  737MOL0     C97171   9.468   0.667   6.706  0.9378 -0.5898  0.5393
  737MOL0     C97172   9.390   0.544   6.742  0.4242  0.2468 -0.3682
  737MOL0     C97173   9.265   0.538   6.659 -0.5885  0.6292 -0.0860
  737MOL0     C97174   9.169   0.652   6.675 -0.4100 -0.2101 -0.3627
  737MOL0     C97175   9.042   0.629   6.592  0.5112  0.0312  0.4608
  737MOL0     O97176   8.964   0.518   6.641  1.5768 -0.1754 -0.2029
  737MOL0     C97177   8.852   0.489   6.576 -0.2148 -0.5723  1.1758
  737MOL0     C97178   8.794   0.369   6.624 -0.5130  0.1466  0.6232
  737MOL0     C97179   8.680   0.315   6.559 -0.4867  1.0227  0.3784
  737MOL0     C97180   8.623   0.364   6.440  0.2295  0.1323  0.0700
  737MOL0     C97181   8.509   0.298   6.387  0.2717 -0.8078 -0.5941
  737MOL0     O97182   8.447   0.373   6.299  0.9037  0.3254 -0.4771
  737MOL0     C97183   8.333   0.322   6.247  0.4282 -0.1484  0.2270
  737MOL0     C97184   8.205   0.366   6.275  0.5455  0.3772 -0.3631
  737MOL0     C97185   8.099   0.320   6.205  0.7257  0.6425  0.1514
  737MOL0     C97186   8.110   0.213   6.114 -0.0310 -0.1363  0.7023
  737MOL0     O97187   7.999   0.179   6.035  0.1202 -0.2345 -0.1370
  737MOL0     C97188   7.917   0.083   6.099  0.7491  0.2455  0.8755
  737MOL0     C97189   7.829   0.050   5.979 -0.7374 -0.6634  0.7606
  737MOL0     C97190   7.715  -0.043   6.030 -0.3070  0.2743  0.4005
  737MOL0     C97191   7.620  -0.066   5.912  0.1237 -0.4435  0.3206
  737MOL0     C97192   7.508  -0.165   5.956 -0.5538 -0.5126 -0.0553
  737MOL0     C97193   7.421  -0.187   5.830  0.4341 -0.1761 -0.3738
  737MOL0     C97194   7.313  -0.090   5.801 -0.6297 -0.8983 -0.1675
  737MOL0     C97195   7.232  -0.117   5.677 -0.4083 -0.8735  0.2672
  737MOL0    Cl97196   7.111  -0.254   5.700  0.3709  0.3599  0.3805
  737MOL0     C97197   8.229   0.157   6.096 -0.1437  0.2601 -1.1618
  737MOL0     C97198   8.339   0.216   6.150 -0.2565  0.6483 -0.1695
  737MOL0     O97199   8.477   0.191   6.436 -0.2324  0.0796  0.1224
  737MOL0     C97200   8.679   0.488   6.404 -0.6025 -0.0456  0.2582
  737MOL0     C97201   8.791   0.547   6.466 -0.3034  0.2557  1.1851
  737MOL0     N97202   9.506   0.707   6.571  0.3264 -0.2314  0.7976
  737MOL0     N97203   9.581   0.815   6.576 -0.2842  0.2998 -0.9794
  737MOL0     C97204  10.068   1.493   7.124  0.1519 -0.0702 -0.4758
  737MOL0     C97205  10.188   1.433   7.163  0.5432  0.3455  0.1850
  737MOL0     C97206  10.520   1.097   7.230  0.9421 -0.0031  0.8455
  737MOL0     C97207  10.550   0.960   7.276  0.4791  0.0592  0.3216
  737MOL0     C97208  10.675   0.937   7.315 -0.4723 -0.0757  0.4855
  737MOL0     C97209  10.780   1.033   7.299  0.3138  0.3512 -0.8546
  737MOL0     O97210  10.911   1.005   7.325  0.7448  0.8575 -0.5021
  737MOL0     C97211  11.025   1.095   7.310  0.2029 -0.6679 -0.2858
  737MOL0     C97212  11.158   1.031   7.316  0.1838  1.2633  0.3522
  737MOL0     C97213  11.264   1.156   7.308 -0.3209 -0.1147 -0.6174
  737MOL0     C97214  11.392   1.093   7.336 -0.0300  0.1975  0.3603
  737MOL0     C97215  11.505   1.186   7.316 -0.3413  0.1019  0.8418
  737MOL0     C97216  11.579   1.275   7.305 -1.0602 -0.2274 -0.1308
  737MOL0     C97217  10.752   1.155   7.235  0.1680 -0.3427  0.2173
  737MOL0     C97218  10.622   1.191   7.213 -0.1318 -0.4196  0.2792
  737MOL0     H97219  10.154   1.133   7.043 -2.1452  1.0313 -1.1595
  737MOL0     H97220   9.929   1.232   6.964 -0.9915  2.7606 -2.2430
  737MOL0     H97221   9.921   1.519   6.820 -1.6473 -1.4506 -0.6576
  737MOL0     H97222   9.932   1.655   6.935 -1.2428  0.0775 -0.7946
  737MOL0     H97223   9.733   1.657   6.761 -0.9848  1.6075  1.3346
  737MOL0     H97224   9.713   1.701   6.930 -0.8230 -1.2665  1.4236
  737MOL0     H97225   9.524   1.562   6.837  1.1738  0.3539 -0.5430
  737MOL0     H97226   9.610   1.495   6.980 -2.1055  0.0249  0.3388
  737MOL0     H97227   9.683   1.412   6.700 -0.4490  3.3545 -0.6402
  737MOL0     H97228   9.731   1.328   6.842 -2.1578  0.1748  2.6862
  737MOL0     H97229   9.444   1.334   6.760  1.1866 -0.2198 -2.4975
  737MOL0     H97230   9.504   1.262   6.901  2.3830 -1.2370  0.1648
  737MOL0     H97231   9.637   1.157   6.648 -2.3840 -0.0197 -1.1369
  737MOL0     H97232   9.466   1.122   6.693 -0.5072 -0.3699  0.0014
  737MOL0     H97233   9.691   1.121   6.891  0.7502  0.8153 -1.2293
  737MOL0     H97234   9.544   1.037   6.893  1.4463  0.2834  2.4535
  737MOL0     H97235   9.761   0.912   6.840 -1.6244  0.0724  0.8900
  737MOL0     H97236   9.765   0.975   6.683  0.9218  0.7226 -0.0678
  737MOL0     H97237   9.542   0.755   6.901  2.9968  2.7051  0.1366
  737MOL0     H97238   9.370   0.550   6.850 -0.3375  2.7462 -0.5743
  737MOL0     H97239   9.452   0.458   6.716  1.4820  1.0407 -0.5682
  737MOL0     H97240   9.208   0.448   6.683 -1.5945  1.6806  1.7423
  737MOL0     H97241   9.295   0.532   6.554  0.0942  1.8970  0.0239
  737MOL0     H97242   9.151   0.667   6.782  0.1542 -0.4847 -0.2216
  737MOL0     H97243   9.221   0.744   6.645 -0.1176  0.3066  1.5949
  737MOL0     H97244   9.063   0.616   6.485 -0.6330  0.7294  0.1254
  737MOL0     H97245   8.980   0.719   6.603 -1.9768 -1.7616  1.9864
  737MOL0     H97246   8.848   0.320   6.705  1.3301  0.8174 -0.1321
  737MOL0     H97247   8.635   0.227   6.602 -2.1153  2.3593  1.5545
  737MOL0     H97248   8.177   0.456   6.328  0.1013 -0.2453  0.4782
  737MOL0     H97249   8.005   0.374   6.220  0.2143 -0.4371  0.9887
  737MOL0     H97250   7.860   0.135   6.176 -0.5312 -0.4384  0.4192
  737MOL0     H97251   7.976   0.005   6.148  0.6820  0.5950  1.5202
  737MOL0     H97252   7.885   0.008   5.896 -2.4264 -0.6191 -0.4512
  737MOL0     H97253   7.795   0.147   5.941 -0.7776 -0.3104  1.6642
  737MOL0     H97254   7.650  -0.012   6.112  0.1955  0.2448  0.8109
  737MOL0     H97255   7.752  -0.140   6.065 -2.3869 -0.7201  0.0032
  737MOL0     H97256   7.568   0.028   5.889 -2.4562 -1.2446  2.3531
  737MOL0     H97257   7.679  -0.100   5.827 -0.7251 -1.5710  0.1551
  737MOL0     H97258   7.455  -0.117   6.038 -1.1432  2.3712 -1.9793
  737MOL0     H97259   7.554  -0.259   5.988 -1.7252 -0.2030  2.7908
  737MOL0     H97260   7.377  -0.287   5.837 -0.2001  0.0848 -0.5384
  737MOL0     H97261   7.491  -0.188   5.746  2.0787 -1.0853  0.9444
  737MOL0     H97262   7.248  -0.086   5.889  3.2059  0.2749  2.9124
  737MOL0     H97263   7.356   0.009   5.786  0.7978 -1.5910 -0.8155
  737MOL0     H97264   7.306  -0.139   5.599  0.2921 -0.4172  0.7913
  737MOL0     H97265   7.173  -0.027   5.661  1.5062  0.7161  1.6841
  737MOL0     H97266   8.246   0.067   6.038  1.0925 -0.4242  0.1809
  737MOL0     H97267   8.438   0.179   6.129  0.4934  1.8073  1.1195
  737MOL0     H97268   8.654   0.545   6.315  1.6080 -0.5218 -0.7459
  737MOL0     H97269   8.841   0.635   6.427  1.6755 -0.7320  1.4175
  737MOL0     H97270  10.046   1.595   7.152 -1.4095  0.0972 -2.1411
  737MOL0     H97271  10.270   1.481   7.215  1.0448 -2.8726  2.7358
  737MOL0     H97272  10.480   0.878   7.286  2.4100 -1.7499 -0.1465
  737MOL0     H97273  10.707   0.845   7.364 -0.0396  0.6971  1.6899
  737MOL0     H97274  11.007   1.176   7.382  1.7531 -0.5747  0.0156
  737MOL0     H97275  11.020   1.149   7.215 -1.2853  0.9077  0.6150
  737MOL0     H97276  11.175   0.973   7.407  3.1814 -0.3710 -1.1066
  737MOL0     H97277  11.164   0.958   7.235 -3.3327  1.7760 -0.5508
  737MOL0     H97278  11.231   1.232   7.379 -1.5030 -0.0614 -1.1981
  737MOL0     H97279  11.269   1.209   7.212 -0.1743  3.3146  1.1414
  737MOL0     H97280  11.386   1.043   7.433 -3.0723 -3.1534 -1.3199
  737MOL0     H97281  11.417   1.011   7.267  0.1258  1.8004 -1.5806
  737MOL0     H97282  11.645   1.360   7.306  1.4208 -2.0561 -0.2454
  737MOL0     H97283  10.827   1.230   7.215  0.0647 -0.5832 -1.1349
  737MOL0     H97284  10.589   1.287   7.176  0.5059 -1.1926 -2.6182
  738MOL0     O97285   1.987   8.379  10.696  0.7192 -0.1682  0.7350
  738MOL0     C97286   2.035   8.279  10.740 -1.1811 -0.6215 -0.1792
  738MOL0     O97287   2.003   8.152  10.708  1.0490 -0.4307 -0.4943
  738MOL0     C97288   1.874   8.120  10.674  0.0798 -0.5591 -0.0258
  738MOL0     C97289   1.864   7.986  10.647  0.0013 -0.1126 -0.3611
  738MOL0     C97290   1.748   7.938  10.583  0.1246 -0.5631 -0.4782
  738MOL0     C97291   1.632   8.018  10.569 -0.1232  0.1161  0.7542
  738MOL0     O97292   1.529   7.953  10.515 -0.4838  0.0731  0.0713
  738MOL0     C97293   1.443   8.031  10.426  0.2766  0.6562  0.0603
  738MOL0     C97294   1.380   7.937  10.330 -0.1557 -0.4131 -0.3170
  738MOL0     C97295   1.474   7.876  10.224 -0.1457 -1.4092 -0.1642
  738MOL0     C97296   1.544   7.978  10.135 -0.8071 -0.3893  0.5839
  738MOL0     C97297   1.630   7.911  10.031 -0.0296 -0.0417  0.0558
  738MOL0     C97298   1.687   8.014   9.929  0.4450  0.5370 -1.2288
  738MOL0     C97299   1.751   7.945   9.811 -0.5713 -0.0016  0.6648
  738MOL0     C97300   1.811   8.041   9.703  0.5892  0.0238 -0.4415
  738MOL0     N97301   1.870   8.162   9.753  0.3623 -0.3686 -0.3846
  738MOL0     C97302   1.817   8.279   9.811 -0.0598 -0.0795 -0.3885
  738MOL0     C97303   1.916   8.365   9.828 -0.2764 -0.5279  0.8338
  738MOL0     C97304   1.900   8.502   9.896 -0.3197  0.1972  0.5792
  738MOL0     C97305   1.792   8.588   9.827  0.0658 -0.3559  0.8552
  738MOL0     C97306   1.778   8.734   9.868  0.3003  0.0095  0.4685
  738MOL0     C97307   1.743   8.762  10.012 -0.4471 -0.0161 -0.1404
  738MOL0     O97308   1.611   8.714  10.036 -0.1640 -0.2288  0.1016
  738MOL0     C97309   1.532   8.778  10.126  0.0649 -0.4741  0.3799
  738MOL0     C97310   1.557   8.899  10.192 -0.2369 -0.2348  0.9334
  738MOL0     C97311   1.461   8.943  10.283  0.5246 -0.2530 -0.4309
  738MOL0     C97312   1.342   8.869  10.304 -0.0936 -0.0006 -0.7754
  738MOL0     C97313   1.239   8.928  10.387  0.5551  1.3903  0.1188
  738MOL0     O97314   1.107   8.896  10.353 -0.5833  0.0536  0.1203
  738MOL0     C97315   1.013   8.891  10.455 -0.0328  0.4377 -0.2629
  738MOL0     C97316   1.041   8.844  10.592 -0.6152  0.0443  0.8153
  738MOL0     C97317   0.938   8.840  10.681 -0.2523 -0.9296 -0.9696
  738MOL0     C97318   0.808   8.886  10.648 -0.9781 -0.0416  0.0841
  738MOL0     O97319   0.705   8.881  10.744  0.4425  0.2316  0.6595
  738MOL0     C97320   0.584   8.808  10.699  0.4086  1.0326 -0.8336
  738MOL0     C97321   0.472   8.843  10.800 -0.0225  0.2112  0.1433
  738MOL0     C97322   0.348   8.756  10.796 -0.1169 -0.5529  0.3401
  738MOL0     C97323   0.227   8.801  10.880 -0.5647 -0.3065 -0.1785
  738MOL0     C97324   0.104   8.717  10.845 -0.1049  0.0448  0.4654
  738MOL0     C97325  -0.005   8.727  10.954  0.2226 -0.6519  0.1061
  738MOL0     C97326  -0.111   8.620  10.939 -0.2306  0.3394  0.2537
  738MOL0     C97327  -0.231   8.649  11.035 -0.3817 -0.0569 -0.1706
  738MOL0    Cl97328  -0.395   8.593  10.999  0.4770  0.0210 -0.1351
  738MOL0     C97329   0.787   8.936  10.518 -0.5406  1.0143 -0.0279
  738MOL0     C97330   0.891   8.937  10.422 -0.4500 -0.4700 -1.1331
  738MOL0     O97331   1.270   8.993  10.488  0.2229 -0.4913 -0.1195
  738MOL0     C97332   1.325   8.745  10.237  0.2402 -0.3471 -0.1940
  738MOL0     C97333   1.418   8.705  10.150  0.2310  0.6755 -0.1954
  738MOL0     N97334   2.032   8.319   9.774 -0.0820 -0.4190 -0.1737
  738MOL0     N97335   2.003   8.198   9.737  0.2139 -0.2538 -0.4905
  738MOL0     C97336   1.644   8.153  10.604  0.5460 -0.3987 -0.1842
  738MOL0     C97337   1.761   8.206  10.659 -0.1384  0.1865 -0.5645
  738MOL0     C97338   2.156   8.288  10.824  0.8779  0.3599 -0.0121
  738MOL0     C97339   2.175   8.184  10.918  0.0083 -0.0770  0.2551
  738MOL0     C97340   2.289   8.184  10.999 -0.3909  0.3894  0.4154
  738MOL0     C97341   2.388   8.287  10.990 -0.5897 -0.8476 -0.4918
  738MOL0     O97342   2.506   8.300  11.056 -0.0483 -0.6154 -0.4250
  738MOL0     C97343   2.568   8.179  11.117 -0.1329 -0.0935  1.1403
  738MOL0     C97344   2.670   8.205  11.223 -0.7461 -0.0931  0.8136
  738MOL0     C97345   2.733   8.071  11.272  0.0353 -0.6095  0.1023
  738MOL0     C97346   2.859   8.089  11.346  0.2369  0.1278  0.0604
  738MOL0     C97347   2.915   7.952  11.368 -0.6212  0.4708 -0.3965
  738MOL0     C97348   2.973   7.851  11.384  0.8284 -0.4553 -0.3651
  738MOL0     C97349   2.356   8.392  10.904  0.9383 -0.3837 -0.1297
  738MOL0     C97350   2.241   8.394  10.820  0.2591  0.1943 -0.1833
  738MOL0     H97351   1.953   7.924  10.652 -0.4974 -1.3792 -4.1408
  738MOL0     H97352   1.761   7.834  10.558  3.5973 -0.0655 -1.2555
  738MOL0     H97353   1.504   8.113  10.387  1.3873  0.4662  1.3007
  738MOL0     H97354   1.358   8.074  10.479 -0.5202 -0.7847  0.0033
  738MOL0     H97355   1.300   7.984  10.271 -0.6638 -0.3433  0.4125
  738MOL0     H97356   1.333   7.858  10.389  0.0327 -2.4841 -2.7972
  738MOL0     H97357   1.414   7.808  10.162 -0.2321 -0.1940 -1.4567
  738MOL0     H97358   1.554   7.821  10.275  0.4241 -0.2727  0.1923
  738MOL0     H97359   1.459   8.034  10.093  0.6454  2.8903  1.6536
  738MOL0     H97360   1.607   8.047  10.192 -4.3584  0.7654  3.5489
  738MOL0     H97361   1.575   7.839   9.970  1.2845 -1.2505  0.2387
  738MOL0     H97362   1.714   7.865  10.084 -0.2124 -0.3909  0.0439
  738MOL0     H97363   1.757   8.083   9.978  1.7236  0.7628 -3.2604
  738MOL0     H97364   1.604   8.078   9.896 -0.9414  0.6380  2.1120
  738MOL0     H97365   1.834   7.888   9.854 -0.7313 -1.6629 -1.0919
  738MOL0     H97366   1.689   7.868   9.763  0.6816  0.2915 -1.5532
  738MOL0     H97367   1.726   8.079   9.644  1.1286  1.8048 -0.1274
  738MOL0     H97368   1.883   7.981   9.647  1.2010  1.3175 -1.1013
  738MOL0     H97369   1.716   8.300   9.845 -0.1527 -1.2298  0.1203
  738MOL0     H97370   1.995   8.556   9.889 -0.8188  1.0525  0.3653
  738MOL0     H97371   1.873   8.479  10.000  3.0401 -2.2557  1.0951
  738MOL0     H97372   1.691   8.545   9.826 -0.1583  0.1484  1.3037
  738MOL0     H97373   1.823   8.605   9.723 -0.7342  2.8657  1.0112
  738MOL0     H97374   1.874   8.784   9.848 -0.2737  0.3214 -1.7716
  738MOL0     H97375   1.707   8.781   9.799 -0.6647 -3.9509 -1.5159
  738MOL0     H97376   1.760   8.870  10.024 -0.9307  0.1722 -1.1028
  738MOL0     H97377   1.812   8.708  10.077  0.6722  1.9216  0.3659
  738MOL0     H97378   1.652   8.952  10.199 -0.5842  0.6521 -0.7239
  738MOL0     H97379   1.467   9.029  10.350  0.4163 -0.8358  0.3414
  738MOL0     H97380   1.146   8.833  10.618  0.0516 -0.0829 -1.6542
  738MOL0     H97381   0.967   8.819  10.783  1.9495 -2.8393 -1.9030
  738MOL0     H97382   0.611   8.703  10.716 -0.3574  0.6136 -2.1266
  738MOL0     H97383   0.555   8.821  10.595  1.1795  2.6039 -0.8845
  738MOL0     H97384   0.444   8.947  10.784 -0.6981 -0.5105 -5.5668
  738MOL0     H97385   0.524   8.830  10.896  1.6153  0.8442 -0.6142
  738MOL0     H97386   0.383   8.657  10.829  0.3488 -0.4203  0.2492
  738MOL0     H97387   0.323   8.749  10.690  0.8459 -0.5402  0.1094
  738MOL0     H97388   0.261   8.770  10.980 -1.2635 -3.2649 -0.7670
  738MOL0     H97389   0.215   8.909  10.872 -1.0134 -0.4812 -2.5679
  738MOL0     H97390   0.143   8.617  10.828 -0.3009  0.1143 -0.4039
  738MOL0     H97391   0.061   8.743  10.748 -1.5469 -3.5130  0.0221
  738MOL0     H97392  -0.055   8.824  10.947  2.4023  0.4314 -2.3292
  738MOL0     H97393   0.044   8.715  11.051  1.1642  1.0104 -0.1435
  738MOL0     H97394  -0.148   8.620  10.836  2.4127  2.2320 -0.8236
  738MOL0     H97395  -0.077   8.518  10.959 -3.3514 -1.0242 -0.6996
  738MOL0     H97396  -0.235   8.756  11.056 -2.1514  0.4673 -2.6424
  738MOL0     H97397  -0.200   8.589  11.121  0.6425 -0.9017 -1.0855
  738MOL0     H97398   0.689   8.968  10.484 -2.2255 -2.2848  1.2706
  738MOL0     H97399   0.880   8.969  10.318  2.4553 -1.4070 -1.8113
  738MOL0     H97400   1.239   8.683  10.262 -0.1522  0.9539  1.8910
  738MOL0     H97401   1.402   8.608  10.104  1.7587  0.4472 -0.2896
  738MOL0     H97402   1.556   8.217  10.601  1.3069  0.6322 -1.0064
  738MOL0     H97403   1.763   8.313  10.677  0.4412  0.0819  0.0513
  738MOL0     H97404   2.106   8.101  10.923  0.2504 -0.2327  1.5053
  738MOL0     H97405   2.301   8.100  11.067  1.0603 -0.6708 -1.0476
  738MOL0     H97406   2.614   8.133  11.030  0.1259 -1.3177  1.9013
  738MOL0     H97407   2.496   8.104  11.153 -0.0550  0.1252  1.7753
  738MOL0     H97408   2.751   8.273  11.192  1.0129 -0.2029  4.5416
  738MOL0     H97409   2.615   8.256  11.302 -0.6586  3.6001 -1.2522
  738MOL0     H97410   2.745   8.005  11.186 -1.7287 -1.8091  0.7332
  738MOL0     H97411   2.662   8.031  11.344  0.8279 -0.6632  0.8661
  738MOL0     H97412   2.934   8.147  11.291  1.2304  1.0573  2.2796
  738MOL0     H97413   2.831   8.138  11.440 -1.5159  1.3664 -1.0407
  738MOL0     H97414   3.029   7.762  11.406 -0.0124 -0.6594  1.1604
  738MOL0     H97415   2.419   8.479  10.898 -1.3043  1.4541  1.3925
  738MOL0     H97416   2.210   8.474  10.753 -0.2875  2.3424  2.4443
  739MOL0     O97417   6.273   0.685   3.141  0.9215  0.5438  0.5690
  739MOL0     C97418   6.352   0.776   3.169 -0.3138  0.4542 -0.7630
  739MOL0     O97419   6.312   0.911   3.168 -0.7705  0.3652 -0.0244
  739MOL0     C97420   6.194   0.948   3.112 -0.2908  0.5642  0.2908
  739MOL0     C97421   6.193   1.005   2.986 -1.0749  0.0791  0.0503
  739MOL0     C97422   6.061   1.034   2.925 -0.3466 -0.0107  0.4013
  739MOL0     C97423   5.944   1.010   2.998  0.6651  1.3850 -1.1748
  739MOL0     O97424   5.823   1.040   2.938  0.0592  0.0980 -0.5018
  739MOL0     C97425   5.736   1.138   3.009  0.2170  0.2708  0.0772
  739MOL0     C97426   5.589   1.119   2.960 -0.1783  0.6754 -0.3333
  739MOL0     C97427   5.485   1.222   3.008 -0.2160 -0.6813  0.2816
  739MOL0     C97428   5.349   1.204   2.938 -0.3802  0.4297 -0.6681
  739MOL0     C97429   5.259   1.325   2.921  0.4960 -0.2624  0.5729
  739MOL0     C97430   5.148   1.274   2.826 -0.2864 -0.5294  0.1020
  739MOL0     C97431   5.031   1.364   2.816 -0.2276 -0.9496  0.0138
  739MOL0     C97432   4.942   1.346   2.939  0.0290  0.1529  0.8004
  739MOL0     N97433   4.805   1.377   2.903 -0.2526  0.1357 -0.4168
  739MOL0     C97434   4.754   1.506   2.874  0.4698  0.4676 -0.0860
  739MOL0     C97435   4.622   1.475   2.857 -0.4615 -0.6534  0.9189
  739MOL0     C97436   4.510   1.580   2.839  0.7391  0.0962 -0.4895
  739MOL0     C97437   4.449   1.622   2.977  0.6431 -0.0123 -0.7223
  739MOL0     C97438   4.374   1.503   3.052 -0.2026  0.5509 -0.3873
  739MOL0     C97439   4.331   1.546   3.191 -0.0769 -0.6538 -0.0597
  739MOL0     O97440   4.224   1.636   3.192 -0.3700 -0.1603  0.2459
  739MOL0     C97441   4.108   1.601   3.138  0.4302 -0.7438  0.1516
  739MOL0     C97442   4.048   1.480   3.163  0.1400  0.2259  0.0005
  739MOL0     C97443   3.920   1.461   3.102  0.8009 -0.4215  0.3751
  739MOL0     C97444   3.859   1.558   3.023 -0.1410  0.3079  0.5568
  739MOL0     C97445   3.721   1.543   2.986 -0.7515  0.8010  0.8844
  739MOL0     O97446   3.646   1.449   3.048  0.6176  0.2205 -0.8231
  739MOL0     C97447   3.512   1.450   3.014 -0.0166  0.6422  0.5118
  739MOL0     C97448   3.434   1.533   3.094  0.0655 -0.9894 -0.1203
  739MOL0     C97449   3.298   1.537   3.072  0.0897  0.2393  0.3625
  739MOL0     C97450   3.250   1.468   2.959  1.4314 -0.7850  0.6157
  739MOL0     O97451   3.113   1.491   2.945 -0.0718 -0.6444 -0.2747
  739MOL0     C97452   3.026   1.404   2.873 -0.6693 -0.2008  0.2401
  739MOL0     C97453   3.011   1.260   2.925  0.0248  0.3786 -0.7418
  739MOL0     C97454   2.863   1.209   2.938 -0.3005  0.7413 -0.3553
  739MOL0     C97455   2.844   1.062   2.964  0.1055  0.6595  0.1894
  739MOL0     C97456   2.702   1.033   3.006 -0.1877  0.7266  0.6195
  739MOL0     C97457   2.580   1.037   2.905  0.5131  0.1133 -0.6379
  739MOL0     C97458   2.461   0.964   2.965  0.0159 -0.1671 -0.1536
  739MOL0     C97459   2.335   0.979   2.879 -0.2756  0.3321  0.8531
  739MOL0    Cl97460   2.208   0.915   2.991  0.3549  0.1123  0.4629
  739MOL0     C97461   3.327   1.379   2.879  0.5215  0.0861  0.6636
  739MOL0     C97462   3.462   1.374   2.905  0.1032  0.4917 -0.4555
  739MOL0     O97463   3.684   1.621   2.901 -0.5626 -0.5305  0.2416
  739MOL0     C97464   3.925   1.680   2.992  0.1203 -0.6225 -0.4777
  739MOL0     C97465   4.043   1.700   3.059 -0.2818 -0.2079  0.0433
  739MOL0     N97466   4.599   1.339   2.869  0.3442 -0.5849 -0.1138
  739MOL0     N97467   4.710   1.287   2.907  0.3720 -0.4083 -0.5032
  739MOL0     C97468   5.949   0.952   3.129  0.0072  0.2716 -0.8511
  739MOL0     C97469   6.076   0.919   3.183 -0.8885  0.3001  0.0340
  739MOL0     C97470   6.467   0.737   3.248 -0.2874 -0.1082 -0.1348
  739MOL0     C97471   6.529   0.615   3.224  0.1520 -0.2729  0.9490
  739MOL0     C97472   6.663   0.595   3.260  0.5415  0.4325  0.0986
  739MOL0     C97473   6.731   0.694   3.326  0.4364 -0.0992 -1.1412
  739MOL0     O97474   6.869   0.681   3.357  0.4800 -0.0145  0.2420
  739MOL0     C97475   6.950   0.797   3.376  0.2724  0.0838 -0.4683
  739MOL0     C97476   6.957   0.896   3.266  0.5336 -0.1468  0.0398
  739MOL0     C97477   7.013   0.833   3.143 -0.6837 -0.1737  1.1466
  739MOL0     C97478   7.117   0.918   3.075 -0.9896 -0.3273 -0.0609
  739MOL0     C97479   7.067   1.059   3.057 -0.4029  0.3082 -0.6127
  739MOL0     C97480   7.012   1.167   3.032  0.2334  0.1073 -0.0549
  739MOL0     C97481   6.663   0.803   3.378  0.1399 -0.2387 -0.2886
  739MOL0     C97482   6.521   0.830   3.338 -0.7947  0.5268  0.0717
  739MOL0     H97483   6.289   1.005   2.936 -1.4829  1.4493 -0.7821
  739MOL0     H97484   6.044   1.070   2.824 -3.2736 -1.6197  0.2013
  739MOL0     H97485   5.773   1.239   2.989  1.6363  0.7687  4.2782
  739MOL0     H97486   5.749   1.121   3.116  4.8251 -1.3896 -0.4921
  739MOL0     H97487   5.562   1.019   2.996 -2.2150  0.7094 -1.6495
  739MOL0     H97488   5.595   1.108   2.852 -1.9576  1.8956 -0.5988
  739MOL0     H97489   5.521   1.319   2.973 -0.7537 -0.7608 -0.5153
  739MOL0     H97490   5.476   1.235   3.116 -1.4972  2.5334 -0.1290
  739MOL0     H97491   5.374   1.155   2.843  3.9029 -1.3246  1.1064
  739MOL0     H97492   5.292   1.130   2.995  3.1576  0.8905  4.0662
  739MOL0     H97493   5.314   1.412   2.885 -1.9729  0.7266 -1.1646
  739MOL0     H97494   5.214   1.359   3.015  2.3526  1.8900  0.7446
  739MOL0     H97495   5.103   1.176   2.847 -3.5644  1.0766  1.3252
  739MOL0     H97496   5.198   1.256   2.730 -0.3377 -0.9777  0.1545
  739MOL0     H97497   5.050   1.471   2.801 -1.7595 -0.7514 -0.7657
  739MOL0     H97498   4.973   1.338   2.727 -0.8368 -2.4745  0.8223
  739MOL0     H97499   4.988   1.403   3.020 -0.3800  1.8937 -0.1396
  739MOL0     H97500   4.952   1.240   2.963 -1.9867 -0.3882 -0.4550
  739MOL0     H97501   4.796   1.606   2.876  1.7187 -0.0181  1.6294
  739MOL0     H97502   4.426   1.537   2.784 -0.4867 -2.0186  2.7351
  739MOL0     H97503   4.547   1.668   2.785 -2.2172  0.1255 -2.6875
  739MOL0     H97504   4.382   1.705   2.955  1.6814  0.9977 -0.1604
  739MOL0     H97505   4.527   1.654   3.047  0.4805 -0.1082 -0.4936
  739MOL0     H97506   4.291   1.469   2.990  0.3775 -2.2168  0.2428
  739MOL0     H97507   4.441   1.417   3.061 -3.3567 -2.4230 -2.6397
  739MOL0     H97508   4.417   1.583   3.246 -0.5435 -2.1339  1.7703
  739MOL0     H97509   4.307   1.454   3.245  1.6247 -2.6388 -2.4538
  739MOL0     H97510   4.094   1.407   3.228  0.0328 -1.7261 -2.0175
  739MOL0     H97511   3.870   1.365   3.110  0.3140 -0.3030 -1.0388
  739MOL0     H97512   3.472   1.597   3.173  0.8495  1.7656 -2.5665
  739MOL0     H97513   3.223   1.595   3.124 -2.3470 -1.5900 -0.8723
  739MOL0     H97514   3.052   1.395   2.767  0.9440  2.5344  0.2971
  739MOL0     H97515   2.925   1.447   2.864 -1.4404 -2.1266 -1.2500
  739MOL0     H97516   3.055   1.272   3.025 -1.3964  1.2343 -0.1840
  739MOL0     H97517   3.066   1.188   2.865 -0.6171  0.0132 -0.9040
  739MOL0     H97518   2.822   1.230   2.839  1.6879  2.0467 -0.9686
  739MOL0     H97519   2.803   1.263   3.012  0.7262  1.9360 -0.3592
  739MOL0     H97520   2.864   1.006   2.872 -3.6380 -1.4234  0.4084
  739MOL0     H97521   2.915   1.029   3.041 -1.2556  0.2570  1.3120
  739MOL0     H97522   2.659   1.100   3.081 -4.5698  1.2847 -2.0261
  739MOL0     H97523   2.695   0.932   3.049 -0.1621  0.5162  0.1374
  739MOL0     H97524   2.611   0.990   2.811  3.0390  2.3265 -1.0447
  739MOL0     H97525   2.547   1.140   2.888  1.4939  0.8597  1.5883
  739MOL0     H97526   2.481   0.857   2.967 -0.3694 -0.2334  0.3479
  739MOL0     H97527   2.451   0.993   3.070  0.6106  3.6152 -0.9767
  739MOL0     H97528   2.351   0.934   2.781 -0.1063  0.7605  0.6840
  739MOL0     H97529   2.305   1.083   2.868  0.1700  0.6695  2.5349
  739MOL0     H97530   3.283   1.331   2.792  1.3902  0.9554 -0.2807
  739MOL0     H97531   3.532   1.322   2.842 -3.0058 -2.7848 -1.5439
  739MOL0     H97532   3.903   1.754   2.916 -0.5695 -0.9535 -0.6040
  739MOL0     H97533   4.091   1.794   3.035 -3.9418  1.7653 -0.1945
  739MOL0     H97534   5.863   0.953   3.195  1.5358 -0.4985  1.2404
  739MOL0     H97535   6.087   0.897   3.289  1.3633 -0.7360 -0.3370
  739MOL0     H97536   6.479   0.545   3.159 -2.4663  1.2305  1.2116
  739MOL0     H97537   6.717   0.505   3.234  0.4744  0.9046 -1.8075
  739MOL0     H97538   7.050   0.760   3.398  0.2132 -1.6468 -2.7462
  739MOL0     H97539   6.917   0.860   3.459  2.1668  1.5189 -0.7384
  739MOL0     H97540   6.853   0.926   3.249  0.8957  1.7419  0.7920
  739MOL0     H97541   7.007   0.987   3.300 -3.5459  1.7313  1.8211
  739MOL0     H97542   6.928   0.832   3.074 -1.4306  0.8439  2.0222
  739MOL0     H97543   7.075   0.744   3.157  0.8836  0.5669 -0.6881
  739MOL0     H97544   7.199   0.919   3.147 -0.0169 -0.2146 -1.1386
  739MOL0     H97545   7.165   0.885   2.983  0.1449  0.8254  0.0933
  739MOL0     H97546   6.950   1.253   3.022  0.4596  0.3728  0.7567
  739MOL0     H97547   6.715   0.854   3.459 -0.2404  0.2078 -0.3242
  739MOL0     H97548   6.469   0.918   3.375 -1.1871  1.7820 -3.1688
  740MOL0     O97549   1.001   9.052   6.055  0.7521 -0.0807 -0.8204
  740MOL0     C97550   1.051   9.042   6.165 -0.3656 -0.3689  0.1799
  740MOL0     O97551   0.987   9.080   6.282  0.1331  0.3439 -0.5143
  740MOL0     C97552   0.854   9.112   6.276 -0.5912  0.0006  0.0799
  740MOL0     C97553   0.771   9.030   6.351 -0.6468 -0.4850  0.0764
  740MOL0     C97554   0.635   9.046   6.352 -0.9360 -0.7094  0.9516
  740MOL0     C97555   0.585   9.160   6.289  0.2301 -0.0980 -0.0619
  740MOL0     O97556   0.449   9.181   6.311  0.0503 -0.1699  0.1922
  740MOL0     C97557   0.392   9.288   6.239  1.1045 -1.0580  0.1219
  740MOL0     C97558   0.239   9.301   6.277 -0.2006 -0.1007 -0.9925
  740MOL0     C97559   0.165   9.395   6.169  0.0736 -0.4396  0.1868
  740MOL0     C97560   0.025   9.423   6.225 -0.0070 -0.2692 -0.1402
  740MOL0     C97561  -0.077   9.479   6.127  0.4469  0.0812 -1.1709
  740MOL0     C97562  -0.215   9.516   6.196  0.7519  0.7715  0.1617
  740MOL0     C97563  -0.322   9.572   6.097  0.2662 -0.0200  1.4562
  740MOL0     C97564  -0.453   9.583   6.176  0.1736 -0.0674 -0.6466
  740MOL0     N97565  -0.567   9.604   6.092  0.7104 -0.4852  0.6171
  740MOL0     C97566  -0.600   9.513   6.002  0.5416 -0.0420 -0.0082
  740MOL0     C97567  -0.704   9.575   5.932  0.0578  0.4617 -0.2650
  740MOL0     C97568  -0.786   9.509   5.830  0.2123 -0.1929  0.2459
  740MOL0     C97569  -0.927   9.490   5.879 -0.5551  0.5482 -0.3172
  740MOL0     C97570  -1.024   9.422   5.789 -0.2050  0.1146  0.5617
  740MOL0     C97571  -1.171   9.460   5.820  0.1204  0.4438 -0.3108
  740MOL0     O97572  -1.251   9.409   5.714  0.6330  0.4321 -0.1004
  740MOL0     C97573  -1.385   9.440   5.715  0.4734  0.0846 -1.5955
  740MOL0     C97574  -1.436   9.569   5.751  0.5132 -0.1107 -0.1048
  740MOL0     C97575  -1.575   9.599   5.746  0.3713  0.4664 -0.1711
  740MOL0     C97576  -1.655   9.495   5.695 -0.3444  0.8480  1.6701
  740MOL0     C97577  -1.798   9.515   5.669  0.3065 -0.7425 -0.5904
  740MOL0     O97578  -1.872   9.415   5.620 -0.2624  0.0697 -0.0781
  740MOL0     C97579  -2.008   9.408   5.623 -0.1210  0.1170  0.0975
  740MOL0     C97580  -2.081   9.333   5.524 -0.5329 -0.6243 -0.8178
  740MOL0     C97581  -2.215   9.340   5.522  1.0528 -0.5705  0.2077
  740MOL0     C97582  -2.292   9.409   5.616  0.3459  0.0924  0.7621
  740MOL0     O97583  -2.427   9.409   5.617  0.5399  0.6432 -0.1168
  740MOL0     C97584  -2.495   9.394   5.496 -0.0828 -0.6125  0.4303
  740MOL0     C97585  -2.640   9.376   5.524 -0.2241 -0.7137 -0.7167
  740MOL0     C97586  -2.738   9.360   5.404 -0.1818  0.6500 -0.2857
  740MOL0     C97587  -2.883   9.381   5.453 -0.0522  0.3587  0.2130
  740MOL0     C97588  -2.982   9.355   5.337 -1.2537 -0.6558 -0.6247
  740MOL0     C97589  -3.133   9.362   5.381  0.7864 -0.1095 -0.3482
  740MOL0     C97590  -3.172   9.494   5.450  0.9291  0.3102 -0.1244
  740MOL0     C97591  -3.143   9.623   5.377 -0.1139 -0.0941  0.1855
  740MOL0    Cl97592  -3.204   9.767   5.467  0.6146  0.0832 -0.3818
  740MOL0     C97593  -2.221   9.470   5.717  0.1674 -0.0054 -0.7904
  740MOL0     C97594  -2.082   9.470   5.721  0.6552  0.1920  0.0459
  740MOL0     O97595  -1.837   9.631   5.682 -0.3463  0.4883  0.3540
  740MOL0     C97596  -1.611   9.370   5.658 -0.7432  0.1924 -0.0792
  740MOL0     C97597  -1.472   9.335   5.675 -0.4455  0.7573  0.1078
  740MOL0     N97598  -0.719   9.703   5.973  0.3377 -0.2188 -0.4355
  740MOL0     N97599  -0.635   9.724   6.070  0.3413  0.3898 -1.1230
  740MOL0     C97600   0.664   9.247   6.213 -0.4370  0.3764 -0.4803
  740MOL0     C97601   0.800   9.223   6.210 -0.0930  0.5166 -0.0661
  740MOL0     C97602   1.193   9.001   6.181 -0.7442  0.2322  0.6708
  740MOL0     C97603   1.291   8.986   6.071 -0.5785 -0.1600 -0.1081
  740MOL0     C97604   1.422   8.949   6.103  0.0533  0.2146 -0.5969
  740MOL0     C97605   1.462   8.925   6.234  0.4205  0.0124 -0.4640
  740MOL0     O97606   1.587   8.878   6.260  0.2517 -0.1509  0.0742
  740MOL0     C97607   1.646   8.783   6.169 -0.6156  0.1261 -0.1985
  740MOL0     C97608   1.761   8.856   6.100  0.2193 -0.1083  0.6849
  740MOL0     C97609   1.835   8.754   6.003 -0.2151 -0.8189 -0.7701
  740MOL0     C97610   1.854   8.607   6.033  0.6786  0.5224  0.0262
  740MOL0     C97611   1.936   8.581   6.145 -0.9733  0.0971 -0.9755
  740MOL0     C97612   2.013   8.544   6.233 -0.5832 -0.3595  0.5074
  740MOL0     C97613   1.363   8.934   6.335 -0.6931  0.3820 -0.0981
  740MOL0     C97614   1.236   8.972   6.313 -0.0548  0.3700 -0.6062
  740MOL0     H97615   0.804   8.945   6.410 -0.6014  0.6106  1.6922
  740MOL0     H97616   0.566   8.982   6.407 -0.2609 -2.8860 -0.5850
  740MOL0     H97617   0.387   9.284   6.130 -0.4265  2.3004 -0.0698
  740MOL0     H97618   0.433   9.387   6.262  0.9198 -0.5531 -1.5687
  740MOL0     H97619   0.228   9.341   6.378 -0.1634  0.0059 -1.0308
  740MOL0     H97620   0.194   9.202   6.268 -2.3092  0.7653 -0.5305
  740MOL0     H97621   0.162   9.352   6.069  0.7933  1.1221 -0.5481
  740MOL0     H97622   0.220   9.490   6.164  1.1708 -1.0362  0.6107
  740MOL0     H97623  -0.022   9.328   6.254 -1.1944  1.0030  2.4991
  740MOL0     H97624   0.036   9.485   6.314  0.4248 -1.5783  0.7514
  740MOL0     H97625  -0.096   9.405   6.048  0.1462 -0.2397 -0.8005
  740MOL0     H97626  -0.031   9.561   6.071  2.4171  0.4359  0.8729
  740MOL0     H97627  -0.209   9.590   6.276 -2.8550  0.3277  1.0378
  740MOL0     H97628  -0.243   9.421   6.243 -4.2598  1.6196 -0.5206
  740MOL0     H97629  -0.287   9.672   6.073 -3.6345  0.7774 -2.1512
  740MOL0     H97630  -0.333   9.511   6.006 -0.8193  2.2276 -0.0058
  740MOL0     H97631  -0.437   9.664   6.248 -0.7955 -3.3535  3.6122
  740MOL0     H97632  -0.469   9.493   6.235 -1.6565  0.4593 -0.3047
  740MOL0     H97633  -0.559   9.413   6.002 -1.4215 -0.9015 -0.0902
  740MOL0     H97634  -0.747   9.417   5.786 -1.0045  0.0318 -1.4328
  740MOL0     H97635  -0.804   9.573   5.743 -1.0703 -1.4515 -0.4695
  740MOL0     H97636  -0.966   9.588   5.908  0.6266  0.8910  0.1702
  740MOL0     H97637  -0.916   9.422   5.964 -3.2852 -1.5367 -1.4853
  740MOL0     H97638  -1.002   9.456   5.687 -0.3970  0.1832  0.5429
  740MOL0     H97639  -1.007   9.313   5.789  0.6327  0.1062 -3.1479
  740MOL0     H97640  -1.182   9.568   5.833 -0.8079  0.3293 -0.1296
  740MOL0     H97641  -1.209   9.413   5.910  0.3990  1.8708  0.5784
  740MOL0     H97642  -1.370   9.651   5.776  1.2149 -0.8663  0.5611
  740MOL0     H97643  -1.608   9.697   5.778  0.5823  0.0603  1.4017
  740MOL0     H97644  -2.037   9.287   5.436  0.3030  0.2065 -0.8495
  740MOL0     H97645  -2.270   9.293   5.441  0.5538 -0.3044  0.3902
  740MOL0     H97646  -2.464   9.303   5.443  1.8968 -0.5839  1.4279
  740MOL0     H97647  -2.465   9.478   5.433  1.4503  1.1894  3.3252
  740MOL0     H97648  -2.665   9.459   5.590 -1.1557 -1.0457 -0.6298
  740MOL0     H97649  -2.655   9.282   5.579 -0.6199 -1.0445 -1.3710
  740MOL0     H97650  -2.727   9.258   5.367  1.0953 -0.3317  2.5043
  740MOL0     H97651  -2.713   9.419   5.316  0.7972  0.1235 -0.3787
  740MOL0     H97652  -2.885   9.300   5.526 -1.0965 -0.2891 -0.5115
  740MOL0     H97653  -2.894   9.484   5.488  2.1770  0.4828  0.7332
  740MOL0     H97654  -2.954   9.258   5.294  0.6261 -1.7126  2.6013
  740MOL0     H97655  -2.960   9.429   5.260 -1.4861  0.0084 -0.0610
  740MOL0     H97656  -3.149   9.281   5.453 -1.3964 -0.1215 -0.7717
  740MOL0     H97657  -3.198   9.342   5.296  1.2509  2.2754 -1.3393
  740MOL0     H97658  -3.278   9.497   5.480  1.1565 -1.0635  0.9010
  740MOL0     H97659  -3.122   9.505   5.546  0.7909  0.4850 -0.0710
  740MOL0     H97660  -3.198   9.603   5.285  2.4759 -2.5961 -0.9965
  740MOL0     H97661  -3.035   9.621   5.356 -0.2970  0.1705 -0.8482
  740MOL0     H97662  -2.281   9.519   5.793  1.1131  0.0263 -0.0543
  740MOL0     H97663  -2.041   9.526   5.804 -1.6254  2.1125 -0.0181
  740MOL0     H97664  -1.679   9.295   5.618  0.0841 -1.0856  0.8554
  740MOL0     H97665  -1.437   9.239   5.637  0.8283  1.4667 -0.5570
  740MOL0     H97666   0.624   9.338   6.168 -1.3594 -0.6653 -1.8137
  740MOL0     H97667   0.874   9.271   6.147  0.5493  0.6965  0.8124
  740MOL0     H97668   1.253   9.005   5.972 -2.3434  0.9684  0.7420
  740MOL0     H97669   1.501   8.928   6.032 -0.2718 -2.9124 -0.1448
  740MOL0     H97670   1.569   8.737   6.106  0.5269 -0.0213 -1.5424
  740MOL0     H97671   1.684   8.699   6.229 -0.5855 -0.1052 -0.5369
  740MOL0     H97672   1.719   8.932   6.033  0.1279 -1.2462 -0.5989
  740MOL0     H97673   1.831   8.900   6.171 -1.3072  3.0684  0.3854
  740MOL0     H97674   1.933   8.793   5.974  0.8178 -3.4821 -1.1045
  740MOL0     H97675   1.772   8.752   5.913 -0.2630 -1.0204 -0.7316
  740MOL0     H97676   1.764   8.544   6.037  1.6003 -0.8306  0.0260
  740MOL0     H97677   1.899   8.571   5.940 -3.0059 -0.1439 -1.6807
  740MOL0     H97678   2.070   8.525   6.322 -0.5776  1.8315  1.0305
  740MOL0     H97679   1.392   8.895   6.432 -0.1768 -0.9020 -0.7428
  740MOL0     H97680   1.163   8.978   6.393 -0.6344 -0.3023 -1.0690
  741MOL0     O97681   2.200   1.849   9.199  0.2335  0.4448 -0.7969
  741MOL0     C97682   2.253   1.960   9.194 -0.4609 -0.1839 -0.6182
  741MOL0     O97683   2.198   2.084   9.240 -0.1301  0.5082 -0.3706
  741MOL0     C97684   2.073   2.074   9.291 -0.0886  0.2934  0.7632
  741MOL0     C97685   1.958   2.050   9.209 -0.0453 -0.1329  0.6515
  741MOL0     C97686   1.834   2.079   9.261  0.0729  0.3019 -0.6715
  741MOL0     C97687   1.814   2.116   9.400  0.1770 -0.4899  0.6264
  741MOL0     O97688   1.688   2.148   9.452 -0.9934 -0.1605  0.8359
  741MOL0     C97689   1.574   2.126   9.368 -0.9360  0.1188 -0.0550
  741MOL0     C97690   1.438   2.139   9.436  0.0272  0.1951  0.4973
  741MOL0     C97691   1.314   2.110   9.342 -0.5179 -0.5076 -0.3217
  741MOL0     C97692   1.193   2.089   9.431 -0.0572  0.1581 -0.1794
  741MOL0     C97693   1.063   2.110   9.351  0.2395  0.3205  0.1069
  741MOL0     C97694   0.943   2.049   9.416 -0.9696  0.4987  0.0974
  741MOL0     C97695   0.819   2.061   9.331  0.3182 -0.4738 -0.7805
  741MOL0     C97696   0.810   1.956   9.224  0.0273 -0.0029  0.3795
  741MOL0     N97697   0.680   1.978   9.165 -0.2768 -0.1731  0.6707
  741MOL0     C97698   0.573   1.892   9.200 -0.3053  0.0345 -0.6394
  741MOL0     C97699   0.466   1.927   9.122  0.9624 -0.4033 -0.1829
  741MOL0     C97700   0.328   1.861   9.113 -0.9284  0.1636 -0.5570
  741MOL0     C97701   0.237   1.899   9.222 -0.0975  0.4143  0.2443
  741MOL0     C97702   0.257   1.820   9.349 -0.0645  0.0249  0.1548
  741MOL0     C97703   0.193   1.879   9.478 -0.2471  0.2632 -0.7603
  741MOL0     O97704   0.056   1.920   9.457 -0.7414  0.2850 -0.2224
  741MOL0     C97705  -0.044   1.824   9.438 -0.5301  0.2848 -0.1891
  741MOL0     C97706  -0.145   1.846   9.346 -0.3923  0.3809 -0.0556
  741MOL0     C97707  -0.241   1.754   9.308 -0.0767 -0.1372 -0.5452
  741MOL0     C97708  -0.242   1.628   9.367 -0.0535 -0.1870  0.3337
  741MOL0     C97709  -0.339   1.519   9.338 -0.1031  0.8867  0.1506
  741MOL0     O97710  -0.333   1.397   9.415  0.3930 -0.8504  1.1038
  741MOL0     C97711  -0.452   1.327   9.425 -0.3990  0.4687  0.3157
  741MOL0     C97712  -0.468   1.194   9.366 -0.1431  0.5594 -0.1858
  741MOL0     C97713  -0.595   1.127   9.373 -0.6046  0.1609  0.2711
  741MOL0     C97714  -0.702   1.185   9.450 -0.0220 -1.0192 -0.6561
  741MOL0     O97715  -0.827   1.132   9.455  0.4524 -0.0937 -0.0253
  741MOL0     C97716  -0.830   0.989   9.470 -0.7577 -0.2696 -0.3138
  741MOL0     C97717  -0.964   0.948   9.514  0.4431  0.4242 -0.3430
  741MOL0     C97718  -0.975   0.817   9.578  0.8561  0.1486  0.2693
  741MOL0     C97719  -1.129   0.779   9.613 -0.5988 -0.1468  0.1574
  741MOL0     C97720  -1.124   0.635   9.662 -0.0585 -0.3200  0.6846
  741MOL0     C97721  -1.257   0.567   9.655  0.5226  0.5401 -0.2860
  741MOL0     C97722  -1.342   0.618   9.775  0.2258  0.4286 -0.7039
  741MOL0     C97723  -1.410   0.506   9.844  0.2474 -0.2405 -0.3039
  741MOL0    Cl97724  -1.532   0.423   9.742 -0.0969 -0.2504  0.4649
  741MOL0     C97725  -0.676   1.310   9.509 -0.5015  0.1411 -0.9610
  741MOL0     C97726  -0.560   1.383   9.491 -0.5062 -1.1134  0.6648
  741MOL0     O97727  -0.418   1.538   9.253  0.2479 -0.1276  1.2095
  741MOL0     C97728  -0.143   1.608   9.467  0.9277  0.2176  0.3150
  741MOL0     C97729  -0.049   1.703   9.501 -0.1911 -1.3999 -0.4085
  741MOL0     N97730   0.506   2.036   9.040  0.8551  0.3137 -0.9263
  741MOL0     N97731   0.625   2.070   9.076  0.7036  0.0968 -0.3086
  741MOL0     C97732   1.925   2.128   9.474 -0.2340 -0.1327 -0.8056
  741MOL0     C97733   2.052   2.111   9.424  0.5809 -0.0039 -0.4614
  741MOL0     C97734   2.393   1.956   9.143  0.1800 -0.2262 -0.1298
  741MOL0     C97735   2.449   1.846   9.086 -0.7479  0.2184 -0.3574
  741MOL0     C97736   2.584   1.851   9.043 -0.2004  0.0204  1.3578
  741MOL0     C97737   2.664   1.964   9.069  0.2214  0.4109  0.5827
  741MOL0     O97738   2.797   1.969   9.042 -0.5188  0.6948 -0.4660
  741MOL0     C97739   2.864   1.870   8.963  0.1388 -0.3276  0.1319
  741MOL0     C97740   3.010   1.907   8.939  0.2593  0.2110  0.3312
  741MOL0     C97741   3.101   1.838   9.039  0.4131 -0.2107 -0.6606
  741MOL0     C97742   3.066   1.838   9.191  0.0999  0.5057 -0.0329
  741MOL0     C97743   2.953   1.742   9.214 -0.2174 -0.3526 -0.2757
  741MOL0     C97744   2.881   1.646   9.225  0.8220  0.0796 -0.3155
  741MOL0     C97745   2.605   2.083   9.120  0.6027  0.2190 -0.3093
  741MOL0     C97746   2.465   2.079   9.147 -0.6152 -0.3867 -1.1735
  741MOL0     H97747   1.981   2.048   9.103 -1.2427  5.2449 -0.0105
  741MOL0     H97748   1.751   2.081   9.191 -1.5915 -1.3011  1.1516
  741MOL0     H97749   1.577   2.021   9.335  3.5071 -0.1471  0.5733
  741MOL0     H97750   1.582   2.187   9.278 -0.0799 -1.3973 -1.0528
  741MOL0     H97751   1.429   2.244   9.466 -0.3803 -0.1286  1.5325
  741MOL0     H97752   1.458   2.075   9.522  2.5905  1.0150  0.5862
  741MOL0     H97753   1.335   2.014   9.295  0.6922 -0.5066  0.1927
  741MOL0     H97754   1.302   2.197   9.276 -4.1440  0.3117  1.1914
  741MOL0     H97755   1.214   1.986   9.463 -2.1697 -0.7549 -1.5387
  741MOL0     H97756   1.188   2.156   9.518 -2.1415 -0.9163  0.6021
  741MOL0     H97757   1.076   2.070   9.250 -0.6292  3.4893 -1.3937
  741MOL0     H97758   1.044   2.216   9.332  2.8320  1.0829  1.3588
  741MOL0     H97759   0.927   2.099   9.512 -0.2025  2.1119 -0.5585
  741MOL0     H97760   0.956   1.942   9.435  1.8777  1.2781  3.7487
  741MOL0     H97761   0.732   2.062   9.397  0.8079 -2.0793 -0.0550
  741MOL0     H97762   0.818   2.159   9.281  0.0729  0.9055  1.7342
  741MOL0     H97763   0.806   1.855   9.266  2.7260 -0.3833 -0.0964
  741MOL0     H97764   0.899   1.962   9.161 -0.7282  1.6673 -0.5872
  741MOL0     H97765   0.588   1.805   9.264  0.4630  0.6641  0.0690
  741MOL0     H97766   0.334   1.753   9.101  0.5607  0.4183 -2.5174
  741MOL0     H97767   0.286   1.899   9.019 -1.0086 -0.9573 -0.9821
  741MOL0     H97768   0.137   1.883   9.181 -0.2421  0.7917  0.4408
  741MOL0     H97769   0.251   2.007   9.234  3.0562  0.2637 -1.0114
  741MOL0     H97770   0.216   1.722   9.326 -0.3349  0.5882 -2.0129
  741MOL0     H97771   0.363   1.797   9.366  0.5106  0.4581 -2.4060
  741MOL0     H97772   0.244   1.974   9.490  1.1382 -0.3918 -1.2949
  741MOL0     H97773   0.188   1.811   9.564 -3.0817 -0.3971 -1.3277
  741MOL0     H97774  -0.159   1.946   9.306  0.7032  1.0290  1.0959
  741MOL0     H97775  -0.309   1.785   9.230 -2.2408  0.1734  1.3616
  741MOL0     H97776  -0.389   1.156   9.303 -1.2675 -1.7087 -0.3475
  741MOL0     H97777  -0.596   1.041   9.308 -1.0424  1.2986 -1.2793
  741MOL0     H97778  -0.752   0.966   9.544  0.2203  0.8822 -0.9484
  741MOL0     H97779  -0.805   0.932   9.380 -1.2225  0.5122 -0.9492
  741MOL0     H97780  -1.027   0.954   9.425 -1.3536  1.7141  0.9423
  741MOL0     H97781  -1.008   1.017   9.586 -0.0474 -0.6879  0.4351
  741MOL0     H97782  -0.914   0.816   9.669  0.8602 -2.1285  0.2856
  741MOL0     H97783  -0.935   0.737   9.516  0.6788 -1.2628  1.8927
  741MOL0     H97784  -1.159   0.847   9.693 -3.4168  0.1528 -1.0522
  741MOL0     H97785  -1.188   0.796   9.523  1.5317 -0.7171 -1.4185
  741MOL0     H97786  -1.083   0.628   9.763  0.8647 -1.4283  0.2596
  741MOL0     H97787  -1.061   0.587   9.587 -1.7937 -0.3372 -0.8594
  741MOL0     H97788  -1.251   0.459   9.672  2.0150  0.7656  0.8026
  741MOL0     H97789  -1.305   0.589   9.559  0.0260  2.1023  0.2850
  741MOL0     H97790  -1.272   0.659   9.848  1.7124 -1.6202 -0.8931
  741MOL0     H97791  -1.398   0.704   9.738  0.2930  1.3890  1.3308
  741MOL0     H97792  -1.451   0.551   9.935  0.2629  3.0007 -1.7778
  741MOL0     H97793  -1.341   0.428   9.877  0.6652  0.2046 -0.1073
  741MOL0     H97794  -0.756   1.366   9.557  0.0223  0.8595 -0.9047
  741MOL0     H97795  -0.544   1.484   9.528 -1.7063 -0.6370 -0.0441
  741MOL0     H97796  -0.124   1.510   9.508 -0.8617  0.3669  1.5844
  741MOL0     H97797   0.019   1.670   9.579 -0.8577 -1.4674  0.1461
  741MOL0     H97798   1.898   2.151   9.577 -0.4157 -0.2200 -0.8321
  741MOL0     H97799   2.137   2.123   9.491  0.7643 -1.1013 -0.4740
  741MOL0     H97800   2.393   1.755   9.067 -1.9518  0.2353  2.5562
  741MOL0     H97801   2.628   1.768   8.988 -0.3870  1.6131 -1.3929
  741MOL0     H97802   2.808   1.864   8.869 -1.4663 -1.6617  1.1298
  741MOL0     H97803   2.852   1.769   9.004  0.8616 -1.3085 -1.9333
  741MOL0     H97804   3.041   1.876   8.839 -3.2011 -0.4981 -0.6382
  741MOL0     H97805   3.022   2.016   8.945 -1.1242  0.3030  2.3739
  741MOL0     H97806   3.202   1.879   9.035  1.1249 -1.9632 -3.5234
  741MOL0     H97807   3.114   1.732   9.019  0.1770 -0.4065  0.1795
  741MOL0     H97808   3.159   1.807   9.239  1.1785 -0.3327 -2.4807
  741MOL0     H97809   3.043   1.941   9.220 -0.3204  0.3379  0.2333
  741MOL0     H97810   2.822   1.559   9.247 -0.5869  1.0783  0.0396
  741MOL0     H97811   2.673   2.162   9.152  3.6086 -2.1462 -0.2915
  741MOL0     H97812   2.404   2.161   9.184 -0.2795  0.1230 -1.7342
  742MOL0     O97813  10.424   0.592   6.543 -0.3722 -0.2632 -0.2082
  742MOL0     C97814  10.448   0.526   6.439  0.7130 -0.6439 -0.2868
  742MOL0     O97815  10.352   0.443   6.379  0.5630 -0.2923 -0.5042
  742MOL0     C97816  10.234   0.415   6.428  0.0152  0.3629 -0.9313
  742MOL0     C97817  10.175   0.439   6.555 -0.0099  0.7186  0.0903
  742MOL0     C97818  10.045   0.396   6.576 -0.2152 -0.3753 -0.0021
  742MOL0     C97819   9.975   0.324   6.474 -0.3354  1.3181 -1.5819
  742MOL0     O97820   9.851   0.269   6.499 -0.0997 -0.3940  0.0912
  742MOL0     C97821   9.750   0.343   6.420 -1.3360  0.5868  0.1942
  742MOL0     C97822   9.618   0.288   6.461 -0.0725  0.3089 -0.1195
  742MOL0     C97823   9.493   0.347   6.391  0.5922 -0.6673  0.1728
  742MOL0     C97824   9.368   0.261   6.416 -0.0714 -0.7503  0.9342
  742MOL0     C97825   9.268   0.254   6.308 -0.4544 -0.3502  0.0919
  742MOL0     C97826   9.173   0.372   6.313 -0.1109  0.3829 -0.6750
  742MOL0     C97827   9.063   0.356   6.205  0.1818  0.6572 -0.2310
  742MOL0     C97828   8.961   0.259   6.253 -1.0402 -0.2153 -0.2767
  742MOL0     N97829   8.862   0.250   6.145  0.0087 -0.3457 -0.8684
  742MOL0     C97830   8.864   0.156   6.056  0.4712 -0.1279 -0.3804
  742MOL0     C97831   8.756   0.166   5.975 -0.5986 -0.0140  0.6107
  742MOL0     C97832   8.723   0.060   5.874 -0.0101 -0.5949  1.3483
  742MOL0     C97833   8.575   0.041   5.815 -0.8222 -1.0415 -0.4427
  742MOL0     C97834   8.530   0.163   5.732 -0.4106 -0.1723 -1.0782
  742MOL0     C97835   8.378   0.177   5.727 -0.0794  0.8259 -0.6268
  742MOL0     O97836   8.331   0.043   5.706  0.2766  0.1891  0.3779
  742MOL0     C97837   8.193   0.029   5.666 -1.1945  0.0656  0.0632
  742MOL0     C97838   8.153  -0.102   5.672 -0.3680 -0.4116  0.3258
  742MOL0     C97839   8.019  -0.131   5.652  1.0969  0.4592  0.3648
  742MOL0     C97840   7.929  -0.037   5.597  0.2018  0.0508  0.4328
  742MOL0     C97841   7.788  -0.058   5.577  0.1199 -0.1587  0.0219
  742MOL0     O97842   7.721   0.041   5.505 -0.0956 -0.2151 -0.1320
  742MOL0     C97843   7.593   0.034   5.472 -0.5727 -0.5254  0.1813
  742MOL0     C97844   7.529   0.155   5.472 -0.2101 -0.8511  0.2095
  742MOL0     C97845   7.395   0.162   5.422 -0.2181  0.2879  0.5084
  742MOL0     C97846   7.332   0.057   5.361 -0.5555  1.5378 -0.6548
  742MOL0     O97847   7.205   0.066   5.309 -0.6257  0.1295 -0.1581
  742MOL0     C97848   7.141  -0.064   5.270 -0.0092 -0.0889 -0.2181
  742MOL0     C97849   7.010  -0.038   5.204 -0.3705  0.1334 -0.4977
  742MOL0     C97850   6.908   0.013   5.306 -0.7025  0.8824 -0.1435
  742MOL0     C97851   6.851  -0.099   5.393 -0.0931 -0.8023  0.5152
  742MOL0     C97852   6.747  -0.044   5.497 -1.0419 -0.0421  0.3224
  742MOL0     C97853   6.733  -0.145   5.612  0.4482 -0.0515 -0.3679
  742MOL0     C97854   6.673  -0.074   5.733  0.3365 -0.1550  0.9344
  742MOL0     C97855   6.762   0.038   5.792  1.0857  0.1534 -0.3133
  742MOL0    Cl97856   6.681   0.102   5.952 -0.2284 -0.2878  0.1841
  742MOL0     C97857   7.412  -0.060   5.355 -0.7323 -0.4481 -0.2813
  742MOL0     C97858   7.529  -0.070   5.423  0.8000  0.6568  0.8574
  742MOL0     O97859   7.740  -0.167   5.607 -0.0277  0.3129  1.4481
  742MOL0     C97860   7.974   0.097   5.594 -0.0085  0.4882 -0.0813
  742MOL0     C97861   8.109   0.128   5.629 -0.6963  0.1162 -0.1359
  742MOL0     N97862   8.695   0.284   6.011  0.0509  0.4461 -0.4028
  742MOL0     N97863   8.756   0.331   6.119 -0.7589  1.0436 -0.0135
  742MOL0     C97864  10.040   0.306   6.355 -0.1373  0.6395 -0.1578
  742MOL0     C97865  10.163   0.352   6.329  0.2116 -1.4461  0.2436
  742MOL0     C97866  10.577   0.536   6.373 -0.1530  0.8639  0.7135
  742MOL0     C97867  10.618   0.442   6.279  0.2344  0.2603  0.5465
  742MOL0     C97868  10.748   0.436   6.230  0.4051  0.0180  0.2388
  742MOL0     C97869  10.842   0.541   6.258  0.1766  0.5532  0.8127
  742MOL0     O97870  10.964   0.539   6.198 -0.9128  0.5000 -0.9947
  742MOL0     C97871  11.063   0.633   6.233  0.2059 -0.4371 -1.0432
  742MOL0     C97872  11.177   0.634   6.140  0.2558 -0.5267  0.2950
  742MOL0     C97873  11.133   0.672   5.998  0.3476  0.4129  0.1408
  742MOL0     C97874  11.223   0.630   5.885  0.2858  0.3886  0.3022
  742MOL0     C97875  11.361   0.670   5.910 -0.5038 -0.1990  0.0094
  742MOL0     C97876  11.477   0.716   5.938  1.0758  0.4183  0.7365
  742MOL0     C97877  10.791   0.647   6.346  0.5713  0.3403  0.5198
  742MOL0     C97878  10.667   0.641   6.403  0.1654  0.1328  0.7983
  742MOL0     H97879  10.234   0.468   6.641  2.3178 -1.3068 -0.7033
  742MOL0     H97880   9.987   0.383   6.667  0.8367 -2.7067  0.3889
  742MOL0     H97881   9.773   0.329   6.314  2.2444 -1.6381  1.1025
  742MOL0     H97882   9.750   0.450   6.439 -1.1792  0.8309 -1.1189
  742MOL0     H97883   9.614   0.312   6.568  0.8587 -0.0997  0.0122
  742MOL0     H97884   9.617   0.179   6.449 -2.0273 -0.0429  2.3306
  742MOL0     H97885   9.508   0.335   6.283 -0.2097  1.6218 -0.2544
  742MOL0     H97886   9.476   0.451   6.420 -4.1143 -1.8535  2.5064
  742MOL0     H97887   9.401   0.157   6.426  1.2763 -0.5562 -1.0165
  742MOL0     H97888   9.322   0.301   6.507 -0.5936  0.1469  0.2927
  742MOL0     H97889   9.217   0.158   6.321  0.7442 -0.6780  3.4703
  742MOL0     H97890   9.319   0.249   6.212 -0.2197  2.6200 -0.0407
  742MOL0     H97891   9.236   0.458   6.288  0.7131 -0.0823 -0.2254
  742MOL0     H97892   9.119   0.379   6.408 -4.0596 -1.5443 -2.5382
  742MOL0     H97893   9.019   0.455   6.188 -4.0203 -1.0210 -0.5445
  742MOL0     H97894   9.109   0.322   6.112  1.0417  4.7701 -1.4910
  742MOL0     H97895   8.916   0.296   6.345 -0.0222  3.4511 -1.0808
  742MOL0     H97896   8.999   0.158   6.273 -0.6182 -0.2778 -1.2852
  742MOL0     H97897   8.929   0.069   6.056  2.7143  1.4306 -1.8957
  742MOL0     H97898   8.751  -0.037   5.914 -0.1140 -0.3069  2.1302
  742MOL0     H97899   8.796   0.076   5.794  1.0440 -0.9878  2.2071
  742MOL0     H97900   8.503   0.024   5.895 -2.6142  1.7543 -1.2982
  742MOL0     H97901   8.575  -0.047   5.749 -0.5143 -0.2920 -1.4689
  742MOL0     H97902   8.574   0.254   5.776 -3.4846  0.7025  0.4369
  742MOL0     H97903   8.573   0.146   5.633  3.0300 -3.2223  0.6692
  742MOL0     H97904   8.346   0.259   5.661  2.0636  1.9781 -0.3035
  742MOL0     H97905   8.341   0.199   5.827  1.0632  2.0519 -0.4453
  742MOL0     H97906   8.222  -0.180   5.700  0.8232  0.8637  1.1040
  742MOL0     H97907   7.974  -0.229   5.656  1.3203  0.3983  2.7189
  742MOL0     H97908   7.574   0.244   5.515  3.3224 -1.0384 -2.5981
  742MOL0     H97909   7.345   0.258   5.426  0.0698  0.5183 -1.0028
  742MOL0     H97910   7.144  -0.136   5.353  4.1234  1.9048  1.7040
  742MOL0     H97911   7.194  -0.102   5.182 -0.2838  0.3089 -0.5544
  742MOL0     H97912   6.965  -0.122   5.151 -0.0712  0.3189 -1.0507
  742MOL0     H97913   7.026   0.046   5.136  1.1752  0.6771  0.4966
  742MOL0     H97914   6.819   0.043   5.251  0.7693  0.3192 -3.0199
  742MOL0     H97915   6.950   0.094   5.366 -0.6115 -1.3992  3.1763
  742MOL0     H97916   6.818  -0.180   5.329  1.4750 -0.8783 -0.2643
  742MOL0     H97917   6.941  -0.144   5.437 -0.5897  0.2368  2.7517
  742MOL0     H97918   6.652  -0.028   5.444 -1.0899  2.1990  0.9643
  742MOL0     H97919   6.792   0.050   5.531  0.8890 -1.3916  1.7226
  742MOL0     H97920   6.827  -0.188   5.646 -0.2869  0.1705  2.1565
  742MOL0     H97921   6.674  -0.227   5.572 -0.0059  0.3165 -0.4628
  742MOL0     H97922   6.574  -0.042   5.702  0.0225 -0.3540  1.7162
  742MOL0     H97923   6.669  -0.148   5.813 -0.6742 -2.2718 -0.9508
  742MOL0     H97924   6.763   0.117   5.717  1.6746 -2.0048 -2.7379
  742MOL0     H97925   6.864   0.006   5.817  1.1716 -0.0868 -0.9435
  742MOL0     H97926   7.378  -0.151   5.305  0.0806 -0.3221 -1.0868
  742MOL0     H97927   7.575  -0.168   5.428 -3.5658 -1.6827  0.2017
  742MOL0     H97928   7.910   0.178   5.558 -0.4311 -0.2673 -1.0843
  742MOL0     H97929   8.139   0.231   5.618  2.3707 -0.5372  1.0853
  742MOL0     H97930   9.975   0.261   6.279  1.1454 -0.5223 -0.6109
  742MOL0     H97931  10.206   0.337   6.231  1.6376 -0.6643  0.7079
  742MOL0     H97932  10.560   0.360   6.241 -0.1268  1.1010 -0.7839
  742MOL0     H97933  10.781   0.357   6.163 -0.2586 -0.2494  0.2199
  742MOL0     H97934  11.098   0.606   6.333  0.4434 -1.2917 -1.3526
  742MOL0     H97935  11.030   0.737   6.228  1.0663 -0.2138 -3.7163
  742MOL0     H97936  11.253   0.708   6.167  1.7674 -1.7002 -0.6142
  742MOL0     H97937  11.232   0.540   6.148 -0.9271 -1.2443  0.2794
  742MOL0     H97938  11.107   0.778   5.995  3.0746  1.1601  0.3704
  742MOL0     H97939  11.037   0.622   5.986  1.0295 -1.0194  0.3999
  742MOL0     H97940  11.216   0.521   5.876 -3.9399  0.4913  0.2822
  742MOL0     H97941  11.184   0.663   5.789 -1.9297 -1.2848  0.5378
  742MOL0     H97942  11.575   0.749   5.967  1.2118  0.2405  0.4836
  742MOL0     H97943  10.845   0.735   6.380  0.7005  2.7348 -4.7784
  742MOL0     H97944  10.629   0.722   6.465 -3.0479  0.4961 -1.4037
  743MOL0     O97945   0.133   5.870   0.010  0.1108  0.4288 -0.0099
  743MOL0     C97946   0.070   5.918   0.111  0.1951 -0.0812  0.2897
  743MOL0     O97947   0.128   5.966   0.223 -1.1753  0.2762 -0.1997
  743MOL0     C97948   0.265   5.994   0.223 -0.8958  0.9756  0.3731
  743MOL0     C97949   0.367   5.900   0.199 -0.0783 -0.0190  0.3013
  743MOL0     C97950   0.497   5.941   0.212  1.1517 -0.1109  0.4443
  743MOL0     C97951   0.544   6.071   0.237  0.5574  0.7557 -0.2546
  743MOL0     O97952   0.679   6.101   0.233  1.4011 -0.4386 -0.3356
  743MOL0     C97953   0.722   6.236   0.268 -0.0626 -0.1579 -0.9490
  743MOL0     C97954   0.710   6.313   0.131  0.0163  0.2535 -0.6593
  743MOL0     C97955   0.816   6.261   0.039  0.1358 -1.1967  0.5142
  743MOL0     C97956   0.955   6.327   0.066 -0.5819 -0.6109  0.6642
  743MOL0     C97957   1.007   6.434  -0.039  0.2745 -0.7553  0.4596
  743MOL0     C97958   1.150   6.490  -0.012  0.3480  0.2705  1.4349
  743MOL0     C97959   1.198   6.578  -0.125  0.6364 -0.1824 -0.0071
  743MOL0     C97960   1.347   6.622  -0.087  0.2864 -0.7306  0.2239
  743MOL0     N97961   1.395   6.703  -0.195 -0.2368 -0.2900 -0.6752
  743MOL0     C97962   1.527   6.728  -0.226  0.1300  0.1084  0.3816
  743MOL0     C97963   1.526   6.783  -0.347 -0.7821 -0.2911  0.7338
  743MOL0     C97964   1.639   6.806  -0.436 -1.1910  0.7032 -0.9098
  743MOL0     C97965   1.785   6.818  -0.369 -0.1554 -0.0814 -0.0287
  743MOL0     C97966   1.882   6.851  -0.494 -0.9735 -0.5721 -0.5128
  743MOL0     C97967   1.895   6.740  -0.605 -0.4230 -0.6588 -0.2646
  743MOL0     O97968   1.921   6.605  -0.565  0.1932 -0.6993 -0.0287
  743MOL0     C97969   2.041   6.576  -0.503  0.4081 -0.1493  0.8563
  743MOL0     C97970   2.150   6.665  -0.491 -0.6864 -0.7239 -0.2846
  743MOL0     C97971   2.270   6.630  -0.416  0.4012 -0.2491 -0.0365
  743MOL0     C97972   2.281   6.501  -0.369  1.0753  0.8422 -0.1975
  743MOL0     C97973   2.397   6.462  -0.287 -1.2456 -0.4906  0.0583
  743MOL0     O97974   2.493   6.560  -0.263 -0.0233 -0.8428  0.1376
  743MOL0     C97975   2.608   6.518  -0.200  1.0113 -0.0061  0.3834
  743MOL0     C97976   2.642   6.565  -0.064 -0.6073  0.6567 -0.3064
  743MOL0     C97977   2.769   6.540  -0.015  0.4807 -0.6554 -0.3490
  743MOL0     C97978   2.856   6.446  -0.085 -1.7775  0.0061  0.5466
  743MOL0     O97979   2.976   6.396  -0.039 -0.0596 -0.1970 -0.2550
  743MOL0     C97980   3.048   6.470   0.065  0.3381 -0.3509 -0.9640
  743MOL0     C97981   3.195   6.450   0.057 -0.0658  0.1218 -0.0836
  743MOL0     C97982   3.248   6.490  -0.082 -0.1788 -0.1415  0.1943
  743MOL0     C97983   3.393   6.442  -0.095  0.0479  0.4641  1.0095
  743MOL0     C97984   3.428   6.481  -0.238 -0.6981  0.6859 -0.1792
  743MOL0     C97985   3.576   6.438  -0.280  0.2238  0.3838 -0.2770
  743MOL0     C97986   3.583   6.294  -0.322  1.0137  0.0333  0.6167
  743MOL0     C97987   3.701   6.262  -0.413  0.4307  0.1115 -0.1501
  743MOL0    Cl97988   3.857   6.312  -0.337  0.0050  0.1420 -0.3631
  743MOL0     C97989   2.816   6.390  -0.214  0.3943 -0.0832  0.3089
  743MOL0     C97990   2.698   6.435  -0.270 -0.0272  0.1853  0.3842
  743MOL0     O97991   2.400   6.345  -0.253 -0.5193  0.3812  0.3240
  743MOL0     C97992   2.172   6.410  -0.385 -0.5818 -0.0369 -0.6967
  743MOL0     C97993   2.054   6.446  -0.452  1.2482  0.3359 -0.3444
  743MOL0     N97994   1.394   6.812  -0.384  0.5643  0.4097  0.0401
  743MOL0     N97995   1.316   6.757  -0.291  0.2694  0.2165  0.2374
  743MOL0     C97996   0.437   6.162   0.268  0.3712  0.2677  0.5328
  743MOL0     C97997   0.307   6.126   0.261 -0.0750  0.1124  0.7992
  743MOL0     C97998  -0.074   5.899   0.109 -0.4099 -0.3571  0.4041
  743MOL0     C97999  -0.140   5.820   0.012 -0.9487 -0.7686 -0.0156
  743MOL0     C98000  -0.278   5.796   0.027  0.0774 -0.1828 -0.3918
  743MOL0     C98001  -0.357   5.869   0.121  0.7649 -0.6050 -0.3907
  743MOL0     O98002  -0.493   5.846   0.110  0.1756 -0.4929  0.1233
  743MOL0     C98003  -0.562   5.840   0.231 -0.7139 -0.4003  0.1373
  743MOL0     C98004  -0.690   5.765   0.201 -0.9091 -0.6162  0.4836
  743MOL0     C98005  -0.775   5.754   0.328 -0.1186 -0.6084 -0.1352
  743MOL0     C98006  -0.899   5.670   0.305  0.4539 -0.1611  0.2731
  743MOL0     C98007  -0.993   5.738   0.211 -0.0529  0.1946  0.4317
  743MOL0     C98008  -1.049   5.793   0.116 -0.0508  0.7459  0.2172
  743MOL0     C98009  -0.289   5.961   0.206 -0.3957 -0.4049 -0.2694
  743MOL0     C98010  -0.147   5.984   0.202  0.2043  0.6301  0.6081
  743MOL0     H98011   0.344   5.795   0.185  0.8489 -0.0575 -1.2459
  743MOL0     H98012   0.573   5.868   0.186  1.2027  0.3539 -0.7761
  743MOL0     H98013   0.830   6.228   0.287  0.3005  2.0904 -1.7149
  743MOL0     H98014   0.672   6.283   0.353  0.5998 -0.0245 -0.6263
  743MOL0     H98015   0.736   6.416   0.156 -2.4514  0.8138 -0.1890
  743MOL0     H98016   0.608   6.321   0.092 -1.1293 -0.1271  2.0316
  743MOL0     H98017   0.788   6.299  -0.060 -1.0625  0.6258  1.4949
  743MOL0     H98018   0.812   6.152   0.036 -2.3471 -1.1625 -2.0063
  743MOL0     H98019   0.958   6.358   0.171 -1.0441  0.9608  0.2380
  743MOL0     H98020   1.031   6.248   0.066 -0.3863 -0.4677 -1.7074
  743MOL0     H98021   0.936   6.517  -0.043  0.0439 -0.9649 -2.6309
  743MOL0     H98022   0.998   6.398  -0.142 -0.5744  4.5012 -1.6200
  743MOL0     H98023   1.216   6.403  -0.017 -1.2304 -0.9326 -0.0213
  743MOL0     H98024   1.157   6.544   0.082 -1.1862  1.7650  0.7435
  743MOL0     H98025   1.197   6.517  -0.215  1.0534 -0.3434  0.0975
  743MOL0     H98026   1.124   6.659  -0.131 -2.0314 -2.4637  0.2939
  743MOL0     H98027   1.409   6.532  -0.076 -0.2935 -1.2562 -0.7484
  743MOL0     H98028   1.351   6.679   0.006 -1.9787 -2.3140  1.3846
  743MOL0     H98029   1.616   6.696  -0.173  1.5614  0.6158 -1.5959
  743MOL0     H98030   1.629   6.902  -0.487  0.1927  2.3636  1.7182
  743MOL0     H98031   1.642   6.719  -0.502 -0.4826 -2.0721  2.4552
  743MOL0     H98032   1.817   6.729  -0.313 -0.4824 -0.6888 -0.7795
  743MOL0     H98033   1.792   6.903  -0.302  1.3061  0.9879 -1.4601
  743MOL0     H98034   1.846   6.945  -0.538 -0.7417 -0.7724 -1.1420
  743MOL0     H98035   1.983   6.868  -0.456 -0.9316 -2.2408  0.1802
  743MOL0     H98036   1.973   6.771  -0.675 -1.8100  0.2425 -1.4663
  743MOL0     H98037   1.809   6.728  -0.671  0.6267 -0.3631 -1.7678
  743MOL0     H98038   2.164   6.760  -0.542  2.1466  0.7867  2.8645
  743MOL0     H98039   2.352   6.700  -0.427 -0.4839  0.6877 -0.9143
  743MOL0     H98040   2.567   6.625  -0.014 -2.0548  0.3732 -2.0380
  743MOL0     H98041   2.807   6.581   0.078  1.9304  2.1770 -2.0661
  743MOL0     H98042   3.022   6.433   0.165  1.7954 -0.0961 -0.4770
  743MOL0     H98043   3.021   6.575   0.050 -1.7268 -0.9153 -1.5491
  743MOL0     H98044   3.224   6.347   0.081  4.3148  1.4210  1.1637
  743MOL0     H98045   3.244   6.513   0.132 -0.2013  1.5727 -1.1732
  743MOL0     H98046   3.225   6.595  -0.104  0.0956 -0.5272 -2.2939
  743MOL0     H98047   3.191   6.424  -0.149 -0.5832 -1.8971  2.1509
  743MOL0     H98048   3.464   6.485  -0.025  1.4902  3.8288 -2.1777
  743MOL0     H98049   3.381   6.333  -0.092 -1.3946  0.6181  3.1074
  743MOL0     H98050   3.431   6.590  -0.238 -1.4132  0.7848  2.7139
  743MOL0     H98051   3.362   6.439  -0.314  0.2453 -2.1916  0.4552
  743MOL0     H98052   3.633   6.464  -0.190 -2.1702  1.8709  0.8819
  743MOL0     H98053   3.604   6.507  -0.360  0.4347  2.8769  1.8074
  743MOL0     H98054   3.594   6.232  -0.233 -0.6712  0.0602  0.8800
  743MOL0     H98055   3.487   6.270  -0.369  0.4718  0.9700  1.2091
  743MOL0     H98056   3.691   6.319  -0.506 -1.5197  0.9895  0.5437
  743MOL0     H98057   3.698   6.156  -0.440  1.9484 -0.0589  0.2901
  743MOL0     H98058   2.877   6.312  -0.259  1.7245  0.3587  1.2850
  743MOL0     H98059   2.669   6.390  -0.364  0.4416  2.1172 -0.7542
  743MOL0     H98060   2.183   6.307  -0.354 -0.0574 -0.1019 -1.0863
  743MOL0     H98061   1.968   6.380  -0.457  0.4169  1.0819  2.3129
  743MOL0     H98062   0.451   6.267   0.290  0.8227  0.7413 -1.7148
  743MOL0     H98063   0.229   6.197   0.282 -2.2523 -1.6763 -0.6728
  743MOL0     H98064  -0.080   5.772  -0.064 -0.0682  1.6881 -0.9690
  743MOL0     H98065  -0.323   5.719  -0.034  1.2550 -1.0659 -0.1768
  743MOL0     H98066  -0.585   5.944   0.259 -1.7602  0.2833 -2.8882
  743MOL0     H98067  -0.508   5.797   0.315  1.8136  1.2303 -0.5409
  743MOL0     H98068  -0.752   5.807   0.122 -0.3351 -1.6955 -0.5767
  743MOL0     H98069  -0.663   5.666   0.163 -0.7596 -0.2535 -0.3688
  743MOL0     H98070  -0.810   5.854   0.355 -2.0697 -0.5072 -2.6132
  743MOL0     H98071  -0.721   5.713   0.414  2.4609 -2.6703 -2.5607
  743MOL0     H98072  -0.870   5.568   0.277  1.3331  0.5418 -1.4996
  743MOL0     H98073  -0.964   5.658   0.392 -0.7375  1.7661 -0.2825
  743MOL0     H98074  -1.122   5.825   0.043 -0.6479 -0.9558  0.0285
  743MOL0     H98075  -0.345   6.011   0.284 -0.8637 -1.6472  0.2021
  743MOL0     H98076  -0.104   6.057   0.269 -1.1733  0.2795  1.9503
  744MOL0     O98077  10.306   9.926  10.081  0.0324 -0.4000  0.4275
  744MOL0     C98078  10.368   9.832  10.126  0.5111 -0.1691 -0.8155
  744MOL0     O98079  10.301   9.729  10.188  0.2796  0.0033  0.6103
  744MOL0     C98080  10.178   9.739  10.252  0.0350  0.1040  0.4349
  744MOL0     C98081  10.163   9.827  10.356  0.4378  0.1085 -0.4460
  744MOL0     C98082  10.033   9.834  10.418 -0.3817 -0.2939  0.4224
  744MOL0     C98083   9.928   9.760  10.378 -0.2373 -0.4192  0.3503
  744MOL0     O98084   9.818   9.804  10.436  1.0763  0.7804 -0.0359
  744MOL0     C98085   9.701   9.716  10.402  0.8239  0.7359 -0.3005
  744MOL0     C98086   9.578   9.785  10.472  0.3803  0.3351  0.2942
  744MOL0     C98087   9.450   9.709  10.434  0.5080  0.1832  0.6836
  744MOL0     C98088   9.333   9.770  10.503  0.2708  0.3090  0.0374
  744MOL0     C98089   9.199   9.711  10.460 -0.3978  0.1076  0.1093
  744MOL0     C98090   9.095   9.776  10.536 -0.2020 -1.0902  0.6401
  744MOL0     C98091   8.964   9.693  10.504 -0.7425 -0.2403  0.6901
  744MOL0     C98092   8.837   9.757  10.570 -0.4272  0.4582 -0.5196
  744MOL0     N98093   8.709   9.691  10.549  0.1464  0.9058 -0.3861
  744MOL0     C98094   8.618   9.661  10.649 -0.5964 -0.5343  0.1864
  744MOL0     C98095   8.525   9.591  10.580  1.0382  0.0669 -0.5173
  744MOL0     C98096   8.394   9.536  10.635 -0.0967  0.4130  0.8586
  744MOL0     C98097   8.411   9.466  10.765 -0.2132  0.7276  0.2733
  744MOL0     C98098   8.279   9.387  10.807  0.0307  1.3979 -0.6364
  744MOL0     C98099   8.143   9.459  10.799  0.3786  0.5243 -0.8026
  744MOL0     O98100   8.038   9.398  10.881  0.5036 -0.0706  0.5513
  744MOL0     C98101   7.916   9.462  10.880 -0.2976 -0.5307  0.1612
  744MOL0     C98102   7.894   9.595  10.822 -0.1775  1.1137  0.9533
  744MOL0     C98103   7.766   9.652  10.816  0.0665  0.5311 -0.4372
  744MOL0     C98104   7.663   9.579  10.870  0.2247  0.4394 -0.9370
  744MOL0     C98105   7.538   9.654  10.874  0.1350 -0.0981 -0.3187
  744MOL0     O98106   7.454   9.615  10.974 -0.7410 -0.8601  0.2726
  744MOL0     C98107   7.328   9.672  10.985  0.6995 -0.5799  0.1782
  744MOL0     C98108   7.293   9.737  11.101 -0.5127  0.3184  0.4688
  744MOL0     C98109   7.176   9.806  11.114 -0.3421  0.8224 -0.5830
  744MOL0     C98110   7.086   9.804  11.018  0.3421 -0.4581 -0.6967
  744MOL0     O98111   6.973   9.870  11.047  0.1426  0.2657 -0.5954
  744MOL0     C98112   6.867   9.784  11.111  0.1329  0.9086 -0.1666
  744MOL0     C98113   6.829   9.843  11.244 -0.7788  0.6218  0.1449
  744MOL0     C98114   6.686   9.799  11.281 -1.6567 -1.4232 -0.1365
  744MOL0     C98115   6.671   9.800  11.430  0.0176 -0.4806 -0.1809
  744MOL0     C98116   6.528   9.793  11.476  0.1545 -0.4537  0.2173
  744MOL0     C98117   6.518   9.820  11.623  0.1713  0.1474  0.2919
  744MOL0     C98118   6.365   9.815  11.658  0.0153  0.5621  0.7000
  744MOL0     C98119   6.332   9.808  11.808  0.1228  0.1341  0.7531
  744MOL0    Cl98120   6.395   9.653  11.879 -0.3360  0.0938  0.0961
  744MOL0     C98121   7.104   9.727  10.909 -0.2522  0.0545  0.2858
  744MOL0     C98122   7.225   9.656  10.888 -0.1453  0.3950  0.2867
  744MOL0     O98123   7.514   9.744  10.796  0.1204  0.7822  0.0114
  744MOL0     C98124   7.686   9.454  10.929  0.3753 -0.2823 -0.0804
  744MOL0     C98125   7.810   9.398  10.931 -0.2273  0.5858  1.2061
  744MOL0     N98126   8.560   9.564  10.450  0.2809 -0.2588  0.2875
  744MOL0     N98127   8.667   9.630  10.431  0.0256  0.4647 -1.0926
  744MOL0     C98128   9.945   9.674  10.271 -0.3380  0.5476  0.9247
  744MOL0     C98129  10.075   9.658  10.209  0.3788 -0.0654  0.3722
  744MOL0     C98130  10.512   9.806  10.120 -0.0815  0.3473  0.1088
  744MOL0     C98131  10.591   9.887  10.039 -0.4482  1.0392  0.0802
  744MOL0     C98132  10.728   9.858  10.020 -0.4967 -0.7499 -1.1435
  744MOL0     C98133  10.797   9.765  10.094  0.7519  0.4214  0.8984
  744MOL0     O98134  10.922   9.721  10.082  0.6328  0.1443 -0.2605
  744MOL0     C98135  11.012   9.827  10.045  0.6389  0.7941  0.7783
  744MOL0     C98136  11.153   9.795  10.095  0.7627  0.7784  0.0320
  744MOL0     C98137  11.154   9.801  10.245 -1.3645  0.6223 -0.1269
  744MOL0     C98138  11.276   9.740  10.302  0.5397 -0.0617  0.7308
  744MOL0     C98139  11.388   9.831  10.282 -1.0788  0.6090  0.7575
  744MOL0     C98140  11.494   9.890  10.264 -0.3494  0.5538 -0.8647
  744MOL0     C98141  10.720   9.684  10.177 -0.2678  0.1528  1.0169
  744MOL0     C98142  10.582   9.703  10.190  0.5168  0.7684  0.2003
  744MOL0     H98143  10.239   9.882  10.410  0.1462 -1.8404  2.1515
  744MOL0     H98144  10.009   9.909  10.493 -0.7673 -1.3133  1.3517
  744MOL0     H98145   9.713   9.619  10.450  1.0959  1.4633  1.1591
  744MOL0     H98146   9.674   9.719  10.296  2.2703  0.0536 -0.7147
  744MOL0     H98147   9.578   9.891  10.445  1.4535  0.4739  0.7662
  744MOL0     H98148   9.600   9.767  10.578  1.3028  0.1157  0.0764
  744MOL0     H98149   9.462   9.602  10.456  3.1395  0.2665  0.0479
  744MOL0     H98150   9.436   9.719  10.326 -0.4117  3.7135  1.0251
  744MOL0     H98151   9.348   9.744  10.609 -0.2075 -1.2703 -0.2484
  744MOL0     H98152   9.331   9.878  10.492 -0.6714  0.3296  0.2736
  744MOL0     H98153   9.211   9.603  10.468  2.3096  0.3240 -0.0473
  744MOL0     H98154   9.172   9.731  10.356  2.6968  1.6115 -0.5340
  744MOL0     H98155   9.081   9.879  10.504  1.9763 -1.0892 -0.4927
  744MOL0     H98156   9.120   9.772  10.643  1.2173 -0.5427  0.3511
  744MOL0     H98157   8.950   9.697  10.395 -0.6185  2.4935  0.7159
  744MOL0     H98158   8.970   9.586  10.528  2.1052 -0.4847 -0.7203
  744MOL0     H98159   8.836   9.863  10.541  2.0371  1.0438  1.2062
  744MOL0     H98160   8.872   9.767  10.674  2.7198  0.3896 -1.4696
  744MOL0     H98161   8.615   9.697  10.751 -0.8063 -0.1229  0.0386
  744MOL0     H98162   8.358   9.472  10.555  0.9789 -0.1269  0.7824
  744MOL0     H98163   8.322   9.616  10.655  1.5438  1.7835  1.5926
  744MOL0     H98164   8.422   9.541  10.843 -2.4548  0.6064  0.7827
  744MOL0     H98165   8.493   9.394  10.765  0.5211  1.4476 -2.4867
  744MOL0     H98166   8.265   9.299  10.743 -1.3472 -0.4203  1.9717
  744MOL0     H98167   8.297   9.348  10.907  1.4692 -2.0974 -2.0908
  744MOL0     H98168   8.126   9.480  10.693  1.5744  2.7099 -0.6170
  744MOL0     H98169   8.166   9.556  10.844  0.1187  0.1043  0.2738
  744MOL0     H98170   7.976   9.651  10.778  0.9161 -0.5470  0.7940
  744MOL0     H98171   7.758   9.753  10.778 -2.1540  1.1244  1.3917
  744MOL0     H98172   7.368   9.733  11.179  1.0420  0.6396 -0.9598
  744MOL0     H98173   7.153   9.861  11.205  0.8192 -0.0212  0.2382
  744MOL0     H98174   6.904   9.682  11.121 -1.3294  0.2228 -1.2531
  744MOL0     H98175   6.771   9.780  11.058  0.0579  0.3144  0.0113
  744MOL0     H98176   6.826   9.952  11.239 -0.5645  0.7325  1.8609
  744MOL0     H98177   6.903   9.815  11.320  0.7227 -0.4106 -1.6224
  744MOL0     H98178   6.669   9.698  11.241  1.2219 -1.3989 -1.7338
  744MOL0     H98179   6.611   9.860  11.230 -3.0657 -2.3424  0.7651
  744MOL0     H98180   6.713   9.708  11.472  1.2131 -0.9429 -2.2697
  744MOL0     H98181   6.719   9.882  11.483 -1.6822  0.7616 -0.4843
  744MOL0     H98182   6.487   9.694  11.451  1.1880 -0.7965 -0.1898
  744MOL0     H98183   6.460   9.862  11.426  0.1235  0.1455  1.0822
  744MOL0     H98184   6.552   9.922  11.644 -2.3247  0.8319  1.3646
  744MOL0     H98185   6.562   9.736  11.679 -0.1918 -1.7163 -2.0606
  744MOL0     H98186   6.312   9.905  11.626  0.2364  0.1043 -1.0435
  744MOL0     H98187   6.325   9.731  11.600  5.1241  0.4153 -3.2262
  744MOL0     H98188   6.223   9.804  11.819 -0.3573 -2.7185 -2.8206
  744MOL0     H98189   6.367   9.892  11.867 -0.6683 -0.8990  2.7960
  744MOL0     H98190   7.028   9.715  10.833  1.6920 -0.0320 -1.7321
  744MOL0     H98191   7.232   9.607  10.792  0.6088  1.4574 -0.2172
  744MOL0     H98192   7.600   9.406  10.975 -0.1167  1.7494  1.2920
  744MOL0     H98193   7.823   9.299  10.972 -0.2083 -0.7763 -1.8166
  744MOL0     H98194   9.864   9.614  10.230  0.0988  1.1829 -0.9976
  744MOL0     H98195  10.082   9.595  10.120  1.2346 -1.8195  1.6278
  744MOL0     H98196  10.543   9.969   9.987 -0.3636  1.0845  0.0738
  744MOL0     H98197  10.779   9.922   9.948 -2.6371  2.4430 -0.0513
  744MOL0     H98198  10.983   9.928  10.075  1.8189  1.6072 -0.6678
  744MOL0     H98199  11.034   9.838   9.938 -0.2723 -1.0316  0.3690
  744MOL0     H98200  11.190   9.699  10.057  3.2683  1.0671  1.5316
  744MOL0     H98201  11.234   9.855  10.051  1.2439 -0.1746 -0.4050
  744MOL0     H98202  11.079   9.730  10.282 -0.3786 -1.3033 -1.5795
  744MOL0     H98203  11.133   9.896  10.294 -1.0136  0.5865  0.0950
  744MOL0     H98204  11.257   9.724  10.408  0.6054  1.0137  0.9130
  744MOL0     H98205  11.298   9.644  10.255  2.3925 -0.2787  1.9508
  744MOL0     H98206  11.586   9.945  10.261  0.2927 -0.2227  1.7592
  744MOL0     H98207  10.773   9.606  10.230  3.3329  1.5474 -0.2144
  744MOL0     H98208  10.527   9.641  10.260  0.3581  2.3037  1.4997
  745MOL0     O98209   9.077   7.747   7.730  0.6184  0.8165 -0.2717
  745MOL0     C98210   9.005   7.759   7.826 -0.3449  0.0247  0.2204
  745MOL0     O98211   9.047   7.796   7.952  0.0396  0.1019 -1.0100
  745MOL0     C98212   9.183   7.812   7.984 -0.1608  0.1757  0.1479
  745MOL0     C98213   9.208   7.776   8.116  0.0270 -0.5920  0.4723
  745MOL0     C98214   9.339   7.783   8.164 -0.0863 -0.2733 -0.2265
  745MOL0     C98215   9.451   7.814   8.075 -0.0878 -0.1210  0.0879
  745MOL0     O98216   9.578   7.821   8.133  0.0670  0.7151  0.4756
  745MOL0     C98217   9.639   7.940   8.097 -1.4928 -0.2674 -0.0533
  745MOL0     C98218   9.765   7.952   8.192 -0.2570  0.6727  0.4444
  745MOL0     C98219   9.852   8.069   8.176  0.2260  0.3954 -0.3104
  745MOL0     C98220   9.803   8.196   8.245 -0.4651 -0.0447 -0.0783
  745MOL0     C98221   9.919   8.288   8.280  1.0254 -0.0640  0.1293
  745MOL0     C98222   9.962   8.274   8.424  0.1246 -0.4734 -0.1181
  745MOL0     C98223  10.061   8.386   8.459 -0.5179  0.2233 -0.8247
  745MOL0     C98224  10.056   8.414   8.610 -0.7856  0.6878  0.9585
  745MOL0     N98225  10.136   8.528   8.646 -0.1350 -0.6968 -0.7281
  745MOL0     C98226  10.272   8.537   8.650 -0.0079 -0.5599 -0.2962
  745MOL0     C98227  10.303   8.670   8.682  0.0979  0.0664  0.0648
  745MOL0     C98228  10.436   8.740   8.692  0.1831  0.1164 -0.4305
  745MOL0     C98229  10.509   8.698   8.823  0.8290  1.1360 -0.2883
  745MOL0     C98230  10.480   8.785   8.936  0.1730  0.3835 -0.2623
  745MOL0     C98231  10.344   8.776   8.997  0.1321  0.2023 -0.5035
  745MOL0     O98232  10.333   8.803   9.138 -0.1530 -0.0994  0.4927
  745MOL0     C98233  10.210   8.829   9.183 -0.2256 -0.2733 -0.3371
  745MOL0     C98234  10.098   8.798   9.105  0.3939  0.7039  0.0656
  745MOL0     C98235   9.971   8.833   9.148 -0.2928  0.3105 -0.3401
  745MOL0     C98236   9.951   8.902   9.267  0.2834  0.2583  0.3485
  745MOL0     C98237   9.822   8.929   9.330  0.4984  0.4280 -0.2888
  745MOL0     O98238   9.714   8.905   9.252  0.0128 -0.5907 -0.1256
  745MOL0     C98239   9.592   8.912   9.310 -0.2297  0.1056  0.8963
  745MOL0     C98240   9.542   9.020   9.379 -0.0304  0.0492  0.8989
  745MOL0     C98241   9.404   9.015   9.418 -0.1941 -0.1903 -0.1241
  745MOL0     C98242   9.325   8.906   9.409 -0.2638 -0.3723  0.3108
  745MOL0     O98243   9.200   8.900   9.473 -0.4517 -1.0270  0.1191
  745MOL0     C98244   9.109   8.806   9.429 -0.6868  0.1813  0.6515
  745MOL0     C98245   9.053   8.830   9.285 -0.1789 -0.3698 -0.3488
  745MOL0     C98246   8.975   8.965   9.280  0.3644  0.2244 -0.1807
  745MOL0     C98247   9.074   9.088   9.277  0.1702 -0.4726  1.5261
  745MOL0     C98248   8.991   9.221   9.252 -0.2145 -0.4752  0.7018
  745MOL0     C98249   8.973   9.235   9.095 -0.5284  1.0919  0.6282
  745MOL0     C98250   9.109   9.284   9.032 -0.1151 -0.4820 -0.0710
  745MOL0     C98251   9.102   9.309   8.887  0.6315  0.2820  0.2929
  745MOL0    Cl98252   9.076   9.156   8.795 -0.1247 -0.2499  0.0176
  745MOL0     C98253   9.390   8.789   9.356 -0.1868  0.0147  0.3308
  745MOL0     C98254   9.516   8.796   9.299 -0.2942  0.7067 -0.1522
  745MOL0     O98255   9.826   8.969   9.445  0.0391 -0.3847 -0.3871
  745MOL0     C98256  10.067   8.937   9.340 -0.2030  0.7836  1.1620
  745MOL0     C98257  10.197   8.903   9.299  0.3036  0.2277  0.3920
  745MOL0     N98258  10.179   8.733   8.692  0.3064 -0.6186  0.3378
  745MOL0     N98259  10.083   8.655   8.659 -0.4083 -0.2965  0.1954
  745MOL0     C98260   9.425   7.835   7.936  0.4801 -0.6116 -0.0700
  745MOL0     C98261   9.289   7.841   7.895  0.3422 -0.3270  0.0406
  745MOL0     C98262   8.864   7.758   7.787  0.6490 -0.3424  0.1421
  745MOL0     C98263   8.756   7.797   7.877  0.2789 -0.8408 -0.7203
  745MOL0     C98264   8.626   7.762   7.849 -0.4422 -0.2235 -0.2977
  745MOL0     C98265   8.589   7.677   7.740 -0.5781 -0.0735 -1.0241
  745MOL0     O98266   8.459   7.633   7.736  0.4448  0.1447 -0.4487
  745MOL0     C98267   8.400   7.623   7.602 -0.5417  0.3399  0.0569
  745MOL0     C98268   8.255   7.581   7.617  0.9717 -1.1512 -0.8028
  745MOL0     C98269   8.158   7.705   7.630 -0.8174  0.3664  0.0577
  745MOL0     C98270   8.017   7.649   7.662  0.2046 -0.3810 -0.1951
  745MOL0     C98271   7.926   7.762   7.665 -0.6142  0.3611  0.3247
  745MOL0     C98272   7.856   7.861   7.673  1.3566 -0.0721  0.8728
  745MOL0     C98273   8.689   7.644   7.652  0.6410 -0.8182  0.4949
  745MOL0     C98274   8.821   7.696   7.672 -0.3997  1.0454 -0.1560
  745MOL0     H98275   9.128   7.738   8.180  0.5770 -1.6768  0.5540
  745MOL0     H98276   9.351   7.772   8.271 -1.6076 -1.0121 -0.1127
  745MOL0     H98277   9.569   8.022   8.114 -2.2185 -1.1610  1.5326
  745MOL0     H98278   9.681   7.940   7.996 -0.3058  1.2369  0.4022
  745MOL0     H98279   9.834   7.872   8.163 -3.0436 -1.1185 -1.8672
  745MOL0     H98280   9.741   7.947   8.298  2.4133 -0.3109  1.0829
  745MOL0     H98281   9.879   8.086   8.071  4.2591  0.4909  0.5617
  745MOL0     H98282   9.942   8.040   8.231  0.5823  0.6973 -0.7267
  745MOL0     H98283   9.742   8.248   8.170 -0.1242  0.3794 -0.0631
  745MOL0     H98284   9.739   8.166   8.328 -0.9800 -3.1528 -1.4722
  745MOL0     H98285   9.891   8.392   8.260  2.6122  0.6401  1.3850
  745MOL0     H98286  10.001   8.268   8.210 -0.4901 -1.3767 -1.3625
  745MOL0     H98287  10.028   8.187   8.429 -0.3254 -0.7589  1.1823
  745MOL0     H98288   9.883   8.274   8.500  3.7278 -0.1753  4.0798
  745MOL0     H98289  10.158   8.367   8.410  0.0041 -0.5944  0.4717
  745MOL0     H98290  10.022   8.468   8.397 -1.4291  0.8705  0.5704
  745MOL0     H98291  10.081   8.328   8.672 -1.4346 -0.4029 -0.2466
  745MOL0     H98292   9.951   8.428   8.637 -0.6585 -0.8157  2.3668
  745MOL0     H98293  10.350   8.461   8.649  1.8886  1.2885 -1.5436
  745MOL0     H98294  10.422   8.848   8.698  0.4739  0.0881  3.7955
  745MOL0     H98295  10.491   8.714   8.601 -0.7386  1.3669 -1.3874
  745MOL0     H98296  10.616   8.703   8.802  0.7386  1.6120 -0.6443
  745MOL0     H98297  10.468   8.599   8.844  1.6232  0.0744 -3.2114
  745MOL0     H98298  10.548   8.759   9.018 -2.2387 -1.5342  1.2825
  745MOL0     H98299  10.502   8.888   8.908 -0.9179  0.4608 -0.8730
  745MOL0     H98300  10.304   8.675   8.992 -0.9819  0.3681  2.8603
  745MOL0     H98301  10.275   8.842   8.942  0.6484  1.0128 -0.2048
  745MOL0     H98302  10.098   8.755   9.006  0.8067 -0.3841  0.5201
  745MOL0     H98303   9.891   8.806   9.079 -1.1986 -0.3032  0.9043
  745MOL0     H98304   9.598   9.112   9.391 -1.4273  1.2941 -1.2938
  745MOL0     H98305   9.368   9.098   9.478 -0.2237 -1.1494  1.2219
  745MOL0     H98306   9.020   8.817   9.491 -0.4932  2.6553  0.6250
  745MOL0     H98307   9.149   8.706   9.449 -1.1455 -0.1540 -0.0767
  745MOL0     H98308   8.992   8.744   9.256  2.8963 -2.0656 -2.4145
  745MOL0     H98309   9.136   8.812   9.216 -0.9599 -1.2137 -1.1050
  745MOL0     H98310   8.902   8.970   9.360 -0.7462  0.1434 -1.1667
  745MOL0     H98311   8.909   8.963   9.192 -0.5210 -0.5190  0.4903
  745MOL0     H98312   9.119   9.115   9.373  0.0271  0.8196  1.2456
  745MOL0     H98313   9.146   9.069   9.197 -2.7793  0.2466 -1.4992
  745MOL0     H98314   9.058   9.303   9.278  2.5563 -1.7094 -1.8517
  745MOL0     H98315   8.892   9.218   9.298 -0.3254 -0.4248  0.4700
  745MOL0     H98316   8.899   9.307   9.059 -2.2766 -0.8450  0.1651
  745MOL0     H98317   8.951   9.135   9.056 -1.6560  1.4874  0.2207
  745MOL0     H98318   9.130   9.378   9.083 -0.7075 -1.0168  1.2082
  745MOL0     H98319   9.189   9.216   9.062 -1.3547 -1.5892  0.8613
  745MOL0     H98320   9.191   9.356   8.846  1.4790 -0.6416  1.0378
  745MOL0     H98321   9.020   9.381   8.877  2.1459  2.1045  0.5903
  745MOL0     H98322   9.338   8.694   9.358  0.3624 -0.3351  3.7161
  745MOL0     H98323   9.542   8.706   9.245  0.5032  1.6480 -1.3961
  745MOL0     H98324  10.070   8.979   9.440 -2.5898  1.5808  0.9742
  745MOL0     H98325  10.286   8.936   9.350  0.3034  1.2940 -0.2665
  745MOL0     H98326   9.498   7.834   7.856  0.1942 -2.4253 -0.3443
  745MOL0     H98327   9.265   7.879   7.796 -0.9743 -0.2915  0.3554
  745MOL0     H98328   8.784   7.852   7.967 -1.3686 -1.6883  0.3644
  745MOL0     H98329   8.542   7.790   7.913  0.2950 -2.4362  1.7660
  745MOL0     H98330   8.451   7.550   7.539 -1.5750  0.1347 -0.5571
  745MOL0     H98331   8.415   7.724   7.564 -0.0001 -0.4974 -2.0730
  745MOL0     H98332   8.218   7.534   7.525 -0.4894  1.1751 -1.4858
  745MOL0     H98333   8.236   7.502   7.690 -1.4957 -0.3275 -0.4841
  745MOL0     H98334   8.167   7.771   7.543 -1.4103  0.9522  0.4310
  745MOL0     H98335   8.194   7.756   7.719  0.3955  2.2372 -1.4263
  745MOL0     H98336   7.992   7.582   7.579  2.2888  1.7412 -2.7134
  745MOL0     H98337   8.009   7.588   7.753  0.6866 -0.8224 -0.4403
  745MOL0     H98338   7.794   7.948   7.683  1.3619 -0.3528  4.7943
  745MOL0     H98339   8.673   7.579   7.567 -0.8657  0.9957 -0.7058
  745MOL0     H98340   8.883   7.680   7.585 -0.3984  3.3056 -0.6394
  746MOL0     O98341   4.101   4.915   9.160 -0.3322 -0.4548  0.5157
  746MOL0     C98342   4.120   4.796   9.163  0.0999 -0.2130  0.9870
  746MOL0     O98343   4.243   4.727   9.166 -0.0101  0.7151  0.0864
  746MOL0     C98344   4.354   4.808   9.141  1.0876  0.3957 -0.3924
  746MOL0     C98345   4.390   4.850   9.013  0.2597  0.2989 -0.1570
  746MOL0     C98346   4.499   4.940   8.997  0.2595 -0.3055  0.2485
  746MOL0     C98347   4.572   4.983   9.110  0.5123 -0.2240 -0.2671
  746MOL0     O98348   4.663   5.081   9.121 -0.8179  0.1645 -0.4448
  746MOL0     C98349   4.705   5.132   8.995  0.1548  0.1241 -0.1866
  746MOL0     C98350   4.809   5.235   9.029  0.4314 -0.7873  0.0150
  746MOL0     C98351   4.891   5.287   8.909  0.6601  0.1173  0.5599
  746MOL0     C98352   5.022   5.346   8.948 -0.6157 -0.4686  0.1977
  746MOL0     C98353   5.105   5.405   8.836 -0.3955  0.4090 -0.2902
  746MOL0     C98354   5.030   5.497   8.739  0.0126 -0.4804 -0.0070
  746MOL0     C98355   5.141   5.565   8.646  0.1555  0.0269  0.5664
  746MOL0     C98356   5.223   5.470   8.556 -0.6087  0.2758 -0.1390
  746MOL0     N98357   5.150   5.395   8.448  0.7815 -0.5194  0.0210
  746MOL0     C98358   5.021   5.419   8.404 -0.0806  0.0658 -0.3329
  746MOL0     C98359   4.989   5.317   8.326  0.1976 -0.6882 -0.3636
  746MOL0     C98360   4.860   5.295   8.257  0.3370  0.7016  0.3496
  746MOL0     C98361   4.729   5.313   8.339 -0.0800 -0.0410 -0.1794
  746MOL0     C98362   4.615   5.293   8.245 -0.0773  0.2688 -0.6427
  746MOL0     C98363   4.477   5.286   8.311  0.3312  0.7409 -1.0708
  746MOL0     O98364   4.384   5.240   8.211 -0.1265  0.2344 -0.2877
  746MOL0     C98365   4.248   5.250   8.219 -0.3437  0.0042 -0.6206
  746MOL0     C98366   4.175   5.188   8.121  0.6534  0.7551  0.3101
  746MOL0     C98367   4.029   5.197   8.122 -0.4856  0.3902 -0.4131
  746MOL0     C98368   3.962   5.252   8.235  0.4314 -0.0638 -0.0770
  746MOL0     C98369   3.817   5.252   8.237  0.2451  0.0297 -0.4304
  746MOL0     O98370   3.761   5.294   8.351  0.6541 -0.1426  0.4132
  746MOL0     C98371   3.623   5.305   8.350  1.0154 -0.0241 -0.6830
  746MOL0     C98372   3.559   5.408   8.280 -0.2190 -0.0263 -0.3205
  746MOL0     C98373   3.423   5.414   8.273 -0.3559  0.7173  0.1525
  746MOL0     C98374   3.329   5.327   8.340  0.5272 -0.5725 -0.3084
  746MOL0     O98375   3.189   5.334   8.340 -0.5068  0.1151 -0.6548
  746MOL0     C98376   3.126   5.393   8.232 -0.1615  0.5234 -0.7939
  746MOL0     C98377   2.995   5.308   8.196 -0.7199 -0.3152 -0.3771
  746MOL0     C98378   2.902   5.306   8.315  0.2496  0.2587  0.3415
  746MOL0     C98379   2.777   5.224   8.266 -0.1890 -1.3269 -0.3429
  746MOL0     C98380   2.705   5.174   8.389  0.0662 -1.0614 -0.4520
  746MOL0     C98381   2.744   5.026   8.429 -0.6509  0.4529  0.6716
  746MOL0     C98382   2.892   4.996   8.420  0.2566  0.1710 -0.0075
  746MOL0     C98383   2.919   4.845   8.425 -0.0853  0.0312 -0.3237
  746MOL0    Cl98384   2.869   4.780   8.586  0.3515 -0.0659 -0.2705
  746MOL0     C98385   3.395   5.223   8.408  0.2814 -0.7985 -0.0401
  746MOL0     C98386   3.536   5.214   8.409  0.0939  0.2381 -0.0044
  746MOL0     O98387   3.756   5.236   8.130 -0.7048  0.1368 -0.8741
  746MOL0     C98388   4.045   5.311   8.332  0.2182 -0.6973  0.6413
  746MOL0     C98389   4.186   5.303   8.335 -0.4346  0.2850  0.5450
  746MOL0     N98390   5.099   5.231   8.319  0.3783 -0.4977  0.2186
  746MOL0     N98391   5.194   5.275   8.391  0.8226 -0.0043 -0.5152
  746MOL0     C98392   4.530   4.939   9.236  0.2068  0.1568 -0.0899
  746MOL0     C98393   4.423   4.849   9.248  1.0446 -0.7044 -0.3975
  746MOL0     C98394   4.001   4.711   9.169 -0.5865  0.3133 -0.4788
  746MOL0     C98395   3.893   4.742   9.251  0.3957  0.1505  0.1401
  746MOL0     C98396   3.796   4.647   9.283 -0.0909 -0.6800  0.1923
  746MOL0     C98397   3.809   4.519   9.241 -0.2883  0.2034 -0.4472
  746MOL0     O98398   3.714   4.432   9.286  0.0006 -0.0531 -0.0104
  746MOL0     C98399   3.594   4.431   9.207  0.0219  0.8027  0.0966
  746MOL0     C98400   3.473   4.452   9.298  0.8396  0.1034  0.5957
  746MOL0     C98401   3.487   4.361   9.412 -0.7479  0.6357  0.4343
  746MOL0     C98402   3.356   4.301   9.459  0.0623  0.1172 -0.2840
  746MOL0     C98403   3.313   4.199   9.369 -0.3832 -0.2120 -0.0910
  746MOL0     C98404   3.283   4.106   9.293 -0.6654  0.0948 -0.6024
  746MOL0     C98405   3.910   4.480   9.148  0.2866 -0.3906  0.0433
  746MOL0     C98406   4.003   4.575   9.117  0.3863  0.7206  0.9117
  746MOL0     H98407   4.355   4.803   8.922  1.7480  0.0277 -0.6107
  746MOL0     H98408   4.527   4.972   8.897 -0.9133 -0.1487 -0.0414
  746MOL0     H98409   4.623   5.179   8.941  0.7510  2.2090  0.6438
  746MOL0     H98410   4.746   5.052   8.931  0.2727 -1.3917  1.6920
  746MOL0     H98411   4.881   5.185   9.095  1.5237  1.2283  0.4248
  746MOL0     H98412   4.771   5.322   9.083  1.8248  0.4182 -0.8359
  746MOL0     H98413   4.837   5.355   8.842 -0.8550  0.0199  1.6375
  746MOL0     H98414   4.906   5.196   8.851  0.1012  1.2885 -1.5184
  746MOL0     H98415   5.003   5.430   9.016  0.3118  1.1573 -1.4433
  746MOL0     H98416   5.082   5.265   8.990 -0.5252 -2.4918 -3.3696
  746MOL0     H98417   5.150   5.326   8.774 -0.6329  1.5290 -1.9544
  746MOL0     H98418   5.188   5.458   8.884 -1.3077 -0.9400  3.1045
  746MOL0     H98419   4.971   5.569   8.797  0.1506  0.4534 -0.9792
  746MOL0     H98420   4.956   5.438   8.684 -0.0887 -2.0008  1.6715
  746MOL0     H98421   5.096   5.638   8.578  1.6970 -1.8815 -2.7011
  746MOL0     H98422   5.206   5.622   8.713  1.6084 -0.3023 -0.5410
  746MOL0     H98423   5.281   5.405   8.621 -0.4383 -0.7864 -1.3080
  746MOL0     H98424   5.305   5.535   8.522 -0.5427  1.2416  1.7272
  746MOL0     H98425   4.949   5.490   8.443 -0.8309 -0.4809 -0.6896
  746MOL0     H98426   4.867   5.193   8.219  1.4314  1.7223 -2.4581
  746MOL0     H98427   4.853   5.368   8.176  0.1595 -1.2968 -1.5113
  746MOL0     H98428   4.724   5.414   8.379  1.4859 -0.3844  1.0351
  746MOL0     H98429   4.734   5.243   8.424  1.5186  2.3771  1.8793
  746MOL0     H98430   4.612   5.380   8.179 -1.7943 -0.4597 -1.5928
  746MOL0     H98431   4.628   5.198   8.193  0.4924 -0.6454  1.0902
  746MOL0     H98432   4.455   5.388   8.344  0.5754 -0.1982  2.3590
  746MOL0     H98433   4.470   5.223   8.400 -2.7169  0.9967 -1.0299
  746MOL0     H98434   4.232   5.136   8.044 -1.2251  0.0980 -0.7187
  746MOL0     H98435   3.997   5.150   8.030  0.7668 -2.2873  0.4039
  746MOL0     H98436   3.616   5.493   8.244 -0.7601 -0.1865 -1.6002
  746MOL0     H98437   3.378   5.500   8.226 -2.1490 -0.7891 -1.0302
  746MOL0     H98438   3.187   5.396   8.141 -0.4205  2.3902 -0.9449
  746MOL0     H98439   3.107   5.498   8.255  2.1278  0.6910  0.7064
  746MOL0     H98440   3.028   5.207   8.172  0.7617  0.2850 -1.0026
  746MOL0     H98441   2.951   5.340   8.102 -1.6426 -1.8327 -0.4869
  746MOL0     H98442   2.876   5.411   8.330 -1.0165 -0.1357  1.1271
  746MOL0     H98443   2.952   5.266   8.404  1.7182  0.5460 -0.3336
  746MOL0     H98444   2.717   5.296   8.209  2.1460  0.2251 -0.9561
  746MOL0     H98445   2.797   5.150   8.189 -2.4912 -0.6602 -1.6865
  746MOL0     H98446   2.597   5.165   8.378 -0.1798 -0.2407  1.0339
  746MOL0     H98447   2.710   5.238   8.478  0.2930 -1.9710  0.2114
  746MOL0     H98448   2.695   4.967   8.351  0.3378  0.9516 -0.3524
  746MOL0     H98449   2.700   4.990   8.522 -0.8036 -1.9303 -0.2733
  746MOL0     H98450   2.933   5.030   8.324 -1.2652  0.1333 -0.7049
  746MOL0     H98451   2.955   5.034   8.501 -2.1160 -1.3320  2.7019
  746MOL0     H98452   3.024   4.825   8.402 -0.1461  0.5210 -1.0403
  746MOL0     H98453   2.856   4.794   8.352  1.3809  0.5100 -1.9753
  746MOL0     H98454   3.330   5.163   8.471  0.4388  1.0731  2.0458
  746MOL0     H98455   3.578   5.122   8.448  0.4412 -1.2269 -3.3935
  746MOL0     H98456   3.995   5.349   8.420  0.8000 -1.4781  1.3289
  746MOL0     H98457   4.252   5.346   8.409  0.1080  1.4501 -0.5856
  746MOL0     H98458   4.576   4.975   9.327  4.6629 -0.1945 -1.9663
  746MOL0     H98459   4.376   4.821   9.341  1.5888  0.1472  0.1514
  746MOL0     H98460   3.885   4.844   9.287  0.4417 -0.3985  1.7847
  746MOL0     H98461   3.704   4.668   9.337 -0.3232  1.2299 -0.8504
  746MOL0     H98462   3.589   4.336   9.155  2.2550 -0.3156  1.7559
  746MOL0     H98463   3.599   4.507   9.128 -2.3691 -0.6643 -1.5823
  746MOL0     H98464   3.458   4.555   9.332  0.5551 -0.2111  1.4535
  746MOL0     H98465   3.391   4.425   9.232  0.8267  0.9915  0.2426
  746MOL0     H98466   3.536   4.417   9.491  0.4459  0.9362 -0.4939
  746MOL0     H98467   3.559   4.282   9.389 -0.5972  1.1387 -0.9232
  746MOL0     H98468   3.375   4.271   9.562  0.3911 -1.2519 -0.7264
  746MOL0     H98469   3.279   4.379   9.466 -2.1910 -2.0953  1.6169
  746MOL0     H98470   3.254   4.023   9.233 -0.7804  1.2587 -2.2150
  746MOL0     H98471   3.925   4.379   9.111 -0.7062  0.0293 -1.6032
  746MOL0     H98472   4.090   4.559   9.054 -0.8106  1.0143 -0.8571
  747MOL0     O98473   8.154   0.983   7.350 -0.3152  0.6667  0.2883
  747MOL0     C98474   8.248   0.916   7.302  0.5970 -0.2485 -0.1115
  747MOL0     O98475   8.226   0.834   7.195 -0.3100 -0.5213 -0.0369
  747MOL0     C98476   8.089   0.809   7.157 -0.2233  0.0735  0.6398
  747MOL0     C98477   7.983   0.790   7.237 -0.5991 -0.0359  0.2922
  747MOL0     C98478   7.861   0.757   7.192 -0.1865 -0.6381 -0.2413
  747MOL0     C98479   7.840   0.746   7.059  0.7992  1.1401  0.3412
  747MOL0     O98480   7.708   0.703   7.013  0.0643  0.1383  0.7286
  747MOL0     C98481   7.668   0.727   6.875  0.5503 -0.4876  0.1743
  747MOL0     C98482   7.536   0.811   6.872  0.2686  0.5324  0.7354
  747MOL0     C98483   7.574   0.957   6.863  0.7868 -0.3332 -0.2009
  747MOL0     C98484   7.439   1.040   6.851 -0.2216  0.2719  0.1230
  747MOL0     C98485   7.371   1.010   6.712 -0.3464 -0.3160 -0.1226
  747MOL0     C98486   7.269   1.113   6.664  0.1275  1.2939  0.0274
  747MOL0     C98487   7.140   1.123   6.757 -0.6891 -0.3423  0.5139
  747MOL0     C98488   7.086   1.261   6.780 -1.4190  0.8210 -0.3076
  747MOL0     N98489   6.945   1.256   6.807  0.0946  0.8212  0.4705
  747MOL0     C98490   6.898   1.176   6.912  0.5577 -0.0649  0.6214
  747MOL0     C98491   6.765   1.177   6.889  0.0474  0.2273  0.3436
  747MOL0     C98492   6.668   1.109   6.978  0.6591  0.2670 -0.0615
  747MOL0     C98493   6.638   1.202   7.106  0.2592 -0.6871  0.7764
  747MOL0     C98494   6.579   1.340   7.082 -0.1530  0.0215  0.4221
  747MOL0     C98495   6.433   1.335   7.050  0.0086 -0.0713  0.4539
  747MOL0     O98496   6.367   1.284   7.167 -0.3708  0.1096  0.2530
  747MOL0     C98497   6.232   1.273   7.175 -0.4908  0.5201 -0.1766
  747MOL0     C98498   6.181   1.178   7.261 -0.1258  0.0339 -0.2285
  747MOL0     C98499   6.037   1.178   7.276  0.3720 -0.9486 -0.4719
  747MOL0     C98500   5.948   1.273   7.226 -0.4186  0.0549  0.4604
  747MOL0     C98501   5.800   1.261   7.251 -0.3592  0.0009  0.5577
  747MOL0     O98502   5.721   1.365   7.216  0.6406 -0.6588  0.2675
  747MOL0     C98503   5.587   1.339   7.204  0.0759  0.2868  0.0405
  747MOL0     C98504   5.498   1.406   7.292  0.2131  0.4360 -0.7126
  747MOL0     C98505   5.357   1.378   7.285  0.4839 -0.3003  0.4120
  747MOL0     C98506   5.312   1.296   7.180 -0.3326 -0.8600  0.5192
  747MOL0     O98507   5.180   1.264   7.170  0.3821  0.5757  0.9081
  747MOL0     C98508   5.085   1.362   7.174 -0.2052 -0.0503  1.0300
  747MOL0     C98509   4.964   1.315   7.090  0.1329 -0.0185 -0.5678
  747MOL0     C98510   4.852   1.425   7.072  1.3692 -0.7256 -0.3417
  747MOL0     C98511   4.759   1.399   6.956 -0.4365  0.0285 -0.7409
  747MOL0     C98512   4.677   1.523   6.938  0.1350 -0.3809  0.0860
  747MOL0     C98513   4.568   1.501   6.824 -0.3690  0.1268 -0.4455
  747MOL0     C98514   4.487   1.630   6.833  0.3906 -0.6803  0.8560
  747MOL0     C98515   4.421   1.667   6.707 -0.1154  0.1790 -0.1787
  747MOL0    Cl98516   4.327   1.815   6.749  0.1092 -0.4306 -0.2079
  747MOL0     C98517   5.405   1.211   7.106  0.7382 -0.3365  0.6342
  747MOL0     C98518   5.536   1.244   7.116  0.2711  0.6546 -0.3128
  747MOL0     O98519   5.756   1.152   7.297 -0.0939 -1.0366  0.4508
  747MOL0     C98520   6.006   1.360   7.134  0.5346 -0.1741 -0.8206
  747MOL0     C98521   6.149   1.355   7.109  0.8331 -0.4010 -0.4776
  747MOL0     N98522   6.732   1.241   6.772 -0.2753 -0.0722  0.0089
  747MOL0     N98523   6.839   1.287   6.721  0.1373  0.8157 -0.5114
  747MOL0     C98524   7.948   0.764   6.968  0.8102  0.0621 -0.5409
  747MOL0     C98525   8.073   0.797   7.020  0.6214  0.4785 -0.4201
  747MOL0     C98526   8.387   0.954   7.338 -0.0632  0.5508 -0.2043
  747MOL0     C98527   8.415   0.987   7.470 -0.4975 -0.0769 -0.5908
  747MOL0     C98528   8.540   1.026   7.512  0.3360  0.8131 -0.5289
  747MOL0     C98529   8.646   1.035   7.425  0.6263 -0.0997  0.4974
  747MOL0     O98530   8.772   1.087   7.450 -0.0161  0.1736 -0.3427
  747MOL0     C98531   8.798   1.160   7.576 -0.2644 -0.1346 -0.1464
  747MOL0     C98532   8.835   1.065   7.694  0.6283 -0.4461 -0.7937
  747MOL0     C98533   8.911   1.137   7.804  0.0658  0.4902 -0.2085
  747MOL0     C98534   8.836   1.228   7.895  1.1773 -0.1842  0.0873
  747MOL0     C98535   8.930   1.315   7.961 -0.0687 -0.2459  0.8273
  747MOL0     C98536   8.990   1.400   8.021 -0.0897 -0.6230  0.4252
  747MOL0     C98537   8.620   0.997   7.298  0.7644 -1.0812  0.4883
  747MOL0     C98538   8.491   0.969   7.250  0.8793  0.4062 -0.0159
  747MOL0     H98539   7.997   0.799   7.345 -2.4850  1.0184  0.5073
  747MOL0     H98540   7.772   0.747   7.253  0.3437  0.2173  0.7010
  747MOL0     H98541   7.641   0.633   6.826 -0.0442  0.2283 -0.9090
  747MOL0     H98542   7.744   0.776   6.814 -2.9020  4.6438 -0.6315
  747MOL0     H98543   7.469   0.785   6.954  1.9663 -1.6649  1.5305
  747MOL0     H98544   7.493   0.791   6.774  0.2678  1.5995  0.5070
  747MOL0     H98545   7.636   0.970   6.774  1.3366 -3.6806 -0.4454
  747MOL0     H98546   7.624   0.985   6.956  0.5706 -2.9536  0.8034
  747MOL0     H98547   7.361   1.013   6.922 -1.5841  3.0673 -0.1699
  747MOL0     H98548   7.462   1.147   6.850  1.8077 -0.1295 -1.0973
  747MOL0     H98549   7.338   0.906   6.716 -1.0504 -0.0571  1.8163
  747MOL0     H98550   7.447   1.005   6.633  0.4556  1.7731  0.4436
  747MOL0     H98551   7.239   1.084   6.563  0.0754  0.8407  0.1734
  747MOL0     H98552   7.316   1.212   6.657 -2.5391  2.6410 -0.2034
  747MOL0     H98553   7.062   1.059   6.715  1.3460 -1.9099 -1.1274
  747MOL0     H98554   7.168   1.089   6.857 -1.1436  2.1259  1.5471
  747MOL0     H98555   7.109   1.319   6.690  1.6638 -0.5189 -0.5120
  747MOL0     H98556   7.142   1.312   6.859 -0.6764 -0.3870 -0.0303
  747MOL0     H98557   6.955   1.126   6.990 -1.9002 -2.6160  0.9602
  747MOL0     H98558   6.719   1.020   7.017  2.0025 -0.3470 -2.9832
  747MOL0     H98559   6.582   1.070   6.924  0.5152  0.5019 -0.0001
  747MOL0     H98560   6.730   1.227   7.160  1.5706  2.6427 -2.5394
  747MOL0     H98561   6.562   1.149   7.165 -1.0241 -0.0018 -0.2058
  747MOL0     H98562   6.589   1.405   7.170 -0.3472 -0.1532  0.5759
  747MOL0     H98563   6.637   1.392   7.006  1.4492 -1.3458  0.6608
  747MOL0     H98564   6.419   1.269   6.964 -0.6983  0.3845  0.2079
  747MOL0     H98565   6.394   1.432   7.018  1.7200 -0.3674 -3.0434
  747MOL0     H98566   6.240   1.105   7.315 -2.6765 -2.7093 -0.8524
  747MOL0     H98567   6.006   1.099   7.344  0.8378  0.0439  0.9298
  747MOL0     H98568   5.530   1.479   7.366  1.7969 -1.6044  0.7476
  747MOL0     H98569   5.289   1.429   7.352  0.2831  0.7716 -0.5882
  747MOL0     H98570   5.137   1.448   7.131  0.6768  0.0096  2.1712
  747MOL0     H98571   5.045   1.380   7.274 -1.9603 -0.6212  0.4619
  747MOL0     H98572   4.914   1.234   7.143 -0.3443  0.1528 -0.7525
  747MOL0     H98573   4.992   1.283   6.989 -3.4832  1.0792 -2.0782
  747MOL0     H98574   4.899   1.523   7.061  0.1110 -0.1449 -0.6823
  747MOL0     H98575   4.788   1.413   7.160 -1.1420  0.4704 -1.9014
  747MOL0     H98576   4.823   1.391   6.867  0.3391  2.8490 -0.5288
  747MOL0     H98577   4.698   1.312   6.981  1.6866 -1.3003  0.0363
  747MOL0     H98578   4.743   1.604   6.904 -0.6395 -0.2423 -1.1640
  747MOL0     H98579   4.618   1.551   7.026 -1.2548  0.9521 -1.2084
  747MOL0     H98580   4.510   1.412   6.850  0.0486 -0.0879 -0.2497
  747MOL0     H98581   4.619   1.491   6.728 -1.5390  1.2722 -1.2273
  747MOL0     H98582   4.417   1.621   6.917  1.3566  0.8873  1.8718
  747MOL0     H98583   4.557   1.711   6.854 -2.1342  2.0343 -0.4069
  747MOL0     H98584   4.346   1.597   6.669 -0.8148  0.6815  0.2500
  747MOL0     H98585   4.492   1.681   6.625 -0.2841 -2.6216 -0.8920
  747MOL0     H98586   5.355   1.140   7.041 -1.7564  0.9374  1.0088
  747MOL0     H98587   5.605   1.189   7.052 -2.0042 -1.4356 -1.1523
  747MOL0     H98588   5.948   1.428   7.071  1.0273 -1.8847 -3.2326
  747MOL0     H98589   6.197   1.414   7.031  0.0567 -1.6618 -1.9477
  747MOL0     H98590   7.935   0.752   6.861 -0.6861  1.3880 -0.5444
  747MOL0     H98591   8.151   0.807   6.946 -0.1978 -1.4283 -1.6192
  747MOL0     H98592   8.336   0.978   7.544 -2.0280 -0.7101 -2.2290
  747MOL0     H98593   8.560   1.046   7.617  1.8474 -1.8145 -0.2133
  747MOL0     H98594   8.713   1.224   7.603 -0.8253 -1.2260  0.8091
  747MOL0     H98595   8.889   1.216   7.553 -1.1508  0.0204 -3.8870
  747MOL0     H98596   8.753   1.008   7.739  0.4611  0.2086 -0.2599
  747MOL0     H98597   8.896   0.985   7.651  0.8515 -0.6791 -0.0578
  747MOL0     H98598   8.985   1.195   7.749 -1.3248  0.7629 -1.8842
  747MOL0     H98599   8.961   1.063   7.868  1.4157 -0.1192 -1.8698
  747MOL0     H98600   8.777   1.302   7.840 -0.0551 -0.1484  1.4078
  747MOL0     H98601   8.770   1.172   7.962 -0.8705 -0.1760 -1.7771
  747MOL0     H98602   9.051   1.475   8.068 -1.0775 -0.0252  0.7808
  747MOL0     H98603   8.697   1.000   7.222  0.0259 -1.2001 -0.2728
  747MOL0     H98604   8.471   0.956   7.145  0.5547  0.3980  0.0467
  748MOL0     O98605   7.888   0.719   9.792  0.1004  0.1184 -0.2307
  748MOL0     C98606   8.000   0.768   9.816 -0.6348  0.3974 -0.8949
  748MOL0     O98607   8.046   0.804   9.948 -0.1983  0.5462 -0.0496
  748MOL0     C98608   7.952   0.785  10.050  0.0810  0.0718  0.0825
  748MOL0     C98609   7.905   0.663  10.092 -0.0416 -0.0029 -0.1763
  748MOL0     C98610   7.822   0.656  10.204 -0.3593 -0.4301 -0.6656
  748MOL0     C98611   7.776   0.768  10.275  0.1608 -0.1487  0.1866
  748MOL0     O98612   7.695   0.768  10.389  0.4439 -0.4835  0.2517
  748MOL0     C98613   7.609   0.647  10.410 -0.5083  0.1180 -0.5206
  748MOL0     C98614   7.491   0.641  10.317  0.3912  0.7229  0.2142
  748MOL0     C98615   7.403   0.754  10.353  0.6595  0.5905 -0.6488
  748MOL0     C98616   7.300   0.766  10.234 -0.6059 -0.8634 -0.1778
  748MOL0     C98617   7.214   0.896  10.247  1.3239 -0.5075  0.2685
  748MOL0     C98618   7.145   0.934  10.112  0.3966  0.6208 -0.8807
  748MOL0     C98619   7.054   1.063  10.119  0.0241 -1.0644 -0.2976
  748MOL0     C98620   6.967   1.080   9.995  0.2091  0.3552 -0.8317
  748MOL0     N98621   6.885   0.962   9.969 -0.1663  0.0199 -0.1428
  748MOL0     C98622   6.814   0.889  10.064  0.7634 -0.3775  0.9685
  748MOL0     C98623   6.744   0.804   9.988  0.1032 -0.0652 -0.2825
  748MOL0     C98624   6.633   0.729  10.028  0.7386  0.9158 -1.2278
  748MOL0     C98625   6.513   0.823  10.049 -0.5128 -0.2421 -0.1422
  748MOL0     C98626   6.393   0.738  10.077 -0.0624 -0.2269 -0.1405
  748MOL0     C98627   6.268   0.814  10.055  0.7593  0.2973 -0.2878
  748MOL0     O98628   6.158   0.754  10.129 -0.4448  0.5886  1.2066
  748MOL0     C98629   6.029   0.788  10.105 -0.1648  0.2316  0.2334
  748MOL0     C98630   5.933   0.704  10.158 -0.2301 -0.8679 -0.6959
  748MOL0     C98631   5.798   0.731  10.134 -0.1057 -0.1260 -1.2175
  748MOL0     C98632   5.755   0.840  10.062 -0.2918  0.5092  0.7591
  748MOL0     C98633   5.610   0.862  10.041  0.1190 -0.3661 -0.1850
  748MOL0     O98634   5.526   0.802  10.133 -0.5500 -0.8682 -0.7238
  748MOL0     C98635   5.392   0.812  10.146 -0.1214  0.4754  0.5169
  748MOL0     C98636   5.312   0.907  10.090 -0.0925  0.1478  0.0890
  748MOL0     C98637   5.175   0.892  10.100  0.6002 -0.3957  0.1638
  748MOL0     C98638   5.116   0.790  10.192 -0.3786 -0.6262  0.2035
  748MOL0     O98639   4.981   0.753  10.213 -0.3667 -0.2792  0.1319
  748MOL0     C98640   4.888   0.862  10.184 -0.7048 -0.1474 -0.2702
  748MOL0     C98641   4.758   0.827  10.259 -1.3380  0.2458 -0.3149
  748MOL0     C98642   4.669   0.716  10.204  0.0812  0.1337  0.1411
  748MOL0     C98643   4.529   0.701  10.265  0.5192  0.2913  0.3221
  748MOL0     C98644   4.472   0.826  10.324 -0.0020  0.0148 -0.1097
  748MOL0     C98645   4.345   0.780  10.402 -0.2936 -0.4497  0.7015
  748MOL0     C98646   4.280   0.890  10.484 -0.3423  0.4294  0.6406
  748MOL0     C98647   4.198   0.819  10.595 -0.6177 -0.3021  0.5261
  748MOL0    Cl98648   4.131   0.940  10.696 -0.1759 -0.2508  0.1899
  748MOL0     C98649   5.203   0.702  10.255 -0.2715  0.2554  0.5237
  748MOL0     C98650   5.337   0.716  10.228 -0.6229  0.4706  0.5437
  748MOL0     O98651   5.576   0.935   9.950  0.4797 -0.6999 -0.4220
  748MOL0     C98652   5.848   0.920   9.999  0.7687  0.0779  0.1448
  748MOL0     C98653   5.987   0.895  10.031  0.5067 -0.2687 -0.1474
  748MOL0     N98654   6.779   0.812   9.858  0.3302  0.1920  0.8879
  748MOL0     N98655   6.858   0.912   9.842  0.3324 -0.5514  0.2696
  748MOL0     C98656   7.839   0.888  10.238  0.4510 -0.2775  0.9631
  748MOL0     C98657   7.921   0.896  10.120  0.5621  0.4582 -0.0213
  748MOL0     C98658   8.102   0.778   9.707  0.2862 -1.2706  0.4003
  748MOL0     C98659   8.229   0.819   9.738  0.1835  0.7817 -0.0500
  748MOL0     C98660   8.319   0.845   9.638 -0.1708  0.4456 -0.3748
  748MOL0     C98661   8.283   0.808   9.504 -0.2814  0.5506 -0.0378
  748MOL0     O98662   8.374   0.798   9.401  0.0852 -0.8544 -0.1084
  748MOL0     C98663   8.523   0.807   9.441 -0.9081 -0.6262  1.1298
  748MOL0     C98664   8.570   0.692   9.524 -0.3495 -0.1895 -0.0382
  748MOL0     C98665   8.546   0.561   9.456  0.4427  0.7318 -0.5555
  748MOL0     C98666   8.410   0.490   9.483  0.1907  0.1419 -0.5563
  748MOL0     C98667   8.359   0.448   9.351  0.0258 -0.1810  0.0089
  748MOL0     C98668   8.309   0.413   9.245 -0.5357  0.0125  0.5181
  748MOL0     C98669   8.151   0.769   9.471 -0.5541  0.2387 -0.3042
  748MOL0     C98670   8.064   0.750   9.577  0.5840 -0.0856  0.0413
  748MOL0     H98671   7.932   0.580  10.027 -0.6371  1.0455 -1.8435
  748MOL0     H98672   7.793   0.553  10.220 -1.1214 -0.2488 -0.8596
  748MOL0     H98673   7.566   0.653  10.510 -0.2907  1.6168 -0.4919
  748MOL0     H98674   7.667   0.555  10.404 -1.6972 -0.5907 -1.8150
  748MOL0     H98675   7.435   0.549  10.338  0.1446  1.0788  1.1657
  748MOL0     H98676   7.528   0.651  10.215  2.2968  2.3519  0.9800
  748MOL0     H98677   7.443   0.856  10.364 -2.3260  1.9263 -1.2912
  748MOL0     H98678   7.357   0.733  10.450 -0.8382 -1.1284 -1.6686
  748MOL0     H98679   7.360   0.782  10.144 -3.2616  0.5657 -1.8414
  748MOL0     H98680   7.241   0.675  10.223  0.9776 -1.9768  0.3326
  748MOL0     H98681   7.258   0.989  10.284 -2.3064  1.3910  0.2671
  748MOL0     H98682   7.127   0.875  10.311  1.1170 -1.1294 -0.2185
  748MOL0     H98683   7.094   0.842  10.081  1.1644  0.1738 -0.8424
  748MOL0     H98684   7.227   0.951  10.042  0.9822  1.7437  0.0487
  748MOL0     H98685   6.991   1.058  10.208  0.3051  2.0948  0.2001
  748MOL0     H98686   7.120   1.149  10.136  0.6410 -1.6450  0.3070
  748MOL0     H98687   7.025   1.095   9.903 -2.3601  0.5372 -2.5164
  748MOL0     H98688   6.906   1.171   9.993 -0.0658  0.1771 -0.6524
  748MOL0     H98689   6.805   0.919  10.168  1.5725  1.8269  0.4552
  748MOL0     H98690   6.651   0.674  10.121  1.4057 -1.2674 -2.5619
  748MOL0     H98691   6.623   0.646   9.957  2.9510 -2.8400  2.4178
  748MOL0     H98692   6.496   0.877   9.956 -2.6573 -1.6728 -0.6474
  748MOL0     H98693   6.527   0.881  10.141 -0.6938 -0.7147  0.1880
  748MOL0     H98694   6.387   0.647  10.016 -0.8905  0.4185 -1.0472
  748MOL0     H98695   6.405   0.702  10.180 -1.1736 -0.8476 -0.2200
  748MOL0     H98696   6.247   0.825   9.949 -1.5568 -0.1205  0.0743
  748MOL0     H98697   6.273   0.913  10.102 -0.6445 -0.0380  0.6283
  748MOL0     H98698   5.965   0.618  10.217  0.4153 -0.0378  0.1870
  748MOL0     H98699   5.729   0.660  10.178  0.3537 -1.6515 -2.8380
  748MOL0     H98700   5.356   0.982  10.025 -0.3317 -0.7094 -1.1003
  748MOL0     H98701   5.107   0.972  10.069 -0.1616  0.4637  3.6743
  748MOL0     H98702   4.859   0.866  10.078  1.9087  1.7890 -1.0115
  748MOL0     H98703   4.909   0.964  10.217 -1.4989 -0.4508  1.2544
  748MOL0     H98704   4.704   0.922  10.249 -0.6935  0.4868 -1.7099
  748MOL0     H98705   4.791   0.799  10.360  1.8235  1.1964 -0.9734
  748MOL0     H98706   4.722   0.621  10.217 -0.2999  0.1075  1.8010
  748MOL0     H98707   4.659   0.731  10.097  0.7103  1.3397  0.2266
  748MOL0     H98708   4.460   0.651  10.197  1.3940 -2.4410  1.3149
  748MOL0     H98709   4.546   0.621  10.338 -0.6144  0.1343  0.4390
  748MOL0     H98710   4.461   0.895  10.240 -0.8169 -2.5568 -2.2326
  748MOL0     H98711   4.542   0.864  10.400 -1.6738  1.4740  0.7913
  748MOL0     H98712   4.361   0.694  10.469 -1.9276 -1.6456 -0.3705
  748MOL0     H98713   4.265   0.751  10.334  0.0931 -0.5256  0.2730
  748MOL0     H98714   4.351   0.964  10.522 -1.0459  2.7333 -2.1969
  748MOL0     H98715   4.223   0.962  10.424 -0.2769  0.2775  0.3958
  748MOL0     H98716   4.262   0.754  10.656 -1.2086 -0.3919  1.0578
  748MOL0     H98717   4.124   0.749  10.554  0.9387 -1.9723  0.4465
  748MOL0     H98718   5.160   0.629  10.323  0.7787 -0.2977  0.6114
  748MOL0     H98719   5.407   0.646  10.272  2.2998  4.1134  2.2781
  748MOL0     H98720   5.835   1.009   9.938  1.0475  1.5936  2.1937
  748MOL0     H98721   6.055   0.969   9.989 -0.5554  2.7144  2.9584
  748MOL0     H98722   7.814   0.974  10.299  0.1295  2.3663 -2.5638
  748MOL0     H98723   7.964   0.994  10.104 -0.0080  0.3180 -3.0970
  748MOL0     H98724   8.241   0.841   9.844 -0.2582 -2.8603  0.8907
  748MOL0     H98725   8.421   0.872   9.660  0.7717 -1.8740 -1.6087
  748MOL0     H98726   8.541   0.900   9.495 -1.3115  1.7627 -2.5116
  748MOL0     H98727   8.582   0.806   9.348  2.3753 -1.8179  3.0284
  748MOL0     H98728   8.678   0.705   9.534 -0.3785  0.1801 -0.1729
  748MOL0     H98729   8.530   0.690   9.626  1.9656  0.0448  0.9510
  748MOL0     H98730   8.615   0.482   9.487 -1.5711  0.0950  2.8935
  748MOL0     H98731   8.559   0.581   9.349 -0.0456  0.8406 -0.5949
  748MOL0     H98732   8.429   0.399   9.540 -0.9956  1.0020  1.3532
  748MOL0     H98733   8.340   0.547   9.545  1.1761 -0.2604  0.9880
  748MOL0     H98734   8.255   0.378   9.160 -0.5070 -1.6788  1.1670
  748MOL0     H98735   8.111   0.741   9.374  1.2419 -0.2995 -0.9171
  748MOL0     H98736   7.968   0.699   9.572  1.8137 -2.7473  1.3940
  749MOL0     O98737   6.851  10.132   9.684 -0.1523  0.4907 -0.2826
  749MOL0     C98738   6.897  10.229   9.742 -0.2222 -0.1909 -0.3848
  749MOL0     O98739   6.825  10.336   9.786 -0.0163 -0.4568 -0.7280
  749MOL0     C98740   6.688  10.326   9.774 -0.4468 -0.5472  0.6967
  749MOL0     C98741   6.622  10.334   9.645 -0.0087 -0.3140  0.0592
  749MOL0     C98742   6.479  10.336   9.643 -0.3247 -0.2090 -0.7323
  749MOL0     C98743   6.412  10.329   9.763 -0.6121  0.6096  0.1943
  749MOL0     O98744   6.277  10.349   9.776  0.2263  0.5602 -0.3474
  749MOL0     C98745   6.207  10.359   9.654 -0.2070  0.0641  0.6032
  749MOL0     C98746   6.061  10.350   9.696  0.0937  0.1095 -0.6673
  749MOL0     C98747   5.964  10.340   9.584 -0.1433 -0.5665 -0.9106
  749MOL0     C98748   5.825  10.318   9.627  0.0425  0.6418 -0.4935
  749MOL0     C98749   5.746  10.267   9.509  0.7679  0.4393 -0.8896
  749MOL0     C98750   5.595  10.233   9.552 -0.6655 -0.0867  0.2035
  749MOL0     C98751   5.507  10.354   9.579 -0.0016 -0.5802 -0.1884
  749MOL0     C98752   5.404  10.319   9.679  0.0995 -0.0570  1.4750
  749MOL0     N98753   5.323  10.437   9.708 -0.0692 -0.7523 -0.3571
  749MOL0     C98754   5.187  10.455   9.693 -0.4390 -0.0463  0.1767
  749MOL0     C98755   5.162  10.585   9.749  0.1910  1.5242 -0.1842
  749MOL0     C98756   5.030  10.648   9.768 -0.0228  0.6204 -0.9185
  749MOL0     C98757   4.924  10.567   9.848  0.1479  0.0647 -0.5073
  749MOL0     C98758   4.808  10.648   9.915 -0.8035  0.1619  0.0679
  749MOL0     C98759   4.723  10.554   9.997 -0.3268 -0.2225  0.8990
  749MOL0     O98760   4.609  10.628  10.045 -0.2718  0.1944 -0.4081
  749MOL0     C98761   4.491  10.625   9.983  0.0893  0.2883  0.9581
  749MOL0     C98762   4.383  10.678  10.061  0.5007 -0.1473  0.5701
  749MOL0     C98763   4.255  10.704   9.998  0.2775  0.5831 -0.0806
  749MOL0     C98764   4.236  10.651   9.866 -0.1584  1.9873  0.3497
  749MOL0     C98765   4.099  10.661   9.801 -0.4661 -0.2519  0.0063
  749MOL0     O98766   4.087  10.580   9.687 -0.5366 -0.2901  0.1192
  749MOL0     C98767   3.964  10.574   9.628 -0.2791 -0.2010  0.1948
  749MOL0     C98768   3.963  10.610   9.500 -0.1257  0.0317  0.2153
  749MOL0     C98769   3.848  10.601   9.424 -0.4292 -0.3609  0.0128
  749MOL0     C98770   3.727  10.556   9.486  0.3919  0.2150 -0.0138
  749MOL0     O98771   3.601  10.560   9.426 -0.5196 -0.2948 -0.1835
  749MOL0     C98772   3.581  10.658   9.333  1.0942  0.1621 -0.0799
  749MOL0     C98773   3.433  10.686   9.308 -0.2470 -1.2163  0.6584
  749MOL0     C98774   3.366  10.565   9.248 -0.3258 -0.5611 -0.1375
  749MOL0     C98775   3.216  10.583   9.221  0.0181 -0.3327  0.0866
  749MOL0     C98776   3.152  10.441   9.218  0.3286  0.5651 -0.8842
  749MOL0     C98777   2.994  10.447   9.213 -0.4151 -0.1220 -0.3075
  749MOL0     C98778   2.926  10.312   9.217  0.4222 -0.2510  0.2243
  749MOL0     C98779   2.781  10.331   9.281 -0.0868  0.3163  0.1163
  749MOL0    Cl98780   2.781  10.378   9.454 -0.0681 -0.1099  0.4626
  749MOL0     C98781   3.731  10.516   9.619 -0.1700 -0.1530 -0.5864
  749MOL0     C98782   3.848  10.526   9.694 -0.5476 -0.7064  0.0668
  749MOL0     O98783   4.016  10.747   9.842  0.2817  0.2896  0.0279
  749MOL0     C98784   4.337  10.569   9.800  0.5358 -0.6195 -0.1466
  749MOL0     C98785   4.462  10.570   9.857 -0.0355  0.7825  0.5906
  749MOL0     N98786   5.278  10.643   9.786 -0.4392 -0.2862 -0.5523
  749MOL0     N98787   5.372  10.554   9.766 -0.3063 -0.1842 -0.6815
  749MOL0     C98788   6.482  10.311   9.881  0.4191 -0.7312 -1.0615
  749MOL0     C98789   6.621  10.315   9.893 -0.9470  0.2266 -0.3244
  749MOL0     C98790   7.046  10.242   9.743 -0.5687  0.1326 -0.3580
  749MOL0     C98791   7.123  10.132   9.706 -0.4605 -0.3050  0.1543
  749MOL0     C98792   7.266  10.147   9.703  0.0988  0.5973 -0.5486
  749MOL0     C98793   7.323  10.268   9.726 -0.3620 -0.2887  0.2634
  749MOL0     O98794   7.457  10.270   9.744  0.2144  0.2184 -0.8205
  749MOL0     C98795   7.527  10.390   9.784 -0.3793 -0.2571  0.0232
  749MOL0     C98796   7.680  10.381   9.788 -0.0367  0.0272 -0.5817
  749MOL0     C98797   7.735  10.304   9.913 -0.0723 -0.1382 -0.8156
  749MOL0     C98798   7.880  10.259   9.878  0.2385  1.3145 -0.0864
  749MOL0     C98799   7.938  10.192   9.998 -0.5390 -0.2497  0.0031
  749MOL0     C98800   7.988  10.124  10.086  0.3888 -0.4688 -0.4514
  749MOL0     C98801   7.243  10.376   9.761 -0.4195  0.6741 -0.7323
  749MOL0     C98802   7.109  10.361   9.775 -0.3550 -0.3230  0.3796
  749MOL0     H98803   6.691  10.341   9.562  0.3789 -1.2358  0.2897
  749MOL0     H98804   6.425  10.354   9.551 -1.8527 -1.1473 -0.0525
  749MOL0     H98805   6.231  10.277   9.585  0.8308  1.6447 -1.0066
  749MOL0     H98806   6.221  10.450   9.594  0.2315 -0.6941 -0.4829
  749MOL0     H98807   6.027  10.429   9.763 -0.6299 -2.4657  2.2499
  749MOL0     H98808   6.046  10.263   9.760  0.1621  0.0218 -0.7682
  749MOL0     H98809   5.987  10.256   9.519 -3.6465 -2.0467 -0.4826
  749MOL0     H98810   5.965  10.432   9.524 -1.0282  0.3366  0.3900
  749MOL0     H98811   5.819  10.238   9.702 -0.2931 -1.7230 -2.9168
  749MOL0     H98812   5.782  10.413   9.662 -0.2639 -0.1557  1.3965
  749MOL0     H98813   5.792  10.170   9.486 -0.3320  0.0015 -1.2791
  749MOL0     H98814   5.765  10.329   9.420  2.3417  0.9582 -0.2366
  749MOL0     H98815   5.611  10.173   9.642  1.2863  0.2886  0.1569
  749MOL0     H98816   5.557  10.168   9.473  1.0304 -0.3148 -0.4539
  749MOL0     H98817   5.560  10.449   9.588 -1.1585  0.1610 -0.8875
  749MOL0     H98818   5.441  10.363   9.492 -0.1702 -1.4664 -0.1630
  749MOL0     H98819   5.455  10.279   9.767  1.7102  1.4462  1.2855
  749MOL0     H98820   5.339  10.242   9.637  1.7003 -0.9956  0.6149
  749MOL0     H98821   5.115  10.394   9.640 -1.8625  1.7797 -0.0928
  749MOL0     H98822   4.985  10.663   9.669 -1.8194  1.8482  0.0140
  749MOL0     H98823   5.060  10.748   9.802  1.0811  1.1372 -3.2319
  749MOL0     H98824   4.976  10.504   9.921 -1.3947 -0.6803 -0.0097
  749MOL0     H98825   4.870  10.505   9.775 -0.9170  1.0305 -0.5722
  749MOL0     H98826   4.851  10.734   9.965 -0.7155  1.9836 -2.9163
  749MOL0     H98827   4.754  10.699   9.835  1.4773  3.1006  0.2615
  749MOL0     H98828   4.768  10.520  10.090  0.6200 -4.8409 -0.9475
  749MOL0     H98829   4.712  10.457   9.946 -0.6029  0.4502 -0.3795
  749MOL0     H98830   4.394  10.705  10.166 -3.4692 -2.5850  1.8300
  749MOL0     H98831   4.177  10.755  10.054 -1.1024 -0.6722 -0.7623
  749MOL0     H98832   4.056  10.644   9.454  0.7331 -0.5360  1.4808
  749MOL0     H98833   3.855  10.625   9.319  0.1403  0.6399  0.2705
  749MOL0     H98834   3.620  10.633   9.234  0.8123 -2.2298  0.3443
  749MOL0     H98835   3.630  10.752   9.361  1.2303  0.4439 -1.2280
  749MOL0     H98836   3.418  10.772   9.242  2.3708 -0.9719  0.2941
  749MOL0     H98837   3.379  10.723   9.396  0.1324 -0.4884  0.5886
  749MOL0     H98838   3.395  10.479   9.308  0.7900  0.9156  1.5405
  749MOL0     H98839   3.417  10.572   9.151  0.7278  1.5307  0.5151
  749MOL0     H98840   3.167  10.645   9.297  1.3026  1.3020 -0.3422
  749MOL0     H98841   3.209  10.638   9.127 -1.3197 -0.1907  0.2493
  749MOL0     H98842   3.187  10.393   9.310 -1.0177 -0.7721 -1.0166
  749MOL0     H98843   3.180  10.380   9.131  3.4087 -0.0839  0.4492
  749MOL0     H98844   2.964  10.498   9.121  2.1577  1.6157 -0.2962
  749MOL0     H98845   2.972  10.512   9.298  0.7898  0.1628 -0.1994
  749MOL0     H98846   2.920  10.277   9.114  2.0693 -1.4345  0.4882
  749MOL0     H98847   2.989  10.248   9.281  0.5990  0.2251  0.5334
  749MOL0     H98848   2.735  10.233   9.269  0.7463 -0.3865  2.1138
  749MOL0     H98849   2.721  10.395   9.215  0.8809  2.2376  1.0076
  749MOL0     H98850   3.643  10.484   9.675  0.2251  2.2821  1.6430
  749MOL0     H98851   3.851  10.496   9.798 -2.5018  2.2783  1.1277
  749MOL0     H98852   4.315  10.532   9.700  0.9902  1.4338 -1.0492
  749MOL0     H98853   4.541  10.520   9.802 -0.9400 -0.4585  0.3894
  749MOL0     H98854   6.427  10.314   9.975 -1.7165  6.7424 -1.8754
  749MOL0     H98855   6.675  10.326   9.987 -3.0605  0.4390  0.9250
  749MOL0     H98856   7.095  10.028   9.690  2.2830 -1.1728  0.3665
  749MOL0     H98857   7.330  10.061   9.686  0.5042  0.8914 -0.5358
  749MOL0     H98858   7.494  10.424   9.883 -0.2152 -0.7035  0.2322
  749MOL0     H98859   7.518  10.468   9.708  1.8345 -0.1293 -0.1641
  749MOL0     H98860   7.710  10.328   9.697 -1.9536 -2.3554  0.0627
  749MOL0     H98861   7.713  10.485   9.785 -3.1495  1.1744  0.3399
  749MOL0     H98862   7.679  10.214   9.939 -3.4551  1.7885 -0.9015
  749MOL0     H98863   7.730  10.380   9.991 -0.1247  0.5373 -1.4628
  749MOL0     H98864   7.872  10.184   9.799 -1.5287 -1.4956  2.5391
  749MOL0     H98865   7.939  10.342   9.836 -1.8046  2.5296 -0.6685
  749MOL0     H98866   8.027  10.067  10.167  1.7373 -1.3768 -1.6930
  749MOL0     H98867   7.284  10.474   9.781  0.7338 -0.1528  1.2952
  749MOL0     H98868   7.054  10.448   9.811  0.1624 -0.1979  0.8858
  750MOL0     O98869   2.425   3.662   5.387 -0.0365  0.4622 -0.1016
  750MOL0     C98870   2.449   3.778   5.360 -0.6708 -0.7388  1.0927
  750MOL0     O98871   2.352   3.879   5.351 -0.0048  0.1819 -0.0376
  750MOL0     C98872   2.223   3.837   5.386 -0.3866 -0.4468 -0.0290
  750MOL0     C98873   2.194   3.754   5.498  0.1258 -0.2453  0.8940
  750MOL0     C98874   2.064   3.720   5.524  0.5953 -1.0351 -0.0419
  750MOL0     C98875   1.958   3.766   5.447 -0.3305 -1.3123 -0.4965
  750MOL0     O98876   1.831   3.737   5.484 -0.0096  0.2323 -0.3576
  750MOL0     C98877   1.720   3.837   5.469  0.5257 -0.2235 -0.1149
  750MOL0     C98878   1.757   3.976   5.525  0.3892 -0.0511 -0.8223
  750MOL0     C98879   1.785   3.990   5.680 -0.0871  0.3140  0.1714
  750MOL0     C98880   1.852   4.137   5.704  0.1826 -0.0601  0.0227
  750MOL0     C98881   1.887   4.153   5.850 -1.0040 -0.2269  0.6625
  750MOL0     C98882   1.779   4.153   5.956 -0.0284 -0.3498 -0.7401
  750MOL0     C98883   1.838   4.142   6.101  0.6563  0.3311  0.4598
  750MOL0     C98884   1.869   4.277   6.161 -0.3266 -0.0442 -0.2502
  750MOL0     N98885   1.895   4.256   6.303 -0.1555 -0.1413  0.2764
  750MOL0     C98886   2.018   4.256   6.376  0.8622 -0.0679 -0.0368
  750MOL0     C98887   1.983   4.264   6.508  0.5898 -0.1374 -0.3591
  750MOL0     C98888   2.087   4.280   6.623 -0.9687 -0.1864  0.7425
  750MOL0     C98889   2.108   4.141   6.688  0.7201  0.2605 -0.1056
  750MOL0     C98890   2.194   4.152   6.811 -0.4570 -1.0868 -0.2246
  750MOL0     C98891   2.345   4.169   6.778  0.4368  0.4526 -0.0428
  750MOL0     O98892   2.395   4.046   6.713 -0.2841  0.4821  0.0976
  750MOL0     C98893   2.529   4.022   6.712 -0.1031 -0.7950 -0.5694
  750MOL0     C98894   2.616   4.133   6.702  0.1235 -0.0970 -1.2000
  750MOL0     C98895   2.754   4.112   6.714  0.5722  0.3413  0.3386
  750MOL0     C98896   2.801   3.979   6.713 -0.1309 -0.3323 -0.5889
  750MOL0     C98897   2.947   3.949   6.729 -0.7356  0.7331  1.0702
  750MOL0     O98898   3.030   4.053   6.740 -0.1447  0.2281 -0.4786
  750MOL0     C98899   3.169   4.041   6.749  0.0462  0.0476  0.5165
  750MOL0     C98900   3.260   3.957   6.676  0.1262 -0.7776 -0.1182
  750MOL0     C98901   3.393   3.955   6.709 -0.4091 -0.3263  0.0897
  750MOL0     C98902   3.441   4.042   6.802  0.1206 -0.5855  0.0522
  750MOL0     O98903   3.569   4.058   6.841 -0.6365  0.1871  0.5838
  750MOL0     C98904   3.661   3.951   6.797 -0.7266 -0.3010  0.6068
  750MOL0     C98905   3.792   3.970   6.868  0.1836 -1.2186  0.0901
  750MOL0     C98906   3.839   4.112   6.881  0.2537  0.0563 -0.3428
  750MOL0     C98907   3.965   4.122   6.978  0.0661 -0.1068  0.1763
  750MOL0     C98908   4.105   4.101   6.916  0.4915  0.0774 -0.5173
  750MOL0     C98909   4.215   4.091   7.022 -0.1556  0.0343  0.2556
  750MOL0     C98910   4.249   4.225   7.093  0.3834  0.0921  0.2660
  750MOL0     C98911   4.315   4.324   6.994 -1.0178 -0.4265  0.0666
  750MOL0    Cl98912   4.457   4.246   6.906  0.1849 -0.1518  0.5507
  750MOL0     C98913   3.354   4.121   6.872 -0.4984  0.3608 -0.2902
  750MOL0     C98914   3.223   4.127   6.838 -0.5880  0.1241 -1.1161
  750MOL0     O98915   2.989   3.834   6.737  0.7335 -0.1139 -0.0092
  750MOL0     C98916   2.716   3.872   6.740 -0.2640  0.4963  0.4458
  750MOL0     C98917   2.580   3.890   6.734  0.1991 -0.0388 -0.3440
  750MOL0     N98918   1.845   4.273   6.512  0.0347  0.4159 -0.1202
  750MOL0     N98919   1.794   4.263   6.395 -0.6367  0.0219  0.4647
  750MOL0     C98920   1.988   3.844   5.335  0.2523 -0.1966 -0.1622
  750MOL0     C98921   2.123   3.878   5.309 -0.3276 -0.9140 -0.2344
  750MOL0     C98922   2.590   3.798   5.327  0.1750 -0.7276  0.3244
  750MOL0     C98923   2.633   3.930   5.303 -0.7744  0.0188 -0.7313
  750MOL0     C98924   2.767   3.965   5.269 -0.3660  0.4619  0.8403
  750MOL0     C98925   2.864   3.858   5.249 -0.7489 -0.0707 -0.2716
  750MOL0     O98926   2.993   3.871   5.227 -0.6102 -0.2252 -0.2829
  750MOL0     C98927   3.041   3.990   5.162  0.4409 -0.5389 -0.2579
  750MOL0     C98928   3.181   3.985   5.154  0.0334 -1.2827  0.8763
  750MOL0     C98929   3.262   4.015   5.281  0.9453 -0.4014 -0.4784
  750MOL0     C98930   3.402   3.971   5.255 -0.9073  0.4108  0.3111
  750MOL0     C98931   3.405   3.822   5.255 -0.8848 -0.3279  0.5619
  750MOL0     C98932   3.448   3.713   5.249 -0.4792  0.5162  0.2796
  750MOL0     C98933   2.812   3.729   5.274 -0.0894 -0.3950 -0.7873
  750MOL0     C98934   2.678   3.694   5.295  0.1606 -0.9867 -0.5778
  750MOL0     H98935   2.273   3.710   5.557  1.8610  0.2876 -0.9283
  750MOL0     H98936   2.035   3.677   5.620  0.7575  0.6976  0.8140
  750MOL0     H98937   1.634   3.811   5.530  0.5057  3.4006  1.7050
  750MOL0     H98938   1.683   3.842   5.366  0.8901  1.4863 -0.1978
  750MOL0     H98939   1.675   4.048   5.514 -0.3358 -0.5864  0.7033
  750MOL0     H98940   1.851   4.006   5.479 -0.0386  0.4699 -1.3716
  750MOL0     H98941   1.842   3.904   5.716 -2.9657 -1.5075  0.6673
  750MOL0     H98942   1.694   3.968   5.737 -1.5755  0.5785 -1.9685
  750MOL0     H98943   1.946   4.147   5.648 -0.0607 -1.8155 -0.7636
  750MOL0     H98944   1.780   4.208   5.664 -0.7192 -1.2000 -0.4442
  750MOL0     H98945   1.953   4.238   5.872  0.4803 -0.9136 -0.8891
  750MOL0     H98946   1.959   4.077   5.884  1.1419  1.1466 -0.5877
  750MOL0     H98947   1.710   4.069   5.945 -0.7953  0.1778 -0.0984
  750MOL0     H98948   1.720   4.245   5.941 -0.7654 -0.5799  0.6135
  750MOL0     H98949   1.755   4.108   6.164  1.1005  2.7876  2.5052
  750MOL0     H98950   1.918   4.068   6.108  0.3714  0.1770  3.1931
  750MOL0     H98951   1.794   4.357   6.158 -0.5246 -0.2560 -1.3584
  750MOL0     H98952   1.955   4.317   6.107  0.4605 -1.4512 -0.0889
  750MOL0     H98953   2.119   4.250   6.337 -0.1407 -2.4511 -2.7027
  750MOL0     H98954   2.059   4.351   6.701  0.0423  1.9499 -0.7492
  750MOL0     H98955   2.179   4.314   6.576 -0.8745 -3.2929 -1.7074
  750MOL0     H98956   2.144   4.071   6.612 -1.5225  0.0627 -1.0611
  750MOL0     H98957   2.008   4.109   6.719  1.5541 -2.8972 -0.3273
  750MOL0     H98958   2.166   4.238   6.873  1.6651  0.1618 -0.8890
  750MOL0     H98959   2.173   4.068   6.878  0.1101 -1.0210  0.0375
  750MOL0     H98960   2.402   4.190   6.868  1.3553  1.8350 -0.9147
  750MOL0     H98961   2.361   4.251   6.707  1.6177  1.8481  1.7724
  750MOL0     H98962   2.580   4.235   6.697 -2.1682 -0.7755 -0.1448
  750MOL0     H98963   2.828   4.192   6.719  1.0553 -0.1672  1.6412
  750MOL0     H98964   3.214   3.896   6.599  1.8400  0.6500 -2.3982
  750MOL0     H98965   3.464   3.898   6.649 -1.3205 -1.0652 -0.3236
  750MOL0     H98966   3.685   3.959   6.690 -1.2235  0.5579  0.5525
  750MOL0     H98967   3.628   3.849   6.817 -0.0597 -0.2513  2.0879
  750MOL0     H98968   3.862   3.922   6.799  1.6305  3.5606 -2.2500
  750MOL0     H98969   3.790   3.928   6.969 -0.3753  0.5905  0.8888
  750MOL0     H98970   3.756   4.173   6.919 -0.9361 -0.7469 -1.5471
  750MOL0     H98971   3.867   4.149   6.782 -0.9246  0.8795 -0.3951
  750MOL0     H98972   3.969   4.228   7.005 -0.7164 -0.3233  1.2058
  750MOL0     H98973   3.940   4.063   7.066 -0.7610 -0.3377 -0.1985
  750MOL0     H98974   4.139   4.175   6.843  1.7457 -0.1725 -0.2182
  750MOL0     H98975   4.116   4.005   6.864  2.4245  1.6534 -3.2927
  750MOL0     H98976   4.293   4.044   6.962 -0.4844  0.9397 -0.9332
  750MOL0     H98977   4.189   4.025   7.105  3.2581 -1.7228  0.0490
  750MOL0     H98978   4.165   4.277   7.140  1.9922  1.1234  2.1482
  750MOL0     H98979   4.316   4.196   7.173  1.1150 -1.2320 -0.7747
  750MOL0     H98980   4.336   4.411   7.058  3.4373 -1.0903 -0.1900
  750MOL0     H98981   4.254   4.356   6.909  2.6569 -0.2381 -2.7159
  750MOL0     H98982   3.397   4.181   6.952  0.5024 -0.9039  0.1609
  750MOL0     H98983   3.154   4.190   6.893  0.8513 -1.0358  2.2762
  750MOL0     H98984   2.743   3.769   6.762  2.6276  1.1164  0.2766
  750MOL0     H98985   2.507   3.813   6.759 -0.4232  1.9096  5.0145
  750MOL0     H98986   1.909   3.869   5.264 -0.4220 -0.0833  0.6150
  750MOL0     H98987   2.151   3.930   5.218 -2.3869  2.3960  0.8451
  750MOL0     H98988   2.562   4.012   5.297 -0.3191  0.5273  0.5047
  750MOL0     H98989   2.782   4.072   5.265  1.1358  0.2755  0.6373
  750MOL0     H98990   3.008   4.073   5.225 -2.1464 -1.1410 -0.6946
  750MOL0     H98991   2.992   3.993   5.064 -2.5344  0.6032  1.1537
  750MOL0     H98992   3.211   3.888   5.113 -1.1239 -1.2280 -0.1556
  750MOL0     H98993   3.209   4.059   5.079 -0.1928 -1.1604  0.9132
  750MOL0     H98994   3.219   3.947   5.356  0.6951 -1.2151 -1.3359
  750MOL0     H98995   3.260   4.119   5.314 -0.4951 -0.4906 -0.1916
  750MOL0     H98996   3.445   3.992   5.156  1.8455 -2.3996  0.7625
  750MOL0     H98997   3.464   4.008   5.337 -0.5290 -0.8726  0.6167
  750MOL0     H98998   3.484   3.614   5.226  0.3722  1.0279 -0.6344
  750MOL0     H98999   2.882   3.646   5.263 -0.7921 -0.8910 -1.6666
  750MOL0     H99000   2.639   3.593   5.308 -0.5387 -0.6101  0.3212
  751MOL0     O99001   6.309   2.540   8.342  0.1317 -0.3003 -0.0479
  751MOL0     C99002   6.316   2.581   8.228  0.4308 -0.8295 -0.2939
  751MOL0     O99003   6.435   2.613   8.154  0.1561 -0.2713  0.1689
  751MOL0     C99004   6.561   2.570   8.195  0.6189  0.7864 -0.1405
  751MOL0     C99005   6.657   2.583   8.092  0.3314 -0.0403  0.5461
  751MOL0     C99006   6.789   2.543   8.117  0.4752  0.4222 -0.4333
  751MOL0     C99007   6.822   2.475   8.239 -0.8101 -0.9739  0.2468
  751MOL0     O99008   6.953   2.440   8.248  0.1134  0.2072 -0.8060
  751MOL0     C99009   7.000   2.397   8.379  0.1809  0.0020  0.0547
  751MOL0     C99010   7.145   2.362   8.381 -0.0828  0.6155  0.1058
  751MOL0     C99011   7.189   2.346   8.527 -0.4418 -0.2005 -0.4807
  751MOL0     C99012   7.294   2.244   8.550 -0.6274 -0.1148  0.6737
  751MOL0     C99013   7.356   2.262   8.696 -0.2255 -0.8035  1.1627
  751MOL0     C99014   7.257   2.258   8.813 -0.5770  0.3221  0.0098
  751MOL0     C99015   7.174   2.130   8.804  0.4742  0.1273  0.3218
  751MOL0     C99016   7.075   2.114   8.924 -0.2812 -0.5395  0.3686
  751MOL0     N99017   7.011   1.975   8.940  0.5959  0.3399 -0.2648
  751MOL0     C99018   6.934   1.911   8.850 -0.6999  0.3836  0.1321
  751MOL0     C99019   6.899   1.793   8.905 -0.1568  0.3240 -0.2049
  751MOL0     C99020   6.824   1.688   8.841  1.0829 -0.4735 -0.5561
  751MOL0     C99021   6.672   1.729   8.864  0.1234  0.1396 -0.7698
  751MOL0     C99022   6.572   1.650   8.781  0.3252 -0.1796  0.2476
  751MOL0     C99023   6.428   1.674   8.823 -0.1368  0.2951 -0.5366
  751MOL0     O99024   6.342   1.577   8.766  0.4834  0.8101 -0.9997
  751MOL0     C99025   6.209   1.603   8.777  0.1998  0.4807  0.4507
  751MOL0     C99026   6.153   1.670   8.881  0.0655 -0.0129  0.4569
  751MOL0     C99027   6.016   1.700   8.888  0.0897  0.0194  0.3104
  751MOL0     C99028   5.934   1.659   8.790 -0.9604 -0.0425  0.1391
  751MOL0     C99029   5.794   1.694   8.815  1.0235  0.3102  0.6599
  751MOL0     O99030   5.716   1.613   8.746  0.3738  0.5438 -0.1524
  751MOL0     C99031   5.581   1.642   8.738  0.0086  0.2648  0.0207
  751MOL0     C99032   5.524   1.641   8.605  0.3704  0.6438  0.0477
  751MOL0     C99033   5.385   1.645   8.586  0.3785 -0.0075 -0.1536
  751MOL0     C99034   5.301   1.629   8.697  0.8996 -0.6361  0.7412
  751MOL0     O99035   5.162   1.607   8.686  0.2956  0.2202 -0.2180
  751MOL0     C99036   5.105   1.571   8.556 -1.0447 -1.2382  0.2803
  751MOL0     C99037   4.959   1.530   8.560  0.4959 -0.9052 -0.3321
  751MOL0     C99038   4.920   1.447   8.441 -0.3046  0.7389 -0.2073
  751MOL0     C99039   4.785   1.380   8.474 -0.4612  0.5746 -0.9845
  751MOL0     C99040   4.742   1.328   8.343  0.2643  0.5126  0.7923
  751MOL0     C99041   4.615   1.241   8.356 -0.0535  0.1098 -0.0858
  751MOL0     C99042   4.480   1.321   8.390  0.6727  0.4970  0.0292
  751MOL0     C99043   4.360   1.233   8.442 -0.5785 -0.1860 -0.5184
  751MOL0    Cl99044   4.400   1.157   8.608 -0.4243 -0.0907 -0.6328
  751MOL0     C99045   5.352   1.639   8.826  0.6055  0.4698  0.9140
  751MOL0     C99046   5.492   1.645   8.842 -0.2183 -0.0902  0.6108
  751MOL0     O99047   5.758   1.783   8.892 -0.1666  0.1829  0.6552
  751MOL0     C99048   5.978   1.590   8.679  0.7764  0.1623  0.5404
  751MOL0     C99049   6.116   1.557   8.681  0.0869 -0.2461 -0.1560
  751MOL0     N99050   6.980   1.777   9.020  0.3506  0.9577  0.1609
  751MOL0     N99051   7.036   1.887   9.047 -0.7069  0.2363  1.0860
  751MOL0     C99052   6.722   2.460   8.340  0.2774 -0.5291 -0.2384
  751MOL0     C99053   6.593   2.510   8.318 -0.4637  0.0625 -0.2540
  751MOL0     C99054   6.177   2.611   8.174 -1.5166 -0.4489 -0.0211
  751MOL0     C99055   6.169   2.657   8.044 -0.4667 -0.0270 -0.7018
  751MOL0     C99056   6.050   2.680   7.987 -0.0447 -0.4251 -0.5080
  751MOL0     C99057   5.929   2.660   8.054  0.0267 -0.3570  1.2145
  751MOL0     O99058   5.819   2.690   7.974  0.5982 -1.0369 -0.3197
  751MOL0     C99059   5.689   2.663   8.032  0.0847 -0.6658  0.0609
  751MOL0     C99060   5.579   2.725   7.951  0.0694 -0.1321 -0.3561
  751MOL0     C99061   5.439   2.673   7.978 -0.4349  0.2022  0.3127
  751MOL0     C99062   5.332   2.718   7.883  0.6332 -0.2441  0.5049
  751MOL0     C99063   5.269   2.830   7.947 -0.0312 -1.0962 -0.7019
  751MOL0     C99064   5.222   2.920   8.009 -0.2037  0.3110  0.1424
  751MOL0     C99065   5.938   2.614   8.185  1.3242  0.4017 -0.0037
  751MOL0     C99066   6.060   2.588   8.249 -0.0995  0.2298 -0.3425
  751MOL0     H99067   6.644   2.622   7.992  0.9175  0.4199  0.6455
  751MOL0     H99068   6.862   2.566   8.040 -0.9709 -1.5020 -2.5298
  751MOL0     H99069   6.938   2.316   8.419 -0.2545 -0.2532 -1.0999
  751MOL0     H99070   6.983   2.479   8.450 -2.0517 -0.3528  0.0263
  751MOL0     H99071   7.207   2.438   8.333  0.7240  0.1202  0.3416
  751MOL0     H99072   7.159   2.266   8.330 -1.4233  1.5639 -2.1944
  751MOL0     H99073   7.099   2.316   8.581 -0.2349  1.1563  0.6903
  751MOL0     H99074   7.228   2.442   8.563  0.8442  0.2903 -2.9334
  751MOL0     H99075   7.262   2.143   8.523  0.4342  0.2357 -2.3513
  751MOL0     H99076   7.368   2.266   8.472  0.4321  0.2330  1.7448
  751MOL0     H99077   7.423   2.348   8.704 -1.3416 -0.0708  3.7717
  751MOL0     H99078   7.436   2.190   8.718  1.7939  1.1354  0.5891
  751MOL0     H99079   7.191   2.343   8.795 -0.3614  0.3096 -0.8601
  751MOL0     H99080   7.307   2.276   8.909 -1.7496  3.6108  0.1379
  751MOL0     H99081   7.125   2.122   8.707 -1.1742  1.2821  1.0088
  751MOL0     H99082   7.239   2.043   8.820  1.4766  0.0952 -3.0865
  751MOL0     H99083   6.990   2.180   8.904 -0.4963 -1.1899 -0.9991
  751MOL0     H99084   7.132   2.150   9.009 -1.7572  1.0288  0.7465
  751MOL0     H99085   6.898   1.949   8.755  0.8287 -0.5622 -0.8933
  751MOL0     H99086   6.850   1.594   8.890  1.7291 -0.0821 -0.1395
  751MOL0     H99087   6.849   1.677   8.735  1.5801 -1.4062 -0.3495
  751MOL0     H99088   6.656   1.835   8.841  0.3361  0.9293  2.2295
  751MOL0     H99089   6.660   1.723   8.973  0.6185  0.4015 -0.6994
  751MOL0     H99090   6.599   1.686   8.681  1.9698  2.7992  1.6211
  751MOL0     H99091   6.600   1.545   8.784  2.1058  0.2480 -0.1973
  751MOL0     H99092   6.405   1.774   8.784  2.3664  0.4516 -1.7888
  751MOL0     H99093   6.414   1.688   8.930 -3.5461 -0.9299 -0.6834
  751MOL0     H99094   6.214   1.703   8.964 -2.8326  0.9398  2.3363
  751MOL0     H99095   5.981   1.744   8.981  0.8322 -0.3702  0.7890
  751MOL0     H99096   5.590   1.627   8.519 -0.3344  0.9944 -0.5598
  751MOL0     H99097   5.342   1.642   8.486 -0.8752  0.1017  0.3594
  751MOL0     H99098   5.168   1.488   8.522 -0.7194  0.7457 -4.7969
  751MOL0     H99099   5.121   1.657   8.491 -0.9018 -0.8713  0.7882
  751MOL0     H99100   4.907   1.625   8.573  2.2952 -0.2194  3.0133
  751MOL0     H99101   4.947   1.466   8.649  0.1105  0.7617  0.8608
  751MOL0     H99102   4.991   1.366   8.422  2.2149  2.1857  2.2093
  751MOL0     H99103   4.916   1.521   8.360 -4.1283  0.4571 -0.4374
  751MOL0     H99104   4.802   1.299   8.546 -0.6276  1.0883 -0.3615
  751MOL0     H99105   4.716   1.459   8.506 -3.4159 -1.3946 -2.0387
  751MOL0     H99106   4.817   1.272   8.287  1.6238  0.2387  2.7605
  751MOL0     H99107   4.724   1.410   8.273 -1.2215 -0.1636  0.3265
  751MOL0     H99108   4.634   1.166   8.433 -0.2663  0.9368  0.7987
  751MOL0     H99109   4.606   1.189   8.260  1.2956  0.9201 -0.6787
  751MOL0     H99110   4.502   1.386   8.476  2.8623  1.9457 -1.5540
  751MOL0     H99111   4.461   1.377   8.298  0.3452 -1.3726 -1.0982
  751MOL0     H99112   4.350   1.149   8.373 -1.5751 -0.3412 -0.2032
  751MOL0     H99113   4.265   1.288   8.434 -0.3150  0.6622  1.4740
  751MOL0     H99114   5.289   1.633   8.913 -1.1701 -0.1484 -0.3616
  751MOL0     H99115   5.533   1.633   8.942 -0.5877 -1.5304  0.6107
  751MOL0     H99116   5.907   1.554   8.605 -0.8756  1.2063  1.5542
  751MOL0     H99117   6.156   1.502   8.597  2.7186 -1.2398  1.6195
  751MOL0     H99118   6.744   2.422   8.439  1.3882  0.5727 -0.0334
  751MOL0     H99119   6.535   2.493   8.408 -0.3914 -2.7596 -0.6423
  751MOL0     H99120   6.254   2.694   7.988  0.1342 -1.6942 -0.9276
  751MOL0     H99121   6.044   2.717   7.885 -1.2671 -1.1731 -0.7380
  751MOL0     H99122   5.689   2.699   8.135 -1.0564 -1.4139  0.3436
  751MOL0     H99123   5.672   2.556   8.044  1.1110 -0.6873  1.6058
  751MOL0     H99124   5.578   2.833   7.966  0.3553 -0.2476  0.5455
  751MOL0     H99125   5.599   2.698   7.847 -0.2909 -0.6502 -0.2959
  751MOL0     H99126   5.406   2.683   8.082 -0.7296 -3.1150  0.6473
  751MOL0     H99127   5.451   2.564   7.974  1.9461  0.2815  2.7919
  751MOL0     H99128   5.379   2.751   7.790  3.0026 -1.0786  1.3219
  751MOL0     H99129   5.255   2.644   7.858 -0.3339 -0.1906  3.0415
  751MOL0     H99130   5.178   3.005   8.058 -1.0946 -1.7544  3.2157
  751MOL0     H99131   5.856   2.584   8.249  0.5748 -0.8465 -1.4944
  751MOL0     H99132   6.060   2.559   8.354  0.8146  1.6714  0.0801
  752MOL0     O99133   0.988   5.755   7.034  0.1979  0.3224 -0.1424
  752MOL0     C99134   1.040   5.672   6.960 -0.3706 -0.5972  0.9053
  752MOL0     O99135   1.007   5.543   6.954 -0.0612 -0.1117 -0.1063
  752MOL0     C99136   0.914   5.497   7.046 -0.0794  0.1860 -0.4170
  752MOL0     C99137   0.940   5.487   7.180  1.1506 -0.7777 -0.6896
  752MOL0     C99138   0.856   5.414   7.266  0.3180 -0.7475 -0.3848
  752MOL0     C99139   0.733   5.363   7.219 -0.8937 -0.2246  0.0739
  752MOL0     O99140   0.634   5.308   7.301 -0.3867 -0.0833 -0.0023
  752MOL0     C99141   0.669   5.287   7.436  0.4297  0.1414  0.4635
  752MOL0     C99142   0.557   5.205   7.494  0.1828  0.0363  0.3817
  752MOL0     C99143   0.444   5.304   7.556  0.0795 -0.1297 -0.1975
  752MOL0     C99144   0.333   5.229   7.637  0.0045  0.1309  0.2262
  752MOL0     C99145   0.256   5.332   7.715  0.3717 -0.0842 -0.6265
  752MOL0     C99146   0.145   5.409   7.632 -0.3439  0.3507 -0.2498
  752MOL0     C99147   0.091   5.525   7.720 -1.4528 -0.1916 -0.9707
  752MOL0     C99148  -0.024   5.473   7.806  0.0502 -0.1165  0.6599
  752MOL0     N99149  -0.136   5.439   7.731  0.9428 -0.2605 -0.3190
  752MOL0     C99150  -0.206   5.502   7.627 -0.1308  0.4872  0.2013
  752MOL0     C99151  -0.308   5.415   7.573  0.4595  0.2081  0.4704
  752MOL0     C99152  -0.384   5.421   7.444  0.2491  0.1681  1.4681
  752MOL0     C99153  -0.534   5.437   7.467  0.1989  0.1902  0.4382
  752MOL0     C99154  -0.617   5.475   7.348  0.0218  0.3861  0.4460
  752MOL0     C99155  -0.762   5.488   7.390 -0.4321 -0.1065 -0.4602
  752MOL0     O99156  -0.831   5.546   7.286  0.4263 -0.2275 -0.2909
  752MOL0     C99157  -0.971   5.549   7.284 -0.1464  0.5545  0.0599
  752MOL0     C99158  -1.056   5.511   7.389  0.5737 -0.3615  0.2364
  752MOL0     C99159  -1.200   5.516   7.381 -0.1986  0.4296 -0.0688
  752MOL0     C99160  -1.259   5.541   7.256 -0.0521  0.2877 -0.0365
  752MOL0     C99161  -1.407   5.544   7.240 -0.7463  0.1720  0.6231
  752MOL0     O99162  -1.481   5.517   7.350 -0.0512  0.4035 -0.2252
  752MOL0     C99163  -1.614   5.538   7.334  0.6372  0.5192  0.8891
  752MOL0     C99164  -1.698   5.428   7.351 -0.1142 -0.6291  1.0061
  752MOL0     C99165  -1.837   5.448   7.345 -0.5223  1.0313  0.0631
  752MOL0     C99166  -1.895   5.573   7.319 -0.2413 -0.1666 -0.6828
  752MOL0     O99167  -2.029   5.598   7.331  0.4528  0.5560 -0.4189
  752MOL0     C99168  -2.118   5.485   7.346 -0.1846  0.8519 -0.3228
  752MOL0     C99169  -2.265   5.533   7.333 -0.0546  0.5936  0.2532
  752MOL0     C99170  -2.302   5.608   7.465  0.3710  0.1561 -0.2342
  752MOL0     C99171  -2.449   5.629   7.497  0.0679  0.5171  0.9063
  752MOL0     C99172  -2.551   5.664   7.392  0.1541 -0.5757  0.2716
  752MOL0     C99173  -2.692   5.666   7.440 -0.2539  0.6480  0.0948
  752MOL0     C99174  -2.786   5.735   7.350  0.1464  0.2951  0.2001
  752MOL0     C99175  -2.926   5.726   7.408 -0.5660 -0.9783 -0.4649
  752MOL0    Cl99176  -2.951   5.814   7.567 -0.5075  0.1104  0.0160
  752MOL0     C99177  -1.812   5.681   7.297 -0.4582  0.6546 -0.1019
  752MOL0     C99178  -1.670   5.662   7.296  0.4415  0.0853  0.4048
  752MOL0     O99179  -1.445   5.569   7.123  0.2782  0.4395  0.6086
  752MOL0     C99180  -1.173   5.572   7.149 -0.2349 -0.8071  0.2196
  752MOL0     C99181  -1.031   5.565   7.160 -0.7606  0.6827  0.5318
  752MOL0     N99182  -0.307   5.313   7.667  0.5030 -0.5471 -0.5758
  752MOL0     N99183  -0.210   5.324   7.747 -0.3682 -0.1146  0.0126
  752MOL0     C99184   0.703   5.379   7.081 -0.0381  0.1980 -0.8993
  752MOL0     C99185   0.793   5.446   6.997  0.0202  0.5936  0.0698
  752MOL0     C99186   1.169   5.707   6.898  0.3522 -0.8667  0.2695
  752MOL0     C99187   1.234   5.827   6.926 -0.4277 -0.6700  0.0782
  752MOL0     C99188   1.352   5.865   6.859  0.0285  0.1372  0.5492
  752MOL0     C99189   1.408   5.769   6.768 -0.0214  0.4466  0.3271
  752MOL0     O99190   1.512   5.787   6.687  0.1569 -0.4481 -0.1547
  752MOL0     C99191   1.572   5.914   6.686  0.6959 -0.6365  0.9038
  752MOL0     C99192   1.708   5.915   6.619 -0.2396  1.2919  0.1291
  752MOL0     C99193   1.796   5.808   6.674  0.1020 -0.5405 -0.6835
  752MOL0     C99194   1.941   5.810   6.625  0.2270 -0.2878 -0.1960
  752MOL0     C99195   1.948   5.784   6.484 -0.1403  0.3924 -0.5005
  752MOL0     C99196   1.967   5.771   6.368  0.4827 -0.3777 -0.2209
  752MOL0     C99197   1.342   5.649   6.746 -0.5893  0.2038 -0.2405
  752MOL0     C99198   1.224   5.618   6.806 -0.0827 -0.3087 -1.4825
  752MOL0     H99199   1.019   5.540   7.232 -0.4595  4.7647 -3.1258
  752MOL0     H99200   0.903   5.396   7.363 -1.0048 -0.5029  0.3240
  752MOL0     H99201   0.686   5.385   7.481  1.3521  0.3076 -0.2144
  752MOL0     H99202   0.754   5.218   7.440 -1.7187 -2.7156  0.2223
  752MOL0     H99203   0.588   5.156   7.587  1.4458  2.5908  1.4247
  752MOL0     H99204   0.498   5.136   7.434  0.8258 -0.4794  0.3379
  752MOL0     H99205   0.387   5.340   7.470 -2.1552 -1.5751  0.5741
  752MOL0     H99206   0.476   5.395   7.606 -1.5902 -0.9816  2.6408
  752MOL0     H99207   0.254   5.189   7.572  0.9673 -0.9663 -0.2806
  752MOL0     H99208   0.374   5.150   7.700 -0.6009  0.5946  1.2319
  752MOL0     H99209   0.325   5.397   7.769 -0.5653  1.4275 -1.1896
  752MOL0     H99210   0.203   5.292   7.802  0.3244  1.6940  0.1962
  752MOL0     H99211   0.080   5.334   7.586  4.8796 -2.5691 -3.8438
  752MOL0     H99212   0.195   5.449   7.543  0.2821 -0.9693 -0.5072
  752MOL0     H99213   0.167   5.565   7.788 -1.7852  1.1853 -1.3927
  752MOL0     H99214   0.062   5.610   7.658 -0.6190  1.6975  1.0847
  752MOL0     H99215  -0.038   5.546   7.887 -0.8244 -2.8393  3.1330
  752MOL0     H99216   0.021   5.387   7.856  0.0214 -1.3965 -1.4148
  752MOL0     H99217  -0.165   5.598   7.597  1.4093 -0.1434  0.2135
  752MOL0     H99218  -0.368   5.334   7.380 -0.3620  1.2912 -0.2801
  752MOL0     H99219  -0.342   5.510   7.396  2.3055 -0.2460  2.3837
  752MOL0     H99220  -0.548   5.526   7.530 -3.2833 -0.6252  1.0386
  752MOL0     H99221  -0.578   5.359   7.529 -2.9595  2.0687  0.7672
  752MOL0     H99222  -0.585   5.573   7.313 -1.0996  0.9629  0.9483
  752MOL0     H99223  -0.611   5.401   7.269  0.5207  1.1217 -0.2194
  752MOL0     H99224  -0.765   5.558   7.474 -2.4176 -2.0183  1.2105
  752MOL0     H99225  -0.802   5.389   7.418 -3.4637  1.7329  2.4327
  752MOL0     H99226  -1.014   5.498   7.489  2.2346 -1.3028 -0.5414
  752MOL0     H99227  -1.260   5.510   7.471  0.3179 -0.2926  0.2460
  752MOL0     H99228  -1.660   5.331   7.382  4.4161  0.7044  0.3420
  752MOL0     H99229  -1.896   5.360   7.368 -1.4026  1.1869 -1.4459
  752MOL0     H99230  -2.102   5.421   7.433  1.2812  0.0981 -1.1272
  752MOL0     H99231  -2.097   5.425   7.258 -2.0880 -1.1122  0.4686
  752MOL0     H99232  -2.332   5.452   7.303  2.7621 -0.2821 -4.8556
  752MOL0     H99233  -2.279   5.601   7.249 -2.2479 -2.5992 -2.2285
  752MOL0     H99234  -2.245   5.701   7.457  1.2311 -0.4882 -2.4967
  752MOL0     H99235  -2.266   5.548   7.549 -2.5605 -0.7282  0.5140
  752MOL0     H99236  -2.488   5.537   7.540  2.1186  0.1172  2.0741
  752MOL0     H99237  -2.445   5.707   7.574 -0.4183  1.3805  0.0748
  752MOL0     H99238  -2.537   5.598   7.306  1.6279 -0.4114  0.3466
  752MOL0     H99239  -2.527   5.762   7.351 -0.6386  0.2403  1.6731
  752MOL0     H99240  -2.691   5.716   7.537  0.7338  3.4110 -1.2427
  752MOL0     H99241  -2.714   5.559   7.450  5.5993 -0.7653  2.3510
  752MOL0     H99242  -2.763   5.841   7.336  0.4702  0.0819 -1.0143
  752MOL0     H99243  -2.776   5.703   7.246 -0.4779  3.9533 -1.1412
  752MOL0     H99244  -2.936   5.618   7.418  3.1311 -1.6731 -2.4464
  752MOL0     H99245  -3.000   5.756   7.332  0.6111  0.2171 -1.1825
  752MOL0     H99246  -1.849   5.782   7.290 -0.7101  0.5301 -0.5916
  752MOL0     H99247  -1.603   5.746   7.288 -1.0286  1.1607 -1.3122
  752MOL0     H99248  -1.211   5.596   7.050 -1.2386 -0.9004  0.5698
  752MOL0     H99249  -0.970   5.592   7.075  0.1500  0.4589  1.1052
  752MOL0     H99250   0.618   5.339   7.028  0.1163  1.3399 -2.0694
  752MOL0     H99251   0.758   5.458   6.895 -0.6293 -1.3411  0.0388
  752MOL0     H99252   1.183   5.888   7.000 -2.3427 -0.2154 -1.5148
  752MOL0     H99253   1.390   5.964   6.878 -0.3803  0.1798  1.1762
  752MOL0     H99254   1.589   5.953   6.787  0.5320 -0.6712  0.9462
  752MOL0     H99255   1.507   5.983   6.632  2.1065 -1.0125 -1.3883
  752MOL0     H99256   1.700   5.879   6.516 -1.2376 -1.3955  1.0746
  752MOL0     H99257   1.753   6.015   6.621 -1.7747  2.0091  2.1388
  752MOL0     H99258   1.747   5.712   6.657 -1.2697 -0.0434  0.2380
  752MOL0     H99259   1.801   5.810   6.784 -0.7222  0.7770 -0.6423
  752MOL0     H99260   1.978   5.912   6.642 -2.5941  0.7528  0.2314
  752MOL0     H99261   2.002   5.741   6.683  1.1533  0.1801 -0.5928
  752MOL0     H99262   1.982   5.759   6.263  0.4915  1.2888 -0.4388
  752MOL0     H99263   1.375   5.566   6.684 -1.5715 -0.4772  0.1171
  752MOL0     H99264   1.188   5.516   6.801 -2.1561 -0.2385  4.3798
  753MOL0     O99265   9.140   1.239   9.770  0.0596  0.0322  0.6385
  753MOL0     C99266   9.139   1.357   9.742 -0.4616 -0.0193  0.4370
  753MOL0     O99267   9.051   1.419   9.662 -0.3083 -0.2437  0.4969
  753MOL0     C99268   8.928   1.365   9.624  0.0691 -0.0877  0.2657
  753MOL0     C99269   8.806   1.432   9.648 -1.4155 -0.2829 -0.4392
  753MOL0     C99270   8.682   1.389   9.595 -0.5021 -0.4402 -0.5645
  753MOL0     C99271   8.672   1.275   9.509  0.1353 -0.3128 -0.1488
  753MOL0     O99272   8.565   1.230   9.440  0.2278  0.1312 -0.3656
  753MOL0     C99273   8.437   1.265   9.491 -0.0782 -0.1579 -1.2601
  753MOL0     C99274   8.320   1.197   9.422  0.1264  0.5137  0.9803
  753MOL0     C99275   8.187   1.238   9.478 -0.0677  0.3999  0.2512
  753MOL0     C99276   8.079   1.169   9.393  0.6033 -0.4401 -0.2584
  753MOL0     C99277   7.937   1.203   9.425  0.2331 -0.1691  0.3950
  753MOL0     C99278   7.846   1.154   9.315  0.0442  0.8693  0.3442
  753MOL0     C99279   7.820   1.005   9.309 -0.2659 -0.0481  0.8653
  753MOL0     C99280   7.751   0.934   9.424 -0.7235  0.1150  0.7103
  753MOL0     N99281   7.622   1.001   9.443 -0.0579 -0.3280 -0.2622
  753MOL0     C99282   7.512   0.969   9.373 -0.0299  0.0151  0.4182
  753MOL0     C99283   7.423   1.056   9.422 -0.1144  0.0539  0.2894
  753MOL0     C99284   7.282   1.059   9.386  0.4400  0.3114 -0.7465
  753MOL0     C99285   7.256   1.015   9.245  0.4363  0.4275 -0.3006
  753MOL0     C99286   7.119   1.067   9.200 -0.0876 -0.5069 -0.4325
  753MOL0     C99287   7.071   1.024   9.069  0.3524  0.4346 -0.3617
  753MOL0     O99288   7.016   0.888   9.083 -0.5907 -0.4565 -0.0032
  753MOL0     C99289   6.883   0.872   9.080  0.1580 -0.3278  0.2674
  753MOL0     C99290   6.830   0.748   9.066 -0.7381  0.0398  0.0247
  753MOL0     C99291   6.692   0.721   9.062 -0.4290  0.3483 -0.7317
  753MOL0     C99292   6.603   0.824   9.071  0.1434 -0.2967 -0.8283
  753MOL0     C99293   6.462   0.805   9.051  0.4103 -0.4693 -0.6765
  753MOL0     O99294   6.380   0.889   9.122  0.3675  0.2766 -0.0817
  753MOL0     C99295   6.240   0.887   9.113  0.2044  0.2284  0.1550
  753MOL0     C99296   6.172   0.824   9.001 -1.1574 -0.2271 -0.1103
  753MOL0     C99297   6.029   0.828   8.999  0.5392  0.2847  0.1730
  753MOL0     C99298   5.955   0.880   9.108 -0.7507  0.1283  0.2258
  753MOL0     O99299   5.822   0.871   9.090  0.7120 -0.4940  0.2303
  753MOL0     C99300   5.734   0.898   9.195 -0.3469 -0.2441 -0.4042
  753MOL0     C99301   5.581   0.878   9.149 -0.3000  0.9777  0.6013
  753MOL0     C99302   5.504   0.822   9.271 -0.6807  0.3424  0.8066
  753MOL0     C99303   5.358   0.823   9.252  0.6089 -0.0427  0.1395
  753MOL0     C99304   5.274   0.783   9.376  0.0395 -0.2215  0.1435
  753MOL0     C99305   5.128   0.770   9.356  0.3494  0.6218  0.2522
  753MOL0     C99306   5.087   0.717   9.217 -0.0171 -0.5979  0.4271
  753MOL0     C99307   4.944   0.672   9.203  0.5031  0.3090  0.2698
  753MOL0    Cl99308   4.824   0.791   9.270  0.0991 -0.1301  0.4062
  753MOL0     C99309   6.026   0.942   9.206  0.6196  0.4616  0.0370
  753MOL0     C99310   6.161   0.948   9.210 -0.1923 -0.6003  0.5332
  753MOL0     O99311   6.431   0.702   8.983 -0.5327 -0.3128 -0.0713
  753MOL0     C99312   6.647   0.955   9.090  0.2682 -0.2590  0.9425
  753MOL0     C99313   6.785   0.977   9.096  0.1596 -0.0596 -0.1700
  753MOL0     N99314   7.474   1.127   9.533 -0.1836 -0.0925  0.0094
  753MOL0     N99315   7.599   1.087   9.547 -0.7138  0.4036 -0.7771
  753MOL0     C99316   8.796   1.216   9.477  0.3816 -0.7028  0.3344
  753MOL0     C99317   8.922   1.261   9.528 -0.4946 -0.3216 -0.5932
  753MOL0     C99318   9.273   1.431   9.770  0.3429 -0.1195 -0.7165
  753MOL0     C99319   9.281   1.571   9.753  0.1214 -0.5396  0.6473
  753MOL0     C99320   9.388   1.643   9.786  0.3574  0.8231  0.4143
  753MOL0     C99321   9.499   1.577   9.846 -0.3401 -0.5876 -0.2438
  753MOL0     O99322   9.601   1.660   9.882  0.1154  0.0302  0.2949
  753MOL0     C99323   9.727   1.602   9.906 -0.5205 -1.0072  0.9462
  753MOL0     C99324   9.834   1.715   9.918  1.0931  0.4130 -0.1369
  753MOL0     C99325   9.972   1.658   9.928  0.3366 -0.1314  0.3341
  753MOL0     C99326  10.057   1.767   9.997  0.1448 -0.1629 -0.3914
  753MOL0     C99327  10.084   1.876   9.902 -0.4986  0.4039 -0.7795
  753MOL0     C99328  10.104   1.963   9.825  0.1765  0.0247 -0.0577
  753MOL0     C99329   9.494   1.434   9.848  0.6837  0.3582 -0.6454
  753MOL0     C99330   9.380   1.365   9.809 -0.5588  0.9101  0.5394
  753MOL0     H99331   8.815   1.517   9.714 -0.7460  0.3878 -1.3601
  753MOL0     H99332   8.596   1.453   9.611  1.4718  2.6503 -1.5607
  753MOL0     H99333   8.431   1.374   9.488 -1.9223 -0.0127  2.6301
  753MOL0     H99334   8.429   1.243   9.598  0.2960  1.4734 -0.8797
  753MOL0     H99335   8.342   1.093   9.400 -0.4687  0.3572  1.0902
  753MOL0     H99336   8.320   1.244   9.323  1.5414  3.0619  2.1078
  753MOL0     H99337   8.177   1.347   9.473  4.2596  1.0409  1.8536
  753MOL0     H99338   8.186   1.203   9.582  1.0327  1.1395  0.5227
  753MOL0     H99339   8.090   1.202   9.289 -0.4568  2.9885  0.5942
  753MOL0     H99340   8.097   1.061   9.398 -0.8812 -0.7678 -1.2440
  753MOL0     H99341   7.934   1.313   9.426  0.2559 -0.0740 -2.5558
  753MOL0     H99342   7.907   1.178   9.528  1.3824  1.1680  1.0966
  753MOL0     H99343   7.883   1.187   9.218 -4.0946  1.7440 -1.1518
  753MOL0     H99344   7.751   1.209   9.318 -2.0733 -2.1400 -2.9631
  753MOL0     H99345   7.767   0.983   9.216 -0.1979 -2.6236  1.3514
  753MOL0     H99346   7.913   0.947   9.298 -1.0153 -1.2388  0.5792
  753MOL0     H99347   7.827   0.939   9.503  0.1492 -0.3146 -0.0751
  753MOL0     H99348   7.740   0.832   9.388  1.0950  0.3342 -0.6758
  753MOL0     H99349   7.507   0.888   9.301 -1.5107 -1.6000  2.2426
  753MOL0     H99350   7.254   1.164   9.395  0.3881  0.4544 -2.3191
  753MOL0     H99351   7.231   0.993   9.458  3.1829 -0.8777  0.2588
  753MOL0     H99352   7.279   0.908   9.240 -3.4470 -0.4999 -1.4017
  753MOL0     H99353   7.319   1.065   9.170  0.6563  0.2444 -0.2392
  753MOL0     H99354   7.041   1.052   9.276 -1.4718  0.7214 -1.5435
  753MOL0     H99355   7.121   1.177   9.195 -1.7724 -0.1575  3.0166
  753MOL0     H99356   7.154   1.012   8.999  0.4554  0.8933 -0.3246
  753MOL0     H99357   7.005   1.091   9.011 -1.3090 -0.5279  0.3372
  753MOL0     H99358   6.909   0.673   9.068 -0.4687  0.3231  0.3220
  753MOL0     H99359   6.669   0.619   9.034  1.6038 -0.0340 -1.1370
  753MOL0     H99360   6.212   0.797   8.904 -4.7426  0.4482 -1.9337
  753MOL0     H99361   5.992   0.781   8.908  0.2416  3.8797 -1.7428
  753MOL0     H99362   5.748   1.000   9.229  1.9056 -0.4902 -0.4291
  753MOL0     H99363   5.761   0.832   9.278  1.8465  1.1620  0.0784
  753MOL0     H99364   5.594   0.806   9.068  0.6793  1.0102  0.7222
  753MOL0     H99365   5.540   0.968   9.102 -2.3711 -1.3659 -2.5106
  753MOL0     H99366   5.525   0.896   9.349  3.1557 -2.0188  2.2913
  753MOL0     H99367   5.541   0.722   9.293 -1.0369  0.0009 -0.0737
  753MOL0     H99368   5.323   0.922   9.220  2.6701  0.4008 -0.9420
  753MOL0     H99369   5.331   0.759   9.168  1.0928  0.9797 -0.8277
  753MOL0     H99370   5.296   0.839   9.468 -2.8944  0.7878  0.3629
  753MOL0     H99371   5.301   0.679   9.393 -0.0476 -0.3929 -0.7228
  753MOL0     H99372   5.086   0.871   9.360 -0.2794  0.3809 -0.0961
  753MOL0     H99373   5.083   0.724   9.444 -0.4381  0.7727 -0.0550
  753MOL0     H99374   5.118   0.798   9.152 -0.4487 -1.9041 -1.4902
  753MOL0     H99375   5.143   0.624   9.203 -1.6916 -1.4645 -0.8291
  753MOL0     H99376   4.932   0.576   9.254 -0.0988 -1.1941 -2.4970
  753MOL0     H99377   4.930   0.659   9.095 -0.1998  2.6213  0.0225
  753MOL0     H99378   5.954   0.977   9.280 -0.0663  0.0413 -0.4238
  753MOL0     H99379   6.212   1.004   9.288  0.9427  0.6599 -1.0315
  753MOL0     H99380   6.572   1.034   9.097 -1.3059 -1.3920 -1.5486
  753MOL0     H99381   6.817   1.079   9.114  1.2815 -0.7939  2.3739
  753MOL0     H99382   8.803   1.129   9.413  3.4610 -2.5324  2.8347
  753MOL0     H99383   9.017   1.211   9.511  0.5103  0.9794  0.8274
  753MOL0     H99384   9.200   1.631   9.712  0.5406 -1.0091 -0.9346
  753MOL0     H99385   9.382   1.751   9.775 -0.8150  0.5192 -2.5961
  753MOL0     H99386   9.751   1.538   9.821 -4.4342 -0.9761 -0.3808
  753MOL0     H99387   9.724   1.544   9.998 -0.2725 -2.6757 -0.0503
  753MOL0     H99388   9.821   1.777   9.828  0.9896 -5.1606 -4.5190
  753MOL0     H99389   9.811   1.776  10.006 -0.5509  1.2793 -1.1178
  753MOL0     H99390   9.999   1.619   9.829 -0.5687  1.8057 -0.7361
  753MOL0     H99391   9.958   1.581  10.004 -1.0782 -1.8456 -1.5403
  753MOL0     H99392  10.007   1.810  10.085  1.4176  1.8570 -0.5889
  753MOL0     H99393  10.151   1.723  10.034  0.6204  1.3706  0.3127
  753MOL0     H99394  10.130   2.047   9.764  0.1798 -0.0481 -0.1580
  753MOL0     H99395   9.577   1.368   9.873 -0.6326 -1.7549 -1.5897
  753MOL0     H99396   9.384   1.257   9.801 -0.7291  0.8887  0.7544
  754MOL0     O99397   1.694   6.141   9.618 -0.5693  0.2958 -0.0211
  754MOL0     C99398   1.805   6.135   9.567  0.4415  1.1955  0.6112
  754MOL0     O99399   1.844   6.046   9.476  0.1755 -0.3485  0.3615
  754MOL0     C99400   1.762   5.948   9.428 -0.3955 -1.1300  0.0633
  754MOL0     C99401   1.613   5.938   9.425  0.1048  0.7446 -0.4717
  754MOL0     C99402   1.555   5.835   9.354 -0.6083 -0.7435 -0.3752
  754MOL0     C99403   1.627   5.740   9.281 -0.6958  0.4479 -0.4969
  754MOL0     O99404   1.558   5.637   9.229 -0.3557 -0.2763 -0.0726
  754MOL0     C99405   1.624   5.566   9.121 -0.1250 -0.6100 -0.1645
  754MOL0     C99406   1.526   5.470   9.056  0.2769  0.8067 -0.1350
  754MOL0     C99407   1.506   5.332   9.134 -0.6813  0.0023 -1.3058
  754MOL0     C99408   1.385   5.263   9.084  1.0090 -0.5348 -0.0205
  754MOL0     C99409   1.362   5.127   9.149  0.0526  0.8849 -0.2567
  754MOL0     C99410   1.262   5.027   9.084  0.6153 -0.0147 -0.2188
  754MOL0     C99411   1.128   5.092   9.052  0.6417 -0.4744  1.0300
  754MOL0     C99412   1.053   5.119   9.183 -0.0362  0.0593 -0.0571
  754MOL0     N99413   0.908   5.136   9.182  0.2588 -0.0399  0.1731
  754MOL0     C99414   0.834   5.235   9.113 -0.7581 -0.6901  0.1523
  754MOL0     C99415   0.707   5.217   9.157 -0.4421  0.5509 -0.4266
  754MOL0     C99416   0.586   5.288   9.094  0.3709 -0.8036  0.3367
  754MOL0     C99417   0.453   5.207   9.093  0.5631 -0.1762  0.1872
  754MOL0     C99418   0.330   5.298   9.072  1.1054 -0.0996 -0.0573
  754MOL0     C99419   0.201   5.212   9.080  0.1736  0.6875 -0.6220
  754MOL0     O99420   0.083   5.290   9.104 -0.4748  0.1362  0.5606
  754MOL0     C99421  -0.040   5.227   9.080 -0.2660 -0.3397 -0.9419
  754MOL0     C99422  -0.149   5.299   9.131 -0.6108  0.0841  0.2185
  754MOL0     C99423  -0.275   5.254   9.113 -0.0559 -0.8717  0.1803
  754MOL0     C99424  -0.295   5.135   9.041  0.7441  0.2145 -0.3951
  754MOL0     C99425  -0.435   5.088   9.017  0.1622 -0.9186 -0.0582
  754MOL0     O99426  -0.528   5.183   9.010  0.4552  0.5286  0.2571
  754MOL0     C99427  -0.652   5.156   8.953  0.5282 -0.0163 -0.2928
  754MOL0     C99428  -0.670   5.083   8.837 -0.5546 -0.2040 -0.4828
  754MOL0     C99429  -0.798   5.061   8.787  0.0841 -0.2173 -0.1463
  754MOL0     C99430  -0.917   5.117   8.851 -0.6684  0.0199  0.4268
  754MOL0     O99431  -1.038   5.087   8.791 -0.0807  0.1132 -0.3650
  754MOL0     C99432  -1.156   5.131   8.860  0.1755 -0.5198 -0.7767
  754MOL0     C99433  -1.269   5.030   8.819 -0.5699 -0.6649  0.6030
  754MOL0     C99434  -1.399   5.060   8.904  0.4828 -0.0592  0.5075
  754MOL0     C99435  -1.511   4.973   8.850  0.0829  0.2929 -0.2017
  754MOL0     C99436  -1.637   4.983   8.934  0.2163 -0.4549  0.1451
  754MOL0     C99437  -1.756   4.893   8.884  0.3689  0.1673  0.0678
  754MOL0     C99438  -1.864   4.911   8.994  0.4441  0.4824 -0.2237
  754MOL0     C99439  -1.998   4.837   8.965  0.2199  0.5024 -0.3941
  754MOL0    Cl99440  -1.961   4.658   8.958  0.0293  0.0687  0.0524
  754MOL0     C99441  -0.896   5.206   8.960  0.0558  0.0539 -0.7616
  754MOL0     C99442  -0.763   5.222   9.003 -0.4170  0.7915  0.0114
  754MOL0     O99443  -0.448   4.972   8.994 -0.4773  0.6055 -0.4564
  754MOL0     C99444  -0.188   5.061   8.996  0.0628 -0.0579  0.4527
  754MOL0     C99445  -0.063   5.110   9.010  0.0972 -0.0220  0.1476
  754MOL0     N99446   0.705   5.129   9.262  0.9779  0.8126  0.0396
  754MOL0     N99447   0.823   5.067   9.270  0.6343 -0.1795 -0.5976
  754MOL0     C99448   1.770   5.751   9.286  0.2667  0.1891 -0.0649
  754MOL0     C99449   1.832   5.857   9.354  0.1727 -0.2382  0.3651
  754MOL0     C99450   1.908   6.225   9.609 -0.1059  0.1124  0.5970
  754MOL0     C99451   1.881   6.347   9.669 -0.1438  0.2291 -0.2142
  754MOL0     C99452   1.983   6.436   9.693 -0.2828  0.0325  0.2166
  754MOL0     C99453   2.121   6.405   9.677  1.1852 -0.6555 -0.1564
  754MOL0     O99454   2.219   6.495   9.718 -0.1830  0.0043  0.4259
  754MOL0     C99455   2.242   6.509   9.856 -0.3161  0.3145  0.3632
  754MOL0     C99456   2.388   6.538   9.855  0.2623 -1.0540 -0.2419
  754MOL0     C99457   2.472   6.417   9.809 -0.6011 -0.0933 -0.0404
  754MOL0     C99458   2.623   6.450   9.818  0.5582  0.0444 -0.3800
  754MOL0     C99459   2.669   6.551   9.718  0.7436  0.6686  0.4284
  754MOL0     C99460   2.690   6.635   9.630 -0.0066 -0.5069 -0.2045
  754MOL0     C99461   2.149   6.277   9.631  0.3997 -0.4089 -0.7688
  754MOL0     C99462   2.045   6.198   9.584  0.6105 -0.5024  0.9850
  754MOL0     H99463   1.547   6.009   9.472 -0.4111 -0.0929  0.0937
  754MOL0     H99464   1.447   5.827   9.357 -0.7944 -1.7987 -4.2397
  754MOL0     H99465   1.706   5.506   9.162  1.5460  0.8789 -1.1652
  754MOL0     H99466   1.653   5.647   9.054 -1.4009  0.7067  0.7953
  754MOL0     H99467   1.577   5.435   8.966  1.4849 -2.0622  1.5143
  754MOL0     H99468   1.427   5.511   9.036 -1.9471 -4.6779 -2.3221
  754MOL0     H99469   1.484   5.358   9.238 -0.7529  0.6229 -1.4691
  754MOL0     H99470   1.605   5.285   9.128 -0.1796  0.5696  1.5060
  754MOL0     H99471   1.299   5.328   9.100  2.2470  1.4652 -1.0017
  754MOL0     H99472   1.397   5.238   8.978 -1.0146 -0.8746 -0.2116
  754MOL0     H99473   1.345   5.123   9.257  2.5442  0.7523  0.1777
  754MOL0     H99474   1.457   5.075   9.136 -0.2246  0.4391 -0.5479
  754MOL0     H99475   1.235   4.940   9.145 -0.7519  0.6547  0.1877
  754MOL0     H99476   1.308   4.990   8.992 -0.1194 -0.6630 -0.3446
  754MOL0     H99477   1.128   5.187   8.997 -1.1048 -0.1819  1.4477
  754MOL0     H99478   1.065   5.034   8.983 -0.1505  0.9288  0.5156
  754MOL0     H99479   1.098   5.209   9.227 -1.6103  1.2647 -0.8137
  754MOL0     H99480   1.061   5.029   9.244 -4.4000 -0.5076 -0.0074
  754MOL0     H99481   0.860   5.304   9.033 -1.9798 -0.9312 -0.4785
  754MOL0     H99482   0.621   5.320   8.995  3.3010 -1.0677  1.1997
  754MOL0     H99483   0.574   5.375   9.159 -1.6419 -1.5225  1.0239
  754MOL0     H99484   0.434   5.154   9.187 -1.9498  0.7560  0.2902
  754MOL0     H99485   0.445   5.138   9.009 -0.8862  1.1683 -0.8451
  754MOL0     H99486   0.346   5.382   9.140  2.0758 -0.2273 -0.1032
  754MOL0     H99487   0.338   5.343   8.973  0.4773  1.1608  0.4509
  754MOL0     H99488   0.207   5.141   9.163 -0.8042 -0.8630 -1.8136
  754MOL0     H99489   0.196   5.150   8.990  0.5853  3.0534 -2.3774
  754MOL0     H99490  -0.135   5.379   9.202 -1.2243 -0.2358  0.7091
  754MOL0     H99491  -0.347   5.315   9.168  1.4757 -1.1435  2.6245
  754MOL0     H99492  -0.579   5.044   8.793  0.0244  2.6379 -2.0976
  754MOL0     H99493  -0.804   5.012   8.691 -0.7622 -0.9485  0.2688
  754MOL0     H99494  -1.188   5.233   8.835 -2.4637 -0.9889  0.3355
  754MOL0     H99495  -1.158   5.134   8.970 -1.8986 -2.9747 -0.6607
  754MOL0     H99496  -1.238   4.928   8.843  0.6193 -0.2348  0.9601
  754MOL0     H99497  -1.296   5.050   8.715 -0.3208 -0.6462  0.5436
  754MOL0     H99498  -1.427   5.165   8.900  4.1917  1.0517 -1.3580
  754MOL0     H99499  -1.369   5.045   9.008  2.2627 -0.4908 -0.0312
  754MOL0     H99500  -1.531   4.999   8.746 -1.1364  0.7156  0.1211
  754MOL0     H99501  -1.482   4.868   8.854  2.0156  0.6960 -1.8288
  754MOL0     H99502  -1.664   5.089   8.942  0.9802 -0.1861 -0.6842
  754MOL0     H99503  -1.610   4.955   9.037  0.5782  2.3558  0.9065
  754MOL0     H99504  -1.733   4.786   8.881 -3.7063 -0.8761  0.5882
  754MOL0     H99505  -1.795   4.923   8.787  0.5534 -0.4048 -0.1888
  754MOL0     H99506  -1.824   4.893   9.095 -0.6524  1.3221  0.3878
  754MOL0     H99507  -1.902   5.013   9.001  1.4585  0.8086  0.9264
  754MOL0     H99508  -2.042   4.864   8.869  3.0832  0.7092 -1.7673
  754MOL0     H99509  -2.075   4.848   9.042  0.4262 -1.0468  0.0691
  754MOL0     H99510  -0.966   5.258   9.025 -1.2048 -3.0331  0.5600
  754MOL0     H99511  -0.755   5.300   9.078 -1.6545 -0.7368  1.8364
  754MOL0     H99512  -0.209   4.966   8.948 -2.1818 -0.5578  2.2799
  754MOL0     H99513   0.018   5.054   8.964  0.0756 -0.6825  0.9046
  754MOL0     H99514   1.836   5.692   9.224 -0.0377 -1.0565  0.7496
  754MOL0     H99515   1.940   5.853   9.363  0.2726 -0.5825 -0.8875
  754MOL0     H99516   1.783   6.378   9.702  0.1742  0.5023  0.5069
  754MOL0     H99517   1.953   6.534   9.728 -0.2636 -0.2213  0.9417
  754MOL0     H99518   2.222   6.412   9.903  2.3511 -1.0675 -1.1269
  754MOL0     H99519   2.181   6.584   9.907  1.0139  0.1341  2.3249
  754MOL0     H99520   2.416   6.621   9.790  4.3136  0.3162  2.8034
  754MOL0     H99521   2.425   6.575   9.951 -2.6095  2.3886 -0.2457
  754MOL0     H99522   2.444   6.389   9.707 -0.2746  0.2684 -0.2310
  754MOL0     H99523   2.449   6.333   9.876  2.9441 -2.2403 -1.2437
  754MOL0     H99524   2.646   6.486   9.919 -0.8281 -1.8456  0.6672
  754MOL0     H99525   2.680   6.356   9.818 -0.1704 -0.4636  2.2230
  754MOL0     H99526   2.706   6.725   9.574  0.6875 -1.4717 -1.5961
  754MOL0     H99527   2.250   6.252   9.601 -0.5443 -1.4424 -3.3631
  754MOL0     H99528   2.077   6.124   9.511 -0.4866 -1.0978  1.0780
  755MOL0     O99529   2.310   2.188   9.832 -0.5168  0.1506 -0.1296
  755MOL0     C99530   2.328   2.092   9.758  0.3113  0.3148 -0.5013
  755MOL0     O99531   2.239   1.986   9.763  0.3775  0.4807  1.0386
  755MOL0     C99532   2.138   1.991   9.849  0.8618 -0.3678  0.8131
  755MOL0     C99533   2.100   1.877   9.930  0.6364  0.1780  0.6829
  755MOL0     C99534   1.986   1.878  10.007 -0.3241  0.7393 -0.1019
  755MOL0     C99535   1.903   1.984  10.009  0.1120 -0.5008 -0.3155
  755MOL0     O99536   1.798   2.000  10.102  0.3086  0.5540  0.8543
  755MOL0     C99537   1.816   1.946  10.233 -0.2507  0.1814  1.2094
  755MOL0     C99538   1.762   2.036  10.348 -0.9441  0.8611  0.0163
  755MOL0     C99539   1.733   1.949  10.469  0.2875 -1.1149 -0.0802
  755MOL0     C99540   1.682   2.052  10.579  0.5123 -0.0814 -0.1299
  755MOL0     C99541   1.648   1.967  10.699  0.3292 -0.8642 -0.4724
  755MOL0     C99542   1.600   2.063  10.804  0.0492  1.1211 -0.2343
  755MOL0     C99543   1.534   2.004  10.925 -0.1533  1.0556  0.7553
  755MOL0     C99544   1.402   1.942  10.886 -0.3154  0.1363 -0.4392
  755MOL0     N99545   1.314   2.037  10.817 -0.8903 -0.5779  0.1717
  755MOL0     C99546   1.283   2.157  10.881 -0.4894 -0.2150 -0.0658
  755MOL0     C99547   1.226   2.238  10.788  0.0592 -0.2169  0.4773
  755MOL0     C99548   1.171   2.375  10.815 -0.5464 -0.2202 -0.0453
  755MOL0     C99549   1.021   2.361  10.841  0.2348  0.5024  0.6817
  755MOL0     C99550   0.932   2.320  10.724 -0.2347 -0.1134  0.1577
  755MOL0     C99551   0.795   2.286  10.769  0.7910  0.4968  0.0101
  755MOL0     O99552   0.739   2.396  10.842 -0.2565  0.3955 -1.0133
  755MOL0     C99553   0.647   2.475  10.787  0.4872  0.1925 -0.7606
  755MOL0     C99554   0.510   2.437  10.781 -0.4913 -0.1940 -0.2730
  755MOL0     C99555   0.412   2.524  10.739  0.3792  0.4039  0.0767
  755MOL0     C99556   0.438   2.651  10.697 -0.1613 -0.2869  0.3478
  755MOL0     C99557   0.336   2.751  10.667  0.2907  0.2856 -0.1584
  755MOL0     O99558   0.212   2.702  10.694 -0.0904  0.6020 -0.4610
  755MOL0     C99559   0.100   2.777  10.667 -0.5447 -0.7564  0.3057
  755MOL0     C99560   0.005   2.719  10.590  0.2705  0.1749 -0.7295
  755MOL0     C99561  -0.117   2.788  10.570 -0.0711  0.0721 -0.3976
  755MOL0     C99562  -0.139   2.914  10.629  0.0224 -0.1104  0.0453
  755MOL0     O99563  -0.253   2.966  10.583  0.1269 -0.4753 -0.0798
  755MOL0     C99564  -0.295   3.090  10.636  0.1237  0.1720  0.0556
  755MOL0     C99565  -0.439   3.141  10.607  0.1852 -1.1929  0.2578
  755MOL0     C99566  -0.542   3.032  10.591 -0.6238 -0.0961  0.0366
  755MOL0     C99567  -0.681   3.092  10.618  0.0436  0.1297  0.0801
  755MOL0     C99568  -0.791   2.993  10.590  0.5921  0.6335 -0.1389
  755MOL0     C99569  -0.815   2.966  10.437 -0.0639 -0.0790 -0.8561
  755MOL0     C99570  -0.894   2.847  10.406  0.2482  0.1722  0.1471
  755MOL0     C99571  -0.919   2.841  10.256  0.3621 -0.3369 -0.2188
  755MOL0    Cl99572  -1.042   2.958  10.214 -0.0082  0.6071 -0.2135
  755MOL0     C99573  -0.041   2.977  10.700 -0.3560 -0.0289  0.4501
  755MOL0     C99574   0.079   2.906  10.724  0.4010 -0.0302 -0.3996
  755MOL0     O99575   0.362   2.855  10.609 -0.1924  0.4581  0.3197
  755MOL0     C99576   0.575   2.682  10.686 -1.4289 -1.0795  0.2138
  755MOL0     C99577   0.679   2.599  10.730 -0.6640 -0.3908 -0.0468
  755MOL0     N99578   1.247   2.173  10.666 -0.0034 -0.4372  0.1595
  755MOL0     N99579   1.291   2.052  10.685 -0.5564 -0.6644  0.1955
  755MOL0     C99580   1.932   2.098   9.929  0.2699  0.7167  0.0979
  755MOL0     C99581   2.053   2.095   9.847  0.0274  0.2972  0.0168
  755MOL0     C99582   2.441   2.089   9.663 -0.4419  1.2866  0.4763
  755MOL0     C99583   2.532   2.201   9.660 -0.3048  0.4177 -0.3075
  755MOL0     C99584   2.642   2.205   9.576  0.3705  0.4354  0.6963
  755MOL0     C99585   2.669   2.097   9.487  0.5603  0.5871 -0.5252
  755MOL0     O99586   2.785   2.098   9.416  0.5866 -0.1072  0.0069
  755MOL0     C99587   2.906   2.061   9.497  0.1099  0.1855  0.1844
  755MOL0     C99588   2.961   2.170   9.600  0.1783  0.1695  0.7999
  755MOL0     C99589   3.016   2.290   9.526  0.1663  0.3264  0.3380
  755MOL0     C99590   3.064   2.408   9.602 -0.0484  0.3329 -0.3377
  755MOL0     C99591   3.166   2.473   9.527  0.2991  0.1369 -0.6907
  755MOL0     C99592   3.239   2.522   9.438  0.7050  0.8154  0.8758
  755MOL0     C99593   2.572   1.999   9.481 -0.8997  0.9655  0.4354
  755MOL0     C99594   2.469   1.986   9.573  0.7790 -0.7738  0.0962
  755MOL0     H99595   2.161   1.789   9.916 -0.2604  0.0359 -3.5104
  755MOL0     H99596   1.975   1.788  10.066  4.2574 -1.3659 -1.9762
  755MOL0     H99597   1.921   1.921  10.253 -0.5766 -0.6764  1.9125
  755MOL0     H99598   1.760   1.852  10.236  1.2443 -0.8269 -0.6138
  755MOL0     H99599   1.676   2.098  10.320 -1.8142  0.2246  1.2112
  755MOL0     H99600   1.845   2.101  10.375 -1.9057  1.1361  2.5447
  755MOL0     H99601   1.821   1.893  10.502  0.9751  0.2024  0.4031
  755MOL0     H99602   1.649   1.883  10.448 -3.5029  2.8879  0.9374
  755MOL0     H99603   1.761   2.125  10.597  0.3454  0.0566  0.0437
  755MOL0     H99604   1.589   2.093  10.537 -0.2140 -0.3223  1.1948
  755MOL0     H99605   1.730   1.907  10.738 -0.4772 -1.5357  0.2462
  755MOL0     H99606   1.568   1.900  10.666  0.5415 -1.4733  0.2248
  755MOL0     H99607   1.528   2.132  10.759 -1.6225 -0.3505  0.0648
  755MOL0     H99608   1.689   2.118  10.837 -0.9334  3.0169 -0.5608
  755MOL0     H99609   1.594   1.924  10.970 -1.9552 -0.3479  0.8074
  755MOL0     H99610   1.526   2.076  11.007  0.7046  2.0918 -0.0469
  755MOL0     H99611   1.359   1.909  10.982 -0.0913 -1.0717 -0.7375
  755MOL0     H99612   1.413   1.850  10.828  0.9198 -0.6374  0.9468
  755MOL0     H99613   1.304   2.185  10.983 -0.3286  1.9043 -0.6220
  755MOL0     H99614   1.190   2.439  10.728  0.8667 -0.6799 -0.0980
  755MOL0     H99615   1.224   2.426  10.896  1.1769 -1.6326 -0.2255
  755MOL0     H99616   0.981   2.462  10.858  1.9510  1.6143 -1.4987
  755MOL0     H99617   0.998   2.298  10.928  2.1325  1.9840  2.3531
  755MOL0     H99618   0.928   2.388  10.639  0.5818 -0.6051 -0.2850
  755MOL0     H99619   0.972   2.232  10.673 -1.4421 -1.7367  1.8658
  755MOL0     H99620   0.791   2.192  10.826 -3.1242  0.6908  0.3394
  755MOL0     H99621   0.734   2.268  10.679 -0.6878 -2.3597  1.4145
  755MOL0     H99622   0.481   2.343  10.827  0.6724 -1.4521 -1.9806
  755MOL0     H99623   0.310   2.488  10.745  0.8964 -1.2774 -0.6368
  755MOL0     H99624   0.009   2.612  10.575 -1.9469 -0.2423  1.1316
  755MOL0     H99625  -0.194   2.732  10.519 -0.9599  0.9133  0.0083
  755MOL0     H99626  -0.219   3.164  10.609 -0.1226  0.2409 -0.4672
  755MOL0     H99627  -0.291   3.076  10.744 -1.1639 -1.3208 -0.0567
  755MOL0     H99628  -0.436   3.206  10.519  1.2456 -0.0795  1.0737
  755MOL0     H99629  -0.463   3.204  10.693  3.6034 -0.8423  1.1367
  755MOL0     H99630  -0.529   2.952  10.665 -1.9601 -1.6307 -1.2976
  755MOL0     H99631  -0.527   2.982  10.496  1.8930 -0.0695  0.3503
  755MOL0     H99632  -0.695   3.122  10.722 -2.9328  1.3182 -0.5495
  755MOL0     H99633  -0.700   3.180  10.555 -0.7701  0.0999  0.2676
  755MOL0     H99634  -0.880   3.041  10.631 -0.4190 -2.7749  2.0685
  755MOL0     H99635  -0.756   2.901  10.638  0.8986 -0.4884 -2.3747
  755MOL0     H99636  -0.713   2.958  10.398  0.7259 -0.5477  1.1776
  755MOL0     H99637  -0.860   3.054  10.388 -1.4331 -1.0196 -1.3501
  755MOL0     H99638  -0.837   2.762  10.444  0.9304 -0.2601 -1.7054
  755MOL0     H99639  -0.989   2.843  10.459 -0.3208  1.6423 -0.6915
  755MOL0     H99640  -0.949   2.742  10.220 -0.9798 -0.3826  0.9390
  755MOL0     H99641  -0.828   2.854  10.196  1.2670 -1.1211  0.9402
  755MOL0     H99642  -0.052   3.075  10.744  2.6181  1.6267 -2.0380
  755MOL0     H99643   0.155   2.951  10.786 -0.6980  1.5562 -0.1588
  755MOL0     H99644   0.602   2.777  10.640 -0.7844  0.3283  3.2518
  755MOL0     H99645   0.781   2.635  10.740 -0.0068 -2.1937  0.0171
  755MOL0     H99646   1.860   2.179   9.923 -0.7828 -0.2097 -0.1633
  755MOL0     H99647   2.075   2.183   9.787  1.8827  0.1251  0.3860
  755MOL0     H99648   2.517   2.284   9.728 -0.6827 -1.4025  1.9504
  755MOL0     H99649   2.708   2.291   9.571 -0.3843  1.0401  0.9000
  755MOL0     H99650   2.981   2.039   9.421  0.4403  0.1613  0.5160
  755MOL0     H99651   2.895   1.962   9.542  1.7902  0.3187  0.9368
  755MOL0     H99652   2.881   2.205   9.666  0.7953 -0.4842  1.9268
  755MOL0     H99653   3.036   2.117   9.659 -0.1492  0.4638  1.4920
  755MOL0     H99654   2.934   2.327   9.463  0.1064 -0.1133  0.1557
  755MOL0     H99655   3.098   2.260   9.459 -0.8828 -1.0561 -0.3640
  755MOL0     H99656   2.991   2.487   9.621  0.5908  0.5980  1.2008
  755MOL0     H99657   3.114   2.371   9.692 -1.4685  1.3027  0.8977
  755MOL0     H99658   3.314   2.555   9.369  0.7950 -0.4857  0.3289
  755MOL0     H99659   2.583   1.912   9.417  0.3662  0.7392  0.9326
  755MOL0     H99660   2.407   1.897   9.564 -0.8368 -0.0625  2.8419
  756MOL0     O99661   3.215   2.768   7.581  0.2128 -0.5948 -0.5138
  756MOL0     C99662   3.276   2.666   7.615 -0.3119 -1.0453 -0.6027
  756MOL0     O99663   3.230   2.541   7.623 -0.2307  0.2351  0.0132
  756MOL0     C99664   3.102   2.515   7.585 -1.0086  0.4242 -0.2758
  756MOL0     C99665   2.996   2.522   7.672 -0.4179 -0.0785  1.0713
  756MOL0     C99666   2.870   2.493   7.626 -0.0079 -0.3812 -0.1807
  756MOL0     C99667   2.848   2.452   7.494  0.2129 -0.5300  0.5492
  756MOL0     O99668   2.729   2.406   7.441 -0.4305 -0.0883 -0.2445
  756MOL0     C99669   2.610   2.483   7.463  0.1258 -0.1472 -0.3290
  756MOL0     C99670   2.533   2.430   7.571  1.3917 -0.3387  0.3982
  756MOL0     C99671   2.380   2.475   7.558 -0.4563 -0.1946 -0.5113
  756MOL0     C99672   2.305   2.421   7.682  1.6726 -0.2660  0.4117
  756MOL0     C99673   2.163   2.475   7.684 -0.8481  0.4875  0.7348
  756MOL0     C99674   2.089   2.413   7.805  0.5206 -0.3786  0.3169
  756MOL0     C99675   1.948   2.436   7.793  1.1466  1.0872  0.0080
  756MOL0     C99676   1.866   2.371   7.903  0.2730 -0.1327 -0.8450
  756MOL0     N99677   1.727   2.384   7.859  0.2652 -0.1874  0.1264
  756MOL0     C99678   1.667   2.286   7.783  0.6753  0.0458 -0.1277
  756MOL0     C99679   1.546   2.348   7.751  0.1132  0.0395 -0.5026
  756MOL0     C99680   1.456   2.281   7.661  0.6157  0.3648 -0.2113
  756MOL0     C99681   1.318   2.274   7.719 -0.5309 -0.4889  0.2755
  756MOL0     C99682   1.217   2.201   7.640 -0.8004 -0.2454 -0.3721
  756MOL0     C99683   1.076   2.228   7.684  0.7452  1.1083 -0.3885
  756MOL0     O99684   0.982   2.158   7.606 -0.2581  0.5894 -0.0403
  756MOL0     C99685   0.853   2.175   7.651 -0.3247  0.5257 -0.1918
  756MOL0     C99686   0.808   2.194   7.782  0.0147  0.0354 -0.2560
  756MOL0     C99687   0.667   2.204   7.806 -0.1701 -0.3274  0.2291
  756MOL0     C99688   0.574   2.208   7.699 -0.5398  0.0235 -0.3480
  756MOL0     C99689   0.426   2.233   7.722 -0.4085  0.0606 -0.0589
  756MOL0     O99690   0.345   2.164   7.642 -0.2755  0.0131  0.0167
  756MOL0     C99691   0.213   2.205   7.614  0.1197 -0.1452 -0.9277
  756MOL0     C99692   0.188   2.270   7.498  0.2650  1.0289  0.5770
  756MOL0     C99693   0.073   2.328   7.466  0.0441  0.0049  1.3079
  756MOL0     C99694  -0.031   2.316   7.555 -0.3071  0.4793  0.0019
  756MOL0     O99695  -0.153   2.370   7.543 -0.5594  0.0583  0.3702
  756MOL0     C99696  -0.216   2.387   7.414  0.9027 -0.4753  0.1239
  756MOL0     C99697  -0.355   2.450   7.431 -0.9647 -0.2562  0.0251
  756MOL0     C99698  -0.440   2.342   7.507 -0.1501  0.1420 -0.4194
  756MOL0     C99699  -0.574   2.383   7.571 -0.3838 -0.0253  0.2581
  756MOL0     C99700  -0.693   2.351   7.482 -0.1763  0.4097  0.4262
  756MOL0     C99701  -0.708   2.414   7.340 -0.9324  0.4351 -0.7066
  756MOL0     C99702  -0.851   2.397   7.290  0.3624 -0.2114 -0.1379
  756MOL0     C99703  -0.890   2.483   7.172  0.5571 -0.7126  0.0608
  756MOL0    Cl99704  -1.056   2.495   7.153  0.2821  0.5170  0.0853
  756MOL0     C99705  -0.014   2.242   7.676 -0.2966 -0.4230 -0.2128
  756MOL0     C99706   0.109   2.181   7.699  0.4839  0.1943  0.0365
  756MOL0     O99707   0.384   2.299   7.822 -0.4750  0.1900 -0.2711
  756MOL0     C99708   0.621   2.195   7.576  0.3906  1.0824 -0.1154
  756MOL0     C99709   0.751   2.170   7.546  0.2041 -0.2552 -0.6139
  756MOL0     N99710   1.535   2.469   7.818 -0.3637  0.4428  0.2550
  756MOL0     N99711   1.641   2.488   7.895 -0.5402 -0.0368 -0.0139
  756MOL0     C99712   2.954   2.452   7.409  0.8273  0.5330  0.1912
  756MOL0     C99713   3.082   2.486   7.454  0.5442  0.0279 -0.0406
  756MOL0     C99714   3.421   2.688   7.658  0.6280 -0.5167 -0.9514
  756MOL0     C99715   3.483   2.593   7.743  0.6417 -0.1221 -0.2436
  756MOL0     C99716   3.611   2.612   7.786 -0.3355  0.5063  1.1934
  756MOL0     C99717   3.687   2.724   7.739  0.2485 -0.4788 -0.2617
  756MOL0     O99718   3.810   2.762   7.777 -0.1740 -0.1861  1.0005
  756MOL0     C99719   3.869   2.703   7.891  0.9998 -0.1750 -0.7786
  756MOL0     C99720   3.925   2.561   7.856 -0.5067  0.0308 -0.1719
  756MOL0     C99721   4.073   2.577   7.845 -0.4273 -0.0427 -0.3673
  756MOL0     C99722   4.147   2.448   7.806  0.8537  0.2570  0.2523
  756MOL0     C99723   4.292   2.477   7.796  0.0836  0.8837 -0.2365
  756MOL0     C99724   4.412   2.486   7.779 -0.6498 -0.7621  0.6131
  756MOL0     C99725   3.633   2.814   7.648 -0.0908  0.2483  0.9053
  756MOL0     C99726   3.502   2.795   7.606 -0.0154  0.2166  0.6250
  756MOL0     H99727   3.010   2.545   7.777 -4.4447  0.6105  1.6361
  756MOL0     H99728   2.788   2.504   7.696  0.6456 -0.3904  0.5877
  756MOL0     H99729   2.558   2.488   7.366  0.0117  1.9057 -0.2036
  756MOL0     H99730   2.634   2.584   7.497 -0.1627  0.4945 -1.9351
  756MOL0     H99731   2.565   2.471   7.668 -0.9363 -0.2946  1.2139
  756MOL0     H99732   2.522   2.321   7.569 -0.4168 -0.1583 -0.9543
  756MOL0     H99733   2.338   2.435   7.466  2.6976 -2.6969 -1.0589
  756MOL0     H99734   2.378   2.584   7.554  0.6962 -0.1798 -4.4161
  756MOL0     H99735   2.311   2.312   7.680  3.6460 -0.2380 -3.3462
  756MOL0     H99736   2.358   2.434   7.777 -0.6056  0.3266  1.6951
  756MOL0     H99737   2.109   2.463   7.589  2.0262 -3.0091 -0.6802
  756MOL0     H99738   2.168   2.583   7.699 -1.8089  1.0309 -2.3076
  756MOL0     H99739   2.126   2.457   7.898 -0.3904 -1.0136  0.9948
  756MOL0     H99740   2.129   2.311   7.800  0.3558 -0.5528  1.8872
  756MOL0     H99741   1.924   2.542   7.803 -3.3081  0.0770  3.1372
  756MOL0     H99742   1.912   2.400   7.696 -1.3285  3.2826 -0.0085
  756MOL0     H99743   1.888   2.416   8.000 -0.2841 -1.8177  0.1041
  756MOL0     H99744   1.893   2.265   7.911  3.5196  0.7207  3.2534
  756MOL0     H99745   1.702   2.189   7.749  1.2206  0.6207 -1.2903
  756MOL0     H99746   1.488   2.179   7.637  0.5745  0.1509  0.6121
  756MOL0     H99747   1.450   2.336   7.566  0.0668 -0.7170 -0.8239
  756MOL0     H99748   1.287   2.376   7.746  0.1255 -0.5442  1.3092
  756MOL0     H99749   1.331   2.223   7.815  2.4355  0.3590  0.4159
  756MOL0     H99750   1.236   2.237   7.538 -0.9435 -0.4071 -0.4582
  756MOL0     H99751   1.248   2.096   7.645  1.5297  0.3474 -1.0864
  756MOL0     H99752   1.041   2.331   7.688 -2.1120  0.2045  0.0384
  756MOL0     H99753   1.063   2.196   7.787 -2.1231 -1.0378 -1.2676
  756MOL0     H99754   0.871   2.178   7.869 -0.2588  0.8664  0.1052
  756MOL0     H99755   0.621   2.223   7.902 -0.4705  0.3720 -0.0481
  756MOL0     H99756   0.274   2.278   7.433 -1.4511  3.0385 -1.6417
  756MOL0     H99757   0.060   2.397   7.382  0.4963  0.3738  1.5388
  756MOL0     H99758  -0.226   2.297   7.353 -1.6903 -0.3631  0.2470
  756MOL0     H99759  -0.149   2.459   7.367 -0.6775  2.6881  2.3341
  756MOL0     H99760  -0.405   2.482   7.340  0.2770  1.6522 -0.0333
  756MOL0     H99761  -0.345   2.537   7.497 -1.7898 -0.9125  1.0494
  756MOL0     H99762  -0.370   2.321   7.588 -0.7911  0.3592  0.2058
  756MOL0     H99763  -0.465   2.256   7.443 -1.4684 -0.4737  0.8503
  756MOL0     H99764  -0.579   2.335   7.670  0.3008 -1.8513 -0.5536
  756MOL0     H99765  -0.569   2.492   7.578 -0.1115 -0.0519  0.5066
  756MOL0     H99766  -0.785   2.376   7.535 -1.5875 -3.3832  0.0696
  756MOL0     H99767  -0.694   2.242   7.467  4.3601 -0.0164  1.8100
  756MOL0     H99768  -0.638   2.365   7.271  0.4807 -0.2170  1.0978
  756MOL0     H99769  -0.677   2.518   7.353  1.0268 -0.1604 -0.1411
  756MOL0     H99770  -0.872   2.297   7.253  0.8037 -0.9630  1.5504
  756MOL0     H99771  -0.924   2.416   7.369 -0.3580 -2.6722 -0.1511
  756MOL0     H99772  -0.861   2.442   7.075 -0.9702 -1.2735 -0.1887
  756MOL0     H99773  -0.853   2.583   7.197 -0.5249 -0.7722  2.1533
  756MOL0     H99774  -0.094   2.233   7.749  1.0668  1.0545  1.5475
  756MOL0     H99775   0.117   2.126   7.791 -0.5557 -0.6313 -0.3436
  756MOL0     H99776   0.542   2.201   7.502  0.9646 -2.3223 -1.2212
  756MOL0     H99777   0.788   2.169   7.444  3.7677  1.5466  0.4708
  756MOL0     H99778   2.931   2.419   7.309 -1.0761  1.7527  0.1830
  756MOL0     H99779   3.163   2.472   7.384 -2.4989 -2.6129 -3.4221
  756MOL0     H99780   3.417   2.512   7.773  1.5392 -0.2167  1.6338
  756MOL0     H99781   3.649   2.535   7.852 -2.5035 -0.5704  1.2826
  756MOL0     H99782   3.786   2.683   7.960  2.0943  2.1858  1.3905
  756MOL0     H99783   3.938   2.769   7.945  1.2931 -0.8542 -0.3054
  756MOL0     H99784   3.897   2.489   7.934  0.6540  0.9084  1.0925
  756MOL0     H99785   3.878   2.517   7.767 -1.1098 -0.1443  0.2239
  756MOL0     H99786   4.113   2.618   7.939 -0.4574  0.9054 -0.7602
  756MOL0     H99787   4.090   2.652   7.767  1.1468  3.7440  3.2025
  756MOL0     H99788   4.120   2.376   7.884 -0.2362 -1.0231 -1.2585
  756MOL0     H99789   4.099   2.426   7.711 -0.3801  1.9686  0.4170
  756MOL0     H99790   4.517   2.483   7.757 -1.2956  0.4579 -3.5560
  756MOL0     H99791   3.692   2.896   7.608  0.3324 -1.2423 -1.7865
  756MOL0     H99792   3.469   2.851   7.520 -1.6664 -3.4037 -1.3142
  757MOL0     O99793   1.159   2.736   3.091 -0.2623  0.5663 -0.0347
  757MOL0     C99794   1.152   2.861   3.095 -0.1865 -0.0087  0.1977
  757MOL0     O99795   1.045   2.927   3.051 -0.2697 -0.5188 -0.5825
  757MOL0     C99796   0.935   2.850   3.019 -0.2385 -0.2291 -0.2274
  757MOL0     C99797   0.852   2.810   3.116 -0.1171  0.0488 -0.2415
  757MOL0     C99798   0.740   2.733   3.085 -1.4049  0.3305 -0.7480
  757MOL0     C99799   0.716   2.687   2.957 -0.0059 -0.3351 -0.4009
  757MOL0     O99800   0.618   2.597   2.935 -0.5233 -0.3102  0.2721
  757MOL0     C99801   0.500   2.626   3.004 -0.0568  0.6628 -0.6186
  757MOL0     C99802   0.469   2.519   3.104  0.0887 -0.2371 -0.8701
  757MOL0     C99803   0.336   2.562   3.176 -1.0403  0.3126  0.3102
  757MOL0     C99804   0.311   2.455   3.287  0.1880  0.1000 -0.1214
  757MOL0     C99805   0.170   2.453   3.333 -0.1242 -0.2148  0.4765
  757MOL0     C99806   0.119   2.572   3.416  0.5448  0.5476 -0.0319
  757MOL0     C99807  -0.028   2.571   3.453  0.1160  0.0679  0.5032
  757MOL0     C99808  -0.070   2.709   3.487  0.2026  0.1981  0.6729
  757MOL0     N99809  -0.214   2.723   3.481 -0.0141 -0.1550  0.1342
  757MOL0     C99810  -0.301   2.653   3.553  1.0619 -0.0651  0.8673
  757MOL0     C99811  -0.421   2.673   3.495  0.1122  0.0529  0.0641
  757MOL0     C99812  -0.540   2.624   3.564 -0.3478 -0.3101  0.6453
  757MOL0     C99813  -0.668   2.711   3.527  0.4638 -0.0367 -0.0626
  757MOL0     C99814  -0.782   2.681   3.623  0.4694 -0.1859 -0.6203
  757MOL0     C99815  -0.923   2.694   3.568 -0.0737  0.7190 -0.5143
  757MOL0     O99816  -0.936   2.828   3.522  0.2899 -0.3839 -0.1172
  757MOL0     C99817  -1.053   2.866   3.456  0.9960  0.1154  0.1209
  757MOL0     C99818  -1.172   2.788   3.473 -0.4518 -0.1585  0.3131
  757MOL0     C99819  -1.290   2.835   3.421  0.3609 -0.5996  0.4875
  757MOL0     C99820  -1.303   2.961   3.349 -0.8212 -0.6336  0.1889
  757MOL0     C99821  -1.434   2.995   3.292  0.5306 -0.5690 -0.2226
  757MOL0     O99822  -1.528   2.885   3.264  0.0848  0.5287 -0.4927
  757MOL0     C99823  -1.658   2.904   3.230 -0.2589 -0.9492 -0.6961
  757MOL0     C99824  -1.716   2.794   3.172  0.1757 -0.4191  0.0900
  757MOL0     C99825  -1.847   2.794   3.120  0.5001  0.0830  0.2611
  757MOL0     C99826  -1.931   2.899   3.142  0.2765 -0.1088  0.7376
  757MOL0     O99827  -2.066   2.894   3.098  0.4091  0.3208 -0.7281
  757MOL0     C99828  -2.166   2.980   3.150  0.2155  0.2986 -0.2218
  757MOL0     C99829  -2.303   2.935   3.103 -0.6873  0.6674  0.9932
  757MOL0     C99830  -2.325   2.939   2.949  0.2323 -0.3046 -0.0754
  757MOL0     C99831  -2.465   2.889   2.916  0.1105  0.5531  0.3447
  757MOL0     C99832  -2.574   2.978   2.973  0.1427  0.0220  0.8335
  757MOL0     C99833  -2.712   2.942   2.921 -0.0936 -0.0178 -0.2011
  757MOL0     C99834  -2.814   3.049   2.938  0.7464  0.7088  0.5550
  757MOL0     C99835  -2.951   2.988   2.880  0.5503 -0.2718 -0.4852
  757MOL0    Cl99836  -3.078   3.109   2.862 -0.0295  0.1491 -0.1474
  757MOL0     C99837  -1.877   3.009   3.206  0.0663 -0.9964  0.1855
  757MOL0     C99838  -1.740   3.018   3.242  0.3949  0.8531 -0.4322
  757MOL0     O99839  -1.465   3.111   3.287  0.1433 -0.7695 -0.2606
  757MOL0     C99840  -1.186   3.037   3.331 -0.3527 -0.8728 -0.1587
  757MOL0     C99841  -1.064   2.991   3.383 -0.7136 -0.1047  0.4193
  757MOL0     N99842  -0.405   2.752   3.378  0.2068  0.9606 -0.5096
  757MOL0     N99843  -0.277   2.767   3.369 -0.0333 -0.0317 -0.1542
  757MOL0     C99844   0.805   2.716   2.861 -0.5390 -0.7790 -0.4112
  757MOL0     C99845   0.919   2.801   2.885 -0.3375 -0.1617 -0.2385
  757MOL0     C99846   1.281   2.934   3.105  1.4435  0.3497 -0.4837
  757MOL0     C99847   1.388   2.869   3.160  0.8514  0.1629 -0.1446
  757MOL0     C99848   1.508   2.940   3.164  0.0491 -0.0570  0.3229
  757MOL0     C99849   1.525   3.061   3.104 -0.6351 -0.2695 -0.7246
  757MOL0     O99850   1.653   3.118   3.090 -0.9454 -0.2924  0.1704
  757MOL0     C99851   1.764   3.037   3.039 -1.2662 -0.4085  0.3028
  757MOL0     C99852   1.874   3.134   3.004 -0.2574 -0.3251  0.5271
  757MOL0     C99853   2.005   3.077   2.966 -0.7710 -0.1189  0.2735
  757MOL0     C99854   2.128   3.174   2.977  0.4681 -0.0573  0.5154
  757MOL0     C99855   2.087   3.313   2.934 -0.4250 -0.3504  0.6461
  757MOL0     C99856   2.053   3.429   2.897  0.4907  0.0029 -0.9543
  757MOL0     C99857   1.417   3.127   3.056 -0.0174 -0.6298 -0.4289
  757MOL0     C99858   1.290   3.064   3.063  0.3331 -0.1458  0.4918
  757MOL0     H99859   0.873   2.833   3.220 -0.9119  0.4117 -0.1547
  757MOL0     H99860   0.682   2.711   3.173  0.5478  0.2660  0.5953
  757MOL0     H99861   0.421   2.630   2.929 -0.2027 -0.2223 -0.5268
  757MOL0     H99862   0.504   2.724   3.050 -2.7137  0.2985  0.5646
  757MOL0     H99863   0.552   2.504   3.174  3.0984  3.2540 -3.2887
  757MOL0     H99864   0.449   2.429   3.046  0.5618  0.1650 -1.6690
  757MOL0     H99865   0.254   2.564   3.105  0.0726  1.5896 -1.0011
  757MOL0     H99866   0.340   2.663   3.219 -1.0153 -0.5083  2.3580
  757MOL0     H99867   0.333   2.355   3.247  1.3723  0.8591 -1.4288
  757MOL0     H99868   0.384   2.488   3.360 -1.7142  2.2276  0.9327
  757MOL0     H99869   0.154   2.358   3.385 -0.5415 -1.3316 -1.5815
  757MOL0     H99870   0.102   2.440   3.248  0.3412 -0.3521  0.1241
  757MOL0     H99871   0.138   2.662   3.355 -2.2404  1.8658  0.8613
  757MOL0     H99872   0.170   2.590   3.511 -2.3700  2.7432  1.2705
  757MOL0     H99873  -0.087   2.526   3.372 -1.0518  0.3111  1.2006
  757MOL0     H99874  -0.046   2.500   3.534 -1.6312  0.9998  0.9842
  757MOL0     H99875  -0.027   2.779   3.414 -0.7620  0.7939  0.6552
  757MOL0     H99876  -0.031   2.742   3.584 -0.7583 -1.3488  1.6181
  757MOL0     H99877  -0.284   2.582   3.633  2.4912 -1.7304 -0.7955
  757MOL0     H99878  -0.527   2.631   3.673 -1.4308  0.0080  0.7615
  757MOL0     H99879  -0.549   2.518   3.540  1.5355 -0.7493  1.7015
  757MOL0     H99880  -0.705   2.688   3.427 -2.8438  0.3666  0.9358
  757MOL0     H99881  -0.645   2.817   3.544 -1.2835  0.0572  2.3165
  757MOL0     H99882  -0.767   2.583   3.667  1.7901 -0.8932 -2.5294
  757MOL0     H99883  -0.771   2.744   3.713  1.1171 -0.7008 -0.3355
  757MOL0     H99884  -0.997   2.668   3.645 -1.2904  3.0610 -0.7966
  757MOL0     H99885  -0.929   2.623   3.485 -1.6576 -0.3475  0.4463
  757MOL0     H99886  -1.156   2.695   3.527  3.0720  0.6107  0.8511
  757MOL0     H99887  -1.385   2.788   3.442 -0.4045  0.5578 -0.2031
  757MOL0     H99888  -1.653   2.709   3.148  0.8344 -0.1814  0.9092
  757MOL0     H99889  -1.885   2.699   3.085  2.4381 -1.3837  1.8798
  757MOL0     H99890  -2.161   3.079   3.105 -0.4957  0.9123  1.0037
  757MOL0     H99891  -2.168   2.985   3.259 -0.6610 -2.6631  0.0022
  757MOL0     H99892  -2.377   2.989   3.163  1.3568  4.3922  0.4498
  757MOL0     H99893  -2.317   2.828   3.120  0.7890 -0.2454 -2.6282
  757MOL0     H99894  -2.256   2.876   2.891  1.6707  1.3275 -0.1999
  757MOL0     H99895  -2.319   3.042   2.912 -0.4105 -0.5575 -0.9500
  757MOL0     H99896  -2.480   2.885   2.808  0.7658 -1.1761  0.2890
  757MOL0     H99897  -2.477   2.789   2.957  1.8405  1.4980  3.5189
  757MOL0     H99898  -2.545   3.082   2.951 -0.3518 -0.0005  0.0580
  757MOL0     H99899  -2.581   2.963   3.081  0.2530  1.5824  1.0866
  757MOL0     H99900  -2.748   2.858   2.982  3.4698 -1.0315  0.7746
  757MOL0     H99901  -2.702   2.905   2.819 -2.0839 -3.4252  0.6762
  757MOL0     H99902  -2.820   3.079   3.043 -2.9219  2.0515  0.1071
  757MOL0     H99903  -2.794   3.141   2.883  0.8587  0.7218  0.6167
  757MOL0     H99904  -2.983   2.910   2.950 -2.0119  2.4157  1.5751
  757MOL0     H99905  -2.938   2.945   2.780  1.3164  0.2274 -0.6102
  757MOL0     H99906  -1.940   3.096   3.227 -0.1896 -1.0009 -0.5355
  757MOL0     H99907  -1.703   3.108   3.289  2.1704  0.2497 -0.5954
  757MOL0     H99908  -1.186   3.141   3.300 -0.4223  0.3315  3.4372
  757MOL0     H99909  -0.982   3.059   3.361  0.2978 -1.5702 -0.5617
  757MOL0     H99910   0.803   2.662   2.766 -1.3153 -0.6021 -0.4983
  757MOL0     H99911   0.999   2.813   2.812  0.5766 -1.3216  0.5388
  757MOL0     H99912   1.384   2.769   3.200  2.5925  1.0329  2.4204
  757MOL0     H99913   1.590   2.896   3.220 -0.8357  0.0151  1.7190
  757MOL0     H99914   1.720   2.994   2.949 -3.7926  3.0628 -0.3159
  757MOL0     H99915   1.804   2.960   3.106 -0.6550 -1.9684 -1.7237
  757MOL0     H99916   1.836   3.197   2.923 -1.0507 -0.5723  0.6955
  757MOL0     H99917   1.889   3.203   3.088  0.4383  0.5342 -0.2841
  757MOL0     H99918   2.022   3.031   2.868  2.6140 -0.1923  0.8089
  757MOL0     H99919   2.019   2.989   3.028 -0.3735 -0.6976 -0.6216
  757MOL0     H99920   2.151   3.179   3.084  0.6572  0.8030  0.4434
  757MOL0     H99921   2.211   3.140   2.915 -0.7685 -0.2330 -1.1210
  757MOL0     H99922   2.009   3.524   2.876  1.5460  0.6812 -0.1759
  757MOL0     H99923   1.419   3.225   3.011  3.0039 -0.0630  0.6707
  757MOL0     H99924   1.204   3.113   3.018  1.1918  1.5147  0.6001
  758MOL0     O99925   5.598   3.370   2.469 -0.5701 -0.0090 -0.6781
  758MOL0     C99926   5.630   3.289   2.389 -0.0144  0.4630  0.5263
  758MOL0     O99927   5.539   3.213   2.323  0.1288 -0.6118  0.1072
  758MOL0     C99928   5.417   3.266   2.308  0.2824 -0.3940  0.3771
  758MOL0     C99929   5.324   3.191   2.358 -0.0735  0.6493  0.0571
  758MOL0     C99930   5.186   3.221   2.336  0.4899 -0.4857 -0.3771
  758MOL0     C99931   5.141   3.340   2.268 -0.2047 -0.5895 -0.8182
  758MOL0     O99932   5.012   3.383   2.233 -0.1802  0.5588  0.5607
  758MOL0     C99933   4.911   3.282   2.257  0.0239 -0.0781  0.2893
  758MOL0     C99934   4.915   3.176   2.135  0.7339 -0.2546  0.4787
  758MOL0     C99935   4.860   3.234   2.004  0.2997 -0.1956  0.2850
  758MOL0     C99936   4.843   3.129   1.887 -0.1832  0.2638  0.5415
  758MOL0     C99937   4.700   3.083   1.866  0.2850  1.6125  0.2508
  758MOL0     C99938   4.682   2.987   1.753 -0.1950 -0.0458  0.1208
  758MOL0     C99939   4.547   2.922   1.743 -0.5335  0.2854 -0.6992
  758MOL0     C99940   4.449   3.018   1.674  0.8039 -0.3502 -1.0718
  758MOL0     N99941   4.313   2.951   1.676 -0.3370 -0.2390  0.9700
  758MOL0     C99942   4.227   2.956   1.785  0.3980 -0.8597  0.4375
  758MOL0     C99943   4.137   2.862   1.755 -0.3022 -0.4714  0.3801
  758MOL0     C99944   4.004   2.856   1.818 -0.6178  0.2648 -0.9165
  758MOL0     C99945   3.985   2.730   1.902 -0.0178  1.1837 -0.7492
  758MOL0     C99946   4.011   2.762   2.053 -0.3573 -0.3240 -0.0935
  758MOL0     C99947   4.153   2.788   2.089  0.4611 -0.6063  0.0080
  758MOL0     O99948   4.240   2.679   2.043 -0.0090 -0.1190 -0.4943
  758MOL0     C99949   4.376   2.708   2.056  0.4263  0.1409 -0.2955
  758MOL0     C99950   4.436   2.802   2.141 -0.3761 -0.1564  0.1817
  758MOL0     C99951   4.573   2.818   2.146 -1.1847 -0.7336 -0.1681
  758MOL0     C99952   4.667   2.743   2.066  0.4760  0.1520  0.5740
  758MOL0     C99953   4.819   2.742   2.084  0.6488 -0.1795  0.4554
  758MOL0     O99954   4.866   2.809   2.190 -0.2665  0.2707 -0.3733
  758MOL0     C99955   5.005   2.811   2.211 -0.3768  0.3473 -0.5622
  758MOL0     C99956   5.093   2.872   2.126  0.4168 -0.5177  0.1599
  758MOL0     C99957   5.224   2.878   2.157  0.0406  0.1318  0.3041
  758MOL0     C99958   5.279   2.831   2.273 -0.5752  0.1523  0.0637
  758MOL0     O99959   5.411   2.864   2.295 -0.4998  0.5671 -0.3165
  758MOL0     C99960   5.458   2.834   2.430 -0.3169  0.2786 -0.2281
  758MOL0     C99961   5.606   2.887   2.446 -0.0518  0.5538  0.9419
  758MOL0     C99962   5.689   2.804   2.353  0.2832  0.1235  0.3724
  758MOL0     C99963   5.824   2.857   2.335  0.5562  0.4083  0.1611
  758MOL0     C99964   5.911   2.737   2.295  0.1229  0.2534 -0.0012
  758MOL0     C99965   6.048   2.773   2.248  0.2706  0.5546  0.2241
  758MOL0     C99966   6.133   2.647   2.238  0.1801  0.8291 -0.3365
  758MOL0     C99967   6.275   2.679   2.192 -0.2534 -0.6284  0.0143
  758MOL0    Cl99968   6.275   2.785   2.041  0.2355  0.3582  0.2190
  758MOL0     C99969   5.190   2.775   2.363 -0.5537 -0.2350 -0.0119
  758MOL0     C99970   5.057   2.767   2.334 -0.8267  0.9766 -0.0459
  758MOL0     O99971   4.882   2.673   2.005  0.6993 -0.1046  0.3289
  758MOL0     C99972   4.605   2.661   1.966 -0.1802  0.5362 -1.0968
  758MOL0     C99973   4.456   2.645   1.972 -0.6193 -0.7556 -0.5427
  758MOL0     N99974   4.177   2.786   1.646  0.4161  0.0537 -0.5812
  758MOL0     N99975   4.281   2.846   1.594 -0.0009 -0.0642 -1.0058
  758MOL0     C99976   5.247   3.422   2.224 -0.1173  1.1390 -0.1083
  758MOL0     C99977   5.374   3.381   2.237 -0.5082 -0.8976  0.0464
  758MOL0     C99978   5.773   3.268   2.367  0.4994  0.9306  0.1603
  758MOL0     C99979   5.809   3.219   2.250 -0.3847  0.1572 -0.2438
  758MOL0     C99980   5.942   3.187   2.215  0.2724 -0.3615  0.1176
  758MOL0     C99981   6.040   3.224   2.300  0.0530  0.5352  0.1535
  758MOL0     O99982   6.176   3.211   2.284 -0.4324 -0.7653  0.5307
  758MOL0     C99983   6.220   3.142   2.160  0.2191  0.3674 -0.4418
  758MOL0     C99984   6.366   3.084   2.173  0.2601 -0.6024 -0.0535
  758MOL0     C99985   6.462   3.188   2.218  0.0874 -0.8100  0.3522
  758MOL0     C99986   6.606   3.137   2.232  0.3763  0.0652  0.3555
  758MOL0     C99987   6.704   3.245   2.240  0.2124  0.3555  0.1651
  758MOL0     C99988   6.772   3.346   2.243  0.6892  0.0300 -0.1677
  758MOL0     C99989   6.010   3.288   2.418 -0.7813 -0.4718 -0.1506
  758MOL0     C99990   5.873   3.313   2.454 -0.0074  0.5907  0.3230
  758MOL0     H99991   5.336   3.104   2.421 -0.7907  0.7723  0.3666
  758MOL0     H99992   5.110   3.150   2.369 -1.5670  0.5886 -2.5559
  758MOL0     H99993   4.808   3.321   2.260  0.3221  0.7075  0.4556
  758MOL0     H99994   4.920   3.230   2.352 -2.9012  1.2120  1.4098
  758MOL0     H99995   4.853   3.098   2.179  0.4770  1.0997  2.6575
  758MOL0     H99996   5.022   3.150   2.133  1.2405  1.7306 -1.0694
  758MOL0     H99997   4.918   3.322   1.976  0.1388 -0.2505 -0.2280
  758MOL0     H99998   4.761   3.267   2.036  0.6277  1.3546 -0.2331
  758MOL0     H99999   4.880   3.168   1.792 -1.2088 -0.2305 -0.0807
  758MOL0     H    0   4.903   3.038   1.895 -1.7622 -0.7317  1.5641
  758MOL0     H    1   4.630   3.163   1.843 -0.8367  1.6650  3.3543
  758MOL0     H    2   4.671   3.029   1.956  0.8050  1.7905  0.5300
  758MOL0     H    3   4.749   2.901   1.766  0.6255  0.7995  1.7688
  758MOL0     H    4   4.716   3.033   1.659 -1.3452 -0.3022 -0.4349
  758MOL0     H    5   4.556   2.830   1.684  1.6820  1.1156 -1.7815
  758MOL0     H    6   4.507   2.892   1.840  0.1737  0.0275 -0.4817
  758MOL0     H    7   4.471   3.031   1.568 -3.3906 -0.2594 -2.1187
  758MOL0     H    8   4.444   3.110   1.733  1.5183 -3.7278  5.0867
  758MOL0     H    9   4.227   3.029   1.866  1.8943 -0.2826 -0.0431
  758MOL0     H   10   3.932   2.848   1.736 -0.1171 -1.1286 -1.2428
  758MOL0     H   11   3.985   2.948   1.875  0.7469 -0.5584  1.0086
  758MOL0     H   12   4.046   2.645   1.868 -0.0632  1.7837 -2.3860
  758MOL0     H   13   3.884   2.689   1.906  0.8887 -1.3595 -1.7965
  758MOL0     H   14   3.947   2.844   2.086  0.8841  0.5505  0.2297
  758MOL0     H   15   3.971   2.672   2.100 -2.4776  0.0276 -1.1191
  758MOL0     H   16   4.152   2.791   2.198  0.6484 -0.8259  0.0155
  758MOL0     H   17   4.187   2.884   2.048  2.4519 -1.1664  0.2141
  758MOL0     H   18   4.387   2.864   2.216  2.1042  0.9666  0.9865
  758MOL0     H   19   4.613   2.882   2.224  0.6409  1.0343 -2.4062
  758MOL0     H   20   5.053   2.917   2.036  0.4278 -0.7674  0.0263
  758MOL0     H   21   5.299   2.927   2.095 -2.1160 -0.8125 -3.3948
  758MOL0     H   22   5.450   2.726   2.442  1.9773  0.0424 -0.4025
  758MOL0     H   23   5.404   2.880   2.514  1.6671 -2.0716  2.5246
  758MOL0     H   24   5.639   2.860   2.547 -0.8497  1.6675  1.5234
  758MOL0     H   25   5.609   2.994   2.427 -0.9526  0.0334 -3.0421
  758MOL0     H   26   5.651   2.785   2.252  1.5982 -2.0111  0.2006
  758MOL0     H   27   5.698   2.704   2.396 -1.0577 -0.4328 -0.5697
  758MOL0     H   28   5.814   2.940   2.264  1.1543  0.5192  0.2045
  758MOL0     H   29   5.866   2.895   2.429 -2.7773  1.2934  1.4634
  758MOL0     H   30   5.866   2.682   2.212 -0.2708 -1.1931  1.1177
  758MOL0     H   31   5.924   2.670   2.381  5.1102  2.5234  1.3977
  758MOL0     H   32   6.094   2.835   2.326  0.0013 -1.7857  2.3936
  758MOL0     H   33   6.054   2.828   2.154  2.3024  1.2895  0.7272
  758MOL0     H   34   6.133   2.598   2.336  0.8869  0.3394 -0.5686
  758MOL0     H   35   6.089   2.581   2.162  0.1532  0.5479 -0.0785
  758MOL0     H   36   6.345   2.600   2.161  1.6360  1.9282 -2.8253
  758MOL0     H   37   6.325   2.724   2.278 -0.0321 -3.4694  1.4953
  758MOL0     H   38   5.221   2.742   2.462  0.3295 -0.7027 -0.4362
  758MOL0     H   39   4.983   2.721   2.399  1.6626 -2.0027  0.8905
  758MOL0     H   40   4.663   2.623   1.882  0.4546  0.2094 -0.5185
  758MOL0     H   41   4.403   2.579   1.904 -0.3105 -1.4769 -0.0897
  758MOL0     H   42   5.216   3.516   2.180  3.4868  2.8752  0.7504
  758MOL0     H   43   5.448   3.442   2.186 -2.3520 -1.9536 -4.3657
  758MOL0     H   44   5.738   3.196   2.172 -0.8093  0.6636 -0.0186
  758MOL0     H   45   5.951   3.120   2.129  0.8069 -2.4749  1.7215
  758MOL0     H   46   6.213   3.211   2.076  1.0699  0.8724 -0.1190
  758MOL0     H   47   6.155   3.059   2.132 -1.5343  1.1594  1.0832
  758MOL0     H   48   6.370   3.004   2.247  3.0694 -0.5348 -0.0570
  758MOL0     H   49   6.381   3.035   2.076  1.7651  2.9691 -1.8331
  758MOL0     H   50   6.436   3.221   2.319 -1.4259  0.6176 -0.4632
  758MOL0     H   51   6.453   3.279   2.158 -1.3132  1.5007  3.7281
  758MOL0     H   52   6.621   3.078   2.323 -0.9026  1.1093  1.2614
  758MOL0     H   53   6.627   3.075   2.144  1.8346 -0.4828  1.0608
  758MOL0     H   54   6.831   3.431   2.272  3.1788 -1.2421 -1.2046
  758MOL0     H   55   6.093   3.318   2.480  0.7618  1.0152 -2.7840
  758MOL0     H   56   5.845   3.369   2.542  1.7416  2.5622 -0.2950
  759MOL0     O   57   7.189   9.438  10.517 -0.1479  0.5444 -0.2356
  759MOL0     C   58   7.196   9.557  10.486  0.4609  0.1889 -0.2540
  759MOL0     O   59   7.308   9.616  10.421  0.7346  0.0373 -0.4476
  759MOL0     C   60   7.425   9.547  10.426 -0.2636 -0.4449  0.7154
  759MOL0     C   61   7.474   9.504  10.553 -0.3260  0.4586 -0.1356
  759MOL0     C   62   7.590   9.422  10.561 -0.1622  0.2724  0.4704
  759MOL0     C   63   7.658   9.382  10.444  0.0964 -0.1704 -0.8320
  759MOL0     O   64   7.777   9.319  10.437 -0.5814 -0.4166 -0.4781
  759MOL0     C   65   7.845   9.285  10.557  0.2218  0.3802 -0.2315
  759MOL0     C   66   7.959   9.191  10.523  0.0774  0.3791 -0.2346
  759MOL0     C   67   7.924   9.070  10.420 -0.8092 -0.7381 -0.9205
  759MOL0     C   68   7.802   8.988  10.477  0.1670 -0.1697  0.4495
  759MOL0     C   69   7.792   8.847  10.422 -0.5466  0.0894  0.2111
  759MOL0     C   70   7.684   8.768  10.493  0.3494  0.1246  0.2329
  759MOL0     C   71   7.738   8.628  10.518 -0.3746  0.8986 -0.0287
  759MOL0     C   72   7.615   8.543  10.553  0.3106 -0.0272 -0.0522
  759MOL0     N   73   7.564   8.572  10.692 -0.4322 -0.1788 -0.6778
  759MOL0     C   74   7.453   8.649  10.725 -0.4453  0.9041  0.6840
  759MOL0     C   75   7.440   8.630  10.855 -0.8729 -0.0499 -0.1630
  759MOL0     C   76   7.347   8.707  10.953 -0.6062 -0.2342  0.4902
  759MOL0     C   77   7.206   8.653  10.943 -0.1869 -0.0586 -0.1839
  759MOL0     C   78   7.113   8.719  11.042  0.0908 -0.1366 -0.5113
  759MOL0     C   79   6.973   8.662  11.032  0.2105 -0.3237 -0.2088
  759MOL0     O   80   6.961   8.529  11.085  0.4453  0.1306  0.0866
  759MOL0     C   81   6.893   8.512  11.201 -0.3124  0.1195  0.5363
  759MOL0     C   82   6.861   8.618  11.289 -0.4541 -0.1653 -0.1860
  759MOL0     C   83   6.776   8.587  11.399 -0.2119 -0.0662 -0.5234
  759MOL0     C   84   6.707   8.465  11.413 -0.8161  0.6249  0.1002
  759MOL0     C   85   6.595   8.444  11.510 -0.3114  0.1884 -0.2843
  759MOL0     O   86   6.526   8.324  11.504  0.6246  0.0069 -0.3497
  759MOL0     C   87   6.417   8.299  11.590 -0.2457 -0.3731  0.0703
  759MOL0     C   88   6.401   8.333  11.726 -0.3081 -0.7154  1.0613
  759MOL0     C   89   6.278   8.308  11.792 -0.2764 -0.0668  0.4522
  759MOL0     C   90   6.163   8.252  11.725  0.5170  1.1996 -0.9112
  759MOL0     O   91   6.047   8.227  11.792  0.0690  0.4237 -0.3867
  759MOL0     C   92   5.947   8.155  11.725  0.7001  0.1732  0.0801
  759MOL0     C   93   5.810   8.147  11.802 -0.6926  0.0810 -0.6178
  759MOL0     C   94   5.704   8.068  11.709 -0.2556 -0.7179 -0.1367
  759MOL0     C   95   5.569   8.050  11.784 -0.8449  0.2193 -0.7196
  759MOL0     C   96   5.447   8.045  11.690 -1.0158  0.4615  0.7187
  759MOL0     C   97   5.325   8.003  11.764 -0.2900  0.3482 -0.2853
  759MOL0     C   98   5.203   8.019  11.675  0.2693  0.7897  0.3733
  759MOL0     C   99   5.078   7.941  11.733 -0.7742 -0.4187 -0.2417
  759MOL0    Cl  100   5.010   8.042  11.870 -0.0763  0.3108 -0.1246
  759MOL0     C  101   6.185   8.205  11.591  0.0819  0.2775 -0.5770
  759MOL0     C  102   6.308   8.226  11.527 -0.6252  0.1826 -0.7421
  759MOL0     O  103   6.575   8.540  11.589  0.1568 -0.2816  0.8366
  759MOL0     C  104   6.751   8.361  11.322  0.1886 -0.2069  0.3403
  759MOL0     C  105   6.836   8.387  11.218 -0.2351 -1.1970  0.6507
  759MOL0     N  106   7.526   8.537  10.898  0.6041 -0.2156  0.3348
  759MOL0     N  107   7.605   8.509  10.803 -0.3456  1.0324 -0.8578
  759MOL0     C  108   7.607   9.424  10.321 -0.4065  0.1550  0.2556
  759MOL0     C  109   7.488   9.507  10.313  1.0595 -0.1232  0.1827
  759MOL0     C  110   7.073   9.636  10.505  0.4028 -0.5214  0.3810
  759MOL0     C  111   7.062   9.753  10.432 -0.3752  0.1979 -0.1093
  759MOL0     C  112   6.953   9.833  10.447 -0.1295  0.0926  0.0198
  759MOL0     C  113   6.836   9.796  10.519 -0.2030  0.6594  0.0864
  759MOL0     O  114   6.726   9.875  10.540  0.1882  1.3078  0.1254
  759MOL0     C  115   6.727  10.002  10.470 -0.0319 -0.3577  0.4497
  759MOL0     C  116   6.596  10.072  10.481  0.0226 -0.5164  0.3292
  759MOL0     C  117   6.602  10.202  10.400 -0.5934  0.4703  0.4293
  759MOL0     C  118   6.460  10.270  10.402  0.3394  0.8743  0.2542
  759MOL0     C  119   6.447  10.383  10.312  0.6308  0.7276 -0.2649
  759MOL0     C  120   6.430  10.476  10.241  0.7367 -0.1488  0.8771
  759MOL0     C  121   6.841   9.674  10.583  0.4449  0.2563  0.1626
  759MOL0     C  122   6.956   9.593  10.577  0.5434 -0.3393 -0.1193
  759MOL0     H  123   7.440   9.541  10.649 -3.7227  1.1279 -1.4659
  759MOL0     H  124   7.627   9.372  10.650 -1.1895 -2.1678 -0.3736
  759MOL0     H  125   7.777   9.247  10.634  1.6903  2.3597  2.2120
  759MOL0     H  126   7.895   9.361  10.618 -0.6784  0.7142  0.0997
  759MOL0     H  127   8.004   9.151  10.614  0.7672  0.2252 -0.6343
  759MOL0     H  128   8.032   9.248  10.464  0.3856 -1.0901 -1.3487
  759MOL0     H  129   8.013   9.006  10.415  0.7245  1.1648  0.2370
  759MOL0     H  130   7.913   9.107  10.318 -0.1015  1.5836 -0.2235
  759MOL0     H  131   7.801   8.981  10.587 -2.7262 -0.9392  0.4583
  759MOL0     H  132   7.706   9.037  10.464 -0.5433 -2.0118 -1.9197
  759MOL0     H  133   7.896   8.814  10.436 -0.0118  0.7470 -1.9400
  759MOL0     H  134   7.777   8.849  10.314  2.4007  3.0500 -0.3070
  759MOL0     H  135   7.610   8.762  10.413  1.3149  0.2785 -0.6919
  759MOL0     H  136   7.650   8.821  10.583 -0.4473 -0.5638  0.3479
  759MOL0     H  137   7.785   8.587  10.428 -0.8183  1.6249 -0.5998
  759MOL0     H  138   7.810   8.631  10.600  0.1202 -0.9456 -0.3339
  759MOL0     H  139   7.652   8.440  10.554  1.7289  0.4591  1.4778
  759MOL0     H  140   7.549   8.562  10.468  0.8165  2.2119 -0.0278
  759MOL0     H  141   7.395   8.718  10.664 -3.1259 -0.4972  1.4701
  759MOL0     H  142   7.336   8.811  10.922 -3.0205 -0.4723  0.3399
  759MOL0     H  143   7.383   8.701  11.056 -4.1316 -5.3569  1.8033
  759MOL0     H  144   7.207   8.546  10.967  2.3251  0.2444  1.3854
  759MOL0     H  145   7.180   8.677  10.839 -0.6848  0.8193  0.1274
  759MOL0     H  146   7.150   8.705  11.144 -3.2651 -1.2928  0.6915
  759MOL0     H  147   7.102   8.826  11.024 -2.2940 -0.0454  1.0344
  759MOL0     H  148   6.958   8.657  10.924 -2.4638 -2.3604  0.1596
  759MOL0     H  149   6.898   8.733  11.068  0.7537  0.4617 -0.6147
  759MOL0     H  150   6.896   8.720  11.277 -0.9256 -0.0587 -0.7272
  759MOL0     H  151   6.742   8.660  11.472  0.3393  1.1543 -1.4410
  759MOL0     H  152   6.487   8.369  11.782 -0.1854  0.9705 -0.1270
  759MOL0     H  153   6.271   8.318  11.900  0.1945  1.1647  0.3858
  759MOL0     H  154   5.991   8.056  11.708  0.9665 -0.5129  3.8082
  759MOL0     H  155   5.922   8.211  11.634  0.1967  1.4133  0.9456
  759MOL0     H  156   5.770   8.246  11.826  0.8527  0.6680 -0.2838
  759MOL0     H  157   5.821   8.100  11.900 -3.1024  2.0676  0.7281
  759MOL0     H  158   5.739   7.970  11.676  1.5906  0.2884 -1.3309
  759MOL0     H  159   5.675   8.123  11.619 -0.4052 -1.3042 -0.4519
  759MOL0     H  160   5.573   7.957  11.841 -0.1029 -0.0225 -1.1603
  759MOL0     H  161   5.553   8.125  11.862 -0.3512 -0.1384 -0.2698
  759MOL0     H  162   5.470   7.965  11.619 -0.4896  1.3815 -0.1717
  759MOL0     H  163   5.434   8.140  11.638  1.9608 -0.3535 -1.8385
  759MOL0     H  164   5.316   8.054  11.860  0.6549 -2.6278  1.5205
  759MOL0     H  165   5.344   7.896  11.779 -0.5933  0.1732 -1.1068
  759MOL0     H  166   5.180   8.125  11.659  0.0140  0.8973  1.3595
  759MOL0     H  167   5.231   7.980  11.577 -2.4151  2.5772 -1.2444
  759MOL0     H  168   5.112   7.847  11.777 -2.0333  0.9330  4.1769
  759MOL0     H  169   5.000   7.929  11.657 -0.8947  1.1365 -0.4016
  759MOL0     H  170   6.109   8.157  11.531  0.7249 -0.5183 -0.7614
  759MOL0     H  171   6.317   8.197  11.423 -1.8292 -2.3555 -0.2082
  759MOL0     H  172   6.701   8.264  11.323  2.1062 -1.3809 -2.5485
  759MOL0     H  173   6.856   8.313  11.140 -1.7627  0.3265 -1.3005
  759MOL0     H  174   7.677   9.401  10.241  1.4782 -0.6742  2.0558
  759MOL0     H  175   7.460   9.537  10.212 -1.1004  2.2349  1.3792
  759MOL0     H  176   7.137   9.778  10.358 -4.3248  2.1722 -3.8826
  759MOL0     H  177   6.965   9.925  10.391  1.7634  0.5424  1.0603
  759MOL0     H  178   6.753   9.993  10.365  0.3097  2.6320  0.1860
  759MOL0     H  179   6.795  10.074  10.516 -0.0012  0.3904 -0.7342
  759MOL0     H  180   6.521  10.013  10.427 -0.3523 -0.3884  0.6996
  759MOL0     H  181   6.567  10.091  10.585 -0.1480 -1.1860  0.4091
  759MOL0     H  182   6.637  10.181  10.298  0.4734 -0.4556  0.9697
  759MOL0     H  183   6.679  10.268  10.442 -1.6579  2.6398 -0.8225
  759MOL0     H  184   6.378  10.202  10.379 -1.7099  2.6180  1.9577
  759MOL0     H  185   6.442  10.316  10.500 -0.1804 -1.5992  1.4006
  759MOL0     H  186   6.416  10.570  10.191 -1.0600 -0.5820  0.4951
  759MOL0     H  187   6.753   9.632  10.631 -0.2836 -0.5009 -1.7472
  759MOL0     H  188   6.967   9.505  10.639  1.8403  0.1649  0.4147
  760MOL0     O  189   8.489   0.336   7.458  0.1263  0.7237 -0.4519
  760MOL0     C  190   8.512   0.461   7.429  0.3962 -0.4093 -0.2735
  760MOL0     O  191   8.430   0.541   7.356 -0.2720  0.4806 -0.3476
  760MOL0     C  192   8.314   0.483   7.314 -0.2904  0.4671  0.1567
  760MOL0     C  193   8.202   0.523   7.384  0.2851  0.5138  0.4562
  760MOL0     C  194   8.081   0.460   7.339 -0.3157 -0.1432  0.3748
  760MOL0     C  195   8.076   0.357   7.243 -1.1598  0.0931 -0.7186
  760MOL0     O  196   7.964   0.288   7.214  0.4849  0.4944 -0.5533
  760MOL0     C  197   7.828   0.330   7.262 -0.1610 -0.1865  0.9360
  760MOL0     C  198   7.726   0.220   7.260  0.2790 -0.0100 -0.2527
  760MOL0     C  199   7.714   0.165   7.118  0.8709  0.4034  0.6307
  760MOL0     C  200   7.623   0.044   7.092  0.1197 -0.0310  0.2305
  760MOL0     C  201   7.479   0.052   7.141  0.1347 -0.2178  0.6313
  760MOL0     C  202   7.396  -0.054   7.080 -0.7261  0.3192 -0.7094
  760MOL0     C  203   7.258  -0.054   7.154  0.1282 -0.2660  0.3431
  760MOL0     C  204   7.167  -0.148   7.083  0.2664  0.2902  0.6601
  760MOL0     N  205   7.043  -0.173   7.146  0.9456  0.3414  0.2362
  760MOL0     C  206   7.025  -0.213   7.272 -0.3253 -0.9739 -0.4006
  760MOL0     C  207   6.897  -0.172   7.298  0.4311  0.2743 -0.0053
  760MOL0     C  208   6.817  -0.157   7.425  0.8488 -0.6910 -0.8455
  760MOL0     C  209   6.900  -0.079   7.527  0.3673  0.0243 -0.4085
  760MOL0     C  210   6.918   0.065   7.490  0.7557  0.2585  0.3519
  760MOL0     C  211   7.042   0.120   7.560 -0.6458 -0.2155 -0.7556
  760MOL0     O  212   7.168   0.070   7.507  0.0568 -0.1871 -1.0984
  760MOL0     C  213   7.284   0.126   7.550 -0.2530  0.1098 -0.8612
  760MOL0     C  214   7.298   0.244   7.633  0.7048  0.3831  1.0318
  760MOL0     C  215   7.421   0.276   7.694  0.9010 -0.3566 -0.2267
  760MOL0     C  216   7.536   0.206   7.650  0.8164 -0.1391  0.6716
  760MOL0     C  217   7.666   0.240   7.720 -0.5676  0.3140 -0.4158
  760MOL0     O  218   7.779   0.181   7.657 -0.2630 -0.3917  0.5947
  760MOL0     C  219   7.910   0.197   7.705 -0.2910  0.1394 -0.5487
  760MOL0     C  220   7.941   0.160   7.842 -0.0015 -0.5096  0.0044
  760MOL0     C  221   8.059   0.199   7.885 -0.1157 -0.6052 -0.2782
  760MOL0     C  222   8.160   0.257   7.810 -0.6285 -0.2974 -1.1378
  760MOL0     O  223   8.282   0.276   7.867 -0.0172 -0.7464 -0.1872
  760MOL0     C  224   8.403   0.262   7.784 -0.4821  0.4428 -0.5013
  760MOL0     C  225   8.528   0.250   7.877  0.3506  0.6133 -0.4101
  760MOL0     C  226   8.534   0.113   7.942  0.2728 -0.3123 -0.2493
  760MOL0     C  227   8.624   0.110   8.070  0.1056  0.3587 -0.5451
  760MOL0     C  228   8.771   0.110   8.047  0.1029  0.0749 -0.6810
  760MOL0     C  229   8.857   0.070   8.166 -0.3586 -1.1309 -0.4435
  760MOL0     C  230   8.871   0.183   8.269 -0.9704 -0.3805  0.0976
  760MOL0     C  231   8.978   0.153   8.378 -0.1208 -0.4647 -0.1771
  760MOL0    Cl  232   9.135   0.197   8.330 -0.0446 -0.0263  0.3716
  760MOL0     C  233   8.133   0.291   7.674 -0.3104  0.0493  0.5471
  760MOL0     C  234   8.007   0.258   7.631 -0.2721 -0.5017  0.9189
  760MOL0     O  235   7.670   0.322   7.813  0.1822 -0.1448 -0.6322
  760MOL0     C  236   7.531   0.102   7.560 -0.4291 -0.1770  0.3400
  760MOL0     C  237   7.406   0.064   7.516 -0.0293 -0.4970 -0.2982
  760MOL0     N  238   6.838  -0.121   7.181  0.7733 -0.1678  0.1351
  760MOL0     N  239   6.933  -0.104   7.100 -0.2144  0.1926  0.8201
  760MOL0     C  240   8.192   0.329   7.177  0.3438  0.6155 -0.2059
  760MOL0     C  241   8.308   0.388   7.214 -0.5086  0.4588  0.6847
  760MOL0     C  242   8.643   0.523   7.460  0.3820 -0.0541  1.2463
  760MOL0     C  243   8.673   0.657   7.421 -1.1896  0.4101  0.0461
  760MOL0     C  244   8.802   0.705   7.458  0.2754 -0.2868  0.5233
  760MOL0     C  245   8.893   0.630   7.524 -0.2373  0.6706 -0.4554
  760MOL0     O  246   9.013   0.691   7.550 -0.0987  0.1234  0.3204
  760MOL0     C  247   9.133   0.616   7.567 -0.3779  0.1264 -1.1618
  760MOL0     C  248   9.262   0.696   7.550 -0.0707  0.4819  0.0385
  760MOL0     C  249   9.253   0.834   7.624 -0.5652  0.6103  0.6929
  760MOL0     C  250   9.370   0.917   7.561 -0.1132  0.2850  0.0256
  760MOL0     C  251   9.499   0.862   7.602  0.3462  0.1488  0.4418
  760MOL0     C  252   9.606   0.814   7.632  0.6339  0.2957 -1.3752
  760MOL0     C  253   8.862   0.493   7.554 -0.3597  0.5374  0.3891
  760MOL0     C  254   8.742   0.438   7.518  0.0071 -0.5017  0.4954
  760MOL0     H  255   8.194   0.595   7.464  0.7255  0.4838  0.5293
  760MOL0     H  256   7.990   0.492   7.389 -0.8135 -2.0639  0.7725
  760MOL0     H  257   7.801   0.419   7.204  1.4552  1.1874  2.1759
  760MOL0     H  258   7.821   0.347   7.370 -0.2942  0.7769  0.7864
  760MOL0     H  259   7.633   0.264   7.297  0.0553  2.0148 -2.9219
  760MOL0     H  260   7.761   0.143   7.330  3.0354  0.3213 -1.1493
  760MOL0     H  261   7.810   0.127   7.081  0.4495  2.2132 -2.7404
  760MOL0     H  262   7.687   0.249   7.053 -0.5338 -0.5841 -0.0954
  760MOL0     H  263   7.627   0.021   6.985 -1.4770 -3.9552  0.8278
  760MOL0     H  264   7.662  -0.045   7.142  0.4976  0.7044  1.2878
  760MOL0     H  265   7.434   0.146   7.110 -2.0194  0.0469  3.9694
  760MOL0     H  266   7.483   0.043   7.250 -0.7977  1.4223  0.8310
  760MOL0     H  267   7.433  -0.157   7.077  0.0594  0.6184 -2.5226
  760MOL0     H  268   7.389  -0.036   6.972 -1.0304  1.0700 -0.5713
  760MOL0     H  269   7.269  -0.095   7.255  1.8381 -1.3564 -0.2450
  760MOL0     H  270   7.221   0.049   7.158  2.1748  0.5017  0.7013
  760MOL0     H  271   7.220  -0.242   7.065  3.8502  1.3035  4.3002
  760MOL0     H  272   7.155  -0.096   6.987  1.9102  1.2644  0.9401
  760MOL0     H  273   7.100  -0.241   7.345 -0.2375  2.2973  0.9340
  760MOL0     H  274   6.788  -0.258   7.457 -0.0690  0.0188  0.6926
  760MOL0     H  275   6.724  -0.101   7.409  0.4938 -0.8481  0.5911
  760MOL0     H  276   6.993  -0.130   7.555 -0.7278 -1.0970  1.3905
  760MOL0     H  277   6.841  -0.096   7.618 -0.4242  0.1199 -0.8954
  760MOL0     H  278   6.937   0.070   7.382 -1.4682 -1.3068 -0.1781
  760MOL0     H  279   6.827   0.124   7.507 -0.1511 -0.9054 -0.3117
  760MOL0     H  280   7.044   0.097   7.667 -1.6256  1.3135 -0.3680
  760MOL0     H  281   7.035   0.229   7.553 -1.0208  0.1324  3.1219
  760MOL0     H  282   7.210   0.301   7.660  0.4301 -0.6717  2.5103
  760MOL0     H  283   7.426   0.365   7.757 -2.3863 -1.5641  2.0058
  760MOL0     H  284   7.860   0.120   7.902 -0.3234  0.8537  0.5147
  760MOL0     H  285   8.097   0.170   7.983 -1.6249  1.0339  0.8453
  760MOL0     H  286   8.419   0.352   7.723 -0.7717  0.3329 -0.7453
  760MOL0     H  287   8.404   0.170   7.725 -1.2419  0.7135 -0.9579
  760MOL0     H  288   8.521   0.314   7.965  1.5332 -0.5240  0.5500
  760MOL0     H  289   8.625   0.270   7.829  0.2334  2.1615 -0.0689
  760MOL0     H  290   8.561   0.034   7.872 -1.4747 -2.5082  1.4061
  760MOL0     H  291   8.432   0.083   7.968  0.0458 -2.0736 -2.8269
  760MOL0     H  292   8.603   0.199   8.129  0.5050  1.8813 -2.5909
  760MOL0     H  293   8.598   0.021   8.128 -0.6668  0.1022 -1.2707
  760MOL0     H  294   8.800   0.208   8.008 -2.2007  1.1912  0.2117
  760MOL0     H  295   8.787   0.032   7.973 -0.8133 -0.1218 -0.6714
  760MOL0     H  296   8.959   0.038   8.141  0.3542  0.9074 -0.3275
  760MOL0     H  297   8.810  -0.019   8.209  0.0521 -1.3655 -0.4716
  760MOL0     H  298   8.912   0.266   8.211  0.2330 -0.1337  1.2398
  760MOL0     H  299   8.771   0.202   8.310 -1.0638  0.8394 -0.6408
  760MOL0     H  300   8.975   0.052   8.419 -0.1842 -0.1746  0.5701
  760MOL0     H  301   8.959   0.220   8.463  0.2558  0.1887 -0.5945
  760MOL0     H  302   8.198   0.336   7.600 -3.6579  1.7913 -1.5651
  760MOL0     H  303   7.983   0.291   7.530 -0.2897 -0.4187  0.9508
  760MOL0     H  304   7.619   0.050   7.526 -0.9401 -3.2283  3.1415
  760MOL0     H  305   7.406  -0.022   7.450  0.2703  0.7073 -1.9158
  760MOL0     H  306   8.184   0.250   7.103  1.4191  0.7316 -0.4619
  760MOL0     H  307   8.404   0.361   7.171  0.5928  3.5395  0.9511
  760MOL0     H  308   8.594   0.727   7.395 -0.6646  0.9208 -0.2039
  760MOL0     H  309   8.833   0.809   7.451  0.1004 -0.1795  1.2606
  760MOL0     H  310   9.131   0.519   7.517  0.9332 -1.2136  1.1734
  760MOL0     H  311   9.141   0.577   7.669 -0.7397  1.8460 -0.4378
  760MOL0     H  312   9.352   0.645   7.586 -0.2457 -0.1850 -0.4523
  760MOL0     H  313   9.283   0.709   7.443 -0.9171 -1.6247 -0.4436
  760MOL0     H  314   9.254   0.830   7.733 -0.0546  0.0067  0.6770
  760MOL0     H  315   9.159   0.880   7.594 -0.4517  0.3969 -0.0216
  760MOL0     H  316   9.372   0.893   7.455 -0.2107 -0.5466  0.2116
  760MOL0     H  317   9.359   1.022   7.591  1.1802 -0.3109  3.0343
  760MOL0     H  318   9.701   0.789   7.674 -0.8535 -1.0110  1.5158
  760MOL0     H  319   8.939   0.427   7.593 -0.8195 -0.4252 -0.3026
  760MOL0     H  320   8.718   0.334   7.535 -2.2488 -0.1944 -0.4829
  761MOL0     O  321   6.951  10.178   3.375  0.2004  0.1589  0.4598
  761MOL0     C  322   6.916  10.172   3.490  0.1062 -0.2087 -0.6939
  761MOL0     O  323   6.787  10.202   3.538 -0.6473 -0.8297 -0.3261
  761MOL0     C  324   6.693  10.234   3.441  0.0189 -0.6740  0.4493
  761MOL0     C  325   6.705  10.327   3.330 -0.4580 -0.5356  0.1784
  761MOL0     C  326   6.595  10.366   3.256  0.1581 -0.2223  0.1764
  761MOL0     C  327   6.467  10.330   3.300  0.3003  0.3207 -0.2364
  761MOL0     O  328   6.356  10.393   3.253 -0.4020 -0.1229  0.1254
  761MOL0     C  329   6.286  10.332   3.135 -0.1905  1.1394 -0.1320
  761MOL0     C  330   6.169  10.242   3.174  0.9143  0.2375 -0.0410
  761MOL0     C  331   6.047  10.332   3.185  0.6984 -0.4328  0.5786
  761MOL0     C  332   5.979  10.371   3.047  0.7446  0.4706 -0.2778
  761MOL0     C  333   5.835  10.428   3.071  0.1632  0.4291 -0.1672
  761MOL0     C  334   5.836  10.574   3.109  0.7956  0.4630 -0.7536
  761MOL0     C  335   5.696  10.639   3.127 -0.0239 -0.3897  0.9405
  761MOL0     C  336   5.623  10.672   2.998  0.3050  0.6180 -0.2177
  761MOL0     N  337   5.481  10.692   3.018  0.4146  0.0095  0.0908
  761MOL0     C  338   5.396  10.780   2.947  0.1354  0.7837 -0.0485
  761MOL0     C  339   5.269  10.731   2.975 -0.2731  0.5222 -1.0154
  761MOL0     C  340   5.147  10.766   2.906 -0.5603 -0.7218  0.1401
  761MOL0     C  341   5.049  10.831   3.002 -0.2087  0.3587  0.1681
  761MOL0     C  342   5.092  10.971   3.042 -0.3836  0.2487  0.3495
  761MOL0     C  343   5.140  11.066   2.930  0.5534  0.5327 -0.0438
  761MOL0     O  344   5.042  11.063   2.816 -0.4979  1.0327 -0.7791
  761MOL0     C  345   4.944  11.156   2.831  0.4042 -0.8019 -0.9598
  761MOL0     C  346   4.971  11.292   2.792 -0.0687 -0.2713  0.2414
  761MOL0     C  347   4.867  11.383   2.791  0.0228  1.1236 -0.2833
  761MOL0     C  348   4.734  11.337   2.807  0.7349  1.6701  0.1435
  761MOL0     C  349   4.620  11.418   2.784 -0.4349 -1.0493 -0.7723
  761MOL0     O  350   4.486  11.365   2.778 -1.7566  0.2214  0.0650
  761MOL0     C  351   4.391  11.463   2.762  0.1189  0.5289  0.1689
  761MOL0     C  352   4.352  11.492   2.631 -0.6663 -1.0736  0.3757
  761MOL0     C  353   4.245  11.579   2.603  0.0466  0.0864  0.0172
  761MOL0     C  354   4.166  11.630   2.716  1.0315 -0.2785 -0.2152
  761MOL0     O  355   4.053  11.706   2.691 -0.1021 -0.0950 -0.1463
  761MOL0     C  356   3.935  11.634   2.679 -0.0564 -0.4659  1.1073
  761MOL0     C  357   3.818  11.734   2.705  0.7166  0.6913 -0.4955
  761MOL0     C  358   3.793  11.821   2.587 -0.4872 -0.3022 -0.2751
  761MOL0     C  359   3.731  11.755   2.469  0.6125  0.4392  0.7919
  761MOL0     C  360   3.664  11.847   2.367 -0.8184  0.2293  0.0164
  761MOL0     C  361   3.576  11.766   2.274  0.0657 -1.0909 -0.1845
  761MOL0     C  362   3.517  11.859   2.163  0.4488 -0.4351 -0.5588
  761MOL0     C  363   3.450  11.770   2.054 -0.0654 -0.6297  0.1656
  761MOL0    Cl  364   3.363  11.881   1.972  0.1811  0.0674 -0.7100
  761MOL0     C  365   4.207  11.605   2.846  0.3161  0.1539 -0.7550
  761MOL0     C  366   4.312  11.523   2.868  0.3098  0.4880  1.1998
  761MOL0     O  367   4.648  11.538   2.763  0.0543 -0.1018  0.3076
  761MOL0     C  368   4.708  11.204   2.828  0.1381 -0.0482  0.4107
  761MOL0     C  369   4.818  11.114   2.843 -0.7427  0.7169 -0.1652
  761MOL0     N  370   5.288  10.619   3.057  0.3770  0.2771 -0.0663
  761MOL0     N  371   5.405  10.589   3.075 -0.2077 -0.6626  0.0770
  761MOL0     C  372   6.452  10.231   3.400  0.7610  0.0130 -0.0400
  761MOL0     C  373   6.562  10.186   3.463 -1.0324 -0.0518 -0.3371
  761MOL0     C  374   7.026  10.149   3.582 -0.9199  0.4907  0.8295
  761MOL0     C  375   6.989  10.104   3.706  0.3811 -0.5194  0.3229
  761MOL0     C  376   7.091  10.088   3.801 -0.6583 -0.0391  0.3985
  761MOL0     C  377   7.225  10.088   3.767 -0.6205 -0.3199 -0.0990
  761MOL0     O  378   7.315  10.043   3.858  0.4233 -0.3682 -0.5678
  761MOL0     C  379   7.455  10.043   3.835  0.1617 -0.0922 -0.3645
  761MOL0     C  380   7.540   9.999   3.953 -0.5603  0.3121  0.1997
  761MOL0     C  381   7.564  10.109   4.053  0.3149 -0.7209 -0.7247
  761MOL0     C  382   7.652  10.066   4.176  0.7207 -0.1617  0.2674
  761MOL0     C  383   7.786  10.033   4.129  0.5180  0.7842  0.1703
  761MOL0     C  384   7.901  10.024   4.086  0.2492 -0.0119  0.4862
  761MOL0     C  385   7.260  10.125   3.638  0.1771 -0.4579 -0.1489
  761MOL0     C  386   7.157  10.159   3.547 -0.3746 -0.3314 -0.3868
  761MOL0     H  387   6.804  10.370   3.315 -0.0914 -1.3659  0.1919
  761MOL0     H  388   6.595  10.441   3.178 -0.7663  0.7098  1.0617
  761MOL0     H  389   6.357  10.272   3.077  0.6166  2.7370 -0.8561
  761MOL0     H  390   6.251  10.414   3.072 -2.5339 -0.3302 -0.8908
  761MOL0     H  391   6.192  10.208   3.275 -0.2839 -2.5116 -0.6015
  761MOL0     H  392   6.144  10.155   3.113 -0.2326  0.9748 -0.6505
  761MOL0     H  393   6.070  10.423   3.240 -1.7581  0.9327 -0.4689
  761MOL0     H  394   5.973  10.264   3.228  0.3325 -0.3860  0.0358
  761MOL0     H  395   6.043  10.450   3.005 -1.3574  3.1535  1.2168
  761MOL0     H  396   5.980  10.284   2.980 -0.6799 -0.2851  0.6354
  761MOL0     H  397   5.786  10.365   3.146  0.9979  0.3280  0.3036
  761MOL0     H  398   5.764  10.421   2.988 -2.4548 -0.2539  1.9619
  761MOL0     H  399   5.896  10.637   3.043  0.9057  2.9247  1.4959
  761MOL0     H  400   5.893  10.579   3.202  2.2047 -2.1778 -1.4016
  761MOL0     H  401   5.641  10.558   3.175 -1.5434 -0.8707 -1.4618
  761MOL0     H  402   5.718  10.731   3.183  2.0876  1.8176 -3.0870
  761MOL0     H  403   5.632  10.604   2.912  0.1481 -0.1994  0.4030
  761MOL0     H  404   5.666  10.765   2.962 -4.0078  1.5411 -3.9752
  761MOL0     H  405   5.426  10.851   2.871  1.8203  0.1444 -0.0375
  761MOL0     H  406   5.101  10.681   2.856  0.8980 -0.8601 -1.0313
  761MOL0     H  407   5.170  10.837   2.825 -4.6627  0.8793  0.1565
  761MOL0     H  408   5.027  10.768   3.088 -2.5191  0.1434 -0.5179
  761MOL0     H  409   4.970  10.839   2.928  1.2758  0.4316 -1.4737
  761MOL0     H  410   5.013  11.016   3.104 -0.9320 -1.7208  1.1741
  761MOL0     H  411   5.171  10.952   3.115 -1.7110  1.4191  2.1984
  761MOL0     H  412   5.238  11.042   2.888  2.0931  1.3654  2.8131
  761MOL0     H  413   5.141  11.167   2.973  0.6556  0.7667 -0.5870
  761MOL0     H  414   5.074  11.321   2.774 -0.6761  0.3583 -2.6035
  761MOL0     H  415   4.874  11.490   2.772  2.4280  1.4301  1.8058
  761MOL0     H  416   4.398  11.438   2.549 -1.2410 -0.1737 -0.5695
  761MOL0     H  417   4.204  11.606   2.506  1.5915  1.1866 -0.3664
  761MOL0     H  418   3.930  11.545   2.742 -0.2744 -0.4006  1.1823
  761MOL0     H  419   3.928  11.585   2.581 -0.3464 -1.8464  1.7951
  761MOL0     H  420   3.849  11.787   2.795  3.0410 -2.2992  0.6703
  761MOL0     H  421   3.738  11.666   2.736  0.9594  0.8629  0.5311
  761MOL0     H  422   3.883  11.881   2.568 -1.2278  0.7506 -0.5957
  761MOL0     H  423   3.717  11.893   2.619 -0.5962 -0.4085 -0.2962
  761MOL0     H  424   3.815  11.711   2.414  1.4281  3.2820 -0.4628
  761MOL0     H  425   3.656  11.679   2.490  1.1764 -0.7421 -1.1390
  761MOL0     H  426   3.732  11.907   2.307 -0.1402 -0.6056 -0.0760
  761MOL0     H  427   3.600  11.918   2.421 -1.0538  2.0196 -2.4601
  761MOL0     H  428   3.492  11.724   2.329 -1.6512  1.8722 -0.3560
  761MOL0     H  429   3.628  11.681   2.228  2.0558 -0.9094  1.5592
  761MOL0     H  430   3.449  11.931   2.209  0.6980  0.4418 -1.5429
  761MOL0     H  431   3.594  11.917   2.113 -0.8409 -0.8795 -3.2292
  761MOL0     H  432   3.379  11.696   2.092 -2.2958 -1.6411 -5.0395
  761MOL0     H  433   3.526  11.714   2.000  0.2850 -1.6742  1.6839
  761MOL0     H  434   4.151  11.648   2.929  1.4669 -1.4585  0.9178
  761MOL0     H  435   4.338  11.488   2.967  3.0607  0.8390  0.6916
  761MOL0     H  436   4.606  11.168   2.828 -0.5857  1.9104  0.4894
  761MOL0     H  437   4.800  11.007   2.851  1.2804  0.3810  0.2522
  761MOL0     H  438   6.355  10.194   3.432  0.2823  0.2232 -1.1682
  761MOL0     H  439   6.544  10.135   3.558  0.2149  2.2309  1.2296
  761MOL0     H  440   6.888  10.079   3.739  1.0125 -2.0320  1.2015
  761MOL0     H  441   7.066  10.065   3.904 -3.5362 -0.9557 -0.4182
  761MOL0     H  442   7.480  10.147   3.812 -2.0024  0.2678 -1.4331
  761MOL0     H  443   7.484   9.979   3.752 -2.7035 -3.5891  1.0711
  761MOL0     H  444   7.471   9.928   4.000 -0.8809  1.8063  2.0877
  761MOL0     H  445   7.632   9.948   3.921  0.5129 -0.7461  4.2832
  761MOL0     H  446   7.471  10.135   4.105  2.1169  2.2211  1.3439
  761MOL0     H  447   7.605  10.198   4.003  0.0487  0.2282  0.6886
  761MOL0     H  448   7.648  10.147   4.249 -2.7035  1.5509 -1.5615
  761MOL0     H  449   7.615   9.972   4.218  3.3000 -2.9941 -3.0887
  761MOL0     H  450   8.004  10.006   4.062  0.2277 -0.1803  0.5217
  761MOL0     H  451   7.362  10.126   3.600 -0.8107 -1.3682 -3.0966
  761MOL0     H  452   7.178  10.173   3.442 -1.4883 -2.3289 -0.9333
  762MOL0     O  453   1.237   8.456   1.758 -0.4798  0.3659 -0.5242
  762MOL0     C  454   1.273   8.527   1.668 -0.5067 -0.1848 -0.0502
  762MOL0     O  455   1.225   8.526   1.531 -0.7693 -0.0658 -0.6325
  762MOL0     C  456   1.121   8.444   1.502 -0.5570 -0.7693 -0.8656
  762MOL0     C  457   0.987   8.476   1.530 -0.1251 -0.7537  0.3346
  762MOL0     C  458   0.878   8.400   1.484 -0.6619  0.0332  0.3514
  762MOL0     C  459   0.900   8.277   1.426 -0.5350 -0.2999 -0.1507
  762MOL0     O  460   0.804   8.181   1.394 -0.9937 -0.0122 -0.4795
  762MOL0     C  461   0.673   8.232   1.367 -0.0764  0.0209 -0.2000
  762MOL0     C  462   0.585   8.107   1.344 -0.0500  0.3099 -0.4102
  762MOL0     C  463   0.441   8.162   1.364  0.3677 -0.0919  0.4751
  762MOL0     C  464   0.326   8.065   1.321 -0.1591 -0.0063 -0.3409
  762MOL0     C  465   0.189   8.135   1.302  0.1628 -0.5605 -0.3271
  762MOL0     C  466   0.089   8.029   1.257 -0.1282  0.4938  0.5164
  762MOL0     C  467  -0.056   8.083   1.241  0.1432 -1.2478 -0.0945
  762MOL0     C  468  -0.152   7.985   1.186  0.3487 -0.1275 -0.2570
  762MOL0     N  469  -0.291   8.029   1.178 -0.4264 -0.5185 -0.4341
  762MOL0     C  470  -0.381   8.004   1.280 -0.4160 -0.7494  0.9579
  762MOL0     C  471  -0.505   8.014   1.220  0.3856  0.5869 -0.1309
  762MOL0     C  472  -0.638   8.000   1.286 -0.4652  1.0915  0.1836
  762MOL0     C  473  -0.660   7.862   1.356  0.0205  0.2097  1.2505
  762MOL0     C  474  -0.656   7.734   1.255 -0.2314 -0.4584 -1.1991
  762MOL0     C  475  -0.515   7.690   1.214 -0.6899 -0.1321  0.9120
  762MOL0     O  476  -0.436   7.680   1.335  0.7643  0.3504  1.1179
  762MOL0     C  477  -0.302   7.672   1.341 -0.5354  0.0283 -0.5648
  762MOL0     C  478  -0.237   7.718   1.451  0.1472 -0.5253 -0.0108
  762MOL0     C  479  -0.097   7.702   1.467 -0.2308 -0.0536  0.5509
  762MOL0     C  480  -0.018   7.665   1.353 -0.4018  0.0842 -0.4140
  762MOL0     C  481   0.128   7.669   1.363 -0.3735  0.2350 -0.4544
  762MOL0     O  482   0.176   7.743   1.468 -0.8991 -0.5027 -0.6256
  762MOL0     C  483   0.297   7.712   1.516  0.3868  0.2868 -0.0541
  762MOL0     C  484   0.410   7.751   1.446 -0.1782 -0.0988  0.5053
  762MOL0     C  485   0.535   7.738   1.515 -0.6263  0.6955 -0.2829
  762MOL0     C  486   0.547   7.698   1.650 -0.4698  0.7311 -0.5536
  762MOL0     O  487   0.667   7.674   1.721 -0.6333 -0.3226 -0.3099
  762MOL0     C  488   0.782   7.758   1.695 -0.5676 -0.1900  0.4666
  762MOL0     C  489   0.746   7.892   1.746 -1.2064 -0.5098  0.8220
  762MOL0     C  490   0.859   7.983   1.731  0.5627  0.0625  0.8967
  762MOL0     C  491   0.835   8.127   1.785  0.2691 -0.3736 -0.9459
  762MOL0     C  492   0.955   8.221   1.798 -0.8271 -0.5690 -0.4820
  762MOL0     C  493   0.911   8.355   1.845  0.2269  0.1717 -0.2268
  762MOL0     C  494   0.875   8.356   1.994 -0.0331 -0.2219 -0.1496
  762MOL0     C  495   0.820   8.495   2.024  0.1059  0.5659 -0.5853
  762MOL0    Cl  496   0.946   8.621   2.034 -0.0102 -0.4088  0.0759
  762MOL0     C  497   0.431   7.671   1.719  0.6726  0.8313 -0.6825
  762MOL0     C  498   0.307   7.676   1.649 -0.6080  0.3442 -0.1298
  762MOL0     O  499   0.196   7.609   1.278  0.0412 -0.4680 -0.0878
  762MOL0     C  500  -0.086   7.632   1.236  0.1502  0.0143 -1.0516
  762MOL0     C  501  -0.224   7.633   1.232 -0.5339  0.5776 -0.0865
  762MOL0     N  502  -0.483   8.044   1.087  0.2106  0.4122 -0.1568
  762MOL0     N  503  -0.357   8.050   1.061  0.9656 -0.4646 -0.0011
  762MOL0     C  504   1.038   8.239   1.408 -0.3691  0.0451  0.0881
  762MOL0     C  505   1.146   8.323   1.432  0.5745  0.4358  0.5988
  762MOL0     C  506   1.397   8.607   1.700 -0.0223 -0.1759  0.0162
  762MOL0     C  507   1.462   8.591   1.821 -0.0816  0.0703 -0.4277
  762MOL0     C  508   1.569   8.664   1.853  0.8523 -0.0809 -0.4339
  762MOL0     C  509   1.611   8.764   1.774  0.3546 -0.6219 -0.0316
  762MOL0     O  510   1.716   8.853   1.801 -0.0306 -0.1871  0.4325
  762MOL0     C  511   1.708   8.909   1.932  0.1670 -0.7485 -0.5520
  762MOL0     C  512   1.842   8.968   1.974  0.3914 -0.2549 -0.6627
  762MOL0     C  513   1.841   9.041   2.109 -0.6905  0.7279  0.2067
  762MOL0     C  514   1.974   9.113   2.140 -0.0453 -1.1097  0.3887
  762MOL0     C  515   2.017   9.217   2.048  1.0088 -0.4569  0.2256
  762MOL0     C  516   2.040   9.319   1.987  1.3280 -0.2430  0.5053
  762MOL0     C  517   1.551   8.788   1.655  0.1879 -0.5362 -0.7313
  762MOL0     C  518   1.447   8.703   1.613 -0.2880 -0.0563 -0.4575
  762MOL0     H  519   0.975   8.567   1.589 -1.5034 -0.5471 -0.2348
  762MOL0     H  520   0.781   8.442   1.510 -0.3380  0.1843  1.3861
  762MOL0     H  521   0.674   8.298   1.279  1.3611  2.9176  1.8020
  762MOL0     H  522   0.634   8.282   1.457 -4.1001 -2.1299 -0.5182
  762MOL0     H  523   0.608   8.019   1.406  0.9803  1.7141  1.3080
  762MOL0     H  524   0.595   8.070   1.242 -1.0731 -2.4967  0.4198
  762MOL0     H  525   0.423   8.248   1.300  0.0894  0.4257  1.2471
  762MOL0     H  526   0.423   8.199   1.465 -0.6557  0.5717  0.0580
  762MOL0     H  527   0.354   8.016   1.227  0.6409  0.9467 -0.6111
  762MOL0     H  528   0.309   7.992   1.401 -0.7728  0.7285  0.2100
  762MOL0     H  529   0.193   8.212   1.224 -5.1630  0.4607  0.0355
  762MOL0     H  530   0.161   8.190   1.392  3.7440  1.4752 -0.2860
  762MOL0     H  531   0.085   7.954   1.337 -0.6457  0.3039  0.3229
  762MOL0     H  532   0.125   7.988   1.163  1.2999  3.2084 -0.2217
  762MOL0     H  533  -0.088   8.118   1.339  0.5396 -1.5351  0.1429
  762MOL0     H  534  -0.051   8.158   1.161 -0.1355 -1.7381 -0.5796
  762MOL0     H  535  -0.156   7.894   1.246 -0.8522  0.2634  0.2920
  762MOL0     H  536  -0.123   7.951   1.087  1.3333 -0.6514  0.1981
  762MOL0     H  537  -0.372   7.985   1.387 -0.0732 -1.5447  0.7942
  762MOL0     H  538  -0.714   8.015   1.209 -1.0236 -1.0651  0.2564
  762MOL0     H  539  -0.642   8.079   1.362 -1.0648  0.1577  1.1491
  762MOL0     H  540  -0.755   7.864   1.410 -0.3355 -2.5088  0.8456
  762MOL0     H  541  -0.586   7.850   1.436  0.3557 -0.3603  0.8645
  762MOL0     H  542  -0.705   7.656   1.313 -0.2844  0.4278 -0.0110
  762MOL0     H  543  -0.725   7.745   1.170 -0.6104 -0.3402 -0.8812
  762MOL0     H  544  -0.469   7.763   1.147  3.1791 -2.6817  0.4869
  762MOL0     H  545  -0.527   7.592   1.167 -0.1146 -0.4521  1.4094
  762MOL0     H  546  -0.290   7.757   1.537 -0.2712 -0.1215 -0.4479
  762MOL0     H  547  -0.051   7.733   1.560  0.5770 -0.7621  0.4027
  762MOL0     H  548   0.409   7.780   1.342  0.2523  0.6298  0.7012
  762MOL0     H  549   0.629   7.744   1.462  0.3929  0.3606  1.4236
  762MOL0     H  550   0.801   7.756   1.588  0.7160 -2.6336  0.6923
  762MOL0     H  551   0.867   7.719   1.751 -2.2465 -0.4259  3.0506
  762MOL0     H  552   0.737   7.876   1.853 -1.4481 -2.0068  0.6062
  762MOL0     H  553   0.654   7.938   1.708 -1.9038 -3.7999 -1.9864
  762MOL0     H  554   0.897   7.996   1.629  1.1386 -2.0525  0.7982
  762MOL0     H  555   0.943   7.932   1.779  1.1002 -1.4098 -1.4622
  762MOL0     H  556   0.769   8.175   1.712 -1.1880  0.2680  0.7475
  762MOL0     H  557   0.784   8.112   1.881 -1.8687  1.8286 -1.6417
  762MOL0     H  558   1.021   8.222   1.710 -0.4549 -1.3541 -0.2288
  762MOL0     H  559   1.026   8.183   1.872  1.0753 -1.1060 -2.4747
  762MOL0     H  560   0.820   8.381   1.792  0.2104  3.4778  1.1840
  762MOL0     H  561   0.980   8.433   1.811  1.7593 -1.3626 -0.7560
  762MOL0     H  562   0.794   8.285   2.011 -2.1868  2.5204  1.8033
  762MOL0     H  563   0.963   8.335   2.055 -0.1574  1.6307  0.7341
  762MOL0     H  564   0.770   8.490   2.121  0.3993  3.0197 -0.2332
  762MOL0     H  565   0.749   8.519   1.945  0.3108 -1.2783 -1.3706
  762MOL0     H  566   0.434   7.633   1.820  1.1792 -2.1151 -1.7039
  762MOL0     H  567   0.222   7.638   1.705  1.0629 -2.1763  0.8798
  762MOL0     H  568  -0.037   7.605   1.143  3.1188 -0.4977  0.5198
  762MOL0     H  569  -0.269   7.620   1.135  1.1544  1.0796 -0.9672
  762MOL0     H  570   1.063   8.137   1.383  1.8176  0.4661  0.3802
  762MOL0     H  571   1.245   8.286   1.407  0.1066 -1.1433  0.9697
  762MOL0     H  572   1.425   8.515   1.890  1.1979  0.1387  0.3678
  762MOL0     H  573   1.633   8.629   1.933  0.0296  0.8580  0.6602
  762MOL0     H  574   1.681   8.838   2.011  2.2478 -1.0138 -0.0295
  762MOL0     H  575   1.628   8.984   1.929  0.3269 -0.4745  1.0807
  762MOL0     H  576   1.914   8.885   1.971 -0.4401 -1.0226 -0.1772
  762MOL0     H  577   1.875   9.027   1.888  0.9720 -2.1417 -1.8198
  762MOL0     H  578   1.821   8.966   2.187  1.3716  0.5869  0.6651
  762MOL0     H  579   1.753   9.105   2.095 -1.6778 -0.9543 -1.9298
  762MOL0     H  580   1.972   9.169   2.234 -0.5537  2.2434 -1.4531
  762MOL0     H  581   2.048   9.033   2.143  1.0384 -0.1240  0.7716
  762MOL0     H  582   2.062   9.405   1.927 -0.1755 -0.2971 -0.1614
  762MOL0     H  583   1.587   8.871   1.594  2.7335  1.2450  2.8387
  762MOL0     H  584   1.403   8.713   1.514  2.5468 -3.4107 -2.2907
  763MOL0     O  585   7.466   8.067   9.603 -0.4700  0.3876  1.0087
  763MOL0     C  586   7.467   7.998   9.702 -0.4234 -0.3284 -0.6399
  763MOL0     O  587   7.366   7.974   9.787 -0.2023 -0.4450 -0.3156
  763MOL0     C  588   7.257   8.062   9.773 -0.0783 -0.2313 -0.8757
  763MOL0     C  589   7.266   8.205   9.777 -0.0306 -1.2341 -0.2143
  763MOL0     C  590   7.152   8.284   9.755  0.1855 -0.8096 -0.1174
  763MOL0     C  591   7.026   8.226   9.716 -0.5057 -0.1128 -0.7976
  763MOL0     O  592   6.919   8.308   9.708 -0.0100 -0.2151  0.7142
  763MOL0     C  593   6.796   8.249   9.677  1.3290 -0.7202 -0.2804
  763MOL0     C  594   6.683   8.348   9.726  0.7363 -0.2036  0.4462
  763MOL0     C  595   6.693   8.485   9.655 -0.1953 -0.2563 -0.0716
  763MOL0     C  596   6.559   8.552   9.666 -0.3736 -0.4993  0.8134
  763MOL0     C  597   6.557   8.709   9.644 -0.2000  0.5307  0.3487
  763MOL0     C  598   6.414   8.749   9.626 -0.6209  0.0767 -0.4490
  763MOL0     C  599   6.389   8.901   9.640  0.3370 -0.8834  0.3759
  763MOL0     C  600   6.243   8.938   9.605  0.1020 -0.8169  0.2691
  763MOL0     N  601   6.146   8.920   9.712  0.2824  0.7607 -0.2966
  763MOL0     C  602   6.101   9.020   9.794  0.3626  1.5692 -0.5310
  763MOL0     C  603   5.993   8.967   9.859  0.2780 -0.8757 -0.1457
  763MOL0     C  604   5.881   9.040   9.930 -0.5871  0.0247 -0.2131
  763MOL0     C  605   5.762   9.073   9.840  0.1578 -0.1481  0.5966
  763MOL0     C  606   5.650   9.140   9.918  0.4388  0.2143 -0.6737
  763MOL0     C  607   5.514   9.130   9.842 -0.1826  0.8037  0.2300
  763MOL0     O  608   5.413   9.173   9.930 -1.0967  0.2640 -0.6226
  763MOL0     C  609   5.290   9.187   9.887 -0.4057 -0.2093  0.3106
  763MOL0     C  610   5.248   9.140   9.760 -0.3770  0.0725 -0.3775
  763MOL0     C  611   5.111   9.128   9.731 -0.8193  0.8687  0.1083
  763MOL0     C  612   5.010   9.176   9.818 -0.5114 -0.5416  0.2524
  763MOL0     C  613   4.860   9.172   9.792 -0.3326 -0.2489  0.1781
  763MOL0     O  614   4.775   9.231   9.885 -0.1009  0.1401  0.4482
  763MOL0     C  615   4.636   9.226   9.860  0.2479 -0.4699  0.7343
  763MOL0     C  616   4.563   9.117   9.815 -0.0852  1.2190  0.6890
  763MOL0     C  617   4.431   9.128   9.785 -0.2324  0.2929 -0.2156
  763MOL0     C  618   4.360   9.245   9.815  1.0270 -0.3889 -0.1522
  763MOL0     O  619   4.221   9.259   9.793 -0.5598 -0.7605  0.7420
  763MOL0     C  620   4.156   9.173   9.696 -0.7094  0.8051 -0.0167
  763MOL0     C  621   4.010   9.197   9.702  0.5566 -0.5001 -0.4003
  763MOL0     C  622   3.939   9.109   9.600  0.2166  0.0083  0.1181
  763MOL0     C  623   3.793   9.117   9.639 -0.0147 -0.0583 -0.0181
  763MOL0     C  624   3.711   9.008   9.575  0.0443  0.3292 -0.5907
  763MOL0     C  625   3.724   8.983   9.425 -0.1232 -0.4806 -0.3338
  763MOL0     C  626   3.663   8.857   9.373 -0.0127  0.2765 -0.5883
  763MOL0     C  627   3.514   8.834   9.395 -0.1476  0.6951 -0.0445
  763MOL0    Cl  628   3.396   8.946   9.309 -0.2544  0.0597 -0.0434
  763MOL0     C  629   4.429   9.353   9.877 -0.7382 -0.3316 -0.2679
  763MOL0     C  630   4.570   9.345   9.894 -0.7159 -0.8034  0.4921
  763MOL0     O  631   4.828   9.117   9.686 -0.5250  0.6066  0.3174
  763MOL0     C  632   5.061   9.245   9.937  1.7756  0.0470  0.7839
  763MOL0     C  633   5.191   9.238   9.971  0.1498 -0.7731  0.0090
  763MOL0     N  634   5.983   8.832   9.832  0.2633 -0.1496 -0.0457
  763MOL0     N  635   6.086   8.796   9.752 -0.0430  0.1695 -0.5436
  763MOL0     C  636   7.021   8.090   9.704 -0.0096  0.6988 -0.3479
  763MOL0     C  637   7.136   8.008   9.731  0.0388 -0.1041 -0.5597
  763MOL0     C  638   7.595   7.938   9.752  0.2334 -0.5250  0.2805
  763MOL0     C  639   7.606   7.895   9.885  0.1986 -0.3909 -0.4101
  763MOL0     C  640   7.707   7.811   9.931  0.0953 -0.4221  0.2145
  763MOL0     C  641   7.809   7.787   9.836 -0.3715  0.2380  0.0691
  763MOL0     O  642   7.929   7.721   9.868  0.6118  0.1812  0.1230
  763MOL0     C  643   7.989   7.749   9.993  0.2316  0.0272 -1.2253
  763MOL0     C  644   8.011   7.902  10.009  0.3872 -0.0009 -0.1269
  763MOL0     C  645   8.122   7.942   9.917  0.1561 -0.4717 -0.3485
  763MOL0     C  646   8.256   7.946   9.996 -0.3095 -1.6514 -0.0805
  763MOL0     C  647   8.379   7.978   9.926  1.0328  0.1577  0.8400
  763MOL0     C  648   8.484   7.999   9.861  0.5405  0.1331 -0.1655
  763MOL0     C  649   7.789   7.816   9.698  0.0884 -0.2316 -0.9452
  763MOL0     C  650   7.679   7.890   9.655  0.0749  0.1616 -0.8856
  763MOL0     H  651   7.365   8.245   9.794  0.3932 -2.4856  0.3892
  763MOL0     H  652   7.146   8.392   9.748 -1.4300 -0.9576 -2.4889
  763MOL0     H  653   6.777   8.168   9.748 -0.2942  1.1287  1.5246
  763MOL0     H  654   6.779   8.217   9.574  1.3113 -0.0044 -0.5040
  763MOL0     H  655   6.677   8.359   9.834  1.2425  0.6859  0.3934
  763MOL0     H  656   6.595   8.298   9.685  1.6846 -1.8347  0.2857
  763MOL0     H  657   6.719   8.468   9.550 -2.1123 -2.9950 -0.2104
  763MOL0     H  658   6.778   8.543   9.693 -0.0519 -1.7012  1.9349
  763MOL0     H  659   6.498   8.504   9.590  2.4343 -2.2605 -0.4965
  763MOL0     H  660   6.521   8.531   9.766 -0.0036 -2.9977  0.4973
  763MOL0     H  661   6.609   8.739   9.552  2.2027  1.0120  1.7693
  763MOL0     H  662   6.602   8.750   9.734  0.1880  2.0279 -0.5067
  763MOL0     H  663   6.348   8.697   9.696  0.7159 -0.6472  0.3195
  763MOL0     H  664   6.392   8.708   9.527  0.1993 -0.8472 -0.2685
  763MOL0     H  665   6.416   8.937   9.740 -4.0256  0.6318  1.2270
  763MOL0     H  666   6.444   8.954   9.562  0.2873  0.0642  0.9600
  763MOL0     H  667   6.216   8.878   9.517  0.2744 -0.9554  0.3114
  763MOL0     H  668   6.260   9.044   9.584  0.7150 -1.0995 -0.7709
  763MOL0     H  669   6.131   9.125   9.790  1.0509  1.4849  1.2742
  763MOL0     H  670   5.929   9.128   9.976  5.1306 -2.4833 -0.5930
  763MOL0     H  671   5.840   8.972  10.005 -2.0742  0.5437 -0.5073
  763MOL0     H  672   5.726   8.978   9.798 -4.4546  2.0808 -1.2467
  763MOL0     H  673   5.801   9.142   9.765 -0.2783 -1.6290 -1.0781
  763MOL0     H  674   5.640   9.086  10.012  2.8418  1.2472  0.2551
  763MOL0     H  675   5.677   9.244   9.943  0.2059 -0.6080  3.9496
  763MOL0     H  676   5.484   9.027   9.821  0.1618  0.7338  0.0680
  763MOL0     H  677   5.513   9.185   9.747 -1.2750  0.4876  0.0444
  763MOL0     H  678   5.316   9.094   9.689 -2.5720 -4.8256  0.2681
  763MOL0     H  679   5.087   9.080   9.637  0.1555  1.8348 -0.6620
  763MOL0     H  680   4.615   9.022   9.799 -0.8443  0.5530  1.9776
  763MOL0     H  681   4.370   9.046   9.747 -1.3956  1.5839 -1.2367
  763MOL0     H  682   4.176   9.066   9.710 -0.0709  0.7344 -1.3064
  763MOL0     H  683   4.206   9.194   9.601 -2.4866 -1.1793 -1.4782
  763MOL0     H  684   3.982   9.298   9.670 -2.0094 -0.8363  0.5872
  763MOL0     H  685   3.981   9.179   9.805  4.7749 -1.7500  0.7794
  763MOL0     H  686   3.961   9.001   9.601 -2.1213 -0.5545 -1.2724
  763MOL0     H  687   3.965   9.151   9.503  2.3604  2.9139  1.7885
  763MOL0     H  688   3.774   9.119   9.746 -3.1688  0.8905 -0.4836
  763MOL0     H  689   3.749   9.213   9.610  0.7053 -0.1773 -1.6721
  763MOL0     H  690   3.604   9.025   9.594  0.0041 -0.2096 -0.3161
  763MOL0     H  691   3.740   8.923   9.638  1.7326  0.5760 -1.0074
  763MOL0     H  692   3.824   8.967   9.384 -1.7229 -1.8704 -4.1367
  763MOL0     H  693   3.676   9.068   9.375 -1.8013  0.6892  2.9756
  763MOL0     H  694   3.671   8.833   9.266  3.0026 -1.7895 -0.0040
  763MOL0     H  695   3.724   8.786   9.428  3.5203  3.1224 -0.4407
  763MOL0     H  696   3.485   8.835   9.500 -1.6177  3.5715 -0.3997
  763MOL0     H  697   3.492   8.730   9.368  0.6616  0.3004  0.7469
  763MOL0     H  698   4.380   9.447   9.902 -0.3198 -0.4302  0.9920
  763MOL0     H  699   4.635   9.413   9.949 -0.2623 -2.2475  1.7971
  763MOL0     H  700   4.995   9.277  10.017  1.6577  1.4408  0.1671
  763MOL0     H  701   5.220   9.264  10.072  0.7233  2.1967 -0.8434
  763MOL0     H  702   6.933   8.039   9.667  1.7565 -2.6780 -0.2604
  763MOL0     H  703   7.135   7.902   9.709  0.4363 -0.0787 -0.6939
  763MOL0     H  704   7.518   7.908   9.948  0.1141 -1.1777 -0.3535
  763MOL0     H  705   7.733   7.786  10.033  3.0018  0.1363 -0.3019
  763MOL0     H  706   8.086   7.698  10.000  0.7402  0.9760 -1.3094
  763MOL0     H  707   7.929   7.718  10.079 -0.5233 -0.0422 -1.7595
  763MOL0     H  708   7.914   7.952  10.008  0.4570  0.1754  0.8571
  763MOL0     H  709   8.041   7.907  10.114 -1.8280 -1.3391  0.6361
  763MOL0     H  710   8.094   8.040   9.877  0.1266 -1.3082 -2.4911
  763MOL0     H  711   8.138   7.872   9.835  1.8499 -1.0147  0.4109
  763MOL0     H  712   8.257   8.016  10.080  1.4085 -0.1530 -1.2579
  763MOL0     H  713   8.272   7.851  10.046  1.5749 -1.4560 -0.2552
  763MOL0     H  714   8.578   8.005   9.811  1.1297 -2.5543  0.4293
  763MOL0     H  715   7.865   7.783   9.628  0.4744 -3.3317  0.7454
  763MOL0     H  716   7.648   7.901   9.551 -0.7595  0.9293 -0.5666
  764MOL0     O  717   5.974   0.489   3.399 -0.1607  0.2044  0.2165
  764MOL0     C  718   6.001   0.490   3.275 -0.1686  0.0476  0.1995
  764MOL0     O  719   5.928   0.540   3.178  0.5976  0.4254 -0.0456
  764MOL0     C  720   5.814   0.612   3.219 -0.4508 -0.6884 -0.4785
  764MOL0     C  721   5.693   0.588   3.152 -0.6790  0.7248  0.5436
  764MOL0     C  722   5.580   0.669   3.169 -0.5274 -1.0125  0.2781
  764MOL0     C  723   5.588   0.773   3.258 -0.7976 -0.1881 -0.7148
  764MOL0     O  724   5.491   0.873   3.278 -0.1447  0.2278  0.1803
  764MOL0     C  725   5.358   0.837   3.229  0.4527  0.5573 -0.6469
  764MOL0     C  726   5.252   0.933   3.296  0.5201 -0.5171  0.0464
  764MOL0     C  727   5.109   0.915   3.239 -0.1781 -0.4450 -0.4226
  764MOL0     C  728   5.007   1.003   3.316 -0.2217  0.4551 -0.0174
  764MOL0     C  729   4.875   0.978   3.248 -0.4697  0.6006 -0.0669
  764MOL0     C  730   4.773   1.084   3.297 -0.1018  0.2537 -0.0184
  764MOL0     C  731   4.627   1.067   3.231 -0.5328  0.4067 -0.4432
  764MOL0     C  732   4.546   1.191   3.252  0.4413  0.6018  0.7486
  764MOL0     N  733   4.414   1.175   3.181  0.1064 -0.1149 -0.5219
  764MOL0     C  734   4.396   1.158   3.044 -0.2862 -0.0569 -0.2571
  764MOL0     C  735   4.265   1.161   3.029  0.2593  1.1399 -0.4793
  764MOL0     C  736   4.194   1.153   2.897  0.4621 -1.1526  0.3417
  764MOL0     C  737   4.235   1.263   2.787  0.0547 -0.2549  0.2108
  764MOL0     C  738   4.228   1.219   2.638 -0.0278 -0.0541 -0.4417
  764MOL0     C  739   4.082   1.220   2.580 -0.4889  0.5021 -0.6222
  764MOL0     O  740   4.046   1.362   2.576 -1.5368 -0.6869 -0.1539
  764MOL0     C  741   3.919   1.380   2.543 -1.0012  0.2513 -0.3468
  764MOL0     C  742   3.863   1.502   2.582 -0.0621 -0.3125 -0.5155
  764MOL0     C  743   3.728   1.538   2.567 -0.1542  0.0952 -0.5361
  764MOL0     C  744   3.644   1.444   2.508  0.3669  0.5220 -0.1004
  764MOL0     C  745   3.506   1.473   2.465 -0.1895 -0.5210 -1.1476
  764MOL0     O  746   3.448   1.382   2.388 -0.8447  0.0405 -0.1733
  764MOL0     C  747   3.325   1.430   2.340 -0.9587 -0.1188 -0.1648
  764MOL0     C  748   3.328   1.476   2.211 -0.6568 -0.4731 -0.0738
  764MOL0     C  749   3.211   1.517   2.133 -0.6912  0.3051 -0.1906
  764MOL0     C  750   3.084   1.511   2.205  0.7041  0.3361 -0.3576
  764MOL0     O  751   2.967   1.546   2.144 -0.1239 -0.1969  0.0527
  764MOL0     C  752   2.963   1.481   2.011  0.0381 -0.0026  1.0242
  764MOL0     C  753   2.967   1.324   2.014  0.5052 -1.0158  0.3791
  764MOL0     C  754   2.846   1.239   2.063  0.5074 -0.8119  0.1325
  764MOL0     C  755   2.728   1.262   1.966 -0.1404  0.8342  0.0777
  764MOL0     C  756   2.599   1.213   2.020  0.3770 -0.0546  0.7479
  764MOL0     C  757   2.608   1.058   2.042  0.1806 -0.9339  0.8029
  764MOL0     C  758   2.472   1.016   2.087 -0.1813  0.7646  0.0127
  764MOL0     C  759   2.465   0.870   2.121  0.3589  0.2871 -1.1394
  764MOL0    Cl  760   2.301   0.807   2.080 -0.2127 -0.0223  0.2672
  764MOL0     C  761   3.077   1.458   2.334 -0.1844  0.1801 -1.1707
  764MOL0     C  762   3.201   1.420   2.398  0.1184 -0.5244 -0.2243
  764MOL0     O  763   3.463   1.582   2.498 -0.0395 -0.2827 -0.2792
  764MOL0     C  764   3.694   1.314   2.471  0.8084  0.2883 -1.0570
  764MOL0     C  765   3.829   1.291   2.482 -0.6263  0.8244  0.0752
  764MOL0     N  766   4.202   1.183   3.150  0.8212  0.1737 -0.3638
  764MOL0     N  767   4.297   1.183   3.240 -0.1142  0.0849  0.3643
  764MOL0     C  768   5.704   0.784   3.347  0.3635 -0.5017  0.4079
  764MOL0     C  769   5.819   0.710   3.318 -0.2001 -0.4021 -0.3098
  764MOL0     C  770   6.127   0.409   3.227  0.2119 -0.7696 -0.1740
  764MOL0     C  771   6.215   0.357   3.325  0.2829  0.2087  0.0440
  764MOL0     C  772   6.318   0.274   3.284  0.1019  0.3789  0.6917
  764MOL0     C  773   6.342   0.243   3.151 -0.3080  0.5623  0.8004
  764MOL0     O  774   6.435   0.147   3.103  0.3403 -0.6206 -0.3873
  764MOL0     C  775   6.498   0.060   3.190  0.6384  0.3058  0.0823
  764MOL0     C  776   6.625   0.125   3.237  0.1842 -0.6215  0.3977
  764MOL0     C  777   6.738   0.146   3.134  0.0459  0.7075  0.2374
  764MOL0     C  778   6.798   0.014   3.077 -0.2467 -0.2385 -0.1486
  764MOL0     C  779   6.859  -0.078   3.170  0.6579  1.2058 -0.0493
  764MOL0     C  780   6.902  -0.155   3.251 -0.0374  0.1223 -0.0125
  764MOL0     C  781   6.266   0.310   3.059  0.6448 -0.1035  0.2377
  764MOL0     C  782   6.151   0.380   3.096  0.6492  0.3012  0.1706
  764MOL0     H  783   5.684   0.506   3.081 -1.2624 -0.1454  1.5939
  764MOL0     H  784   5.490   0.657   3.110  0.0927  1.5164 -1.3369
  764MOL0     H  785   5.336   0.734   3.259  0.5563  0.3117 -1.3906
  764MOL0     H  786   5.355   0.839   3.120  0.3323 -1.9291 -0.7377
  764MOL0     H  787   5.291   1.035   3.287 -1.4358  0.3201  0.7175
  764MOL0     H  788   5.231   0.901   3.398 -3.5586  0.1203 -0.4540
  764MOL0     H  789   5.090   0.807   3.246  5.6501 -1.8782 -1.2254
  764MOL0     H  790   5.119   0.942   3.133  0.0627 -0.8050 -0.4929
  764MOL0     H  791   5.005   0.978   3.422  0.3525 -1.6059 -0.4530
  764MOL0     H  792   5.046   1.104   3.299  0.4475  0.0195 -1.2496
  764MOL0     H  793   4.844   0.877   3.275 -0.3886  1.2108  2.5787
  764MOL0     H  794   4.882   0.977   3.139 -0.0617 -2.6971 -0.1083
  764MOL0     H  795   4.802   1.188   3.278 -0.1288  0.1555 -0.6088
  764MOL0     H  796   4.766   1.082   3.406  1.2788  1.4578  0.1262
  764MOL0     H  797   4.646   1.061   3.123 -1.0198  2.6655 -0.7043
  764MOL0     H  798   4.571   0.984   3.274  0.4711  1.1197  2.4460
  764MOL0     H  799   4.598   1.281   3.218 -1.8961  1.4266 -0.9008
  764MOL0     H  800   4.523   1.197   3.359  0.0077  1.6360  0.6094
  764MOL0     H  801   4.475   1.149   2.970 -0.2155  0.6049 -0.2699
  764MOL0     H  802   4.092   1.178   2.929  0.7509  2.0419 -0.9060
  764MOL0     H  803   4.212   1.051   2.862  0.8372 -0.2653 -2.2981
  764MOL0     H  804   4.335   1.296   2.815 -0.0111 -0.2100  0.3893
  764MOL0     H  805   4.179   1.357   2.790  0.6377  0.1634 -1.1395
  764MOL0     H  806   4.284   1.281   2.567  0.2008 -1.4490 -1.5251
  764MOL0     H  807   4.268   1.118   2.624 -2.2204 -0.7919 -2.0474
  764MOL0     H  808   4.014   1.175   2.653  0.1725  1.9888  0.9758
  764MOL0     H  809   4.069   1.181   2.479 -3.3015 -0.2886 -0.0346
  764MOL0     H  810   3.917   1.576   2.641 -2.0783  0.1688  0.8188
  764MOL0     H  811   3.698   1.639   2.595 -1.0749 -0.7388  1.7002
  764MOL0     H  812   3.426   1.476   2.164 -0.5823  0.0645  0.0750
  764MOL0     H  813   3.222   1.559   2.033 -5.0964  1.4717 -0.3727
  764MOL0     H  814   3.042   1.521   1.946 -0.7479  1.9463  1.1885
  764MOL0     H  815   2.871   1.520   1.966  0.3639  1.2600  1.3960
  764MOL0     H  816   3.062   1.304   2.064  1.0108  0.4101  0.0248
  764MOL0     H  817   2.982   1.301   1.908 -2.2875  1.2261 -0.6408
  764MOL0     H  818   2.802   1.265   2.160 -1.4619 -2.2431 -0.3095
  764MOL0     H  819   2.871   1.133   2.061  1.6892 -0.5357 -0.8983
  764MOL0     H  820   2.709   1.370   1.965 -0.1306  0.8398 -1.3823
  764MOL0     H  821   2.752   1.232   1.863  4.3213 -2.2110  1.7185
  764MOL0     H  822   2.520   1.247   1.952  0.9799  1.9689  0.9935
  764MOL0     H  823   2.569   1.263   2.112 -2.8595 -2.8016  1.3670
  764MOL0     H  824   2.687   1.041   2.116 -0.4534  2.5653  2.5285
  764MOL0     H  825   2.633   1.009   1.948  3.2244 -1.3969  1.7525
  764MOL0     H  826   2.427   1.077   2.166 -2.9870  1.7385 -2.1929
  764MOL0     H  827   2.403   1.033   2.005  1.1027  2.6635 -0.7282
  764MOL0     H  828   2.488   0.858   2.227 -1.4584 -3.1827 -0.9836
  764MOL0     H  829   2.536   0.810   2.063  1.7073  0.6444  0.1091
  764MOL0     H  830   2.984   1.462   2.390 -0.2975 -1.0134 -1.2435
  764MOL0     H  831   3.203   1.367   2.493  0.0132  0.1241  0.1428
  764MOL0     H  832   3.633   1.232   2.434 -2.6287  1.7266  0.9200
  764MOL0     H  833   3.866   1.193   2.453 -0.9797  0.7986 -0.2965
  764MOL0     H  834   5.699   0.860   3.424  0.5588 -0.3687  0.2910
  764MOL0     H  835   5.917   0.719   3.364 -0.2151  0.6527 -0.4630
  764MOL0     H  836   6.190   0.381   3.429 -0.4611 -0.5273  0.0461
  764MOL0     H  837   6.380   0.233   3.363  0.9437  3.2725  1.6767
  764MOL0     H  838   6.530  -0.026   3.131 -0.8223 -0.0272 -0.2458
  764MOL0     H  839   6.437   0.023   3.272 -2.1118  4.0312  0.0039
  764MOL0     H  840   6.603   0.221   3.285 -0.5967 -1.3059  1.4564
  764MOL0     H  841   6.664   0.081   3.329 -1.7390  3.0610  3.2577
  764MOL0     H  842   6.816   0.198   3.190 -0.8554  1.7599  0.5388
  764MOL0     H  843   6.706   0.208   3.051  0.5942 -1.5105 -1.7380
  764MOL0     H  844   6.719  -0.040   3.024 -0.7120  0.6679 -0.4069
  764MOL0     H  845   6.887   0.038   3.018  2.1120  0.2037  3.2558
  764MOL0     H  846   6.930  -0.227   3.325 -1.3279 -1.3000 -0.8379
  764MOL0     H  847   6.281   0.284   2.955  1.0078 -2.1467  0.7581
  764MOL0     H  848   6.077   0.416   3.026 -0.7588 -0.0869  1.4041
  765MOL0     O  849   8.508   0.090  10.809  0.1692 -0.6093  0.0929
  765MOL0     C  850   8.597   0.133  10.734  0.0985  0.2698  0.4463
  765MOL0     O  851   8.569   0.169  10.605 -0.4944  0.0107 -0.7063
  765MOL0     C  852   8.432   0.172  10.577 -0.7543 -0.5691 -0.2414
  765MOL0     C  853   8.379   0.059  10.515 -0.0978 -0.0961  0.1712
  765MOL0     C  854   8.243   0.047  10.494  1.0321  0.4348  0.5171
  765MOL0     C  855   8.156   0.154  10.528 -0.9650  0.0656 -0.0830
  765MOL0     O  856   8.020   0.142  10.512 -0.3446  0.2345 -0.4106
  765MOL0     C  857   7.943   0.246  10.454  0.0325  0.4515  0.1572
  765MOL0     C  858   7.798   0.203  10.410 -0.9097  0.4422 -0.1544
  765MOL0     C  859   7.694   0.232  10.524  0.1027 -0.4085 -0.5560
  765MOL0     C  860   7.552   0.240  10.459  0.4163  0.7940  0.0638
  765MOL0     C  861   7.453   0.282  10.574  0.2751  0.0243  0.6632
  765MOL0     C  862   7.308   0.291  10.536  0.3404 -0.0494  0.1461
  765MOL0     C  863   7.220   0.353  10.642 -0.8573  0.3496 -0.9622
  765MOL0     C  864   7.073   0.364  10.601 -0.7911 -0.4827  0.5261
  765MOL0     N  865   6.986   0.418  10.704 -0.1074  0.2812 -0.7155
  765MOL0     C  866   6.949   0.552  10.709  0.2142  0.4268 -0.4596
  765MOL0     C  867   6.853   0.553  10.804  0.7569  0.3557 -0.0128
  765MOL0     C  868   6.781   0.680  10.844  0.6560 -0.2541  0.0477
  765MOL0     C  869   6.673   0.743  10.746  1.3770 -0.5926 -0.1213
  765MOL0     C  870   6.585   0.842  10.818 -0.6811 -0.8696 -0.6128
  765MOL0     C  871   6.648   0.990  10.828  0.6733  0.7426 -0.9110
  765MOL0     O  872   6.577   1.081  10.921 -0.2480 -0.3598  0.1335
  765MOL0     C  873   6.452   1.122  10.887 -0.6893  0.2982  0.1937
  765MOL0     C  874   6.389   1.116  10.758 -1.0742  0.7050 -0.3076
  765MOL0     C  875   6.272   1.192  10.732 -0.1501  0.0747 -0.0626
  765MOL0     C  876   6.211   1.270  10.832 -1.4893  0.7337 -0.4282
  765MOL0     C  877   6.091   1.343  10.816 -0.3387 -0.4992 -0.9123
  765MOL0     O  878   6.072   1.456  10.901  0.0104  0.5411  0.4349
  765MOL0     C  879   5.954   1.531  10.880  0.1790 -0.0612 -0.2492
  765MOL0     C  880   5.961   1.663  10.924  0.5733 -0.3912  0.4587
  765MOL0     C  881   5.858   1.757  10.918 -0.0261  0.2781  0.7944
  765MOL0     C  882   5.737   1.725  10.860 -0.2728 -0.4210 -0.2033
  765MOL0     O  883   5.625   1.808  10.870 -1.0699 -0.7573  0.2091
  765MOL0     C  884   5.635   1.946  10.900 -0.5522 -0.8818 -1.4944
  765MOL0     C  885   5.501   2.011  10.858 -0.2194  0.0876 -0.2185
  765MOL0     C  886   5.470   1.997  10.714 -0.4433 -0.2718  0.5780
  765MOL0     C  887   5.332   2.052  10.686 -0.1602 -0.1503 -0.0987
  765MOL0     C  888   5.284   2.039  10.546 -0.0219 -0.0846  0.8617
  765MOL0     C  889   5.135   2.078  10.532 -0.2027  0.2395  0.6211
  765MOL0     C  890   5.081   2.085  10.387  0.7872  0.4365  0.1808
  765MOL0     C  891   4.946   2.147  10.390  0.5326  0.1975  0.3004
  765MOL0    Cl  892   4.826   2.036  10.463  0.1345  0.3786  0.2375
  765MOL0     C  893   5.721   1.597  10.823 -0.3259  0.7049  1.1247
  765MOL0     C  894   5.830   1.503  10.812  0.0490 -0.6418  0.2815
  765MOL0     O  895   6.020   1.307  10.724  0.3734  0.8768  0.1221
  765MOL0     C  896   6.276   1.284  10.952  0.3444  0.2753 -0.2853
  765MOL0     C  897   6.397   1.212  10.982 -0.4993 -0.6947  0.8124
  765MOL0     N  898   6.832   0.427  10.853 -0.1004  0.1623  0.2082
  765MOL0     N  899   6.910   0.343  10.798  1.2440 -0.6325  0.1625
  765MOL0     C  900   8.215   0.274  10.575  0.0371  0.7181  0.2826
  765MOL0     C  901   8.351   0.284  10.601 -0.9760  0.8353 -0.2832
  765MOL0     C  902   8.741   0.118  10.779  0.2473 -0.3642  0.3456
  765MOL0     C  903   8.786   0.005  10.861  0.2532 -0.0314 -0.0946
  765MOL0     C  904   8.924  -0.000  10.901 -0.3983 -0.2823 -0.1891
  765MOL0     C  905   9.012   0.098  10.858  0.3332  0.3584 -0.3077
  765MOL0     O  906   9.134   0.087  10.912  0.0054  0.4510 -0.9896
  765MOL0     C  907   9.213   0.209  10.936  0.7045  1.5691  0.0526
  765MOL0     C  908   9.320   0.179  11.032  0.7414 -0.8327  0.0206
  765MOL0     C  909   9.268   0.208  11.175 -0.1848 -0.7861 -0.5548
  765MOL0     C  910   9.378   0.196  11.285 -0.2103 -0.2493 -0.2217
  765MOL0     C  911   9.508   0.262  11.252 -0.7891  0.2659  0.7946
  765MOL0     C  912   9.598   0.329  11.214 -0.0756  0.0805 -0.1293
  765MOL0     C  913   8.974   0.203  10.773 -0.5153  0.4721  0.2607
  765MOL0     C  914   8.842   0.210  10.738 -0.6735  0.1312  0.2172
  765MOL0     H  915   8.449  -0.019  10.488 -0.5364 -0.7552  0.9251
  765MOL0     H  916   8.190  -0.034  10.446  2.1025 -0.7695  1.2978
  765MOL0     H  917   7.991   0.287  10.365 -1.2759  2.9346  0.4962
  765MOL0     H  918   7.933   0.334  10.518  0.8230  0.3646  0.4208
  765MOL0     H  919   7.802   0.097  10.384 -3.4076 -0.4524  2.4976
  765MOL0     H  920   7.772   0.267  10.325 -2.7981  1.5311  1.1582
  765MOL0     H  921   7.706   0.330  10.572 -2.0356  0.7496 -2.2139
  765MOL0     H  922   7.698   0.153  10.599  0.0051  0.2695  0.1741
  765MOL0     H  923   7.555   0.319  10.384  2.5538  1.1936  0.5178
  765MOL0     H  924   7.525   0.143  10.415 -0.1034  0.9627 -0.0019
  765MOL0     H  925   7.487   0.377  10.616 -1.7120  0.9976  0.1664
  765MOL0     H  926   7.453   0.207  10.653 -3.8098 -1.0601 -0.1400
  765MOL0     H  927   7.265   0.195  10.508 -3.2946  1.7499 -1.0926
  765MOL0     H  928   7.312   0.353  10.445 -0.7052  1.3127  0.9964
  765MOL0     H  929   7.220   0.283  10.726 -2.0419 -0.2396 -1.4341
  765MOL0     H  930   7.254   0.449  10.684 -2.2873  0.8003 -0.7616
  765MOL0     H  931   7.046   0.259  10.588  3.0059 -1.8491  2.3897
  765MOL0     H  932   7.063   0.416  10.505 -1.9010 -0.5350  0.5952
  765MOL0     H  933   6.990   0.633  10.649  1.4093  1.4743  1.6301
  765MOL0     H  934   6.855   0.758  10.865  1.8250 -0.7923 -1.7808
  765MOL0     H  935   6.730   0.653  10.936  0.0045 -0.3541 -0.3414
  765MOL0     H  936   6.613   0.664  10.699 -0.5184  1.8845 -2.1656
  765MOL0     H  937   6.719   0.779  10.654 -0.8066 -3.2533 -2.4494
  765MOL0     H  938   6.484   0.848  10.776 -2.0731  0.5430  2.5765
  765MOL0     H  939   6.573   0.812  10.923  0.1022  0.2065 -0.1983
  765MOL0     H  940   6.651   1.037  10.729 -3.6915  0.5266 -1.3470
  765MOL0     H  941   6.750   0.972  10.865 -0.6833 -1.1931  2.3104
  765MOL0     H  942   6.433   1.055  10.680 -0.1286 -1.0051  1.4756
  765MOL0     H  943   6.228   1.172  10.634 -1.7028 -3.9677  1.2706
  765MOL0     H  944   6.042   1.707  10.982  2.8902  1.1208 -3.5040
  765MOL0     H  945   5.873   1.857  10.957 -0.0606  1.5476 -2.1318
  765MOL0     H  946   5.714   2.002  10.849 -2.1901  3.6587  0.4348
  765MOL0     H  947   5.648   1.967  11.007 -0.1564  0.2408 -1.7545
  765MOL0     H  948   5.507   2.119  10.874  2.2411  0.4649 -2.8719
  765MOL0     H  949   5.423   1.963  10.918 -0.3021  0.6425  0.1248
  765MOL0     H  950   5.473   1.889  10.697  2.1718  0.1540 -2.8513
  765MOL0     H  951   5.538   2.053  10.649 -2.8117  3.1918  0.8082
  765MOL0     H  952   5.248   2.024  10.751 -3.0216 -0.1404 -3.4857
  765MOL0     H  953   5.339   2.159  10.712  3.1371  0.0260 -1.3177
  765MOL0     H  954   5.290   1.932  10.524  0.7313  0.3543 -1.2913
  765MOL0     H  955   5.337   2.086  10.463 -3.8852  0.9468 -1.3093
  765MOL0     H  956   5.130   2.177  10.579  1.0502 -0.6551  2.7955
  765MOL0     H  957   5.076   2.007  10.590 -1.2822 -2.1948 -3.1541
  765MOL0     H  958   5.148   2.153  10.335  1.2526 -0.1130  0.0519
  765MOL0     H  959   5.077   1.986  10.340 -0.2993  0.3474  0.4245
  765MOL0     H  960   4.916   2.165  10.286  1.6024 -0.7281 -0.1876
  765MOL0     H  961   4.946   2.239  10.449 -2.4401 -0.3465  1.3087
  765MOL0     H  962   5.630   1.551  10.786 -0.4149 -1.4657  3.7374
  765MOL0     H  963   5.812   1.410  10.759 -0.0168  1.2885 -3.3528
  765MOL0     H  964   6.227   1.356  11.017 -0.9272  0.1831 -1.0979
  765MOL0     H  965   6.446   1.232  11.077 -0.3554 -0.6686  0.7320
  765MOL0     H  966   8.159   0.365  10.589  1.6604  1.9395 -0.8258
  765MOL0     H  967   8.390   0.382  10.628 -1.3766  0.8972  0.0698
  765MOL0     H  968   8.712  -0.068  10.891  0.3942  0.4262  1.4824
  765MOL0     H  969   8.958  -0.062  10.983 -2.9739  0.3805  1.4890
  765MOL0     H  970   9.156   0.298  10.966  0.3522  0.7994  1.7436
  765MOL0     H  971   9.254   0.239  10.839  1.0956  1.1696  0.0946
  765MOL0     H  972   9.359   0.077  11.023  1.9290 -0.4322  0.4195
  765MOL0     H  973   9.399   0.248  11.001 -1.8989  3.0879  1.1956
  765MOL0     H  974   9.182   0.148  11.204  0.9132 -1.3612  1.7462
  765MOL0     H  975   9.234   0.312  11.175  0.6565 -0.4977  0.0866
  765MOL0     H  976   9.344   0.242  11.378 -2.5412  0.9956 -1.6089
  765MOL0     H  977   9.403   0.093  11.312  2.6608  0.9238  2.0676
  765MOL0     H  978   9.677   0.393  11.178  0.4132 -0.8828 -0.8300
  765MOL0     H  979   9.047   0.281  10.752  0.3842 -1.0094 -2.7335
  765MOL0     H  980   8.820   0.298  10.678 -1.7847  1.8367  2.9416
  766MOL0     O  981   4.480  10.500   0.574  0.2093  0.2824 -0.1620
  766MOL0     C  982   4.481  10.504   0.454 -0.5414  0.4327  0.2776
  766MOL0     O  983   4.371  10.506   0.371  0.3777 -0.4752 -0.6736
  766MOL0     C  984   4.251  10.492   0.441 -0.0689  1.0564 -0.6138
  766MOL0     C  985   4.163  10.599   0.465 -0.0340 -0.3828  0.5142
  766MOL0     C  986   4.042  10.584   0.531 -0.4741  0.0572 -0.6517
  766MOL0     C  987   4.001  10.451   0.581 -0.8188 -0.3431  0.6319
  766MOL0     O  988   3.890  10.426   0.649 -0.1591  0.8230  0.3416
  766MOL0     C  989   3.766  10.485   0.600 -1.4102 -1.1329 -0.7865
  766MOL0     C  990   3.651  10.458   0.697  0.6782 -0.9546 -0.6836
  766MOL0     C  991   3.527  10.546   0.669 -0.9178  0.3722 -0.6156
  766MOL0     C  992   3.432  10.535   0.782 -1.1949 -0.1311 -0.6870
  766MOL0     C  993   3.310  10.624   0.755  0.3054  1.0878 -0.2926
  766MOL0     C  994   3.208  10.630   0.874  0.3696  0.3659  0.0371
  766MOL0     C  995   3.093  10.732   0.841  0.4450 -0.0512 -0.9570
  766MOL0     C  996   2.991  10.745   0.957  0.3622 -0.7931  0.2427
  766MOL0     N  997   2.892  10.853   0.926 -0.6665 -0.1250 -0.5401
  766MOL0     C  998   2.904  10.993   0.936  0.4767 -0.6257  0.3530
  766MOL0     C  999   2.783  11.035   0.890  0.3496  0.2513 -0.0772
  766MOL0     C 1000   2.756  11.176   0.890  0.7068  0.4401 -0.0429
  766MOL0     C 1001   2.826  11.253   0.776  0.0960  0.1269 -0.4549
  766MOL0     C 1002   2.820  11.405   0.798  0.5219  0.3136  0.1155
  766MOL0     C 1003   2.897  11.475   0.680 -0.6792  0.0842 -0.0016
  766MOL0     O 1004   2.864  11.616   0.684 -0.7271 -0.4307 -0.0131
  766MOL0     C 1005   2.738  11.657   0.641  0.2931 -0.2612  0.3593
  766MOL0     C 1006   2.710  11.794   0.640  0.5125  0.6590  0.1522
  766MOL0     C 1007   2.580  11.848   0.610 -0.3407  0.0061  0.3432
  766MOL0     C 1008   2.486  11.756   0.555  0.8032  0.7151 -1.0022
  766MOL0     C 1009   2.343  11.787   0.526  0.0381 -0.1160  0.2928
  766MOL0     O 1010   2.308  11.919   0.538  0.2546  0.0366 -0.1976
  766MOL0     C 1011   2.177  11.952   0.531 -0.7214 -0.0995  0.1355
  766MOL0     C 1012   2.158  12.079   0.482 -0.3910  0.4346  0.2203
  766MOL0     C 1013   2.029  12.133   0.456 -0.0352 -0.3997  0.2523
  766MOL0     C 1014   1.920  12.062   0.498 -0.5651  0.0811 -0.1597
  766MOL0     O 1015   1.800  12.121   0.479 -0.5330  0.0553 -0.3740
  766MOL0     C 1016   1.717  12.073   0.378  1.0547 -0.7339 -0.0649
  766MOL0     C 1017   1.573  12.048   0.427  0.4589 -0.1359 -0.9371
  766MOL0     C 1018   1.545  11.954   0.544  0.0107  0.2698 -0.0438
  766MOL0     C 1019   1.394  11.920   0.543  0.0690 -0.5086  0.0083
  766MOL0     C 1020   1.360  11.812   0.656  0.4492  0.2753  0.1538
  766MOL0     C 1021   1.203  11.813   0.685 -1.0319 -0.0140  1.8453
  766MOL0     C 1022   1.157  11.923   0.777  0.3944 -0.1509  0.7444
  766MOL0     C 1023   1.008  11.885   0.816 -0.5153 -0.3046 -0.6003
  766MOL0    Cl 1024   1.015  11.762   0.947  0.2699 -0.0588 -0.5213
  766MOL0     C 1025   1.932  11.933   0.560 -0.8805  0.5495  0.4202
  766MOL0     C 1026   2.066  11.879   0.574  0.0574  0.4267  0.9293
  766MOL0     O 1027   2.266  11.689   0.510  0.1032 -0.0354 -0.0215
  766MOL0     C 1028   2.519  11.620   0.543  0.1708 -0.8482 -0.3918
  766MOL0     C 1029   2.643  11.574   0.583 -0.3416 -1.2985 -0.0093
  766MOL0     N 1030   2.709  10.926   0.856 -0.0826  0.5585  0.0577
  766MOL0     N 1031   2.772  10.819   0.888  0.0679 -0.4514  0.3247
  766MOL0     C 1032   4.086  10.349   0.564 -1.5411  0.1206 -0.2197
  766MOL0     C 1033   4.208  10.367   0.485  0.4801 -0.6426 -0.0307
  766MOL0     C 1034   4.619  10.520   0.394  0.3081  0.5515 -0.3143
  766MOL0     C 1035   4.725  10.543   0.485 -0.2739  0.4423  0.4795
  766MOL0     C 1036   4.854  10.573   0.430  0.9895 -0.0359 -0.4966
  766MOL0     C 1037   4.885  10.554   0.302  0.0598  0.4476 -0.0133
  766MOL0     O 1038   5.014  10.581   0.270  0.1536 -0.5899 -0.5284
  766MOL0     C 1039   5.056  10.565   0.127 -0.2317  0.7408 -0.2150
  766MOL0     C 1040   5.210  10.584   0.113 -0.1237  0.1333  0.0485
  766MOL0     C 1041   5.252  10.612  -0.031  0.7119  0.8167 -0.0711
  766MOL0     C 1042   5.370  10.715  -0.038  0.1971  0.3100 -0.6494
  766MOL0     C 1043   5.499  10.644   0.007 -0.3922 -0.9116 -0.1445
  766MOL0     C 1044   5.609  10.598   0.045 -0.0581  0.1909  0.4803
  766MOL0     C 1045   4.779  10.527   0.212 -0.0702  0.6316  0.0444
  766MOL0     C 1046   4.644  10.512   0.254 -0.7590  0.0075 -0.8246
  766MOL0     H 1047   4.192  10.701   0.441  3.6331 -0.6471  2.9428
  766MOL0     H 1048   3.985  10.673   0.556 -0.5947 -0.3905  0.7986
  766MOL0     H 1049   3.748  10.440   0.502 -0.5346  2.8197 -2.9672
  766MOL0     H 1050   3.785  10.591   0.582 -0.0495 -1.4824 -1.5599
  766MOL0     H 1051   3.680  10.474   0.802 -1.1131  1.6800 -0.4980
  766MOL0     H 1052   3.628  10.352   0.681  0.2174 -0.6865 -1.8689
  766MOL0     H 1053   3.484  10.510   0.575 -1.1539  2.7342 -1.4752
  766MOL0     H 1054   3.558  10.650   0.655  2.9978 -0.4273  0.8825
  766MOL0     H 1055   3.403  10.430   0.784 -1.9081  0.0434  2.6323
  766MOL0     H 1056   3.486  10.552   0.875 -1.4598  0.3635 -0.6181
  766MOL0     H 1057   3.253  10.595   0.667 -0.6044  1.2995  0.2140
  766MOL0     H 1058   3.356  10.722   0.741  2.2859  0.1187 -0.8978
  766MOL0     H 1059   3.257  10.658   0.968  1.5164  1.6920 -0.9137
  766MOL0     H 1060   3.155  10.535   0.887  0.2562  0.3457 -0.5479
  766MOL0     H 1061   3.136  10.830   0.819 -1.5017  0.8471 -0.9867
  766MOL0     H 1062   3.030  10.699   0.758 -0.9480  0.6139 -0.2002
  766MOL0     H 1063   3.027  10.761   1.059  1.2370 -0.2703 -0.1331
  766MOL0     H 1064   2.933  10.653   0.965 -0.3726 -0.3493  0.1839
  766MOL0     H 1065   2.987  11.050   0.977 -0.8439  0.7471  1.2250
  766MOL0     H 1066   2.793  11.210   0.987  0.3849  1.9734 -0.4233
  766MOL0     H 1067   2.648  11.189   0.884  0.7813  1.4504  0.5464
  766MOL0     H 1068   2.777  11.230   0.681  1.2571 -0.6979 -0.8650
  766MOL0     H 1069   2.932  11.229   0.774  0.1038  0.1577 -2.2828
  766MOL0     H 1070   2.714  11.430   0.810  0.6536  0.5630  0.8108
  766MOL0     H 1071   2.878  11.434   0.886  3.1981  2.9770 -2.3072
  766MOL0     H 1072   2.874  11.438   0.579 -0.3780  0.6546 -0.2848
  766MOL0     H 1073   3.005  11.464   0.693 -1.1013 -1.6660  2.9809
  766MOL0     H 1074   2.790  11.849   0.690  0.1628 -1.4074  3.2910
  766MOL0     H 1075   2.562  11.955   0.621 -1.5974 -0.2908  1.3525
  766MOL0     H 1076   2.244  12.137   0.449 -0.8433  0.8259 -0.3069
  766MOL0     H 1077   2.011  12.223   0.399  0.1089 -0.1785  0.5545
  766MOL0     H 1078   1.763  11.988   0.326  1.9441 -0.4363  0.2081
  766MOL0     H 1079   1.696  12.156   0.311  1.8075  1.7935  2.6045
  766MOL0     H 1080   1.507  12.034   0.341 -2.3889  1.7066  0.8195
  766MOL0     H 1081   1.537  12.144   0.462 -0.8405  0.4974 -3.6957
  766MOL0     H 1082   1.587  12.001   0.634 -2.3919  1.6276  0.4387
  766MOL0     H 1083   1.607  11.864   0.535 -1.2191 -0.7107  0.9353
  766MOL0     H 1084   1.336  12.009   0.569  1.4145  0.5593 -0.5134
  766MOL0     H 1085   1.354  11.883   0.448 -3.7642 -0.7885  1.5517
  766MOL0     H 1086   1.408  11.822   0.754 -0.6644 -1.1456  0.8713
  766MOL0     H 1087   1.385  11.713   0.616  3.1259  0.5259  1.0133
  766MOL0     H 1088   1.171  11.719   0.730 -0.8849 -1.5215 -0.9556
  766MOL0     H 1089   1.145  11.820   0.592  0.8581 -3.6462  0.2137
  766MOL0     H 1090   1.215  11.909   0.869  1.4912  0.0186  0.0981
  766MOL0     H 1091   1.175  12.028   0.750  0.5019 -0.2401  0.4729
  766MOL0     H 1092   0.946  11.840   0.738 -0.3924 -2.2155  0.3525
  766MOL0     H 1093   0.960  11.968   0.868  0.9712  0.2235 -0.0242
  766MOL0     H 1094   1.848  11.865   0.571 -0.4608 -0.1704 -0.6473
  766MOL0     H 1095   2.074  11.785   0.628  0.6181 -0.3495 -0.4474
  766MOL0     H 1096   2.449  11.538   0.536 -0.0240 -0.8438  1.2053
  766MOL0     H 1097   2.659  11.466   0.586 -1.0716 -1.4168 -0.1452
  766MOL0     H 1098   4.075  10.256   0.620  2.4183  1.1095  2.7096
  766MOL0     H 1099   4.273  10.280   0.483 -2.2588 -2.8574  0.6205
  766MOL0     H 1100   4.706  10.561   0.590  0.9155  1.4680  0.5324
  766MOL0     H 1101   4.938  10.608   0.489  1.7040 -1.0579 -0.8816
  766MOL0     H 1102   5.000  10.633   0.063 -0.1030  0.3305 -0.7697
  766MOL0     H 1103   5.029  10.474   0.073  0.9100  0.8501 -1.0301
  766MOL0     H 1104   5.242  10.665   0.179 -1.4952  0.0727  0.8290
  766MOL0     H 1105   5.247  10.486   0.145 -0.4713  0.8158  2.7823
  766MOL0     H 1106   5.173  10.649  -0.098  1.8459  1.1041 -1.3042
  766MOL0     H 1107   5.293  10.516  -0.064  2.7093  2.2999 -2.3125
  766MOL0     H 1108   5.378  10.756  -0.139 -1.8730  2.5329 -0.0260
  766MOL0     H 1109   5.361  10.799   0.032 -2.1063 -0.4433  0.0489
  766MOL0     H 1110   5.702  10.557   0.076 -0.6076 -0.4841  1.2680
  766MOL0     H 1111   4.794  10.512   0.105 -1.0047  0.8620 -0.1284
  766MOL0     H 1112   4.562  10.499   0.185 -1.4668  3.1163 -0.7171
  767MOL0     O 1113   5.237   4.436   0.047 -0.1114  0.0364 -0.0493
  767MOL0     C 1114   5.345   4.489   0.012 -0.4055  0.1694 -0.2284
  767MOL0     O 1115   5.348   4.597  -0.069  0.3997 -0.1075 -0.1924
  767MOL0     C 1116   5.234   4.668  -0.115 -0.2908 -0.4599 -0.4649
  767MOL0     C 1117   5.096   4.639  -0.094  0.5000  0.4420  0.1533
  767MOL0     C 1118   5.007   4.731  -0.139  0.3448  0.8530 -0.2287
  767MOL0     C 1119   5.035   4.863  -0.180  0.4418 -0.0199  0.5198
  767MOL0     O 1120   4.937   4.946  -0.205  0.0239  0.3658 -0.3609
  767MOL0     C 1121   4.814   4.930  -0.138 -0.4320  0.3338 -0.3124
  767MOL0     C 1122   4.750   5.076  -0.125 -0.5308 -0.4169  0.3039
  767MOL0     C 1123   4.608   5.064  -0.091  0.1525 -0.1775  0.9290
  767MOL0     C 1124   4.553   5.202  -0.046 -0.1943 -0.2167 -0.0520
  767MOL0     C 1125   4.407   5.191   0.002 -0.1484  0.1697  0.0568
  767MOL0     C 1126   4.339   5.316   0.053  0.0296 -0.1145  0.0972
  767MOL0     C 1127   4.214   5.288   0.140 -0.5335 -1.1540 -1.0564
  767MOL0     C 1128   4.113   5.210   0.058  0.5614 -0.1363  0.0940
  767MOL0     N 1129   4.001   5.188   0.146 -0.1221 -0.4254 -0.5179
  767MOL0     C 1130   3.885   5.255   0.136 -0.6782 -0.3730  0.8504
  767MOL0     C 1131   3.804   5.188   0.220  0.5099 -0.3548 -0.3450
  767MOL0     C 1132   3.659   5.222   0.217  0.0277 -0.7455 -0.1833
  767MOL0     C 1133   3.565   5.117   0.279  0.2506 -0.6553 -0.0947
  767MOL0     C 1134   3.554   5.111   0.436 -0.6918  0.3429  0.9102
  767MOL0     C 1135   3.553   5.243   0.505 -0.1724  0.2670 -0.3072
  767MOL0     O 1136   3.677   5.310   0.508  0.4105  0.5785  0.1104
  767MOL0     C 1137   3.775   5.255   0.587  1.2700 -0.0936  0.0061
  767MOL0     C 1138   3.905   5.271   0.539  0.0862  0.1582 -0.3346
  767MOL0     C 1139   4.017   5.237   0.609  0.5606 -0.1969 -0.2732
  767MOL0     C 1140   4.003   5.188   0.741  0.0993 -0.0439 -0.8754
  767MOL0     C 1141   4.124   5.154   0.815 -0.2385 -0.2035  0.2760
  767MOL0     O 1142   4.243   5.187   0.758 -0.9277  0.5524  0.2314
  767MOL0     C 1143   4.365   5.145   0.798 -1.0601  0.1136 -0.4265
  767MOL0     C 1144   4.401   5.126   0.937  0.0957 -0.0518 -0.4240
  767MOL0     C 1145   4.529   5.089   0.968  0.3302  0.7131  0.3339
  767MOL0     C 1146   4.629   5.074   0.864  0.2125 -0.1316 -0.3692
  767MOL0     O 1147   4.750   5.029   0.906  0.8426  0.7233  0.5931
  767MOL0     C 1148   4.850   5.122   0.868 -0.7182 -0.6104  0.3039
  767MOL0     C 1149   4.995   5.081   0.913  0.7642 -0.8944 -0.2931
  767MOL0     C 1150   5.082   5.206   0.890 -0.9748  0.1111  0.7277
  767MOL0     C 1151   5.227   5.161   0.911 -0.3811  0.5830  0.8734
  767MOL0     C 1152   5.317   5.286   0.905  0.1083 -1.1822  0.1127
  767MOL0     C 1153   5.452   5.247   0.959  0.1343  0.2265  0.1413
  767MOL0     C 1154   5.549   5.362   0.951  0.4794 -0.1588  0.1419
  767MOL0     C 1155   5.693   5.312   0.970  0.1179  0.7152 -0.2113
  767MOL0    Cl 1156   5.714   5.254   1.136 -0.2617  0.0533 -0.2599
  767MOL0     C 1157   4.594   5.090   0.730  0.1552  0.4222 -0.5475
  767MOL0     C 1158   4.464   5.131   0.698  1.2300  0.3265  0.2921
  767MOL0     O 1159   4.114   5.091   0.920  0.0833 -0.1235  0.1027
  767MOL0     C 1160   3.868   5.182   0.792 -0.2840 -0.5805 -0.2945
  767MOL0     C 1161   3.757   5.219   0.718  0.6202  0.3142 -0.3730
  767MOL0     N 1162   3.866   5.078   0.275  0.2335 -0.4831 -0.3212
  767MOL0     N 1163   3.987   5.082   0.227 -0.3908  0.4736  0.0278
  767MOL0     C 1164   5.170   4.890  -0.216  0.1716 -0.6191 -0.4873
  767MOL0     C 1165   5.263   4.796  -0.174 -0.0274  0.2951  1.0064
  767MOL0     C 1166   5.471   4.419   0.047 -0.9007  0.4197  0.3813
  767MOL0     C 1167   5.475   4.307   0.137 -0.0860  0.1566 -0.7350
  767MOL0     C 1168   5.596   4.250   0.173  0.5081  0.3056 -0.1849
  767MOL0     C 1169   5.720   4.299   0.112 -0.6459  0.5204 -0.3167
  767MOL0     O 1170   5.848   4.240   0.135 -0.1150 -0.5140 -0.5540
  767MOL0     C 1171   5.875   4.198   0.270  0.2085  0.0484 -0.1540
  767MOL0     C 1172   6.018   4.161   0.283 -0.7413  0.2915  0.4278
  767MOL0     C 1173   6.103   4.282   0.311 -0.1844 -1.8288 -0.9482
  767MOL0     C 1174   6.250   4.251   0.339  0.1597 -0.1060 -0.2808
  767MOL0     C 1175   6.310   4.190   0.221  0.0090 -0.0916  0.6268
  767MOL0     C 1176   6.359   4.142   0.122  1.1859 -0.0137 -0.0741
  767MOL0     C 1177   5.718   4.391   0.017  0.5407 -0.3869  0.3867
  767MOL0     C 1178   5.593   4.447  -0.012  1.3881  0.5057  0.5294
  767MOL0     H 1179   5.044   4.554  -0.050 -0.0413  0.6198 -0.1349
  767MOL0     H 1180   4.905   4.694  -0.135  1.1664 -1.4832  0.5846
  767MOL0     H 1181   4.824   4.901  -0.033 -0.9198  3.2712  0.6439
  767MOL0     H 1182   4.750   4.862  -0.194 -1.9370  1.5330 -0.1336
  767MOL0     H 1183   4.774   5.132  -0.216  4.7404  2.0962  2.8238
  767MOL0     H 1184   4.800   5.129  -0.043  0.9152 -3.5006  1.5557
  767MOL0     H 1185   4.597   4.992  -0.010  3.3446 -2.3013 -0.3005
  767MOL0     H 1186   4.557   5.011  -0.171  1.6191 -0.3835  0.0874
  767MOL0     H 1187   4.614   5.255   0.027 -0.2636 -0.0043 -0.1462
  767MOL0     H 1188   4.551   5.263  -0.137  1.7549 -2.2102 -1.5363
  767MOL0     H 1189   4.408   5.115   0.080 -1.8036  1.8021  1.7889
  767MOL0     H 1190   4.353   5.155  -0.086 -0.0791  0.4607 -0.1090
  767MOL0     H 1191   4.314   5.379  -0.033  0.9916  1.1714  0.7400
  767MOL0     H 1192   4.411   5.369   0.115  1.3722 -0.6375 -0.9471
  767MOL0     H 1193   4.247   5.227   0.224  2.0539  0.2147 -0.9817
  767MOL0     H 1194   4.179   5.379   0.189  0.8506 -1.0714 -0.1718
  767MOL0     H 1195   4.158   5.112   0.041  1.3901 -0.1224  1.9164
  767MOL0     H 1196   4.080   5.263  -0.031  2.2637  0.0681 -0.4505
  767MOL0     H 1197   3.876   5.347   0.080  2.6177 -1.6489 -2.1041
  767MOL0     H 1198   3.625   5.224   0.113 -0.3770 -1.9498 -0.0877
  767MOL0     H 1199   3.662   5.321   0.263  1.8802 -0.1206 -1.5349
  767MOL0     H 1200   3.586   5.021   0.231  0.9662 -1.0171  0.9119
  767MOL0     H 1201   3.469   5.154   0.241  0.2853 -0.9958 -0.5218
  767MOL0     H 1202   3.471   5.044   0.460  0.6140 -2.2256 -1.2124
  767MOL0     H 1203   3.640   5.057   0.476  0.6340  1.7991  0.1341
  767MOL0     H 1204   3.514   5.220   0.605 -2.6185 -0.0399 -1.2736
  767MOL0     H 1205   3.498   5.320   0.449  2.3905  2.6964  0.2664
  767MOL0     H 1206   3.917   5.304   0.436  1.9491 -3.9795 -1.6697
  767MOL0     H 1207   4.112   5.240   0.558  0.6278 -3.1439 -0.4924
  767MOL0     H 1208   4.330   5.152   1.015 -1.4492 -1.3514 -1.3255
  767MOL0     H 1209   4.547   5.077   1.074 -0.9605 -1.3168  0.3797
  767MOL0     H 1210   4.834   5.218   0.918 -0.1446  0.7612 -1.9826
  767MOL0     H 1211   4.853   5.148   0.762  1.4136  0.2610  0.5363
  767MOL0     H 1212   5.031   4.995   0.857  2.8977  1.3152 -2.5957
  767MOL0     H 1213   4.997   5.055   1.019  0.9939  2.0399  0.5164
  767MOL0     H 1214   5.072   5.280   0.970  1.6839  1.0353  0.3151
  767MOL0     H 1215   5.071   5.258   0.794  0.8122  1.2679  1.1085
  767MOL0     H 1216   5.254   5.118   1.008  2.1692 -0.5161 -0.2336
  767MOL0     H 1217   5.263   5.092   0.835  1.4105  1.5559  0.7938
  767MOL0     H 1218   5.280   5.356   0.980 -2.1501 -1.6966 -0.4596
  767MOL0     H 1219   5.322   5.324   0.803 -0.7411  2.3500  1.2501
  767MOL0     H 1220   5.500   5.164   0.906  0.6407  0.7668 -0.2500
  767MOL0     H 1221   5.436   5.215   1.063 -1.3702  2.7346  0.7624
  767MOL0     H 1222   5.548   5.416   0.856  0.3932 -1.8358 -0.8477
  767MOL0     H 1223   5.519   5.436   1.026  0.7625 -0.6171  0.7194
  767MOL0     H 1224   5.767   5.391   0.960  1.6271 -0.0895  3.3688
  767MOL0     H 1225   5.701   5.236   0.892 -1.1422 -0.6342  0.9011
  767MOL0     H 1226   4.669   5.087   0.652 -1.0132  2.2447 -1.8111
  767MOL0     H 1227   4.426   5.144   0.597  3.6532  1.9191 -0.5056
  767MOL0     H 1228   3.854   5.147   0.894  1.2982 -1.5581 -0.3745
  767MOL0     H 1229   3.663   5.200   0.769  1.3548 -1.1360  0.5049
  767MOL0     H 1230   5.192   4.984  -0.264  0.5883 -0.7614 -0.5729
  767MOL0     H 1231   5.367   4.826  -0.179  0.1226  0.1880  2.8516
  767MOL0     H 1232   5.383   4.264   0.173  0.0241  1.7449  1.6286
  767MOL0     H 1233   5.591   4.160   0.233  1.6510 -1.0760 -2.0377
  767MOL0     H 1234   5.816   4.110   0.298 -1.0136  0.3741 -1.5802
  767MOL0     H 1235   5.864   4.280   0.340  0.5778 -0.9877  1.1643
  767MOL0     H 1236   6.031   4.102   0.375 -1.5173 -1.3070 -0.4337
  767MOL0     H 1237   6.055   4.096   0.203  1.9640  2.2298 -0.0023
  767MOL0     H 1238   6.061   4.330   0.400 -0.2858  1.3237 -2.5758
  767MOL0     H 1239   6.089   4.350   0.228 -0.2660 -1.6365 -0.7779
  767MOL0     H 1240   6.311   4.339   0.359  4.9160 -3.0225 -0.4126
  767MOL0     H 1241   6.253   4.183   0.425 -0.2780 -2.4657 -2.0011
  767MOL0     H 1242   6.398   4.106   0.029  0.0442 -0.1495 -0.5183
  767MOL0     H 1243   5.808   4.413  -0.039  0.4045 -0.9917 -0.0898
  767MOL0     H 1244   5.592   4.521  -0.092 -0.7124  0.1828  0.1986
  768MOL0     O 1245   0.716  10.385   4.269 -0.5930  0.4387 -0.0224
  768MOL0     C 1246   0.743  10.292   4.345  0.4366 -0.7570  0.1021
  768MOL0     O 1247   0.663  10.184   4.379  0.3091  0.7200 -0.2605
  768MOL0     C 1248   0.534  10.163   4.328  0.2206  0.2717 -0.3565
  768MOL0     C 1249   0.478  10.224   4.212 -0.5397 -0.2515 -0.8117
  768MOL0     C 1250   0.348  10.185   4.171  0.2238 -0.1273  0.5945
  768MOL0     C 1251   0.276  10.082   4.228  0.2882 -0.2816  0.7121
  768MOL0     O 1252   0.162  10.041   4.168  0.1083 -0.5736  0.3382
  768MOL0     C 1253   0.115   9.910   4.194  0.3316 -0.5932 -0.4805
  768MOL0     C 1254  -0.014   9.879   4.114 -0.2633 -1.2575 -0.7629
  768MOL0     C 1255  -0.087   9.756   4.168  0.1866 -0.0350  0.3852
  768MOL0     C 1256  -0.144   9.768   4.311  0.0458 -0.6695  0.4633
  768MOL0     C 1257  -0.229   9.886   4.352 -0.2061 -1.3425  0.4919
  768MOL0     C 1258  -0.346   9.890   4.250  0.4133 -0.0888  0.3792
  768MOL0     C 1259  -0.457   9.956   4.317  0.1632 -0.4442 -0.1967
  768MOL0     C 1260  -0.586   9.978   4.240 -0.7538  0.3914  0.0852
  768MOL0     N 1261  -0.578  10.103   4.154 -0.6209  0.3574 -0.5888
  768MOL0     C 1262  -0.588  10.110   4.016  0.2280  0.3211  0.2316
  768MOL0     C 1263  -0.608  10.242   3.981  0.0313  0.1960 -0.3397
  768MOL0     C 1264  -0.629  10.304   3.848 -0.2120  1.1745 -0.1839
  768MOL0     C 1265  -0.780  10.308   3.822  0.0901 -0.4283 -0.7647
  768MOL0     C 1266  -0.818  10.369   3.688 -0.2052 -0.1959  0.1237
  768MOL0     C 1267  -0.798  10.523   3.693  0.5624  1.0336 -0.0053
  768MOL0     O 1268  -0.850  10.592   3.575  0.3887 -0.6204  0.9382
  768MOL0     C 1269  -0.983  10.619   3.548  0.2839 -1.1009 -0.6235
  768MOL0     C 1270  -1.019  10.628   3.414  0.7242  0.4221  0.1366
  768MOL0     C 1271  -1.150  10.650   3.380  0.1246 -0.3576  0.0335
  768MOL0     C 1272  -1.251  10.661   3.476  0.0274 -0.2470  0.2564
  768MOL0     C 1273  -1.398  10.661   3.439  0.0968 -0.0712  0.8425
  768MOL0     O 1274  -1.429  10.653   3.309 -0.3916  0.0866 -0.6917
  768MOL0     C 1275  -1.553  10.669   3.255 -0.7311 -0.2684 -0.8361
  768MOL0     C 1276  -1.676  10.650   3.324 -0.0955  0.1737  0.0465
  768MOL0     C 1277  -1.800  10.669   3.264  0.2054 -0.0649  0.3764
  768MOL0     C 1278  -1.806  10.731   3.135  0.0975  0.8761  0.7570
  768MOL0     O 1279  -1.912  10.781   3.067 -0.2765 -0.0518 -0.0334
  768MOL0     C 1280  -2.042  10.758   3.116  0.4618  0.2204  0.3048
  768MOL0     C 1281  -2.144  10.755   2.994 -0.0242 -0.8428  0.4565
  768MOL0     C 1282  -2.287  10.785   3.032  0.5937 -0.2989  0.2632
  768MOL0     C 1283  -2.356  10.698   3.135  0.7750 -0.5390 -0.4445
  768MOL0     C 1284  -2.509  10.709   3.135 -0.2306 -0.6261 -0.0386
  768MOL0     C 1285  -2.537  10.845   3.206  0.0156  0.4539 -0.7647
  768MOL0     C 1286  -2.680  10.874   3.237  0.1559  0.0528 -0.5895
  768MOL0     C 1287  -2.774  10.872   3.115 -0.0643 -0.3605 -0.0815
  768MOL0    Cl 1288  -2.940  10.914   3.156 -0.2736 -0.0415  0.0739
  768MOL0     C 1289  -1.689  10.762   3.078 -0.7882  0.3437  0.1990
  768MOL0     C 1290  -1.561  10.723   3.126  0.5218  0.5023 -0.3072
  768MOL0     O 1291  -1.474  10.675   3.531  0.6656 -0.1713 -0.4652
  768MOL0     C 1292  -1.220  10.657   3.613 -0.6080 -0.3222  1.3230
  768MOL0     C 1293  -1.087  10.643   3.650 -1.0925  0.4917  0.4359
  768MOL0     N 1294  -0.616  10.304   4.104  0.4087 -0.3766 -0.1772
  768MOL0     N 1295  -0.601  10.230   4.205 -0.8585  0.3337  0.3262
  768MOL0     C 1296   0.338  10.018   4.344  0.3249  0.1825  0.9554
  768MOL0     C 1297   0.457  10.061   4.387 -0.8926 -0.6119 -0.5860
  768MOL0     C 1298   0.864  10.312   4.427 -0.7544  0.3439  0.7426
  768MOL0     C 1299   0.950  10.421   4.428 -0.4425 -0.5016  0.3899
  768MOL0     C 1300   1.070  10.432   4.506 -0.3162 -0.1174  0.7862
  768MOL0     C 1301   1.100  10.325   4.594 -0.6666  0.2854  0.5732
  768MOL0     O 1302   1.218  10.318   4.667 -0.0030  0.1548 -0.6344
  768MOL0     C 1303   1.302  10.426   4.667  0.4597 -0.1219  0.5260
  768MOL0     C 1304   1.428  10.399   4.737  0.5097 -0.5837 -0.4683
  768MOL0     C 1305   1.402  10.343   4.876  0.3553 -0.2530  0.3692
  768MOL0     C 1306   1.522  10.361   4.959 -0.2448 -0.4746 -0.1889
  768MOL0     C 1307   1.515  10.290   5.091  0.2888 -0.2629 -0.3471
  768MOL0     C 1308   1.517  10.234   5.200 -0.4086  0.1574  0.2472
  768MOL0     C 1309   1.016  10.211   4.598  0.2451 -0.2174 -0.2093
  768MOL0     C 1310   0.900  10.208   4.524  0.2404  0.9128  0.1791
  768MOL0     H 1311   0.526  10.309   4.166 -3.7243  1.9932 -0.3420
  768MOL0     H 1312   0.291  10.231   4.092 -1.3759 -3.4113 -0.3696
  768MOL0     H 1313   0.074   9.905   4.295 -2.7510  0.9697 -1.5499
  768MOL0     H 1314   0.184   9.826   4.178 -0.1027 -0.9476 -0.5047
  768MOL0     H 1315   0.010   9.866   4.008 -0.1809 -1.1528 -0.7581
  768MOL0     H 1316  -0.065   9.975   4.127 -1.2841 -1.5529 -2.3932
  768MOL0     H 1317  -0.025   9.666   4.163 -2.8930 -2.2827 -2.1270
  768MOL0     H 1318  -0.170   9.740   4.098 -0.0764  1.0979  0.4167
  768MOL0     H 1319  -0.207   9.682   4.336 -0.2907  0.1228  2.6010
  768MOL0     H 1320  -0.072   9.745   4.390 -0.2475  1.5694  1.4726
  768MOL0     H 1321  -0.185   9.985   4.363 -0.2170 -1.4170  1.2565
  768MOL0     H 1322  -0.259   9.867   4.455 -1.2837  2.8830  1.1465
  768MOL0     H 1323  -0.373   9.794   4.206  1.0460  1.8026 -4.7316
  768MOL0     H 1324  -0.307   9.949   4.167  3.2370 -0.9070  1.0166
  768MOL0     H 1325  -0.470   9.906   4.414 -1.6096 -0.4860 -0.4212
  768MOL0     H 1326  -0.423  10.055   4.350  2.2073 -1.3712  0.6432
  768MOL0     H 1327  -0.667   9.988   4.314 -0.6916 -0.8110  0.3303
  768MOL0     H 1328  -0.600   9.886   4.182  1.1518  0.1639 -0.0726
  768MOL0     H 1329  -0.565  10.034   3.942  7.7627  0.5732  1.5495
  768MOL0     H 1330  -0.587  10.234   3.776 -0.9999 -0.9474  1.2913
  768MOL0     H 1331  -0.585  10.402   3.830  3.4832 -0.7758 -3.3471
  768MOL0     H 1332  -0.834  10.358   3.903  0.3508  1.7464 -1.8335
  768MOL0     H 1333  -0.810  10.203   3.815  0.3413 -0.4926 -0.8843
  768MOL0     H 1334  -0.772  10.329   3.598 -1.1702 -1.8926  0.3448
  768MOL0     H 1335  -0.926  10.356   3.680 -0.4729  0.0206  2.5036
  768MOL0     H 1336  -0.697  10.560   3.714  0.5290  0.3617  1.5257
  768MOL0     H 1337  -0.852  10.557   3.782  0.9201  0.2465  0.5283
  768MOL0     H 1338  -0.947  10.626   3.333 -1.3719 -1.8909 -1.8525
  768MOL0     H 1339  -1.166  10.646   3.272 -0.4467 -2.5584  0.1633
  768MOL0     H 1340  -1.681  10.603   3.421 -4.5442 -0.4354 -0.2767
  768MOL0     H 1341  -1.891  10.651   3.321  1.6130 -1.9090  2.1480
  768MOL0     H 1342  -2.066  10.840   3.184  0.5903  0.6231 -0.1342
  768MOL0     H 1343  -2.060  10.662   3.166  0.4510  0.0657  0.0090
  768MOL0     H 1344  -2.146  10.657   2.946 -4.4182  0.4148 -2.5999
  768MOL0     H 1345  -2.115  10.827   2.917  4.2985 -0.4447  2.1940
  768MOL0     H 1346  -2.350  10.789   2.942 -3.7256 -0.4653  2.9647
  768MOL0     H 1347  -2.293  10.885   3.077 -0.8440 -0.0796 -0.3493
  768MOL0     H 1348  -2.335  10.595   3.105 -1.4103 -0.6368 -1.9248
  768MOL0     H 1349  -2.314  10.721   3.233  1.5076  1.1479 -1.1141
  768MOL0     H 1350  -2.542  10.622   3.193 -0.9370  0.9526  2.0372
  768MOL0     H 1351  -2.553  10.711   3.035  0.1786 -0.8375 -0.2275
  768MOL0     H 1352  -2.489  10.925   3.148  3.5984 -1.1872 -0.3309
  768MOL0     H 1353  -2.482  10.842   3.300 -0.0622 -0.9922 -0.7351
  768MOL0     H 1354  -2.713  10.813   3.321  1.2564 -0.0826 -0.2311
  768MOL0     H 1355  -2.672  10.976   3.275 -0.3085 -0.3934  0.7511
  768MOL0     H 1356  -2.781  10.769   3.080 -0.0884  0.2195 -1.8900
  768MOL0     H 1357  -2.735  10.937   3.035  0.1444 -1.0858 -0.5770
  768MOL0     H 1358  -1.686  10.819   2.986  0.9753  1.4866  0.9136
  768MOL0     H 1359  -1.474  10.762   3.074  1.2572  1.0955  1.2842
  768MOL0     H 1360  -1.293  10.676   3.691 -0.7783 -1.7134  1.5248
  768MOL0     H 1361  -1.062  10.652   3.755 -1.9095  3.2988  0.4738
  768MOL0     H 1362   0.294   9.940   4.405 -2.4226  0.1866 -0.8701
  768MOL0     H 1363   0.501  10.000   4.466 -1.0179  0.8826  0.6791
  768MOL0     H 1364   0.930  10.499   4.355 -0.0190  0.4068  1.2119
  768MOL0     H 1365   1.144  10.511   4.495  0.1984 -0.7771 -0.7791
  768MOL0     H 1366   1.252  10.511   4.714 -1.0210 -0.0724 -1.0630
  768MOL0     H 1367   1.333  10.451   4.565  0.9776 -0.3045  0.6365
  768MOL0     H 1368   1.466  10.315   4.678  2.6493 -0.3896  0.5264
  768MOL0     H 1369   1.488  10.490   4.749 -0.2278  0.0265 -1.3058
  768MOL0     H 1370   1.388  10.236   4.856 -1.7520  0.3384 -1.7572
  768MOL0     H 1371   1.312  10.387   4.920 -1.3096 -3.2066  0.1768
  768MOL0     H 1372   1.605  10.319   4.901  0.5625 -0.0215  0.6016
  768MOL0     H 1373   1.542  10.466   4.982 -0.1410 -0.1979 -1.4936
  768MOL0     H 1374   1.534  10.190   5.296 -0.2702 -2.1794 -0.7876
  768MOL0     H 1375   1.032  10.128   4.666  0.9710  0.7564  0.8618
  768MOL0     H 1376   0.830  10.127   4.544  1.1273  0.3622  1.1333
  769MOL0     O 1377   7.890   6.565   7.692 -0.4322 -0.0581 -0.0526
  769MOL0     C 1378   7.937   6.674   7.720  0.1557 -0.3426  0.2871
  769MOL0     O 1379   7.864   6.781   7.764 -1.4958  0.2146 -0.3513
  769MOL0     C 1380   7.736   6.765   7.810  0.5018 -0.0370 -0.2586
  769MOL0     C 1381   7.704   6.666   7.908  0.2383  0.0299 -0.1810
  769MOL0     C 1382   7.576   6.669   7.965 -0.5740  0.1983 -0.4964
  769MOL0     C 1383   7.481   6.767   7.945  0.2112 -0.6183  0.1266
  769MOL0     O 1384   7.355   6.768   8.007 -0.3613  0.7272  0.4742
  769MOL0     C 1385   7.242   6.828   7.951  0.3450 -0.4447  0.5267
  769MOL0     C 1386   7.109   6.813   8.032 -0.1121  0.5208 -0.4764
  769MOL0     C 1387   7.006   6.897   7.953  0.4259 -0.0607  0.7750
  769MOL0     C 1388   6.873   6.877   8.018  0.3834 -0.6032  0.3270
  769MOL0     C 1389   6.768   6.959   7.935 -0.2384  0.7690  0.0669
  769MOL0     C 1390   6.625   6.947   8.002 -0.3038  0.4685 -0.3362
  769MOL0     C 1391   6.520   7.013   7.924  0.2386 -0.9551  0.0073
  769MOL0     C 1392   6.461   6.910   7.820  0.4403  0.1275  0.1185
  769MOL0     N 1393   6.318   6.920   7.824  0.2794 -0.0513 -0.3905
  769MOL0     C 1394   6.242   7.001   7.736  0.1216  0.6657 -0.6484
  769MOL0     C 1395   6.113   6.974   7.777  0.2961 -0.0496 -0.6745
  769MOL0     C 1396   5.992   7.047   7.721  0.0511 -0.2232 -0.1157
  769MOL0     C 1397   6.012   7.204   7.733 -0.1976  0.2466  0.0639
  769MOL0     C 1398   5.997   7.243   7.876  0.3851 -0.3768  0.4544
  769MOL0     C 1399   5.865   7.307   7.896  0.0926 -0.7628 -0.6756
  769MOL0     O 1400   5.749   7.234   7.849  0.1933 -0.1673 -0.4828
  769MOL0     C 1401   5.626   7.251   7.900  0.4603 -0.2531 -0.1884
  769MOL0     C 1402   5.521   7.165   7.889  0.5476 -0.5191 -0.4142
  769MOL0     C 1403   5.395   7.188   7.945 -0.6602  0.2996 -0.0047
  769MOL0     C 1404   5.371   7.290   8.026  0.7474 -1.4661 -0.8819
  769MOL0     C 1405   5.243   7.311   8.101 -0.0931 -0.0114  0.2406
  769MOL0     O 1406   5.257   7.394   8.205  0.3680  0.0184 -0.3216
  769MOL0     C 1407   5.139   7.422   8.268 -0.0257  0.0323  0.2102
  769MOL0     C 1408   5.071   7.544   8.236  0.3265 -0.4116 -0.2746
  769MOL0     C 1409   4.950   7.581   8.301 -0.0339  0.3658 -0.5188
  769MOL0     C 1410   4.905   7.505   8.415 -0.0788  0.1631  0.3929
  769MOL0     O 1411   4.796   7.528   8.496 -0.3197  0.3166  0.1942
  769MOL0     C 1412   4.710   7.628   8.461  0.9678 -0.0019 -0.0980
  769MOL0     C 1413   4.564   7.601   8.507  0.6909 -0.4113 -0.9536
  769MOL0     C 1414   4.498   7.500   8.416 -0.2672 -0.1527 -0.4120
  769MOL0     C 1415   4.350   7.487   8.466 -0.0372 -0.3162  0.2187
  769MOL0     C 1416   4.262   7.377   8.393  0.0567 -1.1902  0.1895
  769MOL0     C 1417   4.123   7.366   8.454  0.3233  0.0292  0.0668
  769MOL0     C 1418   4.047   7.266   8.373  0.2274  0.1517  1.0062
  769MOL0     C 1419   3.904   7.246   8.424 -0.6367 -0.0186  0.4980
  769MOL0    Cl 1420   3.822   7.395   8.490  0.0924 -0.3678  0.1528
  769MOL0     C 1421   4.981   7.397   8.451 -0.0811  0.8934 -0.0132
  769MOL0     C 1422   5.090   7.349   8.377 -0.7926 -0.3515  0.3907
  769MOL0     O 1423   5.139   7.260   8.061 -0.0827  0.4260 -0.2656
  769MOL0     C 1424   5.472   7.395   8.025  0.1335  0.0979 -0.4772
  769MOL0     C 1425   5.599   7.372   7.966  0.3036 -0.4184 -0.3918
  769MOL0     N 1426   6.114   6.873   7.872  0.0448 -0.2507 -0.1446
  769MOL0     N 1427   6.237   6.843   7.901 -0.0384  0.3568 -0.7810
  769MOL0     C 1428   7.519   6.863   7.854  0.2347  0.2315 -0.2993
  769MOL0     C 1429   7.643   6.863   7.783  0.3831  0.5365 -0.0556
  769MOL0     C 1430   8.067   6.703   7.673 -0.8883  0.1241 -0.3204
  769MOL0     C 1431   8.143   6.607   7.607 -0.1052  0.1341 -0.5749
  769MOL0     C 1432   8.271   6.627   7.566  0.0020 -0.2803  0.7199
  769MOL0     C 1433   8.325   6.751   7.580 -1.0657 -0.1208  0.4469
  769MOL0     O 1434   8.452   6.759   7.524 -0.3411  0.6513  0.0624
  769MOL0     C 1435   8.526   6.885   7.519 -0.3078  0.0275  0.1596
  769MOL0     C 1436   8.610   6.869   7.386  0.0679 -0.2952  0.0501
  769MOL0     C 1437   8.745   6.816   7.425 -0.1806  0.0651 -0.6309
  769MOL0     C 1438   8.821   6.782   7.282  0.5260  0.3252 -0.1248
  769MOL0     C 1439   8.942   6.692   7.289 -0.1559 -0.6061  0.7083
  769MOL0     C 1440   9.033   6.610   7.292 -0.1554  0.2480  0.8185
  769MOL0     C 1441   8.259   6.857   7.639 -0.6882  0.2200 -0.6914
  769MOL0     C 1442   8.134   6.825   7.694 -0.4306 -0.1466 -0.1995
  769MOL0     H 1443   7.772   6.588   7.942  0.3822  0.7341  1.2302
  769MOL0     H 1444   7.563   6.593   8.042  2.3741  0.4309  0.3444
  769MOL0     H 1445   7.230   6.777   7.856  1.8271 -1.3221  0.7765
  769MOL0     H 1446   7.262   6.935   7.941 -1.1868 -0.1149  0.6373
  769MOL0     H 1447   7.130   6.861   8.128  0.4448 -1.6562  0.5727
  769MOL0     H 1448   7.076   6.712   8.060 -1.5737  1.4946  1.5255
  769MOL0     H 1449   6.996   6.864   7.849 -4.8663  0.2938  0.8658
  769MOL0     H 1450   7.031   7.003   7.942  0.5677 -0.3003 -2.1869
  769MOL0     H 1451   6.830   6.777   8.016 -1.1529 -0.0262  2.0297
  769MOL0     H 1452   6.876   6.920   8.119  2.7972  2.2542 -0.7997
  769MOL0     H 1453   6.759   6.913   7.836  0.3815 -1.8278  1.1409
  769MOL0     H 1454   6.794   7.065   7.926  0.2222  0.7127  0.6331
  769MOL0     H 1455   6.628   7.004   8.096  0.1198  0.1727 -0.1676
  769MOL0     H 1456   6.593   6.847   8.032 -1.8408  0.5327 -1.6652
  769MOL0     H 1457   6.446   7.059   7.990 -0.0261  5.5332 -3.8941
  769MOL0     H 1458   6.570   7.098   7.876  2.6493 -1.2796  1.7908
  769MOL0     H 1459   6.491   6.808   7.844  1.5333 -0.0414 -1.7591
  769MOL0     H 1460   6.495   6.927   7.718  1.3167 -2.3703 -0.0762
  769MOL0     H 1461   6.265   7.064   7.651  2.9565  1.0466  0.2969
  769MOL0     H 1462   5.895   7.011   7.758  0.1089 -1.3153 -0.9839
  769MOL0     H 1463   5.987   7.026   7.614 -0.3820 -0.3330 -0.0770
  769MOL0     H 1464   5.940   7.257   7.670 -0.4370  1.0664  1.0167
  769MOL0     H 1465   6.110   7.238   7.699  0.6205 -0.6313  1.4448
  769MOL0     H 1466   6.010   7.165   7.951  1.0195  1.1616  2.0320
  769MOL0     H 1467   6.075   7.320   7.883 -1.1575  1.2234  0.9219
  769MOL0     H 1468   5.859   7.405   7.849 -1.4409 -1.4686 -2.0238
  769MOL0     H 1469   5.866   7.337   8.001  1.9528 -2.1181 -0.2528
  769MOL0     H 1470   5.519   7.082   7.819  0.4642  0.3030 -1.4177
  769MOL0     H 1471   5.323   7.115   7.908 -2.0769  2.5640 -2.0394
  769MOL0     H 1472   5.114   7.608   8.159  1.4343 -0.1961  0.4906
  769MOL0     H 1473   4.901   7.669   8.260 -1.0007  0.6061  1.0564
  769MOL0     H 1474   4.715   7.645   8.353  1.2322 -1.0661 -0.2647
  769MOL0     H 1475   4.745   7.726   8.495 -0.6129  0.3303  0.6750
  769MOL0     H 1476   4.513   7.697   8.494  4.1682  1.4162 -2.3843
  769MOL0     H 1477   4.559   7.562   8.610  0.2917  0.5399 -0.6023
  769MOL0     H 1478   4.550   7.404   8.410 -0.5030 -0.2495 -1.0430
  769MOL0     H 1479   4.486   7.538   8.314  1.4014  2.3435  0.2457
  769MOL0     H 1480   4.354   7.471   8.574  0.1560  0.7442  0.3812
  769MOL0     H 1481   4.303   7.585   8.456 -0.7687 -0.5641  1.1219
  769MOL0     H 1482   4.321   7.285   8.393 -0.6980 -1.6803 -0.1619
  769MOL0     H 1483   4.246   7.418   8.293 -0.6302  1.8704  1.4418
  769MOL0     H 1484   4.076   7.464   8.436  1.6393  0.7096  0.2300
  769MOL0     H 1485   4.113   7.329   8.556  0.0588 -3.5884 -1.1200
  769MOL0     H 1486   4.031   7.294   8.268 -2.0993 -3.0793  0.3348
  769MOL0     H 1487   4.096   7.169   8.363 -2.8387 -1.3882 -0.4960
  769MOL0     H 1488   3.906   7.177   8.509  2.9852  2.2061  2.4802
  769MOL0     H 1489   3.851   7.195   8.343  0.3388 -2.0945  1.1171
  769MOL0     H 1490   4.951   7.339   8.538  0.5418 -0.0975 -0.4420
  769MOL0     H 1491   5.136   7.257   8.411 -1.1249 -0.8862 -0.5991
  769MOL0     H 1492   5.445   7.488   8.075  0.8772 -1.0593  2.2687
  769MOL0     H 1493   5.679   7.444   7.975  1.4429 -1.5398 -1.2348
  769MOL0     H 1494   7.451   6.946   7.835  1.1298  0.3688 -3.3710
  769MOL0     H 1495   7.666   6.945   7.716 -0.8348  1.0652  0.1425
  769MOL0     H 1496   8.102   6.507   7.595  0.6820 -0.1109 -1.4252
  769MOL0     H 1497   8.332   6.555   7.513 -1.6025 -0.8700 -0.4110
  769MOL0     H 1498   8.598   6.909   7.598  0.9787  0.7279 -1.1620
  769MOL0     H 1499   8.457   6.969   7.509 -1.2762 -0.7507  0.1886
  769MOL0     H 1500   8.560   6.815   7.305  2.4982 -2.5037 -0.0879
  769MOL0     H 1501   8.633   6.966   7.341  1.5071 -0.4067  0.4907
  769MOL0     H 1502   8.730   6.718   7.470 -2.2570  0.7449  0.2535
  769MOL0     H 1503   8.802   6.884   7.489 -0.1403 -0.2390 -0.3391
  769MOL0     H 1504   8.745   6.732   7.222  0.3854 -0.4766  0.6911
  769MOL0     H 1505   8.854   6.871   7.228  3.8616 -1.1483 -0.7263
  769MOL0     H 1506   9.096   6.524   7.283 -0.1640  0.3590 -0.4428
  769MOL0     H 1507   8.316   6.948   7.648  2.9538 -2.0539  3.1625
  769MOL0     H 1508   8.084   6.903   7.750  0.0825 -0.0874  0.1898
  770MOL0     O 1509   5.212   1.349   3.287 -1.0245 -0.1119 -0.3200
  770MOL0     C 1510   5.302   1.439   3.305  0.6973 -0.4695 -0.4664
  770MOL0     O 1511   5.289   1.569   3.268  0.0737 -0.1453  0.2174
  770MOL0     C 1512   5.169   1.625   3.220 -0.0238 -0.8750  0.0341
  770MOL0     C 1513   5.044   1.584   3.260  0.3262  0.5170 -0.0026
  770MOL0     C 1514   4.923   1.646   3.227  0.1789 -0.2198 -0.2588
  770MOL0     C 1515   4.928   1.747   3.130  0.3653  0.1390 -0.0673
  770MOL0     O 1516   4.811   1.818   3.120  0.5144  0.1535  0.2436
  770MOL0     C 1517   4.793   1.899   3.010  0.3646 -0.1362  0.2393
  770MOL0     C 1518   4.654   1.950   2.993  0.3059  0.5015 -0.2076
  770MOL0     C 1519   4.645   2.078   2.908  0.4807  0.0856 -0.0889
  770MOL0     C 1520   4.497   2.116   2.876  0.3743 -0.7209  0.2566
  770MOL0     C 1521   4.488   2.253   2.812 -0.4412 -0.6822 -0.1144
  770MOL0     C 1522   4.346   2.286   2.757  0.5841  0.0296 -0.1758
  770MOL0     C 1523   4.241   2.289   2.875  0.1690  0.6107  0.7730
  770MOL0     C 1524   4.102   2.332   2.828 -0.2572 -0.4758 -0.5767
  770MOL0     N 1525   4.124   2.477   2.792 -0.2078 -0.2755 -0.9139
  770MOL0     C 1526   4.139   2.528   2.664  0.0713  0.5751  0.1197
  770MOL0     C 1527   4.151   2.657   2.689  0.2128  0.1315 -0.6918
  770MOL0     C 1528   4.165   2.763   2.584  0.4114 -0.6673  0.6683
  770MOL0     C 1529   4.042   2.773   2.488  0.2687 -0.2441 -0.3790
  770MOL0     C 1530   3.913   2.816   2.550 -0.2016  0.3594  0.8459
  770MOL0     C 1531   3.830   2.878   2.429 -0.1184 -0.4324 -0.2496
  770MOL0     O 1532   3.730   2.961   2.480  0.1719  0.4834 -0.8014
  770MOL0     C 1533   3.612   2.927   2.542  0.8536 -0.1925  0.0044
  770MOL0     C 1534   3.538   3.019   2.620 -0.9073 -0.9158 -0.1129
  770MOL0     C 1535   3.419   2.980   2.678  0.5089  0.4334  0.3369
  770MOL0     C 1536   3.383   2.839   2.688 -0.2175 -0.3079 -0.3929
  770MOL0     C 1537   3.262   2.787   2.759 -0.6233  0.2449  0.1373
  770MOL0     O 1538   3.240   2.654   2.773  0.0505 -0.1925 -0.7516
  770MOL0     C 1539   3.129   2.621   2.846 -0.0799  0.3302 -0.4128
  770MOL0     C 1540   3.147   2.606   2.982 -0.1977 -0.5530 -0.3396
  770MOL0     C 1541   3.028   2.585   3.054 -0.0132 -0.1759  0.3210
  770MOL0     C 1542   2.905   2.562   2.997 -0.2712 -0.4812 -0.2275
  770MOL0     O 1543   2.796   2.539   3.085 -0.0070 -0.1567  0.1935
  770MOL0     C 1544   2.671   2.511   3.024  0.5189  0.1302 -0.4465
  770MOL0     C 1545   2.579   2.495   3.147 -0.5254  0.3681 -0.1194
  770MOL0     C 1546   2.443   2.460   3.094 -0.0582  0.2618  0.2407
  770MOL0     C 1547   2.349   2.476   3.211 -1.0590  0.7555 -0.8149
  770MOL0     C 1548   2.221   2.398   3.178  0.1079  0.7578 -0.5794
  770MOL0     C 1549   2.135   2.380   3.308 -0.4654  0.2831  0.1262
  770MOL0     C 1550   2.007   2.309   3.290 -0.4333 -0.1105 -1.6658
  770MOL0     C 1551   1.918   2.291   3.424 -0.4348 -0.8103 -0.2117
  770MOL0    Cl 1552   1.839   2.438   3.490  0.0571 -0.0908  0.2593
  770MOL0     C 1553   2.892   2.588   2.860  0.3923  0.0531 -0.5186
  770MOL0     C 1554   3.001   2.603   2.786 -0.2726 -0.1739  0.3528
  770MOL0     O 1555   3.184   2.874   2.792  0.1774  0.0538  0.5332
  770MOL0     C 1556   3.466   2.746   2.629 -0.3136  0.3398  0.2394
  770MOL0     C 1557   3.577   2.790   2.554 -0.1546  0.1800  0.3030
  770MOL0     N 1558   4.138   2.678   2.826  0.3884  0.5174  1.2596
  770MOL0     N 1559   4.121   2.573   2.891  0.2549 -0.1576 -0.2510
  770MOL0     C 1560   5.052   1.795   3.086 -0.1517 -0.6592  0.1292
  770MOL0     C 1561   5.167   1.732   3.131  0.6621 -0.4047 -0.2910
  770MOL0     C 1562   5.432   1.392   3.354 -0.3007  0.8913 -0.4730
  770MOL0     C 1563   5.454   1.254   3.392 -0.7179  0.1617 -0.2860
  770MOL0     C 1564   5.577   1.215   3.451  0.6724  0.1661 -0.3419
  770MOL0     C 1565   5.684   1.295   3.453  0.6188 -0.6267  0.1623
  770MOL0     O 1566   5.809   1.274   3.500  0.7572  0.5512  0.0877
  770MOL0     C 1567   5.853   1.145   3.519 -0.3533  0.6510 -0.3610
  770MOL0     C 1568   6.006   1.143   3.566 -0.5081 -0.6331  0.3917
  770MOL0     C 1569   6.112   1.198   3.458 -0.1103  0.6914 -1.1247
  770MOL0     C 1570   6.254   1.167   3.513 -0.1731  0.1863  0.8586
  770MOL0     C 1571   6.363   1.172   3.411  0.6062 -0.5415  0.4769
  770MOL0     C 1572   6.459   1.192   3.332  0.0327  0.5528 -1.0014
  770MOL0     C 1573   5.666   1.427   3.414 -0.7795 -0.4128 -0.3375
  770MOL0     C 1574   5.543   1.471   3.367 -0.1368  0.0930  0.2678
  770MOL0     H 1575   5.038   1.503   3.333  1.3815 -1.2586 -1.7798
  770MOL0     H 1576   4.826   1.606   3.255 -0.8238 -0.6191 -3.7821
  770MOL0     H 1577   4.831   1.847   2.921  0.4446 -1.3379  0.9497
  770MOL0     H 1578   4.858   1.986   3.022  2.6973 -1.5379 -1.3868
  770MOL0     H 1579   4.616   1.979   3.091  3.0093  0.3473  0.9578
  770MOL0     H 1580   4.594   1.872   2.944 -0.3053  0.2149  0.9687
  770MOL0     H 1581   4.704   2.075   2.815 -0.0269  2.6613 -0.5736
  770MOL0     H 1582   4.693   2.159   2.963 -1.8886 -0.0524  2.3905
  770MOL0     H 1583   4.460   2.039   2.807 -1.6553  1.0350 -0.7227
  770MOL0     H 1584   4.433   2.114   2.965 -0.8866  2.6031 -0.4064
  770MOL0     H 1585   4.553   2.255   2.724  2.7469 -4.2556  1.8870
  770MOL0     H 1586   4.507   2.330   2.887 -4.1254  0.9270 -0.5765
  770MOL0     H 1587   4.308   2.219   2.680  1.8366  0.6111 -1.3329
  770MOL0     H 1588   4.343   2.386   2.713 -1.4846  1.3145  2.5424
  770MOL0     H 1589   4.231   2.191   2.922 -2.6776 -0.2404 -1.3745
  770MOL0     H 1590   4.278   2.356   2.953  0.6793  2.6928 -1.1618
  770MOL0     H 1591   4.033   2.325   2.912  0.3762  0.2974  0.0257
  770MOL0     H 1592   4.075   2.263   2.747  1.1180 -1.8118  0.0559
  770MOL0     H 1593   4.129   2.474   2.570 -0.5043  2.6291 -1.0695
  770MOL0     H 1594   4.257   2.759   2.525 -0.7969  0.5902 -1.3910
  770MOL0     H 1595   4.173   2.855   2.643  1.3134 -0.2244 -0.1115
  770MOL0     H 1596   4.033   2.672   2.445 -2.0293 -0.4547  0.4625
  770MOL0     H 1597   4.065   2.836   2.401  0.8061 -0.2640 -0.2513
  770MOL0     H 1598   3.866   2.724   2.587 -1.3423 -0.5675 -2.5288
  770MOL0     H 1599   3.925   2.886   2.632  0.4267  1.0065  0.2138
  770MOL0     H 1600   3.789   2.800   2.364 -0.1890 -0.3437 -0.3123
  770MOL0     H 1601   3.893   2.941   2.367 -1.8441  1.3882 -0.2697
  770MOL0     H 1602   3.567   3.123   2.607  0.4622 -1.5361 -2.8206
  770MOL0     H 1603   3.348   3.048   2.724 -2.7024 -1.5725 -1.2877
  770MOL0     H 1604   3.245   2.632   3.020 -1.0614  2.3993  0.1278
  770MOL0     H 1605   3.048   2.570   3.160  1.8426  0.7398  0.1451
  770MOL0     H 1606   2.669   2.421   2.961  3.2764 -1.0905  1.0183
  770MOL0     H 1607   2.636   2.599   2.969 -1.3174  0.0014  0.4577
  770MOL0     H 1608   2.583   2.591   3.199 -0.0077  0.2499  0.0691
  770MOL0     H 1609   2.605   2.406   3.205 -0.1013  0.5142 -0.0799
  770MOL0     H 1610   2.432   2.359   3.056 -0.4315  0.5105 -0.3219
  770MOL0     H 1611   2.423   2.534   3.016  0.7848 -1.0184 -1.2420
  770MOL0     H 1612   2.400   2.429   3.296  0.4932  1.8923 -1.0676
  770MOL0     H 1613   2.324   2.581   3.232 -3.0440  0.6845 -2.5346
  770MOL0     H 1614   2.237   2.308   3.118 -3.0722  0.8991 -1.8646
  770MOL0     H 1615   2.161   2.454   3.105 -0.0102  0.3084 -0.8298
  770MOL0     H 1616   2.116   2.478   3.352  2.6838  0.3034  1.7101
  770MOL0     H 1617   2.206   2.319   3.365 -0.6760 -0.8843 -0.8047
  770MOL0     H 1618   1.943   2.352   3.212 -2.7402 -0.2753  0.0337
  770MOL0     H 1619   2.030   2.207   3.257  1.2786 -0.6455  0.8763
  770MOL0     H 1620   1.977   2.248   3.506 -0.0011 -0.6738 -0.4529
  770MOL0     H 1621   1.840   2.218   3.400 -1.1848 -0.9110  2.2519
  770MOL0     H 1622   2.804   2.600   2.797  1.4547  1.5353 -1.8066
  770MOL0     H 1623   2.982   2.612   2.680 -4.5146  0.5037  0.9883
  770MOL0     H 1624   3.444   2.641   2.648 -0.9419  0.0958 -1.6189
  770MOL0     H 1625   3.634   2.708   2.510 -1.6730 -0.7528  0.0091
  770MOL0     H 1626   5.046   1.883   3.022 -3.4251 -0.2855  0.7823
  770MOL0     H 1627   5.261   1.780   3.107  0.1314  2.2193  2.3027
  770MOL0     H 1628   5.370   1.187   3.404 -1.6250  0.7358 -2.7696
  770MOL0     H 1629   5.578   1.116   3.495 -0.7628  0.6877  0.9518
  770MOL0     H 1630   5.836   1.087   3.428  1.1540 -0.0324 -0.2343
  770MOL0     H 1631   5.791   1.092   3.592  0.1155  0.0423 -0.4044
  770MOL0     H 1632   6.016   1.202   3.657 -0.6108  0.3290 -0.2146
  770MOL0     H 1633   6.039   1.039   3.574 -1.0398 -0.7840  0.7090
  770MOL0     H 1634   6.096   1.305   3.442 -0.0514  0.9788  0.5925
  770MOL0     H 1635   6.091   1.151   3.361  1.0229 -1.9469 -0.1911
  770MOL0     H 1636   6.275   1.240   3.592  0.7079 -1.1254  1.8798
  770MOL0     H 1637   6.255   1.063   3.548 -1.8851 -0.0464  0.3393
  770MOL0     H 1638   6.549   1.198   3.274  1.0264 -0.8961  0.3066
  770MOL0     H 1639   5.751   1.494   3.408  0.2698 -1.3674  2.2206
  770MOL0     H 1640   5.542   1.575   3.335 -1.5585 -0.6060 -2.1841
  771MOL0     O 1641   9.239   8.049  10.458  0.5343  0.0488 -0.5269
  771MOL0     C 1642   9.273   8.128  10.373  0.4875  0.1125 -0.2817
  771MOL0     O 1643   9.196   8.230  10.342 -0.3708  0.1179  0.3084
  771MOL0     C 1644   9.073   8.245  10.383  0.0079  0.5496  0.4554
  771MOL0     C 1645   8.973   8.140  10.357 -0.7809 -0.8001 -0.3340
  771MOL0     C 1646   8.841   8.164  10.380 -0.2337  0.0893 -0.4366
  771MOL0     C 1647   8.802   8.292  10.428  0.6062 -0.1256  0.0406
  771MOL0     O 1648   8.669   8.303  10.457 -0.2004  0.3127 -0.0109
  771MOL0     C 1649   8.632   8.377  10.573  0.5682  0.4610 -0.7338
  771MOL0     C 1650   8.481   8.372  10.609 -0.6892  0.4179  0.0450
  771MOL0     C 1651   8.428   8.227  10.646  0.2312 -0.8708  0.0570
  771MOL0     C 1652   8.276   8.237  10.656 -0.8670  0.5455  0.1819
  771MOL0     C 1653   8.235   8.103  10.717 -0.5355 -0.2401  0.6608
  771MOL0     C 1654   8.081   8.087  10.703  0.9409  0.2044  0.2151
  771MOL0     C 1655   8.014   8.179  10.810  0.1882 -0.2149 -0.1230
  771MOL0     C 1656   7.884   8.131  10.854 -0.0366 -0.3052 -0.1718
  771MOL0     N 1657   7.773   8.153  10.764 -0.1064  1.3298  1.0876
  771MOL0     C 1658   7.640   8.122  10.794  0.8854  0.3259 -0.0173
  771MOL0     C 1659   7.572   8.134  10.682 -0.3636 -0.6758  0.3723
  771MOL0     C 1660   7.420   8.092  10.657 -0.3681 -0.6688 -0.2171
  771MOL0     C 1661   7.326   8.204  10.704  0.5994  0.4496  0.9411
  771MOL0     C 1662   7.274   8.182  10.841 -0.0927 -0.1017  0.1280
  771MOL0     C 1663   7.163   8.289  10.865 -0.6022  0.1291 -0.3457
  771MOL0     O 1664   7.038   8.236  10.822 -0.0994 -0.1660  0.3184
  771MOL0     C 1665   6.965   8.158  10.905  0.1340  0.4672 -0.4283
  771MOL0     C 1666   6.832   8.144  10.860  0.1127 -1.2097 -0.3383
  771MOL0     C 1667   6.736   8.076  10.932 -0.3270  0.6320  0.1742
  771MOL0     C 1668   6.768   8.004  11.046  0.2735  0.3830  0.5915
  771MOL0     C 1669   6.664   7.923  11.119  0.0263 -0.4729 -0.0384
  771MOL0     O 1670   6.535   7.947  11.066 -0.3314  0.1680 -0.2024
  771MOL0     C 1671   6.422   7.917  11.138 -0.0190 -0.6566  0.0914
  771MOL0     C 1672   6.411   7.948  11.273 -0.0251  0.4409 -0.6149
  771MOL0     C 1673   6.316   7.899  11.351  0.4920  0.1607 -1.0230
  771MOL0     C 1674   6.202   7.842  11.289 -0.0286  0.3696 -0.8674
  771MOL0     O 1675   6.092   7.788  11.344 -0.3126 -0.2420 -0.1216
  771MOL0     C 1676   6.077   7.826  11.480  0.4845 -0.6310  0.0532
  771MOL0     C 1677   5.931   7.783  11.515  0.1134 -0.8095 -0.1592
  771MOL0     C 1678   5.909   7.634  11.504 -0.1508  1.1924  0.9156
  771MOL0     C 1679   5.792   7.591  11.600  0.0825 -1.3407 -0.0574
  771MOL0     C 1680   5.655   7.651  11.543 -0.1695 -0.5100  1.6369
  771MOL0     C 1681   5.539   7.606  11.638 -0.7050 -0.3840  0.1624
  771MOL0     C 1682   5.412   7.652  11.573  0.0365 -0.7632  0.3547
  771MOL0     C 1683   5.294   7.582  11.647  0.2074  1.1499  0.5848
  771MOL0    Cl 1684   5.140   7.632  11.558  0.5142  0.3495  0.0099
  771MOL0     C 1685   6.198   7.832  11.146 -0.1653  0.0549  0.3743
  771MOL0     C 1686   6.315   7.869  11.073 -0.6700 -0.2248  0.7390
  771MOL0     O 1687   6.687   7.858  11.223 -0.2028 -0.3222 -0.6137
  771MOL0     C 1688   6.899   8.015  11.094  0.1015 -0.1818 -0.2920
  771MOL0     C 1689   6.999   8.084  11.021  0.4322  0.7332 -0.2542
  771MOL0     N 1690   7.660   8.166  10.575 -0.2719  0.2687 -1.1526
  771MOL0     N 1691   7.778   8.189  10.630 -0.5050 -0.3653 -0.2418
  771MOL0     C 1692   8.896   8.398  10.451 -0.2189  0.5198  0.0672
  771MOL0     C 1693   9.035   8.377  10.426 -0.0973  0.5081 -0.0318
  771MOL0     C 1694   9.405   8.120  10.300  0.0306  0.1420  0.3828
  771MOL0     C 1695   9.482   8.003  10.320  0.0125 -0.0806  0.1105
  771MOL0     C 1696   9.611   7.990  10.262  0.6240 -0.0361 -0.7953
  771MOL0     C 1697   9.653   8.091  10.169  0.1325  0.7821  1.1007
  771MOL0     O 1698   9.781   8.085  10.103 -0.1755  0.4123  0.2554
  771MOL0     C 1699   9.890   8.087  10.198  0.7686  1.0543  0.3120
  771MOL0     C 1700  10.018   8.056  10.123  0.1931 -0.4581 -0.4056
  771MOL0     C 1701  10.136   8.055  10.214  0.0847 -0.3174 -0.2873
  771MOL0     C 1702  10.235   7.962  10.159  0.0506 -0.7342  0.1621
  771MOL0     C 1703  10.350   7.957  10.249  0.1327  0.2319 -0.0491
  771MOL0     C 1704  10.449   7.953  10.320 -0.4198  0.3456  1.1957
  771MOL0     C 1705   9.572   8.201  10.149  0.4669  0.3509  0.0558
  771MOL0     C 1706   9.454   8.223  10.212  0.3049  0.7298 -0.0325
  771MOL0     H 1707   8.999   8.055  10.295  0.3941  0.5897 -1.8342
  771MOL0     H 1708   8.767   8.089  10.354  0.1553 -0.5302  0.2044
  771MOL0     H 1709   8.648   8.483  10.551  0.7833  0.0727 -2.5940
  771MOL0     H 1710   8.682   8.355  10.668 -2.1958 -0.4004  0.6310
  771MOL0     H 1711   8.424   8.411  10.524  0.3493  3.0185  0.4428
  771MOL0     H 1712   8.465   8.437  10.695  2.0271 -0.0230  0.9778
  771MOL0     H 1713   8.471   8.186  10.737  0.2327  0.4663  0.6879
  771MOL0     H 1714   8.457   8.150  10.574  1.7199 -1.2176  1.0031
  771MOL0     H 1715   8.260   8.328  10.715 -2.2287  0.0121  0.6665
  771MOL0     H 1716   8.246   8.247  10.551 -0.7967  3.5098  0.3614
  771MOL0     H 1717   8.275   8.084  10.817  1.8226 -2.3500 -0.5627
  771MOL0     H 1718   8.275   8.015  10.664 -0.7941 -1.2969  2.1653
  771MOL0     H 1719   8.045   7.987  10.727 -0.3182  0.8352  1.0822
  771MOL0     H 1720   8.040   8.121  10.607 -3.4300 -0.8856  1.4687
  771MOL0     H 1721   8.072   8.173  10.903  0.4642 -2.8926 -0.3944
  771MOL0     H 1722   8.013   8.282  10.774  0.5591 -0.1728 -0.0228
  771MOL0     H 1723   7.872   8.192  10.944  0.2030  0.5701 -0.7253
  771MOL0     H 1724   7.892   8.030  10.896  1.6629 -0.8213 -1.6447
  771MOL0     H 1725   7.595   8.088  10.887  2.5016  1.7436  1.3287
  771MOL0     H 1726   7.404   7.996  10.707  1.5154 -0.9888 -0.1442
  771MOL0     H 1727   7.392   8.077  10.552 -1.5736 -0.7808  0.1159
  771MOL0     H 1728   7.248   8.218  10.629 -0.3790  1.1657  2.0503
  771MOL0     H 1729   7.380   8.298  10.698 -0.7324  1.2952  1.6907
  771MOL0     H 1730   7.241   8.081  10.863 -2.1290  0.3156 -0.7834
  771MOL0     H 1731   7.356   8.197  10.912  0.2444  0.1030 -0.2998
  771MOL0     H 1732   7.197   8.382  10.819  1.0920  0.0125  0.6184
  771MOL0     H 1733   7.150   8.307  10.972  3.7079 -3.1464  1.0436
  771MOL0     H 1734   6.801   8.200  10.772 -0.4704  0.0555  0.6441
  771MOL0     H 1735   6.647   8.059  10.872  1.7792 -0.8344 -2.8216
  771MOL0     H 1736   6.487   7.993  11.336  0.2956  2.4607 -2.3680
  771MOL0     H 1737   6.326   7.910  11.459 -2.7443 -0.1741 -0.5828
  771MOL0     H 1738   6.084   7.935  11.493 -2.4853 -0.2833 -0.6416
  771MOL0     H 1739   6.134   7.767  11.553 -0.7151 -0.7160  0.9527
  771MOL0     H 1740   5.868   7.841  11.447 -0.7039  2.0238  2.7503
  771MOL0     H 1741   5.909   7.813  11.618  0.9451 -1.5080  0.2300
  771MOL0     H 1742   5.995   7.576  11.538 -0.7688  0.3289  1.0363
  771MOL0     H 1743   5.895   7.602  11.401 -0.5314  1.6330  0.8260
  771MOL0     H 1744   5.784   7.482  11.598 -1.4818 -1.2407 -1.1972
  771MOL0     H 1745   5.810   7.619  11.704 -1.1990 -4.2318  1.0478
  771MOL0     H 1746   5.637   7.614  11.442 -0.3535  2.4384  0.4795
  771MOL0     H 1747   5.662   7.760  11.535 -3.8304 -0.3022 -1.8553
  771MOL0     H 1748   5.550   7.652  11.737 -1.8205 -0.2982  0.2644
  771MOL0     H 1749   5.551   7.499  11.657  1.4825  0.0363  1.5141
  771MOL0     H 1750   5.397   7.760  11.581  0.2840 -0.8796  3.2392
  771MOL0     H 1751   5.412   7.624  11.467  2.4455 -1.3637  0.4570
  771MOL0     H 1752   5.299   7.612  11.752 -0.5306  1.4060  0.5542
  771MOL0     H 1753   5.311   7.475  11.630  0.3868  1.4740 -1.5294
  771MOL0     H 1754   6.103   7.811  11.097 -0.0948  0.3444  0.1067
  771MOL0     H 1755   6.331   7.852  10.967  0.1772  0.8802  0.6759
  771MOL0     H 1756   6.911   7.970  11.192 -0.8749  0.9740  0.3948
  771MOL0     H 1757   7.097   8.086  11.069  0.9819 -3.7228 -0.7762
  771MOL0     H 1758   8.871   8.498  10.484  0.2247  1.3300 -1.8838
  771MOL0     H 1759   9.108   8.457  10.434  0.3743  0.2743 -1.6580
  771MOL0     H 1760   9.458   7.924  10.390 -0.0927 -0.4079 -0.2909
  771MOL0     H 1761   9.674   7.909  10.300 -0.0293 -0.2886 -0.2216
  771MOL0     H 1762   9.871   8.019  10.282  1.6101 -4.4667 -3.4471
  771MOL0     H 1763   9.888   8.185  10.245  1.0453  0.1274  2.3688
  771MOL0     H 1764  10.001   7.956  10.081 -1.0685  0.0187 -1.0630
  771MOL0     H 1765  10.037   8.128  10.042 -1.1630  0.5654  0.1676
  771MOL0     H 1766  10.117   8.024  10.317  0.0249 -0.9286 -0.4761
  771MOL0     H 1767  10.187   8.152  10.215  1.7766 -1.1661 -0.1504
  771MOL0     H 1768  10.180   7.868  10.162 -0.4690 -0.4496 -0.3143
  771MOL0     H 1769  10.267   7.979  10.056 -4.4116  1.4485 -1.0688
  771MOL0     H 1770  10.534   7.965  10.384 -0.0893  1.7736  0.5329
  771MOL0     H 1771   9.597   8.279  10.077  0.0139  0.9151  0.4956
  771MOL0     H 1772   9.399   8.315  10.196 -0.6209  0.1001 -0.6044
  772MOL0     O 1773   7.355   0.016   4.525 -0.2360 -0.0200 -0.3457
  772MOL0     C 1774   7.435   0.104   4.505  0.3583 -0.2332  0.2640
  772MOL0     O 1775   7.415   0.227   4.450 -0.1403 -0.0334  0.3207
  772MOL0     C 1776   7.296   0.285   4.445  0.8323  0.4269 -0.1900
  772MOL0     C 1777   7.179   0.228   4.393 -0.2885  0.4764 -1.0408
  772MOL0     C 1778   7.061   0.303   4.379  0.0021 -0.7868 -0.7824
  772MOL0     C 1779   7.053   0.434   4.424 -0.1217 -0.1058  0.3211
  772MOL0     O 1780   6.938   0.496   4.397  0.3747 -0.5152 -0.5680
  772MOL0     C 1781   6.889   0.603   4.475  0.4800 -0.1724 -0.0239
  772MOL0     C 1782   6.754   0.648   4.409  0.7950 -0.4139 -0.1135
  772MOL0     C 1783   6.645   0.539   4.430 -0.1351  0.2045  0.1987
  772MOL0     C 1784   6.510   0.599   4.383  0.3173 -0.6914  0.0553
  772MOL0     C 1785   6.495   0.626   4.228 -0.2606  0.3253  0.1507
  772MOL0     C 1786   6.350   0.630   4.167  0.2702 -0.0588 -0.1573
  772MOL0     C 1787   6.260   0.745   4.225  0.8669 -0.5995 -0.7100
  772MOL0     C 1788   6.123   0.732   4.152  0.5863  0.7629  0.1010
  772MOL0     N 1789   6.059   0.602   4.179 -0.2408  0.7883 -0.4361
  772MOL0     C 1790   5.985   0.539   4.079 -0.1242  1.1247  0.3868
  772MOL0     C 1791   5.923   0.435   4.134 -0.0778  0.4259  0.8173
  772MOL0     C 1792   5.848   0.335   4.055 -0.3628 -0.1551 -0.0999
  772MOL0     C 1793   5.718   0.412   4.014 -0.2267 -0.2704 -0.0672
  772MOL0     C 1794   5.617   0.332   3.943  1.0564  0.7868  1.7001
  772MOL0     C 1795   5.550   0.226   4.031 -0.3041 -0.4314 -0.4843
  772MOL0     O 1796   5.457   0.294   4.115 -0.1930 -0.4267  0.5384
  772MOL0     C 1797   5.331   0.323   4.074  0.3780  0.0071  1.0145
  772MOL0     C 1798   5.257   0.401   4.160  0.2678  0.4107  0.0656
  772MOL0     C 1799   5.128   0.441   4.120  0.8356 -0.1279 -0.0946
  772MOL0     C 1800   5.070   0.412   3.997 -0.3802 -0.1237 -1.0399
  772MOL0     C 1801   4.942   0.470   3.957  0.0848 -0.2249  0.9932
  772MOL0     O 1802   4.872   0.540   4.045 -0.3512 -0.1213  0.2769
  772MOL0     C 1803   4.738   0.566   4.029  0.0974 -0.0625  0.0155
  772MOL0     C 1804   4.692   0.685   4.090 -0.4832 -0.2267 -0.0727
  772MOL0     C 1805   4.556   0.708   4.108 -0.3852 -0.0592 -0.5707
  772MOL0     C 1806   4.465   0.608   4.068 -0.1773  0.1547  0.1808
  772MOL0     O 1807   4.333   0.645   4.067  0.4842  0.3150  0.0034
  772MOL0     C 1808   4.238   0.546   4.103  0.2298  1.2150  0.4881
  772MOL0     C 1809   4.102   0.613   4.114  0.2309 -0.1294  0.0296
  772MOL0     C 1810   4.074   0.685   4.248  0.7760 -0.1040  0.1322
  772MOL0     C 1811   3.928   0.720   4.273 -1.5031 -0.4067  1.1598
  772MOL0     C 1812   3.892   0.748   4.424  0.1268 -1.1509  0.0300
  772MOL0     C 1813   3.976   0.873   4.475  0.4527  0.1687  0.3810
  772MOL0     C 1814   3.927   0.915   4.618  0.6339  0.2162  0.3267
  772MOL0     C 1815   3.962   1.047   4.659 -0.8685 -0.4502 -0.9824
  772MOL0    Cl 1816   3.887   1.075   4.826 -0.1934  0.5699  0.1867
  772MOL0     C 1817   4.515   0.499   3.998  0.1377  0.3751  0.0228
  772MOL0     C 1818   4.649   0.479   3.985 -0.3957 -0.6786  0.1249
  772MOL0     O 1819   4.900   0.445   3.840  0.1193  0.1114  0.3250
  772MOL0     C 1820   5.139   0.318   3.922 -0.5370  0.2887  0.4536
  772MOL0     C 1821   5.271   0.275   3.956 -0.2003 -1.0774 -0.1721
  772MOL0     N 1822   5.957   0.433   4.268 -0.3391 -0.5338 -0.5277
  772MOL0     N 1823   6.026   0.542   4.293 -0.2504 -0.0858  0.0561
  772MOL0     C 1824   7.168   0.488   4.478  0.0955 -0.4790  0.1020
  772MOL0     C 1825   7.286   0.417   4.494 -0.1077  0.4386  0.3162
  772MOL0     C 1826   7.570   0.079   4.550  0.1564  0.2014 -0.6555
  772MOL0     C 1827   7.604  -0.054   4.580 -0.4582  0.4869 -0.1005
  772MOL0     C 1828   7.723  -0.084   4.639  0.5423  0.0572  0.3185
  772MOL0     C 1829   7.815   0.015   4.675  0.9954 -0.1127 -0.0482
  772MOL0     O 1830   7.933  -0.016   4.736 -0.1214  0.1095 -0.4400
  772MOL0     C 1831   8.010   0.083   4.812  0.1569 -0.0135  0.0779
  772MOL0     C 1832   8.103   0.030   4.925  0.2550 -0.0221  0.9751
  772MOL0     C 1833   8.194  -0.082   4.877  1.0922  0.0468  0.1756
  772MOL0     C 1834   8.314  -0.084   4.979 -0.0640  0.1621 -0.1108
  772MOL0     C 1835   8.385  -0.214   4.972  0.2397  0.0397  0.2285
  772MOL0     C 1836   8.446  -0.320   4.967 -0.0416  0.9876 -0.4139
  772MOL0     C 1837   7.779   0.146   4.637 -0.5280 -0.1796  0.0757
  772MOL0     C 1838   7.658   0.184   4.577  0.0287  0.8559  0.3277
  772MOL0     H 1839   7.185   0.125   4.360  2.7063 -0.4630  1.8857
  772MOL0     H 1840   6.985   0.239   4.336 -0.3793 -1.3932  0.7092
  772MOL0     H 1841   6.963   0.683   4.469 -2.0739  2.3019 -0.9578
  772MOL0     H 1842   6.873   0.580   4.581  0.4089  0.7468  0.1802
  772MOL0     H 1843   6.766   0.667   4.302  0.5500 -0.2343 -0.1112
  772MOL0     H 1844   6.717   0.741   4.453 -0.1150 -2.5589  4.1825
  772MOL0     H 1845   6.646   0.511   4.536  0.0463 -2.0409 -0.3341
  772MOL0     H 1846   6.665   0.444   4.378  2.5234  0.3566  0.8338
  772MOL0     H 1847   6.439   0.518   4.402  2.2815 -2.4982 -0.0113
  772MOL0     H 1848   6.489   0.695   4.431  3.8286  0.3058 -0.1215
  772MOL0     H 1849   6.552   0.541   4.189 -0.0861 -0.1744  1.4583
  772MOL0     H 1850   6.547   0.721   4.207 -0.2938  0.1135 -0.9340
  772MOL0     H 1851   6.303   0.534   4.194 -1.3557  0.0984 -2.1982
  772MOL0     H 1852   6.357   0.631   4.058  2.2359  0.0336 -0.0606
  772MOL0     H 1853   6.244   0.744   4.333 -1.4353  0.0459 -1.0048
  772MOL0     H 1854   6.301   0.846   4.209  0.8610 -0.6459 -1.0324
  772MOL0     H 1855   6.127   0.746   4.043 -0.8287  0.8721  0.0426
  772MOL0     H 1856   6.063   0.814   4.191 -0.3254 -0.0748  0.4995
  772MOL0     H 1857   5.993   0.543   3.971  0.2654  2.8145  0.4407
  772MOL0     H 1858   5.823   0.252   4.122 -2.3757  0.3502 -0.1537
  772MOL0     H 1859   5.905   0.292   3.972 -0.6875 -0.6040 -0.0918
  772MOL0     H 1860   5.750   0.493   3.947 -2.1367 -0.0654 -0.7989
  772MOL0     H 1861   5.682   0.452   4.109  0.8576 -0.8654  0.6110
  772MOL0     H 1862   5.541   0.396   3.898  0.3234 -0.3924  1.1979
  772MOL0     H 1863   5.671   0.284   3.860  0.2888 -0.4574  1.8881
  772MOL0     H 1864   5.618   0.159   4.084  0.2614  0.2569 -0.3266
  772MOL0     H 1865   5.505   0.154   3.962  1.9738 -1.1804 -1.2490
  772MOL0     H 1866   5.303   0.437   4.251  0.7822  0.7637 -0.3271
  772MOL0     H 1867   5.085   0.504   4.198  3.7202  3.1374 -0.9106
  772MOL0     H 1868   4.762   0.765   4.110 -0.7570  0.8146 -2.7967
  772MOL0     H 1869   4.514   0.806   4.127  0.9848  0.8395 -1.8851
  772MOL0     H 1870   4.264   0.511   4.203 -0.9730 -0.2104  0.3378
  772MOL0     H 1871   4.224   0.464   4.031 -0.9691  1.2228  0.7035
  772MOL0     H 1872   4.025   0.538   4.094  0.4931 -0.2580 -0.5086
  772MOL0     H 1873   4.081   0.689   4.038 -0.1654  0.4156  0.6737
  772MOL0     H 1874   4.133   0.777   4.257 -1.4526  1.6587 -2.0733
  772MOL0     H 1875   4.105   0.622   4.332 -2.0622  0.1290  1.4807
  772MOL0     H 1876   3.913   0.810   4.211 -2.5377 -1.2838  0.0915
  772MOL0     H 1877   3.862   0.646   4.227  1.9653 -1.1181 -3.4816
  772MOL0     H 1878   3.905   0.654   4.479 -2.0265 -0.6011  1.5588
  772MOL0     H 1879   3.787   0.771   4.444  0.4070 -0.1533  0.3582
  772MOL0     H 1880   3.965   0.961   4.411 -0.2719 -1.1500 -1.3734
  772MOL0     H 1881   4.083   0.850   4.479  0.5153  0.5112  0.7778
  772MOL0     H 1882   3.818   0.906   4.611  0.5021  1.9900 -0.5066
  772MOL0     H 1883   3.978   0.851   4.690  0.5432 -1.1027 -0.7324
  772MOL0     H 1884   3.921   1.127   4.595 -2.3463 -1.2470 -1.0765
  772MOL0     H 1885   4.069   1.059   4.677 -1.2757  1.4011  0.5406
  772MOL0     H 1886   4.452   0.422   3.953  3.5888 -2.8243  0.1452
  772MOL0     H 1887   4.681   0.383   3.947  3.1341 -0.9983  3.3379
  772MOL0     H 1888   5.101   0.282   3.827  1.4146 -3.4291  0.9354
  772MOL0     H 1889   5.324   0.211   3.887  1.2817  1.7702 -1.8772
  772MOL0     H 1890   7.170   0.594   4.501  0.3845 -1.0942  3.4023
  772MOL0     H 1891   7.375   0.463   4.536  0.0997  0.7597 -0.4556
  772MOL0     H 1892   7.541  -0.138   4.553 -0.3972  0.3218  0.2638
  772MOL0     H 1893   7.750  -0.189   4.642  1.6606  0.3302  0.0804
  772MOL0     H 1894   7.941   0.157   4.854  0.8774  0.6146  0.1792
  772MOL0     H 1895   8.072   0.131   4.735 -0.3941 -1.8511 -1.5827
  772MOL0     H 1896   8.161   0.118   4.955 -2.1208  1.7053  0.7204
  772MOL0     H 1897   8.038  -0.016   5.001 -0.4690  0.2592  0.5264
  772MOL0     H 1898   8.219  -0.055   4.774 -0.6573 -0.7774 -0.5055
  772MOL0     H 1899   8.133  -0.173   4.876  0.7234  0.2910  0.0950
  772MOL0     H 1900   8.378   0.003   4.958 -0.4590 -0.1421 -3.1009
  772MOL0     H 1901   8.283  -0.064   5.081 -1.8613 -0.2896 -0.5324
  772MOL0     H 1902   8.495  -0.415   4.977  4.4113  3.1805  1.1081
  772MOL0     H 1903   7.855   0.221   4.654  0.1258 -0.6977 -0.5225
  772MOL0     H 1904   7.634   0.284   4.543  0.2871  0.5379 -0.8602
  773MOL0     O 1905   9.425   8.317   1.994  0.5492  0.1602  0.6709
  773MOL0     C 1906   9.516   8.262   1.939  0.6335 -0.1016  0.0421
  773MOL0     O 1907   9.502   8.195   1.824 -0.5436  0.1731  0.5543
  773MOL0     C 1908   9.385   8.199   1.746 -0.2728  0.3102 -0.5206
  773MOL0     C 1909   9.258   8.189   1.805  0.8511  0.4115  0.3914
  773MOL0     C 1910   9.142   8.191   1.725 -0.2787 -0.1981 -0.1380
  773MOL0     C 1911   9.148   8.213   1.588  0.2894  0.2502  0.8108
  773MOL0     O 1912   9.035   8.199   1.507 -0.3228 -0.1136  0.1963
  773MOL0     C 1913   8.909   8.147   1.562  0.2529 -0.1659  0.0013
  773MOL0     C 1914   8.816   8.132   1.444 -0.2899  0.2640 -0.0309
  773MOL0     C 1915   8.673   8.095   1.483 -0.1775  0.2052  0.3661
  773MOL0     C 1916   8.584   8.058   1.359  0.4758 -0.3186 -0.6758
  773MOL0     C 1917   8.443   8.020   1.403 -0.3052 -0.5897  0.4374
  773MOL0     C 1918   8.353   7.982   1.287  0.0438 -0.0184 -0.5833
  773MOL0     C 1919   8.216   7.934   1.328  0.9725  0.4074  0.3028
  773MOL0     C 1920   8.212   7.789   1.379 -0.4638 -0.3252  0.7651
  773MOL0     N 1921   8.075   7.749   1.408  0.4060  0.4171  0.2708
  773MOL0     C 1922   8.032   7.689   1.527 -0.4382 -0.3524 -0.0388
  773MOL0     C 1923   7.903   7.662   1.516  0.3249  0.3482  0.7332
  773MOL0     C 1924   7.816   7.592   1.617 -0.3409 -0.0890  0.2766
  773MOL0     C 1925   7.669   7.613   1.583 -0.5619  0.2339 -0.6676
  773MOL0     C 1926   7.599   7.566   1.704 -0.2497 -0.2744 -0.2809
  773MOL0     C 1927   7.452   7.576   1.685  0.1494 -0.0035 -0.1833
  773MOL0     O 1928   7.391   7.505   1.800  0.4343  0.0216  0.3972
  773MOL0     C 1929   7.265   7.454   1.797  0.5693  0.1303 -0.1309
  773MOL0     C 1930   7.164   7.492   1.707  0.7558  0.7248  0.3400
  773MOL0     C 1931   7.032   7.441   1.721  0.7325 -0.1590 -0.7488
  773MOL0     C 1932   6.998   7.354   1.835  0.2935 -0.2475  0.3052
  773MOL0     C 1933   6.858   7.321   1.859  0.3465 -0.2605  0.9046
  773MOL0     O 1934   6.755   7.359   1.770 -0.7230  0.3749  0.0651
  773MOL0     C 1935   6.630   7.306   1.784  0.1687 -0.0131 -0.1922
  773MOL0     C 1936   6.524   7.381   1.826  0.2222 -0.5372 -0.0142
  773MOL0     C 1937   6.402   7.328   1.864 -0.1275  0.4399  0.1577
  773MOL0     C 1938   6.375   7.191   1.858 -0.3208  0.7578  0.2152
  773MOL0     O 1939   6.255   7.134   1.883 -0.3271 -0.0531  0.0197
  773MOL0     C 1940   6.190   7.201   1.986  0.0925  0.6264 -0.6637
  773MOL0     C 1941   6.088   7.109   2.043  0.3412  0.6901  0.4702
  773MOL0     C 1942   5.993   7.181   2.129 -0.1707  0.1222 -0.3159
  773MOL0     C 1943   5.872   7.096   2.174  0.4776  0.0253  0.7077
  773MOL0     C 1944   5.748   7.180   2.186 -0.0790  0.0279  0.7264
  773MOL0     C 1945   5.618   7.105   2.247 -0.6970  1.4654 -0.5227
  773MOL0     C 1946   5.484   7.162   2.182 -0.0243 -0.0102 -0.6209
  773MOL0     C 1947   5.455   7.305   2.216 -0.6729  0.5328  0.0802
  773MOL0    Cl 1948   5.544   7.416   2.111 -0.6285 -0.0588  0.2408
  773MOL0     C 1949   6.486   7.112   1.816  0.0295  0.8756  0.1823
  773MOL0     C 1950   6.615   7.167   1.786  0.4841  0.1544  0.8573
  773MOL0     O 1951   6.832   7.270   1.970  0.2665 -0.4252  0.5164
  773MOL0     C 1952   7.097   7.321   1.924  0.3654 -0.2279 -0.0434
  773MOL0     C 1953   7.227   7.376   1.905  0.1120  0.0354 -0.9453
  773MOL0     N 1954   7.858   7.708   1.391 -0.2437  0.0555  0.1842
  773MOL0     N 1955   7.961   7.762   1.328  0.1313 -0.3567  0.7095
  773MOL0     C 1956   9.269   8.231   1.535 -0.0745 -0.0520 -0.1312
  773MOL0     C 1957   9.390   8.228   1.610 -0.0073  0.5248 -0.2287
  773MOL0     C 1958   9.651   8.273   1.993  0.5349  0.7451 -0.4328
  773MOL0     C 1959   9.676   8.343   2.115  0.1336 -0.4433 -0.2149
  773MOL0     C 1960   9.807   8.354   2.160  0.1737 -0.0209 -0.0697
  773MOL0     C 1961   9.919   8.314   2.078 -0.0915  0.9625  0.5955
  773MOL0     O 1962  10.049   8.333   2.113 -0.1668  0.1475 -0.1244
  773MOL0     C 1963  10.088   8.266   2.238 -0.8232  0.0380  0.1615
  773MOL0     C 1964  10.162   8.142   2.199 -0.6646 -0.0413  0.7448
  773MOL0     C 1965  10.234   8.088   2.308  0.6883 -0.6609 -0.2255
  773MOL0     C 1966  10.275   7.942   2.284  0.2928  0.2107 -0.2317
  773MOL0     C 1967  10.346   7.892   2.401 -0.4084  0.0691 -0.2098
  773MOL0     C 1968  10.401   7.866   2.505 -0.4332  0.4710 -0.2016
  773MOL0     C 1969   9.884   8.251   1.961 -0.7940  0.3913  0.4519
  773MOL0     C 1970   9.761   8.211   1.933  0.3709 -0.3363  0.7115
  773MOL0     H 1971   9.243   8.187   1.913  0.4253  0.2749  0.3336
  773MOL0     H 1972   9.051   8.188   1.785  1.5343  0.8703  2.9123
  773MOL0     H 1973   8.861   8.225   1.623 -1.5169 -1.5836  0.5083
  773MOL0     H 1974   8.922   8.055   1.618  2.2928 -0.1947 -0.4287
  773MOL0     H 1975   8.864   8.052   1.386  0.3881  2.7624 -3.1739
  773MOL0     H 1976   8.808   8.227   1.391  1.3100  0.7911  0.6000
  773MOL0     H 1977   8.618   8.179   1.527  0.8081  0.6037  0.8718
  773MOL0     H 1978   8.679   8.009   1.550 -0.7198  0.5151  0.8241
  773MOL0     H 1979   8.581   8.139   1.286 -0.5895 -0.2423 -0.5487
  773MOL0     H 1980   8.644   7.974   1.322  4.2418  1.8442 -0.0179
  773MOL0     H 1981   8.399   8.107   1.452 -1.1574 -1.2597  0.8800
  773MOL0     H 1982   8.459   7.932   1.467 -1.5021 -1.4961 -0.4526
  773MOL0     H 1983   8.400   7.898   1.234 -1.6671 -0.9493 -0.6836
  773MOL0     H 1984   8.343   8.069   1.222  2.5677  0.2791 -0.6740
  773MOL0     H 1985   8.178   8.007   1.401  0.8173 -0.0612  0.6917
  773MOL0     H 1986   8.150   7.950   1.242 -1.2652 -2.3659  1.3551
  773MOL0     H 1987   8.269   7.771   1.471 -2.7094 -3.5973  1.7015
  773MOL0     H 1988   8.253   7.719   1.305  0.8484 -1.1370  2.1985
  773MOL0     H 1989   8.092   7.673   1.616 -0.0461  2.0484  0.1933
  773MOL0     H 1990   7.844   7.645   1.708  0.3815  1.6741 -0.9241
  773MOL0     H 1991   7.854   7.489   1.616 -0.6081 -0.1926  0.7581
  773MOL0     H 1992   7.636   7.568   1.488 -1.4540  4.4552 -2.6079
  773MOL0     H 1993   7.641   7.718   1.569  0.5717  0.4145 -1.7513
  773MOL0     H 1994   7.628   7.465   1.734  1.3016  0.1671 -0.2005
  773MOL0     H 1995   7.614   7.642   1.782 -0.3691  0.1673 -0.6802
  773MOL0     H 1996   7.418   7.525   1.595 -0.7237  1.1593 -0.5416
  773MOL0     H 1997   7.425   7.682   1.683  4.5045  1.3763  1.8394
  773MOL0     H 1998   7.187   7.551   1.620  1.8670 -0.9308 -0.5419
  773MOL0     H 1999   6.951   7.447   1.649 -2.9846  0.3876  3.0767
  773MOL0     H 2000   6.548   7.485   1.842  0.1647 -0.3747 -0.8940
  773MOL0     H 2001   6.326   7.402   1.887 -0.5019 -0.2767  1.3519
  773MOL0     H 2002   6.148   7.294   1.946 -0.5127  0.1932 -1.0639
  773MOL0     H 2003   6.261   7.220   2.067  0.9820 -0.8567 -1.0595
  773MOL0     H 2004   6.123   7.017   2.091 -3.0481 -0.9674  0.0442
  773MOL0     H 2005   6.035   7.074   1.953  0.6855 -1.6767  1.1047
  773MOL0     H 2006   5.953   7.266   2.072 -0.9966  0.9862  1.4869
  773MOL0     H 2007   6.050   7.211   2.217  0.8809 -0.8243 -0.6511
  773MOL0     H 2008   5.860   7.012   2.105  2.1959  1.5543 -1.6348
  773MOL0     H 2009   5.895   7.053   2.272  0.0380 -0.4035  0.6271
  773MOL0     H 2010   5.717   7.213   2.087 -0.2000  1.5699  1.2434
  773MOL0     H 2011   5.771   7.276   2.234  1.8728 -0.2186  0.3667
  773MOL0     H 2012   5.623   7.121   2.355  1.2497 -3.0081  0.2865
  773MOL0     H 2013   5.627   6.996   2.243  1.2799  1.5864 -0.3079
  773MOL0     H 2014   5.478   7.147   2.074 -0.6629  0.1007 -0.6010
  773MOL0     H 2015   5.405   7.102   2.226  0.5329 -0.6644 -0.4972
  773MOL0     H 2016   5.482   7.330   2.319  0.6658  0.8155 -0.3193
  773MOL0     H 2017   5.349   7.331   2.209 -1.1641 -1.4676 -0.4569
  773MOL0     H 2018   6.484   7.004   1.805 -0.2919  0.5947  2.4527
  773MOL0     H 2019   6.699   7.101   1.766  0.0283 -0.0090 -0.7406
  773MOL0     H 2020   7.064   7.268   2.012 -2.1382  1.8242  0.3715
  773MOL0     H 2021   7.308   7.346   1.971 -0.8386  0.0752  0.2612
  773MOL0     H 2022   9.285   8.242   1.428  1.3786  2.8139  0.2955
  773MOL0     H 2023   9.492   8.241   1.577  0.7229 -2.3250  0.5903
  773MOL0     H 2024   9.608   8.390   2.185  0.9630 -2.6097  2.2259
  773MOL0     H 2025   9.822   8.414   2.250  1.9865  1.5909 -1.3533
  773MOL0     H 2026  10.002   8.244   2.301 -1.5255 -0.4467 -0.9313
  773MOL0     H 2027  10.154   8.335   2.292 -2.0400  0.6629  0.8896
  773MOL0     H 2028  10.103   8.065   2.149  1.8771 -1.2152 -0.6883
  773MOL0     H 2029  10.229   8.173   2.117 -2.2957 -0.0476 -0.6423
  773MOL0     H 2030  10.180   8.091   2.403  1.9069  0.6573  0.4645
  773MOL0     H 2031  10.323   8.150   2.326  2.2223 -2.6535 -0.5457
  773MOL0     H 2032  10.191   7.875   2.266  0.0974  0.3243  0.2511
  773MOL0     H 2033  10.336   7.933   2.193  0.4226 -1.5824 -0.0085
  773MOL0     H 2034  10.446   7.849   2.602  0.7296  0.2375 -0.7585
  773MOL0     H 2035   9.960   8.226   1.888  0.0815  0.0739  1.4432
  773MOL0     H 2036   9.751   8.142   1.850 -1.7665 -0.5259  1.0713
  774MOL0     O 2037   1.845  10.619   6.963  0.6940  0.2406  0.7466
  774MOL0     C 2038   1.955  10.667   6.930  0.1314  0.4612  0.4090
  774MOL0     O 2039   1.965  10.774   6.852  0.6660 -0.2406  0.3667
  774MOL0     C 2040   1.848  10.826   6.804  0.7545  0.1428  1.1285
  774MOL0     C 2041   1.824  10.822   6.667 -0.1696  1.0017 -0.3191
  774MOL0     C 2042   1.729  10.899   6.607  0.3695  0.0402  0.9448
  774MOL0     C 2043   1.633  10.973   6.688  0.0945 -0.2045  0.0807
  774MOL0     O 2044   1.525  11.044   6.641 -0.7344  0.0782  0.0031
  774MOL0     C 2045   1.472  10.984   6.522  0.4262 -0.6560 -0.1773
  774MOL0     C 2046   1.343  11.055   6.497  0.5383 -1.0032 -0.0153
  774MOL0     C 2047   1.237  11.023   6.592 -0.0690  0.3289 -0.2147
  774MOL0     C 2048   1.120  11.114   6.573  0.5480  0.2277 -0.8649
  774MOL0     C 2049   1.004  11.077   6.654  0.0187 -0.1273  0.6982
  774MOL0     C 2050   1.010  11.103   6.799  0.5607 -0.4637  0.0914
  774MOL0     C 2051   0.897  11.035   6.868  0.0622 -0.4051  0.5328
  774MOL0     C 2052   0.910  10.888   6.896  0.0827 -0.4638 -0.1193
  774MOL0     N 2053   0.804  10.839   6.989 -0.0930  0.1698 -0.4252
  774MOL0     C 2054   0.669  10.875   6.984 -0.1823 -0.5965 -0.3161
  774MOL0     C 2055   0.611  10.804   7.086  0.4266 -0.0454 -0.0176
  774MOL0     C 2056   0.462  10.791   7.105  0.1373  0.3529 -0.1217
  774MOL0     C 2057   0.429  10.741   7.247 -0.7285  0.9528 -0.2138
  774MOL0     C 2058   0.284  10.738   7.286  0.6872  0.6906  0.6623
  774MOL0     C 2059   0.211  10.634   7.211  0.9191  0.3048  1.3808
  774MOL0     O 2060   0.065  10.645   7.229  0.0851 -0.3283 -0.2474
  774MOL0     C 2061  -0.023  10.553   7.173 -0.7010 -0.3379  0.2259
  774MOL0     C 2062   0.009  10.449   7.088 -0.6468  0.5385  0.0279
  774MOL0     C 2063  -0.098  10.356   7.050  0.1077  0.1068  0.1082
  774MOL0     C 2064  -0.235  10.377   7.089  0.6368 -0.9852 -1.0068
  774MOL0     C 2065  -0.350  10.302   7.045 -0.1547 -0.2145  0.2877
  774MOL0     O 2066  -0.473  10.325   7.102  0.4622 -0.3413  0.0503
  774MOL0     C 2067  -0.572  10.229   7.102  0.4890 -1.0859  0.0645
  774MOL0     C 2068  -0.553  10.099   7.095  0.3227  0.4894  0.1219
  774MOL0     C 2069  -0.666  10.010   7.074 -0.3201 -0.8737 -0.1013
  774MOL0     C 2070  -0.793  10.064   7.062 -0.2609 -0.3373 -0.0663
  774MOL0     O 2071  -0.889   9.969   7.060  0.2627 -0.3298 -0.0585
  774MOL0     C 2072  -1.030   9.998   7.044  1.1306  0.1499  0.3352
  774MOL0     C 2073  -1.065   9.986   6.891 -0.6884 -0.0102 -0.1297
  774MOL0     C 2074  -1.001  10.093   6.806  0.1641 -0.5867  0.6170
  774MOL0     C 2075  -1.086  10.113   6.676 -0.3556  0.5075 -0.2920
  774MOL0     C 2076  -1.027  10.219   6.587 -0.3671  0.1893  0.3899
  774MOL0     C 2077  -1.077  10.355   6.615  0.2222  0.0214 -0.3299
  774MOL0     C 2078  -1.000  10.467   6.535 -0.4204  1.0419 -0.6017
  774MOL0     C 2079  -1.038  10.612   6.561  0.5616  0.5187  0.1335
  774MOL0    Cl 2080  -1.003  10.672   6.725  0.3795  0.3841 -0.5103
  774MOL0     C 2081  -0.815  10.199   7.085  0.2239 -0.6161 -0.0480
  774MOL0     C 2082  -0.700  10.285   7.101  0.4880  0.0904  0.0457
  774MOL0     O 2083  -0.344  10.234   6.939 -0.4296 -0.2218 -0.3913
  774MOL0     C 2084  -0.250  10.488   7.176 -0.3648  0.4503  1.0563
  774MOL0     C 2085  -0.150  10.579   7.216 -0.0165  0.1329  0.6243
  774MOL0     N 2086   0.707  10.741   7.159  0.0487 -0.1293  0.0585
  774MOL0     N 2087   0.829  10.768   7.104  0.0217  0.5144  0.0079
  774MOL0     C 2088   1.652  10.982   6.831 -0.1283  0.2487 -0.4572
  774MOL0     C 2089   1.754  10.900   6.886  0.1242  0.3111 -0.2487
  774MOL0     C 2090   2.071  10.595   6.966  0.2259  0.1223  0.3347
  774MOL0     C 2091   2.201  10.646   6.942  0.3056 -0.3223  0.1452
  774MOL0     C 2092   2.318  10.576   6.981  0.9085  0.7426  0.6893
  774MOL0     C 2093   2.308  10.450   7.048 -0.2935 -0.5735  0.2359
  774MOL0     O 2094   2.410  10.386   7.121 -0.4144 -0.2437  0.2580
  774MOL0     C 2095   2.541  10.454   7.140  0.6950  0.1145 -0.0130
  774MOL0     C 2096   2.631  10.344   7.200 -1.2408 -0.0306  0.2623
  774MOL0     C 2097   2.761  10.414   7.242 -0.6820  0.6942  0.3485
  774MOL0     C 2098   2.836  10.314   7.330 -0.6844  0.4738  0.6436
  774MOL0     C 2099   2.976  10.360   7.342  1.2369  0.9991 -1.1766
  774MOL0     C 2100   3.090  10.395   7.366  1.2905  0.6262  0.0032
  774MOL0     C 2101   2.181  10.395   7.065  0.5729 -0.5663  0.4074
  774MOL0     C 2102   2.056  10.463   7.026 -0.3232  0.1565 -0.4257
  774MOL0     H 2103   1.894  10.767   6.606 -0.8735 -3.6954  2.6188
  774MOL0     H 2104   1.727  10.904   6.499  1.0789  1.0360  0.9619
  774MOL0     H 2105   1.452  10.878   6.539  0.4585 -0.9366 -1.7795
  774MOL0     H 2106   1.540  11.003   6.439 -0.3678  2.5686 -0.2412
  774MOL0     H 2107   1.323  11.031   6.392  0.4450 -0.2318 -0.1770
  774MOL0     H 2108   1.354  11.163   6.505 -0.4023 -0.6540 -2.5309
  774MOL0     H 2109   1.271  11.030   6.696 -1.0611 -0.5962  0.1909
  774MOL0     H 2110   1.199  10.921   6.577 -2.3199  1.1715 -0.5068
  774MOL0     H 2111   1.151  11.217   6.596  1.2687  0.2195 -1.7195
  774MOL0     H 2112   1.083  11.116   6.470 -1.3602  0.1475 -0.2021
  774MOL0     H 2113   0.975  10.974   6.634  0.2092 -0.3470  1.5136
  774MOL0     H 2114   0.921  11.132   6.608 -1.5129 -1.0531  2.2314
  774MOL0     H 2115   1.008  11.210   6.817  0.1750 -0.2428 -1.1704
  774MOL0     H 2116   1.106  11.066   6.838  2.1839  2.8694 -0.4033
  774MOL0     H 2117   0.890  11.086   6.964 -0.7083 -4.2543  2.7106
  774MOL0     H 2118   0.810  11.051   6.803  0.7140 -0.1120 -0.2964
  774MOL0     H 2119   1.003  10.868   6.952  0.8008  2.1301 -0.2462
  774MOL0     H 2120   0.910  10.837   6.800 -0.6246  2.5698 -1.8611
  774MOL0     H 2121   0.623  10.937   6.908  1.5842  2.0953  0.6466
  774MOL0     H 2122   0.425  10.716   7.034  1.2493  0.3315 -0.6967
  774MOL0     H 2123   0.407  10.883   7.081  0.2932  0.3138 -0.6439
  774MOL0     H 2124   0.482  10.810   7.313 -2.2676  0.1952  1.9516
  774MOL0     H 2125   0.462  10.639   7.269 -2.5779  0.5604  1.0480
  774MOL0     H 2126   0.277  10.717   7.393  1.0044  1.0691  0.7580
  774MOL0     H 2127   0.227  10.830   7.267  0.7073  1.3281  3.3305
  774MOL0     H 2128   0.239  10.530   7.229 -1.0453 -0.5384  0.0232
  774MOL0     H 2129   0.224  10.653   7.104  2.2184  1.3087  1.6954
  774MOL0     H 2130   0.114  10.429   7.069 -0.4630 -0.9783  2.2315
  774MOL0     H 2131  -0.083  10.269   6.987 -1.1263 -1.3629  1.7305
  774MOL0     H 2132  -0.453  10.058   7.096 -1.3098 -4.1819 -0.5725
  774MOL0     H 2133  -0.648   9.904   7.061  2.0867 -0.5607  0.3725
  774MOL0     H 2134  -1.065  10.095   7.083  1.5916  0.0262  1.0734
  774MOL0     H 2135  -1.083   9.921   7.101 -1.4434  1.8144  0.3495
  774MOL0     H 2136  -1.172   9.998   6.875 -0.6187  2.6709  0.9769
  774MOL0     H 2137  -1.029   9.888   6.858 -0.4341  0.5869 -1.7596
  774MOL0     H 2138  -0.896  10.073   6.782  0.3099  0.1182  0.6361
  774MOL0     H 2139  -1.009  10.184   6.867 -3.4600  0.7690 -1.5752
  774MOL0     H 2140  -1.077  10.019   6.620  1.8929  1.1245 -1.0902
  774MOL0     H 2141  -1.193  10.124   6.695 -0.0805 -0.8563  2.5373
  774MOL0     H 2142  -1.049  10.194   6.483  1.3416 -2.9764  0.6605
  774MOL0     H 2143  -0.917  10.218   6.583 -0.3771 -0.3476  0.1096
  774MOL0     H 2144  -1.073  10.381   6.721 -1.9513 -0.6939 -0.0232
  774MOL0     H 2145  -1.183  10.360   6.585 -0.3640 -1.2756  1.3832
  774MOL0     H 2146  -0.892  10.450   6.532 -0.4102  1.1472 -0.8960
  774MOL0     H 2147  -1.028  10.443   6.432 -1.3579  0.1647 -0.1518
  774MOL0     H 2148  -1.147  10.613   6.560  0.4234  0.3002  3.8759
  774MOL0     H 2149  -0.994  10.679   6.487  1.6286  0.5399  0.7714
  774MOL0     H 2150  -0.913  10.242   7.105  1.4943  3.1378 -1.0228
  774MOL0     H 2151  -0.706  10.393   7.112 -1.0782 -0.0656  1.0152
  774MOL0     H 2152  -0.345  10.519   7.217 -0.9260 -1.0056  0.9253
  774MOL0     H 2153  -0.167  10.671   7.271  3.9547  2.7318 -2.0141
  774MOL0     H 2154   1.582  11.041   6.889 -2.4309 -0.9612 -1.8377
  774MOL0     H 2155   1.782  10.896   6.991 -1.1611  1.0231  0.1470
  774MOL0     H 2156   2.222  10.744   6.900 -0.4853 -1.0189 -1.9968
  774MOL0     H 2157   2.415  10.622   6.966  2.0783 -1.6599  0.4077
  774MOL0     H 2158   2.533  10.542   7.204  2.1472 -0.2332  0.6729
  774MOL0     H 2159   2.580  10.480   7.041 -1.3127 -1.1889 -1.2301
  774MOL0     H 2160   2.590  10.278   7.277 -1.0554 -0.3350  0.1045
  774MOL0     H 2161   2.662  10.271   7.124 -0.8974 -1.7247  1.9544
  774MOL0     H 2162   2.747  10.505   7.301 -1.1066  0.5475  0.4728
  774MOL0     H 2163   2.818  10.441   7.153  0.1153 -0.3300  0.5290
  774MOL0     H 2164   2.796  10.312   7.432  2.5626  0.6520  2.0568
  774MOL0     H 2165   2.829  10.214   7.286  1.2325  0.2624  0.7315
  774MOL0     H 2166   3.178  10.453   7.384  0.5982  1.2708  1.5348
  774MOL0     H 2167   2.182  10.296   7.111  1.2357 -1.0055 -0.5143
  774MOL0     H 2168   1.959  10.415   7.035 -0.0840 -1.0432 -3.1461
  775MOL0     O 2169   3.501   0.831   5.285 -0.0866  0.0774  0.3226
  775MOL0     C 2170   3.545   0.781   5.388  0.5488  0.4545 -0.7580
  775MOL0     O 2171   3.468   0.746   5.499  0.3594  0.7632 -0.2452
  775MOL0     C 2172   3.331   0.733   5.510 -1.0718 -0.2727  0.0175
  775MOL0     C 2173   3.241   0.702   5.405 -0.0242 -0.0720  0.9865
  775MOL0     C 2174   3.109   0.697   5.436 -0.4198  0.1775 -1.0132
  775MOL0     C 2175   3.063   0.722   5.560 -0.5443 -0.4530 -0.2063
  775MOL0     O 2176   2.927   0.719   5.594 -0.2286 -0.4706 -0.1385
  775MOL0     C 2177   2.884   0.588   5.609  0.0343 -0.2699 -0.3257
  775MOL0     C 2178   2.804   0.586   5.738 -0.6688 -0.2968 -0.7042
  775MOL0     C 2179   2.690   0.679   5.749  0.0595 -0.6715 -0.1589
  775MOL0     C 2180   2.647   0.677   5.896 -0.4593 -0.2905 -0.1359
  775MOL0     C 2181   2.516   0.751   5.910 -0.3277  0.6675 -0.5903
  775MOL0     C 2182   2.393   0.705   5.818 -0.1655  0.0251  0.0590
  775MOL0     C 2183   2.279   0.805   5.834 -0.1706 -0.0580 -0.4987
  775MOL0     C 2184   2.155   0.738   5.771 -0.6732 -0.3743  0.0465
  775MOL0     N 2185   2.034   0.819   5.782  0.4377 -0.0406  0.3691
  775MOL0     C 2186   2.028   0.950   5.762 -0.4159  0.9786  0.7239
  775MOL0     C 2187   1.898   0.974   5.770  0.3383 -1.0488 -0.7065
  775MOL0     C 2188   1.842   1.113   5.744 -1.4030  0.5751 -0.0257
  775MOL0     C 2189   1.738   1.157   5.850 -0.4378 -0.0523 -0.3143
  775MOL0     C 2190   1.799   1.180   5.996 -0.4352  0.6342 -0.1170
  775MOL0     C 2191   1.915   1.278   5.993 -0.3533 -0.0327 -0.5285
  775MOL0     O 2192   1.949   1.314   6.129 -0.3695  0.1407  0.7558
  775MOL0     C 2193   2.069   1.263   6.160 -0.3349 -0.4476 -0.5621
  775MOL0     C 2194   2.092   1.133   6.204 -0.3410 -0.6138 -0.5675
  775MOL0     C 2195   2.223   1.088   6.225  0.9156  0.8245 -0.6310
  775MOL0     C 2196   2.335   1.172   6.201 -0.4906  0.3649  0.0401
  775MOL0     C 2197   2.473   1.122   6.216 -0.7341  0.4376 -1.3414
  775MOL0     O 2198   2.570   1.211   6.180 -0.7670  0.9123 -0.3999
  775MOL0     C 2199   2.697   1.169   6.145 -0.4405  0.1943  0.3001
  775MOL0     C 2200   2.813   1.242   6.175 -0.2012  0.2755 -1.5219
  775MOL0     C 2201   2.940   1.202   6.154  0.3616  0.3641 -0.0219
  775MOL0     C 2202   2.955   1.069   6.096 -0.0194 -0.3475  0.0906
  775MOL0     O 2203   3.071   1.004   6.072 -0.2157  0.4649 -0.0041
  775MOL0     C 2204   3.196   1.050   6.124  0.7818 -0.0297 -0.3083
  775MOL0     C 2205   3.299   0.937   6.098  0.2993  0.1581 -0.3878
  775MOL0     C 2206   3.431   0.942   6.162 -0.9141 -0.7097 -0.0198
  775MOL0     C 2207   3.475   1.086   6.182 -0.8981 -0.6946  0.6421
  775MOL0     C 2208   3.608   1.103   6.244 -0.9647 -0.1144 -0.1931
  775MOL0     C 2209   3.729   1.060   6.157  0.0035  0.5820  0.2906
  775MOL0     C 2210   3.859   1.075   6.224 -0.1489 -0.2580  0.3113
  775MOL0     C 2211   3.958   1.140   6.134 -0.0505 -0.3017 -0.3727
  775MOL0    Cl 2212   4.097   1.180   6.234 -0.2575  0.3918 -0.2645
  775MOL0     C 2213   2.843   0.995   6.060 -0.1788 -0.2469 -0.7293
  775MOL0     C 2214   2.708   1.047   6.068 -0.8665 -0.1729  0.0326
  775MOL0     O 2215   2.498   1.005   6.247  0.4688  0.4032  0.3562
  775MOL0     C 2216   2.315   1.298   6.157 -0.3195 -0.1771 -0.9499
  775MOL0     C 2217   2.178   1.344   6.134 -0.5231  0.6339  0.9130
  775MOL0     N 2218   1.832   0.860   5.803  0.5053 -0.6962  0.2060
  775MOL0     N 2219   1.913   0.760   5.804  0.4902 -0.1842  0.7626
  775MOL0     C 2220   3.150   0.756   5.666  0.8367 -0.9369 -0.0901
  775MOL0     C 2221   3.284   0.756   5.647  0.0675  0.2956  0.0264
  775MOL0     C 2222   3.693   0.778   5.408 -0.0794  0.0053 -0.3631
  775MOL0     C 2223   3.778   0.762   5.297 -0.1699  0.7033 -0.4702
  775MOL0     C 2224   3.916   0.750   5.304 -0.0006  0.7041 -0.5720
  775MOL0     C 2225   3.979   0.748   5.432  0.5221  0.1182  0.6507
  775MOL0     O 2226   4.109   0.757   5.456 -0.7252  0.6508  0.0953
  775MOL0     C 2227   4.207   0.756   5.352 -0.5062  0.3000 -0.5333
  775MOL0     C 2228   4.347   0.731   5.406 -0.6695 -0.2345  0.0586
  775MOL0     C 2229   4.353   0.593   5.468 -0.0275  0.2050  0.4135
  775MOL0     C 2230   4.486   0.583   5.542  0.7366  0.2056 -0.3895
  775MOL0     C 2231   4.593   0.530   5.452 -0.4183 -0.7902  0.1242
  775MOL0     C 2232   4.695   0.495   5.390  1.3056 -1.5717 -0.6037
  775MOL0     C 2233   3.899   0.753   5.549  0.1033 -0.5861  0.6059
  775MOL0     C 2234   3.753   0.770   5.537 -0.0805  0.0498  0.7762
  775MOL0     H 2235   3.274   0.674   5.305  1.4031 -1.3192  1.7455
  775MOL0     H 2236   3.031   0.674   5.364 -2.1107 -1.7008  1.2807
  775MOL0     H 2237   2.965   0.514   5.608  1.4356  1.1609 -2.4602
  775MOL0     H 2238   2.821   0.557   5.524  0.3751  2.2709 -1.5882
  775MOL0     H 2239   2.875   0.616   5.815 -0.7250  1.9047 -1.4482
  775MOL0     H 2240   2.769   0.483   5.747  1.2191 -1.0907 -1.9429
  775MOL0     H 2241   2.606   0.641   5.691 -0.7376 -3.0796  2.3560
  775MOL0     H 2242   2.711   0.783   5.721 -2.5047  0.2634  1.0242
  775MOL0     H 2243   2.626   0.575   5.928 -2.0495 -0.9170 -2.8859
  775MOL0     H 2244   2.721   0.725   5.961 -1.4821 -0.7735  1.4341
  775MOL0     H 2245   2.543   0.854   5.882  2.7038  0.1559  0.0322
  775MOL0     H 2246   2.480   0.754   6.014  2.2453  0.4378  0.3793
  775MOL0     H 2247   2.360   0.605   5.848 -3.0368  0.2661 -1.9328
  775MOL0     H 2248   2.414   0.706   5.711  0.4714  3.2030  0.1152
  775MOL0     H 2249   2.266   0.832   5.939 -0.4728 -3.1273  0.3257
  775MOL0     H 2250   2.307   0.897   5.780 -2.3655 -0.9084 -3.2790
  775MOL0     H 2251   2.147   0.638   5.815  2.0092 -0.5084  0.4047
  775MOL0     H 2252   2.161   0.714   5.665  1.2842 -4.7714  0.9224
  775MOL0     H 2253   2.113   1.016   5.747 -1.0100  1.5943  0.0464
  775MOL0     H 2254   1.785   1.104   5.652 -0.0341  0.0716 -0.8600
  775MOL0     H 2255   1.914   1.195   5.740 -0.6364 -0.1291 -1.6798
  775MOL0     H 2256   1.667   1.075   5.857  0.8648 -1.1879 -0.0447
  775MOL0     H 2257   1.683   1.245   5.815 -1.9351 -0.1868  1.5560
  775MOL0     H 2258   1.721   1.216   6.065  0.1941  0.9620  0.4308
  775MOL0     H 2259   1.828   1.085   6.041 -0.2391  0.2430 -1.0547
  775MOL0     H 2260   1.896   1.369   5.936  0.8286  1.0058  0.6624
  775MOL0     H 2261   2.006   1.243   5.943  1.4291 -1.4533  3.2699
  775MOL0     H 2262   2.018   1.060   6.236  0.7315 -1.3912  0.2163
  775MOL0     H 2263   2.243   0.986   6.256 -2.5957  0.1125 -0.3463
  775MOL0     H 2264   2.776   1.335   6.219 -1.3195 -1.8686  2.5748
  775MOL0     H 2265   3.021   1.272   6.169 -1.3024  2.6627 -1.2183
  775MOL0     H 2266   3.189   1.076   6.230 -0.4473 -2.9497  0.4476
  775MOL0     H 2267   3.222   1.137   6.063  1.4726 -1.9306 -2.8951
  775MOL0     H 2268   3.320   0.933   5.991  5.4160  0.0933  0.3900
  775MOL0     H 2269   3.250   0.841   6.119  0.1222  0.1986 -0.6064
  775MOL0     H 2270   3.506   0.889   6.103 -0.2979  1.4080 -1.2525
  775MOL0     H 2271   3.416   0.898   6.261 -1.4073  1.2995  0.8545
  775MOL0     H 2272   3.477   1.131   6.082  0.0007 -0.4113  0.7776
  775MOL0     H 2273   3.401   1.137   6.245 -0.6961 -1.1481  1.2607
  775MOL0     H 2274   3.607   1.044   6.336  0.7083 -0.6265 -0.4786
  775MOL0     H 2275   3.621   1.210   6.263 -1.1586  0.5627 -3.3840
  775MOL0     H 2276   3.719   1.104   6.058  1.3759 -1.2679 -0.7299
  775MOL0     H 2277   3.730   0.953   6.132  0.7657  0.4940  0.6616
  775MOL0     H 2278   3.848   1.130   6.317  2.3351  0.5642  0.1876
  775MOL0     H 2279   3.900   0.977   6.252 -0.5669  0.2449  2.9538
  775MOL0     H 2280   3.920   1.236   6.098  0.8536  0.2909  0.2103
  775MOL0     H 2281   3.979   1.075   6.049 -2.2458 -1.6487  0.0476
  775MOL0     H 2282   2.859   0.897   6.017  4.2760 -0.7588  1.4685
  775MOL0     H 2283   2.624   0.990   6.031  0.2599 -1.0211 -1.3182
  775MOL0     H 2284   2.398   1.368   6.159 -1.0408  0.6929  0.3235
  775MOL0     H 2285   2.156   1.447   6.107 -2.0334 -0.2056 -1.4123
  775MOL0     H 2286   3.106   0.792   5.758  2.4348  2.6442 -0.5533
  775MOL0     H 2287   3.345   0.783   5.732  2.1993  0.8354 -1.5741
  775MOL0     H 2288   3.734   0.776   5.199  0.1267 -4.7472 -1.6723
  775MOL0     H 2289   3.976   0.741   5.213 -0.3838  0.8642 -0.8444
  775MOL0     H 2290   4.188   0.853   5.307  1.1783  1.3438  0.8718
  775MOL0     H 2291   4.187   0.678   5.278  2.8169 -1.7845  0.5529
  775MOL0     H 2292   4.422   0.735   5.326 -2.9864  0.7013 -2.1946
  775MOL0     H 2293   4.363   0.808   5.482  1.2889 -1.1663  0.6555
  775MOL0     H 2294   4.345   0.510   5.397 -0.7503 -1.3880  2.2701
  775MOL0     H 2295   4.278   0.592   5.548  0.1083  0.2141  0.5415
  775MOL0     H 2296   4.509   0.674   5.597  0.2438  0.4348 -0.5630
  775MOL0     H 2297   4.479   0.500   5.613 -0.4231 -0.2886 -1.0559
  775MOL0     H 2298   4.782   0.463   5.336  1.9605 -1.5547  0.4204
  775MOL0     H 2299   3.958   0.754   5.640  1.2279 -0.5287 -0.1048
  775MOL0     H 2300   3.680   0.792   5.615 -1.1384  1.4115 -0.5483
  776MOL0     O 2301   0.867   1.992   1.301 -0.6445 -0.2817 -0.3917
  776MOL0     C 2302   0.960   1.962   1.386  0.7135  0.1818 -0.2956
  776MOL0     O 2303   0.945   1.885   1.500  0.4924 -0.2936  0.3395
  776MOL0     C 2304   0.818   1.846   1.535  1.4275 -0.9893  0.7014
  776MOL0     C 2305   0.780   1.713   1.561 -0.2951  0.0021 -0.3757
  776MOL0     C 2306   0.649   1.680   1.596 -0.1705 -0.8032 -0.0487
  776MOL0     C 2307   0.548   1.778   1.617 -0.4484  0.5769  1.1110
  776MOL0     O 2308   0.427   1.739   1.658 -0.0580 -0.1234 -0.4364
  776MOL0     C 2309   0.313   1.811   1.608 -0.0970 -0.1432  1.0956
  776MOL0     C 2310   0.191   1.720   1.624  0.1469 -0.5455  0.9703
  776MOL0     C 2311   0.067   1.805   1.611  0.1729 -0.3113 -0.1646
  776MOL0     C 2312  -0.058   1.713   1.638 -0.2172 -0.9473  0.0862
  776MOL0     C 2313  -0.093   1.675   1.785 -0.3290  0.1878 -0.2101
  776MOL0     C 2314  -0.241   1.637   1.791 -0.3333 -0.8975  0.4006
  776MOL0     C 2315  -0.297   1.652   1.934 -0.0874  0.3191  0.1187
  776MOL0     C 2316  -0.452   1.629   1.927  0.1265 -0.1251  0.4214
  776MOL0     N 2317  -0.522   1.735   1.855  0.7947 -0.0076 -0.1015
  776MOL0     C 2318  -0.597   1.716   1.739 -0.8114 -0.7321 -0.6133
  776MOL0     C 2319  -0.657   1.834   1.718 -0.3532  0.1639 -0.0700
  776MOL0     C 2320  -0.740   1.851   1.600  0.2473  0.3043  0.0882
  776MOL0     C 2321  -0.870   1.769   1.595  0.1189 -0.1908  0.5444
  776MOL0     C 2322  -0.970   1.833   1.686  0.2502 -0.2840 -0.3818
  776MOL0     C 2323  -1.108   1.768   1.657  0.1438 -0.8105 -0.9418
  776MOL0     O 2324  -1.177   1.833   1.555  0.3043  0.5855 -0.1410
  776MOL0     C 2325  -1.288   1.775   1.500  0.8556 -0.4627 -0.0998
  776MOL0     C 2326  -1.341   1.651   1.536  0.7148 -0.1657  0.6813
  776MOL0     C 2327  -1.467   1.615   1.485 -0.9381 -0.0380  1.1806
  776MOL0     C 2328  -1.541   1.704   1.407  0.3515 -0.1261  0.3716
  776MOL0     C 2329  -1.669   1.669   1.356  0.6692 -0.2538 -0.4337
  776MOL0     O 2330  -1.711   1.747   1.245  0.5548  0.2471  0.1579
  776MOL0     C 2331  -1.844   1.754   1.223 -0.2255 -0.5537 -0.5089
  776MOL0     C 2332  -1.936   1.811   1.312  0.1934 -0.1513  0.6282
  776MOL0     C 2333  -2.071   1.818   1.290  0.4579 -0.1517 -0.5023
  776MOL0     C 2334  -2.125   1.779   1.167  0.7529 -0.7653 -0.4131
  776MOL0     O 2335  -2.251   1.812   1.132 -0.3289  0.2946  0.3523
  776MOL0     C 2336  -2.329   1.699   1.096  0.5960  0.9697 -0.3355
  776MOL0     C 2337  -2.371   1.622   1.230 -1.0849 -0.6803 -0.0106
  776MOL0     C 2338  -2.458   1.501   1.191 -0.4075 -0.2224 -0.3999
  776MOL0     C 2339  -2.596   1.536   1.130  0.5819  0.2017 -0.4392
  776MOL0     C 2340  -2.703   1.595   1.220 -0.6712 -0.0564 -0.6162
  776MOL0     C 2341  -2.823   1.631   1.151  0.3827 -0.4548  0.0017
  776MOL0     C 2342  -2.940   1.525   1.149 -0.4500  0.4445  0.1713
  776MOL0     C 2343  -3.065   1.570   1.068 -0.9928 -0.0612  0.2639
  776MOL0    Cl 2344  -3.178   1.435   1.061  0.0531 -0.3734 -0.4224
  776MOL0     C 2345  -2.033   1.734   1.067  0.9309 -0.5789  0.6800
  776MOL0     C 2346  -1.898   1.708   1.101  0.4278  0.3651  0.4883
  776MOL0     O 2347  -1.747   1.594   1.423  0.2711 -0.6751  0.4066
  776MOL0     C 2348  -1.483   1.821   1.360  0.0368 -0.5350 -0.1207
  776MOL0     C 2349  -1.356   1.855   1.405 -0.3327  0.5526  0.2516
  776MOL0     N 2350  -0.642   1.921   1.827  0.4948  0.7930  0.1893
  776MOL0     N 2351  -0.567   1.854   1.910 -0.2893 -0.0905 -0.0444
  776MOL0     C 2352   0.582   1.914   1.597  0.5723 -0.8985  0.2617
  776MOL0     C 2353   0.713   1.943   1.554  0.1361 -0.7083 -1.1247
  776MOL0     C 2354   1.099   1.980   1.348 -0.2637  0.5768 -0.0460
  776MOL0     C 2355   1.137   1.992   1.213  0.3028 -0.1255 -0.3758
  776MOL0     C 2356   1.272   1.992   1.172 -0.2193  0.9234 -0.1797
  776MOL0     C 2357   1.372   1.966   1.257 -0.7253  0.1800 -0.7678
  776MOL0     O 2358   1.508   1.956   1.231  0.6330  1.1311  0.4390
  776MOL0     C 2359   1.547   1.913   1.102 -0.4952  0.2830 -0.3979
  776MOL0     C 2360   1.702   1.900   1.092  0.0068  0.0849  0.5814
  776MOL0     C 2361   1.768   1.903   0.948 -0.6760  0.4201 -1.1626
  776MOL0     C 2362   1.885   2.008   0.941 -0.4279  0.4158  0.6384
  776MOL0     C 2363   1.930   1.993   0.798  0.4713 -0.6814  1.0988
  776MOL0     C 2364   1.952   1.982   0.681  0.0913 -0.1853 -1.0732
  776MOL0     C 2365   1.334   1.955   1.392  0.4841 -0.2476  0.5929
  776MOL0     C 2366   1.203   1.965   1.441  0.3645 -0.0503  1.0570
  776MOL0     H 2367   0.857   1.638   1.549 -1.5811 -1.2628 -1.0303
  776MOL0     H 2368   0.624   1.576   1.614  0.3712 -1.2035 -1.4504
  776MOL0     H 2369   0.322   1.839   1.503 -1.2682 -1.6836  0.5551
  776MOL0     H 2370   0.301   1.896   1.676 -2.9476 -1.5285  2.4866
  776MOL0     H 2371   0.195   1.673   1.723  4.6457  0.3862  1.4867
  776MOL0     H 2372   0.191   1.641   1.548  1.5305  0.3813 -0.0497
  776MOL0     H 2373   0.057   1.849   1.512  0.8302  2.2037  0.8112
  776MOL0     H 2374   0.073   1.887   1.683  0.1180  1.1457 -1.7674
  776MOL0     H 2375  -0.131   1.779   1.589  0.5889 -0.0842  0.0289
  776MOL0     H 2376  -0.038   1.621   1.583  0.8702 -0.8085  0.2424
  776MOL0     H 2377  -0.068   1.764   1.843  1.2605 -0.3908  0.0354
  776MOL0     H 2378  -0.035   1.587   1.815 -1.4388 -0.9777 -1.3244
  776MOL0     H 2379  -0.250   1.536   1.750  1.4869 -1.1681  0.5828
  776MOL0     H 2380  -0.298   1.708   1.730  0.1491 -0.8973 -0.0572
  776MOL0     H 2381  -0.253   1.582   2.006 -0.0342  1.9189  1.7142
  776MOL0     H 2382  -0.268   1.750   1.973 -0.5219 -0.4250  2.4499
  776MOL0     H 2383  -0.508   1.617   2.020 -2.4582  1.4733 -0.8364
  776MOL0     H 2384  -0.464   1.531   1.879  2.9210 -1.2122  1.6778
  776MOL0     H 2385  -0.602   1.627   1.678  1.2404 -1.5686  0.3589
  776MOL0     H 2386  -0.678   1.806   1.522  0.4539  1.2606 -0.3268
  776MOL0     H 2387  -0.752   1.960   1.591 -1.0147  0.6637  4.1789
  776MOL0     H 2388  -0.855   1.666   1.628 -1.5320  0.1006  2.3630
  776MOL0     H 2389  -0.907   1.774   1.492 -0.7668 -1.4992  0.7803
  776MOL0     H 2390  -0.944   1.803   1.788  2.1842 -1.6421 -1.2130
  776MOL0     H 2391  -0.988   1.940   1.673  1.5626 -0.0665 -0.5400
  776MOL0     H 2392  -1.175   1.780   1.743 -0.4064  0.9430 -1.5640
  776MOL0     H 2393  -1.094   1.661   1.640 -0.1898 -1.4294  2.0437
  776MOL0     H 2394  -1.296   1.584   1.609  0.6097 -2.9361 -1.6081
  776MOL0     H 2395  -1.512   1.520   1.513 -0.5852 -0.7254 -0.4455
  776MOL0     H 2396  -1.887   1.841   1.405 -0.3397  0.3797  0.7406
  776MOL0     H 2397  -2.139   1.846   1.369 -1.9758 -0.2003 -2.4298
  776MOL0     H 2398  -2.269   1.634   1.031  1.6364  1.3369  0.2386
  776MOL0     H 2399  -2.416   1.729   1.037  0.1245 -0.9324 -0.6636
  776MOL0     H 2400  -2.436   1.686   1.290 -2.0171 -0.8618 -0.8095
  776MOL0     H 2401  -2.281   1.592   1.284 -0.4793 -1.3132 -1.3039
  776MOL0     H 2402  -2.461   1.439   1.282  2.6251 -1.8947 -1.3266
  776MOL0     H 2403  -2.397   1.435   1.128  0.9278 -0.1054  0.7236
  776MOL0     H 2404  -2.568   1.602   1.048  0.1202  1.6574  0.5448
  776MOL0     H 2405  -2.637   1.447   1.079  0.8387 -0.0098 -0.2793
  776MOL0     H 2406  -2.669   1.684   1.274  1.3624 -2.2744  2.0227
  776MOL0     H 2407  -2.718   1.527   1.304  1.2690 -0.9247 -0.9108
  776MOL0     H 2408  -2.810   1.675   1.052 -0.9734 -0.9264 -0.4019
  776MOL0     H 2409  -2.866   1.717   1.203 -0.4357  0.3279 -1.8835
  776MOL0     H 2410  -2.903   1.435   1.099 -3.1535  0.1694 -1.5454
  776MOL0     H 2411  -2.958   1.496   1.253 -0.5780 -1.4252 -0.3326
  776MOL0     H 2412  -3.043   1.608   0.968  0.2748 -3.6824 -1.0277
  776MOL0     H 2413  -3.103   1.658   1.120 -1.3785  1.2113 -2.0434
  776MOL0     H 2414  -2.073   1.702   0.971  0.6545  1.2283  0.1676
  776MOL0     H 2415  -1.835   1.661   1.026  0.5647 -0.2361  0.9729
  776MOL0     H 2416  -1.535   1.886   1.290 -1.4131  1.4509  2.5679
  776MOL0     H 2417  -1.310   1.945   1.366 -1.5433  1.4924  0.9032
  776MOL0     H 2418   0.501   1.985   1.610  1.0127 -0.1900 -0.6907
  776MOL0     H 2419   0.742   2.047   1.543 -0.7406  0.1212  2.8622
  776MOL0     H 2420   1.067   2.003   1.131 -0.1890  0.0566  0.0649
  776MOL0     H 2421   1.306   1.998   1.069  0.4012  0.2682 -0.0170
  776MOL0     H 2422   1.513   2.002   1.047 -2.0997  0.6455  1.1190
  776MOL0     H 2423   1.503   1.817   1.073  0.2752 -0.1269 -0.2417
  776MOL0     H 2424   1.760   1.977   1.143  2.1573  0.6487 -2.4296
  776MOL0     H 2425   1.734   1.805   1.136 -0.4814 -0.5817 -0.4663
  776MOL0     H 2426   1.687   1.925   0.879 -0.3250  3.5314 -0.7351
  776MOL0     H 2427   1.813   1.806   0.926  1.1867  0.7409  0.8526
  776MOL0     H 2428   1.853   2.112   0.954 -0.2338  0.4187  1.0990
  776MOL0     H 2429   1.962   1.976   1.012  0.6052 -2.7972 -1.6589
  776MOL0     H 2430   1.955   1.960   0.576  1.0552 -1.8582 -0.7376
  776MOL0     H 2431   1.418   1.940   1.459  1.0724 -4.4921 -0.7869
  776MOL0     H 2432   1.185   1.976   1.548  2.7854  0.9751  1.4360
  777MOL0     O 2433   2.708   4.281   0.006 -0.0535 -0.0556  0.3454
  777MOL0     C 2434   2.664   4.367  -0.072 -0.1527  0.5724 -0.0998
  777MOL0     O 2435   2.582   4.464  -0.048  0.1291 -0.8777  0.2895
  777MOL0     C 2436   2.493   4.460   0.053 -0.1703  0.0804 -0.1438
  777MOL0     C 2437   2.430   4.340   0.103  0.9220 -0.4325  0.2562
  777MOL0     C 2438   2.340   4.347   0.222 -0.3891  0.5588  0.3622
  777MOL0     C 2439   2.319   4.470   0.280 -0.0840  0.6495 -0.6785
  777MOL0     O 2440   2.253   4.474   0.398  0.1785  0.8076  0.1421
  777MOL0     C 2441   2.328   4.503   0.517 -0.3074 -0.0483 -0.1133
  777MOL0     C 2442   2.249   4.579   0.612 -0.1763 -0.5003 -0.8303
  777MOL0     C 2443   2.212   4.726   0.568 -0.7120 -0.0265 -0.8557
  777MOL0     C 2444   2.123   4.802   0.670 -0.0728 -0.1922 -0.2406
  777MOL0     C 2445   2.194   4.826   0.801  1.1297 -0.1557  0.3185
  777MOL0     C 2446   2.101   4.907   0.885  0.0951 -0.2347  1.2023
  777MOL0     C 2447   2.166   4.956   1.014 -0.4893 -0.0657 -0.1971
  777MOL0     C 2448   2.268   5.070   0.991 -0.5168 -1.3317  0.0513
  777MOL0     N 2449   2.341   5.096   1.118 -0.3824  0.7038 -0.7832
  777MOL0     C 2450   2.279   5.143   1.237 -1.2317  0.9269  0.0534
  777MOL0     C 2451   2.381   5.134   1.329 -0.1433 -0.5126  0.1361
  777MOL0     C 2452   2.386   5.188   1.467  0.4651 -0.7819  0.0436
  777MOL0     C 2453   2.281   5.135   1.566 -0.2986  0.2293  0.1691
  777MOL0     C 2454   2.326   4.991   1.605 -0.2375  0.8702  0.1467
  777MOL0     C 2455   2.206   4.903   1.664  0.5527  0.0067  0.1862
  777MOL0     O 2456   2.204   4.901   1.809  0.5605  0.1779 -0.1331
  777MOL0     C 2457   2.098   4.835   1.864 -0.7302  0.0633 -1.0706
  777MOL0     C 2458   2.017   4.909   1.959  0.1898 -0.1567 -0.0385
  777MOL0     C 2459   1.909   4.846   2.018 -0.4711  0.2040  0.9646
  777MOL0     C 2460   1.873   4.708   1.974  0.4649 -0.7838 -0.3517
  777MOL0     C 2461   1.754   4.636   2.028  0.2705 -0.2716 -0.6018
  777MOL0     O 2462   1.728   4.502   1.999  0.3858  0.6239  0.9354
  777MOL0     C 2463   1.609   4.455   2.057 -0.1058 -0.1001  0.1513
  777MOL0     C 2464   1.485   4.509   2.021  0.8813  0.0235 -0.1264
  777MOL0     C 2465   1.372   4.459   2.080  1.0192  0.4747 -0.5661
  777MOL0     C 2466   1.366   4.351   2.170  0.2305  0.6737  1.5270
  777MOL0     O 2467   1.245   4.289   2.206  0.1477 -0.2200 -0.7875
  777MOL0     C 2468   1.122   4.333   2.146 -0.4736  0.1730  0.6913
  777MOL0     C 2469   1.017   4.231   2.143 -0.1193  0.8553 -0.5179
  777MOL0     C 2470   0.896   4.268   2.058  0.4179  0.1638 -0.3864
  777MOL0     C 2471   0.807   4.151   2.031  0.2737  1.0572  0.0925
  777MOL0     C 2472   0.695   4.193   1.938  0.4809 -0.6598  0.4791
  777MOL0     C 2473   0.594   4.069   1.935 -0.2208 -0.6530  0.4996
  777MOL0     C 2474   0.461   4.104   1.862 -0.0338  0.1036  0.7333
  777MOL0     C 2475   0.344   4.021   1.914  0.1435  0.5405 -0.3891
  777MOL0    Cl 2476   0.308   4.074   2.088  0.0772 -0.6015 -0.1302
  777MOL0     C 2477   1.492   4.299   2.201 -0.0052  0.1176  0.1312
  777MOL0     C 2478   1.614   4.359   2.151  0.3130  0.4348 -0.3964
  777MOL0     O 2479   1.686   4.714   2.101  0.4148 -0.6239  0.1423
  777MOL0     C 2480   1.957   4.635   1.891 -0.0940  0.4375 -0.6571
  777MOL0     C 2481   2.078   4.698   1.847 -0.0608  1.0007  0.2188
  777MOL0     N 2482   2.498   5.079   1.266 -0.0378 -0.9098  0.2359
  777MOL0     N 2483   2.468   5.055   1.144 -0.9429 -0.8108 -0.5934
  777MOL0     C 2484   2.373   4.589   0.215  0.9765 -0.0530 -0.1300
  777MOL0     C 2485   2.450   4.586   0.102 -0.5929 -0.4414  0.3432
  777MOL0     C 2486   2.731   4.378  -0.206 -0.6302  0.0918 -1.5510
  777MOL0     C 2487   2.813   4.275  -0.251 -0.0853  0.3714 -0.5653
  777MOL0     C 2488   2.882   4.283  -0.378 -0.7408 -0.0462  0.2622
  777MOL0     C 2489   2.868   4.392  -0.460  0.0574  0.0232  0.4615
  777MOL0     O 2490   2.952   4.400  -0.565 -0.8134  0.5844  0.1252
  777MOL0     C 2491   2.960   4.510  -0.650 -0.1067 -1.0960  0.1952
  777MOL0     C 2492   2.980   4.468  -0.793 -0.2381  0.1457 -0.0660
  777MOL0     C 2493   2.847   4.415  -0.859  1.1686  0.6203  0.5971
  777MOL0     C 2494   2.860   4.374  -1.006  0.3324 -0.5686 -0.4971
  777MOL0     C 2495   2.951   4.451  -1.092 -1.1682 -0.1631  0.2681
  777MOL0     C 2496   3.009   4.524  -1.169  0.5458  0.0116 -0.0246
  777MOL0     C 2497   2.782   4.492  -0.413 -0.3055  0.3337 -0.3992
  777MOL0     C 2498   2.712   4.488  -0.291  0.1182  1.0029 -0.4157
  777MOL0     H 2499   2.440   4.250   0.045  1.8135  1.3615 -2.5691
  777MOL0     H 2500   2.278   4.264   0.254  1.5411 -1.7461 -1.4026
  777MOL0     H 2501   2.413   4.570   0.498 -1.4871  2.1092  1.8092
  777MOL0     H 2502   2.371   4.410   0.555 -0.4001  0.5090  1.3997
  777MOL0     H 2503   2.311   4.582   0.702  1.2644 -2.1440 -1.7166
  777MOL0     H 2504   2.158   4.524   0.636 -0.2275  0.3446  1.1618
  777MOL0     H 2505   2.158   4.711   0.474  1.5397 -1.1449 -2.0448
  777MOL0     H 2506   2.308   4.777   0.554  0.3319 -1.5467  0.3887
  777MOL0     H 2507   2.093   4.899   0.629 -2.0507 -0.3434  0.7235
  777MOL0     H 2508   2.027   4.749   0.677  0.0457 -0.6183 -1.5726
  777MOL0     H 2509   2.290   4.875   0.780  0.3462  1.6888  0.8404
  777MOL0     H 2510   2.203   4.724   0.840 -3.4951 -1.5588 -1.6031
  777MOL0     H 2511   2.030   4.829   0.914  0.3445 -1.3080 -0.9087
  777MOL0     H 2512   2.046   4.992   0.843 -0.8730  0.0826  3.0128
  777MOL0     H 2513   2.092   4.999   1.083  1.1707 -1.3575  2.5987
  777MOL0     H 2514   2.204   4.869   1.068 -0.8437 -0.0908  0.0168
  777MOL0     H 2515   2.210   5.158   0.962  2.3005  0.6430 -0.0076
  777MOL0     H 2516   2.336   5.037   0.912 -1.1126 -0.9259 -0.6436
  777MOL0     H 2517   2.181   5.189   1.246 -1.3521  0.5125  1.0372
  777MOL0     H 2518   2.368   5.296   1.465 -0.5794 -0.9472 -0.7848
  777MOL0     H 2519   2.490   5.173   1.497  0.9410  2.5593  0.4428
  777MOL0     H 2520   2.179   5.133   1.525 -0.8808 -0.0230  1.5597
  777MOL0     H 2521   2.283   5.199   1.655 -0.7889  1.0239 -0.3791
  777MOL0     H 2522   2.376   4.945   1.519 -0.5066 -0.6397  0.7845
  777MOL0     H 2523   2.407   4.993   1.678 -0.6185 -2.2332  0.7512
  777MOL0     H 2524   2.209   4.804   1.618 -3.7735 -0.0776 -0.3275
  777MOL0     H 2525   2.108   4.929   1.623  0.1175 -3.1875 -1.0508
  777MOL0     H 2526   2.040   5.012   1.985 -1.2032  0.4199 -1.0110
  777MOL0     H 2527   1.849   4.910   2.082  0.5969  1.2500  0.9572
  777MOL0     H 2528   1.477   4.599   1.961  0.6219  0.8973  1.1860
  777MOL0     H 2529   1.280   4.499   2.038 -0.7967 -2.2110  0.5878
  777MOL0     H 2530   1.135   4.366   2.042 -3.6318  0.4294  0.2961
  777MOL0     H 2531   1.092   4.418   2.207  0.7828  1.4645 -0.4236
  777MOL0     H 2532   0.985   4.221   2.247  0.6733  2.6900 -0.0467
  777MOL0     H 2533   1.058   4.132   2.124 -1.3373  0.3582 -0.6409
  777MOL0     H 2534   0.932   4.303   1.960  0.8483 -0.6368 -0.5231
  777MOL0     H 2535   0.835   4.349   2.099 -1.3276 -1.0935 -0.4016
  777MOL0     H 2536   0.866   4.066   1.996  1.1354  1.0116  1.5946
  777MOL0     H 2537   0.767   4.113   2.126 -0.2746 -0.6351 -0.7692
  777MOL0     H 2538   0.740   4.211   1.840  3.5458  0.8953  2.0042
  777MOL0     H 2539   0.641   4.283   1.971  1.5323  0.9827 -1.9627
  777MOL0     H 2540   0.570   4.056   2.041  1.7421 -0.2853  1.0203
  777MOL0     H 2541   0.640   3.985   1.883 -3.2045 -0.1598 -3.3916
  777MOL0     H 2542   0.442   4.211   1.872  2.7053  0.9877 -2.0308
  777MOL0     H 2543   0.475   4.088   1.754 -0.0383  0.2621  0.7083
  777MOL0     H 2544   0.374   3.916   1.919 -0.7879  0.2653 -0.3961
  777MOL0     H 2545   0.261   4.031   1.843 -1.5318  0.3479  1.4851
  777MOL0     H 2546   1.506   4.206   2.255  2.7946  1.0038  1.0790
  777MOL0     H 2547   1.713   4.327   2.182  1.2691  0.4286 -3.2312
  777MOL0     H 2548   1.933   4.530   1.879  0.2353 -0.3994  4.0373
  777MOL0     H 2549   2.138   4.626   1.793 -2.4860  0.5806 -2.1210
  777MOL0     H 2550   2.355   4.683   0.265  1.7004 -0.0622  0.1664
  777MOL0     H 2551   2.485   4.683   0.070 -0.6879  0.3950  2.6384
  777MOL0     H 2552   2.821   4.180  -0.200  1.1660 -1.1285 -3.3801
  777MOL0     H 2553   2.950   4.203  -0.407 -1.1012 -0.8279  1.4849
  777MOL0     H 2554   3.045   4.569  -0.615 -1.0541 -0.4107  1.4490
  777MOL0     H 2555   2.876   4.580  -0.647  0.7258 -0.0553 -0.3730
  777MOL0     H 2556   3.019   4.558  -0.841 -0.6832  0.2108 -0.3109
  777MOL0     H 2557   3.058   4.391  -0.794  0.2658  0.6503 -0.5706
  777MOL0     H 2558   2.777   4.498  -0.867 -0.1022 -0.6176 -2.5287
  777MOL0     H 2559   2.797   4.332  -0.808 -1.1711  0.9129 -1.0609
  777MOL0     H 2560   2.888   4.268  -1.009 -0.5696 -0.8040 -1.0186
  777MOL0     H 2561   2.761   4.378  -1.053  1.0980  0.7273 -2.0819
  777MOL0     H 2562   3.053   4.602  -1.227  0.2319  0.3309  0.1623
  777MOL0     H 2563   2.765   4.584  -0.470  0.6485 -0.0568 -1.3586
  777MOL0     H 2564   2.659   4.578  -0.260  2.0990  2.6319 -1.4778
  778MOL0     O 2565   3.656   2.112   9.928  0.2782 -0.1750  0.0900
  778MOL0     C 2566   3.689   2.096  10.049 -1.1310 -0.1586  1.6466
  778MOL0     O 2567   3.793   2.156  10.116 -0.5123 -0.1246 -0.0112
  778MOL0     C 2568   3.876   2.243  10.047 -0.1013 -0.4250  0.6751
  778MOL0     C 2569   3.924   2.344  10.132 -0.2291  0.8996  0.1725
  778MOL0     C 2570   4.014   2.438  10.091 -0.1943  0.7092  0.1367
  778MOL0     C 2571   4.061   2.449   9.952  0.2438 -0.4788 -0.1452
  778MOL0     O 2572   4.149   2.553   9.920  0.1383  0.4687  0.3519
  778MOL0     C 2573   4.198   2.563   9.781 -0.6456  0.5732  0.0467
  778MOL0     C 2574   4.344   2.543   9.767  1.2691 -0.2407 -0.0385
  778MOL0     C 2575   4.393   2.402   9.811 -0.4388  0.3099  0.0352
  778MOL0     C 2576   4.551   2.388   9.790  0.5598 -0.6053 -0.2379
  778MOL0     C 2577   4.623   2.340   9.915 -1.0531  0.0257  0.2447
  778MOL0     C 2578   4.591   2.186   9.952 -0.3898 -1.4105  0.9204
  778MOL0     C 2579   4.666   2.127  10.071  0.2821 -0.0154  0.1830
  778MOL0     C 2580   4.609   1.995  10.120  0.7592 -0.1654 -0.6366
  778MOL0     N 2581   4.463   2.011  10.165  0.3269  0.2946 -0.1503
  778MOL0     C 2582   4.354   1.942  10.117 -0.4187  1.0211  0.0959
  778MOL0     C 2583   4.245   2.001  10.162 -0.2353  0.1498 -0.6550
  778MOL0     C 2584   4.098   1.989  10.126 -0.2095 -0.5239 -0.3769
  778MOL0     C 2585   4.044   1.854  10.179  0.7743 -0.6497  0.4741
  778MOL0     C 2586   4.016   1.850  10.334  0.8834  0.0855 -0.0618
  778MOL0     C 2587   3.942   1.725  10.385  0.8709  0.1051 -0.7431
  778MOL0     O 2588   3.823   1.707  10.295  0.1884  0.4949  0.5081
  778MOL0     C 2589   3.732   1.608  10.320 -0.1242 -0.4436  0.5368
  778MOL0     C 2590   3.627   1.596  10.230 -0.0209  1.1543  0.0548
  778MOL0     C 2591   3.515   1.513  10.257  0.7764 -0.6752 -0.2387
  778MOL0     C 2592   3.514   1.438  10.371  0.2164  0.2883 -0.0261
  778MOL0     C 2593   3.394   1.346  10.405  0.3836  0.3364 -0.8619
  778MOL0     O 2594   3.302   1.336  10.306 -0.0775 -0.2023  0.0367
  778MOL0     C 2595   3.200   1.248  10.325  0.2702 -0.1075  0.6186
  778MOL0     C 2596   3.223   1.116  10.312  0.3442  0.0259  0.4782
  778MOL0     C 2597   3.107   1.031  10.310 -0.3842  0.5166  0.0981
  778MOL0     C 2598   2.981   1.078  10.351  0.0460 -0.4771  0.8465
  778MOL0     O 2599   2.876   0.991  10.352 -0.0604  0.7701 -0.1751
  778MOL0     C 2600   2.804   0.969  10.480 -0.6636 -0.2463  0.3434
  778MOL0     C 2601   2.724   0.845  10.467 -0.3476 -0.1267 -0.8387
  778MOL0     C 2602   2.601   0.877  10.381 -0.1972  0.6541 -0.9924
  778MOL0     C 2603   2.531   0.745  10.350  1.1223  0.6473  0.7233
  778MOL0     C 2604   2.441   0.755  10.228 -0.1786 -0.0676  0.1032
  778MOL0     C 2605   2.381   0.611  10.216 -0.2573  0.4264  0.6210
  778MOL0     C 2606   2.254   0.619  10.129 -0.3954  0.4919 -0.2809
  778MOL0     C 2607   2.173   0.495  10.153  0.5235 -0.6643 -0.0557
  778MOL0    Cl 2608   2.024   0.495  10.050 -0.0005 -0.8299 -0.3103
  778MOL0     C 2609   2.963   1.215  10.372  0.0968  0.0185 -0.1307
  778MOL0     C 2610   3.075   1.299  10.365 -0.2852  0.8055  0.7847
  778MOL0     O 2611   3.396   1.292  10.518  0.1614 -0.2427  0.3560
  778MOL0     C 2612   3.628   1.444  10.459  0.1485 -0.0629 -0.0074
  778MOL0     C 2613   3.731   1.534  10.438  0.8580 -0.8478 -0.1681
  778MOL0     N 2614   4.286   2.088  10.261 -0.8608 -0.0287  0.1772
  778MOL0     N 2615   4.421   2.099  10.264 -0.1254 -0.3657  0.6738
  778MOL0     C 2616   4.013   2.345   9.871 -0.0752 -0.1743 -0.3695
  778MOL0     C 2617   3.927   2.242   9.915 -0.1422 -0.3128 -0.1126
  778MOL0     C 2618   3.587   2.037  10.136  1.1291 -0.4472 -0.1068
  778MOL0     C 2619   3.602   2.022  10.276 -0.2001 -0.4675 -0.9317
  778MOL0     C 2620   3.501   1.952  10.351  0.6631  0.3307 -0.2426
  778MOL0     C 2621   3.384   1.903  10.295  0.2797 -0.0354 -0.3716
  778MOL0     O 2622   3.302   1.832  10.382  0.0934 -0.1754  0.0329
  778MOL0     C 2623   3.180   1.775  10.336 -0.5247 -0.3275 -0.7326
  778MOL0     C 2624   3.061   1.868  10.348  0.9940 -0.1980  0.1841
  778MOL0     C 2625   2.931   1.822  10.273  0.4673 -0.5762  1.1623
  778MOL0     C 2626   2.859   1.692  10.327 -0.4617 -0.0076  0.1065
  778MOL0     C 2627   2.818   1.695  10.470 -0.9749  0.1388  0.3302
  778MOL0     C 2628   2.785   1.682  10.583  0.1573 -0.3543 -0.9147
  778MOL0     C 2629   3.357   1.936  10.163  0.1258  0.3549  0.6865
  778MOL0     C 2630   3.455   1.997  10.089  0.0647 -0.2680  0.2684
  778MOL0     H 2631   3.884   2.345  10.233  2.2408 -0.6323  1.2689
  778MOL0     H 2632   4.043   2.516  10.160  1.9658 -0.1313  0.2407
  778MOL0     H 2633   4.176   2.667   9.757 -0.1306  0.7333  0.2482
  778MOL0     H 2634   4.145   2.497   9.711  1.0756  0.1611 -0.9364
  778MOL0     H 2635   4.393   2.624   9.822  1.1710 -0.7378  0.7987
  778MOL0     H 2636   4.364   2.561   9.661 -1.9678  1.3152 -0.4884
  778MOL0     H 2637   4.346   2.317   9.760  2.7332 -1.5151 -0.1067
  778MOL0     H 2638   4.373   2.389   9.918 -1.6633 -0.1184 -0.2238
  778MOL0     H 2639   4.575   2.327   9.702  0.5058  0.6953 -1.1740
  778MOL0     H 2640   4.596   2.485   9.770  3.2025 -1.7497 -0.2973
  778MOL0     H 2641   4.594   2.401  10.002  3.1763  2.0963  0.4635
  778MOL0     H 2642   4.731   2.355   9.913 -1.1617  1.1150  1.1762
  778MOL0     H 2643   4.635   2.135   9.866  2.3913  1.5000  0.4284
  778MOL0     H 2644   4.486   2.158   9.959 -0.6370 -1.1304 -1.1025
  778MOL0     H 2645   4.770   2.109  10.043 -0.5105 -0.0718 -3.1458
  778MOL0     H 2646   4.668   2.200  10.153  2.6050  1.0685 -0.7478
  778MOL0     H 2647   4.658   1.970  10.214  1.2055  1.0461 -0.5281
  778MOL0     H 2648   4.632   1.916  10.048 -3.0669 -0.6523 -1.5182
  778MOL0     H 2649   4.340   1.867  10.040  0.6194  0.7632  0.1482
  778MOL0     H 2650   4.078   1.991  10.019  2.2056 -0.7372 -0.8909
  778MOL0     H 2651   4.046   2.073  10.173 -1.2612 -0.4540 -1.6011
  778MOL0     H 2652   4.106   1.770  10.145 -2.3235 -2.7935 -0.2706
  778MOL0     H 2653   3.947   1.841  10.132  1.0294 -0.1699 -0.2099
  778MOL0     H 2654   4.105   1.868  10.395  0.5121 -1.6632  1.0850
  778MOL0     H 2655   3.946   1.933  10.347  0.5414  0.0240 -1.3943
  778MOL0     H 2656   3.915   1.745  10.489  3.2231 -1.2304  0.1803
  778MOL0     H 2657   4.018   1.647  10.396  1.5576  0.9659  0.9264
  778MOL0     H 2658   3.618   1.663  10.145 -2.5616  0.2233 -0.5182
  778MOL0     H 2659   3.432   1.516  10.187 -0.2049 -0.5811  0.9039
  778MOL0     H 2660   3.319   1.081  10.275  0.5923  0.8652  0.3060
  778MOL0     H 2661   3.115   0.926  10.286  2.2263  0.3738  1.2603
  778MOL0     H 2662   2.738   1.049  10.515  1.7620  1.6841  0.7584
  778MOL0     H 2663   2.881   0.945  10.554  0.3102 -1.4947 -1.0260
  778MOL0     H 2664   2.687   0.805  10.561  0.9945 -0.3276 -0.3823
  778MOL0     H 2665   2.780   0.769  10.412 -0.4676  0.4095 -1.7393
  778MOL0     H 2666   2.635   0.933  10.293 -0.2517 -0.0745 -1.4897
  778MOL0     H 2667   2.544   0.944  10.446  0.7328 -0.9204  1.5890
  778MOL0     H 2668   2.604   0.668  10.322 -1.0349 -1.8617  1.5646
  778MOL0     H 2669   2.481   0.705  10.439  2.2997 -0.2629  0.9918
  778MOL0     H 2670   2.493   0.780  10.135 -2.0693  0.7308 -0.7914
  778MOL0     H 2671   2.364   0.827  10.259  2.4771  2.4739  1.3668
  778MOL0     H 2672   2.344   0.578  10.314  1.8400  2.9606  2.3983
  778MOL0     H 2673   2.456   0.547  10.169 -1.2906  0.5722 -1.3150
  778MOL0     H 2674   2.200   0.708  10.163  0.9589  1.1687  0.1374
  778MOL0     H 2675   2.278   0.634  10.023 -0.9066  0.1845 -0.4484
  778MOL0     H 2676   2.142   0.498  10.258 -1.7668 -0.1219 -0.6986
  778MOL0     H 2677   2.232   0.403  10.146 -0.7416 -1.4777 -0.3930
  778MOL0     H 2678   2.866   1.260  10.389  1.1586  2.7497 -0.7450
  778MOL0     H 2679   3.069   1.405  10.384  0.7853  0.9816  0.1778
  778MOL0     H 2680   3.625   1.382  10.548 -1.5664 -1.0378 -0.6858
  778MOL0     H 2681   3.797   1.554  10.522 -0.5606  0.1662  0.7556
  778MOL0     H 2682   4.037   2.346   9.765 -0.8336 -2.5871 -0.6118
  778MOL0     H 2683   3.891   2.166   9.846 -0.0322  0.0391 -0.5543
  778MOL0     H 2684   3.697   2.047  10.322 -0.3799 -1.9880  0.3391
  778MOL0     H 2685   3.518   1.941  10.458  1.9543  2.5767 -0.1536
  778MOL0     H 2686   3.167   1.679  10.386  0.3978 -0.5871 -0.9665
  778MOL0     H 2687   3.190   1.747  10.231 -0.0665 -2.4707 -0.1676
  778MOL0     H 2688   3.027   1.881  10.451  0.4368  0.9189 -0.1209
  778MOL0     H 2689   3.090   1.968  10.314  0.7319  0.2621  1.2439
  778MOL0     H 2690   2.963   1.808  10.169  0.6943  0.7078  1.0532
  778MOL0     H 2691   2.860   1.905  10.283 -0.5876 -1.5264  1.8608
  778MOL0     H 2692   2.771   1.666  10.267  1.7835  0.4218 -3.6531
  778MOL0     H 2693   2.930   1.610  10.315  0.3472  0.5566  0.9184
  778MOL0     H 2694   2.744   1.658  10.679  1.0594  0.4581 -0.3099
  778MOL0     H 2695   3.267   1.909  10.108  0.1835  0.2712  0.6339
  778MOL0     H 2696   3.435   2.015   9.984 -1.7342  2.1837  0.9310
  779MOL0     O 2697   2.842   3.554   4.283  0.3708  0.4967 -0.7222
  779MOL0     C 2698   2.902   3.638   4.349 -0.1901  0.2563 -0.3265
  779MOL0     O 2699   2.841   3.748   4.401 -0.9554  0.0862  0.3730
  779MOL0     C 2700   2.710   3.731   4.438 -0.2953 -0.0780 -0.2235
  779MOL0     C 2701   2.689   3.744   4.570  0.6872 -0.5174 -0.0627
  779MOL0     C 2702   2.553   3.750   4.617 -1.6154 -0.4587  0.2667
  779MOL0     C 2703   2.443   3.748   4.538  0.7759 -0.3289  0.1375
  779MOL0     O 2704   2.314   3.762   4.595 -0.1627 -0.7655 -0.4930
  779MOL0     C 2705   2.217   3.803   4.503  1.7389  0.1252 -0.4623
  779MOL0     C 2706   2.085   3.833   4.579 -0.5057  0.0516 -1.0412
  779MOL0     C 2707   1.974   3.900   4.496  0.5528 -0.5102 -0.5662
  779MOL0     C 2708   1.854   3.955   4.583  0.0388  0.0187  0.8468
  779MOL0     C 2709   1.731   3.972   4.488  0.6311 -0.2226  0.2858
  779MOL0     C 2710   1.620   4.035   4.573 -0.5242  0.7028 -0.2646
  779MOL0     C 2711   1.500   4.107   4.501  0.3500  0.0654 -0.6123
  779MOL0     C 2712   1.394   4.184   4.584  0.4227 -0.3989  0.3576
  779MOL0     N 2713   1.453   4.291   4.671 -0.1134 -0.6874  0.4199
  779MOL0     C 2714   1.493   4.280   4.795  0.2144  0.3106 -0.5114
  779MOL0     C 2715   1.532   4.405   4.836 -0.7553  0.2653 -0.8658
  779MOL0     C 2716   1.560   4.446   4.982  0.9735  0.2715  0.2278
  779MOL0     C 2717   1.713   4.481   4.998  0.3497  0.1746 -0.3556
  779MOL0     C 2718   1.749   4.518   5.146  0.0829 -0.2957  0.6415
  779MOL0     C 2719   1.898   4.528   5.158  0.2834  0.3431  0.4477
  779MOL0     O 2720   1.948   4.424   5.233 -0.1077  0.7438 -0.4679
  779MOL0     C 2721   2.082   4.420   5.254 -0.5338 -1.3304  0.7798
  779MOL0     C 2722   2.142   4.309   5.306 -0.7371 -0.3579 -0.9448
  779MOL0     C 2723   2.280   4.309   5.319 -1.2249  0.5831  0.2286
  779MOL0     C 2724   2.371   4.408   5.284 -0.0510  0.0410 -0.0524
  779MOL0     C 2725   2.516   4.399   5.304  0.0237  0.4957  0.1736
  779MOL0     O 2726   2.583   4.518   5.315 -1.1188 -0.4299 -0.8149
  779MOL0     C 2727   2.722   4.522   5.306 -0.9227 -0.1657  0.6334
  779MOL0     C 2728   2.800   4.481   5.415 -0.6082 -0.2859  0.1174
  779MOL0     C 2729   2.942   4.478   5.409 -0.4925 -0.3944 -0.8184
  779MOL0     C 2730   3.005   4.533   5.305  0.0851 -0.4722 -0.1896
  779MOL0     O 2731   3.143   4.531   5.285  1.0509 -0.3250  0.7347
  779MOL0     C 2732   3.216   4.435   5.358  0.7080 -0.3096 -0.4474
  779MOL0     C 2733   3.355   4.445   5.308  0.1708 -0.8209 -0.2153
  779MOL0     C 2734   3.465   4.394   5.393 -0.3105  0.6933  0.1489
  779MOL0     C 2735   3.596   4.415   5.320 -0.2417  0.0813  0.6649
  779MOL0     C 2736   3.716   4.379   5.406  0.0131 -0.0542 -0.0108
  779MOL0     C 2737   3.751   4.227   5.400  0.0264  0.4896  0.1676
  779MOL0     C 2738   3.899   4.218   5.448 -0.2403  0.6909  0.2992
  779MOL0     C 2739   3.905   4.217   5.601 -0.2919 -0.4019 -0.0324
  779MOL0    Cl 2740   4.068   4.216   5.660 -0.4710  0.0252  0.1765
  779MOL0     C 2741   2.936   4.584   5.196  0.0877  0.3344  0.0552
  779MOL0     C 2742   2.792   4.568   5.194 -0.1095 -0.4864  0.4639
  779MOL0     O 2743   2.571   4.290   5.312  0.3587 -0.0623  0.1005
  779MOL0     C 2744   2.311   4.529   5.252  0.5382  0.5293 -0.3082
  779MOL0     C 2745   2.166   4.537   5.230  0.6357 -0.6074 -0.1633
  779MOL0     N 2746   1.518   4.483   4.722 -0.3388 -0.0824 -0.1839
  779MOL0     N 2747   1.469   4.419   4.628  0.1757 -0.1059  0.0400
  779MOL0     C 2748   2.464   3.732   4.397  0.5308  0.5881 -0.2560
  779MOL0     C 2749   2.601   3.721   4.351  0.3334 -0.2458  0.4434
  779MOL0     C 2750   3.056   3.640   4.348 -0.8174 -0.5122 -0.1805
  779MOL0     C 2751   3.129   3.733   4.425  0.2749  0.0423 -0.3005
  779MOL0     C 2752   3.270   3.729   4.420 -0.2980 -0.6392 -0.1334
  779MOL0     C 2753   3.339   3.651   4.329  0.3353  0.3278  0.0125
  779MOL0     O 2754   3.476   3.642   4.314  0.2395 -0.6935  0.7702
  779MOL0     C 2755   3.548   3.758   4.359 -1.1939  0.6006  0.2078
  779MOL0     C 2756   3.701   3.749   4.325 -0.3562  0.5751  0.5588
  779MOL0     C 2757   3.757   3.607   4.359  0.2435 -0.0469 -0.8247
  779MOL0     C 2758   3.906   3.609   4.333 -0.0911  0.0855 -0.1310
  779MOL0     C 2759   3.965   3.472   4.330 -0.4458  0.1480  0.4430
  779MOL0     C 2760   3.996   3.356   4.342 -0.1255 -0.8012  0.1482
  779MOL0     C 2761   3.265   3.560   4.263 -0.0560 -0.4017 -0.1912
  779MOL0     C 2762   3.127   3.553   4.270  0.8187  0.4428 -0.7964
  779MOL0     H 2763   2.777   3.752   4.633  0.8822 -0.5719 -0.3250
  779MOL0     H 2764   2.534   3.773   4.721  1.4155  0.9393  0.6434
  779MOL0     H 2765   2.197   3.722   4.431  0.0248 -0.9336  1.0984
  779MOL0     H 2766   2.253   3.896   4.457  0.7760 -0.4898 -2.6343
  779MOL0     H 2767   2.119   3.895   4.662 -1.6780 -0.2963 -0.2733
  779MOL0     H 2768   2.028   3.749   4.622  2.1810 -1.3450  0.0244
  779MOL0     H 2769   1.939   3.829   4.421  1.0070 -0.8961 -0.4181
  779MOL0     H 2770   2.017   3.983   4.439 -2.0065  0.5329 -1.1416
  779MOL0     H 2771   1.826   3.889   4.666 -2.5027  2.0427  1.7478
  779MOL0     H 2772   1.874   4.052   4.631 -0.2907  0.7851 -0.5180
  779MOL0     H 2773   1.691   3.877   4.450  0.0150  0.7002 -1.4956
  779MOL0     H 2774   1.760   4.039   4.406  0.2994 -1.4703 -0.8899
  779MOL0     H 2775   1.670   4.115   4.629 -0.8485  0.5302  0.2742
  779MOL0     H 2776   1.579   3.963   4.643 -1.2835  1.5900  0.2275
  779MOL0     H 2777   1.540   4.179   4.429  0.1759  1.4501  0.6193
  779MOL0     H 2778   1.439   4.029   4.454 -2.2360  0.4501  1.8226
  779MOL0     H 2779   1.345   4.107   4.644 -1.2419 -0.0286 -0.4786
  779MOL0     H 2780   1.319   4.226   4.517  0.7830 -0.6372 -0.2032
  779MOL0     H 2781   1.503   4.198   4.866  1.6564  0.1928 -0.8352
  779MOL0     H 2782   1.540   4.359   5.044 -1.6635 -1.5610 -2.8787
  779MOL0     H 2783   1.496   4.525   5.023 -1.2353 -2.1654  1.7049
  779MOL0     H 2784   1.740   4.563   4.932 -1.4157 -0.6937 -2.2686
  779MOL0     H 2785   1.768   4.393   4.964  0.1968  0.3992 -1.2075
  779MOL0     H 2786   1.704   4.615   5.169  2.5434  0.7279  1.4554
  779MOL0     H 2787   1.718   4.435   5.211  3.4059  0.1804  3.1144
  779MOL0     H 2788   1.917   4.628   5.200 -2.3767  1.6464 -1.1462
  779MOL0     H 2789   1.935   4.532   5.056 -1.7609  1.5697 -0.3191
  779MOL0     H 2790   2.090   4.220   5.341 -0.4835 -0.4587 -0.8249
  779MOL0     H 2791   2.317   4.221   5.369  2.0229  1.4216 -0.4936
  779MOL0     H 2792   2.751   4.437   5.502 -0.6406  0.1475  0.3201
  779MOL0     H 2793   3.002   4.461   5.498 -0.8054 -0.6336 -0.6517
  779MOL0     H 2794   3.191   4.331   5.335  1.9586 -0.6037 -0.5544
  779MOL0     H 2795   3.207   4.438   5.467 -0.1356  2.1388 -0.5057
  779MOL0     H 2796   3.375   4.551   5.288 -0.9964 -0.8957 -2.0142
  779MOL0     H 2797   3.355   4.400   5.208  0.0217  1.4988 -1.3219
  779MOL0     H 2798   3.442   4.289   5.410 -3.8049  1.2396 -0.4515
  779MOL0     H 2799   3.466   4.453   5.486 -1.5910  0.5765  0.2630
  779MOL0     H 2800   3.602   4.368   5.221  0.2309  1.5181 -0.0281
  779MOL0     H 2801   3.603   4.522   5.295 -1.1408 -0.2008 -0.9654
  779MOL0     H 2802   3.697   4.415   5.508 -0.0240 -0.0997 -0.0013
  779MOL0     H 2803   3.793   4.438   5.357 -0.8006  1.2848  0.2569
  779MOL0     H 2804   3.749   4.194   5.296 -3.2808  4.1409 -1.1726
  779MOL0     H 2805   3.678   4.167   5.456 -1.5285  0.5453 -1.7055
  779MOL0     H 2806   3.942   4.127   5.405  2.7623  1.3526  1.6331
  779MOL0     H 2807   3.961   4.301   5.412  0.3192  0.1867  0.0849
  779MOL0     H 2808   3.867   4.120   5.634  0.5195  0.0467  2.4396
  779MOL0     H 2809   3.836   4.290   5.644 -2.9724 -2.7623 -0.0120
  779MOL0     H 2810   2.985   4.633   5.113 -0.6668  0.3146 -0.4103
  779MOL0     H 2811   2.743   4.602   5.103  1.6473 -0.5558 -0.5590
  779MOL0     H 2812   2.372   4.612   5.217 -0.5786  0.3833 -2.7921
  779MOL0     H 2813   2.134   4.639   5.212 -2.1486 -1.3293  0.3613
  779MOL0     H 2814   2.388   3.731   4.320  0.8805  2.2174 -0.6592
  779MOL0     H 2815   2.624   3.692   4.249  1.4841 -1.0654  0.9216
  779MOL0     H 2816   3.074   3.791   4.499 -0.1680 -1.0457  0.2434
  779MOL0     H 2817   3.314   3.805   4.485 -1.0837  1.1931 -1.6379
  779MOL0     H 2818   3.535   3.765   4.468 -1.8180  2.8258  0.0383
  779MOL0     H 2819   3.507   3.849   4.314 -0.4179  0.5533 -0.6207
  779MOL0     H 2820   3.714   3.767   4.218 -1.3922  1.2552  0.5338
  779MOL0     H 2821   3.757   3.831   4.371  1.9266 -0.5512 -0.0499
  779MOL0     H 2822   3.720   3.526   4.296  0.3747 -1.7523  1.1742
  779MOL0     H 2823   3.743   3.590   4.466  0.1945  0.1376 -0.8019
  779MOL0     H 2824   3.926   3.643   4.231  2.6387 -0.6656  0.0675
  779MOL0     H 2825   3.953   3.676   4.406 -0.1353  1.2002 -1.1037
  779MOL0     H 2826   4.012   3.250   4.335 -0.5017 -0.8104 -0.8259
  779MOL0     H 2827   3.319   3.477   4.219 -1.7638 -3.7475  3.3858
  779MOL0     H 2828   3.073   3.473   4.220  2.7651 -0.7355 -1.1261
  780MOL0     O 2829   7.731   3.004   4.913  0.6573  0.8324  0.0765
  780MOL0     C 2830   7.680   3.081   4.998  0.2556  0.1826  0.6562
  780MOL0     O 2831   7.747   3.187   5.053 -0.5786  0.0944  0.3490
  780MOL0     C 2832   7.885   3.197   5.041 -0.5601 -0.2292  0.0524
  780MOL0     C 2833   7.934   3.317   5.000  0.3784 -0.5697  0.3752
  780MOL0     C 2834   8.073   3.345   4.987  0.3495  0.8898 -0.3081
  780MOL0     C 2835   8.161   3.241   5.020 -0.3818 -0.8222  0.1008
  780MOL0     O 2836   8.297   3.277   5.010  0.2816  0.5622  0.2642
  780MOL0     C 2837   8.398   3.187   5.050 -0.1899 -0.1517  0.9632
  780MOL0     C 2838   8.539   3.240   5.010  0.3865  0.4108 -0.7998
  780MOL0     C 2839   8.616   3.306   5.120  0.2677  0.0940 -0.1106
  780MOL0     C 2840   8.758   3.339   5.086  0.2351 -1.0181 -0.0895
  780MOL0     C 2841   8.849   3.302   5.199 -0.0891  0.6028 -0.1756
  780MOL0     C 2842   8.985   3.356   5.165  0.2849  0.6890 -0.8455
  780MOL0     C 2843   9.085   3.320   5.272  0.1770 -0.7274 -0.2717
  780MOL0     C 2844   9.216   3.399   5.260  0.1346  0.4104 -0.1709
  780MOL0     N 2845   9.274   3.402   5.124  0.9130  1.0963  0.6002
  780MOL0     C 2846   9.356   3.495   5.083 -0.4582  0.4849  0.0998
  780MOL0     C 2847   9.387   3.467   4.958  0.0085  0.0325 -0.4423
  780MOL0     C 2848   9.495   3.537   4.880  0.1571 -0.6377  0.3768
  780MOL0     C 2849   9.454   3.567   4.731 -0.1494  0.2457  1.1033
  780MOL0     C 2850   9.343   3.683   4.721 -0.5046 -0.8247 -0.1412
  780MOL0     C 2851   9.200   3.628   4.728 -0.1478  0.3698 -0.1838
  780MOL0     O 2852   9.136   3.612   4.600 -0.1205  0.1204 -0.5859
  780MOL0     C 2853   9.009   3.561   4.587 -0.2258 -0.4275 -0.9158
  780MOL0     C 2854   8.929   3.517   4.695 -0.3114  0.0426  0.3024
  780MOL0     C 2855   8.800   3.464   4.676 -0.0595 -1.3038  0.0713
  780MOL0     C 2856   8.744   3.461   4.549  0.2081 -0.2832 -0.3809
  780MOL0     C 2857   8.614   3.396   4.521  0.8762  0.0698  0.2370
  780MOL0     O 2858   8.532   3.359   4.629  0.3768  0.1323 -0.0778
  780MOL0     C 2859   8.394   3.344   4.608 -0.5278 -0.2655 -0.1691
  780MOL0     C 2860   8.331   3.227   4.651  0.3071  0.0754 -1.0442
  780MOL0     C 2861   8.191   3.216   4.640  0.6789  0.3625  0.5536
  780MOL0     C 2862   8.112   3.322   4.588 -0.5495 -0.4216 -0.2985
  780MOL0     O 2863   7.984   3.333   4.581 -0.8914 -0.1921  0.3790
  780MOL0     C 2864   7.900   3.223   4.617  0.0507 -0.1656 -1.0337
  780MOL0     C 2865   7.763   3.244   4.542  0.3180  0.0118  0.2189
  780MOL0     C 2866   7.644   3.213   4.631  0.8067  0.3647 -0.9595
  780MOL0     C 2867   7.509   3.240   4.554  0.5389  0.3232  0.2483
  780MOL0     C 2868   7.395   3.199   4.644 -0.6746  0.4224 -0.4009
  780MOL0     C 2869   7.260   3.219   4.580  0.5494 -0.2222  0.5686
  780MOL0     C 2870   7.151   3.214   4.694  0.2400 -0.0282  0.1103
  780MOL0     C 2871   7.013   3.288   4.652  0.2970  0.1075  0.0060
  780MOL0    Cl 2872   6.957   3.202   4.505  0.2624 -0.2766  0.3208
  780MOL0     C 2873   8.184   3.436   4.535  0.3835  0.1840 -0.3028
  780MOL0     C 2874   8.319   3.441   4.541  0.4324 -0.0054  0.3275
  780MOL0     O 2875   8.572   3.402   4.406  0.2496 -0.8440 -0.5296
  780MOL0     C 2876   8.826   3.517   4.444  0.6630 -0.2543 -0.0887
  780MOL0     C 2877   8.960   3.563   4.462  0.4513  0.5006  0.3464
  780MOL0     N 2878   9.327   3.348   4.925  0.6969  0.6274 -0.2154
  780MOL0     N 2879   9.252   3.307   5.023 -0.5753 -0.3171  0.3585
  780MOL0     C 2880   8.112   3.110   5.059  0.0978 -0.3540  0.2873
  780MOL0     C 2881   7.975   3.091   5.070  0.0162 -0.7439 -0.6536
  780MOL0     C 2882   7.529   3.064   5.018  0.3712  1.6129  0.3523
  780MOL0     C 2883   7.445   2.984   4.942  0.4332 -0.4666 -0.2316
  780MOL0     C 2884   7.307   2.978   4.957  0.0809  0.1803 -0.0285
  780MOL0     C 2885   7.241   3.049   5.056  0.1488  1.3143  0.3942
  780MOL0     O 2886   7.101   3.019   5.057 -0.2235 -0.6330 -0.3271
  780MOL0     C 2887   7.026   3.103   5.151  0.2207 -0.2506  0.3314
  780MOL0     C 2888   6.877   3.089   5.114 -0.0766 -0.6252  0.9888
  780MOL0     C 2889   6.858   3.114   4.958 -0.1321 -0.8743 -0.0065
  780MOL0     C 2890   6.722   3.058   4.919 -0.2155 -0.6156  0.3278
  780MOL0     C 2891   6.603   3.116   4.993  0.3446  0.1578  0.0214
  780MOL0     C 2892   6.526   3.166   5.072  1.3193  0.3557 -0.0009
  780MOL0     C 2893   7.320   3.130   5.138 -0.3172  0.3211  0.3933
  780MOL0     C 2894   7.460   3.136   5.114  0.0832  0.2779 -0.2575
  780MOL0     H 2895   7.857   3.391   4.983  1.6425  0.6110 -0.4203
  780MOL0     H 2896   8.117   3.442   4.966  1.2877  0.0907 -2.2514
  780MOL0     H 2897   8.386   3.097   4.989  1.1881  1.4096 -1.7831
  780MOL0     H 2898   8.394   3.153   5.154 -0.4063 -1.7263  0.4651
  780MOL0     H 2899   8.532   3.302   4.920 -1.5216  1.2079 -0.1437
  780MOL0     H 2900   8.605   3.154   4.993 -0.7730 -0.4001 -1.3377
  780MOL0     H 2901   8.611   3.237   5.204 -2.2441 -1.3590 -1.3334
  780MOL0     H 2902   8.569   3.402   5.147  1.9425  0.7097  0.7520
  780MOL0     H 2903   8.791   3.270   5.007  1.4964 -0.1127 -0.3723
  780MOL0     H 2904   8.765   3.446   5.065 -0.8121 -0.3786  2.4764
  780MOL0     H 2905   8.856   3.193   5.211  0.6720  0.4071 -2.1250
  780MOL0     H 2906   8.813   3.335   5.297 -0.8676  3.0130 -1.2004
  780MOL0     H 2907   8.992   3.462   5.140  3.2123  0.8152  0.1102
  780MOL0     H 2908   9.007   3.306   5.070  1.5968 -1.2399  0.3919
  780MOL0     H 2909   9.029   3.354   5.360  1.3840  3.3643 -0.8495
  780MOL0     H 2910   9.101   3.212   5.269  0.3359 -0.6925 -0.6044
  780MOL0     H 2911   9.284   3.341   5.324  3.9750  4.4778 -0.1180
  780MOL0     H 2912   9.205   3.498   5.304  0.8593 -0.3240  1.7764
  780MOL0     H 2913   9.397   3.568   5.152  0.6799 -0.5439  0.5528
  780MOL0     H 2914   9.593   3.489   4.875  0.0467 -0.9396  0.9906
  780MOL0     H 2915   9.512   3.635   4.927 -0.4822  1.0230 -2.5879
  780MOL0     H 2916   9.421   3.482   4.670  2.0173  0.9721 -1.2532
  780MOL0     H 2917   9.548   3.600   4.686  0.9332  0.3598  3.3162
  780MOL0     H 2918   9.367   3.755   4.800  3.8878 -1.6813 -0.4578
  780MOL0     H 2919   9.355   3.739   4.628  1.9860  0.2440  0.7417
  780MOL0     H 2920   9.142   3.689   4.799  2.4885  1.6346  1.0297
  780MOL0     H 2921   9.209   3.529   4.774  1.1792  0.5239 -0.0742
  780MOL0     H 2922   8.960   3.531   4.798  0.1003 -1.2710  0.3795
  780MOL0     H 2923   8.739   3.426   4.758  1.1645  0.0537  1.7073
  780MOL0     H 2924   8.382   3.136   4.682 -2.0334 -0.6317  1.0675
  780MOL0     H 2925   8.143   3.123   4.672 -0.1995  0.3421 -0.7254
  780MOL0     H 2926   7.888   3.216   4.725 -1.1528  2.7528 -0.8939
  780MOL0     H 2927   7.935   3.125   4.584  2.3899 -0.2702  1.4232
  780MOL0     H 2928   7.756   3.188   4.448 -1.2119  3.5350 -2.0240
  780MOL0     H 2929   7.754   3.349   4.511 -0.4446  0.1552  0.8808
  780MOL0     H 2930   7.638   3.286   4.713 -1.7986 -1.3601  0.5022
  780MOL0     H 2931   7.655   3.110   4.666 -2.4252 -0.1776 -1.2907
  780MOL0     H 2932   7.501   3.349   4.542  2.0728  0.4560  0.3096
  780MOL0     H 2933   7.504   3.192   4.456  1.1318  0.3006  0.2297
  780MOL0     H 2934   7.403   3.264   4.731  0.6190  0.6519 -0.6791
  780MOL0     H 2935   7.399   3.094   4.673 -1.5219  0.5506  0.2273
  780MOL0     H 2936   7.244   3.138   4.509 -1.1966 -0.8083  1.5763
  780MOL0     H 2937   7.248   3.313   4.525 -3.1609 -1.9112 -1.8954
  780MOL0     H 2938   7.123   3.111   4.718  0.1264  0.0133  0.1533
  780MOL0     H 2939   7.177   3.258   4.791  1.9516  3.0223 -1.5671
  780MOL0     H 2940   7.033   3.392   4.625 -2.9976  1.2955  1.6180
  780MOL0     H 2941   6.942   3.292   4.735  0.6157  0.2634  0.2764
  780MOL0     H 2942   8.128   3.514   4.484  1.1712 -0.0534 -1.5641
  780MOL0     H 2943   8.363   3.530   4.495  3.1195 -1.6032 -0.4524
  780MOL0     H 2944   8.789   3.516   4.342 -0.2944 -0.2693  0.2486
  780MOL0     H 2945   9.028   3.599   4.386  1.6771 -0.5235  0.9301
  780MOL0     H 2946   8.180   3.030   5.086  2.5965  1.1042 -1.2879
  780MOL0     H 2947   7.950   2.990   5.102  1.3341 -0.7881  0.2871
  780MOL0     H 2948   7.499   2.924   4.870  1.6264 -0.3214  0.5254
  780MOL0     H 2949   7.249   2.907   4.899 -0.9999  0.6432  0.4643
  780MOL0     H 2950   7.072   3.202   5.144  2.0076 -1.0115  0.7624
  780MOL0     H 2951   7.044   3.065   5.251  0.3186  0.1883  0.4831
  780MOL0     H 2952   6.838   2.990   5.141 -1.9043  0.4571  2.6237
  780MOL0     H 2953   6.821   3.161   5.175 -0.7696 -0.8831  0.6664
  780MOL0     H 2954   6.934   3.060   4.901 -0.5230 -1.4718  0.0389
  780MOL0     H 2955   6.870   3.216   4.920 -1.8965 -0.7706 -0.3551
  780MOL0     H 2956   6.698   3.075   4.814 -2.5645  0.6528  1.0068
  780MOL0     H 2957   6.714   2.949   4.932 -1.5919 -0.2945  2.9151
  780MOL0     H 2958   6.457   3.211   5.140 -1.0206 -0.7538 -1.5117
  780MOL0     H 2959   7.280   3.191   5.218  0.8839  0.4276  0.9199
  780MOL0     H 2960   7.525   3.199   5.174  0.1783 -0.0530 -0.0094
  781MOL0     O 2961   9.161   4.711   7.928  0.1636 -0.4512 -0.3577
  781MOL0     C 2962   9.203   4.808   7.864 -1.7723  0.6746 -0.2951
  781MOL0     O 2963   9.125   4.891   7.791 -0.4364  0.1758 -0.2816
  781MOL0     C 2964   8.992   4.875   7.797 -0.6420  0.7089  0.0259
  781MOL0     C 2965   8.927   4.821   7.683  1.1870  0.1520 -0.4427
  781MOL0     C 2966   8.788   4.820   7.687  0.2099 -0.4240  0.0164
  781MOL0     C 2967   8.713   4.879   7.785 -0.6381 -0.5979 -0.5023
  781MOL0     O 2968   8.576   4.888   7.776 -0.6943  0.3012 -0.0233
  781MOL0     C 2969   8.513   4.779   7.848 -0.3551  0.0787 -0.4451
  781MOL0     C 2970   8.388   4.762   7.775 -0.0160  0.6423  0.6569
  781MOL0     C 2971   8.296   4.881   7.764  0.6057 -0.5112 -0.4811
  781MOL0     C 2972   8.253   4.952   7.893 -0.1452  0.6284 -0.0666
  781MOL0     C 2973   8.147   5.052   7.876  0.4009  0.2845  0.4616
  781MOL0     C 2974   8.071   5.098   8.006 -0.6867  0.1004  0.2142
  781MOL0     C 2975   7.959   5.198   7.982  0.5508 -0.6981 -0.9607
  781MOL0     C 2976   7.834   5.135   7.919  1.2628  0.5031  0.6162
  781MOL0     N 2977   7.727   5.231   7.901 -0.5242  0.3482 -0.3344
  781MOL0     C 2978   7.664   5.287   8.010  0.8542  0.4742 -0.6532
  781MOL0     C 2979   7.583   5.373   7.958 -0.2843 -0.3324 -0.3712
  781MOL0     C 2980   7.488   5.458   8.038  0.0837  0.1726  0.0390
  781MOL0     C 2981   7.365   5.374   8.071 -0.3754  0.0191  0.0137
  781MOL0     C 2982   7.246   5.459   8.133  0.2494 -0.0150  0.2804
  781MOL0     C 2983   7.130   5.375   8.176  0.3399  0.5476  0.6955
  781MOL0     O 2984   7.058   5.323   8.060 -1.0131  0.0154 -0.0070
  781MOL0     C 2985   6.957   5.391   8.012  0.2430  0.4976  0.4779
  781MOL0     C 2986   6.981   5.471   7.902  0.1592  0.5996 -0.4073
  781MOL0     C 2987   6.883   5.547   7.845 -0.0216 -0.5286 -0.6833
  781MOL0     C 2988   6.753   5.540   7.898  0.1328  0.1984 -0.4195
  781MOL0     C 2989   6.638   5.603   7.829 -0.6535 -0.1446 -0.5003
  781MOL0     O 2990   6.530   5.615   7.913  0.7834  0.1119 -0.1461
  781MOL0     C 2991   6.399   5.652   7.863  0.5494  0.2587 -0.0080
  781MOL0     C 2992   6.305   5.697   7.955  0.0185  0.3740 -0.7323
  781MOL0     C 2993   6.173   5.710   7.908 -0.7387  0.0564  0.9166
  781MOL0     C 2994   6.141   5.689   7.777 -0.3422 -0.6238 -0.3443
  781MOL0     O 2995   6.017   5.685   7.729 -0.7300 -0.1556  0.2457
  781MOL0     C 2996   5.927   5.785   7.791 -0.0153  0.6919 -0.0642
  781MOL0     C 2997   5.799   5.742   7.710  0.1222 -0.5004  0.1789
  781MOL0     C 2998   5.679   5.833   7.732 -0.2146 -0.2121 -0.1234
  781MOL0     C 2999   5.556   5.807   7.650  0.2544  0.4202 -0.2657
  781MOL0     C 3000   5.500   5.659   7.648 -0.0406 -0.0393 -0.5796
  781MOL0     C 3001   5.358   5.651   7.586  0.2358  0.4799  0.5862
  781MOL0     C 3002   5.285   5.544   7.665 -0.3653 -0.3050  0.2672
  781MOL0     C 3003   5.143   5.508   7.625  0.1923 -0.2856  0.1294
  781MOL0    Cl 3004   5.030   5.646   7.602  0.0553 -0.0559  0.1965
  781MOL0     C 3005   6.239   5.656   7.687  0.5462 -0.2962 -0.0574
  781MOL0     C 3006   6.364   5.632   7.731 -0.2724 -0.8631  0.6418
  781MOL0     O 3007   6.657   5.647   7.718  0.0212 -0.2219 -0.2534
  781MOL0     C 3008   6.726   5.456   8.007 -0.6719  0.1962 -0.0759
  781MOL0     C 3009   6.833   5.388   8.069 -0.6352  0.6952  0.2913
  781MOL0     N 3010   7.602   5.375   7.822  0.2980 -0.3638 -0.2399
  781MOL0     N 3011   7.688   5.292   7.785 -0.9206  0.2420 -0.7035
  781MOL0     C 3012   8.781   4.938   7.886 -0.7164 -0.8286 -0.1052
  781MOL0     C 3013   8.920   4.929   7.902  0.5307 -0.2504 -0.0743
  781MOL0     C 3014   9.345   4.826   7.860 -0.8218  0.7119  0.3003
  781MOL0     C 3015   9.404   4.898   7.761  0.2587  0.0882  0.5839
  781MOL0     C 3016   9.543   4.913   7.769  0.1236 -0.3010 -0.1309
  781MOL0     C 3017   9.629   4.835   7.853  0.0929  0.1119 -0.3628
  781MOL0     O 3018   9.765   4.854   7.846  0.4408  0.1504  0.2679
  781MOL0     C 3019   9.848   4.812   7.954 -0.4603 -1.0200  0.1766
  781MOL0     C 3020   9.991   4.857   7.911  0.1548  0.7160 -0.6833
  781MOL0     C 3021  10.049   4.781   7.789 -0.3365  0.5665  0.4300
  781MOL0     C 3022  10.189   4.856   7.758  0.3783 -0.1626  0.0768
  781MOL0     C 3023  10.288   4.856   7.866  0.2465 -0.3127  0.3563
  781MOL0     C 3024  10.374   4.843   7.941  0.1492 -0.2223 -0.5346
  781MOL0     C 3025   9.567   4.746   7.949  0.1400 -0.2758  0.6451
  781MOL0     C 3026   9.426   4.752   7.955 -0.0028 -0.2704 -0.7014
  781MOL0     H 3027   8.989   4.794   7.599 -0.1887 -0.0793 -1.4218
  781MOL0     H 3028   8.733   4.779   7.602  1.7095 -3.8045  0.5318
  781MOL0     H 3029   8.498   4.804   7.953 -0.9328  0.1688 -0.5424
  781MOL0     H 3030   8.577   4.691   7.847 -0.0874  0.2648  0.0243
  781MOL0     H 3031   8.342   4.670   7.814 -0.4843  1.4120  1.9755
  781MOL0     H 3032   8.420   4.726   7.676 -0.3716 -0.5168  0.9495
  781MOL0     H 3033   8.207   4.846   7.710  0.1489 -0.8884  0.4953
  781MOL0     H 3034   8.350   4.964   7.716  1.6968 -0.2658  1.1240
  781MOL0     H 3035   8.209   4.876   7.959  0.8843  1.5040  1.6943
  781MOL0     H 3036   8.338   4.993   7.949 -0.5099 -2.4306  3.0635
  781MOL0     H 3037   8.070   5.007   7.813  0.0129 -0.4615  1.4343
  781MOL0     H 3038   8.184   5.136   7.817  1.5631 -3.2196 -4.4235
  781MOL0     H 3039   8.138   5.157   8.069  0.9457  0.0492 -1.3733
  781MOL0     H 3040   8.042   5.007   8.059  0.9030 -0.1830  0.6726
  781MOL0     H 3041   7.916   5.235   8.076 -0.2028 -1.1562 -1.1129
  781MOL0     H 3042   8.005   5.283   7.930  1.2717 -0.4974 -0.0159
  781MOL0     H 3043   7.807   5.052   7.985 -0.5767  0.8365  0.3378
  781MOL0     H 3044   7.865   5.087   7.826 -0.1599 -1.2468  0.9943
  781MOL0     H 3045   7.683   5.263   8.114 -0.5557  3.9912  0.5850
  781MOL0     H 3046   7.457   5.549   7.986 -3.3934  0.0736  1.5923
  781MOL0     H 3047   7.548   5.493   8.123  0.9369  0.5405 -0.7077
  781MOL0     H 3048   7.393   5.301   8.147 -3.4044  0.0730  1.3075
  781MOL0     H 3049   7.330   5.325   7.980 -0.6970 -2.0446  1.1949
  781MOL0     H 3050   7.279   5.514   8.222 -1.9969  0.2348  1.0047
  781MOL0     H 3051   7.228   5.543   8.067  0.1724 -1.5595 -1.7537
  781MOL0     H 3052   7.067   5.427   8.249 -0.7466 -2.3730  1.9909
  781MOL0     H 3053   7.174   5.301   8.243  0.6089  1.0793  1.1128
  781MOL0     H 3054   7.083   5.467   7.864  0.4687  0.2379  0.4338
  781MOL0     H 3055   6.906   5.621   7.769  4.1096 -1.7337 -0.8645
  781MOL0     H 3056   6.339   5.735   8.051  3.1072  0.5037 -1.7702
  781MOL0     H 3057   6.097   5.740   7.980 -1.1618 -0.8039  0.8388
  781MOL0     H 3058   5.957   5.887   7.766  1.2129  0.3723  0.0071
  781MOL0     H 3059   5.905   5.776   7.897 -2.3257 -0.2286 -0.5654
  781MOL0     H 3060   5.778   5.645   7.756  1.4811  0.0152  2.0012
  781MOL0     H 3061   5.825   5.728   7.604  2.4557 -1.8815  0.8485
  781MOL0     H 3062   5.711   5.937   7.726 -0.2875 -0.2760 -2.0988
  781MOL0     H 3063   5.651   5.809   7.835 -2.1067 -2.2555 -1.0341
  781MOL0     H 3064   5.475   5.868   7.691 -0.6363  1.4117 -3.2391
  781MOL0     H 3065   5.575   5.846   7.549 -1.0434 -0.1981 -0.7695
  781MOL0     H 3066   5.501   5.635   7.755  0.7669 -0.7973 -0.7457
  781MOL0     H 3067   5.566   5.587   7.598 -1.1190 -2.8669  1.8074
  781MOL0     H 3068   5.373   5.630   7.480 -0.5318  1.1315  0.3385
  781MOL0     H 3069   5.296   5.740   7.595 -3.1269 -1.7199  0.7173
  781MOL0     H 3070   5.353   5.458   7.667  1.7297  1.2796  1.3249
  781MOL0     H 3071   5.277   5.574   7.770  0.7153 -0.9228  0.5409
  781MOL0     H 3072   5.099   5.445   7.703 -0.7763  3.0881  2.5546
  781MOL0     H 3073   5.152   5.456   7.530  2.9843 -3.1013  1.7481
  781MOL0     H 3074   6.215   5.627   7.585 -1.2306  0.7740  0.0136
  781MOL0     H 3075   6.437   5.596   7.660 -0.8719 -1.3441  0.2536
  781MOL0     H 3076   6.628   5.454   8.054 -0.6733  1.7514  0.0632
  781MOL0     H 3077   6.820   5.332   8.161  0.9352  1.3293  0.9396
  781MOL0     H 3078   8.721   4.992   7.958 -0.3489 -0.0353 -0.3870
  781MOL0     H 3079   8.968   4.970   7.990 -2.3967 -1.2951  2.1578
  781MOL0     H 3080   9.335   4.934   7.686  2.8299  1.3441 -1.3398
  781MOL0     H 3081   9.575   4.974   7.685  0.4426 -0.8739 -0.4290
  781MOL0     H 3082   9.858   4.703   7.959  2.7523 -0.8332 -0.0202
  781MOL0     H 3083   9.814   4.861   8.045 -0.0885  2.2293 -1.2896
  781MOL0     H 3084   9.994   4.965   7.892  0.7505  0.3833 -2.6541
  781MOL0     H 3085  10.061   4.841   7.993 -1.5694 -0.9212  0.5561
  781MOL0     H 3086   9.986   4.793   7.700  1.8650  0.0540 -1.2804
  781MOL0     H 3087  10.053   4.676   7.819 -1.1548  0.6294  0.7890
  781MOL0     H 3088  10.244   4.795   7.685  0.4109 -0.3103  0.2244
  781MOL0     H 3089  10.168   4.954   7.716 -0.3399 -0.4679 -0.2961
  781MOL0     H 3090  10.468   4.847   7.992 -0.1787 -2.8069  0.4152
  781MOL0     H 3091   9.634   4.675   7.997  0.0804 -2.2595 -1.9908
  781MOL0     H 3092   9.386   4.708   8.045 -0.1450  3.5955  1.3177
  782MOL0     O 3093   0.546   7.081   0.347 -0.9704 -0.3842 -0.5985
  782MOL0     C 3094   0.613   7.178   0.389 -0.5460 -0.0136 -0.4804
  782MOL0     O 3095   0.559   7.289   0.453  0.3650  0.4305 -0.3156
  782MOL0     C 3096   0.423   7.288   0.484  0.0168 -0.4525 -0.5865
  782MOL0     C 3097   0.320   7.251   0.397 -0.8378  0.2474 -0.3804
  782MOL0     C 3098   0.184   7.245   0.433  0.9142  0.0750 -1.0671
  782MOL0     C 3099   0.156   7.288   0.570  0.4454 -0.4832  0.5116
  782MOL0     O 3100   0.035   7.263   0.632  0.2610  0.7350  0.0257
  782MOL0     C 3101  -0.081   7.249   0.551  0.0885 -0.0809  0.5598
  782MOL0     C 3102  -0.205   7.273   0.636 -0.1427 -1.0494  0.0695
  782MOL0     C 3103  -0.324   7.244   0.545  0.1913 -0.2046  0.0599
  782MOL0     C 3104  -0.449   7.254   0.639  0.0385 -0.2358  0.2914
  782MOL0     C 3105  -0.578   7.216   0.566  0.7739  0.4209  0.9723
  782MOL0     C 3106  -0.704   7.290   0.613  0.7956  0.3705 -0.6224
  782MOL0     C 3107  -0.830   7.252   0.532  0.2306  0.2056  0.7654
  782MOL0     C 3108  -0.924   7.371   0.519  0.9273 -0.9219 -0.6340
  782MOL0     N 3109  -1.058   7.330   0.485 -0.3004  0.5098  1.4682
  782MOL0     C 3110  -1.162   7.318   0.569 -0.0192  0.2005 -0.0406
  782MOL0     C 3111  -1.259   7.263   0.499 -0.0549  0.4124  0.2812
  782MOL0     C 3112  -1.412   7.250   0.536 -0.4448  0.4882  0.2320
  782MOL0     C 3113  -1.482   7.135   0.461 -0.3943  0.0806  0.1077
  782MOL0     C 3114  -1.633   7.117   0.502 -0.9547 -0.4523 -0.3139
  782MOL0     C 3115  -1.699   6.995   0.445 -0.8274 -1.2060 -0.7270
  782MOL0     O 3116  -1.721   7.030   0.306 -0.1698 -1.2460 -0.1377
  782MOL0     C 3117  -1.825   6.964   0.246  0.8279  0.6493  0.2366
  782MOL0     C 3118  -1.907   7.030   0.149 -0.3527  0.5814 -0.0227
  782MOL0     C 3119  -2.020   6.974   0.102 -0.7342  0.1993 -0.1726
  782MOL0     C 3120  -2.063   6.846   0.151 -0.5460  0.4840 -0.1158
  782MOL0     C 3121  -2.194   6.787   0.105  1.0301 -0.2211  1.0288
  782MOL0     O 3122  -2.222   6.661   0.154  0.0546 -0.3077  0.2938
  782MOL0     C 3123  -2.341   6.602   0.128 -0.3788 -0.1639  0.2244
  782MOL0     C 3124  -2.429   6.581   0.224  0.5499  0.5599  0.0039
  782MOL0     C 3125  -2.554   6.520   0.205  0.0964 -0.2433  0.0465
  782MOL0     C 3126  -2.584   6.479   0.074  0.0024  0.6323  0.1459
  782MOL0     O 3127  -2.696   6.415   0.042  0.3971 -0.2100  0.1288
  782MOL0     C 3128  -2.792   6.512   0.010  0.1786 -0.4414 -0.5151
  782MOL0     C 3129  -2.931   6.451  -0.009  0.5104  0.0042 -0.5462
  782MOL0     C 3130  -2.992   6.416   0.125 -0.5656  0.1217 -0.2314
  782MOL0     C 3131  -3.131   6.366   0.111 -0.4101  0.3079 -0.3916
  782MOL0     C 3132  -3.206   6.372   0.239 -0.4282 -0.2895  0.5152
  782MOL0     C 3133  -3.174   6.258   0.341 -0.0873  0.1330  0.2161
  782MOL0     C 3134  -3.263   6.270   0.467  0.2251  0.1784  0.3825
  782MOL0     C 3135  -3.197   6.362   0.560 -0.3095 -0.1979 -0.2112
  782MOL0    Cl 3136  -3.321   6.408   0.679  0.3480  0.3197  0.1093
  782MOL0     C 3137  -2.492   6.508  -0.036 -0.2888 -1.1184  0.0196
  782MOL0     C 3138  -2.373   6.569  -0.008  0.6035 -0.2440 -0.1314
  782MOL0     O 3139  -2.263   6.857   0.032 -0.4030  0.1062 -0.8194
  782MOL0     C 3140  -1.989   6.782   0.242 -0.2805 -0.3356 -0.5288
  782MOL0     C 3141  -1.869   6.842   0.296 -0.3146 -0.5346  0.7289
  782MOL0     N 3142  -1.213   7.238   0.371  0.2456 -0.1575  0.1519
  782MOL0     N 3143  -1.088   7.272   0.366  0.6563  0.2903  0.3195
  782MOL0     C 3144   0.262   7.340   0.651  0.5541  1.1346 -0.8221
  782MOL0     C 3145   0.391   7.347   0.614 -0.2115  0.0331  0.5682
  782MOL0     C 3146   0.752   7.180   0.362 -0.1700  0.1004 -0.5965
  782MOL0     C 3147   0.836   7.256   0.440  0.0007 -0.2492  0.1710
  782MOL0     C 3148   0.971   7.253   0.421 -0.1745  0.6592 -0.0711
  782MOL0     C 3149   1.038   7.176   0.321  0.0338 -0.0772  0.2560
  782MOL0     O 3150   1.174   7.153   0.305  0.2669  0.5616  0.5100
  782MOL0     C 3151   1.251   7.169   0.423 -0.4916  0.7156 -0.1014
  782MOL0     C 3152   1.396   7.142   0.404  0.1532  0.9191  0.7936
  782MOL0     C 3153   1.493   7.248   0.353 -0.2373  0.1545  0.0015
  782MOL0     C 3154   1.531   7.353   0.459 -0.0628  0.5315  0.3782
  782MOL0     C 3155   1.625   7.451   0.404  0.2015 -0.3305  1.2198
  782MOL0     C 3156   1.698   7.529   0.352 -0.0704  0.0502  0.5006
  782MOL0     C 3157   0.954   7.112   0.234 -0.1348  0.1273 -0.3142
  782MOL0     C 3158   0.812   7.103   0.260 -0.3046  0.5819  0.2576
  782MOL0     H 3159   0.344   7.239   0.292 -1.3454 -0.0090 -0.4734
  782MOL0     H 3160   0.106   7.203   0.370 -1.2259  1.9419  0.1760
  782MOL0     H 3161  -0.079   7.156   0.492 -2.0734 -0.1928  0.5859
  782MOL0     H 3162  -0.087   7.332   0.481  0.5904 -0.4264  0.0951
  782MOL0     H 3163  -0.214   7.378   0.662 -0.3623 -0.5354 -1.9118
  782MOL0     H 3164  -0.206   7.213   0.727 -1.1792  0.2351  0.9372
  782MOL0     H 3165  -0.333   7.141   0.508  0.1889 -0.4619  0.7630
  782MOL0     H 3166  -0.326   7.316   0.463 -0.9449 -0.1314  0.1404
  782MOL0     H 3167  -0.438   7.197   0.732  1.2699  1.5768  1.3330
  782MOL0     H 3168  -0.459   7.360   0.664 -4.2949 -0.3739 -0.0923
  782MOL0     H 3169  -0.598   7.109   0.576 -1.0317  0.5308 -0.8451
  782MOL0     H 3170  -0.556   7.244   0.463 -0.3393  4.1465  1.6132
  782MOL0     H 3171  -0.683   7.396   0.596  1.7390  0.1028 -1.1401
  782MOL0     H 3172  -0.722   7.260   0.717  1.7590  0.0206 -0.5466
  782MOL0     H 3173  -0.811   7.219   0.429 -1.5125  0.8084  0.2169
  782MOL0     H 3174  -0.876   7.165   0.578  1.6056 -1.8668 -1.5476
  782MOL0     H 3175  -0.890   7.441   0.442  0.3520  0.4493  0.3211
  782MOL0     H 3176  -0.925   7.436   0.607 -0.8806  1.8888 -2.5700
  782MOL0     H 3177  -1.175   7.356   0.670 -1.6344 -0.3344 -0.0201
  782MOL0     H 3178  -1.456   7.349   0.525 -1.8141  0.3337  3.2610
  782MOL0     H 3179  -1.415   7.233   0.644  0.4857 -0.1640  0.1704
  782MOL0     H 3180  -1.419   7.047   0.478  0.9094  1.4334  3.1662
  782MOL0     H 3181  -1.495   7.162   0.356  1.1638 -1.9777 -0.6885
  782MOL0     H 3182  -1.643   7.117   0.611  1.3539 -0.8984 -0.0532
  782MOL0     H 3183  -1.682   7.209   0.468  0.9800 -0.1880 -2.6233
  782MOL0     H 3184  -1.790   6.989   0.505  1.2338  2.2291  3.2079
  782MOL0     H 3185  -1.636   6.906   0.449  0.2179 -0.4457  2.3327
  782MOL0     H 3186  -1.876   7.129   0.115 -0.5022 -0.0614 -2.1588
  782MOL0     H 3187  -2.078   7.020   0.023 -0.9182 -1.2134 -0.8903
  782MOL0     H 3188  -2.412   6.619   0.325  0.5898  1.4749 -0.3412
  782MOL0     H 3189  -2.615   6.525   0.294 -0.9972  1.4289 -0.7477
  782MOL0     H 3190  -2.766   6.568  -0.080 -4.1971  1.8945 -0.5548
  782MOL0     H 3191  -2.810   6.589   0.085 -1.8475 -1.7787  0.4581
  782MOL0     H 3192  -2.931   6.358  -0.067 -1.4507  1.2410 -2.7038
  782MOL0     H 3193  -2.993   6.520  -0.066  0.0854  0.2111  0.1586
  782MOL0     H 3194  -2.985   6.498   0.198  2.8016 -0.8067  0.6940
  782MOL0     H 3195  -2.930   6.338   0.171 -0.2484 -1.3805 -3.0157
  782MOL0     H 3196  -3.178   6.445   0.052 -2.8085  0.5746  1.6876
  782MOL0     H 3197  -3.129   6.267   0.066  2.4055  0.6614 -1.2106
  782MOL0     H 3198  -3.311   6.362   0.210 -1.2313 -1.8350  3.5279
  782MOL0     H 3199  -3.200   6.473   0.283  0.1570 -0.3252  0.5252
  782MOL0     H 3200  -3.067   6.251   0.365 -0.1262 -0.6903  0.1985
  782MOL0     H 3201  -3.191   6.164   0.287 -0.1738  0.0722  0.3496
  782MOL0     H 3202  -3.361   6.310   0.441 -0.3701 -1.4177  0.0882
  782MOL0     H 3203  -3.271   6.177   0.524  1.7855  0.7218  1.5775
  782MOL0     H 3204  -3.146   6.445   0.511  1.2336  0.2814  2.0978
  782MOL0     H 3205  -3.118   6.313   0.618 -0.2227 -0.5755 -0.6407
  782MOL0     H 3206  -2.516   6.488  -0.140  0.2290  1.6145 -0.6942
  782MOL0     H 3207  -2.312   6.611  -0.088  0.6505  0.8169  0.4301
  782MOL0     H 3208  -2.035   6.691   0.280 -1.0670 -0.0393 -0.7525
  782MOL0     H 3209  -1.812   6.797   0.376  2.0343  1.1772  0.1489
  782MOL0     H 3210   0.236   7.369   0.752  1.6767  0.3765 -0.2848
  782MOL0     H 3211   0.468   7.396   0.673 -0.8176  1.8892 -0.0981
  782MOL0     H 3212   0.799   7.324   0.515  1.5935  3.4958 -2.1656
  782MOL0     H 3213   1.033   7.317   0.481 -0.3290 -0.0804  0.8969
  782MOL0     H 3214   1.208   7.102   0.498 -1.5903 -1.6325 -2.6474
  782MOL0     H 3215   1.225   7.270   0.457 -1.4572  0.6459 -0.5986
  782MOL0     H 3216   1.431   7.101   0.499  0.2648  0.9901  0.7836
  782MOL0     H 3217   1.409   7.055   0.339 -2.5370  0.5546  0.6446
  782MOL0     H 3218   1.448   7.290   0.263 -3.1065  0.0285  1.2891
  782MOL0     H 3219   1.590   7.212   0.317  0.2133  3.3092 -2.4266
  782MOL0     H 3220   1.442   7.404   0.497  2.3430  4.1250  1.8065
  782MOL0     H 3221   1.580   7.308   0.546 -1.2066 -2.1660 -0.2710
  782MOL0     H 3222   1.764   7.610   0.329  1.5260  0.1983  4.6443
  782MOL0     H 3223   0.997   7.047   0.158  0.2461 -3.9643  3.0129
  782MOL0     H 3224   0.749   7.029   0.211  2.3963 -0.7028 -1.5541
  783MOL0     O 3225   1.891   8.601   1.521 -0.6402 -0.5510  0.5199
  783MOL0     C 3226   1.925   8.526   1.611  0.1609 -0.1854  0.2162
  783MOL0     O 3227   1.897   8.393   1.605 -0.1990  0.0751  0.0644
  783MOL0     C 3228   1.790   8.351   1.525 -0.2627 -0.2595 -0.3311
  783MOL0     C 3229   1.811   8.240   1.453 -0.4243 -0.5507  0.5977
  783MOL0     C 3230   1.714   8.182   1.372 -0.0090  0.2890  0.7973
  783MOL0     C 3231   1.586   8.226   1.370  0.4246  0.1032 -0.7902
  783MOL0     O 3232   1.486   8.177   1.285 -0.0553 -0.1374 -0.5617
  783MOL0     C 3233   1.503   8.059   1.206  0.2493 -0.4436  0.2055
  783MOL0     C 3234   1.395   8.038   1.096  0.6604  0.3218 -0.1331
  783MOL0     C 3235   1.264   7.982   1.160 -0.3736  0.6038  0.3457
  783MOL0     C 3236   1.168   7.929   1.054  0.4953  0.4483 -0.0812
  783MOL0     C 3237   1.074   8.050   1.001  0.5164  0.6341 -0.1549
  783MOL0     C 3238   0.978   8.005   0.898 -0.2375  0.3854 -0.3218
  783MOL0     C 3239   0.854   7.931   0.957 -1.1905  1.0630 -0.2450
  783MOL0     C 3240   0.742   7.934   0.852 -0.0948 -0.2154 -0.9713
  783MOL0     N 3241   0.622   7.865   0.903  0.4193  0.2474  0.3293
  783MOL0     C 3242   0.540   7.796   0.814 -0.2052 -0.0383 -0.2239
  783MOL0     C 3243   0.442   7.751   0.888 -0.2199  0.8450 -0.2663
  783MOL0     C 3244   0.333   7.658   0.847  0.2059 -0.3919 -0.1858
  783MOL0     C 3245   0.234   7.714   0.739 -0.1379 -0.4949 -0.0628
  783MOL0     C 3246   0.156   7.824   0.791 -0.2062 -0.2133 -0.3134
  783MOL0     C 3247   0.085   7.786   0.916 -0.3040  0.6728 -0.3393
  783MOL0     O 3248   0.010   7.663   0.900  0.2238 -0.1016 -0.0838
  783MOL0     C 3249  -0.130   7.679   0.865 -0.6674 -0.5697 -0.1222
  783MOL0     C 3250  -0.211   7.790   0.863  0.5695  0.1411  0.0746
  783MOL0     C 3251  -0.352   7.778   0.846  0.6520  0.7456  0.1570
  783MOL0     C 3252  -0.412   7.651   0.856 -0.0228 -0.1657  0.4960
  783MOL0     C 3253  -0.565   7.648   0.856 -0.8671 -0.6746  0.2025
  783MOL0     O 3254  -0.616   7.533   0.901  0.1427 -0.0141  0.5950
  783MOL0     C 3255  -0.741   7.518   0.952  0.6325 -0.9377  1.0788
  783MOL0     C 3256  -0.858   7.561   0.879  0.1380  0.2057  0.0295
  783MOL0     C 3257  -0.982   7.541   0.932  0.0426 -0.8420  0.2587
  783MOL0     C 3258  -0.995   7.489   1.059 -0.9322  0.9806  0.0820
  783MOL0     O 3259  -1.116   7.470   1.123  0.7299  0.9780 -0.1213
  783MOL0     C 3260  -1.236   7.512   1.050  0.5639 -0.2331 -0.5555
  783MOL0     C 3261  -1.357   7.494   1.137 -0.0833  0.6966 -0.5602
  783MOL0     C 3262  -1.489   7.515   1.063 -0.1158 -0.9247  0.1187
  783MOL0     C 3263  -1.606   7.486   1.152  0.0470 -0.5852 -0.0326
  783MOL0     C 3264  -1.738   7.546   1.090 -0.6462  0.3301  0.1920
  783MOL0     C 3265  -1.865   7.480   1.138 -0.1548  0.5162 -0.2303
  783MOL0     C 3266  -1.982   7.524   1.052  0.4453 -0.4232  1.0033
  783MOL0     C 3267  -2.090   7.431   1.102 -0.1720  0.3451 -0.1409
  783MOL0    Cl 3268  -2.249   7.480   1.028 -0.7684 -0.1319  1.0505
  783MOL0     C 3269  -0.876   7.445   1.126  0.7158  0.4839 -1.1485
  783MOL0     C 3270  -0.750   7.457   1.072 -0.4642 -0.6116 -0.5075
  783MOL0     O 3271  -0.630   7.751   0.823  0.6032  0.2523 -0.9759
  783MOL0     C 3272  -0.328   7.540   0.855  0.1664  0.0275  0.1209
  783MOL0     C 3273  -0.193   7.552   0.866  0.0042 -0.0607 -0.3164
  783MOL0     N 3274   0.452   7.809   1.017 -0.0892  0.3038 -0.2431
  783MOL0     N 3275   0.552   7.887   1.016  0.1582 -0.1635 -0.1244
  783MOL0     C 3276   1.553   8.338   1.447 -0.6425 -0.1182  0.3925
  783MOL0     C 3277   1.651   8.394   1.532 -0.5408 -0.5090 -0.9111
  783MOL0     C 3278   2.028   8.579   1.708 -0.7381  0.3561 -0.1441
  783MOL0     C 3279   2.140   8.510   1.764  0.6958  0.7979  1.0883
  783MOL0     C 3280   2.240   8.570   1.845 -0.0194 -0.8187  0.3161
  783MOL0     C 3281   2.235   8.713   1.863 -0.5636  0.2890 -0.3580
  783MOL0     O 3282   2.335   8.764   1.943 -0.2250 -0.2240 -0.2181
  783MOL0     C 3283   2.331   8.903   1.972  0.1744 -0.2874  0.4515
  783MOL0     C 3284   2.444   8.958   2.060 -0.2930  0.3685  0.4821
  783MOL0     C 3285   2.423   8.914   2.205  0.2052  0.6717 -1.0046
  783MOL0     C 3286   2.552   8.939   2.295  0.0533  0.3231  0.4658
  783MOL0     C 3287   2.681   8.881   2.251 -1.0108  0.0737  0.4517
  783MOL0     C 3288   2.786   8.854   2.189  0.2521 -0.3273 -0.6062
  783MOL0     C 3289   2.121   8.779   1.813 -0.0816  0.4238 -0.1347
  783MOL0     C 3290   2.023   8.716   1.730 -0.6562 -0.5164 -0.5986
  783MOL0     H 3291   1.911   8.198   1.453 -1.0445 -2.1331  1.4735
  783MOL0     H 3292   1.741   8.102   1.304  2.6135  1.4553  0.3788
  783MOL0     H 3293   1.513   7.974   1.274  1.0918 -0.3503  0.2132
  783MOL0     H 3294   1.595   8.063   1.146  1.6017  0.0411  2.1912
  783MOL0     H 3295   1.437   7.966   1.025  2.0163  1.7545 -0.8296
  783MOL0     H 3296   1.376   8.128   1.036  0.9282  1.6830  1.7198
  783MOL0     H 3297   1.207   8.050   1.224  0.4969  0.7339  1.0058
  783MOL0     H 3298   1.289   7.894   1.219 -0.6944 -0.1353 -0.6035
  783MOL0     H 3299   1.218   7.881   0.970  1.0338  3.4497 -1.6353
  783MOL0     H 3300   1.103   7.850   1.092  1.5240 -1.0167 -1.2898
  783MOL0     H 3301   1.126   8.138   0.964  2.1698  0.9162  2.5734
  783MOL0     H 3302   1.014   8.092   1.082 -0.6561 -1.1640 -0.0204
  783MOL0     H 3303   1.026   7.941   0.823 -1.3204  0.7098 -1.3287
  783MOL0     H 3304   0.939   8.097   0.853 -1.9161  1.6582  3.3355
  783MOL0     H 3305   0.869   7.822   0.965 -0.6265  1.0141 -1.7409
  783MOL0     H 3306   0.831   7.970   1.056  0.0468 -0.2829  0.6203
  783MOL0     H 3307   0.792   7.900   0.761  1.4411  3.5334 -1.7433
  783MOL0     H 3308   0.718   8.041   0.841  1.7442  0.4277  0.7497
  783MOL0     H 3309   0.568   7.763   0.715 -0.3309 -0.9649  0.0459
  783MOL0     H 3310   0.282   7.607   0.930  1.7755 -1.4090  0.1880
  783MOL0     H 3311   0.393   7.574   0.813  0.0329 -0.3792 -0.5270
  783MOL0     H 3312   0.167   7.636   0.701  1.6408 -2.0173 -0.2018
  783MOL0     H 3313   0.287   7.762   0.656  2.3537  0.0474  1.7189
  783MOL0     H 3314   0.213   7.917   0.790 -1.0569  0.3821 -3.0607
  783MOL0     H 3315   0.083   7.842   0.711 -0.3695 -1.1059 -0.3768
  783MOL0     H 3316   0.026   7.873   0.948 -3.2231 -1.5332  0.7123
  783MOL0     H 3317   0.162   7.777   0.993 -1.3778 -0.1049  0.6931
  783MOL0     H 3318  -0.173   7.891   0.854  0.6970  0.3966  2.6859
  783MOL0     H 3319  -0.408   7.870   0.835  1.3734  1.2036  0.2406
  783MOL0     H 3320  -0.852   7.604   0.780  1.8427 -2.0014 -0.9149
  783MOL0     H 3321  -1.061   7.581   0.869  2.9711  0.8142 -2.6757
  783MOL0     H 3322  -1.237   7.444   0.964  2.2189  2.1819 -2.6524
  783MOL0     H 3323  -1.215   7.616   1.022  4.9317 -0.8309 -0.1814
  783MOL0     H 3324  -1.347   7.560   1.223 -0.2010  3.0569 -2.2658
  783MOL0     H 3325  -1.353   7.394   1.181 -5.1391  1.3296  2.0783
  783MOL0     H 3326  -1.498   7.453   0.972 -1.7264  0.1301 -0.4831
  783MOL0     H 3327  -1.490   7.621   1.039  1.0821 -0.8156  0.5166
  783MOL0     H 3328  -1.616   7.379   1.169  1.2509 -1.0653 -2.0312
  783MOL0     H 3329  -1.583   7.536   1.247  0.7864  0.1691 -0.5960
  783MOL0     H 3330  -1.741   7.546   0.981 -0.1143  0.5434  0.1735
  783MOL0     H 3331  -1.734   7.652   1.117  2.7222  1.2184 -2.9232
  783MOL0     H 3332  -1.884   7.513   1.241  0.7150 -0.3831  0.2480
  783MOL0     H 3333  -1.843   7.372   1.134 -1.3735  0.2270  0.4220
  783MOL0     H 3334  -2.011   7.625   1.082  1.7819 -0.6444  3.2021
  783MOL0     H 3335  -1.966   7.511   0.944 -1.9833 -4.1889  0.9400
  783MOL0     H 3336  -2.094   7.430   1.211  0.8459  1.7600 -0.0630
  783MOL0     H 3337  -2.072   7.329   1.069 -2.2613 -0.9025  2.2400
  783MOL0     H 3338  -0.892   7.412   1.228  0.7483 -1.4925 -1.7359
  783MOL0     H 3339  -0.666   7.420   1.130 -0.3889 -0.9271 -0.8164
  783MOL0     H 3340  -0.366   7.440   0.838  3.2621 -0.8885 -2.3458
  783MOL0     H 3341  -0.141   7.459   0.884  1.2819  0.9563  1.6756
  783MOL0     H 3342   1.457   8.383   1.424  0.0957 -0.0751 -3.2048
  783MOL0     H 3343   1.640   8.478   1.600  0.2981 -0.9201 -0.2559
  783MOL0     H 3344   2.149   8.402   1.752  1.6154  0.6689  2.5489
  783MOL0     H 3345   2.329   8.516   1.875  2.4926  2.6904 -0.3632
  783MOL0     H 3346   2.233   8.928   2.014 -1.7016 -2.3958 -2.3213
  783MOL0     H 3347   2.346   8.963   1.882  2.7297 -2.5391 -0.7682
  783MOL0     H 3348   2.535   8.916   2.017  2.2206  3.7620  1.9792
  783MOL0     H 3349   2.458   9.065   2.044  1.2323  0.1243 -0.0638
  783MOL0     H 3350   2.406   8.806   2.204  1.3315  0.4735 -0.2221
  783MOL0     H 3351   2.339   8.973   2.243  0.3832  1.0472 -1.1853
  783MOL0     H 3352   2.560   9.047   2.308 -0.1525  0.2797  0.9600
  783MOL0     H 3353   2.527   8.890   2.389 -4.0537  1.5663  0.1718
  783MOL0     H 3354   2.866   8.814   2.129  0.0120 -1.6908 -0.0660
  783MOL0     H 3355   2.116   8.886   1.828 -2.4265  0.1601  1.3459
  783MOL0     H 3356   1.942   8.775   1.688 -0.0649 -0.3107 -1.4693
  784MOL0     O 3357   7.916   6.085   4.017 -0.7316 -0.1932  0.6054
  784MOL0     C 3358   7.914   6.135   4.129 -0.8797  0.8035 -0.0053
  784MOL0     O 3359   7.974   6.091   4.245  0.2925  0.2591  0.2100
  784MOL0     C 3360   8.062   5.981   4.236  0.4811 -0.0991  0.0735
  784MOL0     C 3361   8.059   5.866   4.155  0.0948 -0.2852 -1.3781
  784MOL0     C 3362   8.157   5.770   4.175  0.9555  0.3519  0.8707
  784MOL0     C 3363   8.261   5.782   4.266  0.5241 -0.3917  0.0059
  784MOL0     O 3364   8.347   5.685   4.308 -0.3008 -0.4579  0.8358
  784MOL0     C 3365   8.351   5.564   4.223  0.5559 -0.7631  0.0645
  784MOL0     C 3366   8.421   5.579   4.083 -0.3091 -1.3331  0.0714
  784MOL0     C 3367   8.543   5.677   4.077 -0.4587  0.0959  0.0898
  784MOL0     C 3368   8.683   5.603   4.108  1.0659  0.3944  0.2369
  784MOL0     C 3369   8.790   5.711   4.136 -0.1512  0.6430 -0.1736
  784MOL0     C 3370   8.909   5.646   4.199 -0.7953  0.3443 -0.2627
  784MOL0     C 3371   9.026   5.741   4.215  0.2637  0.0098 -0.2225
  784MOL0     C 3372   9.064   5.819   4.081 -0.1359  0.7224  0.2918
  784MOL0     N 3373   9.209   5.836   4.071 -0.5459 -0.1360 -0.2507
  784MOL0     C 3374   9.279   5.932   4.125 -0.2056 -0.6487 -0.0010
  784MOL0     C 3375   9.410   5.907   4.092 -0.0091 -0.3649 -0.4065
  784MOL0     C 3376   9.527   5.996   4.137  0.6751 -0.6192 -0.4906
  784MOL0     C 3377   9.672   5.941   4.128  0.3341 -0.5931  0.5332
  784MOL0     C 3378   9.726   5.882   4.263  0.2255  0.2085 -0.2685
  784MOL0     C 3379   9.638   5.766   4.317 -0.3806  0.5423 -0.0317
  784MOL0     O 3380   9.510   5.817   4.355 -0.5335  0.0236 -0.2614
  784MOL0     C 3381   9.407   5.727   4.386 -0.0151 -0.2346  0.0477
  784MOL0     C 3382   9.395   5.596   4.368 -0.1575 -0.1241 -0.0594
  784MOL0     C 3383   9.283   5.520   4.410  1.0741  0.9823 -0.0398
  784MOL0     C 3384   9.174   5.574   4.481 -0.6735  0.5384 -0.9911
  784MOL0     C 3385   9.048   5.500   4.520  0.1467 -0.7061 -0.1548
  784MOL0     O 3386   9.026   5.387   4.447  0.7697  0.6319 -0.6067
  784MOL0     C 3387   8.909   5.328   4.488  0.0806 -0.6220 -0.5821
  784MOL0     C 3388   8.794   5.348   4.408  0.0678  0.9764 -0.9038
  784MOL0     C 3389   8.665   5.301   4.451  0.3532  0.1892  0.3400
  784MOL0     C 3390   8.648   5.240   4.581  0.2994 -0.1734  0.1303
  784MOL0     O 3391   8.517   5.205   4.618 -0.0662  0.0284 -0.7549
  784MOL0     C 3392   8.510   5.131   4.739  0.9308  0.0591 -0.8551
  784MOL0     C 3393   8.368   5.096   4.764 -0.1785 -0.0469  0.3282
  784MOL0     C 3394   8.321   4.974   4.677 -0.2672  0.9767 -0.1258
  784MOL0     C 3395   8.183   4.923   4.728 -0.4135  0.6088  0.0403
  784MOL0     C 3396   8.078   5.030   4.707 -0.0848 -0.7692  0.3864
  784MOL0     C 3397   7.940   4.966   4.741  0.4053 -0.6070 -0.5687
  784MOL0     C 3398   7.807   5.059   4.733 -0.1225 -0.4265 -0.3911
  784MOL0     C 3399   7.689   4.980   4.777  0.3195 -0.2877 -0.4608
  784MOL0    Cl 3400   7.641   4.875   4.645  0.0760  0.3488  0.3961
  784MOL0     C 3401   8.766   5.216   4.655  0.2992 -0.4694  0.5295
  784MOL0     C 3402   8.889   5.263   4.607  0.7294  0.0344 -0.1173
  784MOL0     O 3403   8.973   5.550   4.604  0.5916 -0.5144 -0.2314
  784MOL0     C 3404   9.192   5.711   4.505 -0.2979  0.3429  0.4808
  784MOL0     C 3405   9.302   5.785   4.459 -0.1632  0.1393 -0.4222
  784MOL0     N 3406   9.409   5.805   3.995 -0.3788  0.7357  0.1274
  784MOL0     N 3407   9.294   5.760   3.997 -0.0972  0.2681  0.8764
  784MOL0     C 3408   8.264   5.897   4.348  0.4893  0.1848  0.1338
  784MOL0     C 3409   8.169   5.994   4.335  0.1387  0.3348  0.0791
  784MOL0     C 3410   7.821   6.253   4.151 -0.2449  0.0031  0.0174
  784MOL0     C 3411   7.747   6.322   4.039 -0.3022 -1.7453  0.6450
  784MOL0     C 3412   7.665   6.434   4.070 -0.4845  0.8615  0.3918
  784MOL0     C 3413   7.642   6.461   4.202 -0.0768 -1.0490  0.4839
  784MOL0     O 3414   7.561   6.569   4.236  0.7880 -0.1794 -0.6207
  784MOL0     C 3415   7.465   6.614   4.136 -0.1741  0.7297 -0.2429
  784MOL0     C 3416   7.334   6.670   4.202  0.4860 -0.0751 -0.1524
  784MOL0     C 3417   7.272   6.573   4.306  0.3696  0.4388  0.8695
  784MOL0     C 3418   7.258   6.426   4.254 -0.3231  0.1480 -0.3966
  784MOL0     C 3419   7.200   6.351   4.363  0.2757  1.3947  0.0743
  784MOL0     C 3420   7.129   6.282   4.439 -0.0809  0.0474  1.2986
  784MOL0     C 3421   7.707   6.402   4.309 -0.3875 -0.3372  0.0090
  784MOL0     C 3422   7.798   6.297   4.283 -0.0596  0.8692  0.0350
  784MOL0     H 3423   7.981   5.862   4.081 -0.6205  0.6673 -0.6993
  784MOL0     H 3424   8.154   5.675   4.121 -0.7662 -0.0657  1.6265
  784MOL0     H 3425   8.256   5.511   4.215  1.6224 -2.8045  0.2321
  784MOL0     H 3426   8.407   5.491   4.283 -0.8873 -1.0895  1.0714
  784MOL0     H 3427   8.349   5.624   4.015  1.1583 -0.2023 -0.7861
  784MOL0     H 3428   8.462   5.485   4.045 -0.6646 -0.9964 -1.1882
  784MOL0     H 3429   8.518   5.757   4.148 -3.1496  0.7068 -1.3853
  784MOL0     H 3430   8.542   5.717   3.975 -1.3869 -2.1685 -0.8496
  784MOL0     H 3431   8.683   5.541   4.197  0.5295 -1.2622 -0.8659
  784MOL0     H 3432   8.717   5.537   4.028 -0.4713  1.6776 -1.5896
  784MOL0     H 3433   8.737   5.778   4.203 -0.8431  0.1752 -0.2401
  784MOL0     H 3434   8.811   5.757   4.039  0.2649 -2.0946 -1.5056
  784MOL0     H 3435   8.944   5.577   4.123  0.9715 -0.7868  1.4939
  784MOL0     H 3436   8.877   5.582   4.282 -0.6039 -0.8248 -1.0699
  784MOL0     H 3437   9.008   5.818   4.291 -0.7900 -1.1295  0.7322
  784MOL0     H 3438   9.114   5.679   4.236  1.6687  2.2508  0.9561
  784MOL0     H 3439   9.009   5.913   4.075  0.8078  1.2194 -1.4020
  784MOL0     H 3440   9.027   5.759   3.997 -5.1074  2.2081  1.1089
  784MOL0     H 3441   9.235   6.012   4.184  0.4077  0.5403 -1.1281
  784MOL0     H 3442   9.495   6.029   4.236  1.1569 -2.9125  0.5199
  784MOL0     H 3443   9.518   6.085   4.075 -3.2095  1.0361  2.1088
  784MOL0     H 3444   9.756   6.005   4.097  0.5782 -1.2267 -0.1540
  784MOL0     H 3445   9.678   5.858   4.057 -2.1362 -0.5643  0.2272
  784MOL0     H 3446   9.832   5.859   4.251  1.2652  4.2292 -0.2617
  784MOL0     H 3447   9.726   5.959   4.341  2.2191 -0.4288  0.4160
  784MOL0     H 3448   9.689   5.733   4.407  2.5954 -0.4152 -1.9215
  784MOL0     H 3449   9.631   5.683   4.246  2.1219  0.6365 -0.4720
  784MOL0     H 3450   9.483   5.558   4.318 -0.0810  0.3970 -0.3243
  784MOL0     H 3451   9.279   5.416   4.382 -2.0965  0.4991  1.7574
  784MOL0     H 3452   8.803   5.387   4.307  2.0811 -3.4879 -2.7427
  784MOL0     H 3453   8.579   5.312   4.385  1.9081 -0.3079 -1.8725
  784MOL0     H 3454   8.547   5.198   4.818  0.4279 -0.5756 -0.0628
  784MOL0     H 3455   8.569   5.038   4.736 -1.0775 -1.4135  1.4568
  784MOL0     H 3456   8.298   5.178   4.744 -3.0413 -2.0547  1.4960
  784MOL0     H 3457   8.360   5.058   4.866 -4.7518 -1.5971 -0.3414
  784MOL0     H 3458   8.387   4.889   4.694 -2.5677 -0.9729 -0.2823
  784MOL0     H 3459   8.327   4.995   4.570  2.1936 -1.5678 -0.6039
  784MOL0     H 3460   8.153   4.828   4.682 -2.5566  1.8692 -1.3774
  784MOL0     H 3461   8.198   4.903   4.834  0.0684  5.1756  1.0136
  784MOL0     H 3462   8.077   5.060   4.602 -0.0969 -1.1186  0.2848
  784MOL0     H 3463   8.084   5.122   4.765 -2.9639  0.6470 -1.3200
  784MOL0     H 3464   7.947   4.912   4.836 -1.7638  2.8730  1.8078
  784MOL0     H 3465   7.932   4.891   4.662 -0.3368 -1.6943  0.4805
  784MOL0     H 3466   7.832   5.130   4.812  0.2614 -1.2337  0.2257
  784MOL0     H 3467   7.791   5.112   4.639 -1.9116 -1.1403 -0.5357
  784MOL0     H 3468   7.611   5.050   4.810  1.7519 -0.7406  4.7998
  784MOL0     H 3469   7.703   4.913   4.862  1.7496  0.6561  0.0811
  784MOL0     H 3470   8.763   5.177   4.756 -1.8683  0.2819  0.8082
  784MOL0     H 3471   8.969   5.255   4.680  0.4158 -0.9608  0.1311
  784MOL0     H 3472   9.109   5.767   4.547 -0.3102  0.3295  0.4725
  784MOL0     H 3473   9.283   5.890   4.477  0.5088 -0.3451  4.6947
  784MOL0     H 3474   8.341   5.902   4.425  0.0525 -1.3327  0.7196
  784MOL0     H 3475   8.175   6.089   4.388 -1.3853  0.7013 -0.3571
  784MOL0     H 3476   7.763   6.291   3.937  0.1830  1.5858 -0.3971
  784MOL0     H 3477   7.625   6.490   3.986 -1.9146  0.7696  0.9977
  784MOL0     H 3478   7.434   6.526   4.078 -1.4351  1.0623 -0.1084
  784MOL0     H 3479   7.506   6.689   4.068  1.8651  2.0480  2.2554
  784MOL0     H 3480   7.359   6.762   4.257 -2.3378  1.1022 -0.6405
  784MOL0     H 3481   7.271   6.691   4.115  0.2502  0.3707  0.1219
  784MOL0     H 3482   7.169   6.608   4.323 -1.3051 -1.5075 -3.6781
  784MOL0     H 3483   7.343   6.572   4.389  0.7833 -0.4369  0.5142
  784MOL0     H 3484   7.191   6.426   4.168 -1.5095  3.2469  0.3725
  784MOL0     H 3485   7.351   6.385   4.213 -0.8849  1.3776 -3.1219
  784MOL0     H 3486   7.065   6.229   4.506 -0.6391  1.1674  1.6731
  784MOL0     H 3487   7.690   6.436   4.411 -2.0756  1.9632 -0.9390
  784MOL0     H 3488   7.850   6.260   4.371 -1.5742  1.7717  1.3750
  785MOL0     O 3489   7.999   5.901   2.771  0.8502 -0.4017  0.2328
  785MOL0     C 3490   8.057   5.818   2.702  0.3473 -0.4609 -0.7930
  785MOL0     O 3491   8.017   5.765   2.590  0.3037  0.3552 -0.4696
  785MOL0     C 3492   7.895   5.796   2.540  0.0617 -0.3458 -0.4935
  785MOL0     C 3493   7.877   5.902   2.455  0.1076 -0.4021  0.0210
  785MOL0     C 3494   7.746   5.949   2.423 -0.1012 -0.1290 -0.6021
  785MOL0     C 3495   7.629   5.892   2.480  0.0900 -0.1623 -0.5121
  785MOL0     O 3496   7.499   5.942   2.464  0.1763 -0.1527  0.0541
  785MOL0     C 3497   7.461   5.961   2.330 -0.0754 -0.6957  0.1920
  785MOL0     C 3498   7.321   6.021   2.323  0.6921 -0.5577  1.0167
  785MOL0     C 3499   7.210   5.968   2.422 -0.8534  0.2660  0.1190
  785MOL0     C 3500   7.170   5.824   2.412  0.1228  1.2929  0.0520
  785MOL0     C 3501   7.145   5.758   2.552  0.0536  0.4258 -0.6815
  785MOL0     C 3502   7.017   5.807   2.620 -0.5569 -0.2018  0.0446
  785MOL0     C 3503   6.898   5.799   2.532  0.7076  0.4936  0.3961
  785MOL0     C 3504   6.776   5.808   2.607 -0.0815 -0.1203 -0.1154
  785MOL0     N 3505   6.653   5.818   2.535  0.6814 -0.4504  0.0914
  785MOL0     C 3506   6.595   5.719   2.450 -0.0165 -0.0925 -0.8601
  785MOL0     C 3507   6.485   5.782   2.405  0.2918  0.0807 -0.1735
  785MOL0     C 3508   6.381   5.712   2.326 -1.2160 -0.3353  0.3771
  785MOL0     C 3509   6.261   5.671   2.411 -0.3196 -0.5137 -0.0307
  785MOL0     C 3510   6.137   5.621   2.326 -0.2686  1.2466 -0.0972
  785MOL0     C 3511   6.064   5.728   2.240 -0.0435 -0.1075  1.1895
  785MOL0     O 3512   5.985   5.658   2.138  0.7282 -0.1170  0.4130
  785MOL0     C 3513   5.851   5.662   2.147  0.0683 -0.3220  0.3543
  785MOL0     C 3514   5.775   5.679   2.034 -0.5800 -0.3508  0.4667
  785MOL0     C 3515   5.636   5.688   2.053  0.0776  0.9579 -0.1233
  785MOL0     C 3516   5.574   5.659   2.173  0.4577  0.2265  0.0400
  785MOL0     C 3517   5.425   5.641   2.177  0.1328  0.2747 -0.2380
  785MOL0     O 3518   5.363   5.626   2.301 -0.4599  0.9040 -0.0133
  785MOL0     C 3519   5.225   5.607   2.294 -0.0952 -0.3193  0.1207
  785MOL0     C 3520   5.174   5.476   2.269  0.1496  0.3134 -0.5653
  785MOL0     C 3521   5.036   5.456   2.247 -0.4883 -0.5601  0.6822
  785MOL0     C 3522   4.950   5.558   2.251  0.7374 -0.8558 -0.4954
  785MOL0     O 3523   4.824   5.552   2.199  0.2314 -0.3514 -0.6084
  785MOL0     C 3524   4.740   5.447   2.246  0.5213 -0.1349  0.6569
  785MOL0     C 3525   4.606   5.467   2.182 -0.1749 -0.2517  0.0359
  785MOL0     C 3526   4.499   5.360   2.228  0.7297 -0.4609  1.0879
  785MOL0     C 3527   4.371   5.368   2.147  0.4613  0.5062  0.2405
  785MOL0     C 3528   4.254   5.295   2.204  0.5356  0.5442 -0.3753
  785MOL0     C 3529   4.267   5.146   2.216  0.5803  0.2970  0.8276
  785MOL0     C 3530   4.167   5.080   2.314  0.2921 -0.1180  0.3967
  785MOL0     C 3531   4.025   5.126   2.299  0.2409  1.1642 -0.7770
  785MOL0    Cl 3532   3.936   5.020   2.398  0.1016  0.4212 -0.3044
  785MOL0     C 3533   5.003   5.688   2.280  0.4205 -0.0434 -0.7543
  785MOL0     C 3534   5.140   5.717   2.300 -0.3708 -0.3289 -0.1413
  785MOL0     O 3535   5.362   5.647   2.071  0.1331  0.0557 -0.1337
  785MOL0     C 3536   5.653   5.638   2.291  0.1281 -0.2509 -0.2499
  785MOL0     C 3537   5.796   5.636   2.271  0.7010 -0.4015  0.9386
  785MOL0     N 3538   6.473   5.908   2.456  0.1760 -0.2685  0.7079
  785MOL0     N 3539   6.575   5.930   2.532 -0.0685 -0.2219  0.3404
  785MOL0     C 3540   7.649   5.786   2.569 -0.0979  0.3869 -0.0126
  785MOL0     C 3541   7.778   5.744   2.597 -0.3720 -0.4221 -0.3964
  785MOL0     C 3542   8.201   5.797   2.734  0.4513  0.1239  0.1681
  785MOL0     C 3543   8.299   5.766   2.641 -0.5098  0.8494  0.1190
  785MOL0     C 3544   8.437   5.755   2.672 -0.0192 -0.3070  0.3186
  785MOL0     C 3545   8.475   5.777   2.800  0.0812  0.3634 -0.4057
  785MOL0     O 3546   8.607   5.781   2.836  0.1210 -0.2801 -0.7304
  785MOL0     C 3547   8.705   5.698   2.776 -0.6052 -0.7545  0.2011
  785MOL0     C 3548   8.818   5.667   2.871  0.4052 -0.5191  0.6532
  785MOL0     C 3549   8.940   5.622   2.791 -0.3247 -0.4748 -0.5584
  785MOL0     C 3550   9.034   5.561   2.893 -0.2425  0.1398  0.2748
  785MOL0     C 3551   9.157   5.518   2.828  0.1214 -0.0448 -0.9389
  785MOL0     C 3552   9.261   5.497   2.774  0.1259  0.1237  0.0559
  785MOL0     C 3553   8.378   5.803   2.898 -0.9836  0.0211 -0.1068
  785MOL0     C 3554   8.245   5.807   2.866 -0.0892  0.2345  0.8268
  785MOL0     H 3555   7.966   5.946   2.412 -2.0360  3.2435 -1.1410
  785MOL0     H 3556   7.749   6.037   2.361  1.3304  1.5085  1.6092
  785MOL0     H 3557   7.469   5.865   2.277  0.6778 -1.0354  0.8963
  785MOL0     H 3558   7.530   6.027   2.277  1.4194 -2.1448  0.2212
  785MOL0     H 3559   7.275   6.013   2.224  0.2660 -0.5820  1.2170
  785MOL0     H 3560   7.337   6.128   2.338 -0.4520 -0.0581 -0.9926
  785MOL0     H 3561   7.119   6.029   2.420  0.0054  1.5932  0.3764
  785MOL0     H 3562   7.257   5.980   2.520  0.9701  0.9522 -0.7978
  785MOL0     H 3563   7.077   5.814   2.356 -0.4329  0.3807  1.1087
  785MOL0     H 3564   7.256   5.779   2.361  1.6404 -1.6483  4.5708
  785MOL0     H 3565   7.228   5.775   2.622 -1.3714  1.7511  0.7713
  785MOL0     H 3566   7.130   5.650   2.548 -0.2708  0.4752 -0.8487
  785MOL0     H 3567   7.023   5.908   2.660 -1.5806 -0.3456  0.5784
  785MOL0     H 3568   7.002   5.739   2.705  2.5777 -0.6917  0.3231
  785MOL0     H 3569   6.896   5.882   2.461 -1.6914  0.0085 -0.1948
  785MOL0     H 3570   6.891   5.703   2.478 -4.5306  0.6550  0.3220
  785MOL0     H 3571   6.787   5.901   2.663  0.5820  0.9154 -1.8968
  785MOL0     H 3572   6.766   5.727   2.680 -2.0199 -1.1994 -1.4797
  785MOL0     H 3573   6.626   5.616   2.436 -0.1332 -0.1839 -0.4683
  785MOL0     H 3574   6.423   5.627   2.271  0.9006  2.4109 -2.6049
  785MOL0     H 3575   6.354   5.791   2.256  0.2077 -0.7813 -0.7119
  785MOL0     H 3576   6.238   5.764   2.463 -3.5822 -1.2797  0.1151
  785MOL0     H 3577   6.289   5.587   2.475 -0.4277 -0.9202 -0.5063
  785MOL0     H 3578   6.168   5.536   2.265  0.9676  1.7378 -0.1873
  785MOL0     H 3579   6.061   5.587   2.397 -0.7246  0.7413 -0.8173
  785MOL0     H 3580   6.134   5.797   2.192 -2.7243 -0.0324 -3.0540
  785MOL0     H 3581   6.003   5.799   2.297 -1.3928  1.3310 -1.8248
  785MOL0     H 3582   5.818   5.702   1.937 -0.9823  1.5374  0.6992
  785MOL0     H 3583   5.576   5.709   1.966  1.8126 -0.7134 -1.8033
  785MOL0     H 3584   5.249   5.398   2.265  0.2916  0.4521 -0.5905
  785MOL0     H 3585   5.000   5.359   2.215  0.6663 -0.4492 -1.1019
  785MOL0     H 3586   4.719   5.447   2.354  1.8251 -0.6021  0.9234
  785MOL0     H 3587   4.788   5.356   2.209  0.2966 -0.1509  0.3979
  785MOL0     H 3588   4.619   5.464   2.073  1.1346 -0.8907  0.1933
  785MOL0     H 3589   4.565   5.562   2.217  1.5873  1.7557 -2.9421
  785MOL0     H 3590   4.486   5.368   2.337  0.3556  1.0198  0.9539
  785MOL0     H 3591   4.534   5.258   2.205 -2.6354 -1.5882  0.4826
  785MOL0     H 3592   4.352   5.475   2.139 -1.0100  0.3729  1.4273
  785MOL0     H 3593   4.382   5.334   2.044  0.0537  0.6978  0.1308
  785MOL0     H 3594   4.165   5.327   2.149  0.4596 -2.5960 -2.3319
  785MOL0     H 3595   4.224   5.330   2.303 -2.4231 -3.2172  0.3046
  785MOL0     H 3596   4.363   5.129   2.267  0.7490  0.8097  0.6864
  785MOL0     H 3597   4.251   5.103   2.117 -3.4828  1.4820  0.7808
  785MOL0     H 3598   4.178   4.971   2.303  0.9552  0.0755 -1.2413
  785MOL0     H 3599   4.204   5.100   2.415 -0.3048  0.3688  0.5213
  785MOL0     H 3600   3.980   5.136   2.200 -2.2631  2.5822  0.4017
  785MOL0     H 3601   4.018   5.229   2.335  0.1967  1.2242 -0.9551
  785MOL0     H 3602   4.940   5.776   2.281  0.0692 -0.2963 -0.3293
  785MOL0     H 3603   5.173   5.819   2.317  1.2807 -0.2721 -3.1341
  785MOL0     H 3604   5.608   5.622   2.388  0.0594 -0.2186 -0.2760
  785MOL0     H 3605   5.854   5.627   2.362 -0.7648  1.0377  2.0853
  785MOL0     H 3606   7.568   5.731   2.616 -0.9932 -1.5746 -3.4800
  785MOL0     H 3607   7.792   5.665   2.670  1.6125 -1.4937 -1.8422
  785MOL0     H 3608   8.259   5.745   2.543  1.5440 -1.2295 -0.3839
  785MOL0     H 3609   8.504   5.729   2.591 -0.8579 -1.5693 -0.0156
  785MOL0     H 3610   8.748   5.761   2.698  1.1280 -2.2802 -0.1416
  785MOL0     H 3611   8.661   5.616   2.718 -1.0314  1.9481 -3.6402
  785MOL0     H 3612   8.852   5.755   2.927  3.0565 -1.0004 -0.0627
  785MOL0     H 3613   8.785   5.598   2.949  0.5962  0.3279  1.5045
  785MOL0     H 3614   8.982   5.707   2.737 -1.6548  1.4690  1.2968
  785MOL0     H 3615   8.905   5.544   2.723 -2.3747 -1.4499  1.4349
  785MOL0     H 3616   9.059   5.631   2.974 -0.9065  0.3834  0.2795
  785MOL0     H 3617   8.982   5.476   2.940 -0.5982  1.4585  2.4526
  785MOL0     H 3618   9.340   5.465   2.709  1.0869 -0.7598  1.5980
  785MOL0     H 3619   8.417   5.827   2.996  1.8308  0.0007 -1.1440
  785MOL0     H 3620   8.175   5.836   2.944  0.7587  2.2520  0.8999
  786MOL0     O 3621  11.163   6.185   9.603  0.3502  0.6598 -0.0293
  786MOL0     C 3622  11.187   6.257   9.705  0.7990  0.0823  0.3192
  786MOL0     O 3623  11.094   6.322   9.782 -0.2397 -0.3610  0.0276
  786MOL0     C 3624  10.959   6.305   9.773  0.0939  1.1798  0.0025
  786MOL0     C 3625  10.875   6.289   9.660  0.2917 -0.6787 -0.6161
  786MOL0     C 3626  10.738   6.280   9.670  0.3377  0.2519 -0.0288
  786MOL0     C 3627  10.676   6.269   9.793  0.5120 -0.2045 -0.1390
  786MOL0     O 3628  10.545   6.237   9.813 -0.9403 -0.7945  0.7150
  786MOL0     C 3629  10.450   6.322   9.757 -0.3832  0.0746 -0.2136
  786MOL0     C 3630  10.337   6.322   9.849  0.1866 -0.2643  0.0625
  786MOL0     C 3631  10.347   6.421   9.968 -0.0878  0.5460  0.0336
  786MOL0     C 3632  10.244   6.405  10.078  0.1406  0.4728 -0.4674
  786MOL0     C 3633  10.257   6.513  10.180  0.5133 -0.3168 -0.4361
  786MOL0     C 3634  10.147   6.499  10.281 -0.1791 -0.0020  0.2391
  786MOL0     C 3635  10.167   6.616  10.374  0.6800 -0.0481  0.4449
  786MOL0     C 3636  10.054   6.628  10.473  0.4278  0.1620 -0.3248
  786MOL0     N 3637  10.070   6.534  10.588 -0.2683  0.1939  0.0325
  786MOL0     C 3638  10.174   6.536  10.677  0.4367 -0.6474 -0.7890
  786MOL0     C 3639  10.176   6.412  10.728  0.1148 -0.5098 -0.3362
  786MOL0     C 3640  10.265   6.360  10.836  0.1507  0.0539 -0.7404
  786MOL0     C 3641  10.417   6.413  10.813 -0.0279  0.2687 -0.2818
  786MOL0     C 3642  10.508   6.389  10.941 -0.0247  0.5001 -0.2344
  786MOL0     C 3643  10.653   6.385  10.928 -0.0868  0.3229 -0.5158
  786MOL0     O 3644  10.706   6.504  10.859 -0.0128 -0.6890  0.2244
  786MOL0     C 3645  10.846   6.493  10.821  0.1373 -0.4222  0.7746
  786MOL0     C 3646  10.941   6.433  10.894  0.8043 -0.1190 -0.2708
  786MOL0     C 3647  11.080   6.427  10.861  0.0939  0.1178 -0.6190
  786MOL0     C 3648  11.122   6.485  10.737  0.3184  0.5668 -0.2027
  786MOL0     C 3649  11.257   6.459  10.678  0.0776  0.1452 -0.4392
  786MOL0     O 3650  11.289   6.524  10.564  0.4142  0.6301  0.5049
  786MOL0     C 3651  11.417   6.518  10.496  0.9023 -0.5758  0.1199
  786MOL0     C 3652  11.520   6.431  10.524 -0.4271  0.0083 -0.1182
  786MOL0     C 3653  11.649   6.445  10.454  1.1408 -0.4662  1.0926
  786MOL0     C 3654  11.659   6.545  10.353  0.2037 -1.3535  0.2588
  786MOL0     O 3655  11.779   6.560  10.294 -0.0010 -0.5120  0.1830
  786MOL0     C 3656  11.809   6.651  10.193 -0.0919 -0.2067 -0.0538
  786MOL0     C 3657  11.968   6.638  10.181  0.2938  0.9930  0.7142
  786MOL0     C 3658  12.035   6.701  10.302  0.9473  0.3334  1.0491
  786MOL0     C 3659  12.185   6.701  10.288  0.2611  0.1214  0.2524
  786MOL0     C 3660  12.234   6.779  10.416 -0.4417 -0.0826 -0.6294
  786MOL0     C 3661  12.384   6.788  10.419 -0.4224 -0.3608  0.4005
  786MOL0     C 3662  12.436   6.872  10.545 -0.3860  0.0588  0.0166
  786MOL0     C 3663  12.587   6.911  10.527  0.1806 -0.5561 -0.6187
  786MOL0    Cl 3664  12.674   6.758  10.517  0.1372  0.4369 -0.2565
  786MOL0     C 3665  11.552   6.630  10.329 -0.7188 -0.4707 -0.1154
  786MOL0     C 3666  11.433   6.613  10.394 -0.0998 -0.4892 -0.7872
  786MOL0     O 3667  11.327   6.379  10.739  0.6385  0.0388  0.0756
  786MOL0     C 3668  11.026   6.566  10.666  0.7533 -0.1033  0.3221
  786MOL0     C 3669  10.890   6.567  10.707  0.0362 -0.3555  0.2698
  786MOL0     N 3670  10.080   6.336  10.667 -0.0408  0.7152 -0.1361
  786MOL0     N 3671  10.021   6.403  10.583 -0.2166 -0.2886  0.2054
  786MOL0     C 3672  10.757   6.273   9.908  0.2462 -0.3702  0.7860
  786MOL0     C 3673  10.894   6.291   9.898  0.2903 -0.5868  0.0780
  786MOL0     C 3674  11.332   6.283   9.728 -1.6450  0.2864 -0.3760
  786MOL0     C 3675  11.380   6.332   9.855 -0.1494 -0.6959 -0.6347
  786MOL0     C 3676  11.519   6.353   9.867  0.1852 -0.2071 -0.2220
  786MOL0     C 3677  11.608   6.343   9.764  0.3590 -0.3399  0.9355
  786MOL0     O 3678  11.741   6.356   9.795 -0.1318 -0.5105  0.2276
  786MOL0     C 3679  11.840   6.323   9.703  0.3551 -0.5267 -0.3346
  786MOL0     C 3680  11.985   6.318   9.752  0.1030  0.3942 -0.1263
  786MOL0     C 3681  12.032   6.456   9.799  0.5010 -0.8363 -1.1828
  786MOL0     C 3682  12.189   6.481   9.781 -0.1586  0.1119  0.2714
  786MOL0     C 3683  12.226   6.619   9.812  0.7266 -0.3531  0.8965
  786MOL0     C 3684  12.272   6.730   9.816 -0.6068  0.3570 -0.0529
  786MOL0     C 3685  11.556   6.299   9.639 -0.3771  0.0187 -0.5176
  786MOL0     C 3686  11.427   6.274   9.618 -1.0129  0.6712  0.1033
  786MOL0     H 3687  10.904   6.282   9.555 -2.3948 -1.2836 -1.3853
  786MOL0     H 3688  10.668   6.270   9.587  2.3947 -2.0740 -1.5974
  786MOL0     H 3689  10.410   6.289   9.661 -0.9018  1.5571 -0.5255
  786MOL0     H 3690  10.494   6.422   9.748 -0.4250  0.0045 -1.3628
  786MOL0     H 3691  10.325   6.223   9.894  0.5935 -0.0284  0.7030
  786MOL0     H 3692  10.248   6.338   9.788 -0.3165  1.4208  1.1512
  786MOL0     H 3693  10.349   6.523   9.927 -0.9099 -0.2505 -2.1249
  786MOL0     H 3694  10.439   6.406  10.026 -0.5676 -0.1444  0.6288
  786MOL0     H 3695  10.145   6.423  10.036  0.2547  0.5773 -0.6944
  786MOL0     H 3696  10.240   6.302  10.113  1.6508 -0.5546 -3.0478
  786MOL0     H 3697  10.245   6.610  10.131 -2.6575 -0.2261  0.3232
  786MOL0     H 3698  10.356   6.501  10.226 -0.1249 -2.2850  0.5414
  786MOL0     H 3699  10.161   6.403  10.332  0.7167  0.5002  0.9566
  786MOL0     H 3700  10.049   6.499  10.233 -1.0509  0.8754  1.9674
  786MOL0     H 3701  10.262   6.610  10.428  1.1571 -2.7773 -0.5402
  786MOL0     H 3702  10.168   6.703  10.308 -1.0996 -1.1294 -1.1109
  786MOL0     H 3703   9.956   6.603  10.431  0.4174 -1.6528  0.6668
  786MOL0     H 3704  10.050   6.731  10.508 -3.2007  0.2891 -0.7469
  786MOL0     H 3705  10.238   6.621  10.699 -2.4258  1.0738  1.5960
  786MOL0     H 3706  10.269   6.252  10.824 -0.9737  0.0291 -0.9446
  786MOL0     H 3707  10.221   6.382  10.934 -0.0624 -2.5566 -0.1949
  786MOL0     H 3708  10.430   6.515  10.774 -0.9007  0.2055 -0.7675
  786MOL0     H 3709  10.452   6.346  10.735  0.2220 -0.2119  0.2406
  786MOL0     H 3710  10.490   6.471  11.012 -2.4051  0.2311 -0.4358
  786MOL0     H 3711  10.476   6.295  10.987  2.0001  0.4126  1.0807
  786MOL0     H 3712  10.681   6.291  10.879 -0.9163 -0.1917 -0.0199
  786MOL0     H 3713  10.703   6.375  11.025 -0.0061  2.7333 -0.2409
  786MOL0     H 3714  10.911   6.386  10.987  0.3879  2.9520  1.2782
  786MOL0     H 3715  11.147   6.366  10.921 -1.7674 -0.2167  1.2435
  786MOL0     H 3716  11.509   6.351  10.596 -1.6512 -0.4423 -0.7625
  786MOL0     H 3717  11.726   6.369  10.463 -0.3544 -1.8526  3.0764
  786MOL0     H 3718  11.771   6.749  10.223 -0.3248  0.1965 -1.5683
  786MOL0     H 3719  11.761   6.626  10.098  0.2359  0.1777 -0.3264
  786MOL0     H 3720  12.001   6.689  10.090 -1.0868  0.9423  0.1503
  786MOL0     H 3721  11.992   6.532  10.178  0.6692  1.1067 -0.4920
  786MOL0     H 3722  12.004   6.647  10.392 -0.2629 -1.8879 -0.5996
  786MOL0     H 3723  11.990   6.801  10.302 -4.1400 -1.6306 -0.7982
  786MOL0     H 3724  12.225   6.600  10.286  0.3399  0.1534 -1.8994
  786MOL0     H 3725  12.215   6.746  10.193  0.3503  0.1208  0.2795
  786MOL0     H 3726  12.198   6.745  10.514 -4.9124  2.0365 -1.3124
  786MOL0     H 3727  12.197   6.882  10.415  0.1760  0.1405 -1.2762
  786MOL0     H 3728  12.426   6.835  10.329 -0.1211  2.4949  1.9453
  786MOL0     H 3729  12.430   6.689  10.427 -3.1229 -1.8613 -1.1611
  786MOL0     H 3730  12.369   6.957  10.563 -0.8584  0.3531 -2.6482
  786MOL0     H 3731  12.438   6.819  10.641  2.0201  2.6740  1.5658
  786MOL0     H 3732  12.614   6.965  10.619 -0.7125  1.8872 -1.6883
  786MOL0     H 3733  12.613   6.977  10.443  1.8798 -0.7293 -0.2779
  786MOL0     H 3734  11.572   6.711  10.259  2.7411 -0.0487  1.1898
  786MOL0     H 3735  11.355   6.686  10.373 -0.1854  0.0405  1.1538
  786MOL0     H 3736  11.056   6.609  10.571  3.7341  2.0729  2.0439
  786MOL0     H 3737  10.814   6.623  10.653 -3.0757 -4.4855 -0.1832
  786MOL0     H 3738  10.719   6.282  10.009 -1.5248  0.2795  0.0990
  786MOL0     H 3739  10.952   6.301   9.989  0.3705 -1.6619  0.1551
  786MOL0     H 3740  11.314   6.352   9.938  0.3912  1.0970 -0.5879
  786MOL0     H 3741  11.562   6.389   9.960  1.0000 -2.3706  0.3125
  786MOL0     H 3742  11.829   6.376   9.607 -1.7827  0.7429  0.5309
  786MOL0     H 3743  11.818   6.219   9.678  0.8175 -1.0366  1.3143
  786MOL0     H 3744  11.988   6.260   9.845  2.3351  1.3856  0.4832
  786MOL0     H 3745  12.064   6.281   9.687 -0.0198  0.5533 -0.3678
  786MOL0     H 3746  12.016   6.477   9.905  1.6072 -0.8746 -1.0032
  786MOL0     H 3747  11.976   6.536   9.749 -0.7283 -1.4181 -0.7905
  786MOL0     H 3748  12.238   6.401   9.838 -0.2122 -0.3309 -0.2876
  786MOL0     H 3749  12.211   6.449   9.678  2.9189 -0.7737  1.0941
  786MOL0     H 3750  12.315   6.828   9.823 -0.0495  0.0918  0.3700
  786MOL0     H 3751  11.624   6.304   9.554  0.1892 -1.0027 -0.1557
  786MOL0     H 3752  11.393   6.240   9.521  3.1799 -3.1543 -0.3486
  787MOL0     O 3753   5.803   1.973   0.915  0.9626 -0.7722  0.3546
  787MOL0     C 3754   5.848   1.906   1.010 -0.4236 -0.2509  0.3559
  787MOL0     O 3755   5.778   1.837   1.105 -0.2816  0.2170 -0.0803
  787MOL0     C 3756   5.644   1.814   1.094 -0.3819  0.1571  0.0755
  787MOL0     C 3757   5.560   1.924   1.082  0.2340 -0.7063 -0.7166
  787MOL0     C 3758   5.431   1.897   1.042 -0.6646  0.4781 -0.0404
  787MOL0     C 3759   5.386   1.776   0.996 -0.2717 -0.0174 -0.6796
  787MOL0     O 3760   5.260   1.759   0.945 -1.2608  0.9464  0.2742
  787MOL0     C 3761   5.186   1.632   0.964 -0.2130 -0.1846  0.2515
  787MOL0     C 3762   5.062   1.632   0.868  0.4188 -0.3811  0.2958
  787MOL0     C 3763   4.977   1.512   0.894  0.2387  0.9413  0.1503
  787MOL0     C 3764   4.884   1.480   0.774 -0.5014  0.3619  0.0112
  787MOL0     C 3765   4.837   1.338   0.773 -0.7823  0.5089  1.2384
  787MOL0     C 3766   4.744   1.288   0.881 -0.2639  0.4277 -0.1222
  787MOL0     C 3767   4.691   1.150   0.855 -0.0582 -0.5067  0.3130
  787MOL0     C 3768   4.575   1.139   0.756 -0.4775 -0.3663 -0.4709
  787MOL0     N 3769   4.446   1.142   0.835 -0.4099  0.2633 -0.0009
  787MOL0     C 3770   4.402   1.257   0.903 -0.8783  0.3874  0.3354
  787MOL0     C 3771   4.270   1.233   0.925  0.4958  0.0202  0.9072
  787MOL0     C 3772   4.159   1.316   0.991 -0.7424 -0.2785  0.5718
  787MOL0     C 3773   4.020   1.247   0.986 -0.0282 -0.2556 -0.6190
  787MOL0     C 3774   3.917   1.349   1.023 -0.2696 -0.0964 -0.1931
  787MOL0     C 3775   3.780   1.288   1.017 -0.4840  0.0252  0.3657
  787MOL0     O 3776   3.734   1.288   0.885  0.2560  0.0154  0.6705
  787MOL0     C 3777   3.610   1.225   0.858  0.0606  0.8150 -0.4794
  787MOL0     C 3778   3.598   1.114   0.774  0.4028 -0.5360  0.1561
  787MOL0     C 3779   3.476   1.053   0.748  0.2345  0.0580 -0.4215
  787MOL0     C 3780   3.358   1.120   0.795 -0.4879 -0.1830  0.7381
  787MOL0     C 3781   3.218   1.080   0.776 -0.2401  0.7855  0.3747
  787MOL0     O 3782   3.125   1.127   0.865 -0.3885  0.2538  0.5241
  787MOL0     C 3783   2.999   1.069   0.868 -0.0612 -0.2506  0.2527
  787MOL0     C 3784   2.890   1.150   0.850  0.0764  1.2525  0.3871
  787MOL0     C 3785   2.763   1.096   0.856 -0.6687 -0.3281  0.5675
  787MOL0     C 3786   2.741   0.961   0.864  0.7919 -0.2055  0.2784
  787MOL0     O 3787   2.621   0.897   0.875 -0.1172 -0.0870 -0.1162
  787MOL0     C 3788   2.502   0.969   0.828 -1.0171 -0.0624 -0.8492
  787MOL0     C 3789   2.384   0.876   0.853 -0.0886 -0.1317  0.0052
  787MOL0     C 3790   2.338   0.892   0.995 -0.1168 -0.0897 -0.8612
  787MOL0     C 3791   2.228   0.795   1.042  0.2679  0.3966  0.1134
  787MOL0     C 3792   2.095   0.815   0.991  0.5894 -0.6454  0.0745
  787MOL0     C 3793   1.986   0.727   1.060  0.0880 -0.1350  0.3539
  787MOL0     C 3794   1.843   0.738   0.992  0.1746 -0.9228 -0.2400
  787MOL0     C 3795   1.720   0.664   1.055 -0.2265  0.0853  0.3935
  787MOL0    Cl 3796   1.566   0.703   0.973 -0.0085 -0.2406  0.0636
  787MOL0     C 3797   2.853   0.876   0.870 -0.1321  0.2162 -0.0597
  787MOL0     C 3798   2.980   0.932   0.888 -0.0650 -1.0922 -0.4057
  787MOL0     O 3799   3.195   0.997   0.689  0.8685 -0.1432  0.0095
  787MOL0     C 3800   3.374   1.237   0.867  1.3098  0.2145 -0.7230
  787MOL0     C 3801   3.502   1.294   0.895  0.1174  0.6817  0.5732
  787MOL0     N 3802   4.238   1.113   0.877 -0.7375 -1.1831  0.9749
  787MOL0     N 3803   4.342   1.059   0.827 -0.8644 -0.1275 -0.6687
  787MOL0     C 3804   5.468   1.665   1.014  0.4390  0.5599 -0.0898
  787MOL0     C 3805   5.597   1.681   1.071 -0.1824  0.0682  0.3623
  787MOL0     C 3806   5.998   1.901   1.029  0.3354  0.8492  0.2313
  787MOL0     C 3807   6.057   1.835   1.133  0.1366 -0.1483 -0.1260
  787MOL0     C 3808   6.197   1.826   1.141  0.3732 -0.8114 -0.5261
  787MOL0     C 3809   6.275   1.897   1.046  0.9160  0.2603 -0.0089
  787MOL0     O 3810   6.410   1.892   1.060 -0.3473 -0.2365  0.1975
  787MOL0     C 3811   6.499   1.958   0.968  0.2580 -0.3568 -0.2888
  787MOL0     C 3812   6.645   1.955   1.016  0.3293 -0.6929 -0.0162
  787MOL0     C 3813   6.752   2.004   0.922 -0.5037  0.1865 -0.2760
  787MOL0     C 3814   6.748   2.155   0.925 -0.1110  0.2595 -0.2424
  787MOL0     C 3815   6.837   2.211   0.825  0.3382  0.1155 -1.0439
  787MOL0     C 3816   6.911   2.245   0.744 -0.1645  0.2514 -0.0222
  787MOL0     C 3817   6.219   1.964   0.942  0.1167 -0.7260  0.0973
  787MOL0     C 3818   6.079   1.958   0.930 -0.0832 -0.4293  0.0479
  787MOL0     H 3819   5.599   2.025   1.091  3.0712 -1.9165  2.7686
  787MOL0     H 3820   5.359   1.977   1.026 -0.5916  0.2193 -1.8935
  787MOL0     H 3821   5.151   1.625   1.068  1.0152 -1.2254  0.6178
  787MOL0     H 3822   5.233   1.539   0.930 -1.8188 -1.2468  0.7973
  787MOL0     H 3823   5.098   1.632   0.764  0.7507 -0.5104  0.4098
  787MOL0     H 3824   4.997   1.719   0.883  1.6927  0.3800  1.6506
  787MOL0     H 3825   4.936   1.533   0.993 -0.3234  1.5114 -0.1923
  787MOL0     H 3826   5.039   1.423   0.907  1.1997  1.6185  0.2583
  787MOL0     H 3827   4.793   1.540   0.783 -2.2882 -1.7161 -2.8031
  787MOL0     H 3828   4.936   1.507   0.682 -0.8615 -0.6731 -0.5062
  787MOL0     H 3829   4.927   1.276   0.767 -0.9711  0.3745 -1.2240
  787MOL0     H 3830   4.782   1.326   0.679  1.2597  0.3840 -0.0057
  787MOL0     H 3831   4.664   1.362   0.890  1.1360  1.8018  2.1565
  787MOL0     H 3832   4.789   1.303   0.980  0.3346 -1.0059 -0.1383
  787MOL0     H 3833   4.783   1.092   0.840 -0.0007 -0.4183  0.3240
  787MOL0     H 3834   4.655   1.116   0.953 -0.0808 -3.6766 -0.6861
  787MOL0     H 3835   4.573   1.042   0.705 -0.0433 -0.8630  0.4259
  787MOL0     H 3836   4.581   1.216   0.679 -0.6775  1.3191  1.1262
  787MOL0     H 3837   4.463   1.343   0.928 -0.1962  0.5806 -1.8248
  787MOL0     H 3838   4.151   1.412   0.941  1.6493 -1.0192 -1.4829
  787MOL0     H 3839   4.191   1.337   1.094  3.4095 -0.1473 -0.5682
  787MOL0     H 3840   4.013   1.161   1.053 -1.3061 -0.6603 -1.2431
  787MOL0     H 3841   4.001   1.212   0.884  0.1618 -2.3878  0.0360
  787MOL0     H 3842   3.942   1.383   1.124  3.5593 -0.4182 -0.8626
  787MOL0     H 3843   3.928   1.419   0.940 -1.9241  2.3406  1.5404
  787MOL0     H 3844   3.712   1.333   1.090  3.2396  2.5102  2.6630
  787MOL0     H 3845   3.778   1.185   1.055  0.8322  0.1460  0.8291
  787MOL0     H 3846   3.683   1.068   0.725 -0.5506 -2.3265  0.0970
  787MOL0     H 3847   3.462   0.971   0.678 -4.6275 -1.6969  2.1868
  787MOL0     H 3848   2.903   1.257   0.836  0.9390  1.1103  0.0373
  787MOL0     H 3849   2.679   1.164   0.867 -0.7339  0.1041 -1.9665
  787MOL0     H 3850   2.515   0.984   0.720 -0.3404  0.0685 -0.7572
  787MOL0     H 3851   2.491   1.064   0.880 -4.0207 -1.6447  1.7112
  787MOL0     H 3852   2.412   0.771   0.842 -0.1297 -0.4183  2.0850
  787MOL0     H 3853   2.309   0.899   0.777  0.9941 -0.5360 -1.2034
  787MOL0     H 3854   2.304   0.996   1.001  0.5057  0.0314  1.9275
  787MOL0     H 3855   2.416   0.875   1.071 -2.0039 -0.7401  1.0172
  787MOL0     H 3856   2.259   0.698   1.002 -0.0678  0.7585 -1.0539
  787MOL0     H 3857   2.224   0.795   1.151  0.9673  1.9408  0.1728
  787MOL0     H 3858   2.089   0.797   0.883 -0.6422  0.0655  0.0100
  787MOL0     H 3859   2.066   0.919   1.002 -0.8604 -1.2664  3.3191
  787MOL0     H 3860   1.977   0.767   1.161 -2.7948 -0.2803  0.2398
  787MOL0     H 3861   2.007   0.620   1.058 -2.0234 -0.5966 -2.2932
  787MOL0     H 3862   1.819   0.845   0.997 -0.7029 -1.1275  0.2187
  787MOL0     H 3863   1.845   0.713   0.885 -0.9128 -1.3630 -0.1717
  787MOL0     H 3864   1.709   0.683   1.163 -0.5285 -1.1821  0.6081
  787MOL0     H 3865   1.727   0.555   1.048 -2.8525 -0.1490  0.5015
  787MOL0     H 3866   2.858   0.769   0.885 -1.4162  0.3214  1.2822
  787MOL0     H 3867   3.076   0.881   0.892  1.5288  1.6741 -0.3466
  787MOL0     H 3868   3.287   1.290   0.905  1.4437  0.3640 -0.6195
  787MOL0     H 3869   3.512   1.384   0.953  2.1705  2.4480 -2.2551
  787MOL0     H 3870   5.448   1.563   0.983  0.6508  0.8317 -1.1674
  787MOL0     H 3871   5.657   1.590   1.068 -0.9153 -0.3976 -0.7584
  787MOL0     H 3872   5.989   1.795   1.208  1.1023 -2.7821 -0.5305
  787MOL0     H 3873   6.249   1.783   1.225 -1.7532  0.5893  1.6467
  787MOL0     H 3874   6.467   2.062   0.957  0.7068 -0.3229 -1.3567
  787MOL0     H 3875   6.489   1.911   0.870  0.7347 -3.3160  0.9879
  787MOL0     H 3876   6.650   2.015   1.107 -1.0037 -1.5624  0.6760
  787MOL0     H 3877   6.668   1.852   1.047 -0.3825 -1.3099 -1.4398
  787MOL0     H 3878   6.735   1.969   0.819 -1.2080  0.1439 -0.1524
  787MOL0     H 3879   6.853   1.972   0.949 -0.3134  0.6994 -0.3627
  787MOL0     H 3880   6.651   2.205   0.934  0.9528  2.4637 -0.1833
  787MOL0     H 3881   6.796   2.176   1.021  1.4554  0.6780 -1.0777
  787MOL0     H 3882   6.989   2.263   0.673  0.2863 -2.8225 -0.4295
  787MOL0     H 3883   6.279   2.019   0.870 -0.9245  3.8976  2.3222
  787MOL0     H 3884   6.040   2.010   0.843 -0.5962  0.3330  0.7219
  788MOL0     O 3885   7.976   4.779   9.678  0.2713  0.4970  0.2574
  788MOL0     C 3886   8.000   4.676   9.616 -0.4484 -0.3095 -0.3558
  788MOL0     O 3887   7.927   4.560   9.608 -0.3033  0.3681  0.6535
  788MOL0     C 3888   7.803   4.556   9.665 -0.2018  0.0916  1.0087
  788MOL0     C 3889   7.698   4.641   9.614 -0.1723  0.5591 -0.9000
  788MOL0     C 3890   7.566   4.641   9.685 -0.6607 -0.6657  0.5283
  788MOL0     C 3891   7.548   4.554   9.788  0.0358  0.0866  0.1150
  788MOL0     O 3892   7.444   4.559   9.872  0.3421 -0.6962  0.2965
  788MOL0     C 3893   7.312   4.578   9.819 -0.7450  0.6870 -0.0664
  788MOL0     C 3894   7.234   4.451   9.864 -1.3214 -0.5533  0.4523
  788MOL0     C 3895   7.084   4.453   9.828 -0.1426  0.9212 -0.1286
  788MOL0     C 3896   7.011   4.326   9.870  0.5049  0.1264  0.2446
  788MOL0     C 3897   6.858   4.320   9.826 -0.3674 -0.3260 -0.5540
  788MOL0     C 3898   6.773   4.390   9.938 -0.1325  0.4192  1.0230
  788MOL0     C 3899   6.623   4.375   9.894  0.4576 -0.4179 -0.0755
  788MOL0     C 3900   6.588   4.467   9.773 -0.0658  0.0898 -0.6355
  788MOL0     N 3901   6.441   4.491   9.782 -0.4260 -0.3655 -0.2622
  788MOL0     C 3902   6.342   4.402   9.742  0.5180  0.0426 -0.3980
  788MOL0     C 3903   6.227   4.448   9.790 -0.4036 -0.0246  0.0598
  788MOL0     C 3904   6.083   4.392   9.770 -0.3803  0.3534 -0.4876
  788MOL0     C 3905   6.069   4.253   9.835  0.7949 -0.0040 -0.2138
  788MOL0     C 3906   5.962   4.166   9.771 -0.4854  0.0928  0.1394
  788MOL0     C 3907   5.821   4.204   9.814  0.2901 -0.8861 -0.8124
  788MOL0     O 3908   5.717   4.101   9.779 -1.0090 -0.1425  0.7212
  788MOL0     C 3909   5.586   4.136   9.799  0.9398  0.5512  0.5700
  788MOL0     C 3910   5.488   4.034   9.754 -0.3301 -0.4081 -0.0243
  788MOL0     C 3911   5.354   4.062   9.755  0.2377 -0.5187  0.1931
  788MOL0     C 3912   5.297   4.180   9.797 -0.2169 -0.8070 -0.1865
  788MOL0     C 3913   5.154   4.204   9.793  0.0632  0.3864  0.1881
  788MOL0     O 3914   5.088   4.158   9.689  0.1797  0.8586 -0.1664
  788MOL0     C 3915   4.949   4.151   9.693  1.0649 -0.2056 -0.6829
  788MOL0     C 3916   4.862   4.265   9.686 -1.1141  0.1122 -0.3526
  788MOL0     C 3917   4.724   4.252   9.699 -0.1845 -1.0931  0.5348
  788MOL0     C 3918   4.661   4.124   9.711 -0.1204  0.2395 -0.6326
  788MOL0     O 3919   4.519   4.123   9.711  0.1038 -0.0837  0.3963
  788MOL0     C 3920   4.451   3.999   9.705  0.5147 -0.2284  0.7914
  788MOL0     C 3921   4.298   4.029   9.689 -0.1087  0.2313  0.2342
  788MOL0     C 3922   4.216   3.896   9.688  0.0716  0.4210  0.1717
  788MOL0     C 3923   4.083   3.911   9.612  0.2198 -0.9339  0.3795
  788MOL0     C 3924   4.016   3.774   9.634  0.5304 -0.1137  0.5169
  788MOL0     C 3925   3.872   3.762   9.574  0.0252  0.5295 -0.2169
  788MOL0     C 3926   3.796   3.642   9.621 -0.3885 -0.8115 -0.1086
  788MOL0     C 3927   3.753   3.640   9.765 -0.0557  0.4349  0.2659
  788MOL0    Cl 3928   3.623   3.525   9.778 -0.3578  0.4024 -0.0193
  788MOL0     C 3929   4.746   4.009   9.725  0.2927 -0.0321 -0.1462
  788MOL0     C 3930   4.886   4.031   9.718  0.3380  0.0696 -0.2468
  788MOL0     O 3931   5.102   4.245   9.899  0.2035  0.2014  0.1757
  788MOL0     C 3932   5.386   4.274   9.851  0.2017  0.0862  0.4219
  788MOL0     C 3933   5.527   4.248   9.856  0.3936 -0.2602 -0.6939
  788MOL0     N 3934   6.263   4.566   9.871 -1.3136  0.2491 -0.4798
  788MOL0     N 3935   6.393   4.582   9.869  0.0738  0.0750  0.7143
  788MOL0     C 3936   7.645   4.465   9.837 -0.4624 -0.3519 -0.3724
  788MOL0     C 3937   7.775   4.471   9.775 -0.4266  0.0531  0.3637
  788MOL0     C 3938   8.108   4.674   9.522  0.6588 -1.6466  0.6610
  788MOL0     C 3939   8.174   4.796   9.483 -0.2315  0.4524  0.1488
  788MOL0     C 3940   8.285   4.789   9.400  0.3193 -0.8473 -0.4007
  788MOL0     C 3941   8.339   4.666   9.365 -0.3906 -0.7336  0.6493
  788MOL0     O 3942   8.464   4.656   9.305 -0.3786 -0.3755 -0.0771
  788MOL0     C 3943   8.515   4.537   9.236 -0.6495  0.6191  0.8767
  788MOL0     C 3944   8.635   4.577   9.152  0.7353 -0.1501  0.1431
  788MOL0     C 3945   8.760   4.602   9.235  0.0958  1.3558  0.2380
  788MOL0     C 3946   8.885   4.631   9.153 -0.5180 -0.1207  0.8064
  788MOL0     C 3947   8.926   4.515   9.067  0.0757  0.0992 -0.5645
  788MOL0     C 3948   8.961   4.429   8.992 -0.0054  0.2972  1.1749
  788MOL0     C 3949   8.272   4.552   9.388  0.6567 -0.1690 -0.1461
  788MOL0     C 3950   8.149   4.560   9.463 -0.6094 -0.0949 -0.2993
  788MOL0     H 3951   7.719   4.711   9.533  3.0507 -1.1517 -1.6992
  788MOL0     H 3952   7.489   4.707   9.647 -0.4989 -2.2585 -2.9367
  788MOL0     H 3953   7.311   4.589   9.710  1.3696  0.6630 -0.1170
  788MOL0     H 3954   7.269   4.667   9.865  0.0532  0.9842  0.1188
  788MOL0     H 3955   7.239   4.425   9.970 -1.7369  0.1113  0.6465
  788MOL0     H 3956   7.273   4.361   9.816 -1.8703  0.3183 -1.7447
  788MOL0     H 3957   7.067   4.487   9.726 -2.1554  1.8235  0.4750
  788MOL0     H 3958   7.052   4.537   9.889  1.8254 -0.9995  3.9760
  788MOL0     H 3959   7.066   4.246   9.820  1.3212 -0.2944  1.7477
  788MOL0     H 3960   7.020   4.310   9.978  0.3793  1.2107  0.4248
  788MOL0     H 3961   6.827   4.215   9.812 -0.2045 -0.5685  0.7644
  788MOL0     H 3962   6.854   4.349   9.721  2.7489 -3.6935 -1.8118
  788MOL0     H 3963   6.787   4.499   9.941 -1.0054  0.5161  2.8302
  788MOL0     H 3964   6.794   4.344  10.035  1.2218 -0.8457  0.1793
  788MOL0     H 3965   6.597   4.273   9.864 -0.3363  0.0315 -0.9544
  788MOL0     H 3966   6.556   4.415   9.971 -0.2534  0.0341 -0.9064
  788MOL0     H 3967   6.622   4.421   9.680  3.4123  3.4307 -1.2375
  788MOL0     H 3968   6.639   4.563   9.784  0.5331 -0.4519  2.3436
  788MOL0     H 3969   6.347   4.302   9.699 -2.2930 -1.2775  1.9414
  788MOL0     H 3970   6.052   4.394   9.665 -2.2152  0.8286  0.0369
  788MOL0     H 3971   6.021   4.462   9.826  0.9682  1.2999 -0.1474
  788MOL0     H 3972   6.046   4.259   9.942 -1.7433 -1.3543 -0.5920
  788MOL0     H 3973   6.165   4.201   9.835  0.2505 -1.0807  1.3641
  788MOL0     H 3974   5.965   4.172   9.662 -0.7539  1.2894  0.1826
  788MOL0     H 3975   5.969   4.064   9.812  0.4290  0.6390  1.3965
  788MOL0     H 3976   5.795   4.301   9.769 -1.6905 -0.0805  1.7887
  788MOL0     H 3977   5.816   4.221   9.921  1.4355 -1.1514 -0.7094
  788MOL0     H 3978   5.512   3.936   9.715  3.2316  0.2796  0.1542
  788MOL0     H 3979   5.292   3.985   9.712  1.4138 -2.6196  2.0809
  788MOL0     H 3980   4.899   4.366   9.673  0.0273 -0.4428 -1.6468
  788MOL0     H 3981   4.652   4.333   9.694 -0.6937 -1.5190  0.7763
  788MOL0     H 3982   4.476   3.946   9.797  1.5150  0.0254  0.6729
  788MOL0     H 3983   4.484   3.948   9.614  0.2122 -1.2152  1.2188
  788MOL0     H 3984   4.270   4.079   9.596 -2.5648 -0.1497  0.7081
  788MOL0     H 3985   4.257   4.096   9.765 -0.5876  0.0131  0.1736
  788MOL0     H 3986   4.199   3.876   9.795 -2.6928 -2.2265 -0.5967
  788MOL0     H 3987   4.277   3.813   9.651 -1.2261 -0.1866 -0.7053
  788MOL0     H 3988   4.015   3.986   9.654  1.0659  0.1887 -0.2113
  788MOL0     H 3989   4.108   3.935   9.508  0.4049 -0.3905  0.5441
  788MOL0     H 3990   4.017   3.742   9.738  0.5020  3.9047  1.8967
  788MOL0     H 3991   4.083   3.715   9.570  2.7617  0.2877  2.3618
  788MOL0     H 3992   3.875   3.775   9.466  0.6832  0.9607 -0.1505
  788MOL0     H 3993   3.811   3.838   9.625 -0.9705 -0.8985  0.8230
  788MOL0     H 3994   3.710   3.638   9.553  0.3219 -1.7899 -0.9911
  788MOL0     H 3995   3.852   3.551   9.596  0.5996  0.2769 -2.0863
  788MOL0     H 3996   3.730   3.743   9.794  1.2479  1.0384 -0.7380
  788MOL0     H 3997   3.840   3.616   9.826 -0.4477 -3.0481 -0.3450
  788MOL0     H 3998   4.709   3.911   9.753  0.3932  0.7328  3.0532
  788MOL0     H 3999   4.941   3.941   9.740 -1.3252 -1.2053 -1.0927
  788MOL0     H 4000   5.352   4.371   9.887 -0.5765 -0.0567  0.1039
  788MOL0     H 4001   5.604   4.319   9.884 -0.4000  0.3280  0.0210
  788MOL0     H 4002   7.615   4.394   9.914 -2.8961 -1.3839 -2.1281
  788MOL0     H 4003   7.850   4.410   9.823  2.7336  5.1488  2.6796
  788MOL0     H 4004   8.134   4.893   9.510 -3.6506 -0.9191  0.5573
  788MOL0     H 4005   8.336   4.883   9.385  2.3644 -1.3470  2.6222
  788MOL0     H 4006   8.443   4.487   9.171 -1.4194  1.0490  1.3749
  788MOL0     H 4007   8.558   4.466   9.307 -0.0294  0.4245  0.3077
  788MOL0     H 4008   8.641   4.491   9.084 -0.2314  0.2494 -0.4681
  788MOL0     H 4009   8.606   4.672   9.107  1.2073 -0.3122 -0.5233
  788MOL0     H 4010   8.771   4.505   9.285 -0.2842  1.3010  0.2152
  788MOL0     H 4011   8.730   4.685   9.300 -2.6326  2.8485 -2.6548
  788MOL0     H 4012   8.878   4.720   9.090  0.6398 -0.3446  0.3363
  788MOL0     H 4013   8.965   4.645   9.227 -0.3218 -2.5350  1.1190
  788MOL0     H 4014   8.988   4.350   8.925  1.1865  2.1105 -0.6146
  788MOL0     H 4015   8.315   4.455   9.362 -1.7654 -1.7669  1.3686
  788MOL0     H 4016   8.090   4.471   9.483 -0.6208 -0.3161 -1.2238
  789MOL0     O 4017   3.274   0.334   9.068  0.9317 -0.6691 -0.0273
  789MOL0     C 4018   3.245   0.287   9.176  0.4862  0.3301  0.8745
  789MOL0     O 4019   3.117   0.253   9.215  0.1643 -0.6938  0.6202
  789MOL0     C 4020   3.011   0.272   9.127  0.0895  0.2402  0.1312
  789MOL0     C 4021   2.897   0.330   9.182  0.1422 -0.9561  0.4919
  789MOL0     C 4022   2.777   0.329   9.109 -0.0608  0.3112  0.0934
  789MOL0     C 4023   2.769   0.273   8.983  0.1533  0.8456 -0.0287
  789MOL0     O 4024   2.647   0.260   8.920 -0.5750  0.3520  0.1620
  789MOL0     C 4025   2.625   0.183   8.802 -0.0376  0.1435  0.0376
  789MOL0     C 4026   2.481   0.136   8.796  0.2168  1.0436  0.0575
  789MOL0     C 4027   2.455   0.031   8.907 -0.3707  0.4528  0.1872
  789MOL0     C 4028   2.313  -0.018   8.883 -0.3061 -0.2829 -0.8073
  789MOL0     C 4029   2.267  -0.127   8.987  0.4234  0.2646  0.2083
  789MOL0     C 4030   2.158  -0.215   8.921  0.0171 -0.2737 -0.3533
  789MOL0     C 4031   2.111  -0.329   9.012 -0.2656 -0.2366 -0.9183
  789MOL0     C 4032   2.062  -0.455   8.939 -0.1175 -0.0808 -0.5041
  789MOL0     N 4033   1.938  -0.424   8.863 -0.1341 -0.2655  0.2355
  789MOL0     C 4034   1.812  -0.421   8.916  1.0945  0.5924  0.3667
  789MOL0     C 4035   1.731  -0.393   8.802  0.4497 -0.4351 -0.8934
  789MOL0     C 4036   1.580  -0.376   8.813 -0.6521  0.3544 -0.4420
  789MOL0     C 4037   1.525  -0.256   8.896 -0.2693 -0.0624  0.0916
  789MOL0     C 4038   1.531  -0.111   8.837 -0.2402  0.5583 -0.2571
  789MOL0     C 4039   1.666  -0.052   8.816 -0.6704  0.3236  0.4083
  789MOL0     O 4040   1.669   0.035   8.696  0.3572  0.6560 -0.2198
  789MOL0     C 4041   1.768   0.129   8.689 -0.8152 -0.1564 -0.1522
  789MOL0     C 4042   1.725   0.259   8.674  0.7746  0.3068 -0.5698
  789MOL0     C 4043   1.818   0.363   8.663  0.6048 -0.2130  0.2132
  789MOL0     C 4044   1.955   0.348   8.690  0.2086  1.2659  0.5104
  789MOL0     C 4045   2.043   0.463   8.713  0.4622  0.1638 -0.2010
  789MOL0     O 4046   2.179   0.439   8.720  1.2198  0.0767 -0.1473
  789MOL0     C 4047   2.265   0.540   8.755  0.0679  0.6985 -0.1321
  789MOL0     C 4048   2.349   0.511   8.862 -0.4228  0.1703 -0.1874
  789MOL0     C 4049   2.453   0.597   8.894  0.0599 -0.0924  0.5934
  789MOL0     C 4050   2.468   0.722   8.827 -0.2780 -0.0563  0.1027
  789MOL0     O 4051   2.584   0.806   8.839  0.3681 -0.0043  0.1578
  789MOL0     C 4052   2.682   0.768   8.932  0.5362  0.1055 -0.0569
  789MOL0     C 4053   2.662   0.810   9.082 -0.5777  0.1260  0.5439
  789MOL0     C 4054   2.746   0.730   9.174  0.2181 -0.4917 -0.6250
  789MOL0     C 4055   2.895   0.773   9.186  0.1892 -0.7118  0.0762
  789MOL0     C 4056   2.976   0.671   9.257  0.3915  0.6361 -0.0224
  789MOL0     C 4057   3.122   0.714   9.285 -0.3276  0.1896 -0.0913
  789MOL0     C 4058   3.190   0.596   9.356  0.6277 -0.0244  0.1025
  789MOL0     C 4059   3.329   0.632   9.401 -1.0604 -0.3092 -0.3559
  789MOL0    Cl 4060   3.322   0.705   9.565 -0.1968  0.0573  0.1136
  789MOL0     C 4061   2.376   0.755   8.730 -0.3260  0.3338  0.2230
  789MOL0     C 4062   2.277   0.664   8.692  0.1676 -0.0353 -0.1961
  789MOL0     O 4063   1.984   0.566   8.740  0.3767 -0.4589 -0.7757
  789MOL0     C 4064   2.003   0.214   8.712  0.5409 -0.4568  0.2689
  789MOL0     C 4065   1.908   0.111   8.712  0.7990  1.1151  0.0803
  789MOL0     N 4066   1.820  -0.368   8.693  0.1288 -0.0927 -0.1893
  789MOL0     N 4067   1.938  -0.391   8.730  1.5368  0.1584  0.4274
  789MOL0     C 4068   2.879   0.229   8.924  0.1354 -0.0692  0.0535
  789MOL0     C 4069   3.005   0.230   8.990 -0.2343  0.5030 -0.0809
  789MOL0     C 4070   3.351   0.272   9.274  0.5646  0.3193 -0.5572
  789MOL0     C 4071   3.316   0.256   9.412  0.3747 -0.5038 -0.9045
  789MOL0     C 4072   3.424   0.244   9.502 -0.3955 -0.2484  0.4543
  789MOL0     C 4073   3.551   0.261   9.473  0.3743  0.3767  0.5450
  789MOL0     O 4074   3.639   0.254   9.575 -0.3145 -0.5779  0.0416
  789MOL0     C 4075   3.757   0.338   9.580 -0.7206 -0.1848 -0.5190
  789MOL0     C 4076   3.735   0.463   9.665 -0.3844  0.7896 -0.9216
  789MOL0     C 4077   3.846   0.569   9.641 -0.8280  0.3790 -0.6561
  789MOL0     C 4078   3.836   0.685   9.743 -0.6279  0.7849  0.3387
  789MOL0     C 4079   3.712   0.755   9.728  0.0293 -1.0543 -0.3340
  789MOL0     C 4080   3.611   0.821   9.722  0.5545 -0.3811  0.3193
  789MOL0     C 4081   3.580   0.268   9.341 -0.1899 -0.1213  0.4087
  789MOL0     C 4082   3.484   0.266   9.238 -0.6910 -0.2762 -0.0529
  789MOL0     H 4083   2.907   0.376   9.280  2.0799 -2.2341  0.9505
  789MOL0     H 4084   2.682   0.377   9.131  0.2197  0.8640  0.1243
  789MOL0     H 4085   2.694   0.098   8.806  1.6102  1.4415  0.7830
  789MOL0     H 4086   2.636   0.242   8.710 -3.3140  0.3356 -0.3379
  789MOL0     H 4087   2.452   0.103   8.696 -0.1927 -0.3933  0.6327
  789MOL0     H 4088   2.413   0.220   8.808 -1.1403  0.1470 -1.1044
  789MOL0     H 4089   2.469   0.075   9.006  1.3559  1.9237 -0.6612
  789MOL0     H 4090   2.531  -0.047   8.896  0.8347  1.5385  0.5616
  789MOL0     H 4091   2.241   0.062   8.898 -0.2490 -0.6470  2.0179
  789MOL0     H 4092   2.316  -0.059   8.782  2.3840 -1.2085 -0.4548
  789MOL0     H 4093   2.231  -0.079   9.078  2.1806 -0.1334  1.1595
  789MOL0     H 4094   2.359  -0.181   9.011  3.1740  3.6010 -1.8396
  789MOL0     H 4095   2.188  -0.264   8.828  0.4856 -0.2857 -0.1976
  789MOL0     H 4096   2.064  -0.161   8.908 -0.4447 -0.7975  0.6727
  789MOL0     H 4097   2.188  -0.364   9.081 -2.2653 -0.4790  1.3281
  789MOL0     H 4098   2.047  -0.282   9.088  1.7429  2.9115 -0.9932
  789MOL0     H 4099   2.041  -0.541   9.004 -0.4221 -1.2324 -2.0625
  789MOL0     H 4100   2.140  -0.484   8.869  0.5316 -2.4486  1.0938
  789MOL0     H 4101   1.781  -0.439   9.018 -2.5167  0.1168 -0.6787
  789MOL0     H 4102   1.540  -0.468   8.858 -0.3349  0.7344  0.6496
  789MOL0     H 4103   1.526  -0.365   8.719  1.1757 -2.2721 -1.9383
  789MOL0     H 4104   1.579  -0.247   8.990 -0.1370 -0.9350  0.1026
  789MOL0     H 4105   1.423  -0.287   8.923  0.6962 -1.6868  2.0701
  789MOL0     H 4106   1.476  -0.113   8.742 -0.5103 -1.2205 -0.0937
  789MOL0     H 4107   1.471  -0.040   8.894 -0.9533 -1.2061  1.3017
  789MOL0     H 4108   1.741  -0.129   8.798 -0.2383  0.9165 -0.4224
  789MOL0     H 4109   1.694   0.003   8.907 -0.5870 -0.4965  0.8878
  789MOL0     H 4110   1.617   0.270   8.671  0.7831  0.3687 -0.6908
  789MOL0     H 4111   1.783   0.465   8.646  0.1884 -0.3379  0.3063
  789MOL0     H 4112   2.341   0.418   8.917  2.8513  0.7535  1.5014
  789MOL0     H 4113   2.529   0.563   8.964  0.9189  2.0691  0.8083
  789MOL0     H 4114   2.770   0.815   8.886  1.1199 -0.8906  0.0081
  789MOL0     H 4115   2.694   0.659   8.928 -2.0494 -0.2495  0.1753
  789MOL0     H 4116   2.554   0.798   9.100 -0.4577  0.4840  1.5409
  789MOL0     H 4117   2.692   0.915   9.084  1.7112 -0.4856  0.9336
  789MOL0     H 4118   2.739   0.623   9.152  1.7542 -0.4862 -1.2476
  789MOL0     H 4119   2.707   0.748   9.274  2.7429 -1.6738  0.6513
  789MOL0     H 4120   2.947   0.785   9.091  0.7741 -2.9253  0.0745
  789MOL0     H 4121   2.897   0.873   9.230  1.1763 -0.0584 -1.3600
  789MOL0     H 4122   2.979   0.584   9.191 -1.3977  0.4976  0.0339
  789MOL0     H 4123   2.939   0.634   9.353  0.9211 -1.2753 -0.5221
  789MOL0     H 4124   3.137   0.806   9.343  2.7840  2.1798 -3.5636
  789MOL0     H 4125   3.177   0.731   9.192 -0.3254  0.8441  0.0271
  789MOL0     H 4126   3.124   0.555   9.432 -0.7677 -2.4924 -2.2805
  789MOL0     H 4127   3.207   0.513   9.287  0.8638  0.6781 -0.7124
  789MOL0     H 4128   3.390   0.693   9.334 -1.1661  0.9348  0.6533
  789MOL0     H 4129   3.392   0.544   9.419 -0.6476  0.4697  2.4432
  789MOL0     H 4130   2.378   0.850   8.678  0.9550  0.2503  0.0822
  789MOL0     H 4131   2.187   0.676   8.632 -0.1533 -2.3934 -0.2963
  789MOL0     H 4132   2.111   0.204   8.719  0.9739  1.2997 -2.3727
  789MOL0     H 4133   1.939   0.007   8.712 -1.8405  0.2221 -1.3585
  789MOL0     H 4134   2.888   0.184   8.826 -0.7580  1.8232 -0.9477
  789MOL0     H 4135   3.094   0.187   8.947 -1.2788 -4.2180  1.8835
  789MOL0     H 4136   3.214   0.247   9.449  0.1203 -0.1329 -1.4914
  789MOL0     H 4137   3.398   0.244   9.607  0.8795  2.4388  0.8361
  789MOL0     H 4138   3.797   0.361   9.481  1.0125 -1.1578 -0.0924
  789MOL0     H 4139   3.842   0.280   9.617  0.0025 -0.7706 -2.9009
  789MOL0     H 4140   3.643   0.516   9.638  0.4643  1.6765 -2.1709
  789MOL0     H 4141   3.748   0.429   9.768  1.8695 -0.2148 -1.4684
  789MOL0     H 4142   3.838   0.615   9.542 -2.3097  1.9819  0.1374
  789MOL0     H 4143   3.941   0.520   9.663 -1.0537  0.1240 -0.2363
  789MOL0     H 4144   3.846   0.640   9.843  0.0897  1.5146  0.6107
  789MOL0     H 4145   3.914   0.761   9.734  0.9996 -0.8644 -0.4186
  789MOL0     H 4146   3.510   0.856   9.717  1.6052  3.0344 -0.0634
  789MOL0     H 4147   3.686   0.260   9.320 -0.5023 -0.1104 -1.3045
  789MOL0     H 4148   3.517   0.269   9.134  0.6389 -0.9464  0.3318
  790MOL0     O 4149   7.828  10.826   7.726 -0.6546  0.1189 -0.4546
  790MOL0     C 4150   7.884  10.929   7.762  0.2094  0.0532  0.5603
  790MOL0     O 4151   7.823  11.026   7.843 -0.0930 -0.3593  0.6543
  790MOL0     C 4152   7.685  11.037   7.859  0.2787 -0.2146 -0.4582
  790MOL0     C 4153   7.600  11.047   7.756  0.3177  0.1306 -0.5644
  790MOL0     C 4154   7.459  11.057   7.778 -0.3069 -0.3830  0.1563
  790MOL0     C 4155   7.405  11.056   7.911 -0.3442 -0.7410 -0.9934
  790MOL0     O 4156   7.269  11.061   7.941  0.5716 -0.1385 -0.0526
  790MOL0     C 4157   7.179  11.082   7.833  0.2659  0.5652  0.3615
  790MOL0     C 4158   7.031  11.091   7.893  0.1578  0.1511 -0.6515
  790MOL0     C 4159   7.004  10.974   7.975 -0.0749  0.5344 -1.5587
  790MOL0     C 4160   6.860  10.973   8.035  0.7229  0.0144 -0.4250
  790MOL0     C 4161   6.824  10.828   8.077  0.0502  0.2445  0.6987
  790MOL0     C 4162   6.677  10.816   8.129  0.6856 -0.0339  0.6229
  790MOL0     C 4163   6.614  10.683   8.130  0.6120 -0.0321  0.0308
  790MOL0     C 4164   6.458  10.698   8.148 -0.3364 -0.4977  0.2191
  790MOL0     N 4165   6.417  10.730   8.289  0.1984 -0.4131 -0.8522
  790MOL0     C 4166   6.341  10.838   8.315 -0.8323 -0.3020 -0.6581
  790MOL0     C 4167   6.341  10.861   8.448 -0.0456  0.4078 -0.6343
  790MOL0     C 4168   6.272  10.981   8.518 -0.0742 -0.9025  0.6517
  790MOL0     C 4169   6.114  10.984   8.513 -0.3692 -0.0417 -0.8855
  790MOL0     C 4170   6.044  10.982   8.657  0.7044 -0.2036 -0.5395
  790MOL0     C 4171   5.898  11.022   8.647 -0.4169  0.7906  0.7841
  790MOL0     O 4172   5.830  10.902   8.605  0.0157  0.4044  0.0407
  790MOL0     C 4173   5.695  10.908   8.603  0.3714  0.1697  0.1795
  790MOL0     C 4174   5.621  11.024   8.575  0.4831  0.5242  0.5111
  790MOL0     C 4175   5.477  11.016   8.564 -0.2266  0.2824 -0.1174
  790MOL0     C 4176   5.412  10.896   8.580  1.1339 -0.3018 -0.8340
  790MOL0     C 4177   5.264  10.897   8.567 -0.5852  0.1416  0.3040
  790MOL0     O 4178   5.207  11.010   8.610  0.0931  0.1610  0.0302
  790MOL0     C 4179   5.064  11.025   8.612 -0.7021  0.3098  0.2619
  790MOL0     C 4180   4.966  10.921   8.614  0.7337  0.3443  0.9264
  790MOL0     C 4181   4.827  10.952   8.623  0.4637 -0.1977 -0.1197
  790MOL0     C 4182   4.784  11.085   8.639  0.2254  0.2020 -0.6951
  790MOL0     O 4183   4.647  11.113   8.644  0.1726  0.8010  0.3302
  790MOL0     C 4184   4.612  11.197   8.537  0.8662 -0.4513 -0.1902
  790MOL0     C 4185   4.481  11.259   8.563  0.4306  0.1838  0.1020
  790MOL0     C 4186   4.369  11.150   8.570 -0.0858  0.3317 -0.4274
  790MOL0     C 4187   4.234  11.210   8.597  0.3312 -0.5404  0.3284
  790MOL0     C 4188   4.126  11.104   8.625  0.1376 -0.7520 -1.3034
  790MOL0     C 4189   4.101  11.007   8.504  0.1374 -0.0033 -0.6783
  790MOL0     C 4190   3.962  10.943   8.515  0.8926  1.6814  0.1361
  790MOL0     C 4191   3.850  11.023   8.448 -0.0900 -0.0952 -0.5851
  790MOL0    Cl 4192   3.676  10.974   8.486 -0.1943 -0.0652  0.4006
  790MOL0     C 4193   4.884  11.184   8.653  0.0972  0.2299 -0.4073
  790MOL0     C 4194   5.017  11.148   8.634  0.2702 -0.6851 -0.6090
  790MOL0     O 4195   5.210  10.809   8.502  0.0300  0.2136  0.6680
  790MOL0     C 4196   5.484  10.779   8.620 -0.2696 -0.4535  0.0794
  790MOL0     C 4197   5.623  10.789   8.630 -0.7933 -0.6468 -0.4081
  790MOL0     N 4198   6.404  10.759   8.505 -0.8402  0.0104 -0.0494
  790MOL0     N 4199   6.451  10.680   8.412  0.4330 -0.3417  0.8668
  790MOL0     C 4200   7.495  11.048   8.018  0.2581  0.1401  0.4520
  790MOL0     C 4201   7.630  11.028   7.996 -0.3552 -0.4347  0.5164
  790MOL0     C 4202   8.033  10.939   7.739  0.3529  0.2377 -1.4214
  790MOL0     C 4203   8.107  10.829   7.691 -0.5007  0.9300 -0.2903
  790MOL0     C 4204   8.253  10.830   7.689  0.6429  0.5954 -0.3049
  790MOL0     C 4205   8.310  10.951   7.721 -0.8961 -0.2707  0.0713
  790MOL0     O 4206   8.444  10.975   7.711 -0.0805 -0.1661 -0.2920
  790MOL0     C 4207   8.521  10.885   7.634  0.2236  0.5435  0.2861
  790MOL0     C 4208   8.670  10.921   7.657  0.1613  0.1749  0.8671
  790MOL0     C 4209   8.709  10.877   7.797  0.0753  0.2233  0.2902
  790MOL0     C 4210   8.844  10.941   7.825  0.0131 -0.6063 -0.3460
  790MOL0     C 4211   8.875  10.918   7.973  0.6772 -0.8220 -0.6445
  790MOL0     C 4212   8.860  10.906   8.090 -0.9015 -0.1280  0.5965
  790MOL0     C 4213   8.235  11.060   7.777  0.8247 -0.2877  0.4932
  790MOL0     C 4214   8.097  11.052   7.789  0.4196  0.0793  0.1230
  790MOL0     H 4215   7.628  11.041   7.652  0.2470 -0.4326 -0.5551
  790MOL0     H 4216   7.395  11.079   7.692 -0.5359  1.3192  0.7332
  790MOL0     H 4217   7.184  11.000   7.760  2.4318  3.1159 -2.6155
  790MOL0     H 4218   7.207  11.169   7.774  3.2251  0.1178  0.9385
  790MOL0     H 4219   6.967  11.083   7.805 -1.6736  1.1012  0.5357
  790MOL0     H 4220   7.012  11.177   7.958 -0.4825  0.5207 -1.3126
  790MOL0     H 4221   7.077  10.968   8.056  0.0637 -1.2671 -1.7644
  790MOL0     H 4222   7.014  10.880   7.920 -2.8536  0.3621 -1.9313
  790MOL0     H 4223   6.857  11.041   8.121  3.0556  0.7068 -0.8302
  790MOL0     H 4224   6.796  11.006   7.953  0.1516 -0.5084 -0.1984
  790MOL0     H 4225   6.887  10.791   8.159  0.5480  1.0902  0.7104
  790MOL0     H 4226   6.834  10.755   7.996 -0.1682  0.1019  0.7971
  790MOL0     H 4227   6.624  10.878   8.056  2.3309  0.7792  0.0721
  790MOL0     H 4228   6.668  10.853   8.231  0.4165 -0.8996  0.9243
  790MOL0     H 4229   6.638  10.630   8.037 -0.0733  2.7759 -1.8661
  790MOL0     H 4230   6.647  10.634   8.222 -0.0352 -1.0236 -0.2458
  790MOL0     H 4231   6.407  10.604   8.122  0.9338 -0.5356 -2.4936
  790MOL0     H 4232   6.423  10.777   8.082  0.3724 -1.2674 -1.1319
  790MOL0     H 4233   6.292  10.909   8.249  1.4485  0.6759 -1.3851
  790MOL0     H 4234   6.306  11.067   8.460  2.5188 -0.9522  1.9546
  790MOL0     H 4235   6.295  10.982   8.625  0.2581 -0.2045  0.5762
  790MOL0     H 4236   6.081  10.900   8.450 -1.8228 -0.7790  0.7682
  790MOL0     H 4237   6.081  11.075   8.464  0.2782 -1.4711 -4.2685
  790MOL0     H 4238   6.056  10.884   8.703  3.9445 -0.5344 -1.7657
  790MOL0     H 4239   6.086  11.055   8.727 -0.5072 -0.7758  0.8237
  790MOL0     H 4240   5.878  11.110   8.584 -1.4293  0.4809  0.6502
  790MOL0     H 4241   5.860  11.044   8.747 -1.2290  0.0388  0.6497
  790MOL0     H 4242   5.675  11.116   8.552  3.6515 -1.0687  1.0221
  790MOL0     H 4243   5.408  11.098   8.545 -0.3803  0.7019  1.9592
  790MOL0     H 4244   4.989  10.815   8.616 -1.9914 -0.3469  0.5431
  790MOL0     H 4245   4.756  10.873   8.646 -2.5280  2.3026 -0.1969
  790MOL0     H 4246   4.605  11.132   8.449  5.1259 -2.6262  0.8135
  790MOL0     H 4247   4.679  11.283   8.526  2.2337 -1.6189 -1.5662
  790MOL0     H 4248   4.456  11.330   8.484 -1.2764  1.9070  2.0750
  790MOL0     H 4249   4.484  11.310   8.660 -0.2279  0.8593 -0.2215
  790MOL0     H 4250   4.391  11.091   8.660 -1.3707  4.4337  2.9022
  790MOL0     H 4251   4.364  11.078   8.488 -2.4257 -0.6532  0.4983
  790MOL0     H 4252   4.232  11.281   8.680  0.0810  0.1299 -0.2483
  790MOL0     H 4253   4.198  11.258   8.506  0.8033 -0.5400  0.1423
  790MOL0     H 4254   4.030  11.153   8.645 -0.9343 -2.6944 -1.4433
  790MOL0     H 4255   4.150  11.053   8.718 -1.1497  1.7936  0.5492
  790MOL0     H 4256   4.174  10.926   8.498 -0.7569 -0.8556 -0.4524
  790MOL0     H 4257   4.110  11.077   8.422 -2.1702  2.6342  1.1279
  790MOL0     H 4258   3.966  10.844   8.468 -1.7287  2.3519 -1.7498
  790MOL0     H 4259   3.951  10.931   8.623  0.6916  0.3862 -0.0047
  790MOL0     H 4260   3.855  11.022   8.339  0.4896  0.0520 -0.5623
  790MOL0     H 4261   3.863  11.128   8.479 -0.3226  0.0413 -0.9459
  790MOL0     H 4262   4.855  11.283   8.686 -0.9153  0.1800 -1.1135
  790MOL0     H 4263   5.090  11.227   8.648  3.9585 -3.4672 -2.4285
  790MOL0     H 4264   5.442  10.680   8.634 -2.9878  0.6161  0.0634
  790MOL0     H 4265   5.684  10.699   8.638 -2.5548 -1.7186  2.3171
  790MOL0     H 4266   7.470  11.056   8.123  3.0089  0.3044  1.1629
  790MOL0     H 4267   7.706  11.028   8.074 -1.0373  0.5565  1.2093
  790MOL0     H 4268   8.051  10.745   7.650  1.2191  1.0273 -3.0939
  790MOL0     H 4269   8.301  10.741   7.652 -0.7541 -0.6568  0.7869
  790MOL0     H 4270   8.494  10.911   7.531  0.3136  0.4503  0.2389
  790MOL0     H 4271   8.498  10.779   7.650  0.5348  0.2894 -0.8641
  790MOL0     H 4272   8.735  10.858   7.594 -1.1837 -0.6743  0.2862
  790MOL0     H 4273   8.697  11.025   7.635 -1.7591  0.3974 -0.7354
  790MOL0     H 4274   8.728  10.769   7.793  1.3006  0.4411 -0.2380
  790MOL0     H 4275   8.634  10.903   7.872 -0.4890 -2.4399  0.7522
  790MOL0     H 4276   8.923  10.901   7.761 -1.5483  0.8590 -3.4079
  790MOL0     H 4277   8.840  11.049   7.806 -0.0224 -0.7898 -1.4574
  790MOL0     H 4278   8.846  10.866   8.188  0.1565 -2.9797 -0.3070
  790MOL0     H 4279   8.295  11.146   7.806  1.1759 -0.3263 -0.1003
  790MOL0     H 4280   8.032  11.127   7.832 -2.7147 -2.9042  1.0096
  791MOL0     O 4281   6.549  10.822   3.270 -0.1452 -0.4798  0.4707
  791MOL0     C 4282   6.572  10.734   3.346  0.5363  0.3122  0.9394
  791MOL0     O 4283   6.480  10.661   3.432 -0.2867 -0.4959 -0.1692
  791MOL0     C 4284   6.347  10.703   3.415  0.3535 -0.7132  0.4909
  791MOL0     C 4285   6.268  10.698   3.297 -0.9045 -0.1272 -0.5755
  791MOL0     C 4286   6.133  10.727   3.299  0.5995 -0.5162 -0.1955
  791MOL0     C 4287   6.077  10.780   3.413 -0.2771 -0.1347  0.0104
  791MOL0     O 4288   5.939  10.801   3.409 -0.2491  0.3854  0.7382
  791MOL0     C 4289   5.870  10.776   3.533  0.4830  0.0681  0.4877
  791MOL0     C 4290   5.724  10.737   3.507 -0.1727 -0.1245  0.6302
  791MOL0     C 4291   5.645  10.852   3.438  0.5838 -0.0302 -0.8837
  791MOL0     C 4292   5.506  10.802   3.399 -0.3285 -0.6553 -0.4094
  791MOL0     C 4293   5.444  10.927   3.325 -0.1037  0.0641  0.2008
  791MOL0     C 4294   5.398  11.036   3.420 -0.2819  0.1676 -0.5534
  791MOL0     C 4295   5.302  11.132   3.347 -1.0023  0.2910 -0.0147
  791MOL0     C 4296   5.286  11.263   3.419 -0.1809 -0.4740 -0.5000
  791MOL0     N 4297   5.154  11.316   3.414  0.5935 -0.3394  0.2550
  791MOL0     C 4298   5.074  11.346   3.303  1.0955 -0.2558 -0.4876
  791MOL0     C 4299   4.965  11.419   3.339  0.4500 -0.8460 -1.3451
  791MOL0     C 4300   4.857  11.478   3.253 -0.9668 -0.7405 -0.0049
  791MOL0     C 4301   4.720  11.448   3.306  0.6299  0.0104  0.2179
  791MOL0     C 4302   4.609  11.514   3.214  0.7576 -0.2366 -0.4780
  791MOL0     C 4303   4.481  11.467   3.273  0.4910 -0.1902 -0.1056
  791MOL0     O 4304   4.377  11.541   3.204  0.5094 -0.4197  0.2382
  791MOL0     C 4305   4.255  11.543   3.260 -0.1761  0.0113 -0.5826
  791MOL0     C 4306   4.203  11.444   3.352 -0.0922 -0.0570  0.1139
  791MOL0     C 4307   4.067  11.459   3.391 -0.5656  0.3229 -0.8905
  791MOL0     C 4308   3.982  11.554   3.338  0.0632  0.3947 -0.8367
  791MOL0     C 4309   3.842  11.583   3.397 -0.9153 -0.2732 -0.3379
  791MOL0     O 4310   3.775  11.695   3.354  0.1038  0.4976  0.0887
  791MOL0     C 4311   3.646  11.727   3.384  0.5185 -1.0274 -0.2632
  791MOL0     C 4312   3.612  11.863   3.400 -0.4575 -0.3983 -0.2251
  791MOL0     C 4313   3.478  11.908   3.409 -0.0686 -0.0955 -0.0969
  791MOL0     C 4314   3.377  11.810   3.401  0.3212 -0.4106 -0.0389
  791MOL0     O 4315   3.250  11.850   3.408 -0.7734  0.4796 -0.8027
  791MOL0     C 4316   3.180  11.870   3.283  0.3461  0.1753 -0.5796
  791MOL0     C 4317   3.145  11.751   3.202  0.5343 -0.5529 -0.2062
  791MOL0     C 4318   3.034  11.666   3.273 -0.1391  0.8896  0.3304
  791MOL0     C 4319   2.937  11.596   3.171 -0.7647 -0.5700  0.1788
  791MOL0     C 4320   2.831  11.511   3.239 -1.5598  0.0014  0.6973
  791MOL0     C 4321   2.879  11.418   3.349 -0.4851 -0.0390  0.6538
  791MOL0     C 4322   2.947  11.296   3.278  0.6941  0.0120 -0.6174
  791MOL0     C 4323   3.035  11.225   3.371  0.6351 -0.6389  0.0213
  791MOL0    Cl 4324   3.171  11.335   3.445  0.1076  0.2559 -0.3258
  791MOL0     C 4325   3.405  11.676   3.392 -0.7478 -0.1734  0.1078
  791MOL0     C 4326   3.538  11.634   3.377 -0.0208  0.2702  0.0433
  791MOL0     O 4327   3.793  11.506   3.476 -0.2749 -0.2340 -0.9140
  791MOL0     C 4328   4.032  11.645   3.246 -0.0554 -0.1740  1.0534
  791MOL0     C 4329   4.166  11.639   3.209 -1.3141  0.2636  0.1702
  791MOL0     N 4330   4.980  11.444   3.477  0.3145  0.4047 -0.5049
  791MOL0     N 4331   5.094  11.379   3.514  0.0161  0.0377  0.0941
  791MOL0     C 4332   6.155  10.784   3.524  0.3343 -0.0638 -0.7755
  791MOL0     C 4333   6.290  10.750   3.527  0.5443 -0.4973 -1.3922
  791MOL0     C 4334   6.708  10.698   3.365  0.3995  0.8441 -0.0952
  791MOL0     C 4335   6.755  10.667   3.494 -0.2706 -0.4832 -0.0812
  791MOL0     C 4336   6.891  10.657   3.525 -0.3746 -0.5614  0.2358
  791MOL0     C 4337   6.985  10.674   3.421 -0.1028  0.0727  0.8611
  791MOL0     O 4338   7.121  10.670   3.428  0.0142 -0.2149 -0.6081
  791MOL0     C 4339   7.184  10.585   3.527 -0.1096  0.4011  0.7525
  791MOL0     C 4340   7.294  10.499   3.455  0.6245  0.5865  0.0723
  791MOL0     C 4341   7.405  10.440   3.546  0.3476 -0.0313 -0.7733
  791MOL0     C 4342   7.501  10.355   3.464 -0.2474  0.1296 -0.5860
  791MOL0     C 4343   7.603  10.294   3.550  0.1080 -0.1924  0.6201
  791MOL0     C 4344   7.684  10.249   3.627  0.3017 -0.5533  0.9534
  791MOL0     C 4345   6.943  10.710   3.295  0.0507  0.3673  0.2096
  791MOL0     C 4346   6.808  10.718   3.269  0.0324 -0.2867  0.0110
  791MOL0     H 4347   6.313  10.658   3.207 -1.3481 -1.9068 -0.0397
  791MOL0     H 4348   6.074  10.714   3.209  2.2902  4.4469 -2.3725
  791MOL0     H 4349   5.877  10.850   3.613 -0.1221 -1.1131  1.6705
  791MOL0     H 4350   5.913  10.684   3.575  0.9955  1.9096  4.5058
  791MOL0     H 4351   5.675  10.712   3.602 -0.3596  0.6643  0.7468
  791MOL0     H 4352   5.717  10.646   3.446  0.5490  1.9171 -2.7449
  791MOL0     H 4353   5.707  10.882   3.353 -2.2479  0.4796 -2.8789
  791MOL0     H 4354   5.635  10.935   3.509 -1.4668 -0.8036 -0.1936
  791MOL0     H 4355   5.504  10.707   3.345 -1.3330 -0.7431 -0.2429
  791MOL0     H 4356   5.444  10.788   3.488 -1.2986 -0.9246 -1.1021
  791MOL0     H 4357   5.353  10.879   3.288 -0.9878  0.2819  2.0092
  791MOL0     H 4358   5.502  10.969   3.242  1.2523 -3.3022 -0.7431
  791MOL0     H 4359   5.483  11.095   3.455 -1.0739 -0.1042  1.9716
  791MOL0     H 4360   5.341  11.003   3.507 -0.4207 -2.1594 -1.4346
  791MOL0     H 4361   5.338  11.150   3.246 -2.0748 -0.8392 -0.6245
  791MOL0     H 4362   5.207  11.081   3.333 -1.1546  0.5692 -0.0014
  791MOL0     H 4363   5.355  11.332   3.369 -0.7767  0.8833  0.4709
  791MOL0     H 4364   5.322  11.258   3.522  0.0938 -0.9218 -0.6121
  791MOL0     H 4365   5.098  11.333   3.198 -0.4109 -1.9778 -0.6651
  791MOL0     H 4366   4.871  11.432   3.155  1.6836 -0.1578  0.0368
  791MOL0     H 4367   4.882  11.583   3.234 -0.3180 -1.0482 -0.8778
  791MOL0     H 4368   4.714  11.485   3.408 -1.5339 -0.2740  0.2400
  791MOL0     H 4369   4.702  11.340   3.308  2.0328 -0.2192  1.8809
  791MOL0     H 4370   4.618  11.622   3.221  1.0725 -0.2571 -0.5817
  791MOL0     H 4371   4.615  11.476   3.111 -1.9427 -0.5028 -0.6225
  791MOL0     H 4372   4.467  11.466   3.381 -0.3465 -3.2602 -0.1461
  791MOL0     H 4373   4.465  11.363   3.243 -1.8096  0.2229 -0.5435
  791MOL0     H 4374   4.264  11.359   3.382  1.3935  0.1414 -2.0790
  791MOL0     H 4375   4.024  11.390   3.462 -1.1818  1.2624 -0.3274
  791MOL0     H 4376   3.697  11.931   3.408 -0.2257 -0.7310  0.1601
  791MOL0     H 4377   3.457  12.014   3.415  1.4161  0.1488  1.7055
  791MOL0     H 4378   3.244  11.932   3.220  2.2271 -2.0887 -1.0324
  791MOL0     H 4379   3.091  11.930   3.305  0.3504  2.0634 -4.8029
  791MOL0     H 4380   3.233  11.689   3.182 -0.0895 -3.1629  3.9782
  791MOL0     H 4381   3.112  11.789   3.104  1.2066 -1.0526 -0.6388
  791MOL0     H 4382   2.978  11.732   3.340 -0.7821 -0.2634  0.9592
  791MOL0     H 4383   3.085  11.593   3.336  0.7304 -0.7169 -2.0674
  791MOL0     H 4384   2.897  11.666   3.096  0.0991 -1.0524 -0.7531
  791MOL0     H 4385   2.996  11.524   3.114 -0.8214  0.4588 -1.2193
  791MOL0     H 4386   2.774  11.462   3.160 -0.3730  2.8459 -2.1124
  791MOL0     H 4387   2.766  11.582   3.292  0.5055  0.7711  2.3269
  791MOL0     H 4388   2.788  11.385   3.402 -1.5227  1.6262 -0.0025
  791MOL0     H 4389   2.947  11.463   3.422 -0.9425  2.9256 -0.6014
  791MOL0     H 4390   2.863  11.228   3.256 -0.4590  0.9257  0.7284
  791MOL0     H 4391   2.994  11.323   3.184 -0.0639 -1.3017 -1.4064
  791MOL0     H 4392   3.077  11.135   3.325  2.6773 -0.6374  1.7385
  791MOL0     H 4393   2.966  11.187   3.447 -0.3160 -0.3086 -0.6562
  791MOL0     H 4394   3.316  11.617   3.371 -2.0302  0.9090  2.1224
  791MOL0     H 4395   3.558  11.528   3.370 -0.0304  0.1630  1.4640
  791MOL0     H 4396   3.969  11.732   3.233 -2.1507 -1.2014  3.5139
  791MOL0     H 4397   4.211  11.713   3.144  0.0710 -0.6146  0.0993
  791MOL0     H 4398   6.119  10.822   3.619  0.9541 -1.2663 -0.0369
  791MOL0     H 4399   6.335  10.748   3.626 -0.2437  0.1947 -1.0098
  791MOL0     H 4400   6.682  10.645   3.571 -2.1713  2.9888 -0.6446
  791MOL0     H 4401   6.920  10.652   3.630 -1.1703  0.0025  0.4935
  791MOL0     H 4402   7.107  10.526   3.577 -0.3939 -0.8855 -1.1138
  791MOL0     H 4403   7.239  10.632   3.609  1.7473 -2.8940  1.5496
  791MOL0     H 4404   7.250  10.415   3.401  1.2738  0.7407 -0.7232
  791MOL0     H 4405   7.329  10.554   3.367  0.5356 -1.6393 -1.4427
  791MOL0     H 4406   7.359  10.377   3.622 -0.8747  2.0088  0.2531
  791MOL0     H 4407   7.458  10.513   3.607 -0.3658 -0.8291  0.8372
  791MOL0     H 4408   7.440  10.276   3.420 -2.0928 -0.2044  2.2865
  791MOL0     H 4409   7.554  10.418   3.391  0.4955  1.2772  0.8756
  791MOL0     H 4410   7.753  10.201   3.694 -0.8015  1.1424  3.4933
  791MOL0     H 4411   7.011  10.725   3.211 -1.2583  0.5555 -0.8495
  791MOL0     H 4412   6.774  10.748   3.171 -2.5184 -0.5671  0.7296
  792MOL0     O 4413   6.513   7.871   2.963  0.2231 -0.8893  0.5248
  792MOL0     C 4414   6.550   7.986   2.951  0.3116  0.4386 -0.5284
  792MOL0     O 4415   6.481   8.093   2.900  0.5249 -0.4002  0.8944
  792MOL0     C 4416   6.343   8.089   2.866 -0.1864  0.0479 -0.5018
  792MOL0     C 4417   6.307   8.171   2.761 -0.1527  0.0580 -0.1733
  792MOL0     C 4418   6.171   8.183   2.728  0.0589 -0.0115 -0.0764
  792MOL0     C 4419   6.071   8.104   2.799 -0.3016 -0.6456  0.3960
  792MOL0     O 4420   5.936   8.128   2.786  0.0978  0.0591  0.0520
  792MOL0     C 4421   5.895   8.221   2.684 -1.0475  0.2416 -0.0827
  792MOL0     C 4422   5.742   8.216   2.658  0.5729 -0.1963  0.5092
  792MOL0     C 4423   5.704   8.065   2.624  0.2638 -0.4960 -0.5859
  792MOL0     C 4424   5.565   8.042   2.571 -0.0463 -0.1562  0.5600
  792MOL0     C 4425   5.531   7.892   2.535 -0.8283  1.1588 -0.2088
  792MOL0     C 4426   5.522   7.797   2.653  0.3823  1.0470  0.1364
  792MOL0     C 4427   5.476   7.656   2.611  0.5986  0.8924  0.1616
  792MOL0     C 4428   5.450   7.564   2.730  0.1034 -0.2467 -0.1305
  792MOL0     N 4429   5.369   7.449   2.700  0.2170 -0.7751  0.5064
  792MOL0     C 4430   5.242   7.451   2.649 -0.4410  0.3611 -0.0855
  792MOL0     C 4431   5.232   7.332   2.581 -0.0255 -0.3146 -0.0343
  792MOL0     C 4432   5.120   7.276   2.495 -0.5480 -1.4884 -0.5327
  792MOL0     C 4433   5.037   7.391   2.439 -0.4349 -0.0378  0.0573
  792MOL0     C 4434   4.926   7.368   2.343 -0.0504 -0.7098 -0.2002
  792MOL0     C 4435   4.934   7.471   2.233 -0.5947  0.2724  0.6605
  792MOL0     O 4436   4.843   7.456   2.125 -0.5534 -0.1231 -0.3504
  792MOL0     C 4437   4.711   7.478   2.144  0.7657 -0.1036 -0.4371
  792MOL0     C 4438   4.622   7.413   2.054  0.0206 -0.6213 -1.1109
  792MOL0     C 4439   4.479   7.441   2.062 -0.2333  0.4718 -0.3689
  792MOL0     C 4440   4.426   7.533   2.160  0.5234  0.0803  0.2898
  792MOL0     C 4441   4.276   7.568   2.172 -0.1981  0.5462 -0.7520
  792MOL0     O 4442   4.185   7.504   2.082 -0.7994  0.6288  0.0484
  792MOL0     C 4443   4.053   7.482   2.107  0.8811  0.8748  0.5592
  792MOL0     C 4444   3.975   7.526   2.219  0.7188  0.1033  1.2215
  792MOL0     C 4445   3.838   7.488   2.236  0.2294 -0.0598  0.0668
  792MOL0     C 4446   3.781   7.398   2.137  0.1150  0.4438 -0.4011
  792MOL0     O 4447   3.645   7.372   2.145 -0.5489 -0.1493  0.2330
  792MOL0     C 4448   3.590   7.258   2.080 -0.0111  0.1827  1.0943
  792MOL0     C 4449   3.434   7.240   2.105  0.1819 -0.5939 -0.3192
  792MOL0     C 4450   3.370   7.372   2.136  0.0629 -0.0738  0.6690
  792MOL0     C 4451   3.219   7.372   2.169 -0.5854 -0.1309 -0.2285
  792MOL0     C 4452   3.162   7.514   2.184 -0.7962 -0.0725 -0.1704
  792MOL0     C 4453   3.010   7.509   2.224  0.1350 -0.0318  1.0735
  792MOL0     C 4454   2.961   7.441   2.349  0.9063  0.5637  0.3182
  792MOL0     C 4455   2.986   7.518   2.474  0.6557  0.7510 -0.1201
  792MOL0    Cl 4456   2.895   7.679   2.477 -0.3729  0.1920  0.1071
  792MOL0     C 4457   3.860   7.343   2.037 -0.5311 -0.1142  0.3875
  792MOL0     C 4458   3.996   7.377   2.021  0.0524  0.1355  0.4002
  792MOL0     O 4459   4.246   7.627   2.278 -0.0876 -0.2395  0.3520
  792MOL0     C 4460   4.517   7.579   2.260 -0.3708 -0.3304  0.3863
  792MOL0     C 4461   4.657   7.559   2.244  0.9445  1.1983  0.2579
  792MOL0     N 4462   5.354   7.262   2.601  0.2546  0.1358 -0.2107
  792MOL0     N 4463   5.431   7.331   2.681 -0.1281  0.4226  0.5482
  792MOL0     C 4464   6.108   8.017   2.892  0.6431  0.3778 -0.0741
  792MOL0     C 4465   6.247   8.012   2.928  0.0871  0.5583  0.4535
  792MOL0     C 4466   6.695   7.990   2.954 -1.3102  0.3618  0.1449
  792MOL0     C 4467   6.782   7.876   2.979  0.3283 -0.8606 -0.1980
  792MOL0     C 4468   6.922   7.885   2.981 -0.6678 -0.1511 -0.1911
  792MOL0     C 4469   6.980   8.012   2.964 -0.6291 -0.3420 -0.0669
  792MOL0     O 4470   7.119   8.028   2.973  0.1413 -0.1993 -0.2083
  792MOL0     C 4471   7.216   7.923   2.972  0.4956 -0.4841  0.7824
  792MOL0     C 4472   7.233   7.859   2.835  0.1057 -0.9467 -0.2574
  792MOL0     C 4473   7.277   7.951   2.716 -0.8533  0.9480  0.6506
  792MOL0     C 4474   7.428   7.981   2.714 -0.7847  0.3924  0.2251
  792MOL0     C 4475   7.513   7.863   2.706 -0.1314 -0.3251  0.1428
  792MOL0     C 4476   7.590   7.765   2.694 -0.0271  1.0675  0.1311
  792MOL0     C 4477   6.898   8.124   2.943  0.1857 -0.1329 -0.2244
  792MOL0     C 4478   6.759   8.111   2.933 -0.8665  0.4312  0.2618
  792MOL0     H 4479   6.380   8.238   2.718 -1.5888  1.2670 -0.8526
  792MOL0     H 4480   6.148   8.262   2.658  0.6050  0.2858  0.0730
  792MOL0     H 4481   5.950   8.208   2.590 -1.2292  4.1060 -0.8965
  792MOL0     H 4482   5.916   8.321   2.723  0.5684 -0.7450  1.7535
  792MOL0     H 4483   5.724   8.286   2.576  2.0981  0.4431  0.6968
  792MOL0     H 4484   5.689   8.239   2.750  0.6154 -2.1640  1.0863
  792MOL0     H 4485   5.723   8.011   2.717 -1.6896 -1.4428 -0.6839
  792MOL0     H 4486   5.771   8.029   2.546  0.7939 -2.8490  0.8297
  792MOL0     H 4487   5.502   8.081   2.652  1.7005  2.3451  0.8326
  792MOL0     H 4488   5.549   8.098   2.478  0.4480 -0.9092  0.0055
  792MOL0     H 4489   5.615   7.854   2.476 -1.4040 -1.7291  0.6638
  792MOL0     H 4490   5.443   7.889   2.470 -1.3459  3.0004  0.3441
  792MOL0     H 4491   5.448   7.836   2.724  0.6101 -0.8419  1.4964
  792MOL0     H 4492   5.619   7.795   2.704  0.9797  0.1222 -0.9824
  792MOL0     H 4493   5.388   7.667   2.546  0.8392  0.7343 -0.1917
  792MOL0     H 4494   5.559   7.616   2.554 -0.5160 -0.3233 -0.6651
  792MOL0     H 4495   5.400   7.625   2.806 -1.9831 -2.1305  0.1077
  792MOL0     H 4496   5.546   7.536   2.775  0.1864 -1.5302 -1.0550
  792MOL0     H 4497   5.159   7.521   2.649 -0.9160 -0.1340  1.7514
  792MOL0     H 4498   5.059   7.214   2.561 -0.7005 -0.1313  0.6495
  792MOL0     H 4499   5.164   7.227   2.408  1.4209  1.1795 -1.1566
  792MOL0     H 4500   5.108   7.468   2.406  2.0412 -2.1875 -0.0438
  792MOL0     H 4501   4.986   7.440   2.522 -2.4267 -2.8824  0.6484
  792MOL0     H 4502   4.935   7.264   2.311  1.0583 -2.1676  4.1017
  792MOL0     H 4503   4.829   7.376   2.393 -0.0158  2.0177 -0.4304
  792MOL0     H 4504   5.038   7.471   2.199 -0.6249 -1.1690  0.4895
  792MOL0     H 4505   4.921   7.570   2.277 -0.0394  0.1771  1.0387
  792MOL0     H 4506   4.671   7.348   1.982 -0.3576 -1.7112 -0.3969
  792MOL0     H 4507   4.412   7.384   1.998  1.0047 -2.0495  0.4154
  792MOL0     H 4508   4.005   7.588   2.303 -3.3616 -0.2452  3.1547
  792MOL0     H 4509   3.799   7.514   2.334 -2.9583 -1.0472 -0.7977
  792MOL0     H 4510   3.649   7.173   2.117  0.1965  0.3686  1.1904
  792MOL0     H 4511   3.594   7.274   1.972 -0.7994 -1.6330  0.7569
  792MOL0     H 4512   3.414   7.164   2.181 -1.7667 -1.5030 -1.6875
  792MOL0     H 4513   3.390   7.207   2.011 -1.2863 -1.0682  0.5140
  792MOL0     H 4514   3.397   7.441   2.055  2.3236 -0.6130  0.9018
  792MOL0     H 4515   3.415   7.415   2.226  2.8975 -1.0705 -0.1776
  792MOL0     H 4516   3.163   7.333   2.084 -1.9470 -0.6275  0.8630
  792MOL0     H 4517   3.205   7.312   2.260  1.0324  1.8602  1.4555
  792MOL0     H 4518   3.174   7.568   2.090  1.2677 -1.5142 -0.8045
  792MOL0     H 4519   3.222   7.565   2.260  0.0719 -1.1043 -0.1253
  792MOL0     H 4520   2.961   7.460   2.139  2.1880  0.6450 -0.5928
  792MOL0     H 4521   2.980   7.614   2.227  0.9152  0.3414 -1.7123
  792MOL0     H 4522   2.851   7.434   2.348  0.9097  0.4051 -1.1387
  792MOL0     H 4523   3.007   7.342   2.355  0.2461 -0.1486 -3.6512
  792MOL0     H 4524   3.093   7.541   2.476  0.7904  0.4034  3.2969
  792MOL0     H 4525   2.960   7.455   2.560  1.9698  0.9242  0.4192
  792MOL0     H 4526   3.810   7.282   1.962  1.7943 -2.4716  0.6168
  792MOL0     H 4527   4.048   7.348   1.930  0.8741  1.7100  0.3239
  792MOL0     H 4528   4.477   7.638   2.342 -0.3262  1.5208 -0.8465
  792MOL0     H 4529   4.730   7.599   2.313  0.8315  1.8412  0.0168
  792MOL0     H 4530   6.043   7.954   2.953  0.6948 -0.8044 -1.2114
  792MOL0     H 4531   6.277   7.949   3.011  0.4996  0.3781  0.1741
  792MOL0     H 4532   6.726   7.791   3.017 -1.8237  0.8816  0.7781
  792MOL0     H 4533   6.974   7.796   3.015 -1.9966 -0.9386 -0.1605
  792MOL0     H 4534   7.178   7.846   3.039 -1.7012  0.2313  0.4521
  792MOL0     H 4535   7.313   7.954   3.011  0.4316  0.5555  0.1672
  792MOL0     H 4536   7.309   7.783   2.856 -0.8042 -1.3544  1.9148
  792MOL0     H 4537   7.140   7.813   2.800 -1.2191  1.6976 -0.4336
  792MOL0     H 4538   7.221   8.044   2.734  0.0749  1.6427  0.0624
  792MOL0     H 4539   7.239   7.905   2.625  0.4120 -0.1134  0.6348
  792MOL0     H 4540   7.446   8.034   2.620 -1.5725  0.9660  0.3849
  792MOL0     H 4541   7.465   8.052   2.788  0.6218  0.2372 -0.2890
  792MOL0     H 4542   7.654   7.681   2.674 -2.1454 -0.1981 -1.8697
  792MOL0     H 4543   6.941   8.223   2.928 -1.3291  0.7798  1.1586
  792MOL0     H 4544   6.700   8.200   2.908 -0.4830 -0.2233 -3.5486
  793MOL0     O 4545   8.293  10.801   7.325 -0.2146  0.0316  0.9672
  793MOL0     C 4546   8.312  10.680   7.330  0.3591 -0.1416 -0.3810
  793MOL0     O 4547   8.433  10.618   7.306  0.1209  0.2728 -0.2158
  793MOL0     C 4548   8.549  10.690   7.333 -0.1747  0.4761 -0.4887
  793MOL0     C 4549   8.651  10.614   7.376 -1.0740 -0.2390 -0.2310
  793MOL0     C 4550   8.782  10.665   7.394  0.3979 -0.0628 -0.3803
  793MOL0     C 4551   8.812  10.800   7.369  0.2478 -0.0651 -0.3746
  793MOL0     O 4552   8.940  10.834   7.394  0.5200 -0.1660 -0.2224
  793MOL0     C 4553   8.968  10.977   7.398  0.4589  0.5037  0.3848
  793MOL0     C 4554   9.116  11.010   7.405  0.5159 -0.2860  0.4751
  793MOL0     C 4555   9.172  10.972   7.547 -0.3713 -0.1569  0.0229
  793MOL0     C 4556   9.316  11.000   7.568 -0.1800  0.5551 -0.2561
  793MOL0     C 4557   9.365  10.994   7.711 -0.4105  1.3519  0.5340
  793MOL0     C 4558   9.305  10.895   7.816 -0.5784  0.5773  0.1412
  793MOL0     C 4559   9.399  10.872   7.939 -0.5761  0.6867 -0.2937
  793MOL0     C 4560   9.415  10.996   8.023  0.6668 -0.3769 -0.2337
  793MOL0     N 4561   9.412  10.975   8.163 -0.3913 -0.4250 -0.2841
  793MOL0     C 4562   9.312  10.922   8.234  0.0745  0.1235 -0.1866
  793MOL0     C 4563   9.341  10.953   8.363  1.1935  0.2645  0.4326
  793MOL0     C 4564   9.255  10.925   8.483 -0.2848 -0.0419 -0.4028
  793MOL0     C 4565   9.108  10.965   8.450  0.4707 -0.3155  0.3671
  793MOL0     C 4566   9.031  10.962   8.584  0.3766  0.2877  0.9197
  793MOL0     C 4567   8.880  10.947   8.589 -0.0756  0.1702  0.0593
  793MOL0     O 4568   8.813  11.058   8.522 -0.1189 -0.0446 -0.1621
  793MOL0     C 4569   8.709  11.105   8.599 -0.4197 -0.9307 -0.0102
  793MOL0     C 4570   8.686  11.244   8.615  0.2757  0.4886  0.0448
  793MOL0     C 4571   8.574  11.291   8.681  0.3058 -0.0385 -0.6256
  793MOL0     C 4572   8.474  11.210   8.739  0.4598  0.2615  0.1054
  793MOL0     C 4573   8.362  11.270   8.823  0.5147 -0.3201 -0.3765
  793MOL0     O 4574   8.249  11.196   8.830 -0.1366 -0.4388  0.9333
  793MOL0     C 4575   8.135  11.258   8.863 -0.0999 -1.1929 -1.0061
  793MOL0     C 4576   8.025  11.238   8.791  0.0950  0.0082  0.1257
  793MOL0     C 4577   7.897  11.290   8.832 -0.6331  0.1930  0.5415
  793MOL0     C 4578   7.885  11.372   8.951 -1.0724  0.1260  0.0864
  793MOL0     O 4579   7.756  11.410   8.971  0.0808 -0.5626 -0.2398
  793MOL0     C 4580   7.715  11.439   9.109  0.4267 -0.2369  0.3101
  793MOL0     C 4581   7.576  11.393   9.132 -0.2295 -0.8387  0.2748
  793MOL0     C 4582   7.559  11.258   9.195  0.0958  0.4942 -0.1084
  793MOL0     C 4583   7.405  11.228   9.214  0.4536 -0.3946  0.0304
  793MOL0     C 4584   7.349  11.136   9.098 -0.1075 -0.4114  0.0889
  793MOL0     C 4585   7.384  11.190   8.957  0.1032  0.0907 -0.6254
  793MOL0     C 4586   7.341  11.096   8.843 -0.1061 -0.0765  0.2737
  793MOL0     C 4587   7.201  11.122   8.781  0.0838  0.4849 -0.7459
  793MOL0    Cl 4588   7.190  11.277   8.694  0.4437 -0.4474 -0.0670
  793MOL0     C 4589   7.997  11.381   9.033  0.2308  0.0715  0.2247
  793MOL0     C 4590   8.124  11.315   8.992  0.2864  0.5481 -0.2845
  793MOL0     O 4591   8.372  11.386   8.871 -0.2614  0.2494  0.1812
  793MOL0     C 4592   8.482  11.073   8.700 -0.4484 -0.9913 -0.6390
  793MOL0     C 4593   8.603  11.021   8.643  0.4476 -0.9335 -1.1801
  793MOL0     N 4594   9.452  11.033   8.365  0.8116  0.1429 -0.3759
  793MOL0     N 4595   9.497  11.038   8.246  1.1555 -0.0443 -0.0343
  793MOL0     C 4596   8.710  10.877   7.307  0.2432 -0.5898  0.0031
  793MOL0     C 4597   8.577  10.819   7.300 -0.2622 -0.4300 -0.3867
  793MOL0     C 4598   8.198  10.587   7.362 -0.3084 -0.1819  0.3219
  793MOL0     C 4599   8.070  10.640   7.392  0.5281 -0.1079 -0.4744
  793MOL0     C 4600   7.958  10.558   7.430 -0.2943 -0.2954  0.2240
  793MOL0     C 4601   7.981  10.419   7.442 -0.1582 -0.5941 -0.0629
  793MOL0     O 4602   7.890  10.339   7.510 -0.0476 -1.0848 -0.5279
  793MOL0     C 4603   7.842  10.398   7.635 -0.4244  0.3920  0.2860
  793MOL0     C 4604   7.705  10.454   7.609  0.5801  0.6721  0.8618
  793MOL0     C 4605   7.618  10.363   7.522 -0.6939  0.1404  0.5160
  793MOL0     C 4606   7.581  10.233   7.593 -0.2123  0.2548 -0.0575
  793MOL0     C 4607   7.521  10.239   7.733 -0.9297  0.2741 -0.4019
  793MOL0     C 4608   7.471  10.230   7.841  0.0880 -0.1724 -0.1475
  793MOL0     C 4609   8.115  10.365   7.429  0.1699 -0.0836  0.6578
  793MOL0     C 4610   8.219  10.449   7.380 -0.0561 -0.3038  0.3816
  793MOL0     H 4611   8.641  10.507   7.392  2.1166 -0.5167  0.5804
  793MOL0     H 4612   8.863  10.601   7.429 -2.6243 -2.7376  2.3543
  793MOL0     H 4613   8.920  11.026   7.484 -0.8511 -2.1315  1.2539
  793MOL0     H 4614   8.933  11.032   7.310  1.0002  2.2249  1.1879
  793MOL0     H 4615   9.118  11.117   7.384 -1.1898 -0.2295  0.4506
  793MOL0     H 4616   9.183  10.958   7.336  1.3633  1.8033 -0.3210
  793MOL0     H 4617   9.157  10.865   7.559  2.3043 -0.4216  1.8552
  793MOL0     H 4618   9.112  11.022   7.624 -2.1024 -0.0747 -1.3239
  793MOL0     H 4619   9.370  10.920   7.518 -1.7509 -1.3443  0.9182
  793MOL0     H 4620   9.340  11.098   7.526 -1.4403  1.3726  0.8369
  793MOL0     H 4621   9.340  11.090   7.757  1.0756  0.8369  2.5212
  793MOL0     H 4622   9.474  10.997   7.713 -0.3543 -0.1696  2.8443
  793MOL0     H 4623   9.282  10.799   7.768 -0.1205  1.1806 -1.3401
  793MOL0     H 4624   9.211  10.933   7.857 -0.5656  0.6937  0.0610
  793MOL0     H 4625   9.355  10.795   8.002 -0.6515  1.2761  0.3923
  793MOL0     H 4626   9.503  10.843   7.920  0.2901  1.7055  2.4393
  793MOL0     H 4627   9.336  11.066   7.996  1.9219  1.2533  0.1595
  793MOL0     H 4628   9.514  11.040   8.010 -0.5353  2.6215  0.0375
  793MOL0     H 4629   9.234  10.863   8.187 -0.4870  2.6460 -2.6640
  793MOL0     H 4630   9.296  10.984   8.565  0.5623  0.4056 -1.1266
  793MOL0     H 4631   9.255  10.818   8.504  4.5779 -0.1519  0.0135
  793MOL0     H 4632   9.058  10.897   8.381 -1.7838  0.4849  1.1044
  793MOL0     H 4633   9.099  11.068   8.414 -1.3142 -0.9655 -1.1905
  793MOL0     H 4634   9.079  10.878   8.635  0.7158 -0.4181 -0.5168
  793MOL0     H 4635   9.050  11.056   8.636 -0.5346  1.2408 -0.4432
  793MOL0     H 4636   8.856  10.950   8.695 -0.4678  0.8437 -0.0451
  793MOL0     H 4637   8.845  10.850   8.551  0.2861 -0.2138  0.6912
  793MOL0     H 4638   8.769  11.299   8.572  0.0844  0.4229 -0.4090
  793MOL0     H 4639   8.557  11.397   8.700  0.4150 -0.2956  1.1495
  793MOL0     H 4640   8.034  11.177   8.701 -3.4351  0.9930 -1.0862
  793MOL0     H 4641   7.806  11.277   8.774 -0.5384 -3.5142  0.9554
  793MOL0     H 4642   7.734  11.546   9.106  1.2880 -0.3924 -0.0869
  793MOL0     H 4643   7.774  11.383   9.183 -0.1707  2.5168  3.0431
  793MOL0     H 4644   7.520  11.403   9.039 -0.6086 -1.1277  0.4692
  793MOL0     H 4645   7.532  11.455   9.210  0.1380 -0.0320 -0.1521
  793MOL0     H 4646   7.617  11.255   9.287  2.5899 -1.5654 -1.6249
  793MOL0     H 4647   7.615  11.185   9.136  0.2441  1.3312 -1.0415
  793MOL0     H 4648   7.381  11.169   9.302  0.8781 -1.4724 -0.5639
  793MOL0     H 4649   7.350  11.323   9.219  3.8775  1.7336  0.9003
  793MOL0     H 4650   7.244  11.106   9.113  0.4449 -1.3816  2.5905
  793MOL0     H 4651   7.409  11.045   9.098  0.9961  0.2414 -2.6447
  793MOL0     H 4652   7.491  11.208   8.944 -0.0123  1.0020 -0.4276
  793MOL0     H 4653   7.340  11.290   8.943 -2.1148 -0.7254  0.0267
  793MOL0     H 4654   7.416  11.122   8.768  1.6691 -0.6867  1.7558
  793MOL0     H 4655   7.341  10.993   8.881  0.0550 -0.2922 -0.3157
  793MOL0     H 4656   7.123  11.120   8.858  2.9165 -0.4630  2.3484
  793MOL0     H 4657   7.189  11.046   8.704 -1.2744 -1.4708  1.2708
  793MOL0     H 4658   7.995  11.437   9.126  1.1915  2.5941 -1.1557
  793MOL0     H 4659   8.206  11.327   9.062 -0.5962 -1.3945  1.1636
  793MOL0     H 4660   8.394  11.017   8.730 -0.1140 -0.1283  2.3604
  793MOL0     H 4661   8.611  10.919   8.608 -0.7839 -0.2059 -3.9359
  793MOL0     H 4662   8.733  10.973   7.262  1.9922  0.4868  2.8981
  793MOL0     H 4663   8.501  10.882   7.256  0.6423  1.2648  0.3897
  793MOL0     H 4664   8.043  10.744   7.376 -1.3742 -0.6270 -0.9607
  793MOL0     H 4665   7.861  10.600   7.454  0.1702  0.3149  1.1049
  793MOL0     H 4666   7.906  10.478   7.673  1.5715 -2.0255  2.4202
  793MOL0     H 4667   7.835  10.324   7.716  0.7171  1.6281  1.5607
  793MOL0     H 4668   7.645  10.470   7.699 -1.1439  0.2803 -0.1744
  793MOL0     H 4669   7.703  10.550   7.558  2.1463  1.4379  2.1557
  793MOL0     H 4670   7.672  10.342   7.430  1.1498 -1.1876  1.8331
  793MOL0     H 4671   7.520  10.407   7.500 -2.0867 -1.1176  3.6185
  793MOL0     H 4672   7.508  10.173   7.537  0.3052 -0.5605  0.1287
  793MOL0     H 4673   7.670  10.169   7.598  1.3906  2.3079 -0.9395
  793MOL0     H 4674   7.414  10.228   7.933 -0.4187  1.4639 -0.4047
  793MOL0     H 4675   8.145  10.264   7.456  2.4310  0.0575 -1.0722
  793MOL0     H 4676   8.321  10.414   7.368  0.3156  0.6184  0.7475
  794MOL0     O 4677   1.130   8.436   3.013  0.2285  0.4439 -0.4068
  794MOL0     C 4678   1.147   8.550   3.050 -0.3346  0.2721  0.2382
  794MOL0     O 4679   1.048   8.645   3.051  0.2418  1.1006  0.4385
  794MOL0     C 4680   0.929   8.603   2.989  0.8732  0.1015 -0.6796
  794MOL0     C 4681   0.810   8.611   3.062  0.0103 -0.4592 -0.1311
  794MOL0     C 4682   0.676   8.581   3.006  0.0095 -0.3901 -0.4595
  794MOL0     C 4683   0.660   8.538   2.875  0.4540 -0.6849 -0.2808
  794MOL0     O 4684   0.542   8.507   2.810  0.4183  0.4849  0.4688
  794MOL0     C 4685   0.425   8.501   2.892  0.5304 -0.0770  0.0488
  794MOL0     C 4686   0.317   8.449   2.796  0.6983  0.4365 -0.4984
  794MOL0     C 4687   0.183   8.410   2.880 -0.1472 -0.2171 -0.5713
  794MOL0     C 4688   0.069   8.345   2.791  0.8481  0.8746 -0.5326
  794MOL0     C 4689  -0.063   8.311   2.869  0.1384 -0.7420  0.2889
  794MOL0     C 4690  -0.138   8.445   2.906  0.0548  0.4002  1.1879
  794MOL0     C 4691  -0.254   8.408   3.002 -0.4426  0.9316  0.6967
  794MOL0     C 4692  -0.311   8.535   3.057  0.1971 -0.1750  0.4969
  794MOL0     N 4693  -0.422   8.504   3.137  0.4589  0.0792 -0.2969
  794MOL0     C 4694  -0.424   8.448   3.265 -0.1630 -0.3631  0.8259
  794MOL0     C 4695  -0.556   8.416   3.280  0.2992 -0.0927 -0.4785
  794MOL0     C 4696  -0.599   8.333   3.397  0.1492  0.5834  0.1858
  794MOL0     C 4697  -0.733   8.253   3.380 -0.1641  0.0696  0.3259
  794MOL0     C 4698  -0.767   8.167   3.500  0.0972  0.3652 -0.3646
  794MOL0     C 4699  -0.910   8.115   3.495  0.5410 -0.5058  0.2764
  794MOL0     O 4700  -0.936   8.048   3.378 -0.1151  0.4616  1.1138
  794MOL0     C 4701  -1.064   8.009   3.345  0.3219 -0.3320  0.9929
  794MOL0     C 4702  -1.073   7.937   3.230  0.0991 -0.2217  0.6706
  794MOL0     C 4703  -1.193   7.886   3.193 -0.4719 -0.7907 -0.5333
  794MOL0     C 4704  -1.312   7.921   3.258  0.3317  0.1219  0.7987
  794MOL0     C 4705  -1.444   7.865   3.213 -0.1032 -0.4405 -0.0012
  794MOL0     O 4706  -1.453   7.790   3.099 -0.7008  0.0023 -0.4832
  794MOL0     C 4707  -1.583   7.781   3.048  0.2460  0.4122 -0.8056
  794MOL0     C 4708  -1.623   7.891   2.963 -0.1152  0.3244 -0.9067
  794MOL0     C 4709  -1.753   7.893   2.907 -0.8470 -0.2829  0.0544
  794MOL0     C 4710  -1.841   7.783   2.926  0.6574  0.1731  0.1613
  794MOL0     O 4711  -1.971   7.802   2.894  0.2767 -0.1462 -0.6678
  794MOL0     C 4712  -2.076   7.762   2.980  0.4730 -0.5735 -0.2192
  794MOL0     C 4713  -2.185   7.866   2.992  0.7401 -0.2595 -0.2875
  794MOL0     C 4714  -2.292   7.813   3.096  0.2976 -0.3925  0.3253
  794MOL0     C 4715  -2.404   7.723   3.046  0.3766 -0.0768  0.3215
  794MOL0     C 4716  -2.525   7.703   3.141  0.8015  0.3721  0.0921
  794MOL0     C 4717  -2.575   7.827   3.216  0.0241 -0.4753  0.7219
  794MOL0     C 4718  -2.705   7.809   3.307 -0.4264 -0.7657  0.1481
  794MOL0     C 4719  -2.814   7.766   3.216  0.4180  0.6011 -0.0714
  794MOL0    Cl 4720  -2.972   7.782   3.279  0.2643 -0.5154  0.6607
  794MOL0     C 4721  -1.803   7.684   3.008 -0.3020 -0.3823  0.1366
  794MOL0     C 4722  -1.677   7.680   3.069 -1.2171 -0.0498  0.0672
  794MOL0     O 4723  -1.542   7.897   3.288  0.3894  0.1441  1.2611
  794MOL0     C 4724  -1.305   8.010   3.372 -0.0853  0.1912  0.8379
  794MOL0     C 4725  -1.175   8.046   3.413 -0.0282 -0.7245  0.5154
  794MOL0     N 4726  -0.626   8.450   3.173 -0.5341  0.1512  0.3967
  794MOL0     N 4727  -0.546   8.490   3.086 -0.1582 -0.5010  0.4098
  794MOL0     C 4728   0.781   8.536   2.805 -0.2333  0.8344  0.2812
  794MOL0     C 4729   0.904   8.566   2.858  0.1412 -0.2726  1.3745
  794MOL0     C 4730   1.278   8.582   3.122  0.7777 -0.1421 -0.0898
  794MOL0     C 4731   1.286   8.683   3.221 -0.2958 -0.4944  0.5380
  794MOL0     C 4732   1.408   8.716   3.284 -0.1577 -0.5139 -0.0271
  794MOL0     C 4733   1.530   8.643   3.266  0.2608  0.5807  0.0662
  794MOL0     O 4734   1.647   8.657   3.332 -0.9815  0.3332 -0.1083
  794MOL0     C 4735   1.651   8.752   3.435 -0.7448 -0.4180  0.2829
  794MOL0     C 4736   1.782   8.741   3.496  0.0384  0.5176 -1.0333
  794MOL0     C 4737   1.886   8.822   3.423 -0.9684  1.0137  0.2923
  794MOL0     C 4738   2.024   8.794   3.472 -0.6609  0.0128 -0.8713
  794MOL0     C 4739   2.129   8.884   3.419  0.2890  0.7535  0.3305
  794MOL0     C 4740   2.211   8.955   3.369 -0.0915 -0.0251 -0.7640
  794MOL0     C 4741   1.518   8.530   3.183 -0.3319  0.0541  0.0678
  794MOL0     C 4742   1.397   8.511   3.114 -0.4206  0.6926 -0.0692
  794MOL0     H 4743   0.800   8.661   3.158 -5.2642  1.1634 -1.1684
  794MOL0     H 4744   0.587   8.610   3.060 -1.4751 -1.2952 -2.2916
  794MOL0     H 4745   0.400   8.607   2.907  3.8296  0.9521 -0.9860
  794MOL0     H 4746   0.431   8.431   2.976 -2.1998 -1.7239 -1.0202
  794MOL0     H 4747   0.354   8.358   2.748 -1.3451  0.0972 -1.5506
  794MOL0     H 4748   0.277   8.515   2.719 -1.9386 -2.2943 -1.6872
  794MOL0     H 4749   0.159   8.503   2.933  2.1923 -0.1679  0.5430
  794MOL0     H 4750   0.205   8.333   2.955 -2.5170  0.4347  0.9019
  794MOL0     H 4751   0.048   8.418   2.712 -2.7907  1.7663  1.0542
  794MOL0     H 4752   0.108   8.248   2.760  1.5253  0.6106  1.0305
  794MOL0     H 4753  -0.053   8.265   2.968 -0.8519 -3.2977 -0.7348
  794MOL0     H 4754  -0.129   8.256   2.802 -2.6910  0.8239  1.5399
  794MOL0     H 4755  -0.180   8.500   2.821 -0.5187  1.3105  2.0449
  794MOL0     H 4756  -0.074   8.521   2.951 -0.5972  1.3410  0.5556
  794MOL0     H 4757  -0.321   8.333   2.959  2.1088 -2.8147  2.6247
  794MOL0     H 4758  -0.216   8.355   3.090  0.8157  1.1566  0.2955
  794MOL0     H 4759  -0.348   8.592   2.971 -1.5412  0.2782  1.4892
  794MOL0     H 4760  -0.245   8.599   3.115  1.0030  0.7815 -1.3991
  794MOL0     H 4761  -0.342   8.442   3.336 -1.6574  0.1996  2.6988
  794MOL0     H 4762  -0.604   8.388   3.491  0.3560 -1.0111  1.1781
  794MOL0     H 4763  -0.512   8.269   3.417 -0.1334  0.0127 -0.3691
  794MOL0     H 4764  -0.727   8.180   3.298  0.4722  3.4022 -2.8606
  794MOL0     H 4765  -0.819   8.316   3.354 -1.5263 -2.3062 -1.5004
  794MOL0     H 4766  -0.706   8.076   3.497  1.8178  1.3642  1.7192
  794MOL0     H 4767  -0.744   8.216   3.595  3.0374  0.3842 -0.9904
  794MOL0     H 4768  -0.973   8.201   3.518 -0.3443 -0.9400 -0.5023
  794MOL0     H 4769  -0.926   8.048   3.580  0.2106  0.6724  1.1630
  794MOL0     H 4770  -0.984   7.918   3.170 -0.8043 -1.1060 -0.4388
  794MOL0     H 4771  -1.202   7.821   3.107  0.5069 -0.5393 -0.8416
  794MOL0     H 4772  -1.559   7.979   2.966 -1.5865  1.4190  0.8399
  794MOL0     H 4773  -1.784   7.977   2.845  0.1720  1.0372  1.2698
  794MOL0     H 4774  -2.039   7.753   3.083 -0.8322 -2.2573  0.1551
  794MOL0     H 4775  -2.119   7.669   2.943  0.5036 -0.9630  0.7070
  794MOL0     H 4776  -2.225   7.880   2.892 -3.1281  2.6132  1.3943
  794MOL0     H 4777  -2.142   7.961   3.027  0.1549 -0.7846  2.0088
  794MOL0     H 4778  -2.341   7.907   3.125  0.6097  0.5209 -1.9417
  794MOL0     H 4779  -2.247   7.759   3.180  0.5494  1.6337  1.5660
  794MOL0     H 4780  -2.449   7.786   2.969 -0.4302 -0.0191  0.8281
  794MOL0     H 4781  -2.367   7.629   3.004  1.6551  1.4576 -2.1901
  794MOL0     H 4782  -2.509   7.619   3.209 -1.5169 -0.1364  0.0993
  794MOL0     H 4783  -2.602   7.662   3.076  2.6088 -2.7813 -0.2500
  794MOL0     H 4784  -2.600   7.898   3.137 -1.7358 -2.1579 -0.3433
  794MOL0     H 4785  -2.490   7.866   3.271  1.7988 -1.3543 -1.2533
  794MOL0     H 4786  -2.690   7.737   3.387 -0.8286 -1.6132 -0.5258
  794MOL0     H 4787  -2.725   7.902   3.362  2.5337  1.0000 -1.4693
  794MOL0     H 4788  -2.801   7.659   3.197  1.3406  0.5791  0.5716
  794MOL0     H 4789  -2.809   7.811   3.116  0.1060 -0.2672 -0.4926
  794MOL0     H 4790  -1.871   7.610   3.047 -1.5771  1.1925  1.0210
  794MOL0     H 4791  -1.666   7.600   3.142  2.1930 -2.1408 -2.4310
  794MOL0     H 4792  -1.397   8.055   3.406 -1.2491  1.3035 -3.1708
  794MOL0     H 4793  -1.170   8.101   3.506 -0.5936 -1.2617  0.8689
  794MOL0     H 4794   0.764   8.506   2.702 -1.3604  0.2753  0.6186
  794MOL0     H 4795   0.985   8.574   2.786 -0.3508  1.0765  0.9272
  794MOL0     H 4796   1.211   8.761   3.236 -1.1447 -0.9817 -0.9918
  794MOL0     H 4797   1.405   8.813   3.332 -0.2228  0.3651 -1.7214
  794MOL0     H 4798   1.577   8.730   3.512 -1.1411  1.4043  0.4690
  794MOL0     H 4799   1.642   8.857   3.407  1.1231 -0.3026  0.0243
  794MOL0     H 4800   1.784   8.778   3.599  2.3574  0.8349 -1.1305
  794MOL0     H 4801   1.810   8.636   3.509 -0.5719  0.5075  0.4303
  794MOL0     H 4802   1.864   8.929   3.416  2.2931  1.7112 -5.2272
  794MOL0     H 4803   1.892   8.800   3.316 -3.8422  1.5552 -0.0574
  794MOL0     H 4804   2.033   8.800   3.581  0.1216  0.7929 -0.9678
  794MOL0     H 4805   2.049   8.692   3.444  0.4145  0.1084 -0.3147
  794MOL0     H 4806   2.282   9.011   3.311  2.2248 -1.8611  0.0901
  794MOL0     H 4807   1.603   8.470   3.152  0.1545  2.2118 -3.4205
  794MOL0     H 4808   1.386   8.425   3.048 -1.2163  1.6521 -1.2468
  795MOL0     O 4809   2.964   8.173   7.283 -0.1176  0.4261  0.3594
  795MOL0     C 4810   2.912   8.160   7.175 -0.0059 -0.7133 -0.0524
  795MOL0     O 4811   2.980   8.149   7.058  0.2297  0.7201  0.6116
  795MOL0     C 4812   3.119   8.127   7.029  0.5213  0.4170  1.2945
  795MOL0     C 4813   3.158   8.078   6.895  0.1016 -0.0649  0.7479
  795MOL0     C 4814   3.298   8.063   6.869 -1.3020 -0.9663  0.3028
  795MOL0     C 4815   3.394   8.079   6.969  0.1594 -0.7739  1.0821
  795MOL0     O 4816   3.524   8.055   6.937  0.0705 -0.0984  0.4727
  795MOL0     C 4817   3.622   8.026   7.043  0.3365 -0.5992  1.3106
  795MOL0     C 4818   3.722   7.942   6.975  0.4144 -0.8828 -0.5878
  795MOL0     C 4819   3.680   7.809   6.912  0.6165  0.0629  0.1695
  795MOL0     C 4820   3.811   7.729   6.894  0.2247 -0.0334  0.1015
  795MOL0     C 4821   3.781   7.592   6.838 -1.0041  0.1996  0.8664
  795MOL0     C 4822   3.714   7.502   6.936  1.0397  0.1070 -0.4291
  795MOL0     C 4823   3.699   7.372   6.865  0.7317  0.0116 -0.1573
  795MOL0     C 4824   3.629   7.277   6.960  0.1829 -0.5990  0.0501
  795MOL0     N 4825   3.487   7.284   6.941 -0.0897 -0.2321  0.9630
  795MOL0     C 4826   3.410   7.371   7.013 -0.2315  0.1647  0.0232
  795MOL0     C 4827   3.295   7.377   6.951 -0.2174  0.3187 -0.1632
  795MOL0     C 4828   3.191   7.488   6.966  0.3790 -0.0199  0.0980
  795MOL0     C 4829   3.248   7.629   6.945  0.2100 -0.3396 -0.4597
  795MOL0     C 4830   3.181   7.732   7.042 -0.0734 -1.1688  0.2666
  795MOL0     C 4831   3.025   7.747   7.015  0.1033  0.3228  0.5627
  795MOL0     O 4832   2.993   7.809   6.888 -1.3913  0.0133 -0.7863
  795MOL0     C 4833   2.860   7.839   6.857 -0.0754  0.1828  0.2793
  795MOL0     C 4834   2.753   7.806   6.938 -0.5733  0.2963 -0.7475
  795MOL0     C 4835   2.629   7.846   6.909  0.7992 -1.0732  0.1374
  795MOL0     C 4836   2.596   7.915   6.792 -0.6396  0.1546 -0.3836
  795MOL0     C 4837   2.453   7.959   6.767  0.4141  0.2657  0.3243
  795MOL0     O 4838   2.372   7.938   6.864  0.8717  0.6034 -0.3126
  795MOL0     C 4839   2.236   7.951   6.857 -0.1021 -0.3447 -0.0119
  795MOL0     C 4840   2.169   8.000   6.975  1.5289 -0.2923 -0.1663
  795MOL0     C 4841   2.028   8.000   6.967  0.2811  0.1138  0.1510
  795MOL0     C 4842   1.950   7.991   6.848  0.0489  0.0249 -0.7230
  795MOL0     O 4843   1.815   7.996   6.852 -0.3875 -0.0417  0.5777
  795MOL0     C 4844   1.728   7.991   6.736  0.0686 -0.2865  0.0087
  795MOL0     C 4845   1.586   8.021   6.774  0.2132  0.4250  0.7365
  795MOL0     C 4846   1.566   8.155   6.852  0.3497  0.0396  0.9687
  795MOL0     C 4847   1.427   8.197   6.836  0.1995 -0.1661  0.3019
  795MOL0     C 4848   1.387   8.296   6.951  0.7200  0.1339 -0.0722
  795MOL0     C 4849   1.484   8.411   6.951 -0.6230  0.4181 -1.0857
  795MOL0     C 4850   1.458   8.516   7.059  0.5108 -0.1674 -0.2447
  795MOL0     C 4851   1.338   8.602   7.058 -0.2438 -0.1485  0.3828
  795MOL0    Cl 4852   1.189   8.524   7.104  0.6469 -0.0532 -0.6067
  795MOL0     C 4853   2.028   7.967   6.734  0.1465  0.3701  0.7189
  795MOL0     C 4854   2.166   7.941   6.738 -0.7880 -0.2445 -0.5128
  795MOL0     O 4855   2.427   8.024   6.667 -0.1944  0.3543  0.2278
  795MOL0     C 4856   2.699   7.954   6.712 -0.0320  0.0912 -0.1419
  795MOL0     C 4857   2.832   7.906   6.738  0.1898  0.3932 -0.5296
  795MOL0     N 4858   3.296   7.282   6.848  0.4006  0.1847  0.6408
  795MOL0     N 4859   3.409   7.223   6.845 -0.0180  0.3697 -0.2522
  795MOL0     C 4860   3.354   8.131   7.090  0.3223  0.9537 -1.3116
  795MOL0     C 4861   3.220   8.146   7.123  0.0838 -0.1227 -0.0546
  795MOL0     C 4862   2.772   8.202   7.162  0.1947  0.3637 -0.4765
  795MOL0     C 4863   2.705   8.184   7.038 -0.5385  0.0056  0.8857
  795MOL0     C 4864   2.566   8.196   7.030  0.3923 -0.1268 -0.5137
  795MOL0     C 4865   2.493   8.229   7.141 -0.8195  0.3650 -0.5486
  795MOL0     O 4866   2.359   8.248   7.134  0.5323 -0.5755  0.2454
  795MOL0     C 4867   2.290   8.328   7.229  0.0637 -0.1034 -0.2881
  795MOL0     C 4868   2.139   8.333   7.201  0.2942  0.0276  0.4072
  795MOL0     C 4869   2.100   8.348   7.053 -0.1529 -0.6739  0.3004
  795MOL0     C 4870   1.942   8.353   7.042  0.2978  0.0538 -0.4506
  795MOL0     C 4871   1.871   8.466   7.107  0.1372  0.0681 -0.6102
  795MOL0     C 4872   1.816   8.564   7.144 -0.7682 -0.4630 -0.1198
  795MOL0     C 4873   2.565   8.249   7.267  0.9136 -0.7632  0.7678
  795MOL0     C 4874   2.698   8.237   7.272 -0.3902 -0.5481  0.6253
  795MOL0     H 4875   3.079   8.052   6.825 -1.3498  1.3352  1.7907
  795MOL0     H 4876   3.321   8.025   6.769  0.8595 -0.0813  0.3889
  795MOL0     H 4877   3.576   7.964   7.121 -1.1298 -0.7746  0.3575
  795MOL0     H 4878   3.657   8.118   7.090 -2.3946  0.2917  1.8045
  795MOL0     H 4879   3.804   7.921   7.045  0.7690  1.4953 -0.2067
  795MOL0     H 4880   3.779   8.006   6.907 -1.3215  1.9335  0.4728
  795MOL0     H 4881   3.627   7.824   6.817  2.0357  1.4579 -0.4345
  795MOL0     H 4882   3.612   7.752   6.977 -0.2193 -0.5138 -1.1731
  795MOL0     H 4883   3.875   7.787   6.827  1.2896  1.3805  2.1991
  795MOL0     H 4884   3.868   7.723   6.988 -0.4453  3.1079  0.7927
  795MOL0     H 4885   3.871   7.547   6.796 -0.4610 -0.3220  2.4841
  795MOL0     H 4886   3.724   7.605   6.746  0.6518 -0.5585 -0.3012
  795MOL0     H 4887   3.621   7.545   6.974  0.9684 -0.7716  0.4202
  795MOL0     H 4888   3.784   7.489   7.019  0.2740  1.2647  0.4366
  795MOL0     H 4889   3.648   7.390   6.770 -0.6003  0.7240  0.6753
  795MOL0     H 4890   3.801   7.341   6.838  0.8920  1.3391 -1.1560
  795MOL0     H 4891   3.651   7.300   7.065 -0.6429  1.6800 -0.2202
  795MOL0     H 4892   3.669   7.177   6.940  1.1707  0.1841 -2.2112
  795MOL0     H 4893   3.434   7.442   7.092 -0.3098 -0.9344  1.0608
  795MOL0     H 4894   3.147   7.483   7.066  1.4381 -1.9460  0.5233
  795MOL0     H 4895   3.107   7.474   6.898 -1.7687  2.9488  1.9207
  795MOL0     H 4896   3.249   7.647   6.838  2.1426 -1.3942 -0.6603
  795MOL0     H 4897   3.356   7.629   6.959  0.6327  0.3723 -3.2297
  795MOL0     H 4898   3.203   7.694   7.142  2.8900 -0.1898  0.0880
  795MOL0     H 4899   3.219   7.835   7.041 -0.9487 -0.8325  1.2116
  795MOL0     H 4900   2.983   7.818   7.086  1.1742  0.5767  0.9641
  795MOL0     H 4901   2.970   7.652   7.021  0.1575  0.3346  1.3044
  795MOL0     H 4902   2.758   7.756   7.035 -1.3387  2.6676  0.5943
  795MOL0     H 4903   2.553   7.814   6.978 -0.1817 -1.4497 -1.0800
  795MOL0     H 4904   2.221   8.015   7.069  2.3339  3.3002 -1.0664
  795MOL0     H 4905   1.980   8.010   7.063 -0.8794  0.3582 -0.4464
  795MOL0     H 4906   1.738   7.900   6.678  1.0030 -0.0585 -0.2162
  795MOL0     H 4907   1.752   8.076   6.671 -0.4923 -0.7233 -0.7715
  795MOL0     H 4908   1.555   7.941   6.842 -1.6860  0.6538  0.1986
  795MOL0     H 4909   1.519   8.026   6.688  2.8406  2.1887 -1.3564
  795MOL0     H 4910   1.641   8.228   6.820  1.8633  0.0995  4.2046
  795MOL0     H 4911   1.595   8.140   6.957  2.5950  0.6049  0.4779
  795MOL0     H 4912   1.405   8.238   6.737  0.2086  0.2417  0.4676
  795MOL0     H 4913   1.358   8.112   6.840 -0.0484  0.0427  0.6127
  795MOL0     H 4914   1.389   8.259   7.054  2.3301  3.0339  1.0695
  795MOL0     H 4915   1.287   8.333   6.927 -0.7241 -2.2938  1.7153
  795MOL0     H 4916   1.487   8.456   6.851  2.1919  3.7887  0.3153
  795MOL0     H 4917   1.589   8.390   6.970 -1.1644 -0.6589  0.9714
  795MOL0     H 4918   1.478   8.471   7.157 -4.1445  0.3776  1.2023
  795MOL0     H 4919   1.543   8.584   7.058  1.5501 -1.2937  2.2572
  795MOL0     H 4920   1.324   8.649   6.961 -0.4206  0.9966  0.9381
  795MOL0     H 4921   1.348   8.688   7.126 -0.2150  0.0573  0.1186
  795MOL0     H 4922   1.978   7.961   6.638  0.1358  1.5420  0.6299
  795MOL0     H 4923   2.223   7.908   6.652 -2.8225  4.1236 -3.9572
  795MOL0     H 4924   2.670   8.021   6.631  2.6003  0.7764 -0.6250
  795MOL0     H 4925   2.918   7.930   6.676  0.3245  1.2712 -0.0147
  795MOL0     H 4926   3.430   8.148   7.166  0.1211 -1.2725 -0.5616
  795MOL0     H 4927   3.199   8.184   7.223 -0.2411 -0.0359 -0.1532
  795MOL0     H 4928   2.746   8.140   6.948 -1.3419 -0.5554  0.7813
  795MOL0     H 4929   2.515   8.164   6.940 -0.3207 -2.5661  0.6665
  795MOL0     H 4930   2.329   8.431   7.232  0.6201 -0.3004 -0.6663
  795MOL0     H 4931   2.303   8.283   7.328 -2.0514  0.0676  0.1151
  795MOL0     H 4932   2.088   8.239   7.225  1.7862 -0.5642  1.3642
  795MOL0     H 4933   2.099   8.409   7.269  1.8702 -0.0855  1.5133
  795MOL0     H 4934   2.134   8.260   6.998 -3.4143 -1.6974 -0.3124
  795MOL0     H 4935   2.144   8.441   7.017 -4.4843  1.8038  0.7152
  795MOL0     H 4936   1.920   8.366   6.935  1.2075 -0.4823 -0.7147
  795MOL0     H 4937   1.902   8.254   7.069  0.0212  0.5453  1.0050
  795MOL0     H 4938   1.755   8.650   7.165 -2.0603 -0.3444 -3.6647
  795MOL0     H 4939   2.514   8.272   7.360  1.2855 -1.3750  1.1234
  795MOL0     H 4940   2.756   8.251   7.363  0.5423 -0.9929  0.1120
  796MOL0     O 4941   3.209   4.641   0.206  0.6456 -0.2180 -0.4505
  796MOL0     C 4942   3.128   4.604   0.123 -0.1811  0.1334 -0.4525
  796MOL0     O 4943   3.000   4.569   0.149 -1.0774 -0.7868 -0.0177
  796MOL0     C 4944   2.934   4.571   0.266 -0.2931 -1.1212  0.8381
  796MOL0     C 4945   2.992   4.584   0.393  0.4098  0.0715  0.9220
  796MOL0     C 4946   2.907   4.581   0.504 -0.5114  0.3891 -0.1792
  796MOL0     C 4947   2.766   4.581   0.488 -0.1468  0.4760  0.0667
  796MOL0     O 4948   2.678   4.595   0.591 -0.3878 -0.6369 -0.4015
  796MOL0     C 4949   2.717   4.705   0.677  0.4631  0.2177 -1.5812
  796MOL0     C 4950   2.591   4.756   0.742  0.6523  0.6582  0.2085
  796MOL0     C 4951   2.620   4.859   0.852 -0.1334  0.4820  0.4913
  796MOL0     C 4952   2.692   4.989   0.802  0.1132 -0.3314  0.2028
  796MOL0     C 4953   2.731   5.079   0.918 -0.1146 -0.0394  0.3994
  796MOL0     C 4954   2.808   5.201   0.873 -0.5819  0.3873  0.1698
  796MOL0     C 4955   2.817   5.316   0.970 -0.4774 -0.3534  0.2899
  796MOL0     C 4956   2.696   5.348   1.061 -0.1962 -0.0320  0.5928
  796MOL0     N 4957   2.590   5.405   0.970 -0.6898 -0.2421  0.1469
  796MOL0     C 4958   2.581   5.538   0.933  0.4389  0.0264 -1.0852
  796MOL0     C 4959   2.479   5.550   0.843  0.0555 -0.4938  0.0432
  796MOL0     C 4960   2.450   5.674   0.763 -0.2047 -0.1443 -0.2740
  796MOL0     C 4961   2.524   5.685   0.629 -0.2930 -0.6841  0.5256
  796MOL0     C 4962   2.677   5.677   0.643 -0.2209  0.2797  0.2298
  796MOL0     C 4963   2.748   5.692   0.504 -0.9927  0.2742  0.0008
  796MOL0     O 4964   2.690   5.584   0.429  0.3871  0.2878  0.2778
  796MOL0     C 4965   2.747   5.552   0.309 -0.7439 -0.4905 -1.3412
  796MOL0     C 4966   2.705   5.448   0.239 -0.1680 -0.3646  0.4152
  796MOL0     C 4967   2.766   5.413   0.112 -0.1746  0.0778 -0.4452
  796MOL0     C 4968   2.859   5.492   0.054 -0.3715  0.1605  0.1845
  796MOL0     C 4969   2.925   5.449  -0.073  0.4861 -0.5907  0.1679
  796MOL0     O 4970   2.980   5.550  -0.144 -0.1712 -0.3920  0.0374
  796MOL0     C 4971   3.054   5.530  -0.257  0.0588  0.4835  0.7305
  796MOL0     C 4972   3.116   5.407  -0.280  0.0982  0.1991  0.2258
  796MOL0     C 4973   3.191   5.379  -0.386 -0.2861 -0.3736  0.1012
  796MOL0     C 4974   3.212   5.481  -0.480  1.1081  0.7896  0.7702
  796MOL0     O 4975   3.294   5.467  -0.590 -0.3158 -0.4531  0.3921
  796MOL0     C 4976   3.432   5.481  -0.566 -0.0183 -0.2781 -0.2542
  796MOL0     C 4977   3.505   5.361  -0.499  0.5394 -0.2491  0.1133
  796MOL0     C 4978   3.658   5.353  -0.516 -0.2522 -0.3309  0.5112
  796MOL0     C 4979   3.714   5.419  -0.644 -0.5321  0.4580  0.2210
  796MOL0     C 4980   3.861   5.379  -0.669  0.3192  0.0318 -0.9643
  796MOL0     C 4981   3.919   5.451  -0.794 -0.1901 -0.3693 -0.1124
  796MOL0     C 4982   4.056   5.397  -0.812  0.6651 -1.3104 -0.4576
  796MOL0     C 4983   4.121   5.446  -0.948 -1.6724 -0.2275  0.6561
  796MOL0    Cl 4984   4.304   5.445  -0.919 -0.4103  0.1296 -0.0378
  796MOL0     C 4985   3.140   5.607  -0.463 -0.4931  1.7465  0.7465
  796MOL0     C 4986   3.074   5.633  -0.348  0.0993 -0.2088  0.5988
  796MOL0     O 4987   2.891   5.342  -0.116 -0.7015  0.0831 -0.3230
  796MOL0     C 4988   2.897   5.608   0.126  0.2312  0.6051 -0.5155
  796MOL0     C 4989   2.839   5.636   0.255  0.6120  0.5288  0.6269
  796MOL0     N 4990   2.419   5.428   0.829  0.0679 -0.4132 -0.5927
  796MOL0     N 4991   2.500   5.334   0.899  1.2248 -0.7653 -0.2254
  796MOL0     C 4992   2.712   4.550   0.365 -0.6743  0.4032 -0.1433
  796MOL0     C 4993   2.797   4.558   0.247  1.1342  0.5368 -0.4649
  796MOL0     C 4994   3.167   4.608  -0.025  0.0590  0.2987  0.2917
  796MOL0     C 4995   3.295   4.656  -0.056  0.2434  0.6996  0.8941
  796MOL0     C 4996   3.328   4.664  -0.186  0.6080 -0.3270 -0.0738
  796MOL0     C 4997   3.237   4.621  -0.293 -0.5332 -0.7975 -0.1292
  796MOL0     O 4998   3.273   4.621  -0.426  0.5478 -1.0680 -0.2742
  796MOL0     C 4999   3.409   4.644  -0.467  0.6961  0.3367  0.8340
  796MOL0     C 5000   3.410   4.604  -0.611  0.8102  0.5229  0.7339
  796MOL0     C 5001   3.522   4.677  -0.689 -0.2586  0.2435  0.0091
  796MOL0     C 5002   3.557   4.589  -0.813  0.1580  0.0888  0.0103
  796MOL0     C 5003   3.649   4.664  -0.895 -0.2574 -0.5079  0.2417
  796MOL0     C 5004   3.730   4.715  -0.966  0.7836 -0.6544 -0.4242
  796MOL0     C 5005   3.108   4.581  -0.257  0.2415  0.8956  0.3316
  796MOL0     C 5006   3.073   4.580  -0.127  0.3442 -0.1114 -0.3095
  796MOL0     H 5007   3.099   4.589   0.410  0.6080  1.3879 -0.5754
  796MOL0     H 5008   2.946   4.590   0.605  1.7815  2.1160 -1.1318
  796MOL0     H 5009   2.749   4.788   0.614  0.4554  2.6154  1.3636
  796MOL0     H 5010   2.796   4.681   0.750  1.1089  0.1189 -2.2980
  796MOL0     H 5011   2.545   4.666   0.782 -1.2291  1.5186  0.0813
  796MOL0     H 5012   2.521   4.798   0.669  1.0632 -2.1913 -1.9963
  796MOL0     H 5013   2.667   4.821   0.943 -0.3395  0.4043  0.5645
  796MOL0     H 5014   2.522   4.893   0.884 -0.6730  1.3001 -1.8297
  796MOL0     H 5015   2.783   4.960   0.749 -0.3061  1.7024 -1.7919
  796MOL0     H 5016   2.631   5.047   0.732  0.6662  0.5023  0.3995
  796MOL0     H 5017   2.788   5.030   0.997 -1.2722 -0.5248  0.9538
  796MOL0     H 5018   2.640   5.115   0.966  0.7064  1.0890  1.1644
  796MOL0     H 5019   2.772   5.243   0.779 -1.4446 -0.1638  0.2412
  796MOL0     H 5020   2.911   5.177   0.846 -0.4182 -0.0043  1.0984
  796MOL0     H 5021   2.904   5.303   1.035  0.9992  0.8341 -1.3660
  796MOL0     H 5022   2.831   5.412   0.920 -2.7525  1.1033  2.2166
  796MOL0     H 5023   2.740   5.416   1.135  2.4862 -1.2432  0.2196
  796MOL0     H 5024   2.668   5.256   1.113 -1.7808 -0.7434 -1.3970
  796MOL0     H 5025   2.641   5.621   0.968  0.3688 -0.5854  0.5589
  796MOL0     H 5026   2.469   5.764   0.823 -0.4252 -0.1000 -0.2696
  796MOL0     H 5027   2.341   5.673   0.750 -0.4693  1.9177  1.1978
  796MOL0     H 5028   2.490   5.777   0.580 -1.4786 -1.0618  0.6032
  796MOL0     H 5029   2.484   5.599   0.574  1.6157 -1.7167  0.6410
  796MOL0     H 5030   2.707   5.759   0.710 -1.6825 -0.9430  2.5405
  796MOL0     H 5031   2.713   5.587   0.693 -1.0570  0.3763  1.0423
  796MOL0     H 5032   2.857   5.686   0.510 -0.8916  1.2457 -0.7021
  796MOL0     H 5033   2.718   5.790   0.466 -0.3078  0.0528 -1.1582
  796MOL0     H 5034   2.636   5.384   0.293  0.4041 -2.1532 -0.8873
  796MOL0     H 5035   2.727   5.324   0.063  1.8849 -0.6175 -0.9140
  796MOL0     H 5036   3.096   5.330  -0.206  1.0905  0.8181  1.1736
  796MOL0     H 5037   3.238   5.281  -0.388 -1.6745 -1.0559 -0.7603
  796MOL0     H 5038   3.442   5.570  -0.504 -0.4779 -1.0085  0.9026
  796MOL0     H 5039   3.475   5.500  -0.664 -1.1112  0.4167 -0.6174
  796MOL0     H 5040   3.467   5.271  -0.549  0.5365 -1.1039  1.6057
  796MOL0     H 5041   3.472   5.347  -0.396 -1.1220  2.0809 -0.0264
  796MOL0     H 5042   3.677   5.245  -0.512  2.6302 -0.1841 -3.4630
  796MOL0     H 5043   3.701   5.400  -0.427  1.2794  0.7197 -0.7309
  796MOL0     H 5044   3.657   5.373  -0.725 -0.9134 -0.4983  1.0146
  796MOL0     H 5045   3.697   5.527  -0.649  1.2913  0.9562  2.8472
  796MOL0     H 5046   3.869   5.271  -0.688 -0.1456 -0.1168 -0.3326
  796MOL0     H 5047   3.919   5.410  -0.582  2.8941 -1.9032 -1.8603
  796MOL0     H 5048   3.906   5.558  -0.778  3.4091 -0.0748  1.7221
  796MOL0     H 5049   3.848   5.425  -0.873  0.5781  2.3234 -1.7887
  796MOL0     H 5050   4.114   5.416  -0.721 -0.1570 -2.7601  0.3944
  796MOL0     H 5051   4.033   5.290  -0.812 -4.5065 -0.4561  0.9165
  796MOL0     H 5052   4.097   5.545  -0.989  0.4878 -1.0749 -3.1222
  796MOL0     H 5053   4.090   5.370  -1.021  0.4251 -2.5172  1.9961
  796MOL0     H 5054   3.156   5.676  -0.545 -1.7850 -3.0558 -4.0675
  796MOL0     H 5055   3.026   5.729  -0.331  0.3623 -0.5249  3.7642
  796MOL0     H 5056   2.967   5.674   0.076 -0.0867 -0.5260 -2.5269
  796MOL0     H 5057   2.882   5.724   0.301 -2.2480  1.9105  0.8326
  796MOL0     H 5058   2.605   4.537   0.365 -0.8006  1.0578  2.1636
  796MOL0     H 5059   2.753   4.536   0.150  2.4276  1.6354 -1.3432
  796MOL0     H 5060   3.365   4.692   0.019  1.4120  2.5011 -0.9812
  796MOL0     H 5061   3.422   4.709  -0.216  0.6219 -1.5938 -2.0938
  796MOL0     H 5062   3.478   4.583  -0.408  1.3242  1.5316  1.3671
  796MOL0     H 5063   3.434   4.750  -0.455 -0.8465  0.7255  0.8123
  796MOL0     H 5064   3.420   4.495  -0.614 -0.8461  0.1614  4.3223
  796MOL0     H 5065   3.321   4.638  -0.664  3.1795  4.0640 -1.4155
  796MOL0     H 5066   3.614   4.694  -0.631  1.4636 -0.4951 -2.3550
  796MOL0     H 5067   3.487   4.776  -0.717  1.8551  1.7746  2.3218
  796MOL0     H 5068   3.595   4.496  -0.771 -1.8710 -1.0617 -0.5931
  796MOL0     H 5069   3.472   4.548  -0.868  1.2680 -0.9984 -0.9344
  796MOL0     H 5070   3.786   4.770  -1.039 -0.0216  2.9025  1.4003
  796MOL0     H 5071   3.030   4.550  -0.326 -1.0365  2.8764  0.7982
  796MOL0     H 5072   2.974   4.539  -0.105  0.2139 -0.0707 -0.8131
  797MOL0     O 5073   3.977   6.836   6.732 -0.2503  0.2107  0.1859
  797MOL0     C 5074   4.054   6.896   6.658  0.3481 -0.1089 -0.3772
  797MOL0     O 5075   4.017   6.961   6.542 -0.3597  0.1140 -0.0754
  797MOL0     C 5076   3.888   6.981   6.520  0.3772 -0.9365 -0.0430
  797MOL0     C 5077   3.794   7.016   6.617  0.0837 -0.3308 -0.7328
  797MOL0     C 5078   3.656   7.011   6.589 -0.4456 -0.7262  0.1824
  797MOL0     C 5079   3.608   6.980   6.457 -0.0279 -0.1941 -0.4516
  797MOL0     O 5080   3.477   6.983   6.412 -0.1015  0.1465  0.0625
  797MOL0     C 5081   3.399   7.103   6.434 -0.2858 -0.3557 -0.5782
  797MOL0     C 5082   3.259   7.069   6.475  0.4099 -0.2731 -0.7947
  797MOL0     C 5083   3.189   7.205   6.511 -0.0413 -0.0183 -0.2416
  797MOL0     C 5084   3.039   7.179   6.508 -0.1520  0.0922  0.7327
  797MOL0     C 5085   2.958   7.304   6.523  0.3689  0.0123 -0.4232
  797MOL0     C 5086   2.988   7.370   6.659  0.0286 -0.1350 -0.3842
  797MOL0     C 5087   2.879   7.471   6.703 -0.1000  0.4607  0.0634
  797MOL0     C 5088   2.840   7.571   6.593 -0.3317  0.7291 -0.7237
  797MOL0     N 5089   2.947   7.632   6.515 -0.1656 -0.1641 -0.4894
  797MOL0     C 5090   3.064   7.678   6.565  0.4392  0.3433 -0.0438
  797MOL0     C 5091   3.145   7.708   6.459  0.4339  0.5459 -0.0694
  797MOL0     C 5092   3.272   7.779   6.472 -0.4865  0.1581  0.7293
  797MOL0     C 5093   3.391   7.695   6.532 -0.2468 -1.1285  0.1904
  797MOL0     C 5094   3.433   7.574   6.440  0.3191 -0.3445  0.3636
  797MOL0     C 5095   3.560   7.500   6.452 -0.9818  0.8690  0.1286
  797MOL0     O 5096   3.666   7.598   6.464 -0.5703  0.5057  0.1337
  797MOL0     C 5097   3.796   7.548   6.490 -0.5178 -0.1608  0.9468
  797MOL0     C 5098   3.897   7.637   6.521 -0.1612  0.2755  0.4546
  797MOL0     C 5099   4.024   7.591   6.539 -0.5255  0.2941 -0.5713
  797MOL0     C 5100   4.060   7.456   6.537 -0.1319  0.1826  0.8199
  797MOL0     C 5101   4.201   7.414   6.559  0.4449  0.4094 -0.1754
  797MOL0     O 5102   4.288   7.520   6.571  0.0417 -0.5229  0.0019
  797MOL0     C 5103   4.420   7.485   6.569  0.0078 -0.3075  0.8865
  797MOL0     C 5104   4.481   7.462   6.691  0.6844 -0.0650  0.6664
  797MOL0     C 5105   4.612   7.433   6.713  0.0439 -0.1451  0.2949
  797MOL0     C 5106   4.697   7.424   6.603  0.1243 -0.1118 -1.4325
  797MOL0     O 5107   4.825   7.390   6.634 -0.3137 -0.4228  0.0169
  797MOL0     C 5108   4.921   7.426   6.528  0.2305 -0.7019 -0.3999
  797MOL0     C 5109   5.051   7.354   6.566 -0.5312  0.5003 -0.3213
  797MOL0     C 5110   5.157   7.350   6.442  0.6519 -0.1506  0.2182
  797MOL0     C 5111   5.296   7.310   6.500  0.2092  0.1966 -0.8910
  797MOL0     C 5112   5.394   7.251   6.396  0.9415  0.3353  0.4498
  797MOL0     C 5113   5.510   7.180   6.469 -0.6899 -0.2494  0.4549
  797MOL0     C 5114   5.601   7.268   6.549 -1.0371  0.3347  0.9731
  797MOL0     C 5115   5.698   7.193   6.632 -0.5610 -0.1587  0.0877
  797MOL0    Cl 5116   5.844   7.157   6.539  0.1785  0.3745  0.2998
  797MOL0     C 5117   4.642   7.427   6.471  0.1043 -0.3948  0.2050
  797MOL0     C 5118   4.507   7.466   6.456  0.0735  0.1524 -0.6504
  797MOL0     O 5119   4.234   7.297   6.565 -0.7021  0.2744 -0.1675
  797MOL0     C 5120   3.966   7.366   6.493  0.4841  0.3492  0.0762
  797MOL0     C 5121   3.832   7.408   6.466  0.2227 -0.4522  0.0061
  797MOL0     N 5122   3.074   7.684   6.338 -0.4385  0.2706  0.8386
  797MOL0     N 5123   2.957   7.638   6.375 -0.1404  0.5703 -0.6720
  797MOL0     C 5124   3.705   6.953   6.359  0.1801  0.2185 -0.2638
  797MOL0     C 5125   3.841   6.957   6.386 -0.1258 -0.5947 -0.4238
  797MOL0     C 5126   4.194   6.913   6.710 -1.1220  0.1362  0.3160
  797MOL0     C 5127   4.241   6.834   6.816 -0.7832  0.0668 -0.5238
  797MOL0     C 5128   4.374   6.847   6.852 -0.7677 -0.2407  0.4780
  797MOL0     C 5129   4.469   6.926   6.789  0.0494  0.1061 -0.3222
  797MOL0     O 5130   4.597   6.924   6.836  0.2234 -0.3902  0.1516
  797MOL0     C 5131   4.689   7.021   6.785  0.0208 -1.4921  0.1560
  797MOL0     C 5132   4.816   6.984   6.862 -0.6802  0.1333 -0.0845
  797MOL0     C 5133   4.941   7.058   6.823  0.3919  0.2596 -0.6112
  797MOL0     C 5134   5.066   6.998   6.891  0.5996  0.7744  0.4421
  797MOL0     C 5135   5.185   7.081   6.863 -1.0198  0.3648 -0.4673
  797MOL0     C 5136   5.294   7.138   6.858 -0.5679  0.2320  0.3698
  797MOL0     C 5137   4.416   7.002   6.692  0.3278 -1.1002  0.1885
  797MOL0     C 5138   4.278   7.005   6.652  0.6285  0.0145 -0.1472
  797MOL0     H 5139   3.824   7.056   6.714 -2.0634  0.2806 -0.2619
  797MOL0     H 5140   3.579   7.040   6.660 -0.8133 -2.5083  0.5705
  797MOL0     H 5141   3.388   7.169   6.348 -3.1516 -3.3461 -2.7311
  797MOL0     H 5142   3.443   7.163   6.515  1.1012 -2.0710  0.0009
  797MOL0     H 5143   3.259   6.991   6.552 -0.2399  0.8253  0.3585
  797MOL0     H 5144   3.215   7.034   6.381 -0.9353  4.8812 -2.4163
  797MOL0     H 5145   3.193   7.285   6.437  0.8840  1.1862  1.0527
  797MOL0     H 5146   3.231   7.246   6.603  0.6398  0.5769 -0.8064
  797MOL0     H 5147   3.020   7.136   6.409  0.3365  1.4518  0.0165
  797MOL0     H 5148   3.004   7.106   6.581 -3.4742  0.6071 -0.2059
  797MOL0     H 5149   2.853   7.276   6.533  0.6077 -0.2133  2.6682
  797MOL0     H 5150   2.951   7.375   6.440  2.3888 -0.9769 -1.5300
  797MOL0     H 5151   3.082   7.425   6.651 -1.7771  3.2430 -0.1540
  797MOL0     H 5152   3.002   7.295   6.737 -0.7471 -1.1722 -1.2075
  797MOL0     H 5153   2.792   7.428   6.752  1.5436 -2.9744  0.2627
  797MOL0     H 5154   2.919   7.534   6.783 -1.4139 -1.7141  2.6045
  797MOL0     H 5155   2.789   7.652   6.646 -2.1615  0.8779 -2.6023
  797MOL0     H 5156   2.773   7.524   6.521  1.8706  1.2700 -3.2947
  797MOL0     H 5157   3.080   7.697   6.670 -1.8941 -0.0571  0.4493
  797MOL0     H 5158   3.253   7.863   6.540 -0.4459 -1.0837  2.3287
  797MOL0     H 5159   3.289   7.812   6.369 -1.9263  0.9244  0.7098
  797MOL0     H 5160   3.356   7.662   6.630  1.3732  0.7950  1.4976
  797MOL0     H 5161   3.477   7.755   6.562 -0.5668  1.3661 -3.2459
  797MOL0     H 5162   3.348   7.506   6.456 -1.3677  1.6448  0.2252
  797MOL0     H 5163   3.431   7.601   6.334  0.3756 -0.1837  0.4047
  797MOL0     H 5164   3.573   7.436   6.364 -0.5515  1.5698 -0.3303
  797MOL0     H 5165   3.548   7.438   6.541 -0.2521  0.5326  0.0050
  797MOL0     H 5166   3.876   7.744   6.524  2.2736  1.0633 -3.2776
  797MOL0     H 5167   4.097   7.669   6.556  0.6625 -0.6136 -1.3204
  797MOL0     H 5168   4.418   7.464   6.779  0.2532 -0.0588  0.3630
  797MOL0     H 5169   4.653   7.415   6.812  1.3820 -2.0817 -0.5437
  797MOL0     H 5170   4.928   7.535   6.518 -3.8483 -0.1690  0.5956
  797MOL0     H 5171   4.886   7.383   6.434 -1.0627  0.4643 -0.4943
  797MOL0     H 5172   5.032   7.248   6.585 -2.7054  1.0133  0.7357
  797MOL0     H 5173   5.102   7.392   6.655  1.8362  1.5800 -2.0422
  797MOL0     H 5174   5.177   7.446   6.393  0.6599 -1.2012 -1.9624
  797MOL0     H 5175   5.125   7.280   6.365  0.1999 -0.3628  0.5925
  797MOL0     H 5176   5.330   7.402   6.548 -1.2517 -0.1647  0.9502
  797MOL0     H 5177   5.281   7.242   6.585  2.1409  0.0821 -0.6150
  797MOL0     H 5178   5.438   7.328   6.331  1.5012 -0.4573 -0.1233
  797MOL0     H 5179   5.343   7.184   6.327 -0.4951  1.5748  0.2541
  797MOL0     H 5180   5.569   7.140   6.385 -1.1792 -0.0748  0.0185
  797MOL0     H 5181   5.478   7.091   6.525 -1.1499  0.4285  1.2882
  797MOL0     H 5182   5.663   7.333   6.486 -1.5460 -1.2851 -1.3348
  797MOL0     H 5183   5.540   7.320   6.623 -2.2287 -1.4459  1.3288
  797MOL0     H 5184   5.649   7.098   6.656 -2.0773  0.6550  0.3604
  797MOL0     H 5185   5.715   7.243   6.728 -2.4930 -0.9971  0.9363
  797MOL0     H 5186   4.688   7.405   6.375 -1.5441 -0.7735 -0.5252
  797MOL0     H 5187   4.461   7.475   6.358 -1.0462  0.8672 -0.0841
  797MOL0     H 5188   3.992   7.261   6.490 -2.4422 -0.5721  2.1813
  797MOL0     H 5189   3.753   7.336   6.444 -1.9532  0.6449  3.3806
  797MOL0     H 5190   3.671   6.930   6.259  3.3723 -0.0978 -1.4072
  797MOL0     H 5191   3.908   6.931   6.304  0.9083 -0.2210  0.2773
  797MOL0     H 5192   4.182   6.761   6.872  1.8624 -2.5720 -0.9500
  797MOL0     H 5193   4.409   6.791   6.938 -0.6058  0.7537  1.0762
  797MOL0     H 5194   4.658   7.117   6.827  1.0446 -0.9804 -0.2126
  797MOL0     H 5195   4.708   7.016   6.677  2.7875  0.5837  0.4189
  797MOL0     H 5196   4.798   6.995   6.969  0.1159 -1.8712  0.3027
  797MOL0     H 5197   4.829   6.876   6.847 -0.4200  0.1998 -0.3513
  797MOL0     H 5198   4.925   7.164   6.842  0.0390  0.1941 -0.5313
  797MOL0     H 5199   4.959   7.051   6.716  0.2447 -0.2082 -0.6063
  797MOL0     H 5200   5.043   6.984   6.997 -2.8082 -1.9886 -0.4691
  797MOL0     H 5201   5.076   6.894   6.860  1.3242  0.6268  1.1409
  797MOL0     H 5202   5.381   7.199   6.844  0.0044 -0.9009 -1.3137
  797MOL0     H 5203   4.489   7.059   6.635  1.8270 -3.0448  0.0446
  797MOL0     H 5204   4.241   7.062   6.567  0.0969 -1.1125 -0.6842
  798MOL0     O 5205   3.089   1.103   8.931  0.2273  0.5440  0.4676
  798MOL0     C 5206   3.071   1.115   9.050 -0.1676  0.7161  1.0693
  798MOL0     O 5207   2.969   1.173   9.116 -0.0535  0.0083 -0.6973
  798MOL0     C 5208   2.838   1.183   9.066  0.0341 -0.6662  1.3165
  798MOL0     C 5209   2.789   1.131   8.945  0.0752 -0.1476 -0.4443
  798MOL0     C 5210   2.653   1.129   8.911 -0.6267 -0.3096  0.3937
  798MOL0     C 5211   2.555   1.182   8.987 -0.8633 -0.8307 -0.5203
  798MOL0     O 5212   2.422   1.198   8.959  0.0775 -0.2224 -1.1056
  798MOL0     C 5213   2.377   1.110   8.860  0.5510  0.1222 -0.2611
  798MOL0     C 5214   2.230   1.124   8.833  0.7926 -0.4086  0.7236
  798MOL0     C 5215   2.135   1.059   8.942  0.6048  0.5363 -0.2647
  798MOL0     C 5216   1.993   1.106   8.903 -0.5346 -2.0223  0.2827
  798MOL0     C 5217   1.887   1.008   8.948  0.2749 -0.1037 -1.0272
  798MOL0     C 5218   1.752   1.063   8.917  0.1685 -0.5691 -0.5804
  798MOL0     C 5219   1.643   0.951   8.934 -1.1213  0.3268 -0.5154
  798MOL0     C 5220   1.502   0.998   8.899 -1.1303  0.4796  0.5347
  798MOL0     N 5221   1.445   1.074   9.007  0.7986 -0.5242  0.2434
  798MOL0     C 5222   1.323   1.030   9.052 -0.0055  0.2399  0.7738
  798MOL0     C 5223   1.289   1.124   9.146 -0.3042  0.7617  0.8565
  798MOL0     C 5224   1.167   1.102   9.236 -0.0485  0.4261  0.1700
  798MOL0     C 5225   1.171   1.186   9.363 -0.8586 -0.1211 -0.3982
  798MOL0     C 5226   1.132   1.110   9.490  0.2968 -1.2738 -0.7103
  798MOL0     C 5227   0.997   1.046   9.494  0.5084  0.1929  0.1436
  798MOL0     O 5228   0.900   1.143   9.460  0.2497  0.1972  0.4603
  798MOL0     C 5229   0.762   1.098   9.434  0.1412  0.3340  0.4066
  798MOL0     C 5230   0.722   0.979   9.492 -1.3889  1.1508 -0.2283
  798MOL0     C 5231   0.592   0.927   9.489 -0.5369  0.6371 -1.4617
  798MOL0     C 5232   0.495   1.012   9.437 -0.8548 -0.0620 -0.3605
  798MOL0     C 5233   0.358   0.957   9.428 -0.0641 -0.2714  1.1505
  798MOL0     O 5234   0.265   1.047   9.384 -0.5718  0.4570  0.5194
  798MOL0     C 5235   0.149   0.993   9.338 -0.6947  0.0545 -0.1532
  798MOL0     C 5236   0.043   1.004   9.419 -0.0254  0.2306  0.3588
  798MOL0     C 5237  -0.080   0.954   9.385  0.3317  0.6581  0.4624
  798MOL0     C 5238  -0.105   0.898   9.258 -0.3128 -0.8558 -0.3610
  798MOL0     O 5239  -0.227   0.847   9.219  0.1104 -0.6761  0.6780
  798MOL0     C 5240  -0.292   0.769   9.313 -0.4841  0.0942 -0.3207
  798MOL0     C 5241  -0.425   0.705   9.261  0.2034  0.3766 -0.0825
  798MOL0     C 5242  -0.480   0.619   9.367 -0.0679  0.2439 -0.1812
  798MOL0     C 5243  -0.611   0.554   9.323  0.4069  0.8711 -0.2152
  798MOL0     C 5244  -0.678   0.484   9.435  0.7003 -0.7724  0.3529
  798MOL0     C 5245  -0.825   0.439   9.414 -0.4453  0.0992 -0.2998
  798MOL0     C 5246  -0.834   0.312   9.330  0.8513 -0.3477  0.0039
  798MOL0     C 5247  -0.978   0.279   9.297  0.0932  0.4548 -0.6529
  798MOL0    Cl 5248  -1.051   0.268   9.461  0.4435  0.2887 -0.4241
  798MOL0     C 5249   0.003   0.883   9.177  0.2464 -0.1653 -0.4633
  798MOL0     C 5250   0.129   0.929   9.214  1.1192 -0.0403  0.2294
  798MOL0     O 5251   0.339   0.840   9.458 -1.0030 -0.4316 -0.1642
  798MOL0     C 5252   0.532   1.141   9.385 -0.2811  0.7128 -0.4523
  798MOL0     C 5253   0.671   1.173   9.378  1.4025 -0.8646  0.0183
  798MOL0     N 5254   1.370   1.242   9.131 -0.2527 -0.1399  0.0033
  798MOL0     N 5255   1.453   1.207   9.038 -0.7691 -0.2956 -0.5452
  798MOL0     C 5256   2.602   1.225   9.112  0.4030 -0.0337  1.1127
  798MOL0     C 5257   2.735   1.231   9.148 -0.6397 -0.7717  0.7915
  798MOL0     C 5258   3.190   1.063   9.126  0.1696 -0.8047  0.7451
  798MOL0     C 5259   3.306   1.006   9.076 -0.2922  0.3425 -0.5908
  798MOL0     C 5260   3.423   0.987   9.154 -0.0543  1.0905  1.0379
  798MOL0     C 5261   3.420   1.010   9.288 -0.2470  0.0302 -0.0718
  798MOL0     O 5262   3.526   0.979   9.366  0.3860 -0.4577  1.0903
  798MOL0     C 5263   3.651   0.946   9.305  0.3024 -0.4360  1.2292
  798MOL0     C 5264   3.645   0.796   9.282  0.4981 -1.0484  0.5512
  798MOL0     C 5265   3.776   0.743   9.231 -0.2209 -0.0907 -0.4913
  798MOL0     C 5266   3.795   0.780   9.084  0.9201 -0.1997 -0.1815
  798MOL0     C 5267   3.914   0.721   9.027 -0.4219 -0.0932  0.1285
  798MOL0     C 5268   4.020   0.673   8.985 -0.7880 -0.3585  0.7220
  798MOL0     C 5269   3.302   1.049   9.349  0.3914  0.0535  0.7938
  798MOL0     C 5270   3.186   1.084   9.272  0.2971  0.0002  0.1547
  798MOL0     H 5271   2.856   1.080   8.876 -1.3323  0.1216 -2.0801
  798MOL0     H 5272   2.631   1.077   8.819  1.6679  0.4174 -0.6316
  798MOL0     H 5273   2.415   1.010   8.883  0.5835 -0.1575 -1.4456
  798MOL0     H 5274   2.421   1.147   8.767 -1.7605 -0.7370 -1.8006
  798MOL0     H 5275   2.213   1.072   8.738  1.2483 -2.3217  1.6439
  798MOL0     H 5276   2.219   1.232   8.819  2.5994 -0.4104 -1.2583
  798MOL0     H 5277   2.151   1.088   9.046 -0.5708  0.3444 -0.0141
  798MOL0     H 5278   2.138   0.950   8.932 -0.3808  0.5494 -0.8490
  798MOL0     H 5279   1.975   1.203   8.951  2.5796 -0.7275 -0.8814
  798MOL0     H 5280   1.989   1.127   8.796  1.1569  0.7586  0.6657
  798MOL0     H 5281   1.893   1.006   9.057  0.0190  0.0155 -1.0100
  798MOL0     H 5282   1.912   0.913   8.899  2.4562  0.6122 -1.3944
  798MOL0     H 5283   1.759   1.081   8.809  1.6522 -0.8259 -0.5503
  798MOL0     H 5284   1.727   1.159   8.962 -1.7628 -1.0942 -0.4165
  798MOL0     H 5285   1.676   0.858   8.886  0.1484  0.2678  0.4193
  798MOL0     H 5286   1.645   0.922   9.040  2.3273 -1.8707 -0.9971
  798MOL0     H 5287   1.463   0.897   8.883 -0.7871  0.6972 -2.0236
  798MOL0     H 5288   1.504   1.050   8.803  1.6212  3.5365  2.0421
  798MOL0     H 5289   1.271   0.938   9.028  0.3638  0.2497 -0.0873
  798MOL0     H 5290   1.166   0.996   9.262 -1.9468  1.0190  3.1321
  798MOL0     H 5291   1.079   1.127   9.176 -0.8452  0.9207  1.4955
  798MOL0     H 5292   1.104   1.272   9.354  0.2811  0.8159 -0.2706
  798MOL0     H 5293   1.267   1.239   9.363 -0.1508 -1.3334 -2.0886
  798MOL0     H 5294   1.218   1.047   9.515  1.1094  0.2860  0.6199
  798MOL0     H 5295   1.133   1.188   9.567 -1.6093  0.2689 -2.1486
  798MOL0     H 5296   0.983   1.010   9.597  1.5523 -0.0138  0.2200
  798MOL0     H 5297   1.002   0.963   9.422  0.0137  2.7486 -3.0836
  798MOL0     H 5298   0.793   0.911   9.537 -1.2389 -0.8137 -3.1174
  798MOL0     H 5299   0.576   0.825   9.521  1.7287 -0.0422 -2.2929
  798MOL0     H 5300   0.076   1.048   9.513 -0.1328  0.7495  0.1561
  798MOL0     H 5301  -0.163   0.972   9.453 -0.0327  0.8632 -0.0282
  798MOL0     H 5302  -0.306   0.819   9.409  1.0103  0.7916 -0.4397
  798MOL0     H 5303  -0.233   0.679   9.331 -0.6201 -0.1618 -1.0962
  798MOL0     H 5304  -0.394   0.644   9.176 -0.7043 -2.1254  1.2555
  798MOL0     H 5305  -0.504   0.773   9.229 -1.9812 -2.8429 -2.2073
  798MOL0     H 5306  -0.493   0.675   9.460 -1.0260 -1.7233  0.9221
  798MOL0     H 5307  -0.403   0.542   9.373 -0.2888  0.0458  0.1045
  798MOL0     H 5308  -0.677   0.634   9.286  0.0147  1.4306  1.6173
  798MOL0     H 5309  -0.587   0.477   9.249  1.5478  2.7345 -1.8845
  798MOL0     H 5310  -0.684   0.550   9.522  2.3519 -0.0141 -0.0628
  798MOL0     H 5311  -0.632   0.394   9.479 -3.0161 -1.8535  2.5077
  798MOL0     H 5312  -0.899   0.511   9.377  0.9659  1.6632 -0.2267
  798MOL0     H 5313  -0.843   0.421   9.520  3.5013  0.9775  0.6917
  798MOL0     H 5314  -0.770   0.308   9.241  1.3407 -0.3423  0.3512
  798MOL0     H 5315  -0.805   0.221   9.384 -2.9387 -3.2409 -2.3576
  798MOL0     H 5316  -0.987   0.190   9.235 -3.0124  1.7826 -2.3277
  798MOL0     H 5317  -1.040   0.355   9.247 -1.0191  1.6900  2.3705
  798MOL0     H 5318  -0.004   0.849   9.075  2.9763 -0.7677 -0.5159
  798MOL0     H 5319   0.210   0.923   9.142  0.7101  2.1101 -0.5035
  798MOL0     H 5320   0.457   1.203   9.337  0.1061  0.6182 -1.2007
  798MOL0     H 5321   0.701   1.269   9.338 -0.9202  0.3238  0.8810
  798MOL0     H 5322   2.536   1.267   9.187  0.2964 -0.4184  1.2384
  798MOL0     H 5323   2.744   1.265   9.251 -1.0258  2.3384 -0.0872
  798MOL0     H 5324   3.323   0.998   8.969 -0.8541  1.8758 -0.8308
  798MOL0     H 5325   3.496   0.938   9.090 -3.9932 -2.1786 -1.4327
  798MOL0     H 5326   3.737   0.965   9.370  1.8507  0.5318 -0.9885
  798MOL0     H 5327   3.682   1.003   9.217  3.2274 -2.1193  1.0712
  798MOL0     H 5328   3.617   0.761   9.382 -0.5563 -0.4927  0.4658
  798MOL0     H 5329   3.566   0.761   9.215  0.6650 -0.1254 -0.1515
  798MOL0     H 5330   3.770   0.633   9.227 -1.0579 -0.0220 -1.5969
  798MOL0     H 5331   3.865   0.761   9.292  0.6826 -0.1094 -1.7506
  798MOL0     H 5332   3.714   0.724   9.036 -1.0753 -0.0097  2.7149
  798MOL0     H 5333   3.799   0.888   9.069  0.3787 -0.3798 -1.8838
  798MOL0     H 5334   4.109   0.633   8.941 -2.4156 -1.1750 -2.1963
  798MOL0     H 5335   3.306   1.069   9.455 -2.3640  0.1459  0.9692
  798MOL0     H 5336   3.101   1.130   9.322  0.1198  1.1641 -1.1398
  799MOL0     O 5337  10.523   5.611   2.367 -0.7194  0.4546 -0.4437
  799MOL0     C 5338  10.568   5.707   2.430  0.5914  0.1921 -0.1777
  799MOL0     O 5339  10.500   5.810   2.473  0.5601  0.3552 -0.4726
  799MOL0     C 5340  10.365   5.823   2.477 -0.3124 -0.0812 -0.3044
  799MOL0     C 5341  10.280   5.715   2.496 -0.8312 -0.0985 -0.1748
  799MOL0     C 5342  10.143   5.729   2.490 -0.1594 -0.8986 -0.3440
  799MOL0     C 5343  10.088   5.854   2.453 -0.1309  0.3473  0.9173
  799MOL0     O 5344   9.948   5.877   2.432 -0.0538 -0.4293  0.1145
  799MOL0     C 5345   9.851   5.772   2.451 -0.1223 -0.2324  0.7977
  799MOL0     C 5346   9.755   5.795   2.327 -0.0253  0.3002 -0.6857
  799MOL0     C 5347   9.630   5.709   2.338 -0.4761  0.1120  0.3632
  799MOL0     C 5348   9.530   5.769   2.239  1.2963  0.6910  0.0300
  799MOL0     C 5349   9.400   5.689   2.235  1.2159 -0.1972  0.5664
  799MOL0     C 5350   9.319   5.711   2.365  0.4895  0.3484 -0.9258
  799MOL0     C 5351   9.174   5.678   2.338 -0.5433 -0.4575  0.1174
  799MOL0     C 5352   9.096   5.679   2.468  0.1629  0.7575  0.6815
  799MOL0     N 5353   8.950   5.678   2.431 -0.3181 -0.0137  0.4903
  799MOL0     C 5354   8.884   5.787   2.386 -0.3795  0.4565  0.0501
  799MOL0     C 5355   8.756   5.744   2.390 -0.6011  0.2935 -0.7084
  799MOL0     C 5356   8.634   5.829   2.346 -0.0414  0.2981 -0.9277
  799MOL0     C 5357   8.555   5.775   2.228 -0.4277  0.1650 -0.1751
  799MOL0     C 5358   8.417   5.833   2.220  0.6423 -0.4303 -0.0479
  799MOL0     C 5359   8.338   5.770   2.115  0.3174  0.5275  0.5032
  799MOL0     O 5360   8.212   5.836   2.099  0.1374  0.6265 -0.4880
  799MOL0     C 5361   8.095   5.756   2.105  0.0847  0.1107  0.2543
  799MOL0     C 5362   8.088   5.626   2.049  0.0725  0.2926  0.0911
  799MOL0     C 5363   7.979   5.546   2.044 -0.2213 -0.2856  0.0264
  799MOL0     C 5364   7.856   5.596   2.087 -0.0080  0.0475 -0.3149
  799MOL0     C 5365   7.740   5.511   2.073 -0.7983  0.8243 -1.1156
  799MOL0     O 5366   7.622   5.583   2.074 -0.1668 -0.1904  0.1551
  799MOL0     C 5367   7.504   5.510   2.075  0.2699  0.8018 -0.2221
  799MOL0     C 5368   7.438   5.506   1.955 -0.1765  0.5936 -0.2720
  799MOL0     C 5369   7.297   5.476   1.963 -0.1682  0.8025 -0.8115
  799MOL0     C 5370   7.241   5.448   2.090  0.4704  0.4508 -0.5451
  799MOL0     O 5371   7.109   5.425   2.101  0.4047  0.6414  0.9504
  799MOL0     C 5372   7.039   5.508   2.199 -0.3624 -0.0640  0.3497
  799MOL0     C 5373   6.888   5.505   2.177 -0.7052  0.2871  0.5730
  799MOL0     C 5374   6.846   5.566   2.042 -0.1000 -0.3497 -0.0659
  799MOL0     C 5375   6.723   5.489   1.992 -0.1554 -0.2272  1.0026
  799MOL0     C 5376   6.700   5.548   1.850  1.0993  0.6667 -0.1898
  799MOL0     C 5377   6.669   5.694   1.821 -0.7884 -0.1506  0.0445
  799MOL0     C 5378   6.567   5.750   1.918 -0.0394  0.7978 -0.1752
  799MOL0     C 5379   6.512   5.884   1.882 -0.0685  0.0119  0.9277
  799MOL0    Cl 5380   6.408   5.919   2.014  0.1628  0.1519  0.0989
  799MOL0     C 5381   7.323   5.434   2.204  0.9745  0.2823  0.7478
  799MOL0     C 5382   7.452   5.475   2.201  0.2213 -0.5006 -0.8758
  799MOL0     O 5383   7.747   5.386   2.044  0.1826  0.1818 -0.6194
  799MOL0     C 5384   7.853   5.728   2.135 -0.7717 -0.5887 -0.0861
  799MOL0     C 5385   7.972   5.804   2.152  0.2756  0.4198 -0.0830
  799MOL0     N 5386   8.752   5.613   2.445  0.2943 -0.6136 -0.2194
  799MOL0     N 5387   8.872   5.572   2.460  0.5626  0.0179  0.4679
  799MOL0     C 5388  10.168   5.965   2.423  0.6007 -0.1569  0.7885
  799MOL0     C 5389  10.303   5.947   2.433  0.4803  0.1080 -0.0631
  799MOL0     C 5390  10.712   5.721   2.456  0.1568  0.0340  0.1274
  799MOL0     C 5391  10.766   5.832   2.513  0.7284 -0.1512  0.0023
  799MOL0     C 5392  10.899   5.851   2.532  0.1625  0.1711  0.5635
  799MOL0     C 5393  10.986   5.755   2.493 -0.7006  0.6165  0.2780
  799MOL0     O 5394  11.114   5.783   2.521  0.3049  1.0618 -0.3000
  799MOL0     C 5395  11.223   5.689   2.536  0.4029 -0.2561  0.6668
  799MOL0     C 5396  11.340   5.748   2.611 -0.1643 -0.0632  0.3669
  799MOL0     C 5397  11.475   5.694   2.573 -0.2228  0.3392 -0.1632
  799MOL0     C 5398  11.581   5.772   2.648  0.0927  0.4493  0.2508
  799MOL0     C 5399  11.714   5.731   2.606 -0.9640 -0.0683  0.4708
  799MOL0     C 5400  11.835   5.697   2.594  0.1316 -0.8026  0.1575
  799MOL0     C 5401  10.933   5.643   2.426 -1.0107  0.0690  0.3999
  799MOL0     C 5402  10.803   5.622   2.412  0.3610 -0.1922  0.3838
  799MOL0     H 5403  10.331   5.629   2.539 -1.2481  1.2456  3.3089
  799MOL0     H 5404  10.070   5.660   2.530 -1.7870  0.6636 -0.4529
  799MOL0     H 5405   9.801   5.776   2.548 -1.3374 -0.1145  0.1731
  799MOL0     H 5406   9.894   5.671   2.448  2.0253  0.6504  0.1673
  799MOL0     H 5407   9.802   5.783   2.229  0.8794 -0.5944 -0.1661
  799MOL0     H 5408   9.726   5.900   2.339  1.9407  1.2035 -3.0188
  799MOL0     H 5409   9.590   5.714   2.440  1.4201  2.2028  1.0876
  799MOL0     H 5410   9.650   5.604   2.314 -0.9342 -0.5053  2.4756
  799MOL0     H 5411   9.513   5.873   2.270  2.2602  0.3103  2.0196
  799MOL0     H 5412   9.574   5.762   2.140 -1.8016  2.1067 -1.6031
  799MOL0     H 5413   9.412   5.583   2.209 -1.3440 -0.1226 -1.2789
  799MOL0     H 5414   9.344   5.724   2.148  1.6169  0.7300  0.6683
  799MOL0     H 5415   9.341   5.812   2.401  4.7560 -1.1796  1.5417
  799MOL0     H 5416   9.351   5.640   2.442  3.2939  1.0904 -1.2883
  799MOL0     H 5417   9.129   5.759   2.279 -3.7595 -1.7220  0.6092
  799MOL0     H 5418   9.147   5.592   2.276 -1.4115  0.8576 -1.4161
  799MOL0     H 5419   9.115   5.775   2.517  1.9173  1.0312 -0.4538
  799MOL0     H 5420   9.124   5.594   2.532 -2.0477 -2.0050 -1.7248
  799MOL0     H 5421   8.919   5.878   2.338 -0.7679  1.0620  0.9075
  799MOL0     H 5422   8.676   5.927   2.322  1.3642  0.8648  3.1208
  799MOL0     H 5423   8.569   5.838   2.433  0.7828 -0.6861 -0.1916
  799MOL0     H 5424   8.542   5.667   2.242 -0.5122  0.3263  1.1007
  799MOL0     H 5425   8.605   5.799   2.133  0.4945 -2.4866 -0.4445
  799MOL0     H 5426   8.358   5.825   2.312 -1.3461  0.4645 -1.1786
  799MOL0     H 5427   8.419   5.938   2.191 -2.8905 -1.0161 -3.1428
  799MOL0     H 5428   8.318   5.663   2.124 -1.2450  0.6606 -0.8029
  799MOL0     H 5429   8.392   5.796   2.024 -1.1859  2.8759  0.1825
  799MOL0     H 5430   8.173   5.571   2.009 -1.6714 -2.2973 -0.3507
  799MOL0     H 5431   7.985   5.441   2.015  1.1174  0.2343 -1.7137
  799MOL0     H 5432   7.486   5.541   1.863 -0.0193 -1.1272 -0.8865
  799MOL0     H 5433   7.230   5.466   1.878 -0.8633 -2.4361 -0.0243
  799MOL0     H 5434   7.062   5.614   2.183  0.0028  0.2861  2.8424
  799MOL0     H 5435   7.057   5.482   2.303 -2.7644 -1.0974  0.5752
  799MOL0     H 5436   6.839   5.564   2.254  0.2845  0.8201  0.8075
  799MOL0     H 5437   6.854   5.402   2.190  1.4017 -0.5141  0.1890
  799MOL0     H 5438   6.924   5.555   1.966 -0.0080 -2.6165  0.2883
  799MOL0     H 5439   6.828   5.673   2.044 -0.5782 -0.4301  0.1953
  799MOL0     H 5440   6.741   5.382   1.975 -1.4933 -0.3969  0.5605
  799MOL0     H 5441   6.637   5.508   2.056  0.9734  1.4932  2.0958
  799MOL0     H 5442   6.613   5.493   1.812  1.8542  0.4858 -1.7435
  799MOL0     H 5443   6.785   5.537   1.782 -0.5980  3.0447 -2.8858
  799MOL0     H 5444   6.636   5.709   1.718  1.5724  1.5233 -0.5465
  799MOL0     H 5445   6.759   5.754   1.834 -0.9892 -0.3119  3.0102
  799MOL0     H 5446   6.479   5.687   1.905 -0.7176  1.9229 -1.2750
  799MOL0     H 5447   6.597   5.746   2.023 -1.4516 -0.5378  0.2114
  799MOL0     H 5448   6.455   5.886   1.789 -0.5522 -3.5787  1.0167
  799MOL0     H 5449   6.594   5.957   1.887 -0.3703  0.4252  0.0285
  799MOL0     H 5450   7.289   5.411   2.304  0.7821  1.7229  1.0300
  799MOL0     H 5451   7.510   5.493   2.291 -3.0706  0.4218  1.2775
  799MOL0     H 5452   7.758   5.766   2.171 -0.1780 -1.8128  3.1900
  799MOL0     H 5453   7.960   5.903   2.197  0.9291  0.1476  0.7262
  799MOL0     H 5454  10.113   6.052   2.388 -0.4889  0.3676  3.5290
  799MOL0     H 5455  10.368   6.034   2.425 -1.5014  1.7912  1.2159
  799MOL0     H 5456  10.697   5.908   2.549 -0.4178 -0.6205 -1.1065
  799MOL0     H 5457  10.921   5.945   2.581 -2.8524  1.9501 -1.1811
  799MOL0     H 5458  11.257   5.652   2.438 -2.7227 -1.1846 -0.1674
  799MOL0     H 5459  11.184   5.600   2.587 -2.1328  1.2136  1.4698
  799MOL0     H 5460  11.333   5.857   2.608  0.7972  0.0282  0.9310
  799MOL0     H 5461  11.332   5.717   2.716  3.6310 -1.3344  0.4325
  799MOL0     H 5462  11.488   5.704   2.465  1.6801 -0.3882 -0.0487
  799MOL0     H 5463  11.460   5.588   2.599 -1.6800  1.4846  4.7185
  799MOL0     H 5464  11.578   5.879   2.625  2.7218  0.8715  1.5445
  799MOL0     H 5465  11.567   5.756   2.755 -3.4078 -0.1267 -0.1694
  799MOL0     H 5466  11.935   5.664   2.578  0.2564 -0.3586  0.0057
  799MOL0     H 5467  11.014   5.576   2.399 -1.2762 -0.9862  2.0521
  799MOL0     H 5468  10.767   5.536   2.357  0.0263  0.9972 -1.3485
  800MOL0     O 5469   9.613   9.318   2.000 -0.2406  0.3367  0.1470
  800MOL0     C 5470   9.651   9.201   1.996  0.0520  0.1795  0.0542
  800MOL0     O 5471   9.570   9.093   1.987  0.6114 -0.3144 -0.0772
  800MOL0     C 5472   9.429   9.103   1.991 -0.0259 -1.0113  0.0531
  800MOL0     C 5473   9.365   9.168   2.097  0.4392 -0.3462  0.2773
  800MOL0     C 5474   9.224   9.156   2.110 -0.8090 -0.1432 -0.8550
  800MOL0     C 5475   9.153   9.081   2.020  0.1971 -0.0883  0.0418
  800MOL0     O 5476   9.020   9.068   2.025  0.9184  0.1975 -0.6402
  800MOL0     C 5477   8.948   9.138   2.128 -0.0278  0.1843  0.6362
  800MOL0     C 5478   8.801   9.115   2.082 -0.8801 -0.1216 -0.0546
  800MOL0     C 5479   8.764   9.177   1.947 -0.2451 -0.1062  0.1909
  800MOL0     C 5480   8.615   9.150   1.905 -1.2368 -0.0912 -0.6481
  800MOL0     C 5481   8.530   9.174   2.026  0.8926 -0.5930 -0.3031
  800MOL0     C 5482   8.388   9.216   1.977  0.1794  0.2643  0.3276
  800MOL0     C 5483   8.280   9.181   2.074 -0.2456 -0.2806  0.7681
  800MOL0     C 5484   8.146   9.219   2.015 -0.0514 -0.6554 -0.1554
  800MOL0     N 5485   8.023   9.187   2.092  0.9616  0.2378  0.0601
  800MOL0     C 5486   7.939   9.091   2.051 -0.7141  0.3987 -0.2640
  800MOL0     C 5487   7.832   9.101   2.136 -1.0149  0.0002  0.1244
  800MOL0     C 5488   7.714   8.999   2.151  0.8498  0.1542 -1.4384
  800MOL0     C 5489   7.581   9.073   2.196  0.4165 -0.2723 -0.8792
  800MOL0     C 5490   7.544   9.196   2.098  0.4607  1.3338  0.6725
  800MOL0     C 5491   7.414   9.263   2.128 -0.8122 -0.4890  0.3110
  800MOL0     O 5492   7.309   9.163   2.124 -0.5405 -0.4738  0.3005
  800MOL0     C 5493   7.180   9.205   2.120  0.3155  0.6870 -0.1143
  800MOL0     C 5494   7.083   9.116   2.063  0.0172 -0.7543 -0.3622
  800MOL0     C 5495   6.949   9.160   2.049 -0.0582  0.5706  0.1385
  800MOL0     C 5496   6.910   9.287   2.084  0.2604 -0.5618  0.6978
  800MOL0     C 5497   6.763   9.319   2.076  0.4502 -0.0830  0.0088
  800MOL0     O 5498   6.678   9.213   2.036  0.0032 -0.8051  0.0436
  800MOL0     C 5499   6.536   9.234   2.024  0.9922 -0.3302  0.5283
  800MOL0     C 5500   6.462   9.352   2.061 -0.7164  0.6450 -0.0204
  800MOL0     C 5501   6.323   9.355   2.036 -0.9133 -0.1379 -0.1993
  800MOL0     C 5502   6.253   9.248   1.986  0.8616 -0.6745  0.1662
  800MOL0     O 5503   6.125   9.284   1.967 -0.7328 -0.1540 -0.0861
  800MOL0     C 5504   6.044   9.222   1.872  0.0326 -0.3962 -0.8273
  800MOL0     C 5505   6.085   9.272   1.729 -0.7927 -0.3547  0.2865
  800MOL0     C 5506   5.984   9.262   1.611  0.8156 -0.1435  0.2851
  800MOL0     C 5507   6.030   9.313   1.480  0.4613  0.3463 -0.0131
  800MOL0     C 5508   6.066   9.463   1.489  0.5279 -0.4224  0.1691
  800MOL0     C 5509   6.086   9.539   1.356 -0.1885 -0.3579 -1.3779
  800MOL0     C 5510   6.221   9.503   1.282  0.0922 -0.3546  0.1213
  800MOL0     C 5511   6.268   9.608   1.187 -0.5433  0.2346 -1.0143
  800MOL0    Cl 5512   6.178   9.604   1.023 -0.1861  0.4946 -0.3286
  800MOL0     C 5513   6.327   9.131   1.949  0.2236 -0.0711 -0.2007
  800MOL0     C 5514   6.469   9.127   1.967  0.1405  0.0410 -0.4829
  800MOL0     O 5515   6.732   9.440   2.096 -0.2622  0.2165 -0.5016
  800MOL0     C 5516   7.005   9.383   2.145  0.5295  0.6145  0.2857
  800MOL0     C 5517   7.135   9.331   2.167 -0.1250  0.0657  0.2345
  800MOL0     N 5518   7.853   9.195   2.226 -0.3317 -0.1343 -0.2787
  800MOL0     N 5519   7.968   9.256   2.197 -0.7831 -0.4903 -0.2361
  800MOL0     C 5520   9.213   9.013   1.920 -0.9711 -0.1741  0.1640
  800MOL0     C 5521   9.349   9.030   1.900 -1.0472 -0.6507 -0.4532
  800MOL0     C 5522   9.795   9.177   2.014  0.5629 -0.7582  0.0195
  800MOL0     C 5523   9.882   9.280   2.047  0.1860  0.3669  0.3632
  800MOL0     C 5524  10.017   9.260   2.061 -0.2770  0.1225  0.1039
  800MOL0     C 5525  10.070   9.132   2.061 -0.6950  1.0977  0.2731
  800MOL0     O 5526  10.201   9.084   2.067 -0.8296 -0.2279  0.3446
  800MOL0     C 5527  10.307   9.158   2.132  0.5245 -0.3325  0.4109
  800MOL0     C 5528  10.394   9.215   2.023  0.0821 -0.1960  0.6357
  800MOL0     C 5529  10.497   9.307   2.096  0.1975  0.2591 -0.6120
  800MOL0     C 5530  10.452   9.456   2.074  0.4036 -1.2097 -0.8514
  800MOL0     C 5531  10.351   9.486   2.173  0.7177 -0.1491 -1.0073
  800MOL0     C 5532  10.275   9.514   2.259 -0.8239 -0.5455 -0.0989
  800MOL0     C 5533   9.980   9.026   2.037 -0.8389  0.3496 -0.8490
  800MOL0     C 5534   9.841   9.050   2.014 -0.9327  0.3119  0.2884
  800MOL0     H 5535   9.408   9.226   2.178  1.8573  0.9571 -1.3353
  800MOL0     H 5536   9.184   9.189   2.205 -1.6818 -2.4327 -0.3476
  800MOL0     H 5537   8.957   9.246   2.117  0.4737  0.0194 -0.7314
  800MOL0     H 5538   8.972   9.106   2.230  4.0272 -0.0700 -0.2529
  800MOL0     H 5539   8.740   9.158   2.163 -0.0403  2.2833 -0.6176
  800MOL0     H 5540   8.785   9.007   2.087 -1.7949  0.0531  1.5530
  800MOL0     H 5541   8.833   9.140   1.870 -0.1471  0.2653  0.0968
  800MOL0     H 5542   8.784   9.284   1.950 -0.4674 -0.0676  0.3078
  800MOL0     H 5543   8.594   9.216   1.820  2.3139 -0.4434 -1.9554
  800MOL0     H 5544   8.597   9.044   1.884  0.9440 -0.2896 -1.7500
  800MOL0     H 5545   8.574   9.245   2.096  2.2466 -1.5113 -0.1625
  800MOL0     H 5546   8.524   9.083   2.087 -1.8730  0.0542  0.4889
  800MOL0     H 5547   8.374   9.165   1.881  1.6595  0.8865 -0.2480
  800MOL0     H 5548   8.383   9.321   1.947 -1.6812 -0.1366 -0.9676
  800MOL0     H 5549   8.286   9.075   2.098 -0.9836 -0.1316  1.6594
  800MOL0     H 5550   8.303   9.243   2.161  2.2447 -1.7127  1.2179
  800MOL0     H 5551   8.142   9.172   1.916  0.7218 -0.8675 -0.0911
  800MOL0     H 5552   8.155   9.326   1.994 -2.9434 -0.3035 -0.0053
  800MOL0     H 5553   7.950   9.013   1.977 -0.7326  1.9180 -1.9114
  800MOL0     H 5554   7.733   8.913   2.216  0.5907 -1.4452 -3.3750
  800MOL0     H 5555   7.701   8.955   2.052 -1.2213  3.6236 -2.9012
  800MOL0     H 5556   7.584   9.104   2.301 -0.8521  0.7636 -1.1250
  800MOL0     H 5557   7.494   9.007   2.195  0.7329 -0.7920  1.1166
  800MOL0     H 5558   7.624   9.271   2.097  2.4969 -0.6755 -1.0125
  800MOL0     H 5559   7.528   9.156   1.997  1.8755 -0.5971  1.1463
  800MOL0     H 5560   7.386   9.346   2.061 -2.6130  0.2122  1.8479
  800MOL0     H 5561   7.409   9.306   2.228 -4.6889 -1.1512  0.5641
  800MOL0     H 5562   7.111   9.020   2.020  3.4998 -0.1458  0.2597
  800MOL0     H 5563   6.885   9.089   1.997 -0.0076 -0.8647  1.9647
  800MOL0     H 5564   6.487   9.445   2.111 -0.7693  0.7926 -0.2669
  800MOL0     H 5565   6.268   9.444   2.063 -1.3865 -0.3743 -0.3851
  800MOL0     H 5566   5.943   9.259   1.890  0.0049 -1.4552  1.5773
  800MOL0     H 5567   6.053   9.113   1.870  0.0878 -0.4096 -0.1651
  800MOL0     H 5568   6.182   9.227   1.706  0.2142  1.3670  0.9247
  800MOL0     H 5569   6.104   9.379   1.745  0.3156 -0.1091 -2.2059
  800MOL0     H 5570   5.888   9.304   1.642 -0.3464  0.2448 -3.3284
  800MOL0     H 5571   5.958   9.156   1.601 -0.6352  0.3470 -1.7511
  800MOL0     H 5572   6.125   9.264   1.456  2.2425  3.3906  0.3267
  800MOL0     H 5573   5.945   9.296   1.412 -1.1778  1.9613  1.4999
  800MOL0     H 5574   6.153   9.481   1.552 -1.1156 -0.1158  2.4691
  800MOL0     H 5575   5.972   9.505   1.527 -0.5539 -0.5350 -2.1914
  800MOL0     H 5576   6.080   9.644   1.389  0.1766 -0.5905 -0.5403
  800MOL0     H 5577   5.999   9.524   1.291 -0.8572  0.6588 -0.7594
  800MOL0     H 5578   6.299   9.492   1.358  0.5661 -0.7842 -0.4075
  800MOL0     H 5579   6.208   9.410   1.225 -2.3739  1.1468 -1.9560
  800MOL0     H 5580   6.372   9.582   1.166  0.3367  2.3506  0.3429
  800MOL0     H 5581   6.276   9.707   1.233 -0.2846 -0.7179  1.1452
  800MOL0     H 5582   6.279   9.035   1.928 -0.9339 -0.8311  4.7499
  800MOL0     H 5583   6.517   9.031   1.951 -1.0009 -0.5829 -0.2882
  800MOL0     H 5584   6.968   9.482   2.170 -3.0463 -0.7842  1.2590
  800MOL0     H 5585   7.210   9.395   2.212  1.5410 -2.7276  1.6843
  800MOL0     H 5586   9.151   8.959   1.849  0.1634 -0.1328 -0.9057
  800MOL0     H 5587   9.398   8.987   1.814  1.6848 -1.2404  1.2782
  800MOL0     H 5588   9.848   9.380   2.072 -0.4871 -0.0893  1.3353
  800MOL0     H 5589  10.084   9.341   2.087 -1.5512  1.2693 -0.0653
  800MOL0     H 5590  10.360   9.082   2.190  0.4005  0.6222  1.8161
  800MOL0     H 5591  10.269   9.239   2.195  1.9392 -0.2325  1.1719
  800MOL0     H 5592  10.448   9.129   1.981  1.3828  0.1698  1.4615
  800MOL0     H 5593  10.332   9.266   1.950  1.0027  0.2953  0.1783
  800MOL0     H 5594  10.599   9.294   2.058  0.4992  2.7242 -0.7687
  800MOL0     H 5595  10.492   9.273   2.200 -1.1346 -0.4066 -0.8737
  800MOL0     H 5596  10.528   9.527   2.108 -1.8722 -0.6617  3.9479
  800MOL0     H 5597  10.418   9.477   1.972  0.1056 -2.4334 -1.0298
  800MOL0     H 5598  10.200   9.530   2.334  0.0525 -2.8560  1.4068
  800MOL0     H 5599  10.021   8.926   2.040 -0.3903  0.4867  2.6105
  800MOL0     H 5600   9.777   8.966   1.989  1.3068 -1.5636  0.5456
  801MOL0     O 5601   0.592   8.350   8.033  0.8215  0.2677  0.8550
  801MOL0     C 5602   0.665   8.321   7.937  0.1096 -0.2698 -0.1457
  801MOL0     O 5603   0.650   8.207   7.866  0.2030 -0.3928 -0.3025
  801MOL0     C 5604   0.533   8.136   7.853 -0.3139 -0.1957 -0.9262
  801MOL0     C 5605   0.430   8.117   7.948  0.0385  0.3184  1.1182
  801MOL0     C 5606   0.312   8.047   7.917  0.3017 -0.1133 -0.7948
  801MOL0     C 5607   0.302   7.977   7.796  0.5809 -0.1443  0.1661
  801MOL0     O 5608   0.195   7.889   7.766 -0.3669  0.1530 -0.3288
  801MOL0     C 5609   0.071   7.947   7.791  0.3121 -0.7664 -0.7281
  801MOL0     C 5610  -0.000   7.968   7.659 -0.7999 -0.2583 -0.4779
  801MOL0     C 5611  -0.160   7.998   7.658  0.2551  0.5329  0.3476
  801MOL0     C 5612  -0.248   7.868   7.700 -0.2482 -1.0515  1.0502
  801MOL0     C 5613  -0.388   7.916   7.734  0.2020 -0.5588  0.3675
  801MOL0     C 5614  -0.462   7.983   7.618 -0.1534  0.5971 -0.0129
  801MOL0     C 5615  -0.608   8.014   7.653 -0.2210 -0.8494 -0.5671
  801MOL0     C 5616  -0.708   7.919   7.591  0.1664  0.0227 -0.9476
  801MOL0     N 5617  -0.695   7.778   7.634  0.1602 -0.0525  0.0655
  801MOL0     C 5618  -0.628   7.672   7.571 -0.0321 -0.1418  0.1335
  801MOL0     C 5619  -0.669   7.566   7.647  0.3634 -0.0783 -0.0599
  801MOL0     C 5620  -0.631   7.418   7.643  0.9274 -0.6046  0.5304
  801MOL0     C 5621  -0.740   7.333   7.576 -0.1193  0.2091  0.3483
  801MOL0     C 5622  -0.705   7.180   7.582  0.2903 -0.2468 -0.1406
  801MOL0     C 5623  -0.580   7.136   7.502  0.2633  0.4060 -0.0119
  801MOL0     O 5624  -0.574   7.170   7.366 -0.4562  1.1211 -0.5087
  801MOL0     C 5625  -0.473   7.097   7.287  0.3106 -0.2574 -0.5304
  801MOL0     C 5626  -0.350   7.038   7.339 -0.0990 -0.2652  0.3156
  801MOL0     C 5627  -0.268   6.974   7.247  0.0820 -0.4801 -0.9722
  801MOL0     C 5628  -0.294   6.971   7.109 -0.1881 -0.3312  0.1384
  801MOL0     C 5629  -0.200   6.904   7.013 -0.1378  0.7283  0.0452
  801MOL0     O 5630  -0.209   6.928   6.884 -0.1691 -0.3372 -0.3156
  801MOL0     C 5631  -0.117   6.877   6.792 -0.2774  0.1933 -0.4854
  801MOL0     C 5632   0.013   6.921   6.789  0.0098  0.3269  0.3932
  801MOL0     C 5633   0.095   6.866   6.688 -0.6251 -0.3404  0.6125
  801MOL0     C 5634   0.051   6.767   6.600  0.5546 -0.8726 -0.1500
  801MOL0     O 5635   0.135   6.707   6.518 -0.6128 -0.0978  0.8057
  801MOL0     C 5636   0.258   6.765   6.463  0.6183 -0.2843  0.1717
  801MOL0     C 5637   0.336   6.647   6.395  0.8600  0.5352  0.4127
  801MOL0     C 5638   0.452   6.687   6.300 -0.1769  0.8356 -0.3150
  801MOL0     C 5639   0.515   6.582   6.221  0.0170 -0.2987 -0.3402
  801MOL0     C 5640   0.639   6.628   6.155  0.5357 -0.4632 -0.1069
  801MOL0     C 5641   0.771   6.636   6.240  0.3587  0.3338 -0.5556
  801MOL0     C 5642   0.890   6.639   6.136 -0.2521  0.9496 -0.4829
  801MOL0     C 5643   0.891   6.764   6.038 -0.0208 -0.1743 -0.3805
  801MOL0    Cl 5644   1.057   6.804   5.981  0.4476 -0.1014 -0.4599
  801MOL0     C 5645  -0.083   6.727   6.604 -0.5208  0.2214 -0.5040
  801MOL0     C 5646  -0.162   6.787   6.701  0.2053  0.1477  1.3411
  801MOL0     O 5647  -0.106   6.846   7.058 -0.4751  0.1903  0.0796
  801MOL0     C 5648  -0.402   7.038   7.066  0.5216 -0.8708  0.0344
  801MOL0     C 5649  -0.488   7.106   7.150  0.2811  0.0153 -0.1345
  801MOL0     N 5650  -0.753   7.608   7.748  0.2103  0.0523  0.1315
  801MOL0     N 5651  -0.759   7.738   7.751  0.8283 -0.6629  0.0806
  801MOL0     C 5652   0.409   7.992   7.698  0.5926  0.3166 -0.4734
  801MOL0     C 5653   0.515   8.076   7.727 -1.0197 -0.4986  0.0838
  801MOL0     C 5654   0.774   8.413   7.916  0.7750  0.6200 -0.3439
  801MOL0     C 5655   0.795   8.524   7.996 -0.2240 -0.2414 -0.3655
  801MOL0     C 5656   0.917   8.591   7.987  0.4550  0.0631  1.2990
  801MOL0     C 5657   1.024   8.547   7.904 -0.2512 -0.2156  0.1099
  801MOL0     O 5658   1.143   8.615   7.879  0.4623  0.0786 -0.1535
  801MOL0     C 5659   1.168   8.720   7.977 -1.0180 -0.3729 -0.7578
  801MOL0     C 5660   1.090   8.848   7.936 -0.4371 -0.3260  0.2557
  801MOL0     C 5661   1.178   8.921   7.834 -0.1080 -0.7068  0.9079
  801MOL0     C 5662   1.114   9.043   7.765 -0.5366  0.1526 -0.3455
  801MOL0     C 5663   1.215   9.105   7.672  0.1668 -0.1406  0.0246
  801MOL0     C 5664   1.301   9.154   7.597  1.3518 -0.1397  0.6899
  801MOL0     C 5665   0.996   8.435   7.827 -0.1280 -0.5334 -0.1170
  801MOL0     C 5666   0.874   8.365   7.828  0.5993  0.5262 -0.3125
  801MOL0     H 5667   0.438   8.169   8.043 -1.2009  2.4938  0.0997
  801MOL0     H 5668   0.238   8.051   7.997  0.5230  2.0940 -0.6348
  801MOL0     H 5669   0.080   8.047   7.834  1.7349 -2.0967  2.3670
  801MOL0     H 5670   0.013   7.890   7.864  1.2953  2.0000  2.5188
  801MOL0     H 5671   0.013   7.868   7.618  2.1555 -1.2512  2.4523
  801MOL0     H 5672   0.049   8.041   7.594  1.2112 -0.5651  0.6344
  801MOL0     H 5673  -0.183   8.035   7.558  1.2829  4.7441  1.4815
  801MOL0     H 5674  -0.186   8.080   7.725 -0.6840 -0.3961  1.1541
  801MOL0     H 5675  -0.245   7.797   7.617  2.3285  1.5388 -1.2987
  801MOL0     H 5676  -0.187   7.806   7.765  2.4581  0.4006  0.0537
  801MOL0     H 5677  -0.384   7.988   7.817  0.0579  0.4541 -0.4845
  801MOL0     H 5678  -0.439   7.831   7.780 -1.3985  0.6506  0.9648
  801MOL0     H 5679  -0.470   7.922   7.528  0.0913  1.9980 -1.0229
  801MOL0     H 5680  -0.405   8.075   7.600 -0.0075  0.4394 -0.3520
  801MOL0     H 5681  -0.627   8.000   7.760  0.0488  1.1308 -0.2235
  801MOL0     H 5682  -0.627   8.118   7.622  1.3974 -0.4359 -0.2615
  801MOL0     H 5683  -0.716   7.922   7.482 -1.9219  0.0852 -0.8251
  801MOL0     H 5684  -0.811   7.941   7.617 -0.5371 -1.1141 -2.5384
  801MOL0     H 5685  -0.562   7.672   7.485 -0.0207 -0.8824  0.1390
  801MOL0     H 5686  -0.623   7.385   7.747  0.8708 -2.4121 -0.0166
  801MOL0     H 5687  -0.539   7.409   7.586  0.5829  1.6571 -0.4826
  801MOL0     H 5688  -0.755   7.368   7.473  2.9585 -0.6939 -0.5047
  801MOL0     H 5689  -0.833   7.348   7.632  0.6446 -1.1862  2.0883
  801MOL0     H 5690  -0.699   7.144   7.685 -3.4530 -0.1925  0.2511
  801MOL0     H 5691  -0.792   7.122   7.549 -0.0940 -0.0536  0.5121
  801MOL0     H 5692  -0.587   7.027   7.509  0.0315  0.2429 -2.1896
  801MOL0     H 5693  -0.485   7.160   7.553  1.5153 -0.4699 -1.8357
  801MOL0     H 5694  -0.329   7.039   7.446 -0.1869  0.2020  0.3314
  801MOL0     H 5695  -0.179   6.925   7.287  0.3192  1.9308  1.7309
  801MOL0     H 5696   0.060   7.005   6.837  1.6698 -0.2231 -0.1960
  801MOL0     H 5697   0.194   6.909   6.671 -0.4574 -1.3819 -1.3176
  801MOL0     H 5698   0.320   6.818   6.536  0.5875  1.5511 -1.0517
  801MOL0     H 5699   0.232   6.842   6.390 -1.2939  1.7071  2.7289
  801MOL0     H 5700   0.265   6.591   6.333  1.1344  2.6060 -1.9761
  801MOL0     H 5701   0.377   6.585   6.474 -1.5222  0.3562  1.6004
  801MOL0     H 5702   0.535   6.708   6.368 -1.2647  1.8561  0.7370
  801MOL0     H 5703   0.425   6.772   6.237 -2.2581 -2.2329 -3.9449
  801MOL0     H 5704   0.547   6.503   6.289  0.5371  1.9629  2.2236
  801MOL0     H 5705   0.452   6.549   6.137 -0.1923  2.0805 -1.1998
  801MOL0     H 5706   0.619   6.724   6.106  1.8071 -0.2306 -0.2036
  801MOL0     H 5707   0.662   6.559   6.073  2.8477 -1.9878  1.7117
  801MOL0     H 5708   0.775   6.551   6.308  1.1495 -0.6602 -1.7831
  801MOL0     H 5709   0.765   6.726   6.302  0.1885 -1.1186  1.6096
  801MOL0     H 5710   0.981   6.643   6.197 -1.8199  0.2716  2.0583
  801MOL0     H 5711   0.888   6.552   6.070  1.6460  0.7457 -0.3383
  801MOL0     H 5712   0.853   6.845   6.101 -0.5697 -2.0741  1.8718
  801MOL0     H 5713   0.822   6.739   5.956 -0.0137 -3.4390  0.4611
  801MOL0     H 5714  -0.117   6.644   6.543 -0.1634 -0.6835  0.4977
  801MOL0     H 5715  -0.259   6.739   6.709  0.7575 -1.4695 -0.6631
  801MOL0     H 5716  -0.419   7.059   6.960 -3.2840 -0.0480  0.6588
  801MOL0     H 5717  -0.576   7.163   7.122 -2.1391 -1.2786  4.0370
  801MOL0     H 5718   0.408   7.936   7.604  2.5223  2.6103 -1.9751
  801MOL0     H 5719   0.599   8.095   7.660 -0.7662  0.2793  0.6082
  801MOL0     H 5720   0.723   8.557   8.071  0.0413 -3.3780  1.4550
  801MOL0     H 5721   0.931   8.685   8.039 -1.8679  2.4001 -1.9249
  801MOL0     H 5722   1.276   8.740   7.977 -1.2457  0.9618 -0.6659
  801MOL0     H 5723   1.146   8.686   8.079  1.3352 -1.8177 -0.6536
  801MOL0     H 5724   0.989   8.836   7.895 -1.7427  1.6132  2.5812
  801MOL0     H 5725   1.070   8.910   8.024  0.4859  1.9321 -1.0489
  801MOL0     H 5726   1.216   8.851   7.759  2.7505 -1.9552  3.3016
  801MOL0     H 5727   1.274   8.943   7.879 -0.0520 -1.3095  1.0941
  801MOL0     H 5728   1.027   9.021   7.703  0.9066 -2.3674 -1.6277
  801MOL0     H 5729   1.100   9.118   7.843  1.8922 -0.6504  0.9727
  801MOL0     H 5730   1.378   9.200   7.538  0.8451 -0.2341 -0.0685
  801MOL0     H 5731   1.070   8.413   7.750  0.6207 -1.2487  0.7852
  801MOL0     H 5732   0.844   8.279   7.769 -3.6886  2.0890 -0.7761
  802MOL0     O 5733   1.663   7.216   1.479 -0.0029  0.4376  0.5867
  802MOL0     C 5734   1.739   7.177   1.566 -0.6399 -0.4373  0.2458
  802MOL0     O 5735   1.740   7.050   1.625 -0.2345 -0.4765  0.7054
  802MOL0     C 5736   1.643   6.973   1.573  0.6342  0.6197 -0.5536
  802MOL0     C 5737   1.506   7.020   1.595  0.3950  0.4192 -0.1556
  802MOL0     C 5738   1.396   6.965   1.532 -0.2108  0.0507 -0.2404
  802MOL0     C 5739   1.411   6.852   1.451 -0.2713 -0.7983  0.0868
  802MOL0     O 5740   1.314   6.794   1.373 -0.2511  0.1291  0.3719
  802MOL0     C 5741   1.171   6.803   1.392  0.7901 -0.5085 -0.6165
  802MOL0     C 5742   1.111   6.666   1.382  0.3775  0.2513  0.3707
  802MOL0     C 5743   0.958   6.669   1.425  1.1297 -0.8694 -0.2442
  802MOL0     C 5744   0.903   6.529   1.452 -0.1592 -0.2931 -0.4292
  802MOL0     C 5745   0.756   6.539   1.493  0.2668 -0.2943  0.2258
  802MOL0     C 5746   0.681   6.409   1.487 -0.3671 -0.0207 -0.3481
  802MOL0     C 5747   0.713   6.313   1.605  0.4629 -0.5178 -0.2686
  802MOL0     C 5748   0.626   6.186   1.603 -0.5543  0.4081  0.5171
  802MOL0     N 5749   0.488   6.215   1.617  0.0188 -0.8536 -0.8579
  802MOL0     C 5750   0.389   6.165   1.548  0.0925 -0.4853  0.4500
  802MOL0     C 5751   0.274   6.193   1.614 -0.3088 -0.5910 -0.5020
  802MOL0     C 5752   0.138   6.180   1.568  0.0827 -0.3510 -0.2090
  802MOL0     C 5753   0.083   6.323   1.530 -0.0463  0.3412 -0.0202
  802MOL0     C 5754  -0.035   6.314   1.443  0.7438  0.2100  0.8765
  802MOL0     C 5755  -0.157   6.273   1.523 -0.1889 -0.4554  1.1742
  802MOL0     O 5756  -0.276   6.294   1.436 -0.5213 -0.5608 -0.4910
  802MOL0     C 5757  -0.348   6.408   1.455  1.1929  0.8752  1.0657
  802MOL0     C 5758  -0.475   6.404   1.382 -0.5004 -0.1729 -0.3735
  802MOL0     C 5759  -0.562   6.518   1.397 -0.0716 -0.0074 -0.3186
  802MOL0     C 5760  -0.521   6.632   1.459 -0.0332 -0.3806 -0.6488
  802MOL0     C 5761  -0.599   6.756   1.454 -0.5698 -0.7573  0.0342
  802MOL0     O 5762  -0.715   6.741   1.400  0.1787 -0.0915 -0.1682
  802MOL0     C 5763  -0.820   6.826   1.413  0.0425 -0.3458 -0.1743
  802MOL0     C 5764  -0.820   6.955   1.451 -0.2366  0.2541  0.2477
  802MOL0     C 5765  -0.938   7.031   1.448  1.1222 -0.3522 -0.2337
  802MOL0     C 5766  -1.061   6.975   1.406 -0.4204  0.0031  1.2457
  802MOL0     O 5767  -1.181   7.028   1.433 -0.2027 -0.3444 -0.3322
  802MOL0     C 5768  -1.215   7.137   1.346  0.1089 -0.6433 -0.4374
  802MOL0     C 5769  -1.286   7.077   1.219  0.2270  0.5765  0.2416
  802MOL0     C 5770  -1.429   7.049   1.254  1.2085 -0.0262 -0.5103
  802MOL0     C 5771  -1.523   7.006   1.144 -0.4054  0.2411 -0.3214
  802MOL0     C 5772  -1.670   6.984   1.187  0.0604  0.0590  0.4972
  802MOL0     C 5773  -1.757   6.919   1.074 -0.1459 -0.4762  0.1960
  802MOL0     C 5774  -1.910   6.945   1.099  0.4746  0.5081 -0.8028
  802MOL0     C 5775  -2.005   6.870   1.007  0.2603  0.1427  0.4495
  802MOL0    Cl 5776  -2.176   6.895   1.065  0.1866 -0.2966  0.1430
  802MOL0     C 5777  -1.062   6.842   1.361 -1.1436 -0.5479 -0.7742
  802MOL0     C 5778  -0.944   6.769   1.364 -0.4712 -0.3952  1.2093
  802MOL0     O 5779  -0.556   6.859   1.504 -0.0784  0.6376  0.3557
  802MOL0     C 5780  -0.399   6.634   1.527 -0.3384 -0.7723  0.2790
  802MOL0     C 5781  -0.317   6.522   1.532  0.3851 -0.6926  0.2570
  802MOL0     N 5782   0.305   6.260   1.735 -0.3189 -0.3732  0.3334
  802MOL0     N 5783   0.431   6.269   1.732 -0.2021  0.1058 -0.2633
  802MOL0     C 5784   1.542   6.813   1.414  0.0668 -0.2006 -0.4868
  802MOL0     C 5785   1.662   6.873   1.476  1.1092  0.5715  0.2834
  802MOL0     C 5786   1.851   7.257   1.615 -0.5825 -0.0642 -0.3429
  802MOL0     C 5787   1.949   7.207   1.706  0.4260  0.4676 -0.0216
  802MOL0     C 5788   2.066   7.270   1.731 -0.3307 -0.0055 -0.1984
  802MOL0     C 5789   2.093   7.390   1.653  0.9941 -0.1425 -0.3947
  802MOL0     O 5790   2.213   7.454   1.667 -0.2748 -0.2721  0.8715
  802MOL0     C 5791   2.304   7.411   1.564 -0.4057  0.1528  0.4004
  802MOL0     C 5792   2.290   7.484   1.431 -0.5956  0.7571 -0.0119
  802MOL0     C 5793   2.298   7.637   1.452 -0.0918 -1.0720 -0.1746
  802MOL0     C 5794   2.293   7.723   1.328  0.3167 -0.2121  1.0299
  802MOL0     C 5795   2.201   7.675   1.221  0.1366 -0.0326  0.0674
  802MOL0     C 5796   2.143   7.628   1.118 -0.1720  0.1815 -0.3707
  802MOL0     C 5797   1.994   7.448   1.570 -0.2161 -0.6052  0.4814
  802MOL0     C 5798   1.880   7.376   1.549  0.2311 -0.9779  0.0839
  802MOL0     H 5799   1.485   7.108   1.655 -1.0126 -0.1301  0.1964
  802MOL0     H 5800   1.297   7.006   1.545 -0.6647 -1.2724  0.5939
  802MOL0     H 5801   1.126   6.879   1.327  1.9231  0.5153 -0.2466
  802MOL0     H 5802   1.158   6.820   1.499  1.6708  1.7470 -0.7970
  802MOL0     H 5803   1.163   6.587   1.437 -0.6969 -1.9709 -1.6324
  802MOL0     H 5804   1.126   6.633   1.278 -0.9947  0.9911 -0.0785
  802MOL0     H 5805   0.890   6.712   1.351 -1.2820 -0.5636  1.9611
  802MOL0     H 5806   0.947   6.726   1.518 -0.6409 -2.2894  0.4828
  802MOL0     H 5807   0.902   6.473   1.358  3.3809  2.6988 -2.5349
  802MOL0     H 5808   0.970   6.474   1.519  0.3628 -0.5758 -1.1714
  802MOL0     H 5809   0.711   6.604   1.418 -0.0247 -1.4427 -0.6200
  802MOL0     H 5810   0.751   6.574   1.597 -0.9824 -1.4404  0.5973
  802MOL0     H 5811   0.690   6.363   1.388 -0.0426  1.3603 -0.9858
  802MOL0     H 5812   0.576   6.437   1.492  0.1594  1.8939  3.5261
  802MOL0     H 5813   0.821   6.296   1.609  1.4197  3.5635 -2.8695
  802MOL0     H 5814   0.695   6.361   1.702 -1.4884 -1.6574 -0.0226
  802MOL0     H 5815   0.662   6.119   1.681  1.3313 -1.7375 -2.0039
  802MOL0     H 5816   0.643   6.132   1.509 -0.4050  2.8038 -0.9117
  802MOL0     H 5817   0.407   6.111   1.456  2.2514 -0.1260  0.5952
  802MOL0     H 5818   0.079   6.143   1.653  2.5549 -0.5439  1.5345
  802MOL0     H 5819   0.134   6.117   1.479  0.1264 -0.8738  0.1500
  802MOL0     H 5820   0.158   6.379   1.474 -0.9171  1.4108 -0.1201
  802MOL0     H 5821   0.055   6.366   1.627 -0.3219 -1.0579  0.5552
  802MOL0     H 5822  -0.056   6.414   1.404 -1.7665 -0.6840 -0.2778
  802MOL0     H 5823  -0.015   6.245   1.360 -0.8085  0.8980 -0.1240
  802MOL0     H 5824  -0.160   6.335   1.613  2.4222  0.2563  0.8496
  802MOL0     H 5825  -0.145   6.168   1.552  1.4592 -0.9303 -1.0225
  802MOL0     H 5826  -0.502   6.317   1.323  0.1447 -1.5972  1.3379
  802MOL0     H 5827  -0.646   6.516   1.329  0.0896 -0.5693 -0.5126
  802MOL0     H 5828  -0.727   7.001   1.484  1.3836 -2.3623 -0.4649
  802MOL0     H 5829  -0.927   7.131   1.488  1.4229 -0.1881 -0.7226
  802MOL0     H 5830  -1.130   7.200   1.316 -0.9300  2.4133  2.4421
  802MOL0     H 5831  -1.285   7.211   1.387 -0.1767  0.1864 -2.3133
  802MOL0     H 5832  -1.229   6.989   1.185  2.8320  1.8495  1.0284
  802MOL0     H 5833  -1.282   7.149   1.137  2.0376  1.8262  1.3594
  802MOL0     H 5834  -1.471   7.136   1.306 -1.2888 -0.8697 -0.9961
  802MOL0     H 5835  -1.427   6.969   1.328 -1.7707 -0.7799 -1.1257
  802MOL0     H 5836  -1.517   7.075   1.059  0.2229 -2.7081 -2.8378
  802MOL0     H 5837  -1.497   6.903   1.118 -1.9405 -0.2465 -0.0651
  802MOL0     H 5838  -1.716   7.081   1.207  0.7438  0.7042 -0.8950
  802MOL0     H 5839  -1.684   6.923   1.276 -0.8125 -0.6855 -0.1276
  802MOL0     H 5840  -1.731   6.813   1.082 -4.4271 -1.7604 -0.3766
  802MOL0     H 5841  -1.739   6.959   0.973  0.4501 -1.3844 -0.0617
  802MOL0     H 5842  -1.924   6.915   1.203 -0.3575 -0.1742 -1.1025
  802MOL0     H 5843  -1.924   7.054   1.095  0.4020  0.5195 -0.3678
  802MOL0     H 5844  -1.980   6.764   1.014  1.7468  0.4352 -0.0257
  802MOL0     H 5845  -1.992   6.896   0.902 -1.3915 -0.9160 -0.0582
  802MOL0     H 5846  -1.151   6.793   1.326 -2.1398  0.1144  0.7318
  802MOL0     H 5847  -0.930   6.664   1.339  2.7785  0.8009 -3.2670
  802MOL0     H 5848  -0.370   6.721   1.584  0.4581  0.9302 -2.4975
  802MOL0     H 5849  -0.231   6.531   1.598  0.0159 -0.1460  0.6808
  802MOL0     H 5850   1.548   6.725   1.351  1.0963  0.8683 -1.9549
  802MOL0     H 5851   1.760   6.832   1.457  0.1289 -2.4973  1.3601
  802MOL0     H 5852   1.936   7.122   1.772  0.3212  0.5285  0.0360
  802MOL0     H 5853   2.133   7.225   1.803 -1.1698  0.3460  0.8139
  802MOL0     H 5854   2.292   7.306   1.537  0.9020 -0.0762  0.6280
  802MOL0     H 5855   2.403   7.427   1.608 -2.0107  0.8980  4.1315
  802MOL0     H 5856   2.369   7.451   1.362 -1.7489 -0.9428 -0.5850
  802MOL0     H 5857   2.196   7.461   1.379  1.1769 -0.2074 -3.0856
  802MOL0     H 5858   2.381   7.660   1.519 -1.5544 -1.2846  1.7890
  802MOL0     H 5859   2.210   7.663   1.511  1.6066 -0.4556  2.2314
  802MOL0     H 5860   2.262   7.827   1.341  0.7199  0.0580 -0.0105
  802MOL0     H 5861   2.389   7.725   1.275  0.2977 -0.1958  0.9964
  802MOL0     H 5862   2.106   7.593   1.024  0.3406 -2.3808  0.3228
  802MOL0     H 5863   2.020   7.536   1.513  2.0451 -1.8198 -0.5063
  802MOL0     H 5864   1.808   7.409   1.474 -0.3974 -1.9685  0.2283
  803MOL0     O 5865   8.833   0.177   9.965 -0.4947  0.5109  0.6797
  803MOL0     C 5866   8.869   0.288   9.927 -0.0275  0.7939  0.2877
  803MOL0     O 5867   8.780   0.393   9.883  0.0179  0.0049  0.1738
  803MOL0     C 5868   8.653   0.368   9.846 -0.1334  0.8729  0.2842
  803MOL0     C 5869   8.574   0.477   9.860  0.2795 -0.8972 -0.9714
  803MOL0     C 5870   8.438   0.459   9.831  0.8768 -0.5663 -0.2438
  803MOL0     C 5871   8.383   0.340   9.783  0.1268 -0.2378 -0.3372
  803MOL0     O 5872   8.255   0.308   9.761  0.3902 -0.3389  0.0456
  803MOL0     C 5873   8.155   0.405   9.794 -0.0180 -0.4263  0.2586
  803MOL0     C 5874   8.018   0.349   9.779  0.4348  0.0107 -0.0373
  803MOL0     C 5875   7.994   0.331   9.631  0.7698 -0.2722  0.6281
  803MOL0     C 5876   7.857   0.257   9.620 -0.3181 -0.4538  0.0564
  803MOL0     C 5877   7.806   0.246   9.476  0.2346  0.0316  0.1117
  803MOL0     C 5878   7.697   0.355   9.444  0.0398 -0.3728 -0.0117
  803MOL0     C 5879   7.563   0.334   9.505  0.9239 -0.1474 -0.6784
  803MOL0     C 5880   7.484   0.463   9.528 -0.2360  0.1026  0.0917
  803MOL0     N 5881   7.449   0.512   9.395 -0.7087 -0.5850  0.0221
  803MOL0     C 5882   7.339   0.472   9.326  0.5762  0.8388  0.7816
  803MOL0     C 5883   7.321   0.572   9.234 -0.0676 -0.1434  0.1901
  803MOL0     C 5884   7.204   0.582   9.140  0.7391 -0.3814 -0.3495
  803MOL0     C 5885   7.254   0.526   9.011  0.0944  0.6406  0.7615
  803MOL0     C 5886   7.147   0.443   8.934  0.2676 -0.3516  0.2341
  803MOL0     C 5887   7.206   0.388   8.799  0.6300 -0.3116 -0.1718
  803MOL0     O 5888   7.249   0.497   8.712  0.5932  0.7240 -0.1048
  803MOL0     C 5889   7.178   0.506   8.594 -0.4397 -0.4880 -0.3839
  803MOL0     C 5890   7.035   0.514   8.591  0.0017 -0.6659  0.4702
  803MOL0     C 5891   6.966   0.514   8.467 -0.4725  0.1441 -0.4079
  803MOL0     C 5892   7.035   0.523   8.350 -0.5422  0.0493  0.6513
  803MOL0     C 5893   6.959   0.556   8.227  0.5515 -0.0459  0.7579
  803MOL0     O 5894   6.826   0.613   8.240  0.3122  0.4795  0.4881
  803MOL0     C 5895   6.745   0.618   8.134  0.4842 -0.5676  0.1797
  803MOL0     C 5896   6.678   0.507   8.082 -0.6872  0.5480 -0.1885
  803MOL0     C 5897   6.593   0.509   7.969 -1.2182 -0.5381 -0.2869
  803MOL0     C 5898   6.582   0.638   7.903 -0.8872 -0.7859  0.2845
  803MOL0     O 5899   6.495   0.655   7.797 -0.1415 -0.2788  0.0137
  803MOL0     C 5900   6.360   0.627   7.819  0.7744  0.5734  0.1750
  803MOL0     C 5901   6.269   0.717   7.732  0.4354  0.8228 -0.5644
  803MOL0     C 5902   6.135   0.648   7.723  0.5578  0.1547  0.6150
  803MOL0     C 5903   6.022   0.737   7.677 -1.1752  0.9233 -0.1502
  803MOL0     C 5904   5.887   0.664   7.683 -0.5260 -0.0168 -0.2901
  803MOL0     C 5905   5.794   0.723   7.587 -0.4660  0.4977  0.6607
  803MOL0     C 5906   5.752   0.865   7.611 -0.3500  0.6199  0.9623
  803MOL0     C 5907   5.671   0.873   7.739 -0.6862  0.5494  0.1373
  803MOL0    Cl 5908   5.520   0.781   7.734  0.5735  0.1774 -0.0725
  803MOL0     C 5909   6.641   0.752   7.964  0.5507  0.0676 -0.1779
  803MOL0     C 5910   6.716   0.740   8.079  0.1328  0.1052  0.7146
  803MOL0     O 5911   7.018   0.528   8.131  0.5013 -0.8912 -0.0000
  803MOL0     C 5912   7.180   0.525   8.353  0.1632 -0.9134 -0.8502
  803MOL0     C 5913   7.249   0.519   8.475  1.0802  0.0094 -0.7138
  803MOL0     N 5914   7.421   0.664   9.243  0.7382 -0.2123  0.1580
  803MOL0     N 5915   7.501   0.633   9.342  0.6063  0.1814  0.2056
  803MOL0     C 5916   8.470   0.235   9.755  0.5908  0.6120 -0.5472
  803MOL0     C 5917   8.603   0.252   9.788 -0.0915  0.2725  0.0830
  803MOL0     C 5918   9.008   0.325   9.955 -0.4138  0.2043  0.2922
  803MOL0     C 5919   9.103   0.235   9.976  0.7246  0.0637 -1.2989
  803MOL0     C 5920   9.239   0.265   9.997  0.0404 -0.7392 -0.2277
  803MOL0     C 5921   9.285   0.397   9.976  0.1381  1.1789 -0.4643
  803MOL0     O 5922   9.419   0.432   9.972  0.3164  0.6485  0.2229
  803MOL0     C 5923   9.483   0.450  10.098  0.2451 -0.6618 -0.2092
  803MOL0     C 5924   9.576   0.333  10.128  0.5250  0.2536 -0.7266
  803MOL0     C 5925   9.669   0.340  10.248  0.5938  0.7803 -0.2448
  803MOL0     C 5926   9.764   0.460  10.242 -0.9006  0.6654  0.6247
  803MOL0     C 5927   9.869   0.463  10.344 -0.8598 -0.3445 -0.2416
  803MOL0     C 5928   9.953   0.443  10.435  0.2402 -0.0717 -0.2128
  803MOL0     C 5929   9.188   0.489   9.949  0.5979 -0.3641 -0.0499
  803MOL0     C 5930   9.047   0.463   9.945  0.0916  0.1948 -0.0923
  803MOL0     H 5931   8.590   0.574   9.904 -0.1145 -1.5398  0.6416
  803MOL0     H 5932   8.367   0.539   9.850 -0.9276 -2.0336 -0.4878
  803MOL0     H 5933   8.170   0.489   9.725  3.7421 -2.5504 -1.8158
  803MOL0     H 5934   8.157   0.459   9.889 -1.4251 -0.1923  0.1858
  803MOL0     H 5935   7.944   0.416   9.822 -0.2169 -1.7308  1.7287
  803MOL0     H 5936   8.010   0.255   9.835  0.2184 -0.1511 -0.3363
  803MOL0     H 5937   8.068   0.269   9.580  0.5993 -0.0660  0.1256
  803MOL0     H 5938   7.991   0.427   9.580  3.1207 -0.3494  0.2508
  803MOL0     H 5939   7.869   0.156   9.659 -2.2418 -0.2852  1.2017
  803MOL0     H 5940   7.789   0.314   9.684 -1.1372 -1.6664  0.2913
  803MOL0     H 5941   7.770   0.144   9.459 -0.7847 -0.0849  2.5026
  803MOL0     H 5942   7.886   0.255   9.402 -0.0696 -2.3033 -0.5627
  803MOL0     H 5943   7.691   0.367   9.335  0.7699  0.8624  0.0681
  803MOL0     H 5944   7.732   0.441   9.501  0.1589 -0.4718  0.0663
  803MOL0     H 5945   7.508   0.277   9.429 -1.9031  1.3515  0.1147
  803MOL0     H 5946   7.563   0.272   9.596 -1.4331 -0.7304 -0.9864
  803MOL0     H 5947   7.535   0.538   9.589 -2.7100  0.9822  1.1773
  803MOL0     H 5948   7.390   0.429   9.571 -1.3384  1.8729 -0.8157
  803MOL0     H 5949   7.265   0.400   9.362 -1.8942  2.7008 -0.3038
  803MOL0     H 5950   7.167   0.685   9.144  0.7241 -0.3266  4.6243
  803MOL0     H 5951   7.123   0.523   9.185  1.5362  0.1882  1.9753
  803MOL0     H 5952   7.338   0.457   9.022 -0.3898 -0.0342  0.2901
  803MOL0     H 5953   7.287   0.608   8.946  1.4168  0.7339  1.5149
  803MOL0     H 5954   7.107   0.363   8.998  1.4725  0.2727  1.8373
  803MOL0     H 5955   7.062   0.508   8.911  0.8127  0.1786 -0.3273
  803MOL0     H 5956   7.118   0.336   8.759 -0.6929  0.2284  1.8710
  803MOL0     H 5957   7.295   0.327   8.810  2.8457  2.1250 -2.8592
  803MOL0     H 5958   6.979   0.502   8.683 -0.2317 -1.4441  0.2255
  803MOL0     H 5959   6.859   0.509   8.478 -0.2751 -3.8510  1.2048
  803MOL0     H 5960   6.704   0.408   8.116  0.8528  0.7346 -0.7555
  803MOL0     H 5961   6.550   0.429   7.909 -0.0715  0.4872 -2.5918
  803MOL0     H 5962   6.337   0.645   7.924  4.9570  0.6293  1.2837
  803MOL0     H 5963   6.330   0.525   7.793  1.0429  0.9932 -2.0305
  803MOL0     H 5964   6.308   0.720   7.630 -1.0389 -1.9336 -1.2942
  803MOL0     H 5965   6.251   0.818   7.770  0.4783  0.2692  0.9811
  803MOL0     H 5966   6.104   0.606   7.820  0.8033 -1.7681 -0.0871
  803MOL0     H 5967   6.134   0.565   7.652 -0.9758  0.8168 -0.1834
  803MOL0     H 5968   6.009   0.824   7.741 -0.0354  0.5011  0.6937
  803MOL0     H 5969   6.054   0.767   7.577  0.3654 -2.3147 -0.7888
  803MOL0     H 5970   5.842   0.671   7.782 -1.2323  1.6438 -0.7059
  803MOL0     H 5971   5.904   0.558   7.659  0.1680 -0.3733  1.5734
  803MOL0     H 5972   5.708   0.656   7.580  0.5112 -0.6589 -1.2185
  803MOL0     H 5973   5.842   0.712   7.489 -1.7318  0.5089  0.0222
  803MOL0     H 5974   5.840   0.928   7.625  0.1611  0.7253 -2.1100
  803MOL0     H 5975   5.691   0.901   7.528  0.3104 -0.1152  0.1438
  803MOL0     H 5976   5.648   0.969   7.787  1.3636  0.1922  2.0187
  803MOL0     H 5977   5.738   0.827   7.812 -1.7983  0.3070  1.0248
  803MOL0     H 5978   6.627   0.856   7.935  3.5533  0.8358  0.8070
  803MOL0     H 5979   6.765   0.832   8.110  2.7102 -0.4982 -1.2879
  803MOL0     H 5980   7.238   0.531   8.261  1.5034 -3.5904 -0.3030
  803MOL0     H 5981   7.357   0.504   8.474  0.9479 -0.9418 -1.3512
  803MOL0     H 5982   8.440   0.136   9.722  1.2983  0.4042 -0.5786
  803MOL0     H 5983   8.672   0.172   9.763  2.9910  2.1933  1.7589
  803MOL0     H 5984   9.076   0.129   9.975 -1.1705  0.5048 -1.5360
  803MOL0     H 5985   9.305   0.180  10.014  0.7948 -0.4085 -1.4207
  803MOL0     H 5986   9.422   0.469  10.187 -0.4010  1.7054 -1.0989
  803MOL0     H 5987   9.547   0.537  10.081  2.4733 -1.4156  3.1320
  803MOL0     H 5988   9.499   0.258  10.150 -1.7887  3.3983  3.2077
  803MOL0     H 5989   9.636   0.321  10.037  0.7275  0.0528 -0.5690
  803MOL0     H 5990   9.731   0.250  10.257  0.7020  0.7567 -1.1256
  803MOL0     H 5991   9.603   0.343  10.335 -3.1269  3.4895 -2.8437
  803MOL0     H 5992   9.813   0.468  10.144 -1.0364 -0.7807  0.4263
  803MOL0     H 5993   9.706   0.551  10.259 -2.1520 -0.1738  0.9238
  803MOL0     H 5994  10.016   0.425  10.520  0.1229 -0.9576 -0.3007
  803MOL0     H 5995   9.208   0.592   9.923 -1.9270  0.0789 -0.5404
  803MOL0     H 5996   8.976   0.544   9.932  0.8614  1.5714  3.3022
  804MOL0     O 5997   7.337   6.456   2.079  0.5298 -0.2587 -0.2309
  804MOL0     C 5998   7.348   6.474   2.198  0.6145 -0.2679  0.4125
  804MOL0     O 5999   7.240   6.512   2.284 -0.0943 -0.0951 -0.1382
  804MOL0     C 6000   7.126   6.551   2.218 -0.7904  0.9290 -0.0206
  804MOL0     C 6001   7.121   6.648   2.119  0.7744 -0.7195  0.2449
  804MOL0     C 6002   6.997   6.695   2.075 -0.6307 -0.1742  0.6329
  804MOL0     C 6003   6.873   6.640   2.116 -0.4614 -0.2415  0.4277
  804MOL0     O 6004   6.747   6.677   2.070 -0.4324 -0.2036  0.3241
  804MOL0     C 6005   6.735   6.823   2.048  0.1454  0.2328 -0.4624
  804MOL0     C 6006   6.588   6.866   2.037 -0.5728  0.0871 -0.5479
  804MOL0     C 6007   6.512   6.817   2.162  0.5491 -0.7166 -0.1468
  804MOL0     C 6008   6.363   6.865   2.160 -0.4609  0.2057  0.6696
  804MOL0     C 6009   6.270   6.833   2.284 -1.1053  0.7397  0.2436
  804MOL0     C 6010   6.219   6.689   2.278  0.5464 -0.0801  0.0249
  804MOL0     C 6011   6.083   6.683   2.369 -1.1198  0.6528 -0.1129
  804MOL0     C 6012   6.014   6.541   2.372  0.6839  0.4048 -0.1334
  804MOL0     N 6013   5.870   6.582   2.400 -0.5492  0.4094 -0.0622
  804MOL0     C 6014   5.777   6.624   2.318 -0.2145  0.2731  0.4254
  804MOL0     C 6015   5.660   6.628   2.388  0.1959 -0.3891  0.4631
  804MOL0     C 6016   5.521   6.660   2.346 -0.1520 -0.3736  0.0261
  804MOL0     C 6017   5.432   6.531   2.321 -0.6623  0.3287  0.5287
  804MOL0     C 6018   5.410   6.453   2.455  0.1731 -0.0419  0.0794
  804MOL0     C 6019   5.311   6.336   2.430 -0.4016  0.6517 -0.2461
  804MOL0     O 6020   5.182   6.384   2.430 -0.7462  0.0467  0.0660
  804MOL0     C 6021   5.079   6.293   2.433 -0.2559 -0.1181 -0.3134
  804MOL0     C 6022   5.096   6.155   2.424  0.7802  0.0635  0.5963
  804MOL0     C 6023   4.987   6.068   2.424 -0.1398 -0.1805  0.9207
  804MOL0     C 6024   4.853   6.123   2.437 -0.6419  0.2416 -0.8107
  804MOL0     C 6025   4.744   6.033   2.437 -0.3937  1.0408  0.0344
  804MOL0     O 6026   4.619   6.089   2.435  0.1412 -0.5935  0.6076
  804MOL0     C 6027   4.514   6.006   2.447  0.8621 -0.1147  0.0775
  804MOL0     C 6028   4.424   5.986   2.340 -1.4595 -0.1766 -0.8106
  804MOL0     C 6029   4.319   5.899   2.356 -0.3450  0.8393 -0.2562
  804MOL0     C 6030   4.306   5.808   2.465 -0.8681  0.3802  0.9195
  804MOL0     O 6031   4.211   5.710   2.468  0.0621  0.8359 -0.2273
  804MOL0     C 6032   4.093   5.719   2.376  0.1085  1.2155 -1.0963
  804MOL0     C 6033   4.000   5.827   2.427  0.1596 -0.7228 -0.3072
  804MOL0     C 6034   3.907   5.777   2.539 -0.2862 -0.1253  0.5424
  804MOL0     C 6035   3.823   5.887   2.596 -0.3382 -0.7457 -0.6345
  804MOL0     C 6036   3.736   5.834   2.707 -0.1533  0.0998  0.3088
  804MOL0     C 6037   3.673   5.952   2.777 -0.4448  0.2387  1.0147
  804MOL0     C 6038   3.554   5.904   2.869 -0.3031  0.3686  0.6020
  804MOL0     C 6039   3.411   5.914   2.801 -0.3484 -0.0609 -0.0903
  804MOL0    Cl 6040   3.369   6.091   2.799  0.3243  0.6724  0.3624
  804MOL0     C 6041   4.396   5.829   2.573  0.3348 -0.3105 -0.3912
  804MOL0     C 6042   4.496   5.934   2.571 -0.5631  0.4794  0.4106
  804MOL0     O 6043   4.766   5.909   2.444  0.4626  0.1209 -0.4894
  804MOL0     C 6044   4.837   6.261   2.442 -0.8306 -1.3146 -0.0522
  804MOL0     C 6045   4.953   6.349   2.447  0.1123  0.1016 -1.2383
  804MOL0     N 6046   5.693   6.602   2.518 -0.6118 -0.5707  0.7280
  804MOL0     N 6047   5.820   6.576   2.523 -0.1617 -0.5503 -0.8323
  804MOL0     C 6048   6.871   6.537   2.213 -0.2617  0.3749 -1.6461
  804MOL0     C 6049   6.999   6.502   2.267 -0.3936  0.5698 -0.0742
  804MOL0     C 6050   7.480   6.442   2.252 -0.1729 -0.0369 -0.2842
  804MOL0     C 6051   7.573   6.359   2.186  0.4552  0.1848 -0.3489
  804MOL0     C 6052   7.694   6.329   2.252  0.7993  0.0342 -0.8857
  804MOL0     C 6053   7.716   6.370   2.384 -0.8571  0.1144 -0.1011
  804MOL0     O 6054   7.837   6.323   2.434  0.8353  0.1511  0.8625
  804MOL0     C 6055   7.860   6.345   2.574 -0.0350  0.8167  0.3752
  804MOL0     C 6056   7.970   6.245   2.618 -1.1045 -0.7633  0.1750
  804MOL0     C 6057   8.107   6.263   2.548  0.0636  0.0027 -0.7116
  804MOL0     C 6058   8.171   6.132   2.568 -0.1858  0.0432  0.6055
  804MOL0     C 6059   8.306   6.116   2.506 -0.0857  0.1739  0.1676
  804MOL0     C 6060   8.422   6.101   2.475 -0.0675  0.5741  0.4412
  804MOL0     C 6061   7.623   6.454   2.448  0.1793 -0.0210 -0.1753
  804MOL0     C 6062   7.506   6.494   2.378 -0.3324 -0.3185 -0.0277
  804MOL0     H 6063   7.208   6.695   2.075 -1.3538  2.1918 -1.2345
  804MOL0     H 6064   6.988   6.776   2.003 -0.7085 -0.1689  0.6484
  804MOL0     H 6065   6.787   6.846   1.955  0.4395  0.8816 -0.1469
  804MOL0     H 6066   6.793   6.877   2.124  1.5714 -0.5484 -0.9491
  804MOL0     H 6067   6.540   6.820   1.950 -0.2714 -2.3035  0.4777
  804MOL0     H 6068   6.575   6.974   2.028 -3.2604 -0.3632 -4.2157
  804MOL0     H 6069   6.549   6.866   2.253  0.1756 -0.1605 -0.2872
  804MOL0     H 6070   6.523   6.708   2.164 -3.3177 -1.3103  2.9228
  804MOL0     H 6071   6.372   6.973   2.145  4.1590  0.0534  0.7370
  804MOL0     H 6072   6.326   6.824   2.066 -0.5897 -0.4512  1.0040
  804MOL0     H 6073   6.185   6.901   2.280 -2.5840 -1.0899 -1.9225
  804MOL0     H 6074   6.331   6.854   2.373 -0.5574  0.9342 -0.1768
  804MOL0     H 6075   6.290   6.623   2.328  0.9748  0.8827  0.7131
  804MOL0     H 6076   6.199   6.661   2.174 -0.0229 -1.2497  0.4354
  804MOL0     H 6077   6.122   6.718   2.465  0.5427 -0.5973 -0.2806
  804MOL0     H 6078   6.009   6.754   2.331 -3.0415 -0.3026  1.5965
  804MOL0     H 6079   6.051   6.484   2.457 -0.7321  2.6143  2.1234
  804MOL0     H 6080   6.024   6.487   2.278 -3.5824 -1.9446  0.4695
  804MOL0     H 6081   5.795   6.639   2.212 -1.8568  0.4981  0.1535
  804MOL0     H 6082   5.512   6.715   2.252 -2.0175 -1.0361 -0.2335
  804MOL0     H 6083   5.474   6.723   2.422 -2.3739  0.5320 -1.9657
  804MOL0     H 6084   5.485   6.472   2.246 -1.4072  1.1395 -0.6825
  804MOL0     H 6085   5.336   6.556   2.275 -0.4239  0.7321  0.2341
  804MOL0     H 6086   5.504   6.402   2.478  0.2986 -1.8060 -3.6298
  804MOL0     H 6087   5.386   6.524   2.534  1.2407  0.7925 -0.3202
  804MOL0     H 6088   5.330   6.268   2.514  0.0519  0.6048 -0.3828
  804MOL0     H 6089   5.339   6.280   2.341  0.3157  0.1665  0.2762
  804MOL0     H 6090   5.195   6.115   2.402  0.1723 -0.8837 -0.5448
  804MOL0     H 6091   5.016   5.964   2.420 -1.5623 -0.5600 -1.4850
  804MOL0     H 6092   4.445   6.029   2.243  0.4055 -1.6995 -1.1288
  804MOL0     H 6093   4.245   5.890   2.277  1.2966 -1.9794 -1.6865
  804MOL0     H 6094   4.052   5.619   2.359  1.8755  0.1116  0.6607
  804MOL0     H 6095   4.125   5.751   2.277  1.7688  5.0706  0.5096
  804MOL0     H 6096   3.937   5.879   2.355 -0.4083  2.7513  2.4044
  804MOL0     H 6097   4.065   5.911   2.456  1.8522 -1.2385 -2.3391
  804MOL0     H 6098   3.969   5.732   2.617 -0.5108 -0.3536  0.5898
  804MOL0     H 6099   3.841   5.702   2.495 -3.5137  1.4111  2.3490
  804MOL0     H 6100   3.890   5.966   2.630 -2.0417  0.3459  0.3240
  804MOL0     H 6101   3.745   5.928   2.532  1.7542  0.2228 -2.7354
  804MOL0     H 6102   3.786   5.761   2.771 -3.7649 -1.8613  1.2005
  804MOL0     H 6103   3.652   5.784   2.658  1.4420 -1.2659 -1.1101
  804MOL0     H 6104   3.638   6.032   2.711  1.6702 -0.2356 -0.7652
  804MOL0     H 6105   3.757   5.989   2.837  0.4078 -0.0286  0.0065
  804MOL0     H 6106   3.582   5.804   2.904  3.6706  1.9841  2.7802
  804MOL0     H 6107   3.550   5.970   2.956 -1.2766 -0.4007  1.1462
  804MOL0     H 6108   3.345   5.866   2.875  1.1281  1.4568  2.3577
  804MOL0     H 6109   3.424   5.870   2.702  0.0216 -0.5641  0.1715
  804MOL0     H 6110   4.362   5.765   2.654 -1.3361  1.2324  0.1929
  804MOL0     H 6111   4.560   5.959   2.655  3.0620 -1.6399 -1.4654
  804MOL0     H 6112   4.740   6.305   2.461 -0.2128 -0.7378  2.1358
  804MOL0     H 6113   4.921   6.451   2.468 -1.3922 -0.9933  2.6220
  804MOL0     H 6114   6.774   6.503   2.247 -0.8467  2.1876 -1.3660
  804MOL0     H 6115   6.998   6.422   2.340  1.8962  0.0400 -0.5362
  804MOL0     H 6116   7.544   6.309   2.094  0.8474 -0.2405 -0.2423
  804MOL0     H 6117   7.768   6.261   2.212  0.0709 -2.2437  1.4166
  804MOL0     H 6118   7.775   6.326   2.640 -0.7813 -0.0802 -0.8209
  804MOL0     H 6119   7.906   6.444   2.587  0.0470  0.5722  2.3000
  804MOL0     H 6120   7.994   6.262   2.723  2.5865  2.0239 -0.9030
  804MOL0     H 6121   7.923   6.147   2.600 -2.0125 -0.4271  0.6425
  804MOL0     H 6122   8.159   6.352   2.586 -1.8703  0.4247  1.1631
  804MOL0     H 6123   8.087   6.282   2.442  0.1058  0.3334 -0.6604
  804MOL0     H 6124   8.179   6.114   2.675 -2.4700 -2.8143  0.4234
  804MOL0     H 6125   8.115   6.049   2.524  0.1587 -0.1468  0.5213
  804MOL0     H 6126   8.521   6.077   2.443 -0.3146 -0.5700  0.4961
  804MOL0     H 6127   7.634   6.495   2.548  0.6170 -0.8397  0.1212
  804MOL0     H 6128   7.435   6.568   2.414  1.4334  1.5226 -0.1494
  805MOL0     O 6129   5.445   5.131   6.848 -0.1875  0.0055 -0.2940
  805MOL0     C 6130   5.555   5.099   6.803 -0.0364 -0.3322  0.2279
  805MOL0     O 6131   5.592   5.100   6.673 -0.2144 -0.3931 -0.6092
  805MOL0     C 6132   5.498   5.126   6.578  0.5341  0.4565  0.3070
  805MOL0     C 6133   5.503   5.048   6.464  0.5850  0.2490  0.2904
  805MOL0     C 6134   5.396   5.048   6.366  0.2885 -0.9161  0.4437
  805MOL0     C 6135   5.296   5.146   6.383 -0.2180  0.1563  0.8848
  805MOL0     O 6136   5.186   5.170   6.296 -0.1098  0.7131 -0.3281
  805MOL0     C 6137   5.095   5.057   6.270 -0.0468  0.0939  0.3566
  805MOL0     C 6138   4.945   5.074   6.314  0.1625 -0.5652  0.5684
  805MOL0     C 6139   4.943   5.149   6.453 -0.9065  0.8606  0.4524
  805MOL0     C 6140   5.014   5.055   6.558 -0.2148  0.0581  0.1922
  805MOL0     C 6141   5.003   5.113   6.700 -0.5304 -0.9068  1.1011
  805MOL0     C 6142   5.077   5.013   6.795 -0.5375 -0.6402  0.4037
  805MOL0     C 6143   5.083   5.076   6.937 -0.5862 -0.8819 -0.6364
  805MOL0     C 6144   5.162   4.996   7.038  0.0355  0.0020  0.1607
  805MOL0     N 6145   5.111   4.857   7.054  0.4183 -0.1995  0.5959
  805MOL0     C 6146   5.168   4.743   6.998 -0.1866 -0.0346  0.2828
  805MOL0     C 6147   5.090   4.649   7.046 -1.2189 -0.6207  0.1789
  805MOL0     C 6148   5.127   4.505   7.029  0.3658  0.5273 -0.0862
  805MOL0     C 6149   5.279   4.469   7.030  0.2552  0.8209 -0.0015
  805MOL0     C 6150   5.342   4.433   7.164 -0.6978 -0.5781  0.1547
  805MOL0     C 6151   5.491   4.394   7.143 -0.4100  0.4148 -0.5441
  805MOL0     O 6152   5.495   4.277   7.062 -0.1027 -0.0113 -0.2787
  805MOL0     C 6153   5.623   4.221   7.054 -0.0024 -0.7713 -0.1449
  805MOL0     C 6154   5.636   4.113   6.976 -0.6559  0.0731 -0.6024
  805MOL0     C 6155   5.753   4.034   6.963  0.0829  0.6486 -0.0326
  805MOL0     C 6156   5.860   4.078   7.047 -0.5323  0.7277  0.0887
  805MOL0     C 6157   5.982   3.991   7.070  0.0723 -0.3385 -1.3403
  805MOL0     O 6158   6.072   4.043   7.153  0.4974  0.9431 -0.0352
  805MOL0     C 6159   6.199   3.972   7.169  1.9286 -0.0174  0.7729
  805MOL0     C 6160   6.254   3.967   7.295  1.1452  0.6795 -0.0622
  805MOL0     C 6161   6.375   3.902   7.323  0.0571 -0.8025 -0.0861
  805MOL0     C 6162   6.450   3.848   7.215  1.1371  0.1525 -0.2526
  805MOL0     O 6163   6.570   3.786   7.232  0.1879  0.6700  0.5630
  805MOL0     C 6164   6.659   3.882   7.283 -0.2585 -0.3409 -0.1090
  805MOL0     C 6165   6.807   3.847   7.253 -0.6564 -0.1482  1.1459
  805MOL0     C 6166   6.861   3.713   7.318  1.0905  0.6338  0.1038
  805MOL0     C 6167   7.019   3.708   7.301  0.5459  0.0734 -0.1294
  805MOL0     C 6168   7.074   3.574   7.358 -0.0183  0.9362 -0.1820
  805MOL0     C 6169   7.214   3.550   7.296  0.1635 -0.3375  0.3698
  805MOL0     C 6170   7.318   3.668   7.336  0.3986  0.3249  0.2517
  805MOL0     C 6171   7.459   3.626   7.278  1.1459  0.5479 -0.1170
  805MOL0    Cl 6172   7.515   3.486   7.377  0.0405  0.4050  0.3329
  805MOL0     C 6173   6.391   3.844   7.086  0.4145 -0.1720  0.4835
  805MOL0     C 6174   6.271   3.915   7.066  0.4328 -0.1497 -0.1832
  805MOL0     O 6175   5.992   3.887   7.007 -0.2063 -0.5920  0.7861
  805MOL0     C 6176   5.857   4.204   7.108  0.0625  0.9350 -0.8597
  805MOL0     C 6177   5.740   4.272   7.121  0.6378 -0.0800  1.1079
  805MOL0     N 6178   4.987   4.698   7.121  0.1141 -0.4661 -0.7221
  805MOL0     N 6179   5.001   4.826   7.132  0.2508 -0.1554 -0.3329
  805MOL0     C 6180   5.310   5.240   6.482 -0.3577  0.0086  0.6958
  805MOL0     C 6181   5.394   5.224   6.586  0.0016  0.0850  0.0219
  805MOL0     C 6182   5.672   5.059   6.895 -0.1684  0.4315  0.4784
  805MOL0     C 6183   5.647   5.012   7.016 -0.0009 -0.3497 -0.0721
  805MOL0     C 6184   5.736   4.964   7.107  0.1068 -0.1521 -0.6539
  805MOL0     C 6185   5.869   4.964   7.072 -0.6611 -0.0224 -0.3230
  805MOL0     O 6186   5.949   4.887   7.149 -0.5066 -0.1942  0.6613
  805MOL0     C 6187   6.087   4.883   7.112  0.1637 -0.5230  0.5960
  805MOL0     C 6188   6.160   4.805   7.222  0.1792  0.2635 -0.7027
  805MOL0     C 6189   6.211   4.890   7.341  0.5579 -0.2788 -0.1459
  805MOL0     C 6190   6.216   4.793   7.466 -0.3405 -0.5167  0.2393
  805MOL0     C 6191   6.271   4.866   7.583  0.2070  0.2685 -0.4397
  805MOL0     C 6192   6.325   4.931   7.667 -0.3125 -0.6050 -0.2671
  805MOL0     C 6193   5.910   5.020   6.949 -0.2643  0.5309 -0.0767
  805MOL0     C 6194   5.812   5.078   6.864  0.0551 -0.5629  0.6143
  805MOL0     H 6195   5.581   4.976   6.444 -1.2645 -1.9039  0.4696
  805MOL0     H 6196   5.407   4.977   6.285 -1.3327 -1.4034  0.6255
  805MOL0     H 6197   5.133   4.968   6.322  1.2320  0.7114  0.5266
  805MOL0     H 6198   5.098   5.042   6.162 -2.2137 -0.1972  0.2959
  805MOL0     H 6199   4.874   4.992   6.322 -1.6663  0.8611 -0.1059
  805MOL0     H 6200   4.895   5.137   6.240 -1.8100 -0.2250  2.0950
  805MOL0     H 6201   4.844   5.155   6.498 -0.9681 -0.9369  0.6267
  805MOL0     H 6202   4.998   5.243   6.440  1.5373 -0.7706 -2.6178
  805MOL0     H 6203   4.959   4.961   6.559  1.1488 -0.8004 -1.1170
  805MOL0     H 6204   5.118   5.033   6.531 -1.3837 -1.6715 -3.6231
  805MOL0     H 6205   4.898   5.111   6.729 -0.3208  0.1866  2.0387
  805MOL0     H 6206   5.043   5.215   6.708  2.6770 -1.9336 -0.0232
  805MOL0     H 6207   5.183   5.010   6.769 -0.2502  0.1757  1.4361
  805MOL0     H 6208   5.028   4.915   6.790 -3.6425  0.8456 -1.1383
  805MOL0     H 6209   5.134   5.173   6.938 -0.6457 -0.8423  1.3896
  805MOL0     H 6210   4.980   5.090   6.970 -1.5201 -1.6578 -2.9479
  805MOL0     H 6211   5.159   5.044   7.136  2.2056 -0.1812  0.3786
  805MOL0     H 6212   5.268   4.981   7.012 -0.5038 -2.3386 -1.0088
  805MOL0     H 6213   5.247   4.732   6.925 -1.2390 -2.1044 -0.6085
  805MOL0     H 6214   5.099   4.465   6.932  0.6870  0.3730 -0.1140
  805MOL0     H 6215   5.073   4.457   7.112 -1.4674  1.8031 -0.4899
  805MOL0     H 6216   5.324   4.546   6.966 -0.5881  1.9440  0.7143
  805MOL0     H 6217   5.288   4.378   6.970  2.8885  1.9879 -1.5429
  805MOL0     H 6218   5.319   4.505   7.243 -1.8419 -2.6201  1.8038
  805MOL0     H 6219   5.287   4.343   7.195 -2.7559 -0.2705 -2.2230
  805MOL0     H 6220   5.541   4.385   7.240  1.7465  0.9252 -1.5556
  805MOL0     H 6221   5.547   4.473   7.091 -1.4824  1.5041 -0.0906
  805MOL0     H 6222   5.546   4.084   6.924 -0.2130 -2.0345 -0.2909
  805MOL0     H 6223   5.745   3.940   6.909 -3.0858  0.6282  0.3025
  805MOL0     H 6224   6.188   4.018   7.364  0.8798 -0.1040  0.2784
  805MOL0     H 6225   6.429   3.913   7.416  1.9496  2.1487 -1.3626
  805MOL0     H 6226   6.655   3.897   7.391  0.3995  1.2623 -0.2886
  805MOL0     H 6227   6.649   3.983   7.242  1.6809 -1.0342 -2.5479
  805MOL0     H 6228   6.859   3.934   7.294  0.8115 -0.8155  0.7928
  805MOL0     H 6229   6.805   3.849   7.144  1.8043  1.7587  1.0597
  805MOL0     H 6230   6.817   3.621   7.278  2.1794 -0.5504  1.4943
  805MOL0     H 6231   6.836   3.725   7.424  1.5755  0.5626  0.2276
  805MOL0     H 6232   7.042   3.720   7.195 -3.0567 -1.2868 -1.2372
  805MOL0     H 6233   7.051   3.803   7.346  1.5970 -1.6831  3.1548
  805MOL0     H 6234   7.012   3.491   7.323  3.4220 -0.4210 -3.8016
  805MOL0     H 6235   7.084   3.569   7.467 -0.0663 -2.5117 -0.2459
  805MOL0     H 6236   7.200   3.541   7.188 -1.0751 -3.2490  0.6890
  805MOL0     H 6237   7.243   3.449   7.327 -1.8810 -1.1468 -0.2007
  805MOL0     H 6238   7.289   3.752   7.272 -0.3851  1.8589  2.4779
  805MOL0     H 6239   7.319   3.694   7.442 -2.1127  1.1754  0.1362
  805MOL0     H 6240   7.530   3.709   7.282  2.7760 -0.7542 -1.1675
  805MOL0     H 6241   7.463   3.589   7.176  1.9658 -3.9170  1.3290
  805MOL0     H 6242   6.441   3.804   6.998  0.9202 -0.5357  0.9275
  805MOL0     H 6243   6.242   3.916   6.961 -1.2726  0.7559  0.2742
  805MOL0     H 6244   5.944   4.246   7.157 -1.5014  0.4623  2.5544
  805MOL0     H 6245   5.747   4.364   7.177  1.0920  0.5376  0.0789
  805MOL0     H 6246   5.222   5.304   6.477 -1.0717 -0.9574 -3.3687
  805MOL0     H 6247   5.389   5.296   6.668 -2.1524 -1.7843  1.6414
  805MOL0     H 6248   5.544   4.990   7.042 -0.7509  0.0748 -2.4645
  805MOL0     H 6249   5.704   4.927   7.204  2.3156  0.5639  0.4190
  805MOL0     H 6250   6.122   4.986   7.112 -2.5349  0.4871  1.7321
  805MOL0     H 6251   6.096   4.837   7.013 -0.2248  1.6784 -0.5229
  805MOL0     H 6252   6.097   4.722   7.257  3.0343 -1.1672  1.5015
  805MOL0     H 6253   6.250   4.761   7.178  1.2937 -2.1491  3.4673
  805MOL0     H 6254   6.150   4.978   7.365  2.0432  0.9789 -0.8109
  805MOL0     H 6255   6.309   4.933   7.319 -0.6226  2.0811 -1.1161
  805MOL0     H 6256   6.114   4.762   7.488 -0.2997 -0.0311  1.1622
  805MOL0     H 6257   6.286   4.710   7.453  1.9178  1.3730 -0.4640
  805MOL0     H 6258   6.389   4.991   7.728 -1.7471  0.1784  0.5285
  805MOL0     H 6259   6.013   5.016   6.915  0.0039 -0.0259  0.7799
  805MOL0     H 6260   5.854   5.128   6.777 -0.4591  1.1808  1.3365
  806MOL0     O 6261   8.958   7.193   2.968 -0.7445  0.4607  0.2327
  806MOL0     C 6262   8.981   7.287   2.883 -0.7244  0.6330 -0.3206
  806MOL0     O 6263   8.883   7.341   2.803  0.4639 -1.0483  0.2144
  806MOL0     C 6264   8.750   7.318   2.808 -0.4669 -0.0653 -0.3124
  806MOL0     C 6265   8.664   7.429   2.845 -1.1009  0.4457  0.0419
  806MOL0     C 6266   8.525   7.415   2.841  0.5359 -0.1299 -0.1287
  806MOL0     C 6267   8.469   7.291   2.798 -0.4931 -0.3250  0.2410
  806MOL0     O 6268   8.333   7.260   2.804 -0.3223 -0.3553  0.8907
  806MOL0     C 6269   8.247   7.335   2.892 -0.6972 -0.3674  0.1557
  806MOL0     C 6270   8.118   7.262   2.896 -0.1975 -0.1275  0.4437
  806MOL0     C 6271   8.034   7.301   3.012 -0.1534  0.1076  0.4355
  806MOL0     C 6272   7.896   7.230   2.993  0.0870  0.5279  0.1209
  806MOL0     C 6273   7.779   7.277   3.083  0.6344  0.1164  0.1417
  806MOL0     C 6274   7.765   7.431   3.093  0.4381  0.0287 -0.2168
  806MOL0     C 6275   7.628   7.472   3.149  0.3310  0.0169 -0.3826
  806MOL0     C 6276   7.523   7.460   3.045 -0.8184  0.0398  0.2611
  806MOL0     N 6277   7.392   7.497   3.112 -0.6591 -0.8207  0.6203
  806MOL0     C 6278   7.324   7.423   3.199 -1.0146  0.7418  0.4675
  806MOL0     C 6279   7.208   7.493   3.211 -0.1284 -0.2445 -0.4562
  806MOL0     C 6280   7.078   7.443   3.271 -0.2930  0.0559 -0.7150
  806MOL0     C 6281   6.950   7.501   3.208  0.0065 -0.0139  0.5279
  806MOL0     C 6282   6.825   7.421   3.252  0.0236 -0.3550  0.0571
  806MOL0     C 6283   6.694   7.491   3.208  0.3575  0.2959 -0.5885
  806MOL0     O 6284   6.589   7.437   3.282 -0.2873 -0.2273 -0.2956
  806MOL0     C 6285   6.457   7.466   3.253 -0.2746  1.1302  0.2078
  806MOL0     C 6286   6.422   7.567   3.154  0.6841  0.5815 -0.0141
  806MOL0     C 6287   6.287   7.606   3.144 -0.1791 -0.4976 -0.8349
  806MOL0     C 6288   6.184   7.548   3.227 -0.1274 -0.0981  0.6482
  806MOL0     C 6289   6.037   7.571   3.198 -0.2884  0.6191 -0.5792
  806MOL0     O 6290   6.005   7.681   3.120  0.1875 -0.3375  0.1899
  806MOL0     C 6291   5.871   7.715   3.088 -0.3342 -0.1825 -1.1506
  806MOL0     C 6292   5.826   7.846   3.105  1.0263 -0.9950  0.4680
  806MOL0     C 6293   5.700   7.895   3.088  0.5846 -0.4832  0.1778
  806MOL0     C 6294   5.604   7.799   3.045  0.0958 -0.2513 -0.4748
  806MOL0     O 6295   5.471   7.821   3.017 -0.6772 -0.6844  0.0063
  806MOL0     C 6296   5.424   7.961   3.015 -0.7391 -1.0848 -0.1942
  806MOL0     C 6297   5.269   7.954   3.019  0.8141 -0.2027  0.1187
  806MOL0     C 6298   5.216   7.977   2.883 -0.0261 -0.3724 -0.4768
  806MOL0     C 6299   5.064   8.014   2.887  0.4183  0.0651  0.4122
  806MOL0     C 6300   5.004   8.034   2.749  0.1249 -0.0424  0.1724
  806MOL0     C 6301   4.971   7.910   2.676 -0.7583  0.3703  0.2984
  806MOL0     C 6302   4.913   7.953   2.545  0.4464 -0.0070  1.4438
  806MOL0     C 6303   4.866   7.843   2.453  0.2121  0.6765  0.5287
  806MOL0    Cl 6304   5.009   7.773   2.372 -0.1152  0.3114 -0.2799
  806MOL0     C 6305   5.641   7.665   3.036 -0.6318  1.1347  0.7588
  806MOL0     C 6306   5.776   7.622   3.052 -1.2398  0.0739 -0.5158
  806MOL0     O 6307   5.955   7.512   3.268 -0.3714 -0.7404 -0.2699
  806MOL0     C 6308   6.219   7.460   3.328 -0.0135  0.3705  1.8529
  806MOL0     C 6309   6.357   7.424   3.341  0.1744  0.5026  0.2698
  806MOL0     N 6310   7.225   7.621   3.168 -0.2472 -0.0228 -0.6720
  806MOL0     N 6311   7.337   7.623   3.104 -0.5727 -0.2462 -0.0264
  806MOL0     C 6312   8.547   7.187   2.758 -0.4821 -0.2866 -0.3848
  806MOL0     C 6313   8.684   7.198   2.771 -0.2961  0.0286  0.4056
  806MOL0     C 6314   9.116   7.333   2.853  0.3846  0.5268  0.5897
  806MOL0     C 6315   9.145   7.451   2.777 -0.7683 -0.0860 -0.7076
  806MOL0     C 6316   9.278   7.477   2.724 -0.5913  0.5089  0.2826
  806MOL0     C 6317   9.384   7.396   2.769 -0.6633  0.6511  1.1041
  806MOL0     O 6318   9.497   7.448   2.747  0.1515  0.3016 -0.4414
  806MOL0     C 6319   9.616   7.399   2.822 -1.0388  0.7966  0.0498
  806MOL0     C 6320   9.725   7.481   2.781 -0.1822 -0.6225  0.0947
  806MOL0     C 6321   9.861   7.438   2.820  0.8046  0.7137 -0.2308
  806MOL0     C 6322   9.925   7.331   2.729 -0.3016  0.8876 -0.1128
  806MOL0     C 6323  10.065   7.326   2.753 -0.0834 -0.2588  0.6756
  806MOL0     C 6324  10.185   7.334   2.764  0.8153  0.2780  0.3702
  806MOL0     C 6325   9.361   7.281   2.838  0.3460  0.8579 -0.4567
  806MOL0     C 6326   9.231   7.251   2.884 -0.9894  0.2512 -0.9380
  806MOL0     H 6327   8.699   7.527   2.874  1.3238  0.0441 -1.2958
  806MOL0     H 6328   8.452   7.492   2.864 -1.1333 -1.4341 -0.8247
  806MOL0     H 6329   8.233   7.433   2.846 -0.2498 -0.2733  0.2196
  806MOL0     H 6330   8.289   7.343   2.993  1.8269 -1.5415 -0.7198
  806MOL0     H 6331   8.135   7.155   2.909 -0.4293 -0.2099  0.0714
  806MOL0     H 6332   8.074   7.270   2.796 -2.2629  0.6463  1.3713
  806MOL0     H 6333   8.028   7.410   3.010  0.9684  0.2447  2.2267
  806MOL0     H 6334   8.077   7.255   3.101 -2.4751 -1.9446  0.6106
  806MOL0     H 6335   7.867   7.242   2.888  0.4367  1.3067  0.1109
  806MOL0     H 6336   7.920   7.125   3.009  0.7906  0.5275 -0.8210
  806MOL0     H 6337   7.805   7.251   3.186 -1.8864 -1.3850  0.4748
  806MOL0     H 6338   7.679   7.234   3.070  0.3684  0.5530  0.7017
  806MOL0     H 6339   7.785   7.483   2.999  2.7089  0.3375  0.3752
  806MOL0     H 6340   7.849   7.463   3.156  0.3123 -0.7934  0.3832
  806MOL0     H 6341   7.611   7.414   3.241 -1.8520 -0.5152 -1.0449
  806MOL0     H 6342   7.633   7.576   3.181  0.3779  0.5336 -2.0027
  806MOL0     H 6343   7.525   7.355   3.015 -1.1082  0.3103 -0.7406
  806MOL0     H 6344   7.548   7.526   2.962  0.9785 -0.9018  0.0062
  806MOL0     H 6345   7.338   7.322   3.234 -2.4735  0.4204  0.1714
  806MOL0     H 6346   7.095   7.461   3.378  2.9349 -0.8362 -0.9764
  806MOL0     H 6347   7.076   7.334   3.261 -4.2915  0.0618 -1.9939
  806MOL0     H 6348   6.958   7.499   3.099 -1.8416 -1.2312  0.3696
  806MOL0     H 6349   6.939   7.604   3.242  2.3799  0.9057 -1.2097
  806MOL0     H 6350   6.814   7.322   3.207  1.7653  0.8507 -3.4397
  806MOL0     H 6351   6.832   7.430   3.360 -1.0390  2.9428 -0.0393
  806MOL0     H 6352   6.683   7.481   3.100  0.1447  2.5215 -0.8093
  806MOL0     H 6353   6.704   7.599   3.224  1.3617  0.1646 -0.2447
  806MOL0     H 6354   6.504   7.611   3.099  0.8298  0.2397 -0.0731
  806MOL0     H 6355   6.245   7.681   3.078  0.9690 -1.3879 -2.6353
  806MOL0     H 6356   5.906   7.913   3.136  0.4540 -0.1462  0.1231
  806MOL0     H 6357   5.674   7.999   3.102 -2.4550 -1.0541 -0.5932
  806MOL0     H 6358   5.464   8.022   2.933  1.4343 -0.6368  1.1051
  806MOL0     H 6359   5.472   8.007   3.103  3.9518 -0.9092 -2.5300
  806MOL0     H 6360   5.233   8.034   3.084  1.7397  0.1847  0.1714
  806MOL0     H 6361   5.230   7.854   3.041 -1.3718  0.0469 -2.1091
  806MOL0     H 6362   5.241   7.891   2.820  0.1945 -1.3700  0.9260
  806MOL0     H 6363   5.264   8.056   2.825 -0.0076 -2.4822 -3.6254
  806MOL0     H 6364   5.021   7.928   2.939  0.5940  0.1950  0.7692
  806MOL0     H 6365   5.062   8.109   2.940  0.2539  0.7466 -0.7753
  806MOL0     H 6366   5.080   8.087   2.691  1.0519 -0.1183  1.2870
  806MOL0     H 6367   4.913   8.094   2.762 -0.4554 -0.7806 -0.4014
  806MOL0     H 6368   4.896   7.849   2.729 -1.5895  0.5024 -0.6861
  806MOL0     H 6369   5.055   7.842   2.661 -2.1948 -1.5727  0.5839
  806MOL0     H 6370   4.830   8.024   2.551  0.5281  1.2640 -5.2045
  806MOL0     H 6371   4.984   8.018   2.494 -0.9295 -0.0207 -0.6467
  806MOL0     H 6372   4.791   7.871   2.379  0.6506 -0.1408 -0.2487
  806MOL0     H 6373   4.812   7.768   2.512  1.9805 -0.8179  0.3352
  806MOL0     H 6374   5.569   7.590   3.005  0.3712  0.3055  0.3938
  806MOL0     H 6375   5.802   7.519   3.030  1.2397 -0.3316  3.3026
  806MOL0     H 6376   6.148   7.417   3.399 -2.4094 -1.7942 -1.5743
  806MOL0     H 6377   6.371   7.353   3.422 -1.1065  0.5198  0.5304
  806MOL0     H 6378   8.484   7.103   2.732 -3.2335  0.7180  2.4687
  806MOL0     H 6379   8.744   7.108   2.761 -1.4440 -0.5256 -2.8542
  806MOL0     H 6380   9.059   7.517   2.769  0.4610  1.5812 -0.8145
  806MOL0     H 6381   9.295   7.567   2.665 -1.2230 -0.0772 -0.8075
  806MOL0     H 6382   9.641   7.300   2.784  1.2365 -0.6537  4.5397
  806MOL0     H 6383   9.596   7.415   2.929 -1.3356 -0.2637  0.1581
  806MOL0     H 6384   9.728   7.519   2.679 -0.2834 -0.3788  0.1818
  806MOL0     H 6385   9.701   7.575   2.832  2.1941 -0.2027  0.5543
  806MOL0     H 6386   9.855   7.387   2.917 -1.9265 -0.5216 -0.9447
  806MOL0     H 6387   9.925   7.526   2.834  0.3946  1.3217 -1.9024
  806MOL0     H 6388   9.874   7.235   2.746 -0.9061  0.9340 -1.5458
  806MOL0     H 6389   9.908   7.346   2.622  3.9776 -2.1768 -1.4631
  806MOL0     H 6390  10.291   7.353   2.764  0.8109  0.5246 -1.5679
  806MOL0     H 6391   9.443   7.214   2.863 -0.0111 -0.1028 -1.7346
  806MOL0     H 6392   9.221   7.165   2.950  3.2236  0.1927 -0.1580
  807MOL0     O 6393  11.077   3.822  10.608  0.0020  0.7424 -0.2048
  807MOL0     C 6394  11.162   3.745  10.563 -0.0374  0.3791  0.4881
  807MOL0     O 6395  11.142   3.610  10.528 -0.7427  0.2831 -0.5740
  807MOL0     C 6396  11.021   3.557  10.565  0.1245 -0.1632 -0.1447
  807MOL0     C 6397  10.999   3.512  10.696  0.5303  0.3092  0.0148
  807MOL0     C 6398  10.864   3.498  10.735  0.8365  0.3531 -0.0737
  807MOL0     C 6399  10.757   3.495  10.641  0.1980  0.2957 -1.1847
  807MOL0     O 6400  10.636   3.439  10.677 -0.3100  0.5018  0.8356
  807MOL0     C 6401  10.595   3.433  10.810  0.5622 -0.5987  0.3718
  807MOL0     C 6402  10.447   3.399  10.808 -1.0741  0.5544  0.0736
  807MOL0     C 6403  10.365   3.524  10.776 -0.0404  1.1500  0.1348
  807MOL0     C 6404  10.216   3.513  10.812 -0.4887  0.3821 -0.4429
  807MOL0     C 6405  10.146   3.625  10.748  0.6393 -0.0227  0.3658
  807MOL0     C 6406  10.000   3.646  10.785 -1.1360 -0.3031  0.2988
  807MOL0     C 6407   9.903   3.546  10.716  0.0969 -0.2378  0.2476
  807MOL0     C 6408   9.756   3.598  10.710 -1.0998 -1.2487 -0.4489
  807MOL0     N 6409   9.670   3.498  10.665 -0.3619 -0.1280 -0.2365
  807MOL0     C 6410   9.635   3.471  10.539  0.0530 -0.1161  0.6680
  807MOL0     C 6411   9.537   3.372  10.551  0.4146 -0.0508  0.5670
  807MOL0     C 6412   9.472   3.302  10.439 -0.5939 -0.0704  0.1256
  807MOL0     C 6413   9.569   3.276  10.327  0.2061 -0.1343  0.2720
  807MOL0     C 6414   9.491   3.206  10.210  0.0283 -0.1132  0.0585
  807MOL0     C 6415   9.587   3.149  10.102  0.2554 -0.0649 -0.3621
  807MOL0     O 6416   9.652   3.252  10.031 -0.3720 -0.1356 -0.2989
  807MOL0     C 6417   9.783   3.290  10.057  0.0251 -0.9660  0.0795
  807MOL0     C 6418   9.816   3.418  10.105 -0.7468 -0.0656  0.3180
  807MOL0     C 6419   9.944   3.462  10.147  0.4684  0.4005  0.3099
  807MOL0     C 6420  10.051   3.374  10.129 -0.2175  0.0699 -0.3473
  807MOL0     C 6421  10.197   3.406  10.148 -0.1677 -0.3901  0.1979
  807MOL0     O 6422  10.298   3.310  10.137 -0.2203 -0.0005 -0.4188
  807MOL0     C 6423  10.439   3.319  10.150  0.5175  0.6017 -0.0040
  807MOL0     C 6424  10.520   3.214  10.202  0.2932  0.9153 -0.2282
  807MOL0     C 6425  10.657   3.221  10.200  0.4944  0.6025  1.0669
  807MOL0     C 6426  10.718   3.343  10.164  0.5609 -0.3401  0.8963
  807MOL0     O 6427  10.850   3.361  10.169  0.4679 -0.0436  0.0491
  807MOL0     C 6428  10.927   3.276  10.255 -0.2521 -0.4783  0.3769
  807MOL0     C 6429  11.071   3.321  10.263 -0.0748 -0.2822 -0.0993
  807MOL0     C 6430  11.162   3.317  10.131  0.2177 -0.0870  0.1471
  807MOL0     C 6431  11.310   3.326  10.170  0.7271  1.4566  0.2170
  807MOL0     C 6432  11.402   3.316  10.044  0.3999  0.0275  0.3304
  807MOL0     C 6433  11.550   3.328  10.074 -0.5536  0.2822 -0.3988
  807MOL0     C 6434  11.649   3.325   9.955  0.5954  0.1005 -0.4340
  807MOL0     C 6435  11.634   3.452   9.874 -0.4686  0.0457 -0.4391
  807MOL0    Cl 6436  11.764   3.459   9.750  0.2678  0.7414  0.2151
  807MOL0     C 6437  10.646   3.450  10.117 -0.2399  0.1345  0.4603
  807MOL0     C 6438  10.499   3.438  10.108 -0.7258  0.1829  0.0874
  807MOL0     O 6439  10.225   3.528  10.159  0.3302  0.5902 -0.9865
  807MOL0     C 6440  10.028   3.243  10.084  0.1111  0.1131 -0.3120
  807MOL0     C 6441   9.896   3.202  10.054 -0.4249  0.7974 -0.3167
  807MOL0     N 6442   9.522   3.343  10.681  0.4376 -0.1164 -0.5773
  807MOL0     N 6443   9.596   3.425  10.745 -0.4620 -0.4814 -0.9428
  807MOL0     C 6444  10.787   3.513  10.508  0.5367 -0.1056 -0.4004
  807MOL0     C 6445  10.917   3.544  10.474 -0.7264 -0.6123 -0.1725
  807MOL0     C 6446  11.290   3.809  10.544 -1.0548 -0.3385 -0.1728
  807MOL0     C 6447  11.406   3.740  10.558 -0.3353  0.2529 -0.5279
  807MOL0     C 6448  11.530   3.809  10.569 -0.5925  0.4160 -0.5026
  807MOL0     C 6449  11.543   3.949  10.543 -0.2936 -0.1088  0.4140
  807MOL0     O 6450  11.658   4.025  10.555 -0.0145 -0.6938  0.0047
  807MOL0     C 6451  11.769   3.970  10.615  0.8717  0.4649  0.8404
  807MOL0     C 6452  11.891   4.060  10.603  0.3857  0.2601  0.2429
  807MOL0     C 6453  11.934   4.092  10.453  0.2212 -0.1785  0.2868
  807MOL0     C 6454  12.051   4.196  10.460 -0.1265  0.3073  0.3408
  807MOL0     C 6455  12.120   4.231  10.329 -0.4318  0.5462 -0.1597
  807MOL0     C 6456  12.187   4.279  10.243 -0.1990  0.2087 -0.5937
  807MOL0     C 6457  11.422   4.021  10.513 -0.4668 -0.1342  0.2743
  807MOL0     C 6458  11.302   3.951  10.529  0.3237  0.1445  0.6367
  807MOL0     H 6459  11.084   3.523  10.764  2.3382 -2.6919 -1.5626
  807MOL0     H 6460  10.851   3.456  10.834  0.0901 -0.4442 -0.5039
  807MOL0     H 6461  10.616   3.526  10.864  0.6759 -1.0995  1.2059
  807MOL0     H 6462  10.652   3.349  10.852  2.5423  0.4287 -0.1629
  807MOL0     H 6463  10.422   3.371  10.911 -1.9925  1.4813  0.1171
  807MOL0     H 6464  10.423   3.322  10.734 -0.4901  0.0737  0.3694
  807MOL0     H 6465  10.375   3.520  10.667  0.6788 -1.4951  0.2254
  807MOL0     H 6466  10.413   3.615  10.813  1.0218  0.5850  0.1902
  807MOL0     H 6467  10.180   3.411  10.793 -0.5054  0.1015  0.9578
  807MOL0     H 6468  10.214   3.534  10.919  2.1380 -2.4909  0.3179
  807MOL0     H 6469  10.154   3.602  10.641 -1.3259  0.0870  0.1633
  807MOL0     H 6470  10.191   3.723  10.769 -1.4072  0.8890  0.7353
  807MOL0     H 6471   9.980   3.750  10.759 -0.1278 -0.5420 -1.5693
  807MOL0     H 6472   9.997   3.635  10.894 -0.7535 -2.3742  0.1527
  807MOL0     H 6473   9.940   3.519  10.617 -1.3789 -3.9515  0.5527
  807MOL0     H 6474   9.892   3.447  10.761 -3.7762 -1.2178 -2.3760
  807MOL0     H 6475   9.752   3.681  10.637  0.3177  0.0394  0.8714
  807MOL0     H 6476   9.714   3.637  10.803  1.9713 -0.8400  0.8574
  807MOL0     H 6477   9.689   3.515  10.455  1.9938 -1.1786  1.2916
  807MOL0     H 6478   9.381   3.349  10.401 -1.1797 -2.5655 -1.8858
  807MOL0     H 6479   9.439   3.205  10.477 -1.3939  0.5159  0.9802
  807MOL0     H 6480   9.644   3.207  10.367  0.3421 -0.2845 -0.2300
  807MOL0     H 6481   9.614   3.362  10.277  2.0169 -2.8202 -3.1210
  807MOL0     H 6482   9.426   3.128  10.252  0.2773 -1.7004 -2.3483
  807MOL0     H 6483   9.423   3.282  10.170  0.3964  1.3328  1.9837
  807MOL0     H 6484   9.530   3.082  10.038 -0.1962 -3.3646  3.1122
  807MOL0     H 6485   9.663   3.077  10.134 -0.5165 -1.5042 -1.6810
  807MOL0     H 6486   9.732   3.485  10.121  0.9683  1.8621  1.9296
  807MOL0     H 6487   9.968   3.564  10.175 -0.4438  0.4010  1.1418
  807MOL0     H 6488  10.474   3.116  10.214 -1.0095  1.3506 -1.5125
  807MOL0     H 6489  10.715   3.132  10.223 -1.9048 -0.9395  1.5726
  807MOL0     H 6490  10.921   3.174  10.215  1.1153 -0.3209 -0.3037
  807MOL0     H 6491  10.874   3.292  10.349 -0.3195  2.9325 -0.1291
  807MOL0     H 6492  11.128   3.254  10.328  4.0403  2.5122 -0.4063
  807MOL0     H 6493  11.070   3.424  10.301 -0.7847  0.4453 -1.9810
  807MOL0     H 6494  11.123   3.394  10.063  2.9287 -0.5717 -2.1683
  807MOL0     H 6495  11.139   3.224  10.079 -1.0811  0.5898 -0.5452
  807MOL0     H 6496  11.337   3.423  10.213  3.2588  1.1018 -0.3788
  807MOL0     H 6497  11.341   3.244  10.235 -0.4538  0.7207 -0.1322
  807MOL0     H 6498  11.378   3.392   9.969 -0.7855 -1.5277 -0.9662
  807MOL0     H 6499  11.390   3.218   9.996 -2.6412 -0.9373  2.7542
  807MOL0     H 6500  11.585   3.255  10.148  1.2664  0.0918 -1.3822
  807MOL0     H 6501  11.567   3.425  10.120  0.7891  1.3153 -2.8748
  807MOL0     H 6502  11.753   3.320   9.991  1.4408  4.0268 -1.8598
  807MOL0     H 6503  11.630   3.242   9.886  2.0042 -1.2360  0.7085
  807MOL0     H 6504  11.658   3.532   9.946  0.9340 -2.0315  1.5568
  807MOL0     H 6505  11.539   3.463   9.821 -1.0071  0.3464  0.5622
  807MOL0     H 6506  10.696   3.540  10.084  2.0392 -1.6267 -1.3058
  807MOL0     H 6507  10.447   3.522  10.062  0.4443  0.0742 -1.5126
  807MOL0     H 6508  10.100   3.165  10.065 -3.3011 -3.7185  1.1279
  807MOL0     H 6509   9.888   3.095  10.032  0.2030  0.4643  1.0077
  807MOL0     H 6510  10.706   3.501  10.437 -0.6428  1.1272  0.6977
  807MOL0     H 6511  10.951   3.554  10.371  2.4131 -2.7122  0.5314
  807MOL0     H 6512  11.410   3.633  10.579  3.5717  0.8428  3.3984
  807MOL0     H 6513  11.617   3.750  10.597 -0.8311 -0.2831 -1.1921
  807MOL0     H 6514  11.790   3.878  10.559 -1.5647 -0.3257  1.1110
  807MOL0     H 6515  11.742   3.939  10.717 -0.6226 -0.6525  0.1374
  807MOL0     H 6516  11.866   4.157  10.647  0.7699  0.7536 -0.6116
  807MOL0     H 6517  11.980   4.022  10.653 -1.0475 -2.2571  1.1102
  807MOL0     H 6518  11.857   4.143  10.395  0.4267  0.5538  0.6494
  807MOL0     H 6519  11.956   4.000  10.398 -2.2507 -1.1594  0.8372
  807MOL0     H 6520  12.019   4.293  10.499  1.6741  1.3608 -0.6480
  807MOL0     H 6521  12.125   4.145  10.523 -0.5941 -3.8582 -2.1236
  807MOL0     H 6522  12.257   4.328  10.179  1.4318 -0.3135  0.7366
  807MOL0     H 6523  11.422   4.128  10.500  2.8469 -0.0280  0.3376
  807MOL0     H 6524  11.213   4.012  10.519  0.5290  0.0695 -2.6003
  808MOL0     O 6525   3.984   4.266   7.936  0.2450 -0.0845  0.3237
  808MOL0     C 6526   4.023   4.377   7.949 -0.4029 -0.7398  0.3216
  808MOL0     O 6527   3.947   4.487   7.944 -0.1042  0.2633  0.3599
  808MOL0     C 6528   3.817   4.463   7.909  0.4362 -0.4965 -0.2623
  808MOL0     C 6529   3.711   4.519   7.985 -0.1393  0.2555 -0.5954
  808MOL0     C 6530   3.582   4.500   7.946 -0.1244 -0.1927  0.7445
  808MOL0     C 6531   3.550   4.445   7.825  0.1358 -0.0966 -0.5319
  808MOL0     O 6532   3.425   4.431   7.786  0.1139 -0.4406  0.5293
  808MOL0     C 6533   3.390   4.479   7.653  0.1124  0.4685 -0.4351
  808MOL0     C 6534   3.241   4.464   7.630 -0.4361 -0.1373 -0.0814
  808MOL0     C 6535   3.181   4.331   7.691 -0.9572  0.1553  0.3666
  808MOL0     C 6536   3.059   4.285   7.604 -0.5152  0.2647 -0.5343
  808MOL0     C 6537   2.971   4.177   7.661  0.2090  0.4785  0.2994
  808MOL0     C 6538   2.933   4.196   7.811  0.5138  0.2767  0.4225
  808MOL0     C 6539   2.820   4.092   7.841 -0.2035 -0.2751  0.7785
  808MOL0     C 6540   2.766   4.112   7.990 -0.8334 -0.2923  0.1823
  808MOL0     N 6541   2.641   4.050   8.005  0.2361 -0.3433  0.0164
  808MOL0     C 6542   2.614   3.914   8.019 -0.5717  0.3183 -0.3247
  808MOL0     C 6543   2.483   3.903   8.046  0.0098 -0.0980  0.8124
  808MOL0     C 6544   2.397   3.776   8.065 -0.1458 -0.5038  0.0259
  808MOL0     C 6545   2.256   3.805   8.000 -0.0355  0.6293 -0.2763
  808MOL0     C 6546   2.163   3.700   8.067  0.0868 -0.2633  0.5397
  808MOL0     C 6547   2.014   3.700   8.025 -0.4413 -0.9375 -1.0539
  808MOL0     O 6548   1.946   3.610   8.113  0.3987  0.0107 -0.2424
  808MOL0     C 6549   1.812   3.621   8.120 -0.1746  0.3382  0.1655
  808MOL0     C 6550   1.725   3.697   8.037 -0.2397 -0.2391  1.0166
  808MOL0     C 6551   1.588   3.707   8.060 -0.1958  0.8585  0.0791
  808MOL0     C 6552   1.527   3.638   8.168 -0.3085 -0.2168 -0.6118
  808MOL0     C 6553   1.381   3.642   8.177 -0.2247  0.1890  0.0756
  808MOL0     O 6554   1.317   3.758   8.145  0.0574  1.0734  0.2887
  808MOL0     C 6555   1.184   3.763   8.183 -0.4788 -0.4732 -0.6484
  808MOL0     C 6556   1.088   3.753   8.088  0.4733  1.3905  0.2429
  808MOL0     C 6557   0.952   3.748   8.125  0.2950  0.3142  0.3163
  808MOL0     C 6558   0.912   3.761   8.257  0.5753 -0.1104  0.5435
  808MOL0     O 6559   0.773   3.746   8.296 -0.3080  0.6288  0.4439
  808MOL0     C 6560   0.741   3.625   8.352  0.3644  0.7281  0.8063
  808MOL0     C 6561   0.592   3.636   8.392 -0.7640 -0.2515 -0.6336
  808MOL0     C 6562   0.552   3.496   8.441 -0.8550  0.3411 -0.9135
  808MOL0     C 6563   0.402   3.489   8.440 -0.2954 -0.7918 -0.4390
  808MOL0     C 6564   0.340   3.487   8.581 -0.2280  0.1602  0.2288
  808MOL0     C 6565   0.184   3.465   8.561  0.2098 -0.2140  0.1671
  808MOL0     C 6566   0.111   3.510   8.693  0.1176 -0.3555  0.5167
  808MOL0     C 6567  -0.030   3.463   8.707  1.4487 -0.8742  0.4676
  808MOL0    Cl 6568  -0.121   3.536   8.571  0.1053  0.6532 -0.2157
  808MOL0     C 6569   1.010   3.803   8.350  0.6878  0.0414 -0.2193
  808MOL0     C 6570   1.148   3.794   8.322 -0.1018  0.3086  0.7321
  808MOL0     O 6571   1.327   3.544   8.227  0.2360 -0.3430 -0.5407
  808MOL0     C 6572   1.609   3.558   8.263 -1.1363 -0.4349 -0.0716
  808MOL0     C 6573   1.750   3.557   8.228 -0.0832  0.7627  0.1352
  808MOL0     N 6574   2.436   4.029   8.065  0.3582  0.1139  0.1771
  808MOL0     N 6575   2.525   4.114   8.040 -0.8038 -0.4213  0.9155
  808MOL0     C 6576   3.642   4.385   7.743 -1.0284  0.2742  0.6469
  808MOL0     C 6577   3.778   4.398   7.788 -0.1601  0.2125  0.8329
  808MOL0     C 6578   4.167   4.403   7.987 -1.0410 -1.1008 -0.3254
  808MOL0     C 6579   4.261   4.298   7.972  0.7693  0.1508 -0.2781
  808MOL0     C 6580   4.395   4.313   8.016  0.2059 -0.6410  0.3918
  808MOL0     C 6581   4.443   4.434   8.058 -0.0274  0.2572  0.4571
  808MOL0     O 6582   4.578   4.435   8.082  0.3196 -0.7360 -0.1411
  808MOL0     C 6583   4.649   4.555   8.106 -0.9194 -0.9962 -0.0137
  808MOL0     C 6584   4.714   4.567   8.241  0.0354 -0.1841 -0.3146
  808MOL0     C 6585   4.853   4.507   8.263  0.6507  0.1269  0.8772
  808MOL0     C 6586   4.925   4.537   8.396  0.1766  0.0607  0.3435
  808MOL0     C 6587   5.054   4.477   8.396  1.3056  0.6573  0.1040
  808MOL0     C 6588   5.161   4.424   8.408 -0.5850 -0.6651  0.2389
  808MOL0     C 6589   4.348   4.537   8.071  1.1625 -0.5676  0.2210
  808MOL0     C 6590   4.212   4.526   8.034  0.6340 -0.2639  0.2352
  808MOL0     H 6591   3.736   4.577   8.072  1.2133 -1.8756  0.5420
  808MOL0     H 6592   3.497   4.528   8.008 -0.4933  1.1299 -0.2917
  808MOL0     H 6593   3.452   4.437   7.572  2.5944  1.3721  0.8862
  808MOL0     H 6594   3.412   4.586   7.655  2.1133  0.1066 -0.0233
  808MOL0     H 6595   3.235   4.473   7.521 -2.3462  3.4363  0.1533
  808MOL0     H 6596   3.187   4.554   7.662  2.4033  1.2905  1.0443
  808MOL0     H 6597   3.146   4.339   7.794 -0.8091 -1.9409  0.6263
  808MOL0     H 6598   3.262   4.258   7.680  0.2390  1.5098 -0.2038
  808MOL0     H 6599   3.004   4.375   7.577 -0.5930  0.4092  0.0725
  808MOL0     H 6600   3.094   4.258   7.504  0.0956  0.4631 -0.3733
  808MOL0     H 6601   3.022   4.081   7.653 -2.3073 -0.8258 -1.0052
  808MOL0     H 6602   2.888   4.172   7.590  1.0239 -2.0480 -0.5915
  808MOL0     H 6603   2.917   4.302   7.833  0.1068  0.2113  0.4431
  808MOL0     H 6604   3.016   4.181   7.880  0.5374 -0.8045  0.1784
  808MOL0     H 6605   2.736   4.095   7.771 -1.8912 -1.4439  2.6371
  808MOL0     H 6606   2.861   3.991   7.834  0.4162 -0.3234  3.7190
  808MOL0     H 6607   2.739   4.218   7.998 -0.5189 -0.2507  0.7699
  808MOL0     H 6608   2.827   4.067   8.069 -1.8525  3.2237  3.2292
  808MOL0     H 6609   2.691   3.838   8.005  0.7399  1.7547 -1.2731
  808MOL0     H 6610   2.384   3.749   8.170 -1.0066 -0.1894  0.0083
  808MOL0     H 6611   2.450   3.698   8.009  1.3892  0.9978 -0.6874
  808MOL0     H 6612   2.264   3.787   7.892  0.4015  0.0686 -0.1572
  808MOL0     H 6613   2.209   3.902   8.017  0.5741  0.8016  0.5033
  808MOL0     H 6614   2.208   3.604   8.041  0.7517  0.4584 -1.1070
  808MOL0     H 6615   2.168   3.707   8.176 -2.0191 -2.6608  0.8872
  808MOL0     H 6616   2.008   3.680   7.918  0.1444 -4.1506 -0.5674
  808MOL0     H 6617   1.985   3.805   8.039  3.2899 -0.1207  2.6418
  808MOL0     H 6618   1.746   3.759   7.950 -1.0407 -2.3125 -0.7535
  808MOL0     H 6619   1.515   3.762   8.001 -2.2650 -1.7328  0.0308
  808MOL0     H 6620   1.129   3.745   7.988  0.8591 -1.0955  0.5522
  808MOL0     H 6621   0.863   3.740   8.063 -0.6877  2.4825  1.3147
  808MOL0     H 6622   0.798   3.603   8.442 -0.6400 -1.2535  1.0026
  808MOL0     H 6623   0.753   3.540   8.284 -2.2110 -0.1301  1.3172
  808MOL0     H 6624   0.530   3.660   8.305 -1.4326  1.1578  0.1917
  808MOL0     H 6625   0.565   3.721   8.455 -0.7632  1.2353 -2.5427
  808MOL0     H 6626   0.595   3.488   8.541  2.0558  0.8337 -2.0397
  808MOL0     H 6627   0.577   3.408   8.382  0.0794  1.4214 -2.2022
  808MOL0     H 6628   0.355   3.576   8.392 -0.1404 -0.5624 -0.1781
  808MOL0     H 6629   0.377   3.396   8.389  3.5104 -1.0047 -2.2626
  808MOL0     H 6630   0.365   3.584   8.624  3.3890 -1.0232  1.1772
  808MOL0     H 6631   0.381   3.419   8.657 -2.7547 -3.1291 -1.0869
  808MOL0     H 6632   0.162   3.361   8.537 -2.7511  0.6448 -1.3961
  808MOL0     H 6633   0.152   3.517   8.470  2.4606 -0.9753 -1.1251
  808MOL0     H 6634   0.172   3.465   8.772 -0.1728 -1.1270  0.3037
  808MOL0     H 6635   0.119   3.618   8.713  1.6176  0.1835 -2.3910
  808MOL0     H 6636  -0.073   3.512   8.794  0.5126 -0.3533 -0.2700
  808MOL0     H 6637  -0.038   3.354   8.717 -0.4000 -0.9543 -1.1674
  808MOL0     H 6638   0.978   3.832   8.450 -1.8392  3.2277 -1.7858
  808MOL0     H 6639   1.230   3.814   8.389  0.3321  4.8623 -0.8182
  808MOL0     H 6640   1.567   3.517   8.354 -0.6361  2.0920  1.4142
  808MOL0     H 6641   1.819   3.500   8.291 -3.1388 -1.0296  2.1309
  808MOL0     H 6642   3.617   4.351   7.643  0.6501  5.0123 -1.6935
  808MOL0     H 6643   3.854   4.360   7.721 -2.1161 -2.8733  0.1419
  808MOL0     H 6644   4.227   4.204   7.931  0.2095 -0.1020  0.7365
  808MOL0     H 6645   4.466   4.231   8.015  1.5399  0.4783  0.4178
  808MOL0     H 6646   4.590   4.646   8.093 -2.3397 -1.8451  0.3447
  808MOL0     H 6647   4.729   4.566   8.032 -2.6379  2.1096 -1.6164
  808MOL0     H 6648   4.725   4.670   8.276  0.3252 -0.1685 -0.4507
  808MOL0     H 6649   4.642   4.520   8.308  0.5881  0.7682  0.9754
  808MOL0     H 6650   4.906   4.550   8.177 -1.3995 -0.4430 -0.7315
  808MOL0     H 6651   4.847   4.400   8.244 -1.5617  0.1024  1.5240
  808MOL0     H 6652   4.936   4.645   8.413 -2.9799  0.5639 -0.2622
  808MOL0     H 6653   4.868   4.495   8.479 -4.0300  2.8811 -0.8091
  808MOL0     H 6654   5.259   4.381   8.399  0.1385  1.2289 -1.9490
  808MOL0     H 6655   4.374   4.631   8.118 -0.3368 -0.1340  0.2269
  808MOL0     H 6656   4.143   4.609   8.045 -0.5435 -1.3071  1.1022
  809MOL0     O 6657   1.887   6.294   0.421  0.2900 -0.4339  0.6597
  809MOL0     C 6658   1.867   6.414   0.448 -0.0231 -0.8175 -0.3153
  809MOL0     O 6659   1.757   6.492   0.433  0.4503 -0.1296  0.1584
  809MOL0     C 6660   1.648   6.419   0.404 -0.4185  0.0506 -0.7652
  809MOL0     C 6661   1.590   6.421   0.273 -0.0528 -0.2802 -0.4296
  809MOL0     C 6662   1.471   6.350   0.248 -0.0370  0.1726  0.3784
  809MOL0     C 6663   1.392   6.302   0.350  1.0787 -0.4861 -0.1729
  809MOL0     O 6664   1.278   6.247   0.309  0.3869 -0.4930 -0.2529
  809MOL0     C 6665   1.237   6.127   0.367 -0.3540 -0.5861  0.7804
  809MOL0     C 6666   1.089   6.100   0.355  0.9740  0.4077 -0.3462
  809MOL0     C 6667   1.063   5.951   0.391  0.5881 -1.3512 -0.1696
  809MOL0     C 6668   0.927   5.897   0.346 -0.0842  0.0819  0.2564
  809MOL0     C 6669   0.930   5.744   0.304 -0.0277  0.1285  0.9723
  809MOL0     C 6670   0.812   5.709   0.222 -0.0363  0.6696  1.1680
  809MOL0     C 6671   0.828   5.570   0.148 -0.6360 -0.6807  0.3052
  809MOL0     C 6672   0.704   5.533   0.059  0.5251 -0.7854  0.1266
  809MOL0     N 6673   0.577   5.517   0.131  0.3071 -0.0844  0.3742
  809MOL0     C 6674   0.456   5.463   0.074 -0.3382  0.4379  0.3678
  809MOL0     C 6675   0.366   5.449   0.176  0.2315 -0.5842 -0.1524
  809MOL0     C 6676   0.230   5.395   0.169  0.3231  0.1056  0.1898
  809MOL0     C 6677   0.134   5.510   0.131 -0.0080 -0.4262  0.0515
  809MOL0     C 6678  -0.002   5.452   0.091 -0.9952 -0.4548  0.0314
  809MOL0     C 6679  -0.103   5.494   0.204 -0.0628  0.7664  0.5136
  809MOL0     O 6680  -0.233   5.432   0.192 -1.0275 -0.0888 -0.4177
  809MOL0     C 6681  -0.330   5.459   0.282  0.2753  0.2095  0.6532
  809MOL0     C 6682  -0.454   5.398   0.272  0.5583 -0.3364  0.6135
  809MOL0     C 6683  -0.551   5.424   0.364 -0.0440  0.1953  0.7967
  809MOL0     C 6684  -0.524   5.502   0.474  0.2463 -0.0359  0.1552
  809MOL0     C 6685  -0.625   5.512   0.584  1.1114 -0.0727 -0.4527
  809MOL0     O 6686  -0.725   5.419   0.599 -0.4127 -0.3368  0.4474
  809MOL0     C 6687  -0.833   5.438   0.684  0.0261 -0.4183 -0.4952
  809MOL0     C 6688  -0.897   5.567   0.681  0.1897  0.0579  0.7914
  809MOL0     C 6689  -1.011   5.582   0.772  0.0015  0.0812  0.6040
  809MOL0     C 6690  -1.056   5.484   0.860  0.1750 -0.3076 -0.1522
  809MOL0     O 6691  -1.170   5.520   0.933 -0.1646 -0.1261 -0.3636
  809MOL0     C 6692  -1.220   5.426   1.031 -0.1678  0.5532 -0.1250
  809MOL0     C 6693  -1.359   5.478   1.082 -0.1492 -0.7895 -0.3066
  809MOL0     C 6694  -1.343   5.623   1.148 -0.7872  0.2436 -0.2749
  809MOL0     C 6695  -1.471   5.650   1.231 -0.7219 -0.3616 -0.5453
  809MOL0     C 6696  -1.449   5.782   1.308 -0.3980 -0.6585  0.1600
  809MOL0     C 6697  -1.562   5.803   1.409  0.4034 -0.3728  1.3794
  809MOL0     C 6698  -1.517   5.886   1.528 -0.1867 -0.3358  0.3959
  809MOL0     C 6699  -1.479   6.026   1.481 -0.4730 -0.7800  0.0459
  809MOL0    Cl 6700  -1.453   6.128   1.635  0.2823 -0.2080 -0.0109
  809MOL0     C 6701  -0.982   5.362   0.866  0.4443  0.2460  0.7146
  809MOL0     C 6702  -0.878   5.339   0.772 -0.2492  0.3287  0.0101
  809MOL0     O 6703  -0.611   5.609   0.659  0.3470  0.3192 -0.2594
  809MOL0     C 6704  -0.408   5.576   0.483  0.1891  0.2921 -0.2994
  809MOL0     C 6705  -0.309   5.554   0.390 -0.3909  0.8292 -0.1428
  809MOL0     N 6706   0.428   5.489   0.294  0.5738  0.4552  0.3798
  809MOL0     N 6707   0.558   5.520   0.267  0.2120 -0.8063 -0.1172
  809MOL0     C 6708   1.448   6.295   0.478  0.2611  1.0016  0.7858
  809MOL0     C 6709   1.574   6.355   0.508 -0.4317 -0.3841 -0.2639
  809MOL0     C 6710   1.982   6.488   0.513 -0.1038 -0.0617 -0.2844
  809MOL0     C 6711   1.958   6.603   0.586 -0.4276  0.0488 -0.9117
  809MOL0     C 6712   2.052   6.683   0.644 -0.5752  0.3115 -0.3504
  809MOL0     C 6713   2.185   6.643   0.630  0.0891  1.4152  0.0875
  809MOL0     O 6714   2.278   6.726   0.680  0.2235  0.6001 -0.7524
  809MOL0     C 6715   2.401   6.670   0.725 -0.1607  1.1655  0.6590
  809MOL0     C 6716   2.471   6.769   0.817  0.2075  0.2581  0.0207
  809MOL0     C 6717   2.598   6.715   0.868 -0.2329  0.2856  0.7893
  809MOL0     C 6718   2.669   6.808   0.969 -0.0683  0.5600  0.2117
  809MOL0     C 6719   2.584   6.834   1.086 -1.2082 -0.5370  0.7486
  809MOL0     C 6720   2.501   6.858   1.163 -0.2973 -1.4609  0.4090
  809MOL0     C 6721   2.217   6.519   0.559  0.1261 -0.3252 -0.0952
  809MOL0     C 6722   2.113   6.442   0.506  0.2346  0.1138  0.5944
  809MOL0     H 6723   1.644   6.478   0.197 -1.9327  1.5940 -0.4871
  809MOL0     H 6724   1.445   6.340   0.144  0.8126 -1.1457  0.2680
  809MOL0     H 6725   1.263   6.121   0.473 -2.6771 -2.5677  1.3230
  809MOL0     H 6726   1.290   6.041   0.325  0.4977 -1.2433  3.0351
  809MOL0     H 6727   1.050   6.125   0.256 -1.8315  0.4590  0.6783
  809MOL0     H 6728   1.029   6.161   0.424 -3.4452 -2.4055 -1.2726
  809MOL0     H 6729   1.067   5.955   0.500  3.1882  0.5662 -0.2316
  809MOL0     H 6730   1.142   5.888   0.350  0.7005 -0.6909 -1.0132
  809MOL0     H 6731   0.849   5.909   0.422 -1.1311 -3.7709  0.0147
  809MOL0     H 6732   0.885   5.955   0.263 -2.1988  0.8622  1.7692
  809MOL0     H 6733   0.932   5.680   0.393 -1.3176  0.7542  1.4807
  809MOL0     H 6734   1.019   5.729   0.243 -2.1547 -0.9568 -2.1627
  809MOL0     H 6735   0.794   5.776   0.138 -0.6379 -3.1023 -1.9935
  809MOL0     H 6736   0.730   5.706   0.294 -1.3936 -1.2813 -0.3411
  809MOL0     H 6737   0.915   5.569   0.082 -0.2768 -0.8659  0.7792
  809MOL0     H 6738   0.855   5.491   0.219  2.6526  0.2602  0.2672
  809MOL0     H 6739   0.729   5.436   0.017  0.4926 -2.4653  3.6266
  809MOL0     H 6740   0.695   5.611  -0.017  2.4162 -0.1429  0.4995
  809MOL0     H 6741   0.446   5.428  -0.028 -2.1138  0.5708  0.4638
  809MOL0     H 6742   0.205   5.350   0.266  0.6877 -0.3901  0.0546
  809MOL0     H 6743   0.222   5.314   0.096 -3.0236 -0.6030  1.1448
  809MOL0     H 6744   0.182   5.559   0.046 -2.7551  2.5715  0.0411
  809MOL0     H 6745   0.133   5.583   0.214  0.6194  1.1770 -1.2986
  809MOL0     H 6746  -0.043   5.491  -0.003  2.7703  3.2728 -0.3470
  809MOL0     H 6747   0.004   5.345   0.073  1.4153 -0.5974  1.2830
  809MOL0     H 6748  -0.117   5.603   0.202  3.0365  1.3225  2.4135
  809MOL0     H 6749  -0.060   5.465   0.300 -2.4960  1.3287  1.8508
  809MOL0     H 6750  -0.482   5.321   0.201  0.9897 -0.1826  0.2733
  809MOL0     H 6751  -0.646   5.374   0.349 -0.1244  0.9313 -1.7690
  809MOL0     H 6752  -0.865   5.651   0.620 -1.7591  0.2228 -0.0758
  809MOL0     H 6753  -1.069   5.674   0.768  1.2883  0.9200  0.6924
  809MOL0     H 6754  -1.152   5.422   1.117  2.0813  1.8074 -1.7665
  809MOL0     H 6755  -1.233   5.324   0.993  1.1914  0.2928  0.0780
  809MOL0     H 6756  -1.394   5.410   1.160 -0.9941  1.5717  1.5020
  809MOL0     H 6757  -1.432   5.473   1.001 -1.4448 -2.6603  0.8968
  809MOL0     H 6758  -1.323   5.693   1.067 -2.0552  0.1999 -0.6451
  809MOL0     H 6759  -1.257   5.624   1.216  0.1742  1.9034 -1.4302
  809MOL0     H 6760  -1.562   5.651   1.169  0.5410 -0.8920 -2.4857
  809MOL0     H 6761  -1.492   5.572   1.304 -1.2095 -0.3987 -0.7199
  809MOL0     H 6762  -1.457   5.865   1.237  0.2512 -1.3297 -0.7329
  809MOL0     H 6763  -1.348   5.786   1.351  0.4467  2.8062 -1.7155
  809MOL0     H 6764  -1.592   5.707   1.452 -1.1808  0.1474  1.5182
  809MOL0     H 6765  -1.651   5.845   1.360 -0.3280 -1.9843  1.2683
  809MOL0     H 6766  -1.605   5.898   1.592 -2.0975 -1.4674 -1.8673
  809MOL0     H 6767  -1.438   5.841   1.590 -0.9036  0.2488  1.7740
  809MOL0     H 6768  -1.555   6.068   1.414 -0.0915  0.2116  0.2186
  809MOL0     H 6769  -1.388   6.023   1.419  0.1892 -0.1162  0.9604
  809MOL0     H 6770  -1.010   5.279   0.930 -3.6324  0.4400 -0.5196
  809MOL0     H 6771  -0.813   5.252   0.769  3.0390  2.5461  0.9838
  809MOL0     H 6772  -0.385   5.641   0.567  0.9730 -1.6504  1.0662
  809MOL0     H 6773  -0.211   5.595   0.414  0.5799 -2.2924  1.8682
  809MOL0     H 6774   1.394   6.257   0.563  0.9848 -0.9108  0.4343
  809MOL0     H 6775   1.607   6.352   0.612  0.8579  2.0640 -0.5163
  809MOL0     H 6776   1.856   6.639   0.593  0.0626  1.2540  0.7746
  809MOL0     H 6777   2.033   6.773   0.703 -1.2268 -0.5001  0.7155
  809MOL0     H 6778   2.472   6.641   0.647 -0.4561 -0.1839  0.8620
  809MOL0     H 6779   2.396   6.572   0.774  2.6766  0.4441 -0.3233
  809MOL0     H 6780   2.480   6.870   0.777 -0.3368  0.4624  0.3871
  809MOL0     H 6781   2.410   6.785   0.907 -0.3393  1.1265 -0.4868
  809MOL0     H 6782   2.668   6.701   0.785 -3.2960  2.8046 -2.5854
  809MOL0     H 6783   2.567   6.619   0.909 -0.6142 -0.3652 -0.9464
  809MOL0     H 6784   2.767   6.769   0.997  0.0268  1.0104  0.5235
  809MOL0     H 6785   2.683   6.907   0.926  2.7030  0.0569 -0.2120
  809MOL0     H 6786   2.426   6.884   1.235  1.4693  1.0753  1.4626
  809MOL0     H 6787   2.323   6.495   0.548  0.2510 -0.4561  1.2251
  809MOL0     H 6788   2.143   6.350   0.456 -2.7005 -1.3796  1.3919
  810MOL0     O 6789   9.700   9.016   5.694  0.0697 -0.2183  0.0580
  810MOL0     C 6790   9.714   8.976   5.806  0.7358  0.5180 -0.0892
  810MOL0     O 6791   9.620   8.910   5.870  0.2274  0.1890 -0.8800
  810MOL0     C 6792   9.491   8.891   5.822 -0.2760  0.1777 -0.2991
  810MOL0     C 6793   9.428   8.767   5.839 -0.2047 -1.0581  0.8773
  810MOL0     C 6794   9.301   8.749   5.813 -0.2829 -0.7603 -1.0014
  810MOL0     C 6795   9.220   8.852   5.773  0.6665 -0.2677 -0.0421
  810MOL0     O 6796   9.088   8.823   5.740 -0.3867 -0.3142  0.7088
  810MOL0     C 6797   9.008   8.934   5.702 -0.1416 -0.2966 -0.0406
  810MOL0     C 6798   8.868   8.878   5.694  0.4351 -0.7741  0.5849
  810MOL0     C 6799   8.758   8.975   5.636  0.0150  0.4254 -0.0524
  810MOL0     C 6800   8.629   8.897   5.592 -0.3111  0.2034  0.5773
  810MOL0     C 6801   8.530   9.002   5.528 -0.2559  0.2712  0.2665
  810MOL0     C 6802   8.397   8.955   5.483  0.3100  0.4639 -0.5413
  810MOL0     C 6803   8.389   8.904   5.338 -1.2669 -0.3858 -0.4808
  810MOL0     C 6804   8.258   8.832   5.329  0.6765  0.6617 -0.5583
  810MOL0     N 6805   8.137   8.917   5.344  0.4624 -0.0768 -0.0552
  810MOL0     C 6806   8.070   8.952   5.458 -0.2126  0.8042 -0.3872
  810MOL0     C 6807   7.960   9.020   5.414  0.4484  0.2041 -0.0277
  810MOL0     C 6808   7.863   9.087   5.505  0.2649 -0.4514  0.3349
  810MOL0     C 6809   7.765   9.181   5.416  0.0457 -0.0443  1.0076
  810MOL0     C 6810   7.660   9.250   5.504  0.7383 -0.2684  0.2324
  810MOL0     C 6811   7.567   9.162   5.585  0.1932 -0.0705 -0.4642
  810MOL0     O 6812   7.626   9.137   5.714 -0.2167 -0.1059  0.7045
  810MOL0     C 6813   7.545   9.132   5.823  1.6697  0.1051 -0.0211
  810MOL0     C 6814   7.404   9.085   5.818  0.5805  0.1712 -0.3649
  810MOL0     C 6815   7.329   9.080   5.934  0.3548  0.3806 -0.6674
  810MOL0     C 6816   7.381   9.114   6.055  1.2722  0.9069  0.2528
  810MOL0     C 6817   7.304   9.082   6.179 -0.4515 -0.2479 -0.7881
  810MOL0     O 6818   7.184   9.031   6.149 -0.1288  0.5614  0.2279
  810MOL0     C 6819   7.116   8.965   6.253  0.0580  0.1483 -0.6613
  810MOL0     C 6820   7.113   8.827   6.266 -0.2056 -0.4964  0.7056
  810MOL0     C 6821   7.070   8.766   6.383  0.0269 -0.6409 -0.3798
  810MOL0     C 6822   7.022   8.835   6.495  0.3028 -0.5037 -0.2120
  810MOL0     O 6823   6.974   8.777   6.605  0.3067 -0.0771  0.3415
  810MOL0     C 6824   7.073   8.741   6.700  0.6499 -0.1506  0.2337
  810MOL0     C 6825   7.015   8.775   6.834  0.5653  0.5677  0.1138
  810MOL0     C 6826   7.118   8.747   6.941  0.1618  0.4946 -1.0902
  810MOL0     C 6827   7.145   8.601   6.966 -0.3407  0.3254 -0.4537
  810MOL0     C 6828   7.203   8.570   7.105  0.3007  0.0469 -0.7414
  810MOL0     C 6829   7.336   8.644   7.131  0.7241 -0.1661  0.3534
  810MOL0     C 6830   7.443   8.606   7.025  0.6747  0.3394 -0.3341
  810MOL0     C 6831   7.588   8.640   7.062  0.8984  0.3164 -0.7349
  810MOL0    Cl 6832   7.692   8.585   6.924  0.8251 -0.5313  0.0297
  810MOL0     C 6833   7.017   8.977   6.481 -0.4374  0.4089  0.3038
  810MOL0     C 6834   7.070   9.036   6.367 -0.7286 -0.5241 -0.3288
  810MOL0     O 6835   7.348   9.110   6.292  0.4002  0.3703 -0.2537
  810MOL0     C 6836   7.504   9.163   6.055 -0.8194 -0.2069 -0.2866
  810MOL0     C 6837   7.586   9.172   5.945  0.6421  0.1242 -0.5820
  810MOL0     N 6838   7.963   9.028   5.280 -0.7705 -0.2132  0.0408
  810MOL0     N 6839   8.059   8.961   5.241 -0.2158 -0.5403  0.4595
  810MOL0     C 6840   9.283   8.981   5.751 -0.2305  0.7874 -0.1162
  810MOL0     C 6841   9.412   8.999   5.778 -0.3864  0.4025  0.2167
  810MOL0     C 6842   9.840   9.009   5.878  0.6394 -0.3298 -0.0282
  810MOL0     C 6843   9.954   9.062   5.817  0.8796  0.0818 -0.1748
  810MOL0     C 6844  10.072   9.080   5.887 -0.1633 -0.0089 -0.2447
  810MOL0     C 6845  10.089   9.052   6.019  0.1382 -0.0756  0.7086
  810MOL0     O 6846  10.211   9.092   6.069 -0.0037  0.9840 -0.7006
  810MOL0     C 6847  10.239   9.047   6.201 -0.3307  0.1018  0.7443
  810MOL0     C 6848  10.391   9.086   6.242 -0.2247  0.2510  0.9949
  810MOL0     C 6849  10.440   9.028   6.366  1.0541 -0.0902 -1.0708
  810MOL0     C 6850  10.585   9.062   6.415  0.5117  0.3704  0.1745
  810MOL0     C 6851  10.601   9.210   6.460 -0.2150 -0.9105  0.3813
  810MOL0     C 6852  10.631   9.323   6.492 -0.0285  0.9137 -0.2933
  810MOL0     C 6853   9.972   9.000   6.085  0.2655  0.5991 -0.5675
  810MOL0     C 6854   9.855   8.977   6.011  0.3723  0.6889 -0.9328
  810MOL0     H 6855   9.499   8.688   5.863  1.8111  0.5410  0.4897
  810MOL0     H 6856   9.251   8.654   5.827 -0.9807 -0.2196  0.3151
  810MOL0     H 6857   9.036   8.963   5.600  1.5600 -3.5986 -0.6786
  810MOL0     H 6858   9.019   9.012   5.777  1.8912  0.7079 -1.2826
  810MOL0     H 6859   8.830   8.855   5.794 -0.8084 -0.3083  0.2372
  810MOL0     H 6860   8.871   8.794   5.623  1.7418  0.3808 -0.7940
  810MOL0     H 6861   8.793   9.021   5.543 -2.7430 -0.7783 -1.8300
  810MOL0     H 6862   8.743   9.059   5.703  2.9031  1.1583 -0.1888
  810MOL0     H 6863   8.654   8.815   5.525 -1.9861  1.0510 -1.1784
  810MOL0     H 6864   8.582   8.852   5.679 -0.9730  2.8951  1.7244
  810MOL0     H 6865   8.586   9.049   5.447 -0.9013 -0.0643 -0.3794
  810MOL0     H 6866   8.506   9.074   5.608  0.1536  0.5802  0.1176
  810MOL0     H 6867   8.315   9.026   5.495 -1.5746 -0.9118 -4.0054
  810MOL0     H 6868   8.369   8.871   5.547  0.3585  2.4441  2.2484
  810MOL0     H 6869   8.396   8.989   5.269 -0.4371 -0.0633 -0.0092
  810MOL0     H 6870   8.471   8.837   5.313 -0.5696 -0.1278  0.9877
  810MOL0     H 6871   8.253   8.751   5.402  1.0946 -0.6274 -1.8995
  810MOL0     H 6872   8.249   8.794   5.227  0.0493  3.2752 -1.5522
  810MOL0     H 6873   8.109   8.929   5.557  2.8211 -5.0275 -2.4542
  810MOL0     H 6874   7.920   9.149   5.574  4.5975 -0.0355 -3.1748
  810MOL0     H 6875   7.797   9.012   5.551 -0.6943 -0.3233 -0.7824
  810MOL0     H 6876   7.711   9.127   5.337  2.9088 -2.8303  0.7444
  810MOL0     H 6877   7.811   9.265   5.363 -1.3440 -0.5934 -1.2276
  810MOL0     H 6878   7.697   9.326   5.573  2.1358  0.3667 -1.1463
  810MOL0     H 6879   7.603   9.312   5.433  2.9733  1.4957 -0.1288
  810MOL0     H 6880   7.556   9.067   5.532 -0.4815  0.3651 -1.1232
  810MOL0     H 6881   7.466   9.203   5.599  0.4592 -0.3556  3.4002
  810MOL0     H 6882   7.362   9.038   5.729  0.1651  0.0375 -0.0968
  810MOL0     H 6883   7.228   9.044   5.918  0.7096 -2.3089  2.2285
  810MOL0     H 6884   7.158   8.765   6.189  0.4734  0.5018  0.2788
  810MOL0     H 6885   7.084   8.658   6.380  4.3276 -0.3710  2.3633
  810MOL0     H 6886   7.169   8.792   6.689  1.2975 -1.4118 -0.1301
  810MOL0     H 6887   7.102   8.636   6.689 -0.7098 -0.7039  1.5862
  810MOL0     H 6888   6.926   8.713   6.843 -0.8408  2.5554  0.6207
  810MOL0     H 6889   6.975   8.877   6.827 -1.4671 -0.2561 -1.4399
  810MOL0     H 6890   7.082   8.783   7.038  1.8567 -3.8405  1.4556
  810MOL0     H 6891   7.207   8.803   6.914  0.4383 -0.8679 -3.2480
  810MOL0     H 6892   7.059   8.535   6.964  0.3003 -0.5239 -0.4912
  810MOL0     H 6893   7.215   8.564   6.890  0.9266 -0.6369  1.1040
  810MOL0     H 6894   7.227   8.463   7.097  0.0313 -0.0770  0.0090
  810MOL0     H 6895   7.136   8.587   7.190  0.8703 -2.2238  0.2323
  810MOL0     H 6896   7.363   8.614   7.233 -0.2186 -2.1008  0.0700
  810MOL0     H 6897   7.319   8.752   7.130 -0.7203 -0.3604  0.8666
  810MOL0     H 6898   7.431   8.497   7.023 -1.5840  0.3762  2.9996
  810MOL0     H 6899   7.425   8.654   6.929  3.5308 -0.3787 -1.3385
  810MOL0     H 6900   7.622   8.594   7.156 -0.4391  0.6139 -0.0816
  810MOL0     H 6901   7.591   8.749   7.079 -1.1511 -0.0212  2.8758
  810MOL0     H 6902   7.000   9.032   6.573 -0.9585 -0.0624  0.4998
  810MOL0     H 6903   7.084   9.143   6.365  2.7239 -0.7880  1.5060
  810MOL0     H 6904   7.559   9.193   6.144 -0.2900 -1.0313 -0.3170
  810MOL0     H 6905   7.690   9.205   5.945  1.1450 -1.1570 -3.6630
  810MOL0     H 6906   9.228   9.069   5.721  2.1579  1.8858 -1.5779
  810MOL0     H 6907   9.456   9.098   5.775 -1.1356  0.7802  0.9741
  810MOL0     H 6908   9.942   9.075   5.710  1.6117  2.3193 -0.0229
  810MOL0     H 6909  10.161   9.114   5.835 -1.2684  2.1524 -0.8813
  810MOL0     H 6910  10.214   8.941   6.216 -3.7444  0.5421 -1.1258
  810MOL0     H 6911  10.184   9.099   6.280 -0.4456  1.6567 -0.3238
  810MOL0     H 6912  10.457   9.062   6.158  0.3128 -1.8854  1.9580
  810MOL0     H 6913  10.388   9.196   6.250 -1.2182  0.2336  0.9473
  810MOL0     H 6914  10.444   8.922   6.341  1.4694 -0.3973  0.2375
  810MOL0     H 6915  10.363   9.033   6.444  0.5338 -0.4287 -1.5593
  810MOL0     H 6916  10.613   9.000   6.501 -1.9231  1.0488  1.5521
  810MOL0     H 6917  10.657   9.042   6.334  1.1119  1.3853  0.4338
  810MOL0     H 6918  10.692   9.405   6.525 -1.4574  0.9647  2.4708
  810MOL0     H 6919   9.988   8.969   6.187 -0.8409  1.3878 -0.1424
  810MOL0     H 6920   9.773   8.929   6.065  0.2391  1.9602  0.0599
  811MOL0     O 6921   5.491   1.595   2.671 -0.4379 -0.0145 -0.5488
  811MOL0     C 6922   5.515   1.617   2.787  0.1640 -0.4850 -0.6299
  811MOL0     O 6923   5.435   1.692   2.873 -0.0332  0.3555  0.2518
  811MOL0     C 6924   5.322   1.746   2.813  0.0406  0.2235  0.5731
  811MOL0     C 6925   5.226   1.665   2.743 -0.3381  0.0789 -0.2935
  811MOL0     C 6926   5.103   1.722   2.704 -0.1265 -0.3686  0.0323
  811MOL0     C 6927   5.078   1.868   2.735 -0.4839  0.6695  0.3924
  811MOL0     O 6928   4.964   1.927   2.694  0.4091 -0.6898 -0.3067
  811MOL0     C 6929   4.977   1.953   2.556  0.0711  0.8790 -0.3331
  811MOL0     C 6930   4.847   2.017   2.514 -0.0586 -0.6584  0.6787
  811MOL0     C 6931   4.729   1.924   2.515 -0.1059 -0.2726 -0.3266
  811MOL0     C 6932   4.589   1.994   2.496 -0.6612 -0.0702  0.2862
  811MOL0     C 6933   4.480   1.889   2.489  0.1874 -0.4019 -0.1065
  811MOL0     C 6934   4.339   1.952   2.502 -1.3910 -0.1416  0.1216
  811MOL0     C 6935   4.218   1.860   2.481  0.9497  0.9382  0.3362
  811MOL0     C 6936   4.170   1.803   2.613  0.9294  0.0446 -0.3800
  811MOL0     N 6937   4.076   1.896   2.684 -0.1884  0.2602 -0.2042
  811MOL0     C 6938   3.946   1.919   2.647  0.6108 -0.7283 -0.2719
  811MOL0     C 6939   3.908   2.009   2.744 -0.8897  0.7018 -0.5728
  811MOL0     C 6940   3.770   2.061   2.755  0.1654 -0.3264 -0.2129
  811MOL0     C 6941   3.670   1.946   2.741  0.0050  1.0244  0.0611
  811MOL0     C 6942   3.533   1.961   2.815 -0.0342 -0.1537  0.8584
  811MOL0     C 6943   3.432   1.859   2.776 -0.4986  0.7679  0.0089
  811MOL0     O 6944   3.302   1.901   2.825 -0.1135  0.3581 -0.0981
  811MOL0     C 6945   3.191   1.842   2.788  0.5093  0.0561  0.1202
  811MOL0     C 6946   3.184   1.752   2.673 -0.6973 -0.2749 -0.8209
  811MOL0     C 6947   3.060   1.694   2.642  0.0149 -0.1062 -0.2083
  811MOL0     C 6948   2.945   1.718   2.709  0.1843 -0.1737  0.3526
  811MOL0     C 6949   2.815   1.658   2.653 -0.3076 -0.0604  0.2080
  811MOL0     O 6950   2.697   1.705   2.699 -0.9802 -0.9579 -0.7417
  811MOL0     C 6951   2.578   1.674   2.646 -0.6078 -0.4088  0.3162
  811MOL0     C 6952   2.544   1.536   2.627  0.8034  0.0046  0.0942
  811MOL0     C 6953   2.412   1.502   2.586 -0.2224 -1.0990  0.4729
  811MOL0     C 6954   2.313   1.596   2.582  0.3424  1.0281 -1.0414
  811MOL0     O 6955   2.177   1.563   2.571 -0.4309  0.3312  0.2981
  811MOL0     C 6956   2.130   1.469   2.671 -1.1995  0.0814 -0.3817
  811MOL0     C 6957   2.118   1.549   2.807 -0.0315  0.4116  0.8747
  811MOL0     C 6958   2.025   1.672   2.816  0.1886  0.1276  0.0887
  811MOL0     C 6959   1.879   1.651   2.767 -1.0088  0.0053 -0.3881
  811MOL0     C 6960   1.821   1.780   2.712 -0.1876 -0.3296 -0.5271
  811MOL0     C 6961   1.678   1.753   2.671  1.0274  0.4497  0.7320
  811MOL0     C 6962   1.636   1.835   2.553 -0.1721  0.0781  0.9891
  811MOL0     C 6963   1.608   1.980   2.577  0.1940  0.4464 -0.1166
  811MOL0    Cl 6964   1.483   1.989   2.695 -0.3427  0.0966  0.6562
  811MOL0     C 6965   2.348   1.734   2.590 -0.2229  0.5209  0.5316
  811MOL0     C 6966   2.479   1.765   2.623  0.0039 -0.0610  0.9032
  811MOL0     O 6967   2.829   1.584   2.555  0.8100  0.3363 -0.0130
  811MOL0     C 6968   2.952   1.806   2.820 -0.2615 -0.2398  0.2072
  811MOL0     C 6969   3.077   1.863   2.864 -0.0091 -0.4761  0.0928
  811MOL0     N 6970   4.005   2.012   2.844  0.1093 -0.3785 -0.3175
  811MOL0     N 6971   4.109   1.951   2.806  0.7083 -0.2228  0.6087
  811MOL0     C 6972   5.170   1.941   2.799 -0.8874  0.1406 -0.6046
  811MOL0     C 6973   5.296   1.877   2.835  0.5181 -0.4289  0.0875
  811MOL0     C 6974   5.652   1.577   2.843 -0.1956 -0.8016  0.4078
  811MOL0     C 6975   5.755   1.545   2.759 -0.5026  0.2645  0.2003
  811MOL0     C 6976   5.881   1.506   2.812 -0.7420  0.1927 -0.2872
  811MOL0     C 6977   5.901   1.508   2.957  0.0230  0.2825 -0.2606
  811MOL0     O 6978   6.024   1.502   3.016  0.1400  0.0943  0.3992
  811MOL0     C 6979   6.072   1.369   3.022  0.1376  0.1636  0.6337
  811MOL0     C 6980   6.225   1.375   3.063 -0.5816 -0.3675 -0.3184
  811MOL0     C 6981   6.303   1.390   2.933 -0.1700 -0.1970 -0.4091
  811MOL0     C 6982   6.457   1.367   2.937 -0.1609  0.0649 -0.3131
  811MOL0     C 6983   6.507   1.228   2.963  0.8832  0.1806 -0.3508
  811MOL0     C 6984   6.530   1.119   3.001  0.0150  0.6018 -0.4354
  811MOL0     C 6985   5.794   1.524   3.041 -0.8669 -0.7714  0.4415
  811MOL0     C 6986   5.678   1.570   2.982  0.3432  0.4970 -0.1822
  811MOL0     H 6987   5.264   1.568   2.713  3.8494  2.2740 -3.0358
  811MOL0     H 6988   5.027   1.673   2.644  2.2236  1.4542 -5.0391
  811MOL0     H 6989   4.977   1.855   2.507  0.3303  0.2061  0.9736
  811MOL0     H 6990   5.062   2.013   2.521  2.0029 -2.8482 -2.7714
  811MOL0     H 6991   4.847   2.056   2.412 -0.6115 -2.3086 -0.0014
  811MOL0     H 6992   4.833   2.105   2.577  1.9770  0.8940 -0.9353
  811MOL0     H 6993   4.722   1.862   2.605 -0.2472  0.8652  0.4723
  811MOL0     H 6994   4.742   1.853   2.433 -0.2358 -0.2827 -0.3391
  811MOL0     H 6995   4.563   2.065   2.575  1.9918 -0.0011  1.2057
  811MOL0     H 6996   4.584   2.051   2.403 -0.0274 -0.1333  0.2059
  811MOL0     H 6997   4.496   1.814   2.567  1.6086  1.9265  2.0044
  811MOL0     H 6998   4.494   1.846   2.389  0.0437 -2.1137  0.5780
  811MOL0     H 6999   4.322   2.020   2.418 -1.6530 -1.6455 -1.1007
  811MOL0     H 7000   4.322   2.009   2.594 -2.5940 -0.4994  0.1439
  811MOL0     H 7001   4.137   1.904   2.423 -1.5968 -2.0425  1.3984
  811MOL0     H 7002   4.256   1.770   2.432 -0.7472 -0.3651  1.2939
  811MOL0     H 7003   4.256   1.786   2.678  1.0399 -0.6597 -0.7062
  811MOL0     H 7004   4.121   1.709   2.588  1.3111 -0.6684  1.4652
  811MOL0     H 7005   3.883   1.895   2.562 -1.9237  4.9279 -0.3961
  811MOL0     H 7006   3.752   2.143   2.684 -0.6866  0.1085  0.4804
  811MOL0     H 7007   3.766   2.112   2.852 -2.3690 -1.1005  0.1569
  811MOL0     H 7008   3.714   1.853   2.778 -1.2933  1.0664  1.8547
  811MOL0     H 7009   3.633   1.931   2.639 -1.3861  3.1957  0.1692
  811MOL0     H 7010   3.562   1.964   2.921  0.4358  1.0990  0.7037
  811MOL0     H 7011   3.484   2.056   2.792 -1.5137 -1.2695 -0.8968
  811MOL0     H 7012   3.465   1.767   2.823  3.0272  0.7092 -2.2220
  811MOL0     H 7013   3.433   1.852   2.667 -0.6072  0.8463  0.0021
  811MOL0     H 7014   3.272   1.730   2.614 -0.2400  1.8832 -1.0077
  811MOL0     H 7015   3.066   1.612   2.570  1.2920  0.8059 -1.1992
  811MOL0     H 7016   2.613   1.458   2.659 -0.9560 -2.3268 -1.4909
  811MOL0     H 7017   2.393   1.398   2.563 -2.6487 -0.2981 -1.7545
  811MOL0     H 7018   2.198   1.387   2.695 -0.9482  0.8353  1.7602
  811MOL0     H 7019   2.040   1.418   2.636 -1.0743 -0.1776 -0.3298
  811MOL0     H 7020   2.218   1.587   2.830 -0.2775  0.9394  1.1039
  811MOL0     H 7021   2.099   1.476   2.886  1.7817  0.7183  1.6350
  811MOL0     H 7022   2.059   1.746   2.743 -3.4808  1.3660 -0.5661
  811MOL0     H 7023   2.014   1.705   2.920 -1.9260 -1.0158  0.2944
  811MOL0     H 7024   1.884   1.572   2.692  0.0096  0.6342 -1.0034
  811MOL0     H 7025   1.813   1.611   2.845 -0.6246 -0.7019 -0.4181
  811MOL0     H 7026   1.886   1.807   2.628 -0.4389 -0.0136 -0.6212
  811MOL0     H 7027   1.830   1.866   2.779 -1.5998 -0.9309  0.4891
  811MOL0     H 7028   1.611   1.769   2.757  1.4554 -2.8616  1.8539
  811MOL0     H 7029   1.666   1.648   2.641  1.6528  0.6742 -0.3418
  811MOL0     H 7030   1.711   1.822   2.475  1.0567 -3.6351  2.5281
  811MOL0     H 7031   1.544   1.793   2.510  1.9268 -3.2495 -0.5997
  811MOL0     H 7032   1.577   2.033   2.486  0.0189 -0.9664 -0.9158
  811MOL0     H 7033   1.693   2.035   2.616 -0.7936 -0.1343  3.1503
  811MOL0     H 7034   2.276   1.815   2.589  1.0482  1.6938  1.4498
  811MOL0     H 7035   2.507   1.870   2.625 -0.0158 -0.0684  2.3840
  811MOL0     H 7036   2.872   1.834   2.888  0.8419  2.2607  0.5878
  811MOL0     H 7037   3.087   1.912   2.960 -1.2394  0.3327 -0.1648
  811MOL0     H 7038   5.158   2.043   2.832 -2.1176 -0.7383  1.9428
  811MOL0     H 7039   5.364   1.946   2.885 -0.5122  0.7923 -0.1409
  811MOL0     H 7040   5.741   1.565   2.653 -1.0848 -0.4358  0.1387
  811MOL0     H 7041   5.964   1.508   2.742 -1.5150  1.1905 -1.2086
  811MOL0     H 7042   6.062   1.321   2.924 -0.6383 -1.2226  1.3634
  811MOL0     H 7043   6.015   1.326   3.104 -2.1227  1.9540  0.1206
  811MOL0     H 7044   6.236   1.463   3.126 -3.1298 -0.3351  0.2076
  811MOL0     H 7045   6.264   1.287   3.115 -2.0198 -1.8228 -1.5706
  811MOL0     H 7046   6.281   1.491   2.895  0.2624 -0.4058 -1.2466
  811MOL0     H 7047   6.254   1.318   2.866 -0.9448 -1.0524  1.0411
  811MOL0     H 7048   6.492   1.409   2.842  0.3065 -0.0564 -0.1978
  811MOL0     H 7049   6.496   1.428   3.018 -1.4005  0.5984 -0.1005
  811MOL0     H 7050   6.553   1.021   3.038 -0.1451  0.4425 -0.7490
  811MOL0     H 7051   5.804   1.524   3.149  1.0009  1.9741  0.3680
  811MOL0     H 7052   5.601   1.591   3.056  0.3622  1.2854 -0.3787
  812MOL0     O 7053   0.556   9.082   2.689  0.3814  0.4696 -0.0191
  812MOL0     C 7054   0.611   8.993   2.748 -0.7600 -1.0443  0.4216
  812MOL0     O 7055   0.563   8.864   2.759  0.0309 -0.3083  0.2272
  812MOL0     C 7056   0.434   8.847   2.722  0.6903  0.4806 -0.6019
  812MOL0     C 7057   0.407   8.744   2.623  0.6312 -0.4501 -0.2186
  812MOL0     C 7058   0.280   8.735   2.562 -0.9160 -0.5743  0.3176
  812MOL0     C 7059   0.169   8.805   2.610 -0.7793  0.0271  0.0519
  812MOL0     O 7060   0.044   8.797   2.565  0.3566  0.2531  0.2252
  812MOL0     C 7061   0.017   8.768   2.426 -0.2575 -0.1855 -0.9734
  812MOL0     C 7062  -0.126   8.718   2.422 -0.3993 -0.2754 -0.5668
  812MOL0     C 7063  -0.124   8.577   2.467 -0.2241 -0.0461  0.5398
  812MOL0     C 7064  -0.264   8.516   2.444 -0.3286 -0.5713  0.1045
  812MOL0     C 7065  -0.269   8.377   2.497  0.4684 -0.9120  0.2782
  812MOL0     C 7066  -0.401   8.309   2.471  0.4338 -0.3766  0.0613
  812MOL0     C 7067  -0.534   8.390   2.490 -0.3672 -0.6576  0.1440
  812MOL0     C 7068  -0.568   8.413   2.635 -0.0333  0.4584 -0.1324
  812MOL0     N 7069  -0.686   8.492   2.668 -0.3179 -0.6849  0.9515
  812MOL0     C 7070  -0.690   8.592   2.766  0.3765 -0.5649  0.3641
  812MOL0     C 7071  -0.817   8.647   2.769 -0.1756  0.4846  0.2276
  812MOL0     C 7072  -0.870   8.729   2.877 -0.1710  0.6214 -0.6177
  812MOL0     C 7073  -0.983   8.828   2.838  0.2958  0.3542 -0.1273
  812MOL0     C 7074  -1.076   8.859   2.961  0.1918 -0.1170 -0.4962
  812MOL0     C 7075  -1.200   8.934   2.914 -0.1312 -0.0988 -0.3572
  812MOL0     O 7076  -1.269   8.856   2.813  0.1587  0.0517  0.2652
  812MOL0     C 7077  -1.407   8.861   2.802  0.5060  0.0603 -0.0625
  812MOL0     C 7078  -1.492   8.907   2.894  0.0244  0.0484 -0.1861
  812MOL0     C 7079  -1.632   8.912   2.866  1.1444 -0.4515  0.8751
  812MOL0     C 7080  -1.685   8.843   2.753 -0.0321  0.0352  0.1807
  812MOL0     C 7081  -1.827   8.855   2.722 -0.5888  0.1744  0.0798
  812MOL0     O 7082  -1.878   8.783   2.619  0.1727 -0.4426  0.4294
  812MOL0     C 7083  -2.013   8.795   2.584 -0.1049  0.5706  0.6016
  812MOL0     C 7084  -2.040   8.868   2.467 -1.2012 -0.0646  0.4035
  812MOL0     C 7085  -2.161   8.897   2.429  0.3226  0.0532  0.2591
  812MOL0     C 7086  -2.272   8.853   2.508 -0.0067  0.4316  0.2937
  812MOL0     O 7087  -2.403   8.889   2.466 -0.2490  0.0036  0.2389
  812MOL0     C 7088  -2.519   8.862   2.551 -0.6421 -0.1270 -0.0651
  812MOL0     C 7089  -2.645   8.908   2.471  0.7324 -0.0355 -0.0521
  812MOL0     C 7090  -2.767   8.877   2.554  1.0861 -0.6604 -0.2804
  812MOL0     C 7091  -2.896   8.934   2.488 -0.1925  0.2159  0.1621
  812MOL0     C 7092  -3.020   8.880   2.566  0.3574 -0.9695  0.0177
  812MOL0     C 7093  -3.140   8.982   2.551 -0.4734  1.1815 -0.4926
  812MOL0     C 7094  -3.270   8.899   2.573 -0.0285 -0.1016 -0.9372
  812MOL0     C 7095  -3.292   8.803   2.459 -0.1652  1.1037  0.5949
  812MOL0    Cl 7096  -3.473   8.761   2.451 -0.4868 -0.3755 -0.1529
  812MOL0     C 7097  -2.241   8.794   2.638  0.3271 -0.4391  0.3720
  812MOL0     C 7098  -2.110   8.756   2.670  0.2092  0.0671 -0.0788
  812MOL0     O 7099  -1.895   8.914   2.806 -0.5591  0.0772  0.1045
  812MOL0     C 7100  -1.589   8.777   2.666  0.7457 -0.7060 -0.1722
  812MOL0     C 7101  -1.458   8.785   2.695  0.3494 -0.5069  0.3377
  812MOL0     N 7102  -0.884   8.585   2.658  0.0559  0.7739  0.4674
  812MOL0     N 7103  -0.801   8.495   2.600  1.0191 -0.5451  0.1573
  812MOL0     C 7104   0.189   8.899   2.716  0.7883 -0.0557  0.5219
  812MOL0     C 7105   0.318   8.921   2.767 -0.2634 -0.2373 -0.5180
  812MOL0     C 7106   0.743   9.027   2.798 -0.5491 -0.5029  1.4347
  812MOL0     C 7107   0.838   8.935   2.842 -0.0252  0.2609  0.0656
  812MOL0     C 7108   0.965   8.961   2.884 -0.1637 -0.0725  0.0713
  812MOL0     C 7109   1.002   9.087   2.891 -0.5023  0.7902 -1.0252
  812MOL0     O 7110   1.125   9.110   2.945 -0.3384 -0.0988 -0.2976
  812MOL0     C 7111   1.176   9.242   2.977  0.8620  0.6787  0.0143
  812MOL0     C 7112   1.327   9.241   2.955 -0.3769 -0.3926 -0.0297
  812MOL0     C 7113   1.411   9.160   3.050  0.5571 -0.7178  0.3480
  812MOL0     C 7114   1.551   9.174   2.998 -0.0461  0.3496 -0.4635
  812MOL0     C 7115   1.632   9.067   3.056 -0.2297 -0.2264  0.3899
  812MOL0     C 7116   1.696   8.980   3.117  0.3961  0.4612  1.1176
  812MOL0     C 7117   0.917   9.181   2.845 -0.6752 -0.2938 -0.1867
  812MOL0     C 7118   0.791   9.158   2.795  1.2403  0.4366  0.7174
  812MOL0     H 7119   0.495   8.687   2.593  0.5990  0.7214 -2.8171
  812MOL0     H 7120   0.273   8.663   2.482 -0.2805 -0.0804 -0.1881
  812MOL0     H 7121   0.079   8.692   2.378  0.6663  1.1000 -1.9130
  812MOL0     H 7122   0.024   8.863   2.371  1.9306  2.3182  3.1010
  812MOL0     H 7123  -0.159   8.723   2.318  0.5132 -0.8931 -0.9008
  812MOL0     H 7124  -0.186   8.780   2.489  1.1477 -0.2664  0.8772
  812MOL0     H 7125  -0.093   8.576   2.572 -1.6724  2.3334  1.0655
  812MOL0     H 7126  -0.060   8.515   2.403 -3.8490 -1.2845 -2.2662
  812MOL0     H 7127  -0.344   8.573   2.492 -1.5539 -2.9047  0.9819
  812MOL0     H 7128  -0.286   8.513   2.337  1.5562 -2.0685 -0.2979
  812MOL0     H 7129  -0.264   8.377   2.607 -1.0409 -0.4396  0.3644
  812MOL0     H 7130  -0.188   8.317   2.454  0.1972  0.1168 -1.8036
  812MOL0     H 7131  -0.408   8.212   2.521  0.2981  0.6946  2.2312
  812MOL0     H 7132  -0.393   8.283   2.365 -2.4694  0.1726 -0.3879
  812MOL0     H 7133  -0.530   8.484   2.434 -3.4838 -1.8074 -2.3016
  812MOL0     H 7134  -0.616   8.335   2.442 -1.4988  0.5389  0.6291
  812MOL0     H 7135  -0.485   8.466   2.682 -0.5936 -1.2034  2.9734
  812MOL0     H 7136  -0.589   8.313   2.674 -3.1541  0.6101 -1.1244
  812MOL0     H 7137  -0.610   8.619   2.834  0.6398  0.6280 -0.3900
  812MOL0     H 7138  -0.787   8.782   2.925 -2.6050  2.1891  2.1515
  812MOL0     H 7139  -0.903   8.661   2.956 -0.6095  2.5566  0.9312
  812MOL0     H 7140  -1.036   8.783   2.754 -0.9504 -4.4160  2.8635
  812MOL0     H 7141  -0.948   8.927   2.805 -1.5696  1.3516  0.7051
  812MOL0     H 7142  -1.099   8.768   3.018  1.1593  0.2250  0.4864
  812MOL0     H 7143  -1.025   8.926   3.031 -1.6733  0.1030  0.6995
  812MOL0     H 7144  -1.185   9.040   2.895 -1.6004  0.2378  0.1847
  812MOL0     H 7145  -1.250   8.938   3.012  0.8694 -1.1040  0.2188
  812MOL0     H 7146  -1.462   8.942   2.993 -0.4637 -0.7009  0.2424
  812MOL0     H 7147  -1.697   8.965   2.935 -1.0727 -2.4143  0.4439
  812MOL0     H 7148  -1.956   8.906   2.410 -0.5663  2.2931  2.7059
  812MOL0     H 7149  -2.173   8.961   2.342  0.8508  0.3880  0.4236
  812MOL0     H 7150  -2.511   8.929   2.638  2.4467 -0.5506  0.0842
  812MOL0     H 7151  -2.528   8.757   2.578  1.5619 -1.3997 -3.6415
  812MOL0     H 7152  -2.648   8.854   2.375 -1.1397 -0.8367  0.3993
  812MOL0     H 7153  -2.640   9.013   2.439  0.9497 -0.2704 -0.8294
  812MOL0     H 7154  -2.759   8.919   2.655 -4.2452 -0.9648  0.5695
  812MOL0     H 7155  -2.780   8.770   2.573 -1.9519 -0.0961  1.4693
  812MOL0     H 7156  -2.888   9.043   2.487  1.2608  0.1329  0.0335
  812MOL0     H 7157  -2.907   8.895   2.387 -1.4498  0.2154  0.2878
  812MOL0     H 7158  -2.999   8.869   2.673 -2.4391 -3.8912  0.4475
  812MOL0     H 7159  -3.055   8.782   2.532 -0.5282  0.1981 -2.7187
  812MOL0     H 7160  -3.151   9.019   2.448 -3.3748  1.8693 -0.0101
  812MOL0     H 7161  -3.125   9.064   2.621  1.9495 -0.6535  1.3350
  812MOL0     H 7162  -3.277   8.848   2.670  0.6895  0.5323 -0.5369
  812MOL0     H 7163  -3.346   8.977   2.567  0.0439  0.0302 -0.2485
  812MOL0     H 7164  -3.234   8.711   2.465 -1.8594 -0.0546  0.0867
  812MOL0     H 7165  -3.268   8.850   2.363 -2.2965  0.0258 -0.5318
  812MOL0     H 7166  -2.311   8.778   2.719 -1.1654 -2.2869 -1.1725
  812MOL0     H 7167  -2.081   8.710   2.764 -0.0446  1.5795  0.7812
  812MOL0     H 7168  -1.617   8.729   2.573 -0.2196  1.0812 -0.8550
  812MOL0     H 7169  -1.378   8.736   2.641 -0.0837 -1.1540  0.2750
  812MOL0     H 7170   0.103   8.950   2.759  0.3125 -0.1466 -0.2947
  812MOL0     H 7171   0.330   9.001   2.840 -0.7558  1.2012 -1.9750
  812MOL0     H 7172   0.816   8.829   2.852  1.7055 -0.1191  0.3194
  812MOL0     H 7173   1.028   8.879   2.919  0.3492  0.7739  1.2124
  812MOL0     H 7174   1.149   9.277   3.077 -1.7470  2.1420 -1.0997
  812MOL0     H 7175   1.135   9.317   2.908 -0.2854 -1.3077 -1.5979
  812MOL0     H 7176   1.349   9.198   2.857 -0.5430 -3.5940  1.2065
  812MOL0     H 7177   1.357   9.346   2.965 -1.7656 -0.1605  3.1291
  812MOL0     H 7178   1.383   9.054   3.059 -1.0684 -0.1892  2.6824
  812MOL0     H 7179   1.404   9.206   3.149  0.2616  2.6429 -1.1045
  812MOL0     H 7180   1.569   9.170   2.891 -0.8074  1.1210 -0.6339
  812MOL0     H 7181   1.584   9.273   3.033  3.5501 -0.7136 -0.4378
  812MOL0     H 7182   1.753   8.911   3.176 -1.1415 -1.9174 -0.0584
  812MOL0     H 7183   0.946   9.285   2.852 -0.9869 -0.2457  0.5442
  812MOL0     H 7184   0.731   9.237   2.752  0.7580 -1.6224 -2.7376
  813MOL0     O 7185   1.947   7.022  10.421 -0.0821 -0.2926 -0.7384
  813MOL0     C 7186   1.958   7.009  10.296  0.7520  0.8431  0.2740
  813MOL0     O 7187   2.066   7.046  10.217  0.5029  0.2261 -0.3260
  813MOL0     C 7188   2.170   7.106  10.284 -0.0571  0.7408 -0.4056
  813MOL0     C 7189   2.161   7.240  10.321 -0.0616 -1.2270  0.5853
  813MOL0     C 7190   2.273   7.303  10.379  0.1980  0.5434 -0.5124
  813MOL0     C 7191   2.387   7.238  10.423  0.6117 -0.7888  0.0056
  813MOL0     O 7192   2.471   7.302  10.505 -0.0433  0.2671 -0.6787
  813MOL0     C 7193   2.598   7.247  10.513  0.8567 -0.3978 -0.4244
  813MOL0     C 7194   2.683   7.327  10.609  0.1626  0.5129 -0.2047
  813MOL0     C 7195   2.829   7.276  10.639  0.0424 -0.1855  0.4937
  813MOL0     C 7196   2.911   7.227  10.519 -0.8004  0.1826  0.5023
  813MOL0     C 7197   3.052   7.171  10.571  0.4129  0.8827  0.4466
  813MOL0     C 7198   3.138   7.124  10.452  1.0047 -0.0223 -0.3641
  813MOL0     C 7199   3.260   7.057  10.512  0.1076 -0.6885 -0.2080
  813MOL0     C 7200   3.391   7.038  10.432  1.0554 -0.4766 -0.2905
  813MOL0     N 7201   3.369   6.934  10.330 -0.7534 -0.0529  0.0314
  813MOL0     C 7202   3.381   6.795  10.334  0.7698  0.0053  0.7452
  813MOL0     C 7203   3.323   6.747  10.222 -0.4570 -0.1138  0.4132
  813MOL0     C 7204   3.321   6.597  10.196 -0.1229 -0.3507  0.1361
  813MOL0     C 7205   3.210   6.559  10.097  0.1054  0.5847  0.6453
  813MOL0     C 7206   3.071   6.571  10.158  0.4343  0.3250  0.2543
  813MOL0     C 7207   2.991   6.442  10.148  0.2016 -0.3870 -0.1534
  813MOL0     O 7208   2.865   6.466  10.201 -0.3720 -0.1323 -0.0481
  813MOL0     C 7209   2.761   6.376  10.185 -0.0143  0.3135  0.5950
  813MOL0     C 7210   2.650   6.386  10.266  0.4427 -0.3314 -1.1361
  813MOL0     C 7211   2.537   6.315  10.252 -0.3682  0.4646 -0.3748
  813MOL0     C 7212   2.525   6.221  10.158  0.1850 -0.0670 -0.1893
  813MOL0     C 7213   2.389   6.159  10.129 -0.1471  0.0612 -0.0518
  813MOL0     O 7214   2.388   6.084  10.016 -0.1722  0.1540 -0.7850
  813MOL0     C 7215   2.278   6.022   9.983  0.4401 -0.7809 -0.5782
  813MOL0     C 7216   2.226   5.927  10.067  0.6483 -0.5858 -0.2418
  813MOL0     C 7217   2.127   5.839  10.024 -0.2163 -0.1953 -0.6181
  813MOL0     C 7218   2.068   5.845   9.903 -0.7140  0.7440  0.4225
  813MOL0     O 7219   1.970   5.754   9.883 -0.2667 -0.0110 -0.2078
  813MOL0     C 7220   1.889   5.774   9.770  0.2352 -0.0637  0.0979
  813MOL0     C 7221   1.813   5.642   9.755  0.1194 -0.0650  0.5799
  813MOL0     C 7222   1.723   5.642   9.629  0.6656  0.1572 -0.4460
  813MOL0     C 7223   1.657   5.514   9.587 -0.3421  0.5180 -0.0887
  813MOL0     C 7224   1.532   5.459   9.675  0.0805  0.0938  0.2032
  813MOL0     C 7225   1.515   5.312   9.681  0.1073 -0.2174 -0.7037
  813MOL0     C 7226   1.521   5.245   9.548 -0.2500  0.0860  0.9164
  813MOL0     C 7227   1.480   5.093   9.549  0.3230 -1.2287  0.8735
  813MOL0    Cl 7228   1.309   5.065   9.598 -0.1587 -0.1359  0.0955
  813MOL0     C 7229   2.110   5.946   9.817 -0.9639 -0.2562 -0.0301
  813MOL0     C 7230   2.216   6.031   9.863 -0.1012 -0.0124 -0.1507
  813MOL0     O 7231   2.293   6.194  10.193 -0.1784  0.7866 -0.0423
  813MOL0     C 7232   2.635   6.198  10.067 -0.6136  0.4648  0.0541
  813MOL0     C 7233   2.748   6.273  10.081 -0.5328  0.4530 -0.4557
  813MOL0     N 7234   3.263   6.851  10.152 -0.9542 -0.3090  0.3891
  813MOL0     N 7235   3.306   6.961  10.212 -0.1072 -0.8454 -0.3389
  813MOL0     C 7236   2.395   7.103  10.382 -0.3526 -0.3733  0.2688
  813MOL0     C 7237   2.292   7.041  10.311 -0.1523  0.3824  0.3683
  813MOL0     C 7238   1.842   6.943  10.227 -0.3986 -0.3900  0.6792
  813MOL0     C 7239   1.725   6.902  10.290 -0.3977  0.4002  0.2333
  813MOL0     C 7240   1.622   6.844  10.221  0.5181  0.1653 -0.3346
  813MOL0     C 7241   1.631   6.818  10.084  0.1882 -0.3113 -0.0086
  813MOL0     O 7242   1.537   6.760   9.997 -0.4280  0.5635 -0.9801
  813MOL0     C 7243   1.403   6.720  10.044 -1.4031  0.0757 -0.0346
  813MOL0     C 7244   1.413   6.578  10.094 -0.4865  0.5818  0.8464
  813MOL0     C 7245   1.372   6.480   9.984 -0.3755 -0.2384  0.8710
  813MOL0     C 7246   1.333   6.342  10.047  0.0818 -0.1470  1.3653
  813MOL0     C 7247   1.195   6.349  10.090 -0.3343  0.6444  0.7823
  813MOL0     C 7248   1.078   6.358  10.119 -0.3548  0.1182 -0.4521
  813MOL0     C 7249   1.746   6.861  10.019  0.1993  0.4140  0.0100
  813MOL0     C 7250   1.845   6.928  10.086 -0.9280  0.5999 -0.6707
  813MOL0     H 7251   2.072   7.293  10.288 -0.2340 -1.0497  1.3272
  813MOL0     H 7252   2.277   7.409  10.402  2.3182  0.2398  0.7900
  813MOL0     H 7253   2.640   7.261  10.413  2.0092 -0.1415  0.0787
  813MOL0     H 7254   2.608   7.143  10.545  0.9078  0.2962  1.9773
  813MOL0     H 7255   2.625   7.327  10.701 -2.0199 -1.6333 -1.4604
  813MOL0     H 7256   2.679   7.432  10.579 -2.4757  0.6747  0.4859
  813MOL0     H 7257   2.822   7.187  10.702  2.0699 -1.6741 -1.2221
  813MOL0     H 7258   2.883   7.349  10.701 -0.1389  0.1998  0.2016
  813MOL0     H 7259   2.859   7.152  10.460  0.6010  1.2667 -2.3233
  813MOL0     H 7260   2.928   7.314  10.454  0.3649  0.5464  1.2632
  813MOL0     H 7261   3.027   7.092  10.643 -3.8644  1.6998  0.1484
  813MOL0     H 7262   3.103   7.258  10.614 -1.6118  2.5735 -0.3973
  813MOL0     H 7263   3.165   7.211  10.392  1.5747  0.8670  1.1357
  813MOL0     H 7264   3.082   7.053  10.390  0.5524  0.4142 -0.4618
  813MOL0     H 7265   3.291   7.116  10.599 -1.4303  0.2198 -0.2386
  813MOL0     H 7266   3.227   6.962  10.555 -0.4165 -0.8310 -0.9127
  813MOL0     H 7267   3.486   7.026  10.486  1.2810  0.0646 -0.5677
  813MOL0     H 7268   3.419   7.128  10.376  1.1231 -0.1988  0.1853
  813MOL0     H 7269   3.421   6.740  10.418 -0.7340  1.1406  2.2814
  813MOL0     H 7270   3.294   6.550  10.291 -0.2401  1.1070  0.8504
  813MOL0     H 7271   3.418   6.562  10.159 -0.6462  0.5851 -2.3819
  813MOL0     H 7272   3.223   6.454  10.067  1.0771  1.0348 -0.5720
  813MOL0     H 7273   3.214   6.614  10.003 -0.8410  0.2184  0.3730
  813MOL0     H 7274   3.080   6.604  10.262 -0.9694  3.1089 -0.4388
  813MOL0     H 7275   3.022   6.658  10.115  0.8782  0.6757  0.4441
  813MOL0     H 7276   3.043   6.378  10.220 -0.7234 -4.1156 -2.5502
  813MOL0     H 7277   3.000   6.400  10.048  0.9318 -1.5893  0.3971
  813MOL0     H 7278   2.658   6.464  10.341 -0.8067 -1.7055  0.4960
  813MOL0     H 7279   2.454   6.327  10.321 -1.0718 -2.6486 -0.5343
  813MOL0     H 7280   2.265   5.906  10.165 -4.1301 -1.0106  1.8407
  813MOL0     H 7281   2.082   5.766  10.091 -1.5269  1.2576  0.1301
  813MOL0     H 7282   1.953   5.795   9.683 -1.9008 -0.3876 -1.6268
  813MOL0     H 7283   1.826   5.863   9.769  0.1599 -0.0585  1.7604
  813MOL0     H 7284   1.750   5.627   9.842  1.0139  2.4235  1.7626
  813MOL0     H 7285   1.889   5.563   9.761 -1.6246 -1.8336  0.4154
  813MOL0     H 7286   1.793   5.671   9.550  3.6570  0.5707  2.1469
  813MOL0     H 7287   1.639   5.711   9.636 -0.2611 -1.1090  2.6430
  813MOL0     H 7288   1.626   5.523   9.482  1.8340  1.4478 -0.6876
  813MOL0     H 7289   1.743   5.446   9.588 -1.4975 -1.0096 -0.4259
  813MOL0     H 7290   1.443   5.509   9.637  1.4511  1.3896 -1.4667
  813MOL0     H 7291   1.550   5.486   9.779 -2.2853 -0.8099  0.9165
  813MOL0     H 7292   1.426   5.296   9.743  2.7338  0.4689  3.6774
  813MOL0     H 7293   1.605   5.277   9.732  1.1533  1.2931 -1.4480
  813MOL0     H 7294   1.456   5.295   9.476  1.4160  3.5270  1.6140
  813MOL0     H 7295   1.627   5.248   9.522  0.0652  1.0090  2.2095
  813MOL0     H 7296   1.544   5.037   9.617  1.6558 -2.8099 -1.5448
  813MOL0     H 7297   1.500   5.048   9.451  0.5246  2.8877 -1.2013
  813MOL0     H 7298   2.054   5.966   9.727  0.9552 -0.0396 -1.2233
  813MOL0     H 7299   2.256   6.114   9.806  2.2037  1.1716  2.8979
  813MOL0     H 7300   2.631   6.126   9.987  0.2581  1.6144 -1.0612
  813MOL0     H 7301   2.827   6.256  10.010 -1.0612 -2.7736 -0.4179
  813MOL0     H 7302   2.481   7.043  10.410  0.4611  0.0782 -1.1451
  813MOL0     H 7303   2.302   6.941  10.271  0.0488 -0.4700  2.4338
  813MOL0     H 7304   1.704   6.909  10.397  2.5596 -2.9053  1.2360
  813MOL0     H 7305   1.528   6.806  10.260  0.0461  0.2486 -1.3647
  813MOL0     H 7306   1.332   6.728   9.962 -0.8609  0.3074 -0.4925
  813MOL0     H 7307   1.374   6.785  10.127  3.7681  1.5816  0.9455
  813MOL0     H 7308   1.511   6.550  10.134  0.2290 -1.4370 -1.9864
  813MOL0     H 7309   1.338   6.567  10.174 -1.0583 -2.3102  0.0383
  813MOL0     H 7310   1.451   6.468   9.909 -1.9468  2.7160 -1.4753
  813MOL0     H 7311   1.288   6.526   9.931  0.4298  0.7710  0.4280
  813MOL0     H 7312   1.330   6.274   9.961 -0.1942  1.0130  0.4216
  813MOL0     H 7313   1.396   6.302  10.127  1.0220 -2.3403 -0.3268
  813MOL0     H 7314   0.978   6.354  10.156 -0.8859 -0.0319 -1.8277
  813MOL0     H 7315   1.757   6.850   9.912 -0.2306 -0.5915  0.0559
  813MOL0     H 7316   1.936   6.946  10.030  0.1522 -1.1443  0.4167
  814MOL0     O 7317  10.321   7.766   1.659 -1.0206 -0.2679 -0.1611
  814MOL0     C 7318  10.343   7.727   1.770  1.2968 -0.7218 -1.3536
  814MOL0     O 7319  10.253   7.738   1.878 -0.2363  0.5334  0.5688
  814MOL0     C 7320  10.116   7.767   1.861  0.4880  0.1011  0.4183
  814MOL0     C 7321  10.049   7.782   1.982  0.1558 -0.1266 -0.3078
  814MOL0     C 7322   9.912   7.806   1.975  0.2220  0.7558  0.0930
  814MOL0     C 7323   9.838   7.806   1.852 -0.3516 -0.0307 -0.1228
  814MOL0     O 7324   9.701   7.835   1.842 -0.6327  0.0089  0.1595
  814MOL0     C 7325   9.617   7.801   1.949 -0.1942  0.8914 -0.8964
  814MOL0     C 7326   9.478   7.802   1.902 -0.4980  0.1008 -0.2743
  814MOL0     C 7327   9.370   7.761   2.003 -0.2563  0.5186 -0.1030
  814MOL0     C 7328   9.252   7.720   1.914 -0.2393 -0.0627  0.0284
  814MOL0     C 7329   9.131   7.683   1.981 -0.6909  0.5466 -0.2383
  814MOL0     C 7330   9.050   7.798   2.048  0.4759 -0.0746  0.9182
  814MOL0     C 7331   8.887   7.773   2.049 -0.1526  0.2328  0.6136
  814MOL0     C 7332   8.823   7.844   2.163 -0.0394 -1.3106 -0.7828
  814MOL0     N 7333   8.711   7.767   2.217  0.2871 -0.1557  0.9126
  814MOL0     C 7334   8.716   7.647   2.276 -0.2469 -0.0068 -0.4567
  814MOL0     C 7335   8.595   7.608   2.310  0.4122 -0.1956  1.0041
  814MOL0     C 7336   8.564   7.485   2.376 -0.2133  0.2209  0.7296
  814MOL0     C 7337   8.515   7.493   2.527 -0.8951 -0.0878  0.8859
  814MOL0     C 7338   8.401   7.582   2.569 -0.6934  0.6320  0.3825
  814MOL0     C 7339   8.279   7.589   2.486  0.6688 -0.8191  0.4414
  814MOL0     O 7340   8.222   7.463   2.488 -0.1801  0.3960  0.2405
  814MOL0     C 7341   8.092   7.451   2.529  0.7407  0.4553 -0.0226
  814MOL0     C 7342   8.028   7.545   2.610  0.3592  0.1624 -0.6995
  814MOL0     C 7343   7.900   7.519   2.658 -0.1603  0.4224 -0.4744
  814MOL0     C 7344   7.830   7.400   2.623 -0.6087  0.9514  0.1751
  814MOL0     C 7345   7.702   7.360   2.667  0.3233  0.5003 -0.2907
  814MOL0     O 7346   7.641   7.240   2.632  0.3419  0.2600 -0.1982
  814MOL0     C 7347   7.509   7.222   2.669  0.6537 -0.1391  0.8747
  814MOL0     C 7348   7.402   7.233   2.572 -0.9099 -0.1938  0.6384
  814MOL0     C 7349   7.274   7.229   2.610  0.3705  0.0298  0.0568
  814MOL0     C 7350   7.239   7.199   2.745 -0.0200 -0.8128 -0.8349
  814MOL0     O 7351   7.105   7.182   2.763 -0.0650  0.2037  0.4283
  814MOL0     C 7352   7.062   7.245   2.879  0.2333  0.6314  0.0667
  814MOL0     C 7353   6.930   7.182   2.908  0.9058  0.7284 -0.4554
  814MOL0     C 7354   6.829   7.229   2.803 -0.0023 -1.0223  0.8056
  814MOL0     C 7355   6.698   7.166   2.818 -0.6539  0.2231 -0.4398
  814MOL0     C 7356   6.581   7.257   2.770 -0.4377  0.2639 -0.6863
  814MOL0     C 7357   6.449   7.217   2.829 -0.1229 -0.2523  0.0133
  814MOL0     C 7358   6.332   7.297   2.768  0.4072  0.1173  0.4317
  814MOL0     C 7359   6.196   7.249   2.804  0.1924 -0.3751 -0.1247
  814MOL0    Cl 7360   6.165   7.305   2.974  0.3186 -0.2640  0.5059
  814MOL0     C 7361   7.341   7.184   2.843 -1.0695 -0.4600  0.0292
  814MOL0     C 7362   7.473   7.195   2.802 -0.1088 -0.0941 -0.8717
  814MOL0     O 7363   7.655   7.438   2.749 -0.8365 -0.1641 -0.0504
  814MOL0     C 7364   7.894   7.316   2.536  0.4643 -0.3470  0.0231
  814MOL0     C 7365   8.027   7.338   2.486  0.6111  0.1352  0.1299
  814MOL0     N 7366   8.517   7.715   2.258 -0.3913  0.1132 -0.0452
  814MOL0     N 7367   8.581   7.815   2.208  0.2073 -0.7067 -0.3106
  814MOL0     C 7368   9.906   7.780   1.735 -0.3640 -0.3391  0.2162
  814MOL0     C 7369  10.041   7.761   1.735  0.4051  0.1403 -0.6106
  814MOL0     C 7370  10.475   7.682   1.813 -0.0111 -0.2039  0.6481
  814MOL0     C 7371  10.583   7.700   1.729 -0.7127  0.2656  1.0577
  814MOL0     C 7372  10.710   7.675   1.780 -0.1639  1.0898  1.0743
  814MOL0     C 7373  10.735   7.629   1.908 -0.4369  0.9861  0.5537
  814MOL0     O 7374  10.852   7.592   1.965 -0.2186 -0.3929  0.4933
  814MOL0     C 7375  10.973   7.644   1.908 -0.4252  0.7397 -0.1885
  814MOL0     C 7376  11.089   7.630   2.015  0.9578  0.4050 -0.5516
  814MOL0     C 7377  11.219   7.716   1.991  0.8155  0.7211  0.0240
  814MOL0     C 7378  11.351   7.667   2.064  0.4708 -0.5061  0.1453
  814MOL0     C 7379  11.379   7.535   2.015 -0.4934  0.0392  0.1005
  814MOL0     C 7380  11.401   7.422   1.969  0.8094  0.0762 -0.1120
  814MOL0     C 7381  10.624   7.594   1.981  0.1279  0.8562  1.0508
  814MOL0     C 7382  10.493   7.615   1.940  0.8337 -0.7226  0.3800
  814MOL0     H 7383  10.089   7.793   2.082  0.0201  1.4430 -0.4053
  814MOL0     H 7384   9.861   7.826   2.069 -1.8277 -2.1832 -0.2811
  814MOL0     H 7385   9.632   7.867   2.035  0.0290 -1.1151  0.6839
  814MOL0     H 7386   9.643   7.707   1.998  0.2754  1.3285 -0.2918
  814MOL0     H 7387   9.474   7.752   1.805 -0.2041  3.1741 -2.0139
  814MOL0     H 7388   9.455   7.904   1.870 -0.5523 -0.7399 -3.2371
  814MOL0     H 7389   9.348   7.845   2.070 -0.0074 -0.1714  0.8567
  814MOL0     H 7390   9.397   7.675   2.064  0.0082  0.6385 -0.0452
  814MOL0     H 7391   9.223   7.797   1.842  0.3389  0.4980  0.3779
  814MOL0     H 7392   9.281   7.629   1.861  0.5181 -1.4032  2.5514
  814MOL0     H 7393   9.150   7.612   2.062 -1.2878  0.0929 -0.4892
  814MOL0     H 7394   9.065   7.633   1.909 -1.4899 -2.4773  2.3754
  814MOL0     H 7395   9.074   7.896   2.007  3.2709 -2.1278 -3.0085
  814MOL0     H 7396   9.092   7.816   2.148 -0.4659 -0.9738  1.4989
  814MOL0     H 7397   8.850   7.809   1.953  0.8784 -0.5507 -0.0985
  814MOL0     H 7398   8.876   7.664   2.062 -1.1967  0.4261  1.5218
  814MOL0     H 7399   8.801   7.947   2.133 -1.2607 -1.2263  0.3144
  814MOL0     H 7400   8.896   7.861   2.242 -0.3932 -0.8486 -0.5462
  814MOL0     H 7401   8.811   7.595   2.289 -0.9793 -1.7276 -1.5856
  814MOL0     H 7402   8.648   7.422   2.348 -0.1606  1.5002 -2.4855
  814MOL0     H 7403   8.483   7.435   2.322  0.2322 -0.6117  0.8179
  814MOL0     H 7404   8.601   7.527   2.586 -1.8552 -0.3049  2.4591
  814MOL0     H 7405   8.504   7.392   2.566 -0.0452  0.7229  3.4309
  814MOL0     H 7406   8.371   7.556   2.671 -0.5545  1.1890  0.5684
  814MOL0     H 7407   8.441   7.683   2.567  2.1649 -0.3939  0.8500
  814MOL0     H 7408   8.298   7.620   2.383 -1.3860  1.1665  0.5787
  814MOL0     H 7409   8.205   7.664   2.515 -2.6920 -2.1000 -3.7844
  814MOL0     H 7410   8.073   7.630   2.660  0.3205 -1.1899  1.8143
  814MOL0     H 7411   7.859   7.585   2.733 -2.7705 -1.6158  0.0142
  814MOL0     H 7412   7.426   7.254   2.468 -2.1216 -1.8388 -0.0099
  814MOL0     H 7413   7.200   7.229   2.531 -1.3319 -0.9008  1.5616
  814MOL0     H 7414   7.046   7.347   2.844  1.3550  0.0051 -2.5960
  814MOL0     H 7415   7.127   7.234   2.966 -0.3502 -2.8555  0.2240
  814MOL0     H 7416   6.897   7.217   3.007  1.4432  2.0615 -0.7356
  814MOL0     H 7417   6.934   7.073   2.904 -1.2414  0.6088 -0.4852
  814MOL0     H 7418   6.862   7.217   2.699  0.8305 -0.0662  0.9441
  814MOL0     H 7419   6.820   7.337   2.819 -1.6230 -1.2555  1.6362
  814MOL0     H 7420   6.699   7.078   2.753 -2.0162  0.4540 -0.8090
  814MOL0     H 7421   6.696   7.136   2.923  2.7568 -3.4948 -1.1863
  814MOL0     H 7422   6.581   7.263   2.661  2.9184  1.7907 -0.7306
  814MOL0     H 7423   6.611   7.356   2.804  1.7876 -0.6791  0.3405
  814MOL0     H 7424   6.448   7.238   2.936 -2.8335 -0.4895  0.1118
  814MOL0     H 7425   6.446   7.109   2.818  2.9842 -0.5443  1.0467
  814MOL0     H 7426   6.346   7.397   2.810  0.3841 -0.0685  0.8862
  814MOL0     H 7427   6.327   7.302   2.658 -4.6695 -0.0997  0.4164
  814MOL0     H 7428   6.175   7.142   2.798  0.9188 -0.6752  1.7883
  814MOL0     H 7429   6.135   7.311   2.738  1.7775 -1.1138 -2.4118
  814MOL0     H 7430   7.317   7.159   2.946  1.1720 -0.3851  0.6318
  814MOL0     H 7431   7.559   7.179   2.867 -0.7605  0.3797  0.1335
  814MOL0     H 7432   7.857   7.218   2.508  0.4608 -0.3596  0.0715
  814MOL0     H 7433   8.072   7.268   2.417  0.5017  0.8163 -0.6609
  814MOL0     H 7434   9.856   7.770   1.640  2.7381 -0.9159 -1.5137
  814MOL0     H 7435  10.090   7.730   1.643 -1.3442 -1.6546 -1.0116
  814MOL0     H 7436  10.575   7.745   1.630 -1.3874  1.6498  1.7062
  814MOL0     H 7437  10.788   7.686   1.706 -0.5239 -1.5355  0.1831
  814MOL0     H 7438  10.962   7.752   1.890  0.7576  1.0446  0.7828
  814MOL0     H 7439  10.997   7.587   1.818 -3.3014  0.7709 -1.0540
  814MOL0     H 7440  11.043   7.653   2.112  2.4364  1.3894 -0.0562
  814MOL0     H 7441  11.116   7.524   2.023 -1.3389 -0.2959 -1.2346
  814MOL0     H 7442  11.182   7.815   2.022 -2.6585 -0.2704 -0.5454
  814MOL0     H 7443  11.244   7.707   1.885  0.2738 -2.5599  0.0940
  814MOL0     H 7444  11.430   7.739   2.044 -1.1690  1.4576  0.4128
  814MOL0     H 7445  11.337   7.660   2.172 -0.8598 -1.4026 -0.0607
  814MOL0     H 7446  11.425   7.332   1.916  2.4097  1.0762 -1.1879
  814MOL0     H 7447  10.642   7.544   2.076 -1.9168 -0.0555  1.0145
  814MOL0     H 7448  10.402   7.599   1.998 -1.1401  2.3861 -1.5267
  815MOL0     O 7449   8.175   5.177   4.039 -0.0692  0.0408 -0.1710
  815MOL0     C 7450   8.182   5.064   4.088 -0.4105 -0.2893 -0.1421
  815MOL0     O 7451   8.286   4.980   4.083 -0.2708  0.4036  0.1528
  815MOL0     C 7452   8.409   5.038   4.057 -0.0883  0.2098  0.4026
  815MOL0     C 7453   8.457   5.160   4.107  0.4823 -0.1368  0.3619
  815MOL0     C 7454   8.585   5.203   4.069 -0.1398 -0.2942 -0.8421
  815MOL0     C 7455   8.668   5.128   3.989  0.1234 -0.2043  0.3026
  815MOL0     O 7456   8.787   5.175   3.946  0.0457  0.0838  0.1322
  815MOL0     C 7457   8.899   5.179   4.039 -0.0052 -0.8448  0.5688
  815MOL0     C 7458   9.010   5.238   3.967 -0.1997 -0.7594  0.9757
  815MOL0     C 7459   9.141   5.251   4.053  0.7769 -0.1228  0.1490
  815MOL0     C 7460   9.240   5.329   3.975  0.5554  0.5008  1.3344
  815MOL0     C 7461   9.376   5.317   4.038  0.0194 -0.4880 -0.4983
  815MOL0     C 7462   9.459   5.435   3.994  0.5076  0.0258 -0.1421
  815MOL0     C 7463   9.601   5.431   4.054  0.0106 -0.3369  0.4450
  815MOL0     C 7464   9.691   5.552   4.005  0.3605 -0.1307 -0.0410
  815MOL0     N 7465   9.705   5.568   3.864  0.3504  0.4467  0.3654
  815MOL0     C 7466   9.624   5.634   3.774 -0.5497  0.2450  0.3365
  815MOL0     C 7467   9.680   5.621   3.654  0.7405  0.0491  0.3484
  815MOL0     C 7468   9.635   5.679   3.527  0.6977  0.5338  0.1827
  815MOL0     C 7469   9.486   5.673   3.502  0.6107 -0.5631 -0.8399
  815MOL0     C 7470   9.454   5.535   3.449 -0.3500 -0.5725  0.2307
  815MOL0     C 7471   9.310   5.493   3.471 -0.4487 -0.1447 -0.3572
  815MOL0     O 7472   9.277   5.497   3.605 -0.3586 -0.4869 -0.4147
  815MOL0     C 7473   9.144   5.482   3.628 -0.2441  0.4362  0.2656
  815MOL0     C 7474   9.086   5.566   3.726  0.3928  0.6633  0.5114
  815MOL0     C 7475   8.950   5.572   3.752  0.5650  0.2570  0.0898
  815MOL0     C 7476   8.857   5.488   3.685 -0.5306 -0.3637  0.0472
  815MOL0     C 7477   8.715   5.502   3.700 -0.0312 -0.1079 -0.4752
  815MOL0     O 7478   8.632   5.427   3.629  0.8228  0.0134  0.1950
  815MOL0     C 7479   8.499   5.451   3.646 -0.1055  0.6063  0.6420
  815MOL0     C 7480   8.423   5.350   3.716 -0.0447 -0.4129  1.3166
  815MOL0     C 7481   8.294   5.381   3.760  0.0896  0.2289  0.2773
  815MOL0     C 7482   8.241   5.507   3.734  1.1515 -0.4204  0.7919
  815MOL0     O 7483   8.115   5.541   3.771 -0.1789  0.4282  0.5434
  815MOL0     C 7484   8.029   5.440   3.821 -0.1255 -0.4730  0.5705
  815MOL0     C 7485   7.881   5.486   3.813  0.1369 -0.3023  0.2573
  815MOL0     C 7486   7.872   5.628   3.864  0.5636 -0.4186 -0.3853
  815MOL0     C 7487   7.728   5.660   3.902 -0.4203  0.6430 -0.4752
  815MOL0     C 7488   7.690   5.802   3.903  0.8681 -0.1998 -0.2971
  815MOL0     C 7489   7.535   5.814   3.912  0.5594  0.6052 -0.2525
  815MOL0     C 7490   7.487   5.961   3.908 -0.0682 -0.0878 -0.4977
  815MOL0     C 7491   7.340   5.978   3.933  0.1968  0.2512 -0.1986
  815MOL0    Cl 7492   7.317   5.961   4.110 -0.2253  0.2792 -0.1171
  815MOL0     C 7493   8.315   5.603   3.672 -0.2815  0.4059 -0.1821
  815MOL0     C 7494   8.449   5.580   3.634 -0.9958 -0.1527 -0.0917
  815MOL0     O 7495   8.686   5.600   3.769  0.0546  0.3371  0.0943
  815MOL0     C 7496   8.916   5.398   3.595 -0.4512 -0.5606 -0.1882
  815MOL0     C 7497   9.055   5.394   3.568 -0.1375  0.0863 -0.0094
  815MOL0     N 7498   9.786   5.544   3.671  0.1159 -0.4042  0.1930
  815MOL0     N 7499   9.803   5.509   3.792 -0.3821 -0.3642 -0.9780
  815MOL0     C 7500   8.627   5.001   3.947  0.4555  0.3261 -0.2961
  815MOL0     C 7501   8.500   4.965   3.978 -0.2987  0.2190  1.1886
  815MOL0     C 7502   8.053   5.009   4.152 -0.2112 -0.1350  0.4851
  815MOL0     C 7503   8.057   4.912   4.249  0.2024  0.7679  0.7670
  815MOL0     C 7504   7.949   4.836   4.290 -0.2469  0.3281  0.0542
  815MOL0     C 7505   7.827   4.877   4.231  0.4299 -0.4202 -0.3293
  815MOL0     O 7506   7.708   4.807   4.260  0.4148 -0.1240 -0.0064
  815MOL0     C 7507   7.701   4.671   4.290 -0.7836  0.6902 -0.3630
  815MOL0     C 7508   7.555   4.620   4.299 -1.0801 -0.8027  0.6813
  815MOL0     C 7509   7.497   4.612   4.154  0.1014  0.1297  0.2918
  815MOL0     C 7510   7.509   4.471   4.101  0.5208  0.3948  0.8450
  815MOL0     C 7511   7.407   4.381   4.147  0.8865 -0.9497 -0.1064
  815MOL0     C 7512   7.320   4.311   4.185  0.3825  0.8177  0.1856
  815MOL0     C 7513   7.812   4.977   4.139 -0.8329 -0.2874  0.6318
  815MOL0     C 7514   7.930   5.041   4.098  0.2912 -0.6906  0.7046
  815MOL0     H 7515   8.390   5.225   4.162  1.2369  1.9886 -1.1130
  815MOL0     H 7516   8.620   5.300   4.105  2.4346 -1.6163  0.5064
  815MOL0     H 7517   8.936   5.080   4.068 -1.2298 -2.1270 -1.9778
  815MOL0     H 7518   8.873   5.239   4.127  1.7049  0.4170  0.2611
  815MOL0     H 7519   8.984   5.342   3.946 -0.7614 -1.2316 -0.8892
  815MOL0     H 7520   9.040   5.182   3.878 -0.7812  0.7558 -0.2192
  815MOL0     H 7521   9.179   5.153   4.082 -1.0782 -0.3446  2.0565
  815MOL0     H 7522   9.107   5.301   4.145 -1.3894 -0.9323 -0.1535
  815MOL0     H 7523   9.239   5.286   3.874 -1.1971  2.2489  0.5562
  815MOL0     H 7524   9.203   5.432   3.969  2.2762  1.1579  1.3845
  815MOL0     H 7525   9.427   5.226   4.004  0.5427  0.2818 -1.8832
  815MOL0     H 7526   9.374   5.327   4.147  0.6083  2.6536 -0.6708
  815MOL0     H 7527   9.418   5.529   4.031 -1.8480 -1.9340  2.6020
  815MOL0     H 7528   9.464   5.422   3.885 -1.5731 -0.4619 -0.2058
  815MOL0     H 7529   9.600   5.425   4.164  0.7065  0.3776  0.5014
  815MOL0     H 7530   9.651   5.341   4.017 -0.9752 -0.0893 -1.5979
  815MOL0     H 7531   9.789   5.540   4.053 -1.0498 -4.8100  2.2868
  815MOL0     H 7532   9.650   5.646   4.044  1.2361 -0.5060  1.9054
  815MOL0     H 7533   9.535   5.688   3.807 -0.9916 -1.3576  1.9099
  815MOL0     H 7534   9.683   5.638   3.439 -1.6169 -1.0405 -0.4342
  815MOL0     H 7535   9.664   5.784   3.520  2.6715 -0.0883 -2.2589
  815MOL0     H 7536   9.456   5.748   3.429  0.4712  0.7444  0.5044
  815MOL0     H 7537   9.430   5.693   3.594 -0.6150 -0.2054 -1.6394
  815MOL0     H 7538   9.475   5.533   3.341 -1.5467 -3.3344 -0.0352
  815MOL0     H 7539   9.523   5.463   3.494  1.8367  1.9851  1.1974
  815MOL0     H 7540   9.317   5.391   3.435 -0.3750  0.3582 -1.8336
  815MOL0     H 7541   9.248   5.556   3.406 -0.2173  0.6542  0.1836
  815MOL0     H 7542   9.150   5.631   3.786  0.8965  0.4202  0.2465
  815MOL0     H 7543   8.910   5.645   3.821 -3.1188  0.7759 -2.3392
  815MOL0     H 7544   8.469   5.257   3.747 -0.6517 -0.4818  2.0510
  815MOL0     H 7545   8.239   5.299   3.806 -0.1562 -0.7414 -1.6632
  815MOL0     H 7546   8.044   5.419   3.927 -3.0368 -2.0668  0.7575
  815MOL0     H 7547   8.032   5.347   3.764 -0.7436 -0.2969  0.2337
  815MOL0     H 7548   7.816   5.417   3.867  0.0918 -0.9438 -0.5965
  815MOL0     H 7549   7.849   5.484   3.708  1.0402 -2.5031 -0.0354
  815MOL0     H 7550   7.912   5.691   3.783 -0.8310  0.5585 -0.3673
  815MOL0     H 7551   7.930   5.634   3.956 -0.0754 -0.2344  0.0149
  815MOL0     H 7552   7.665   5.591   3.844  0.7601 -0.8270 -0.0652
  815MOL0     H 7553   7.715   5.627   4.006 -1.7353 -3.7088 -1.7975
  815MOL0     H 7554   7.730   5.853   3.815  0.0750 -0.9721 -1.1153
  815MOL0     H 7555   7.732   5.864   3.984  0.3105  1.3099 -1.1186
  815MOL0     H 7556   7.513   5.775   4.013 -1.8718  3.3118  0.3804
  815MOL0     H 7557   7.482   5.749   3.842 -2.5315 -0.4333  2.7689
  815MOL0     H 7558   7.543   6.026   3.976 -1.3227  0.2531  0.2451
  815MOL0     H 7559   7.513   5.993   3.806 -0.7231  0.9239 -0.3620
  815MOL0     H 7560   7.287   5.902   3.876  1.6870 -1.3521  0.4801
  815MOL0     H 7561   7.308   6.080   3.907 -0.1403  0.4063  0.7791
  815MOL0     H 7562   8.271   5.702   3.664  1.9012  1.4294 -0.2729
  815MOL0     H 7563   8.512   5.665   3.607 -1.9398  1.6381  2.8396
  815MOL0     H 7564   8.852   5.329   3.540  2.7690 -3.0335 -1.1631
  815MOL0     H 7565   9.102   5.324   3.500 -0.4327  0.2718 -0.4039
  815MOL0     H 7566   8.690   4.932   3.892 -1.1579  1.6856 -4.2553
  815MOL0     H 7567   8.478   4.863   3.950 -0.3354  0.5505 -0.0265
  815MOL0     H 7568   8.154   4.881   4.286  0.7180 -0.1182 -1.2258
  815MOL0     H 7569   7.955   4.752   4.359 -0.6508 -0.0728 -0.3839
  815MOL0     H 7570   7.751   4.649   4.385 -1.5175  0.6398  0.0225
  815MOL0     H 7571   7.759   4.623   4.211  2.9723  1.3814  1.7129
  815MOL0     H 7572   7.540   4.525   4.352 -1.5752 -0.3927  1.2818
  815MOL0     H 7573   7.508   4.702   4.354  1.5661 -1.0084  3.5531
  815MOL0     H 7574   7.547   4.683   4.088  1.3696 -0.4958  0.5556
  815MOL0     H 7575   7.392   4.645   4.152 -0.0136  0.0609  2.5572
  815MOL0     H 7576   7.506   4.472   3.991 -0.4405  0.3778  0.8603
  815MOL0     H 7577   7.604   4.430   4.136  1.9107  3.3034  0.7281
  815MOL0     H 7578   7.247   4.241   4.222 -1.6409  2.7248  0.0142
  815MOL0     H 7579   7.717   5.002   4.093  0.7769 -1.3181 -3.7286
  815MOL0     H 7580   7.920   5.122   4.026  1.2767  1.6843  3.0394
  816MOL0     O 7581   7.679   7.193   8.139 -0.1152  0.0435 -0.4545
  816MOL0     C 7582   7.703   7.077   8.185  0.2630 -0.4166  0.4848
  816MOL0     O 7583   7.613   7.008   8.264 -0.1301 -0.1361  0.4852
  816MOL0     C 7584   7.478   7.049   8.267 -0.2414 -0.3762  0.5869
  816MOL0     C 7585   7.415   7.040   8.389 -0.0245  0.1376 -0.0509
  816MOL0     C 7586   7.281   7.073   8.398 -0.8869  0.2551 -0.5321
  816MOL0     C 7587   7.190   7.101   8.291  0.1563  0.2398  0.3718
  816MOL0     O 7588   7.056   7.122   8.283  0.4718  0.4191 -0.4357
  816MOL0     C 7589   6.983   7.073   8.396  0.1358  0.4248  1.1155
  816MOL0     C 7590   6.963   7.187   8.502 -0.0441  0.0232  0.0987
  816MOL0     C 7591   6.833   7.165   8.582  0.2164  0.1530  0.3419
  816MOL0     C 7592   6.703   7.205   8.503  0.0623 -0.1282  0.4358
  816MOL0     C 7593   6.590   7.240   8.608 -0.1107  0.0089  0.0858
  816MOL0     C 7594   6.457   7.232   8.538 -0.5147 -0.5300 -0.6241
  816MOL0     C 7595   6.339   7.265   8.627 -0.7725 -0.3202 -0.0803
  816MOL0     C 7596   6.313   7.154   8.729 -0.0725  0.2827  0.7871
  816MOL0     N 7597   6.191   7.173   8.808  0.0697  0.1635 -0.5362
  816MOL0     C 7598   6.069   7.125   8.768  0.2569 -0.0755  0.3864
  816MOL0     C 7599   5.988   7.151   8.874 -0.3826  0.1594 -1.0447
  816MOL0     C 7600   5.842   7.119   8.880  0.1163 -0.4473 -0.0779
  816MOL0     C 7601   5.759   7.227   8.953  0.6000 -1.2274  0.2577
  816MOL0     C 7602   5.616   7.176   8.973 -0.2636  0.3008  0.4448
  816MOL0     C 7603   5.528   7.275   9.055 -0.1016  0.0663  0.6201
  816MOL0     O 7604   5.394   7.263   9.021 -0.7876  0.4208  0.7909
  816MOL0     C 7605   5.298   7.340   9.078  0.4835 -0.3075  0.4642
  816MOL0     C 7606   5.165   7.290   9.078  0.3303 -0.8854  0.4905
  816MOL0     C 7607   5.056   7.343   9.147 -0.3002  0.0784 -0.2995
  816MOL0     C 7608   5.082   7.463   9.218  0.2460 -0.2523  0.2874
  816MOL0     C 7609   4.979   7.544   9.281  0.3852  0.7433  0.1879
  816MOL0     O 7610   4.853   7.490   9.256 -0.2340  0.6297  0.0391
  816MOL0     C 7611   4.736   7.564   9.281 -0.5499 -0.9247 -0.6163
  816MOL0     C 7612   4.727   7.705   9.297  0.1902  0.1269  0.6851
  816MOL0     C 7613   4.595   7.763   9.323 -0.8843 -0.4553 -0.5419
  816MOL0     C 7614   4.481   7.684   9.338  1.2635 -0.2479  0.1622
  816MOL0     O 7615   4.359   7.752   9.339  0.6632  0.1046  0.0160
  816MOL0     C 7616   4.233   7.684   9.308  0.4018  0.0734  0.2193
  816MOL0     C 7617   4.178   7.624   9.442 -0.1832  0.7571  0.0258
  816MOL0     C 7618   4.038   7.553   9.437  0.0274  0.3971  0.5205
  816MOL0     C 7619   3.948   7.565   9.312 -0.0297  0.0329 -1.2531
  816MOL0     C 7620   3.805   7.536   9.335  0.3988  0.7940 -0.0374
  816MOL0     C 7621   3.776   7.400   9.413  0.7208  0.1447 -0.7374
  816MOL0     C 7622   3.832   7.274   9.356  0.2588 -0.1160 -0.3440
  816MOL0     C 7623   3.787   7.134   9.417  0.9850 -0.4206  0.2006
  816MOL0    Cl 7624   3.873   6.985   9.350  0.2367  0.1774  0.2962
  816MOL0     C 7625   4.490   7.543   9.322  0.8039 -0.2080  0.5275
  816MOL0     C 7626   4.622   7.489   9.305  0.4964 -0.7216 -0.9460
  816MOL0     O 7627   5.004   7.634   9.367 -0.2978  0.0038 -0.1006
  816MOL0     C 7628   5.214   7.517   9.217  0.0333 -0.0177 -0.0075
  816MOL0     C 7629   5.322   7.454   9.161  1.1014  0.8773 -0.9737
  816MOL0     N 7630   6.060   7.202   8.971  0.0051 -1.1989 -0.6856
  816MOL0     N 7631   6.180   7.213   8.933 -1.3291  0.5659  0.1144
  816MOL0     C 7632   7.264   7.107   8.173  0.3527 -0.5649 -0.0285
  816MOL0     C 7633   7.404   7.103   8.157 -1.1522  0.2643 -0.8286
  816MOL0     C 7634   7.832   7.015   8.147  0.1274  0.3997 -0.2102
  816MOL0     C 7635   7.865   6.883   8.190 -1.0019  0.5535 -0.2685
  816MOL0     C 7636   7.994   6.831   8.170 -0.4708  0.1111  0.7279
  816MOL0     C 7637   8.084   6.897   8.093 -0.4367  0.2394  0.6344
  816MOL0     O 7638   8.203   6.839   8.067  0.3418  0.2742  0.1101
  816MOL0     C 7639   8.303   6.908   8.002  0.4706  0.1188 -0.8225
  816MOL0     C 7640   8.422   6.809   7.995  0.0544 -0.7928  0.9334
  816MOL0     C 7641   8.532   6.864   7.899 -0.3475  0.3995  0.1105
  816MOL0     C 7642   8.660   6.777   7.888  0.0570  0.5390  0.1505
  816MOL0     C 7643   8.777   6.844   7.823  0.3312 -0.2477 -0.2612
  816MOL0     C 7644   8.870   6.898   7.770  0.7639  0.3081  0.1603
  816MOL0     C 7645   8.054   7.020   8.038  0.1032 -0.4169 -0.1345
  816MOL0     C 7646   7.929   7.080   8.064  0.2019 -0.3754  0.1540
  816MOL0     H 7647   7.467   7.011   8.480  3.1426  3.3015 -0.6243
  816MOL0     H 7648   7.243   7.061   8.499 -0.3872 -0.8091 -0.4547
  816MOL0     H 7649   7.030   6.984   8.439 -1.8561 -1.6018 -0.6882
  816MOL0     H 7650   6.886   7.041   8.359  1.1912  0.2167 -1.6729
  816MOL0     H 7651   6.954   7.285   8.453 -0.2680 -1.0494 -2.1196
  816MOL0     H 7652   7.052   7.193   8.564  0.8108 -2.4739 -0.7797
  816MOL0     H 7653   6.839   7.234   8.667  0.5666 -0.7848  1.0981
  816MOL0     H 7654   6.828   7.067   8.631  0.7088  0.2099  0.5048
  816MOL0     H 7655   6.714   7.292   8.437  1.8450 -2.3349 -2.4212
  816MOL0     H 7656   6.674   7.113   8.452  0.1306  0.1309 -0.0776
  816MOL0     H 7657   6.606   7.339   8.650  0.7981 -0.5243  1.0560
  816MOL0     H 7658   6.587   7.167   8.690 -2.9720  0.2492  0.2779
  816MOL0     H 7659   6.444   7.126   8.514 -2.3729 -0.8029  1.2860
  816MOL0     H 7660   6.460   7.288   8.444 -0.5203  0.9149  0.2130
  816MOL0     H 7661   6.360   7.359   8.679  0.1854 -1.7578  2.2925
  816MOL0     H 7662   6.249   7.280   8.566  0.7856  1.6188 -2.0580
  816MOL0     H 7663   6.401   7.144   8.793  1.0321 -1.9547 -0.9258
  816MOL0     H 7664   6.312   7.055   8.681  0.6176 -0.0267  1.3909
  816MOL0     H 7665   6.047   7.075   8.674  1.2482 -2.4913  1.3480
  816MOL0     H 7666   5.843   7.020   8.926  1.3694 -0.0436  0.8282
  816MOL0     H 7667   5.798   7.110   8.780 -3.2347  1.1593  1.0776
  816MOL0     H 7668   5.766   7.320   8.897  1.2597  0.0097  2.2753
  816MOL0     H 7669   5.813   7.255   9.044 -0.4287 -0.2945  0.5951
  816MOL0     H 7670   5.565   7.158   8.879 -0.8451 -0.4899  0.9024
  816MOL0     H 7671   5.614   7.082   9.030 -3.2795  0.1737  0.2849
  816MOL0     H 7672   5.558   7.375   9.021 -1.1169  0.3949  0.6803
  816MOL0     H 7673   5.550   7.271   9.162  1.7831  2.3197  0.4065
  816MOL0     H 7674   5.144   7.204   9.015 -1.1751 -1.4936  1.7597
  816MOL0     H 7675   4.964   7.285   9.146  1.6300 -3.2174  0.3927
  816MOL0     H 7676   4.817   7.763   9.284 -0.6366  0.9750 -1.9224
  816MOL0     H 7677   4.604   7.870   9.314  2.1686 -0.7203 -1.8264
  816MOL0     H 7678   4.248   7.601   9.239  1.4421  1.6691 -1.5913
  816MOL0     H 7679   4.166   7.759   9.264 -1.1900 -1.3687  0.0863
  816MOL0     H 7680   4.172   7.709   9.510  0.8834 -0.3006  1.5098
  816MOL0     H 7681   4.245   7.549   9.484  1.6008  1.6524 -1.1041
  816MOL0     H 7682   3.977   7.578   9.525 -0.4062  0.1252  0.3012
  816MOL0     H 7683   4.068   7.448   9.447 -1.8613 -0.2136  0.2205
  816MOL0     H 7684   3.961   7.664   9.267  0.5614 -0.2065 -1.6202
  816MOL0     H 7685   3.976   7.505   9.225  1.9069  2.4363 -2.4146
  816MOL0     H 7686   3.757   7.527   9.237  0.1935  1.4891 -0.0039
  816MOL0     H 7687   3.756   7.621   9.383 -2.0215 -1.0076  0.8849
  816MOL0     H 7688   3.667   7.396   9.427  0.8891 -2.9989  0.4125
  816MOL0     H 7689   3.809   7.413   9.517  0.0489  1.5780 -0.6762
  816MOL0     H 7690   3.810   7.277   9.249 -0.0844  2.4922 -0.2479
  816MOL0     H 7691   3.941   7.278   9.355  0.3210  2.1205  2.3882
  816MOL0     H 7692   3.681   7.123   9.390  1.2845 -2.0836 -0.4055
  816MOL0     H 7693   3.796   7.141   9.526  0.7666  0.1968  0.1881
  816MOL0     H 7694   4.405   7.477   9.336 -0.0854  0.1288 -2.5217
  816MOL0     H 7695   4.628   7.381   9.299 -1.3729 -0.7754 -3.7372
  816MOL0     H 7696   5.239   7.612   9.264 -1.7974  1.4913 -1.9021
  816MOL0     H 7697   5.420   7.491   9.191 -0.1548  1.3818  3.2668
  816MOL0     H 7698   7.195   7.122   8.091 -2.5470  0.3319  2.3902
  816MOL0     H 7699   7.446   7.123   8.059  0.4873 -0.5460 -0.3253
  816MOL0     H 7700   7.795   6.824   8.249  1.7130 -2.3152  0.3471
  816MOL0     H 7701   8.018   6.728   8.195 -0.2016 -0.0822 -0.2833
  816MOL0     H 7702   8.339   7.000   8.050  1.7179 -0.5121 -0.5114
  816MOL0     H 7703   8.278   6.934   7.898  1.1524 -0.1575 -1.0610
  816MOL0     H 7704   8.480   6.807   8.087  3.8527 -1.4776 -1.2343
  816MOL0     H 7705   8.388   6.712   7.955  2.7029 -0.1612 -3.6059
  816MOL0     H 7706   8.563   6.968   7.916 -0.5626  0.7675 -1.6022
  816MOL0     H 7707   8.493   6.845   7.799 -0.8818 -0.0723  0.3992
  816MOL0     H 7708   8.688   6.735   7.985 -0.1013 -0.0497 -0.0567
  816MOL0     H 7709   8.630   6.693   7.825  0.9535 -0.4106  0.9809
  816MOL0     H 7710   8.956   6.949   7.731 -1.0946  0.7314 -3.9169
  816MOL0     H 7711   8.123   7.073   7.974  2.7912 -1.3394  1.8244
  816MOL0     H 7712   7.898   7.174   8.020 -1.8517 -0.8404  0.5044
  817MOL0     O 7713   3.540   5.795   3.638 -0.1937  0.1239 -0.1916
  817MOL0     C 7714   3.566   5.897   3.699 -0.3575 -0.2919  0.0037
  817MOL0     O 7715   3.480   5.989   3.746 -0.4422 -0.2824  0.7072
  817MOL0     C 7716   3.346   5.952   3.754 -0.0805  0.2775 -0.0932
  817MOL0     C 7717   3.303   5.837   3.813  0.7416  0.0340  0.9007
  817MOL0     C 7718   3.165   5.803   3.832 -0.3921 -0.0916  0.3947
  817MOL0     C 7719   3.068   5.892   3.796 -0.6798 -0.7469  0.6200
  817MOL0     O 7720   2.940   5.856   3.828  0.3738  0.0706  0.3338
  817MOL0     C 7721   2.832   5.949   3.832  1.1031  0.5081 -0.7274
  817MOL0     C 7722   2.702   5.897   3.898 -0.8041  0.5975 -0.4204
  817MOL0     C 7723   2.593   6.003   3.933 -0.3535 -0.3130  0.0312
  817MOL0     C 7724   2.496   5.936   4.028 -1.1665 -0.0830  0.0789
  817MOL0     C 7725   2.372   6.029   4.032 -0.0983  0.5394 -0.1048
  817MOL0     C 7726   2.254   5.960   4.114  0.3687  0.3826  0.4374
  817MOL0     C 7727   2.141   6.051   4.133  0.5643 -1.2048  0.0357
  817MOL0     C 7728   2.007   5.979   4.167  0.8548  0.3464 -0.1059
  817MOL0     N 7729   1.893   6.064   4.130 -0.8261  0.1345 -0.1084
  817MOL0     C 7730   1.834   6.155   4.220 -0.6865 -0.7984 -0.4996
  817MOL0     C 7731   1.756   6.223   4.128 -0.1100  0.0692  0.1986
  817MOL0     C 7732   1.667   6.345   4.163 -0.6966 -0.4722 -0.6605
  817MOL0     C 7733   1.528   6.309   4.210 -0.1257 -0.2041  0.5889
  817MOL0     C 7734   1.527   6.297   4.364 -0.7462 -0.1538  0.6791
  817MOL0     C 7735   1.406   6.266   4.440  0.0288 -1.0142  0.0977
  817MOL0     O 7736   1.363   6.139   4.398 -0.0713  0.6424 -0.2895
  817MOL0     C 7737   1.245   6.087   4.449 -0.5720 -0.1298 -1.1810
  817MOL0     C 7738   1.166   6.136   4.556  0.6406 -0.6121  0.4450
  817MOL0     C 7739   1.038   6.090   4.593  0.1666  0.1291 -0.1447
  817MOL0     C 7740   0.980   5.982   4.522 -1.3193  0.4430 -0.4001
  817MOL0     C 7741   0.846   5.926   4.549 -0.3721  1.1783  0.3714
  817MOL0     O 7742   0.800   5.821   4.477 -0.1271 -0.5625 -0.4302
  817MOL0     C 7743   0.672   5.771   4.486  0.3947 -0.1482  0.4146
  817MOL0     C 7744   0.563   5.841   4.532  0.5791 -0.2853 -0.2783
  817MOL0     C 7745   0.433   5.796   4.506  0.5199  1.0424  0.0214
  817MOL0     C 7746   0.412   5.673   4.451  0.5560  0.3587 -0.0191
  817MOL0     O 7747   0.291   5.608   4.452  0.1391  0.6365  0.0870
  817MOL0     C 7748   0.182   5.698   4.444  0.1775  0.2369  0.8942
  817MOL0     C 7749   0.059   5.606   4.425  0.1860  0.4659 -0.6040
  817MOL0     C 7750  -0.070   5.685   4.426 -0.3267  0.7566  0.4480
  817MOL0     C 7751  -0.199   5.599   4.428 -0.2107  0.4096  0.2596
  817MOL0     C 7752  -0.327   5.676   4.411 -0.2583 -0.3074  0.4715
  817MOL0     C 7753  -0.342   5.794   4.513 -0.4030  0.2465 -0.3248
  817MOL0     C 7754  -0.474   5.865   4.502  0.2228 -0.1250 -0.9503
  817MOL0     C 7755  -0.488   5.934   4.362 -0.3077  0.2078 -0.9131
  817MOL0    Cl 7756  -0.639   6.028   4.347  0.4154 -0.0748 -0.5051
  817MOL0     C 7757   0.526   5.607   4.405  0.1234 -0.2325 -0.0674
  817MOL0     C 7758   0.658   5.648   4.426  0.5984  0.4524 -0.4950
  817MOL0     O 7759   0.776   5.991   4.626 -0.2458  0.0998  0.6325
  817MOL0     C 7760   1.057   5.938   4.411  0.0303 -0.4376 -1.0427
  817MOL0     C 7761   1.187   5.994   4.382 -0.6790  1.3270  0.9935
  817MOL0     N 7762   1.746   6.159   4.005 -0.7339 -0.1753 -0.5814
  817MOL0     N 7763   1.835   6.065   4.007 -0.1295 -0.2907 -0.5225
  817MOL0     C 7764   3.107   6.015   3.730  0.1404  0.5714 -0.0279
  817MOL0     C 7765   3.247   6.041   3.718  0.3551 -0.1502  0.1484
  817MOL0     C 7766   3.707   5.928   3.727  0.2815  0.5685 -0.1037
  817MOL0     C 7767   3.756   6.056   3.757 -0.3175 -0.3912  0.1285
  817MOL0     C 7768   3.900   6.077   3.766  0.5280  0.4361  1.0215
  817MOL0     C 7769   3.986   5.973   3.747 -0.2036 -0.2549 -0.5359
  817MOL0     O 7770   4.121   5.976   3.758 -0.2096  0.4132  0.3410
  817MOL0     C 7771   4.194   6.101   3.790 -0.0376  0.5032  0.2066
  817MOL0     C 7772   4.331   6.060   3.790 -0.0674  0.3889 -0.6042
  817MOL0     C 7773   4.409   6.187   3.843  0.1276  0.1939 -0.0601
  817MOL0     C 7774   4.556   6.142   3.880 -0.2334  0.1969  0.5234
  817MOL0     C 7775   4.641   6.171   3.770  0.1160 -0.2600 -0.8752
  817MOL0     C 7776   4.697   6.184   3.659 -0.8420  0.0354  0.3829
  817MOL0     C 7777   3.940   5.847   3.731  0.7187  0.7058 -0.0480
  817MOL0     C 7778   3.801   5.829   3.716 -0.3960  0.4948 -0.2121
  817MOL0     H 7779   3.377   5.764   3.846  0.6308 -0.2403  0.5564
  817MOL0     H 7780   3.150   5.707   3.881  2.5103 -1.9894 -2.1099
  817MOL0     H 7781   2.804   5.968   3.728 -0.5865 -2.3079 -0.8939
  817MOL0     H 7782   2.850   6.046   3.878 -3.9613  1.2067  0.3885
  817MOL0     H 7783   2.725   5.861   3.999 -0.8022  0.6651 -0.3965
  817MOL0     H 7784   2.659   5.814   3.842  1.8542 -1.3680  0.2390
  817MOL0     H 7785   2.542   6.023   3.839 -3.3228  1.6980  1.8711
  817MOL0     H 7786   2.638   6.096   3.970 -0.0532 -0.0731 -0.9342
  817MOL0     H 7787   2.484   5.839   3.979  0.6973 -0.9126  1.1409
  817MOL0     H 7788   2.540   5.922   4.127  0.7095 -0.3795 -0.7290
  817MOL0     H 7789   2.343   6.064   3.933 -1.1115 -2.2691 -0.9181
  817MOL0     H 7790   2.404   6.113   4.095 -1.0191  2.1654 -1.7416
  817MOL0     H 7791   2.266   5.933   4.219 -0.9767 -0.2089  0.4596
  817MOL0     H 7792   2.220   5.868   4.066 -1.4007  1.3451 -0.2329
  817MOL0     H 7793   2.156   6.125   4.212 -3.7512  1.8277 -1.5871
  817MOL0     H 7794   2.129   6.110   4.041  4.1240  1.4965  1.0896
  817MOL0     H 7795   2.008   5.951   4.273  0.1886 -0.3442 -0.2741
  817MOL0     H 7796   1.991   5.886   4.113  0.1544 -0.4218  1.3513
  817MOL0     H 7797   1.846   6.169   4.327 -0.6162 -2.6486 -0.2428
  817MOL0     H 7798   1.661   6.413   4.077  0.8588  2.6640  1.5008
  817MOL0     H 7799   1.718   6.402   4.241 -0.0652 -0.0992 -1.3330
  817MOL0     H 7800   1.504   6.212   4.166 -0.8639  0.0325  0.4563
  817MOL0     H 7801   1.467   6.391   4.171 -0.5642 -1.1501 -0.7919
  817MOL0     H 7802   1.596   6.213   4.381 -2.7156 -2.0350 -0.1939
  817MOL0     H 7803   1.568   6.388   4.409  0.1051 -0.1087 -0.1720
  817MOL0     H 7804   1.320   6.330   4.422 -0.1501 -1.8056 -2.1065
  817MOL0     H 7805   1.440   6.274   4.544  2.7324 -1.9447 -0.6150
  817MOL0     H 7806   1.213   6.214   4.615 -0.5400 -1.5258  2.6837
  817MOL0     H 7807   0.981   6.133   4.674  0.0390  0.9938 -0.6737
  817MOL0     H 7808   0.559   5.937   4.583 -0.6065 -1.3622  1.8469
  817MOL0     H 7809   0.352   5.854   4.548  0.9069  0.3420  1.8654
  817MOL0     H 7810   0.196   5.756   4.352  0.5258 -1.9648 -0.5347
  817MOL0     H 7811   0.166   5.752   4.538 -1.1644  1.3837  0.0565
  817MOL0     H 7812   0.058   5.534   4.508  1.1222  1.8608  0.6696
  817MOL0     H 7813   0.071   5.555   4.329 -0.5815  0.1425 -0.5386
  817MOL0     H 7814  -0.068   5.738   4.331 -0.0192 -1.8862 -1.1062
  817MOL0     H 7815  -0.073   5.754   4.511 -1.3241  1.9386 -0.5080
  817MOL0     H 7816  -0.182   5.515   4.360  4.0268 -0.6283  2.2820
  817MOL0     H 7817  -0.196   5.540   4.520 -0.0115  0.4660  0.2901
  817MOL0     H 7818  -0.408   5.605   4.435 -0.4495 -0.2131  0.1053
  817MOL0     H 7819  -0.336   5.711   4.308 -0.4778 -4.1003 -0.9866
  817MOL0     H 7820  -0.261   5.864   4.490  0.5468 -1.3824 -2.2358
  817MOL0     H 7821  -0.343   5.759   4.616  1.9524  2.6522  0.6428
  817MOL0     H 7822  -0.555   5.792   4.505  0.3679 -0.3820 -2.4654
  817MOL0     H 7823  -0.470   5.931   4.589  1.6126 -2.6994  1.1226
  817MOL0     H 7824  -0.489   5.868   4.275 -2.0339 -4.8332  2.4250
  817MOL0     H 7825  -0.400   5.998   4.355  0.0615 -0.3729 -1.7213
  817MOL0     H 7826   0.517   5.506   4.365  2.1805 -0.4198 -0.1632
  817MOL0     H 7827   0.749   5.595   4.404  0.3743 -0.9038  1.6661
  817MOL0     H 7828   1.015   5.863   4.345 -0.6859 -0.8933 -0.0939
  817MOL0     H 7829   1.230   5.949   4.292 -0.2179  0.2773  1.7153
  817MOL0     H 7830   3.028   6.076   3.687 -1.3186  0.4244  2.2797
  817MOL0     H 7831   3.277   6.131   3.666  1.9747 -0.3305  0.7161
  817MOL0     H 7832   3.691   6.142   3.765  0.9028  0.5752 -0.1403
  817MOL0     H 7833   3.938   6.179   3.772  0.1878  0.7161 -0.9135
  817MOL0     H 7834   4.152   6.140   3.883  0.5131  0.5484  0.4436
  817MOL0     H 7835   4.181   6.181   3.716  1.9229  0.6487 -0.0479
  817MOL0     H 7836   4.338   5.969   3.852  3.2781 -0.0422 -1.4105
  817MOL0     H 7837   4.367   6.041   3.689 -2.3473  0.2882 -1.4507
  817MOL0     H 7838   4.365   6.229   3.934 -0.2264  0.5662 -0.4047
  817MOL0     H 7839   4.407   6.268   3.770 -1.8999  0.8144  0.6283
  817MOL0     H 7840   4.598   6.195   3.966 -0.1096 -0.1217  0.6600
  817MOL0     H 7841   4.562   6.036   3.906  1.2666  0.6111  2.0842
  817MOL0     H 7842   4.760   6.194   3.572  0.7328 -1.5711  1.2744
  817MOL0     H 7843   4.017   5.772   3.724  0.4190  0.1785  1.7394
  817MOL0     H 7844   3.767   5.727   3.698  1.5204 -0.7338  2.3403
  818MOL0     O 7845   1.246   7.834   7.139  0.1993  0.1592 -0.1412
  818MOL0     C 7846   1.312   7.728   7.143  0.1590  0.0210 -0.0422
  818MOL0     O 7847   1.266   7.602   7.118  0.3840 -0.0625 -0.8117
  818MOL0     C 7848   1.130   7.594   7.126 -0.4401  0.5647  0.2413
  818MOL0     C 7849   1.054   7.584   7.242 -0.1546  0.0895 -0.7702
  818MOL0     C 7850   0.921   7.580   7.239 -0.5582  0.4322  0.5224
  818MOL0     C 7851   0.856   7.594   7.119  0.0033  0.1828 -0.5832
  818MOL0     O 7852   0.722   7.614   7.116  0.5303 -0.2006  0.3536
  818MOL0     C 7853   0.666   7.673   7.006  0.3692  0.1980  0.1493
  818MOL0     C 7854   0.524   7.724   7.039  0.9156  0.0881  0.4753
  818MOL0     C 7855   0.435   7.597   7.076 -0.2513 -0.5690 -0.0002
  818MOL0     C 7856   0.283   7.622   7.094  0.4827 -0.7499  0.5607
  818MOL0     C 7857   0.201   7.657   6.961 -0.4782 -0.2884 -0.4214
  818MOL0     C 7858   0.049   7.655   6.998  0.6519 -0.7544  0.8528
  818MOL0     C 7859  -0.034   7.716   6.887 -0.3318  0.4609  0.0369
  818MOL0     C 7860  -0.180   7.720   6.924 -0.0307  0.1300  0.1785
  818MOL0     N 7861  -0.264   7.803   6.836 -0.2729  0.2575 -1.2881
  818MOL0     C 7862  -0.375   7.763   6.772 -0.5323 -0.4362 -1.1346
  818MOL0     C 7863  -0.427   7.876   6.727  0.1029 -0.0274  0.0002
  818MOL0     C 7864  -0.564   7.905   6.656  0.5910  0.1056 -0.7595
  818MOL0     C 7865  -0.686   7.922   6.745 -0.4399 -0.3884  0.0389
  818MOL0     C 7866  -0.751   7.786   6.774 -0.0253 -0.9807 -1.0299
  818MOL0     C 7867  -0.905   7.801   6.798 -1.1768 -0.7410 -0.3529
  818MOL0     O 7868  -0.968   7.680   6.841 -0.9464  0.4529  0.7489
  818MOL0     C 7869  -1.108   7.676   6.859 -0.8196  0.4379 -0.2470
  818MOL0     C 7870  -1.190   7.786   6.847  0.2859  0.5473  0.7438
  818MOL0     C 7871  -1.329   7.775   6.864  0.1716  0.1276 -0.6177
  818MOL0     C 7872  -1.390   7.655   6.911  0.5640  0.8145 -0.2261
  818MOL0     C 7873  -1.532   7.643   6.936 -0.3754 -0.5205  0.5835
  818MOL0     O 7874  -1.608   7.742   6.892  0.3850  0.2969  0.1597
  818MOL0     C 7875  -1.743   7.751   6.920 -0.2963 -0.5828 -0.1382
  818MOL0     C 7876  -1.809   7.719   7.044 -0.0749 -0.1897 -0.4680
  818MOL0     C 7877  -1.949   7.745   7.054  0.5084  0.3346 -0.2582
  818MOL0     C 7878  -2.021   7.808   6.956 -0.1965  0.5892  0.1381
  818MOL0     O 7879  -2.153   7.830   6.984  0.4339  0.0548 -0.3292
  818MOL0     C 7880  -2.237   7.725   6.928 -0.1307 -0.1403 -0.1703
  818MOL0     C 7881  -2.385   7.730   6.960 -0.7739  1.1120  0.5693
  818MOL0     C 7882  -2.456   7.859   6.909 -0.9132  0.2941 -1.0749
  818MOL0     C 7883  -2.609   7.852   6.936 -0.8543  0.1159 -0.1111
  818MOL0     C 7884  -2.697   7.904   6.817  0.1521  0.0521  0.1295
  818MOL0     C 7885  -2.837   7.915   6.873 -0.7682 -1.2698 -1.1106
  818MOL0     C 7886  -2.941   7.965   6.764 -0.2011  0.1601 -0.1100
  818MOL0     C 7887  -3.077   7.967   6.819  0.4205  0.7767 -0.0693
  818MOL0    Cl 7888  -3.097   8.095   6.951  0.0560  0.1631 -0.4577
  818MOL0     C 7889  -1.955   7.849   6.844 -0.0012 -0.5130 -0.2403
  818MOL0     C 7890  -1.819   7.826   6.827  0.9768 -0.5129  0.2560
  818MOL0     O 7891  -1.570   7.541   6.991 -0.4057 -0.4962  0.2196
  818MOL0     C 7892  -1.302   7.539   6.919 -0.5362  0.0863  0.2652
  818MOL0     C 7893  -1.163   7.550   6.888 -0.3146  0.3782  0.4557
  818MOL0     N 7894  -0.349   7.981   6.768  0.2972 -0.5390 -0.8014
  818MOL0     N 7895  -0.244   7.938   6.831  0.1649 -0.0991 -0.3914
  818MOL0     C 7896   0.930   7.596   6.999  0.1773  0.3204  0.3641
  818MOL0     C 7897   1.070   7.594   7.001  1.2742 -0.4205  0.2250
  818MOL0     C 7898   1.459   7.734   7.144 -0.1958  0.2173 -0.5963
  818MOL0     C 7899   1.526   7.842   7.090  0.6291  0.2204  0.0211
  818MOL0     C 7900   1.667   7.847   7.084  0.2832 -0.1633  0.4360
  818MOL0     C 7901   1.743   7.736   7.121 -0.0007  0.1293  0.5961
  818MOL0     O 7902   1.880   7.759   7.131 -0.5462  0.3220  0.2087
  818MOL0     C 7903   1.968   7.646   7.117  0.2541  0.9632  0.4962
  818MOL0     C 7904   2.110   7.688   7.093  0.3935  0.0935 -0.2589
  818MOL0     C 7905   2.213   7.578   7.093  1.2367 -0.5409  0.3439
  818MOL0     C 7906   2.344   7.650   7.054 -0.5269  0.4332 -0.1983
  818MOL0     C 7907   2.465   7.558   7.075  0.3657  0.1247 -0.6481
  818MOL0     C 7908   2.561   7.487   7.098  0.5868  0.4430  0.2385
  818MOL0     C 7909   1.674   7.623   7.164  0.0919 -0.4271 -0.8215
  818MOL0     C 7910   1.535   7.627   7.178 -0.3017 -0.3518  0.5047
  818MOL0     H 7911   1.108   7.581   7.336 -0.4169  0.7646 -0.5919
  818MOL0     H 7912   0.864   7.576   7.332 -2.4033  0.2373 -0.5812
  818MOL0     H 7913   0.655   7.605   6.921 -0.3680 -3.6829  3.0844
  818MOL0     H 7914   0.730   7.758   6.979 -1.2967  1.4790  0.1291
  818MOL0     H 7915   0.489   7.778   6.951 -0.0205 -2.8306 -1.0830
  818MOL0     H 7916   0.523   7.789   7.127 -0.4668 -0.3374  0.8042
  818MOL0     H 7917   0.473   7.557   7.170  3.3667  0.8828 -0.6821
  818MOL0     H 7918   0.451   7.519   7.002 -0.1549 -2.1278  1.6107
  818MOL0     H 7919   0.249   7.529   7.141  2.3334 -1.3862  0.7175
  818MOL0     H 7920   0.267   7.706   7.162  1.5389 -2.0241  2.4796
  818MOL0     H 7921   0.215   7.571   6.895  0.8619  1.0523 -1.9358
  818MOL0     H 7922   0.237   7.753   6.924  0.8114 -0.8269 -0.6018
  818MOL0     H 7923   0.031   7.716   7.087 -1.6793 -0.4016  0.2051
  818MOL0     H 7924   0.005   7.558   7.022  2.4627 -0.9372  4.0682
  818MOL0     H 7925   0.015   7.810   6.859 -2.1788  1.0867 -1.2623
  818MOL0     H 7926  -0.025   7.649   6.802 -1.3198  1.9561 -1.3174
  818MOL0     H 7927  -0.183   7.758   7.026 -1.0191 -2.2468  1.0913
  818MOL0     H 7928  -0.221   7.620   6.943 -0.9942  0.4105 -0.3507
  818MOL0     H 7929  -0.399   7.657   6.770 -0.3357 -0.4819 -2.8130
  818MOL0     H 7930  -0.585   7.822   6.587  1.6289 -1.6810  0.9510
  818MOL0     H 7931  -0.543   7.998   6.604 -0.8152  1.3495  0.7904
  818MOL0     H 7932  -0.760   7.993   6.706  0.2831  0.4567  0.1864
  818MOL0     H 7933  -0.648   7.967   6.837 -2.0353 -1.2947  1.1827
  818MOL0     H 7934  -0.743   7.727   6.683 -1.9008 -1.2095 -1.0917
  818MOL0     H 7935  -0.698   7.738   6.857 -1.8874 -0.3117  0.6373
  818MOL0     H 7936  -0.956   7.844   6.711 -0.5237  0.4207 -0.1847
  818MOL0     H 7937  -0.913   7.878   6.875 -1.0565  0.4160 -1.4592
  818MOL0     H 7938  -1.151   7.885   6.825  0.3613  0.3083 -0.2345
  818MOL0     H 7939  -1.386   7.865   6.844 -0.7637  0.3860  2.5809
  818MOL0     H 7940  -1.762   7.679   7.133 -1.2532  0.5157  0.5066
  818MOL0     H 7941  -2.011   7.726   7.141 -0.7826  2.8326 -0.5066
  818MOL0     H 7942  -2.210   7.629   6.974  3.3737  1.1284  0.7774
  818MOL0     H 7943  -2.225   7.718   6.820  1.6226 -0.3221  0.0040
  818MOL0     H 7944  -2.392   7.720   7.069  1.0683  1.0476  0.7014
  818MOL0     H 7945  -2.432   7.641   6.918  1.3602 -0.7505  1.9158
  818MOL0     H 7946  -2.419   7.880   6.808  1.3904  2.1101  0.0268
  818MOL0     H 7947  -2.413   7.937   6.972 -3.5440 -0.1821  1.5198
  818MOL0     H 7948  -2.623   7.746   6.959  0.1991 -0.1208 -0.5366
  818MOL0     H 7949  -2.630   7.908   7.028 -4.5546  2.2554 -1.9952
  818MOL0     H 7950  -2.697   7.832   6.734 -1.0105 -1.9162  1.7197
  818MOL0     H 7951  -2.666   8.005   6.791 -1.4557  0.0366 -2.2314
  818MOL0     H 7952  -2.829   7.982   6.960 -0.8924 -4.4723  1.5737
  818MOL0     H 7953  -2.866   7.816   6.908  1.0813 -0.4917  3.3673
  818MOL0     H 7954  -2.903   8.062   6.734  1.0428  0.0929  1.1314
  818MOL0     H 7955  -2.932   7.895   6.680  0.8282  0.8476 -0.5949
  818MOL0     H 7956  -3.095   7.871   6.868  0.7539  1.0207  0.5502
  818MOL0     H 7957  -3.149   7.988   6.740  1.1553 -3.1248 -2.0229
  818MOL0     H 7958  -2.018   7.909   6.779 -0.1370 -1.5889 -1.1201
  818MOL0     H 7959  -1.774   7.864   6.736 -0.7213  3.9462  1.0348
  818MOL0     H 7960  -1.348   7.451   6.962 -0.1426  0.9198  2.5209
  818MOL0     H 7961  -1.090   7.470   6.884 -0.8217 -0.0448 -1.5696
  818MOL0     H 7962   0.873   7.609   6.907  2.3388  0.7502 -0.9859
  818MOL0     H 7963   1.132   7.591   6.912 -0.7556  1.0796 -1.3351
  818MOL0     H 7964   1.477   7.932   7.054  2.0949  0.4216 -1.5824
  818MOL0     H 7965   1.706   7.934   7.034 -1.5821  0.6372  0.2871
  818MOL0     H 7966   1.930   7.582   7.037  1.5427 -0.4751  0.9819
  818MOL0     H 7967   1.966   7.578   7.202 -3.4680 -1.2758 -1.0971
  818MOL0     H 7968   2.106   7.740   6.997 -1.9796 -0.2131 -0.3946
  818MOL0     H 7969   2.121   7.760   7.175 -2.7384 -0.5287  0.8514
  818MOL0     H 7970   2.177   7.497   7.029  3.2948 -1.2489  0.0266
  818MOL0     H 7971   2.213   7.541   7.196 -0.9239  1.8068  1.3016
  818MOL0     H 7972   2.336   7.666   6.947  0.3868 -0.2423 -0.3835
  818MOL0     H 7973   2.362   7.746   7.104  1.1333 -0.6323  1.3850
  818MOL0     H 7974   2.651   7.437   7.126  0.2929  0.4908  1.3180
  818MOL0     H 7975   1.727   7.534   7.197  1.7850  0.2235 -1.6400
  818MOL0     H 7976   1.490   7.536   7.216 -0.3036  0.0940  1.6056
  819MOL0     O 7977   5.960   8.045   9.217  0.9239 -0.3396  0.3325
  819MOL0     C 7978   5.931   7.975   9.318  0.5015 -1.1200 -0.2756
  819MOL0     O 7979   5.808   7.971   9.371 -0.4086 -0.2289 -0.2468
  819MOL0     C 7980   5.715   8.065   9.314  0.0097 -0.9418 -0.5137
  819MOL0     C 7981   5.660   8.050   9.186 -0.6070  0.7421 -0.6973
  819MOL0     C 7982   5.580   8.148   9.134  1.1375 -0.3819  0.5872
  819MOL0     C 7983   5.535   8.255   9.220  0.1500  0.4236  0.1928
  819MOL0     O 7984   5.443   8.334   9.159 -0.1468 -0.4419 -0.0781
  819MOL0     C 7985   5.412   8.466   9.208 -0.6207 -0.5866 -0.2955
  819MOL0     C 7986   5.276   8.500   9.155 -0.4164  0.5752  0.3167
  819MOL0     C 7987   5.221   8.635   9.202 -0.2869 -0.7690 -0.8460
  819MOL0     C 7988   5.132   8.703   9.097 -0.1140 -0.1212 -0.2142
  819MOL0     C 7989   5.004   8.622   9.052  0.3433 -1.2268 -0.0671
  819MOL0     C 7990   4.924   8.686   8.932 -0.5881 -0.5393  0.0025
  819MOL0     C 7991   4.809   8.593   8.888 -0.8656 -0.7502 -0.6701
  819MOL0     C 7992   4.702   8.682   8.824 -1.1583 -0.0235  0.0212
  819MOL0     N 7993   4.590   8.602   8.773  0.4934  0.1090  0.1048
  819MOL0     C 7994   4.461   8.637   8.761  0.0703 -0.5617  1.2862
  819MOL0     C 7995   4.407   8.544   8.674  0.0961 -0.4126  0.0395
  819MOL0     C 7996   4.267   8.555   8.613  0.0120  0.3485  0.4994
  819MOL0     C 7997   4.162   8.520   8.717 -0.3268 -0.0613  0.0488
  819MOL0     C 7998   4.027   8.502   8.664  0.0684 -0.4112  1.3375
  819MOL0     C 7999   3.931   8.459   8.770 -0.4676  0.8018 -0.3650
  819MOL0     O 8000   3.815   8.402   8.721  0.0583  0.2479 -0.0774
  819MOL0     C 8001   3.710   8.482   8.713  0.5088  0.4657  0.1024
  819MOL0     C 8002   3.589   8.432   8.676  0.5960  0.2664  0.7616
  819MOL0     C 8003   3.463   8.501   8.680  0.1512 -0.1023  0.3399
  819MOL0     C 8004   3.467   8.640   8.700  0.6470 -0.1389 -0.1616
  819MOL0     C 8005   3.342   8.722   8.700 -0.8573 -0.1649 -0.0282
  819MOL0     O 8006   3.231   8.659   8.751 -0.6978  0.1343 -0.4013
  819MOL0     C 8007   3.108   8.713   8.750  0.1855  0.6169  0.3388
  819MOL0     C 8008   3.047   8.730   8.624  0.3911  0.9184  0.1836
  819MOL0     C 8009   2.919   8.774   8.609  0.2989  0.9347 -0.2671
  819MOL0     C 8010   2.837   8.803   8.726 -0.3234  0.0846 -0.2266
  819MOL0     O 8011   2.708   8.837   8.719  0.0538 -0.0858 -0.3213
  819MOL0     C 8012   2.653   8.857   8.589  0.1273  0.3357 -0.5940
  819MOL0     C 8013   2.528   8.940   8.606 -0.3553 -0.8821  0.8189
  819MOL0     C 8014   2.442   8.944   8.482 -1.1846 -0.3490  0.1287
  819MOL0     C 8015   2.526   8.985   8.362 -0.0539  0.2843 -0.2048
  819MOL0     C 8016   2.434   9.022   8.245 -0.3474 -0.0792  0.4684
  819MOL0     C 8017   2.357   8.900   8.198 -0.6731  0.8680 -0.0097
  819MOL0     C 8018   2.318   8.912   8.055 -0.4306  0.3016 -0.8491
  819MOL0     C 8019   2.227   8.801   8.009 -0.1411 -0.3227  0.4790
  819MOL0    Cl 8020   2.115   8.843   7.877  0.4951 -0.5776  0.1770
  819MOL0     C 8021   2.899   8.786   8.853  0.9159  0.0924  0.6173
  819MOL0     C 8022   3.036   8.746   8.863  0.1094  0.2784  0.0606
  819MOL0     O 8023   3.349   8.841   8.673 -0.5805  0.6373 -0.5595
  819MOL0     C 8024   3.594   8.704   8.719 -0.5572  0.0776  0.2360
  819MOL0     C 8025   3.715   8.626   8.729  0.5232 -0.1250 -0.3527
  819MOL0     N 8026   4.499   8.439   8.657 -0.2257  0.1112  0.4583
  819MOL0     N 8027   4.598   8.483   8.726 -0.9761  0.3115 -0.0957
  819MOL0     C 8028   5.590   8.273   9.346 -0.0740  0.3431  0.1600
  819MOL0     C 8029   5.686   8.179   9.388  0.6354 -0.0278 -0.2879
  819MOL0     C 8030   6.038   7.891   9.363 -0.3902  0.6063  0.0222
  819MOL0     C 8031   6.173   7.908   9.319 -1.1023 -0.3322  0.2201
  819MOL0     C 8032   6.279   7.822   9.365  0.0944 -0.0779  0.2152
  819MOL0     C 8033   6.252   7.719   9.464  0.0687  0.4611 -0.0181
  819MOL0     O 8034   6.357   7.638   9.508 -0.3255  0.0555 -0.1799
  819MOL0     C 8035   6.340   7.557   9.631  0.3836  0.2552  0.0866
  819MOL0     C 8036   6.472   7.555   9.695 -0.0270 -0.0592 -0.5727
  819MOL0     C 8037   6.589   7.516   9.594  0.6426 -0.7299 -0.7321
  819MOL0     C 8038   6.729   7.500   9.656  0.2054  1.6406 -0.1149
  819MOL0     C 8039   6.731   7.395   9.756 -0.1486  0.3091  0.0775
  819MOL0     C 8040   6.726   7.331   9.862  0.7187  0.3485  0.3961
  819MOL0     C 8041   6.115   7.699   9.497  0.1734  0.8755 -0.1198
  819MOL0     C 8042   6.018   7.789   9.460  0.2832 -0.2117 -0.0064
  819MOL0     H 8043   5.703   7.965   9.135  2.1321  2.6887 -1.8843
  819MOL0     H 8044   5.524   8.145   9.041 -1.4234  1.8959  1.8954
  819MOL0     H 8045   5.487   8.537   9.172 -2.9969  0.8420 -2.8512
  819MOL0     H 8046   5.401   8.470   9.316 -0.5729 -0.5818 -0.2903
  819MOL0     H 8047   5.215   8.419   9.196 -0.2108  0.2838  0.0518
  819MOL0     H 8048   5.287   8.488   9.046  2.8613 -2.8632  0.8274
  819MOL0     H 8049   5.300   8.707   9.225 -1.8846  1.2416 -1.3844
  819MOL0     H 8050   5.169   8.606   9.294 -0.8181 -0.8871 -1.1779
  819MOL0     H 8051   5.101   8.791   9.153 -2.4290 -1.9937  1.6515
  819MOL0     H 8052   5.201   8.713   9.013  0.1206  0.7150  0.0678
  819MOL0     H 8053   4.943   8.612   9.142  1.7944  0.6149  1.1942
  819MOL0     H 8054   5.051   8.525   9.035 -1.3866 -2.2700  0.8596
  819MOL0     H 8055   4.993   8.689   8.847 -0.6230  0.1287 -0.0045
  819MOL0     H 8056   4.891   8.790   8.941 -0.4350 -0.5945  1.5557
  819MOL0     H 8057   4.846   8.523   8.812  1.3717  0.4178 -0.7447
  819MOL0     H 8058   4.770   8.534   8.971  0.7585 -0.9070  0.0037
  819MOL0     H 8059   4.750   8.729   8.738  2.4067 -1.1962  1.2025
  819MOL0     H 8060   4.676   8.754   8.903 -1.0243  0.4380 -0.3523
  819MOL0     H 8061   4.422   8.734   8.788 -0.5121 -0.9684  1.9354
  819MOL0     H 8062   4.254   8.472   8.543 -1.7864 -0.5979  1.8842
  819MOL0     H 8063   4.235   8.645   8.559 -2.2644 -0.6982  0.0027
  819MOL0     H 8064   4.159   8.598   8.795 -1.1763  0.1262 -0.1587
  819MOL0     H 8065   4.195   8.428   8.766 -1.1146  0.6737  2.0923
  819MOL0     H 8066   3.988   8.593   8.617 -1.7572 -0.3834  2.7896
  819MOL0     H 8067   4.042   8.430   8.584  1.7759  0.4788  0.7980
  819MOL0     H 8068   3.913   8.531   8.850  1.1363  0.2530  0.5373
  819MOL0     H 8069   3.981   8.378   8.824 -0.2291  0.7980 -0.5858
  819MOL0     H 8070   3.585   8.324   8.664  0.8039  0.1694  1.4975
  819MOL0     H 8071   3.371   8.456   8.645 -0.1196 -0.3837  1.3906
  819MOL0     H 8072   3.101   8.692   8.538 -1.1008  2.4246 -1.5118
  819MOL0     H 8073   2.887   8.792   8.507 -1.8895  0.9213  0.3486
  819MOL0     H 8074   2.620   8.760   8.552  1.1674 -1.0222  1.8189
  819MOL0     H 8075   2.719   8.919   8.528 -1.2784  0.7191 -1.7724
  819MOL0     H 8076   2.542   9.040   8.648 -3.6147  0.2560 -0.4215
  819MOL0     H 8077   2.465   8.886   8.677 -0.8300 -1.4282 -0.0055
  819MOL0     H 8078   2.364   9.017   8.506 -1.0540 -0.9336  2.5995
  819MOL0     H 8079   2.394   8.847   8.463 -1.0059 -0.2191 -1.0391
  819MOL0     H 8080   2.586   9.072   8.388 -1.4017  1.8063 -1.8809
  819MOL0     H 8081   2.585   8.895   8.341  1.4448  1.3010 -0.4381
  819MOL0     H 8082   2.494   9.070   8.168 -3.2157  1.9948 -0.6434
  819MOL0     H 8083   2.359   9.096   8.277 -0.8019 -0.0820 -0.5519
  819MOL0     H 8084   2.269   8.893   8.263 -1.5181  4.3727 -0.5571
  819MOL0     H 8085   2.411   8.806   8.208 -2.2496  0.0781  1.6475
  819MOL0     H 8086   2.270   9.010   8.055 -0.2845  0.4024  0.6993
  819MOL0     H 8087   2.405   8.915   7.988  0.3318 -1.5457 -0.0098
  819MOL0     H 8088   2.159   8.770   8.088 -0.4034 -0.8321  0.0616
  819MOL0     H 8089   2.298   8.724   7.979 -0.3184 -0.0465 -0.7049
  819MOL0     H 8090   2.833   8.812   8.935 -0.4094  1.7248 -0.8897
  819MOL0     H 8091   3.085   8.741   8.960 -0.5227  0.2815  0.3875
  819MOL0     H 8092   3.604   8.811   8.731  1.0626 -0.2227  2.1751
  819MOL0     H 8093   3.810   8.677   8.737  1.6455 -2.3786  2.6963
  819MOL0     H 8094   5.564   8.357   9.409  1.9343 -1.3302  3.5596
  819MOL0     H 8095   5.723   8.193   9.489 -1.5699 -1.7326  0.8521
  819MOL0     H 8096   6.201   7.993   9.257 -0.1479 -0.8845 -0.1350
  819MOL0     H 8097   6.376   7.855   9.329 -0.4140  0.2357 -0.9319
  819MOL0     H 8098   6.315   7.453   9.609  2.0442  0.1621 -1.6296
  819MOL0     H 8099   6.263   7.602   9.695  0.2451  0.2380 -0.0691
  819MOL0     H 8100   6.498   7.656   9.728 -1.3392 -0.1926  0.9540
  819MOL0     H 8101   6.469   7.494   9.786 -2.2147  1.7528  0.6694
  819MOL0     H 8102   6.596   7.593   9.516 -0.0240  0.4896  0.3853
  819MOL0     H 8103   6.554   7.427   9.541 -0.5834 -1.0781  0.6031
  819MOL0     H 8104   6.805   7.489   9.578 -0.8476 -1.4203 -0.8609
  819MOL0     H 8105   6.745   7.587   9.721  2.1804 -0.1961  2.0556
  819MOL0     H 8106   6.724   7.271   9.951 -1.0834 -0.4895 -0.1580
  819MOL0     H 8107   6.089   7.615   9.560 -2.1645 -1.0076 -3.2907
  819MOL0     H 8108   5.918   7.782   9.502  1.0367  0.2006  1.9912
  820MOL0     O 8109   6.861   7.979   9.927 -0.3447 -0.0518  0.1897
  820MOL0     C 8110   6.836   7.863   9.949 -0.5685  0.0632  0.0025
  820MOL0     O 8111   6.714   7.802   9.945 -0.0363  0.1310  0.6779
  820MOL0     C 8112   6.603   7.875   9.907  0.2204  0.0754 -0.0858
  820MOL0     C 8113   6.614   7.938   9.783  0.4766 -0.0593  0.3385
  820MOL0     C 8114   6.500   8.005   9.745 -0.5993 -0.3796 -0.0574
  820MOL0     C 8115   6.380   8.017   9.822 -1.0531  1.0125 -0.0564
  820MOL0     O 8116   6.265   8.076   9.773  0.3872 -0.1565 -0.4803
  820MOL0     C 8117   6.271   8.144   9.643  0.0106  0.0267 -0.2771
  820MOL0     C 8118   6.128   8.205   9.610  0.1011  0.3373  1.1045
  820MOL0     C 8119   6.077   8.295   9.733  0.2918 -0.2530  0.0161
  820MOL0     C 8120   5.993   8.405   9.679  0.0866 -0.8036 -1.1434
  820MOL0     C 8121   5.879   8.439   9.781  0.4517  0.6556 -0.4084
  820MOL0     C 8122   5.778   8.535   9.721  0.2235 -1.0999  0.0605
  820MOL0     C 8123   5.679   8.589   9.833  0.8236 -0.2065  0.4394
  820MOL0     C 8124   5.601   8.711   9.778 -1.4514  0.4925  0.5670
  820MOL0     N 8125   5.480   8.668   9.715 -0.0880  0.0202 -0.8521
  820MOL0     C 8126   5.362   8.667   9.782 -0.2090  0.1348  0.4626
  820MOL0     C 8127   5.276   8.634   9.684 -0.9197 -0.2156  0.4924
  820MOL0     C 8128   5.129   8.624   9.697 -0.2904 -0.9068 -0.1228
  820MOL0     C 8129   5.062   8.739   9.607  0.1432  0.7381  0.4785
  820MOL0     C 8130   4.911   8.709   9.614 -0.0205  0.3827 -0.3226
  820MOL0     C 8131   4.813   8.793   9.529  0.2699 -0.4180  0.4030
  820MOL0     O 8132   4.688   8.782   9.601  1.1111 -0.1285 -0.2402
  820MOL0     C 8133   4.572   8.825   9.534 -0.2492 -0.8231 -0.0206
  820MOL0     C 8134   4.453   8.781   9.585  0.3123  0.2532  0.0545
  820MOL0     C 8135   4.329   8.809   9.524  0.5074  0.0851 -0.2160
  820MOL0     C 8136   4.320   8.893   9.407 -0.0916 -0.0520  0.3778
  820MOL0     C 8137   4.185   8.920   9.343 -0.5367  0.0083  0.6408
  820MOL0     O 8138   4.190   8.992   9.229  0.4476 -0.5040  0.1342
  820MOL0     C 8139   4.074   9.010   9.157  0.4369 -0.7050  0.8610
  820MOL0     C 8140   4.040   8.924   9.053  0.2480 -0.6869  0.6150
  820MOL0     C 8141   3.919   8.931   8.987 -0.1717  0.2620  0.9989
  820MOL0     C 8142   3.833   9.037   9.017  0.0587  0.3794 -0.3256
  820MOL0     O 8143   3.724   9.045   8.944  0.8762 -0.4521 -0.8812
  820MOL0     C 8144   3.607   9.121   8.995  0.3471 -0.7439 -0.6941
  820MOL0     C 8145   3.492   9.047   8.930  0.0178  1.0496 -0.2146
  820MOL0     C 8146   3.367   9.118   8.974 -0.4081 -0.0101 -0.5373
  820MOL0     C 8147   3.246   9.020   8.989  0.5055  0.5481 -0.3000
  820MOL0     C 8148   3.120   9.092   9.037  0.0792 -0.6135 -0.3488
  820MOL0     C 8149   3.130   9.172   9.165 -0.4289  0.2709  0.2985
  820MOL0     C 8150   3.003   9.143   9.247 -0.0367  0.5193 -0.4241
  820MOL0     C 8151   3.019   9.194   9.393 -1.5453 -0.0413  0.6980
  820MOL0    Cl 8152   3.032   9.376   9.396 -0.1943 -0.2134  0.1510
  820MOL0     C 8153   3.865   9.128   9.117 -0.7670 -0.4753  0.2405
  820MOL0     C 8154   3.988   9.116   9.188 -0.1564  0.5168 -0.1518
  820MOL0     O 8155   4.087   8.867   9.392 -0.0446  0.4050  0.2111
  820MOL0     C 8156   4.448   8.937   9.352  0.2489 -0.5747 -0.3325
  820MOL0     C 8157   4.568   8.905   9.415  0.8896  0.3975  0.0725
  820MOL0     N 8158   5.348   8.604   9.569  0.3249  0.7243  0.1582
  820MOL0     N 8159   5.474   8.629   9.585 -0.1716  0.2127 -0.4885
  820MOL0     C 8160   6.380   7.956   9.950  0.1396  0.3424 -0.2666
  820MOL0     C 8161   6.485   7.880   9.996 -0.1773  0.2363 -0.2143
  820MOL0     C 8162   6.945   7.774   9.982 -0.1462 -0.6860  0.8486
  820MOL0     C 8163   6.942   7.634   9.970  0.3136 -0.0822 -0.6481
  820MOL0     C 8164   7.054   7.557  10.002 -0.2157 -0.4893  0.4565
  820MOL0     C 8165   7.169   7.627  10.035 -0.0346  0.6450  0.1104
  820MOL0     O 8166   7.287   7.555  10.040  0.0482  0.1849  0.0431
  820MOL0     C 8167   7.358   7.571   9.915  0.2528  0.3947  0.1132
  820MOL0     C 8168   7.460   7.462   9.895  1.2137  0.0666 -0.0168
  820MOL0     C 8169   7.578   7.453   9.990 -0.8303  0.6205 -0.3132
  820MOL0     C 8170   7.639   7.318   9.968  0.5339 -0.0381 -1.0960
  820MOL0     C 8171   7.774   7.313  10.026 -0.0148  0.1741  0.0888
  820MOL0     C 8172   7.888   7.312  10.072 -0.3475  0.4211 -0.1076
  820MOL0     C 8173   7.174   7.767  10.066  0.0536  0.1324  0.2078
  820MOL0     C 8174   7.060   7.841  10.028  0.9981 -0.3808  0.2145
  820MOL0     H 8175   6.699   7.926   9.716  0.7086 -0.5599  0.7095
  820MOL0     H 8176   6.515   8.034   9.642  2.5300 -1.9426 -0.1804
  820MOL0     H 8177   6.296   8.073   9.563 -1.4839 -2.2004  1.1119
  820MOL0     H 8178   6.348   8.221   9.643 -0.2894  0.5271 -4.3020
  820MOL0     H 8179   6.060   8.123   9.586  1.6794 -0.7402  0.0761
  820MOL0     H 8180   6.145   8.261   9.517 -1.7223 -2.1960 -0.8834
  820MOL0     H 8181   6.161   8.346   9.782  0.7834  1.6341 -2.5468
  820MOL0     H 8182   6.030   8.230   9.806 -1.0094  1.2228  0.5434
  820MOL0     H 8183   6.051   8.496   9.663  2.0024 -1.8862 -0.5572
  820MOL0     H 8184   5.941   8.379   9.586  0.2676 -3.5465 -0.5666
  820MOL0     H 8185   5.929   8.481   9.869 -1.0922  0.2182  0.7195
  820MOL0     H 8186   5.819   8.354   9.812 -1.3834  1.6975 -0.9726
  820MOL0     H 8187   5.714   8.490   9.645 -0.3373  1.2313 -0.9353
  820MOL0     H 8188   5.834   8.619   9.679 -0.4670 -0.9730 -0.6239
  820MOL0     H 8189   5.600   8.517   9.854 -2.8373  2.9321 -1.3682
  820MOL0     H 8190   5.737   8.614   9.922 -0.4322  0.2290  1.1550
  820MOL0     H 8191   5.659   8.767   9.704 -2.7149 -1.3491 -1.9907
  820MOL0     H 8192   5.583   8.774   9.865  3.7348 -1.2959  3.3593
  820MOL0     H 8193   5.335   8.685   9.886 -3.2703  1.3934 -0.4203
  820MOL0     H 8194   5.089   8.649   9.796 -0.6095  0.0230 -0.4665
  820MOL0     H 8195   5.086   8.528   9.667 -2.7071  0.1570 -0.3016
  820MOL0     H 8196   5.081   8.745   9.500 -0.3129  3.3701  0.4674
  820MOL0     H 8197   5.088   8.839   9.644  0.4926  1.0977 -0.7038
  820MOL0     H 8198   4.899   8.604   9.586 -1.0228  0.0716  1.1923
  820MOL0     H 8199   4.878   8.725   9.717  0.3264 -0.4768 -0.0667
  820MOL0     H 8200   4.810   8.760   9.425  4.3890  0.8601 -0.3210
  820MOL0     H 8201   4.842   8.898   9.518  1.6496 -0.5873  1.9234
  820MOL0     H 8202   4.445   8.731   9.681  1.0270  0.2709  0.1327
  820MOL0     H 8203   4.243   8.773   9.580  1.8096 -0.1896  1.7027
  820MOL0     H 8204   4.111   8.849   9.019  1.1114  1.3372 -2.4300
  820MOL0     H 8205   3.903   8.852   8.915  0.8148 -2.8479  3.9727
  820MOL0     H 8206   3.594   9.227   8.968 -1.6725 -0.3561  1.4940
  820MOL0     H 8207   3.594   9.105   9.102  1.8897 -3.6935 -0.8431
  820MOL0     H 8208   3.501   8.942   8.958  0.8059 -0.0312 -3.9259
  820MOL0     H 8209   3.494   9.039   8.821  0.6539 -4.9067 -0.0999
  820MOL0     H 8210   3.351   9.201   8.905  0.2229  0.2705 -0.3587
  820MOL0     H 8211   3.383   9.167   9.070 -1.6637  1.0196 -0.8312
  820MOL0     H 8212   3.227   8.982   8.888 -0.4101  0.6066 -0.1626
  820MOL0     H 8213   3.278   8.942   9.057  2.2779  0.5164 -1.1085
  820MOL0     H 8214   3.048   9.010   9.049  0.4357 -1.0423 -1.0531
  820MOL0     H 8215   3.093   9.166   8.962 -0.5545  3.0124  3.1076
  820MOL0     H 8216   3.138   9.281   9.158  1.2731  0.1842  0.5290
  820MOL0     H 8217   3.215   9.127   9.216  1.9179  0.1669 -3.3474
  820MOL0     H 8218   2.911   9.178   9.200 -1.1640 -1.0283  0.5142
  820MOL0     H 8219   2.983   9.035   9.249 -1.2655  0.7388  0.3089
  820MOL0     H 8220   3.108   9.152   9.439 -1.3898  0.1855  0.6050
  820MOL0     H 8221   2.936   9.158   9.456 -2.4912  1.6667  0.4915
  820MOL0     H 8222   3.806   9.211   9.152 -1.8893 -0.7943 -0.8198
  820MOL0     H 8223   4.029   9.182   9.265  0.6651  0.6389 -0.6768
  820MOL0     H 8224   4.444   9.006   9.268  0.7014  0.2818  0.3320
  820MOL0     H 8225   4.657   8.955   9.379  2.1645 -2.3537 -0.9328
  820MOL0     H 8226   6.297   7.971  10.018  0.2634  0.3194 -0.1098
  820MOL0     H 8227   6.483   7.837  10.096 -1.7809  1.3685  0.2737
  820MOL0     H 8228   6.854   7.582   9.934  0.0541  0.2812 -0.5437
  820MOL0     H 8229   7.058   7.450   9.983 -0.0956 -0.1405 -1.7354
  820MOL0     H 8230   7.402   7.671   9.916 -1.0672  0.9892  0.4871
  820MOL0     H 8231   7.298   7.565   9.824 -1.5001 -0.8249  1.2790
  820MOL0     H 8232   7.406   7.369   9.916  1.4877 -0.2513 -0.7001
  820MOL0     H 8233   7.475   7.467   9.787 -2.2404  3.1766 -0.5697
  820MOL0     H 8234   7.539   7.458  10.092 -0.9519  1.4726 -0.4002
  820MOL0     H 8235   7.658   7.526   9.973  2.4100 -2.9810 -2.4625
  820MOL0     H 8236   7.582   7.233  10.009  1.3557 -0.4982 -0.8795
  820MOL0     H 8237   7.657   7.305   9.861  2.6544  0.6492 -0.8734
  820MOL0     H 8238   7.989   7.311  10.108 -0.5034 -0.2522  0.3448
  820MOL0     H 8239   7.261   7.827  10.090 -0.8879  1.0623  1.3626
  820MOL0     H 8240   7.065   7.949  10.039 -1.4066  0.1381 -2.6899
  821MOL0     O 8241   6.466   8.669   6.269 -0.1619 -0.3365  0.6307
  821MOL0     C 8242   6.479   8.630   6.155 -0.6263 -0.3969  0.7308
  821MOL0     O 8243   6.389   8.561   6.075 -0.2294 -0.0886 -0.8252
  821MOL0     C 8244   6.264   8.555   6.128 -0.2687  0.3381  0.5730
  821MOL0     C 8245   6.169   8.651   6.089  0.2335 -0.0123  0.4402
  821MOL0     C 8246   6.040   8.648   6.151  0.4409  0.1276 -0.3443
  821MOL0     C 8247   6.000   8.551   6.241 -0.7647 -0.4832 -0.0702
  821MOL0     O 8248   5.874   8.551   6.286  0.3192 -0.0986 -0.1641
  821MOL0     C 8249   5.844   8.645   6.384  0.6628 -0.3781 -0.0975
  821MOL0     C 8250   5.695   8.647   6.426  0.3660 -0.6347 -0.0728
  821MOL0     C 8251   5.599   8.696   6.316 -0.1004 -0.9484  0.3911
  821MOL0     C 8252   5.537   8.835   6.351  0.3939  0.3499 -0.0870
  821MOL0     C 8253   5.424   8.861   6.254 -0.2200 -0.1396  0.2911
  821MOL0     C 8254   5.367   9.006   6.268 -0.0233  0.1180 -0.1224
  821MOL0     C 8255   5.297   9.029   6.401  0.1071 -0.3723  1.3190
  821MOL0     C 8256   5.231   9.167   6.420  0.3832 -0.3228 -0.0922
  821MOL0     N 8257   5.116   9.150   6.506  0.2289  0.3209 -0.1700
  821MOL0     C 8258   5.112   9.102   6.637  0.2806 -0.0553 -0.2876
  821MOL0     C 8259   4.987   9.118   6.684  0.1152  1.4698  0.1407
  821MOL0     C 8260   4.938   9.091   6.819  0.3412 -0.2582 -0.0870
  821MOL0     C 8261   4.954   9.201   6.921  0.0503  0.6638  0.4755
  821MOL0     C 8262   4.866   9.324   6.892 -0.0426 -0.1836 -0.4693
  821MOL0     C 8263   4.861   9.406   7.016 -0.1473  0.7536  0.9653
  821MOL0     O 8264   4.824   9.538   6.985  0.1399 -0.0967  0.9238
  821MOL0     C 8265   4.690   9.559   6.955 -0.0692  1.1463 -0.1704
  821MOL0     C 8266   4.592   9.539   7.055  0.3626 -0.0658 -0.4955
  821MOL0     C 8267   4.460   9.528   7.020  0.7451  0.4591  0.1432
  821MOL0     C 8268   4.415   9.556   6.888  0.2447 -0.5704  0.8307
  821MOL0     C 8269   4.275   9.573   6.854 -1.1444 -0.7481 -0.4484
  821MOL0     O 8270   4.227   9.563   6.733  0.3241 -0.1798  0.4032
  821MOL0     C 8271   4.100   9.612   6.703  0.2607 -0.3827  0.2634
  821MOL0     C 8272   4.062   9.739   6.723 -0.0980 -0.8656  0.2357
  821MOL0     C 8273   3.944   9.794   6.674 -0.1934  0.2991  1.3485
  821MOL0     C 8274   3.865   9.721   6.591 -0.0941 -1.1769  0.5732
  821MOL0     O 8275   3.748   9.772   6.535  0.5079 -0.5701  0.0682
  821MOL0     C 8276   3.702   9.902   6.572 -0.2311 -0.3813 -0.2314
  821MOL0     C 8277   3.569   9.951   6.502 -0.1233 -0.0328  0.4825
  821MOL0     C 8278   3.451   9.845   6.515 -0.2576  0.2202  0.3936
  821MOL0     C 8279   3.323   9.890   6.444  0.6098 -0.3355  0.0595
  821MOL0     C 8280   3.333   9.891   6.288  0.4169 -0.4001 -0.4319
  821MOL0     C 8281   3.197   9.914   6.224  0.1529  0.3058  0.2114
  821MOL0     C 8282   3.212   9.907   6.071 -0.5637  0.1189 -0.4245
  821MOL0     C 8283   3.073   9.900   6.002  0.2568  0.3015  0.3558
  821MOL0    Cl 8284   3.067   9.952   5.831 -0.3942 -0.4014  0.1038
  821MOL0     C 8285   3.909   9.586   6.564  0.4110  0.1187 -0.0432
  821MOL0     C 8286   4.023   9.530   6.623 -0.7221 -0.3634  0.2337
  821MOL0     O 8287   4.206   9.592   6.951  0.2748  0.5654 -0.3050
  821MOL0     C 8288   4.508   9.584   6.785 -0.2718  0.7656 -0.4052
  821MOL0     C 8289   4.640   9.575   6.823 -0.5841  0.2020  0.5402
  821MOL0     N 8290   4.913   9.175   6.580 -0.0310  0.3907 -0.4422
  821MOL0     N 8291   4.994   9.199   6.486  0.1995 -0.2699  1.2481
  821MOL0     C 8292   6.089   8.448   6.269 -0.8731 -1.3554 -0.5035
  821MOL0     C 8293   6.218   8.450   6.219  0.0764 -0.2113 -0.2670
  821MOL0     C 8294   6.611   8.638   6.095 -0.6898  0.0742 -0.1921
  821MOL0     C 8295   6.642   8.562   5.983 -0.0387  0.1855  0.1003
  821MOL0     C 8296   6.769   8.580   5.914  0.4689  0.4124  0.2753
  821MOL0     C 8297   6.866   8.665   5.973 -0.2095 -0.4789  0.2861
  821MOL0     O 8298   6.998   8.677   5.929  0.0955  0.5855 -0.3222
  821MOL0     C 8299   7.025   8.623   5.802  0.5578  0.4204  0.3727
  821MOL0     C 8300   7.160   8.679   5.745 -0.2872  0.3136 -0.2210
  821MOL0     C 8301   7.280   8.606   5.810 -1.0562 -0.2933  0.4444
  821MOL0     C 8302   7.407   8.657   5.764 -0.0064 -0.6039 -0.0265
  821MOL0     C 8303   7.454   8.596   5.634 -0.0574 -0.1708  0.7720
  821MOL0     C 8304   7.473   8.555   5.526 -0.1610  0.3463 -0.6010
  821MOL0     C 8305   6.832   8.734   6.083  0.7897 -0.1288 -0.5957
  821MOL0     C 8306   6.709   8.726   6.153  1.1093 -0.3946  0.8674
  821MOL0     H 8307   6.179   8.730   6.016 -2.4300 -1.8260 -2.0903
  821MOL0     H 8308   5.973   8.731   6.128 -0.1332 -0.5779 -1.2860
  821MOL0     H 8309   5.869   8.742   6.340  1.9177 -1.5201 -2.0442
  821MOL0     H 8310   5.909   8.630   6.471 -0.3648 -1.4713  0.5039
  821MOL0     H 8311   5.673   8.704   6.516  3.2305 -0.7506  0.8155
  821MOL0     H 8312   5.669   8.543   6.450  1.8257 -0.7715  1.0889
  821MOL0     H 8313   5.514   8.631   6.295 -0.8731 -0.1904  1.0952
  821MOL0     H 8314   5.660   8.722   6.228  2.1160  0.9292  2.3466
  821MOL0     H 8315   5.490   8.838   6.450  0.4050 -1.0650 -0.0189
  821MOL0     H 8316   5.614   8.911   6.345  0.4052  0.2839 -0.8555
  821MOL0     H 8317   5.339   8.795   6.274 -0.7043  0.6226  0.8274
  821MOL0     H 8318   5.460   8.842   6.152  0.4548 -3.0342  0.9949
  821MOL0     H 8319   5.310   9.033   6.179  0.0333 -0.4733 -0.3463
  821MOL0     H 8320   5.454   9.072   6.276  0.8388 -0.9664 -0.1926
  821MOL0     H 8321   5.217   8.954   6.400 -0.0831 -0.2304 -1.7003
  821MOL0     H 8322   5.356   9.010   6.492 -1.5488 -2.2590  2.0984
  821MOL0     H 8323   5.202   9.211   6.324  0.7749 -0.7945 -0.4336
  821MOL0     H 8324   5.301   9.240   6.464 -1.0353  0.3216  1.1594
  821MOL0     H 8325   5.187   9.055   6.700 -1.4072  0.7102  2.5172
  821MOL0     H 8326   4.983   8.995   6.845  2.4692  0.8150  0.4584
  821MOL0     H 8327   4.831   9.075   6.809 -0.1034  2.0227  0.3243
  821MOL0     H 8328   5.060   9.229   6.923  0.1788  0.2453 -0.2583
  821MOL0     H 8329   4.926   9.167   7.021 -1.4595 -0.5014 -0.2967
  821MOL0     H 8330   4.914   9.386   6.815 -1.5681  2.1783  0.3533
  821MOL0     H 8331   4.767   9.304   6.851 -0.2985  1.9342 -1.0530
  821MOL0     H 8332   4.958   9.397   7.065  1.4155 -0.0063 -2.0732
  821MOL0     H 8333   4.782   9.360   7.077 -1.7715 -1.6493 -2.5919
  821MOL0     H 8334   4.617   9.509   7.156 -1.0595  0.3527  0.0190
  821MOL0     H 8335   4.385   9.513   7.097  1.3098 -1.7011  0.3372
  821MOL0     H 8336   4.123   9.807   6.781  0.2987 -0.7825 -0.2714
  821MOL0     H 8337   3.931   9.901   6.690  0.8919  0.1670  3.6027
  821MOL0     H 8338   3.778   9.977   6.549 -1.7943  1.0117 -1.1541
  821MOL0     H 8339   3.683   9.906   6.680 -1.6518  2.3700 -0.4789
  821MOL0     H 8340   3.595   9.977   6.399  0.0509  0.2043  0.5859
  821MOL0     H 8341   3.533  10.046   6.540 -0.4007 -0.6436  1.7957
  821MOL0     H 8342   3.428   9.829   6.620  0.4032 -3.1019  0.1267
  821MOL0     H 8343   3.478   9.741   6.495 -0.7582 -0.3223  2.3403
  821MOL0     H 8344   3.244   9.826   6.484  0.3433 -1.6812 -2.4317
  821MOL0     H 8345   3.299   9.993   6.472  0.1915 -0.0149 -1.4169
  821MOL0     H 8346   3.370   9.793   6.258  4.4435  0.9930 -0.6159
  821MOL0     H 8347   3.403   9.967   6.251 -0.9600  0.3832 -1.5447
  821MOL0     H 8348   3.150  10.009   6.249  1.5316  1.6984 -2.1301
  821MOL0     H 8349   3.137   9.825   6.245  1.7895 -1.3702 -1.7635
  821MOL0     H 8350   3.261  10.002   6.048 -2.0536  0.9602 -0.1993
  821MOL0     H 8351   3.270   9.819   6.041 -1.9116 -0.0209 -2.8489
  821MOL0     H 8352   2.995   9.968   6.039 -1.0473 -0.8007 -0.2694
  821MOL0     H 8353   3.039   9.797   6.013 -1.4328  1.0386  3.2522
  821MOL0     H 8354   3.842   9.539   6.493 -0.9763  0.3025  1.0731
  821MOL0     H 8355   4.047   9.426   6.603 -2.2702 -0.8609  0.7936
  821MOL0     H 8356   4.485   9.602   6.681  1.8699  0.7434 -0.9223
  821MOL0     H 8357   4.710   9.555   6.743 -1.9075  0.8432 -0.8538
  821MOL0     H 8358   6.060   8.360   6.326 -2.3857 -0.7521 -0.2973
  821MOL0     H 8359   6.290   8.371   6.239 -0.4039 -0.4787  0.4285
  821MOL0     H 8360   6.570   8.491   5.945  1.8133 -1.4621 -0.5289
  821MOL0     H 8361   6.796   8.523   5.826  1.6051  3.8531 -1.7916
  821MOL0     H 8362   6.939   8.644   5.738 -1.2263 -0.3302  2.4083
  821MOL0     H 8363   7.044   8.515   5.808  0.0402  0.1311 -2.0527
  821MOL0     H 8364   7.166   8.656   5.639  1.7299  1.2325 -0.3637
  821MOL0     H 8365   7.174   8.787   5.759  1.4746  0.1901 -0.8094
  821MOL0     H 8366   7.283   8.500   5.781 -2.6025 -0.2519  0.0800
  821MOL0     H 8367   7.282   8.609   5.919  2.4152 -1.0329  0.5240
  821MOL0     H 8368   7.406   8.766   5.752  0.4411 -0.8613 -3.3286
  821MOL0     H 8369   7.486   8.634   5.836  0.6414 -2.5039 -1.2849
  821MOL0     H 8370   7.486   8.506   5.432  2.4020 -1.9226  0.7856
  821MOL0     H 8371   6.901   8.811   6.117  0.0686  0.1426  0.2888
  821MOL0     H 8372   6.697   8.777   6.248 -0.1697  0.1464  0.4398
  822MOL0     O 8373   4.434   2.455   6.426 -0.7552 -0.5532  0.9681
  822MOL0     C 8374   4.426   2.365   6.512  0.0754 -1.0788 -0.4812
  822MOL0     O 8375   4.318   2.290   6.536  0.5282 -0.7624  0.0480
  822MOL0     C 8376   4.193   2.322   6.496  0.1591  0.4515  1.2810
  822MOL0     C 8377   4.083   2.321   6.585  0.3926  0.0204  0.5885
  822MOL0     C 8378   3.958   2.328   6.539  0.5491 -0.2836  0.1177
  822MOL0     C 8379   3.936   2.344   6.410 -0.1733 -0.7890 -0.3715
  822MOL0     O 8380   3.800   2.362   6.385  0.3108 -0.3928 -0.3653
  822MOL0     C 8381   3.757   2.415   6.261  0.3987 -0.2539 -0.0944
  822MOL0     C 8382   3.602   2.385   6.250 -0.4842  0.2475 -0.1988
  822MOL0     C 8383   3.592   2.262   6.167 -0.2943 -1.1784  0.7785
  822MOL0     C 8384   3.438   2.235   6.152 -0.8443  0.0565 -0.4958
  822MOL0     C 8385   3.405   2.129   6.045 -1.0068  0.2481  0.4864
  822MOL0     C 8386   3.249   2.099   6.047 -0.4349  0.0963 -0.5776
  822MOL0     C 8387   3.196   2.043   5.917 -0.3049  0.4810 -0.2009
  822MOL0     C 8388   3.053   2.003   5.929 -0.3806 -0.4144  0.2370
  822MOL0     N 8389   3.009   1.933   5.807 -0.6253 -0.9080 -0.4175
  822MOL0     C 8390   2.991   1.990   5.682 -0.0495  0.0667 -0.0371
  822MOL0     C 8391   2.945   1.891   5.609 -0.0298  0.1705 -0.0633
  822MOL0     C 8392   2.909   1.900   5.465  0.5619 -0.3010 -0.9019
  822MOL0     C 8393   2.777   1.981   5.444 -0.8466  0.4100  0.4475
  822MOL0     C 8394   2.725   1.966   5.295 -0.3499  0.6583 -0.2038
  822MOL0     C 8395   2.687   1.824   5.261 -0.6112 -0.4646  0.4393
  822MOL0     O 8396   2.578   1.767   5.341 -0.5046 -0.5124  0.0325
  822MOL0     C 8397   2.450   1.770   5.291  0.4553 -0.6000  0.0012
  822MOL0     C 8398   2.344   1.726   5.375  0.4651 -0.3596  0.1127
  822MOL0     C 8399   2.207   1.720   5.331 -0.3549 -1.4249  0.5503
  822MOL0     C 8400   2.171   1.777   5.204  0.3002 -0.0417 -0.1747
  822MOL0     C 8401   2.029   1.782   5.169 -0.4922  1.0248  0.3961
  822MOL0     O 8402   2.013   1.871   5.068  1.0429 -0.5051 -0.1421
  822MOL0     C 8403   1.888   1.889   5.015  1.4236  0.2899  0.7064
  822MOL0     C 8404   1.773   1.907   5.091 -0.1362 -0.2677  0.2091
  822MOL0     C 8405   1.642   1.902   5.026 -0.2017  0.3681 -0.1402
  822MOL0     C 8406   1.627   1.872   4.888  0.1850 -0.1271  0.2505
  822MOL0     O 8407   1.506   1.860   4.814  0.3652 -0.1474  0.8129
  822MOL0     C 8408   1.384   1.924   4.864  0.1122  0.3785 -0.4512
  822MOL0     C 8409   1.390   2.069   4.815  0.3858  0.1319  0.3470
  822MOL0     C 8410   1.405   2.081   4.657  0.3390  0.4606  0.3400
  822MOL0     C 8411   1.401   2.236   4.621 -0.3726  0.8523  0.5035
  822MOL0     C 8412   1.393   2.261   4.468 -0.1313 -0.1359  0.5610
  822MOL0     C 8413   1.250   2.242   4.421  0.5813  0.4320 -0.1578
  822MOL0     C 8414   1.221   2.250   4.273 -0.7482 -0.5384  0.3980
  822MOL0     C 8415   1.073   2.206   4.257  0.4967  0.2169  0.4282
  822MOL0    Cl 8416   0.974   2.335   4.315 -0.4749  0.2637 -0.2445
  822MOL0     C 8417   1.743   1.863   4.807 -0.5502 -0.0661  0.6760
  822MOL0     C 8418   1.869   1.873   4.871 -0.7928 -0.1119 -0.3955
  822MOL0     O 8419   1.937   1.722   5.222 -0.6201  0.4467  0.6356
  822MOL0     C 8420   2.272   1.829   5.127  0.1677 -0.3334  0.8221
  822MOL0     C 8421   2.411   1.825   5.166  0.2426 -0.6433  0.3247
  822MOL0     N 8422   2.935   1.773   5.686 -0.0237 -0.1445  0.6129
  822MOL0     N 8423   2.983   1.799   5.802 -0.0807 -0.0001 -0.1794
  822MOL0     C 8424   4.034   2.343   6.317  0.3309 -0.6158 -0.2238
  822MOL0     C 8425   4.167   2.324   6.361 -0.0062 -0.3557  0.6589
  822MOL0     C 8426   4.555   2.322   6.570  0.1435  0.9616 -0.4916
  822MOL0     C 8427   4.567   2.244   6.694 -0.1736  0.1749  0.4338
  822MOL0     C 8428   4.690   2.185   6.721 -0.0651 -0.2239  0.1083
  822MOL0     C 8429   4.807   2.216   6.655  0.0243 -0.5220  0.5043
  822MOL0     O 8430   4.916   2.153   6.701  0.2082  0.0045 -0.0335
  822MOL0     C 8431   5.037   2.179   6.630  0.4186 -0.3272  1.6316
  822MOL0     C 8432   5.153   2.097   6.686  1.1063  0.1173 -0.5061
  822MOL0     C 8433   5.174   2.118   6.843  0.9953 -0.2877  1.1591
  822MOL0     C 8434   5.281   2.034   6.909  0.3313  0.0350 -0.0470
  822MOL0     C 8435   5.416   2.034   6.853 -0.4775 -0.4428  0.6224
  822MOL0     C 8436   5.528   2.043   6.806  0.2565  0.0382 -0.3846
  822MOL0     C 8437   4.799   2.303   6.546 -0.1698  0.2640 -0.1188
  822MOL0     C 8438   4.679   2.351   6.499  0.4115 -0.8563 -0.2977
  822MOL0     H 8439   4.104   2.319   6.692 -1.8644  1.1581  1.0979
  822MOL0     H 8440   3.875   2.340   6.607 -1.0967  2.0547 -2.1176
  822MOL0     H 8441   3.821   2.385   6.178 -2.9264 -2.9917 -1.9182
  822MOL0     H 8442   3.762   2.524   6.275  3.3669 -0.4171  0.7711
  822MOL0     H 8443   3.548   2.466   6.201 -0.6229 -1.2192 -2.6290
  822MOL0     H 8444   3.561   2.378   6.351  0.8962  2.5684  0.5877
  822MOL0     H 8445   3.638   2.178   6.221 -0.2557 -1.5069  0.2446
  822MOL0     H 8446   3.637   2.279   6.069 -1.1155 -1.0941  0.4012
  822MOL0     H 8447   3.411   2.203   6.253  2.5143  2.5839  1.4220
  822MOL0     H 8448   3.385   2.329   6.134 -0.3594  1.2574  3.4567
  822MOL0     H 8449   3.466   2.041   6.067  0.1611  0.9767  0.2564
  822MOL0     H 8450   3.425   2.159   5.942 -2.3682 -0.2289  0.0584
  822MOL0     H 8451   3.206   2.198   6.067  1.0665  0.3445  1.8014
  822MOL0     H 8452   3.214   2.036   6.129 -1.0032  0.7422 -0.3066
  822MOL0     H 8453   3.211   2.103   5.827  0.9211  2.6422  1.3464
  822MOL0     H 8454   3.257   1.954   5.899 -0.9544 -0.7241  2.8735
  822MOL0     H 8455   2.995   2.094   5.944 -3.0714 -1.8798 -0.5832
  822MOL0     H 8456   3.042   1.929   6.009  1.6356 -0.9277  0.0945
  822MOL0     H 8457   3.006   2.094   5.655 -2.0730  0.9358  1.8719
  822MOL0     H 8458   2.901   1.798   5.428  0.4677 -0.9204  0.7268
  822MOL0     H 8459   2.991   1.962   5.426  2.2954 -0.7217  1.7626
  822MOL0     H 8460   2.790   2.084   5.476 -1.2767  1.5293 -2.6175
  822MOL0     H 8461   2.697   1.937   5.503  0.4528 -0.3155  1.7416
  822MOL0     H 8462   2.632   2.022   5.286 -0.2676  0.6822 -0.9605
  822MOL0     H 8463   2.801   1.998   5.222  1.7892 -2.9114  0.2320
  822MOL0     H 8464   2.771   1.754   5.267 -0.6514 -0.8990 -2.4185
  822MOL0     H 8465   2.671   1.816   5.152 -1.2195 -0.0716  0.4930
  822MOL0     H 8466   2.344   1.680   5.473 -3.6635  0.7701  0.8496
  822MOL0     H 8467   2.133   1.688   5.403 -0.4647 -1.3895  0.4519
  822MOL0     H 8468   1.773   1.933   5.196 -2.1841  0.8538 -0.0182
  822MOL0     H 8469   1.551   1.909   5.084  0.4384 -0.8183  1.0582
  822MOL0     H 8470   1.371   1.917   4.972 -2.5249 -0.1457 -0.7289
  822MOL0     H 8471   1.300   1.866   4.825  1.6710 -1.7140 -0.8650
  822MOL0     H 8472   1.476   2.114   4.865  0.5047  1.2128 -0.7771
  822MOL0     H 8473   1.319   2.139   4.859  1.6145  0.6431  1.6099
  822MOL0     H 8474   1.320   2.036   4.604 -0.6026  0.9305  1.4227
  822MOL0     H 8475   1.493   2.027   4.622  2.3958  3.2141  0.9898
  822MOL0     H 8476   1.323   2.290   4.676 -1.3458  0.1289 -0.1195
  822MOL0     H 8477   1.498   2.278   4.650  0.4417 -0.6863  0.1284
  822MOL0     H 8478   1.464   2.192   4.421  0.0862 -1.1777  2.2968
  822MOL0     H 8479   1.424   2.360   4.433 -2.2501  0.6184  0.6995
  822MOL0     H 8480   1.189   2.315   4.476  1.0257 -1.6986  3.4701
  822MOL0     H 8481   1.213   2.145   4.454 -0.6505  0.1935 -2.0892
  822MOL0     H 8482   1.240   2.350   4.233  2.7006 -1.3603 -0.2979
  822MOL0     H 8483   1.292   2.186   4.221 -0.4421 -0.8848  1.2458
  822MOL0     H 8484   1.054   2.119   4.320  0.2575  0.2961  0.4655
  822MOL0     H 8485   1.058   2.183   4.151  1.4373  0.2847  0.2699
  822MOL0     H 8486   1.739   1.847   4.700  1.4222  0.8845  0.4098
  822MOL0     H 8487   1.957   1.853   4.811 -0.1940  0.0518  0.4178
  822MOL0     H 8488   2.240   1.873   5.033  1.5167  1.2060  1.0471
  822MOL0     H 8489   2.488   1.875   5.108 -0.8976 -1.2106 -1.7748
  822MOL0     H 8490   4.022   2.363   6.211  1.4734  3.3666  0.2611
  822MOL0     H 8491   4.248   2.322   6.288  0.8869  1.1271  1.5487
  822MOL0     H 8492   4.483   2.216   6.756 -1.8165  2.3655 -0.6547
  822MOL0     H 8493   4.695   2.130   6.814  2.1860  0.2833  0.3670
  822MOL0     H 8494   5.069   2.282   6.652  1.0923 -0.1218 -0.1602
  822MOL0     H 8495   5.025   2.164   6.522 -1.2741  3.0688  1.2166
  822MOL0     H 8496   5.139   1.990   6.667  0.2583 -0.2916  2.0001
  822MOL0     H 8497   5.248   2.122   6.639  0.7711  1.5001 -0.4663
  822MOL0     H 8498   5.080   2.099   6.895  1.2317  1.9186  2.4960
  822MOL0     H 8499   5.194   2.225   6.850 -2.9821  0.8925 -1.7604
  822MOL0     H 8500   5.280   2.082   7.007  0.4715  1.6096 -0.7868
  822MOL0     H 8501   5.248   1.933   6.935  0.9429 -0.2119 -0.1917
  822MOL0     H 8502   5.630   2.046   6.775  0.8585  1.0651  1.5484
  822MOL0     H 8503   4.891   2.327   6.494  0.6798 -0.3073  1.0823
  822MOL0     H 8504   4.678   2.422   6.417  1.0556 -1.8979 -1.2386
  823MOL0     O 8505   7.482   2.358   5.150  0.7056 -0.3707 -0.4397
  823MOL0     C 8506   7.497   2.389   5.036  0.4707  0.2273 -0.9476
  823MOL0     O 8507   7.407   2.460   4.959 -0.0126 -0.0818  1.1186
  823MOL0     C 8508   7.274   2.454   4.990  0.6478  0.0869 -0.2032
  823MOL0     C 8509   7.200   2.567   4.963  0.3486  0.0832  0.0637
  823MOL0     C 8510   7.065   2.573   5.001  0.2362  0.5098 -0.1282
  823MOL0     C 8511   7.001   2.471   5.070 -0.4582  0.3520 -0.2461
  823MOL0     O 8512   6.870   2.482   5.107 -0.6100  0.3208  0.1069
  823MOL0     C 8513   6.775   2.380   5.052 -0.9946 -0.2086 -0.9767
  823MOL0     C 8514   6.663   2.468   4.999  0.9421  0.0604 -0.4299
  823MOL0     C 8515   6.707   2.531   4.869  0.1167 -0.6434  0.0638
  823MOL0     C 8516   6.615   2.647   4.842 -0.4748  0.1927 -0.1109
  823MOL0     C 8517   6.609   2.676   4.688  0.3829 -0.3295 -0.2828
  823MOL0     C 8518   6.538   2.814   4.661  1.2530  0.0216  0.5740
  823MOL0     C 8519   6.544   2.845   4.510  0.2431 -0.2672 -0.5471
  823MOL0     C 8520   6.455   2.739   4.427  0.5155  0.1858 -0.2137
  823MOL0     N 8521   6.312   2.748   4.465 -0.4802  0.4343  0.2481
  823MOL0     C 8522   6.244   2.851   4.529  0.5545  0.7458  0.4939
  823MOL0     C 8523   6.112   2.812   4.514  0.1151  0.6446  0.0092
  823MOL0     C 8524   5.999   2.889   4.565  0.3601 -0.0859 -0.4510
  823MOL0     C 8525   5.926   2.979   4.463 -0.0677  0.5912 -0.3693
  823MOL0     C 8526   6.021   3.046   4.364 -0.4334 -0.7243  0.0584
  823MOL0     C 8527   5.942   3.141   4.270 -0.1741 -0.1475 -0.4490
  823MOL0     O 8528   5.872   3.058   4.171 -0.4370  0.4831 -0.3324
  823MOL0     C 8529   5.777   3.118   4.092 -0.4061 -0.4985  0.2664
  823MOL0     C 8530   5.667   3.037   4.059 -0.4613  0.0933 -0.3438
  823MOL0     C 8531   5.571   3.076   3.974  0.1231 -0.0406 -0.0362
  823MOL0     C 8532   5.572   3.207   3.923  0.3540  0.2406 -0.1721
  823MOL0     C 8533   5.467   3.263   3.839 -0.5387 -0.0779  0.1863
  823MOL0     O 8534   5.346   3.196   3.828  0.0936  0.3268 -0.1384
  823MOL0     C 8535   5.236   3.247   3.771 -0.0761  0.1300  0.6959
  823MOL0     C 8536   5.230   3.344   3.667 -0.9925  1.3639 -0.4496
  823MOL0     C 8537   5.108   3.375   3.607  0.3079  0.0641 -0.9566
  823MOL0     C 8538   4.991   3.337   3.667  0.7289  0.0373  0.2958
  823MOL0     O 8539   4.870   3.390   3.613 -0.7755 -0.6493  0.0337
  823MOL0     C 8540   4.741   3.328   3.640 -0.1977 -0.0601 -0.1567
  823MOL0     C 8541   4.643   3.437   3.611  0.0306  0.3146  0.1843
  823MOL0     C 8542   4.500   3.359   3.609 -0.5557 -0.5018  0.0152
  823MOL0     C 8543   4.387   3.460   3.589 -0.3704  0.7206  0.0065
  823MOL0     C 8544   4.252   3.380   3.593 -0.5541 -0.7172  0.0239
  823MOL0     C 8545   4.124   3.464   3.580  0.6345  0.3075 -0.2845
  823MOL0     C 8546   4.134   3.621   3.570 -0.5045  0.0017 -0.0660
  823MOL0     C 8547   3.994   3.682   3.572 -0.2434 -0.2862  0.8789
  823MOL0    Cl 8548   3.974   3.745   3.398 -0.3646 -0.0000  0.0153
  823MOL0     C 8549   4.994   3.242   3.776 -0.1857  0.0195  0.5261
  823MOL0     C 8550   5.119   3.200   3.825  0.4263  0.4566  0.2788
  823MOL0     O 8551   5.493   3.372   3.793  0.1750  0.3666  0.1760
  823MOL0     C 8552   5.683   3.286   3.947 -0.0974 -0.0522  0.3783
  823MOL0     C 8553   5.790   3.239   4.024  0.0996 -0.4922  0.2228
  823MOL0     N 8554   6.110   2.691   4.445 -0.1143 -0.1237 -0.2236
  823MOL0     N 8555   6.229   2.653   4.413 -0.0358  0.5357  0.3637
  823MOL0     C 8556   7.072   2.356   5.088 -0.2449  0.5064 -0.0937
  823MOL0     C 8557   7.204   2.343   5.048 -0.5745 -0.7644 -0.8133
  823MOL0     C 8558   7.635   2.382   4.987 -0.1146  0.3821  0.2853
  823MOL0     C 8559   7.728   2.295   5.049  0.1038  0.2723 -0.4366
  823MOL0     C 8560   7.854   2.280   4.996  0.1542 -0.4808 -0.4050
  823MOL0     C 8561   7.889   2.329   4.873  0.0100 -0.6098  0.6189
  823MOL0     O 8562   8.012   2.327   4.802  0.0020 -0.4532  0.5126
  823MOL0     C 8563   8.103   2.228   4.828 -0.2595  0.2928 -0.3853
  823MOL0     C 8564   8.211   2.280   4.924  0.1240 -0.8228  0.2335
  823MOL0     C 8565   8.339   2.191   4.948  0.1917  0.3919  0.1465
  823MOL0     C 8566   8.305   2.051   4.968  0.0340  0.4606  0.2262
  823MOL0     C 8567   8.426   1.970   4.986  0.3991 -0.4051  0.2286
  823MOL0     C 8568   8.518   1.894   5.008 -0.3433 -0.1540  0.1829
  823MOL0     C 8569   7.795   2.412   4.809 -0.9535  0.5711  0.3917
  823MOL0     C 8570   7.669   2.437   4.860  0.9808 -0.0743 -0.4711
  823MOL0     H 8571   7.251   2.647   4.911  0.8223  0.1551  0.6326
  823MOL0     H 8572   7.018   2.667   4.971 -0.0507  0.4598  0.1677
  823MOL0     H 8573   6.741   2.311   5.130  0.4886  0.0115 -0.1089
  823MOL0     H 8574   6.809   2.315   4.971 -0.2676 -1.1754  0.0656
  823MOL0     H 8575   6.639   2.552   5.065 -1.2993 -2.1085  1.7385
  823MOL0     H 8576   6.568   2.416   4.982 -0.3438  2.2272 -0.1951
  823MOL0     H 8577   6.688   2.460   4.788 -1.4342 -2.5376  1.9595
  823MOL0     H 8578   6.813   2.559   4.872 -0.4318  1.8844 -1.5947
  823MOL0     H 8579   6.516   2.621   4.880  0.6599 -2.7216  1.2000
  823MOL0     H 8580   6.642   2.740   4.895 -2.1637 -0.5962  2.3317
  823MOL0     H 8581   6.562   2.591   4.639  1.1691  0.4861 -2.5863
  823MOL0     H 8582   6.711   2.672   4.651  0.3817 -1.1039 -0.2104
  823MOL0     H 8583   6.574   2.898   4.721  0.8476  0.7535 -0.1807
  823MOL0     H 8584   6.432   2.814   4.688  0.6785 -0.4691 -1.4815
  823MOL0     H 8585   6.512   2.947   4.488  0.7609 -0.3621 -1.8476
  823MOL0     H 8586   6.648   2.845   4.476  0.0844  1.7329 -1.1847
  823MOL0     H 8587   6.493   2.636   4.428 -1.2910 -0.5151 -0.6555
  823MOL0     H 8588   6.465   2.773   4.324  1.4216 -0.1102 -0.2348
  823MOL0     H 8589   6.272   2.943   4.578 -1.6938  2.6547 -1.5649
  823MOL0     H 8590   6.037   2.952   4.646 -2.4196 -1.4702  2.1278
  823MOL0     H 8591   5.931   2.827   4.623  2.2038 -0.4954  1.3651
  823MOL0     H 8592   5.861   3.051   4.513 -1.2554 -1.3769  1.1004
  823MOL0     H 8593   5.852   2.913   4.416 -0.0448  2.2373 -2.8732
  823MOL0     H 8594   6.098   3.103   4.416 -1.5116  2.8910 -1.9608
  823MOL0     H 8595   6.064   2.967   4.302 -0.7121 -0.6684 -0.2097
  823MOL0     H 8596   6.013   3.206   4.218 -0.8892  0.1622 -1.0570
  823MOL0     H 8597   5.877   3.209   4.326 -1.4215 -2.2964  0.8657
  823MOL0     H 8598   5.641   2.945   4.112  1.9800 -0.1333  0.5920
  823MOL0     H 8599   5.494   3.004   3.947  1.1278 -0.7059 -1.2163
  823MOL0     H 8600   5.320   3.396   3.636 -0.3192  0.4642 -0.0562
  823MOL0     H 8601   5.102   3.449   3.528 -1.2317  0.5311 -0.4388
  823MOL0     H 8602   4.741   3.288   3.742  0.8258  0.5273  0.0992
  823MOL0     H 8603   4.719   3.247   3.571 -0.3669  1.0262 -1.4101
  823MOL0     H 8604   4.668   3.475   3.512 -3.0333  2.0595 -0.0427
  823MOL0     H 8605   4.658   3.518   3.683 -0.7656 -1.9030  3.0644
  823MOL0     H 8606   4.476   3.309   3.703 -0.8099 -1.4758 -0.5467
  823MOL0     H 8607   4.496   3.284   3.529  0.7453 -3.3960  2.4608
  823MOL0     H 8608   4.382   3.541   3.662  3.2860  2.8934 -1.8791
  823MOL0     H 8609   4.398   3.522   3.500 -0.6619  0.8612  0.0658
  823MOL0     H 8610   4.236   3.328   3.688 -1.8350 -3.2697 -1.4859
  823MOL0     H 8611   4.254   3.308   3.511 -0.8579  0.7765 -1.3426
  823MOL0     H 8612   4.057   3.447   3.664  1.9994 -0.5271  0.6794
  823MOL0     H 8613   4.084   3.442   3.481  1.7750 -0.3041 -0.6315
  823MOL0     H 8614   4.203   3.656   3.648  1.4539 -1.2315 -1.1676
  823MOL0     H 8615   4.185   3.640   3.476 -0.0724 -0.4331  0.0743
  823MOL0     H 8616   3.980   3.766   3.641 -2.4369  0.0172  0.1488
  823MOL0     H 8617   3.919   3.604   3.592 -1.7653  0.2563 -2.1463
  823MOL0     H 8618   4.909   3.217   3.839  0.1576 -0.1479  0.9339
  823MOL0     H 8619   5.134   3.124   3.901  2.4669  1.3366  0.8224
  823MOL0     H 8620   5.687   3.389   3.912 -3.9361  0.3348  0.6874
  823MOL0     H 8621   5.878   3.299   4.038  0.0786 -0.5960  0.8156
  823MOL0     H 8622   7.019   2.276   5.138 -2.9549  3.0097  1.3441
  823MOL0     H 8623   7.268   2.262   5.081  2.5724  2.3926  1.5047
  823MOL0     H 8624   7.705   2.249   5.144  0.5825 -0.9402 -0.8767
  823MOL0     H 8625   7.934   2.217   5.035  3.1662  1.1654 -3.4323
  823MOL0     H 8626   8.139   2.190   4.732 -1.2429 -1.5256 -0.0769
  823MOL0     H 8627   8.057   2.144   4.881  3.3074 -0.0444  2.5555
  823MOL0     H 8628   8.251   2.370   4.877  1.0078 -0.0016  2.4258
  823MOL0     H 8629   8.162   2.315   5.014 -0.2890  0.7683 -0.5801
  823MOL0     H 8630   8.404   2.227   5.029  0.8861  1.7337 -0.9647
  823MOL0     H 8631   8.407   2.196   4.862 -0.0281  6.3917 -0.0836
  823MOL0     H 8632   8.230   2.026   5.042  0.3564  2.1252  1.1616
  823MOL0     H 8633   8.256   2.020   4.875  0.2197 -1.7374  0.8207
  823MOL0     H 8634   8.602   1.840   5.047  0.6039 -0.7788 -2.5333
  823MOL0     H 8635   7.817   2.453   4.711 -0.3451  0.7948  0.6157
  823MOL0     H 8636   7.600   2.494   4.798 -2.1986 -3.5390 -0.4358
  824MOL0     O 8637   5.307   2.348   6.470 -0.2869  1.0138  0.8908
  824MOL0     C 8638   5.359   2.263   6.395 -0.2299 -0.1833  0.8708
  824MOL0     O 8639   5.299   2.196   6.287 -0.4052  0.4568 -0.0141
  824MOL0     C 8640   5.166   2.220   6.260 -0.1016  0.2715 -0.9653
  824MOL0     C 8641   5.075   2.118   6.285  0.0181 -0.4716  0.1231
  824MOL0     C 8642   4.948   2.140   6.231 -0.2670  0.2135 -0.1410
  824MOL0     C 8643   4.908   2.261   6.177  0.0465 -0.9254 -0.0268
  824MOL0     O 8644   4.773   2.275   6.144  0.3935 -0.8774  0.1899
  824MOL0     C 8645   4.728   2.397   6.083  0.6746 -0.4017 -0.9610
  824MOL0     C 8646   4.577   2.394   6.081  0.3554  0.7066  0.8502
  824MOL0     C 8647   4.516   2.534   6.054 -0.5311  0.3143 -0.0242
  824MOL0     C 8648   4.387   2.515   5.973  0.8589  0.8252  0.3293
  824MOL0     C 8649   4.276   2.631   5.987 -0.3539 -0.4196 -0.3795
  824MOL0     C 8650   4.130   2.593   5.955 -0.5911 -1.2547  0.3595
  824MOL0     C 8651   4.041   2.709   5.975  0.3157 -0.7141 -0.1287
  824MOL0     C 8652   3.899   2.672   5.930 -0.5306  0.8014  0.3421
  824MOL0     N 8653   3.813   2.787   5.934  0.3173 -0.0171  0.7892
  824MOL0     C 8654   3.758   2.828   6.056  0.1099 -0.1814 -0.8439
  824MOL0     C 8655   3.641   2.884   6.033 -0.5626  0.3296  0.3033
  824MOL0     C 8656   3.565   2.936   6.156  0.0941 -0.3486  0.4557
  824MOL0     C 8657   3.442   3.028   6.139 -0.2699  0.5350 -0.0285
  824MOL0     C 8658   3.368   3.035   6.270 -0.6100 -0.6155  0.2872
  824MOL0     C 8659   3.241   3.116   6.268  0.2602  0.7022 -0.2227
  824MOL0     O 8660   3.162   3.061   6.167  0.9378  0.0676  0.2575
  824MOL0     C 8661   3.027   3.053   6.192  0.0093 -0.4054  0.0576
  824MOL0     C 8662   2.957   2.953   6.133  0.1437  0.1826  0.2529
  824MOL0     C 8663   2.821   2.929   6.151 -0.0204  0.6031 -0.0057
  824MOL0     C 8664   2.751   3.005   6.240 -0.0399  0.6927 -0.0440
  824MOL0     C 8665   2.611   2.969   6.269  1.2219  0.1772  0.7610
  824MOL0     O 8666   2.579   2.842   6.225 -0.2041 -0.2400  0.5149
  824MOL0     C 8667   2.449   2.801   6.227 -0.9660  0.3999 -0.1256
  824MOL0     C 8668   2.399   2.703   6.314 -0.6735 -0.4415 -0.2526
  824MOL0     C 8669   2.273   2.651   6.303  0.3199 -0.3230  0.4020
  824MOL0     C 8670   2.183   2.713   6.210  0.9705 -0.2554  0.1573
  824MOL0     O 8671   2.048   2.683   6.190 -0.3911  0.0804 -0.0181
  824MOL0     C 8672   2.024   2.548   6.154  0.5582 -0.0063 -0.0468
  824MOL0     C 8673   1.885   2.523   6.099  0.1061 -1.3116  0.6670
  824MOL0     C 8674   1.778   2.532   6.204 -0.1651 -0.2172 -0.0659
  824MOL0     C 8675   1.776   2.398   6.287  0.1682 -1.3992 -0.2929
  824MOL0     C 8676   1.657   2.418   6.383  1.0935 -0.6179  0.3088
  824MOL0     C 8677   1.574   2.280   6.397  0.3398 -0.4304 -0.5617
  824MOL0     C 8678   1.463   2.264   6.289 -0.3646  0.2924  0.5069
  824MOL0     C 8679   1.381   2.126   6.306  0.0837 -1.4329  0.0885
  824MOL0    Cl 8680   1.473   1.983   6.324 -0.1609  0.0656  0.1075
  824MOL0     C 8681   2.232   2.808   6.124 -0.9490 -0.6540 -0.2313
  824MOL0     C 8682   2.363   2.857   6.132  0.5762 -0.0471  0.0938
  824MOL0     O 8683   2.535   3.045   6.327  0.3780  0.0377 -0.4792
  824MOL0     C 8684   2.817   3.112   6.310 -0.3271 -0.4833 -0.6394
  824MOL0     C 8685   2.957   3.140   6.276 -0.0135  0.0360  0.7733
  824MOL0     N 8686   3.636   2.896   5.891  0.8768  0.0529 -0.7248
  824MOL0     N 8687   3.737   2.841   5.836 -0.5576  0.1793  0.1667
  824MOL0     C 8688   5.006   2.364   6.167 -0.1314  0.1720 -0.0655
  824MOL0     C 8689   5.132   2.342   6.207 -0.4573 -0.1046  0.3021
  824MOL0     C 8690   5.508   2.230   6.423  0.2501 -0.3162  0.5045
  824MOL0     C 8691   5.586   2.310   6.500 -0.5929 -0.1251 -0.1620
  824MOL0     C 8692   5.717   2.277   6.532 -0.2082  0.2767 -0.0484
  824MOL0     C 8693   5.769   2.162   6.471 -0.0262 -0.5273 -0.1288
  824MOL0     O 8694   5.903   2.132   6.480  0.9134  0.2408 -1.0113
  824MOL0     C 8695   5.965   2.129   6.607  0.8930 -0.2740 -0.3397
  824MOL0     C 8696   6.078   2.233   6.625  0.3713 -0.0575 -0.2187
  824MOL0     C 8697   6.217   2.175   6.675  1.1149 -0.6327 -1.0692
  824MOL0     C 8698   6.341   2.266   6.667  0.3156  0.0481 -0.1779
  824MOL0     C 8699   6.323   2.393   6.726 -0.7392  0.1916 -1.4019
  824MOL0     C 8700   6.299   2.499   6.786 -0.0813 -0.8049  0.9878
  824MOL0     C 8701   5.691   2.071   6.398  0.1314  0.4288  0.0775
  824MOL0     C 8702   5.562   2.107   6.371  0.3365  0.7064 -0.0657
  824MOL0     H 8703   5.102   2.020   6.325  0.5870  0.0454  1.0426
  824MOL0     H 8704   4.865   2.069   6.235 -1.6207  1.6899 -0.6962
  824MOL0     H 8705   4.756   2.421   5.980  0.8612 -3.2312 -1.6518
  824MOL0     H 8706   4.749   2.479   6.153 -1.5349 -0.8309  0.3039
  824MOL0     H 8707   4.546   2.346   6.174  3.2753  0.8138  1.9819
  824MOL0     H 8708   4.546   2.319   6.007 -1.2030  0.5571  1.6133
  824MOL0     H 8709   4.589   2.589   5.994  1.3639 -2.8548 -0.8609
  824MOL0     H 8710   4.494   2.582   6.149  1.9033  0.3666  0.5865
  824MOL0     H 8711   4.414   2.499   5.869  0.0679  1.9324 -0.0647
  824MOL0     H 8712   4.331   2.427   6.007  2.3628 -1.0929 -1.8728
  824MOL0     H 8713   4.312   2.709   5.919  2.1497 -0.5381  0.7236
  824MOL0     H 8714   4.272   2.676   6.087  0.9322 -3.5285  1.2029
  824MOL0     H 8715   4.103   2.509   6.020 -0.2846 -0.8606  0.9944
  824MOL0     H 8716   4.123   2.551   5.854  0.5881 -0.0054 -0.2742
  824MOL0     H 8717   4.047   2.739   6.080  1.1815 -2.2023  0.2832
  824MOL0     H 8718   4.073   2.795   5.916 -2.3468 -0.5793 -1.5303
  824MOL0     H 8719   3.868   2.581   5.984  0.5000 -0.4416 -1.0820
  824MOL0     H 8720   3.916   2.646   5.826  1.5027  2.4938  0.1997
  824MOL0     H 8721   3.797   2.804   6.154 -0.7060 -0.3777 -0.5638
  824MOL0     H 8722   3.643   2.981   6.219  0.7980 -3.7884  2.2792
  824MOL0     H 8723   3.532   2.844   6.205 -1.5851  0.5809  1.1645
  824MOL0     H 8724   3.388   2.994   6.051  1.2316 -1.1522 -0.3500
  824MOL0     H 8725   3.470   3.131   6.113 -1.0620  0.6568 -0.4215
  824MOL0     H 8726   3.340   2.938   6.312  1.2104 -0.3041  2.4261
  824MOL0     H 8727   3.429   3.082   6.348 -0.9918 -1.9563  1.4297
  824MOL0     H 8728   3.263   3.223   6.258  1.4490  0.5032  0.1357
  824MOL0     H 8729   3.191   3.105   6.365 -1.1651 -0.7863 -1.0659
  824MOL0     H 8730   3.015   2.881   6.076  0.5968  0.5063  0.3071
  824MOL0     H 8731   2.787   2.836   6.108  1.1660 -0.5527  1.4353
  824MOL0     H 8732   2.466   2.663   6.389  1.1083 -0.9508 -2.0050
  824MOL0     H 8733   2.247   2.562   6.360 -1.1310 -1.6752 -2.1645
  824MOL0     H 8734   2.041   2.480   6.238 -2.5823 -2.9523 -1.5447
  824MOL0     H 8735   2.096   2.523   6.076  0.6160  3.2832 -1.2074
  824MOL0     H 8736   1.878   2.430   6.042 -2.3850 -1.6269  1.3620
  824MOL0     H 8737   1.865   2.599   6.024 -0.3822 -2.5741 -0.5293
  824MOL0     H 8738   1.686   2.545   6.146  0.4051 -0.7649 -1.1263
  824MOL0     H 8739   1.797   2.620   6.266 -2.1257  0.9935 -1.0737
  824MOL0     H 8740   1.774   2.311   6.221  1.8856 -1.0605 -0.8473
  824MOL0     H 8741   1.865   2.381   6.348 -0.7962  0.2116  1.6912
  824MOL0     H 8742   1.585   2.496   6.359 -1.2208 -2.5515  0.6402
  824MOL0     H 8743   1.702   2.442   6.480  2.5054  3.9179 -1.2118
  824MOL0     H 8744   1.522   2.286   6.493 -1.2466  3.6862 -1.4779
  824MOL0     H 8745   1.643   2.195   6.400  1.4446  0.3982 -1.2826
  824MOL0     H 8746   1.398   2.352   6.295  0.0784  1.0859 -3.7621
  824MOL0     H 8747   1.514   2.262   6.193  2.0556 -0.5151  1.7214
  824MOL0     H 8748   1.326   2.112   6.213 -0.4712 -1.5411  0.4249
  824MOL0     H 8749   1.311   2.150   6.387 -0.1502 -1.2269 -0.1759
  824MOL0     H 8750   2.164   2.851   6.051  1.1409  0.5854 -1.5436
  824MOL0     H 8751   2.396   2.930   6.060  0.8971 -0.9548 -0.7101
  824MOL0     H 8752   2.755   3.167   6.380  0.5245  2.2967 -1.9332
  824MOL0     H 8753   2.995   3.229   6.326  1.2781 -0.0274 -0.0741
  824MOL0     H 8754   4.978   2.462   6.130  1.6603  1.3500  1.4769
  824MOL0     H 8755   5.209   2.417   6.195  0.3031 -0.7435  1.1497
  824MOL0     H 8756   5.546   2.399   6.547  1.6807 -0.4471  2.7167
  824MOL0     H 8757   5.772   2.351   6.589 -0.5576  0.4808  0.0232
  824MOL0     H 8758   6.008   2.030   6.622  1.1718 -0.0316  0.5334
  824MOL0     H 8759   5.901   2.137   6.695  3.5921  0.5522  1.6880
  824MOL0     H 8760   6.098   2.281   6.529 -0.3530  1.4477  0.3473
  824MOL0     H 8761   6.041   2.306   6.698 -0.0850 -3.0123  2.7397
  824MOL0     H 8762   6.234   2.086   6.614  0.5617 -0.2698 -1.7706
  824MOL0     H 8763   6.202   2.145   6.779 -0.9507 -0.6183 -1.3126
  824MOL0     H 8764   6.417   2.213   6.725 -1.6024 -3.9856 -0.9721
  824MOL0     H 8765   6.385   2.279   6.568  0.8449  0.4823  0.1130
  824MOL0     H 8766   6.280   2.598   6.821 -2.4521 -1.1346  0.7860
  824MOL0     H 8767   5.732   1.979   6.358 -1.2613 -1.0824  1.9426
  824MOL0     H 8768   5.497   2.036   6.321  2.2154  1.1301 -3.4736
  825MOL0     O 8769   2.241   1.426  10.812  0.2726  0.0975  0.5852
  825MOL0     C 8770   2.314   1.464  10.902 -0.1360 -0.6452  0.4136
  825MOL0     O 8771   2.275   1.542  11.001 -0.5423 -0.0550  0.5555
  825MOL0     C 8772   2.141   1.550  11.015 -0.2334  0.2648 -0.2452
  825MOL0     C 8773   2.070   1.440  11.063 -0.4365 -0.5705  0.4127
  825MOL0     C 8774   1.932   1.465  11.079 -1.0998 -0.1728  0.2325
  825MOL0     C 8775   1.866   1.592  11.059 -0.3960  0.5857 -0.1055
  825MOL0     O 8776   1.740   1.624  11.084 -0.7957 -0.2429  0.0975
  825MOL0     C 8777   1.647   1.519  11.092 -0.1736 -0.6537  0.1628
  825MOL0     C 8778   1.516   1.602  11.123 -0.3971 -0.2165 -0.3444
  825MOL0     C 8779   1.395   1.508  11.160  0.2699 -0.4172 -0.3823
  825MOL0     C 8780   1.274   1.602  11.190  0.5013  0.4479  0.2807
  825MOL0     C 8781   1.149   1.530  11.242 -0.3633 -0.0801  0.9582
  825MOL0     C 8782   1.098   1.418  11.157  0.3886 -0.5552  0.1586
  825MOL0     C 8783   0.959   1.374  11.194  0.3953 -0.1916  0.1920
  825MOL0     C 8784   0.961   1.286  11.321  0.2415  0.1630 -0.0374
  825MOL0     N 8785   0.845   1.194  11.329 -0.2462 -0.1517 -0.3669
  825MOL0     C 8786   0.714   1.239  11.362 -0.5555  0.5877 -0.5561
  825MOL0     C 8787   0.642   1.124  11.370  0.0898  0.2019 -0.2614
  825MOL0     C 8788   0.502   1.109  11.421  0.1007  0.2488  0.8702
  825MOL0     C 8789   0.486   1.027  11.544 -0.0143  0.2593 -0.2389
  825MOL0     C 8790   0.520   1.118  11.667 -0.2392 -0.3679 -0.0616
  825MOL0     C 8791   0.508   1.068  11.806  0.0061  0.3127 -0.3695
  825MOL0     O 8792   0.370   1.036  11.838 -0.2882  0.9829 -0.2766
  825MOL0     C 8793   0.334   1.004  11.966  0.4039  0.2995  0.8553
  825MOL0     C 8794   0.412   1.015  12.079 -1.0915 -0.0073 -0.2911
  825MOL0     C 8795   0.357   0.987  12.206 -0.2250 -0.2435  0.0400
  825MOL0     C 8796   0.220   0.948  12.224 -0.8524  0.9912  0.0759
  825MOL0     C 8797   0.167   0.910  12.356 -0.0580 -0.1402  0.6320
  825MOL0     O 8798   0.035   0.896  12.359  0.5802  0.0846 -0.0858
  825MOL0     C 8799  -0.038   0.869  12.476  0.4909  0.1640 -0.0979
  825MOL0     C 8800   0.009   0.813  12.591  0.1590  0.4429 -0.9469
  825MOL0     C 8801  -0.079   0.787  12.702 -0.3538  0.3541  1.0933
  825MOL0     C 8802  -0.217   0.809  12.693  0.4092  0.1560 -0.5218
  825MOL0     O 8803  -0.311   0.779  12.792  0.0346  0.4517  0.1304
  825MOL0     C 8804  -0.274   0.831  12.921  0.0299 -0.1255 -0.3036
  825MOL0     C 8805  -0.397   0.908  12.987  0.0516 -0.7320  0.3629
  825MOL0     C 8806  -0.470   1.018  12.901  0.0992  0.3085 -0.7207
  825MOL0     C 8807  -0.589   1.049  12.989  0.1080 -0.0803  0.3252
  825MOL0     C 8808  -0.663   1.172  12.946 -0.4441 -1.4162  0.9326
  825MOL0     C 8809  -0.757   1.226  13.057 -0.2079 -0.5421 -0.8756
  825MOL0     C 8810  -0.877   1.312  13.010  0.7029  0.0979  0.2899
  825MOL0     C 8811  -0.988   1.229  12.943 -0.0461  0.0017 -0.6936
  825MOL0    Cl 8812  -1.083   1.326  12.825  0.3362 -0.3222 -0.3127
  825MOL0     C 8813  -0.274   0.853  12.571 -0.0604  0.7539 -0.5606
  825MOL0     C 8814  -0.181   0.884  12.468  0.1824 -1.0669  0.3355
  825MOL0     O 8815   0.242   0.899  12.454  0.1623  0.0356  0.5465
  825MOL0     C 8816   0.145   0.930  12.111 -0.0221  0.2058  0.0240
  825MOL0     C 8817   0.204   0.956  11.986 -0.6447 -0.7065 -0.2604
  825MOL0     N 8818   0.724   1.017  11.349 -0.5044 -0.2989 -0.1749
  825MOL0     N 8819   0.847   1.064  11.321 -0.1490  0.1858 -0.5706
  825MOL0     C 8820   1.951   1.692  11.007 -0.3972 -0.0813  1.0693
  825MOL0     C 8821   2.084   1.676  10.982 -0.1204 -0.3688  0.3281
  825MOL0     C 8822   2.460   1.452  10.891 -0.0763  1.0219  0.2224
  825MOL0     C 8823   2.513   1.386  10.776 -0.3853 -0.5783 -0.3939
  825MOL0     C 8824   2.647   1.358  10.759  0.6120  0.3700  0.4180
  825MOL0     C 8825   2.743   1.413  10.843  0.2250  0.6459  0.1573
  825MOL0     O 8826   2.874   1.391  10.839 -0.1674 -0.2818 -0.7401
  825MOL0     C 8827   2.936   1.298  10.738  0.1535  0.7428 -0.2976
  825MOL0     C 8828   3.074   1.220  10.773 -0.3496  0.6273 -0.2637
  825MOL0     C 8829   3.058   1.119  10.890 -0.8952  0.3771 -0.2517
  825MOL0     C 8830   3.040   1.176  11.029 -0.4668 -0.1511  0.6269
  825MOL0     C 8831   3.144   1.268  11.075  0.4150 -0.3697  0.2867
  825MOL0     C 8832   3.238   1.317  11.136  0.2047 -0.1516  0.1990
  825MOL0     C 8833   2.691   1.497  10.948 -0.0981 -0.1695 -1.0247
  825MOL0     C 8834   2.551   1.506  10.977  0.1828 -0.2334 -0.5523
  825MOL0     H 8835   2.131   1.360  11.104  0.5516 -0.8474 -1.4928
  825MOL0     H 8836   1.898   1.379  11.137  1.5288 -0.9912  0.6772
  825MOL0     H 8837   1.665   1.447  11.172 -2.4232  1.1104  2.4189
  825MOL0     H 8838   1.638   1.463  10.998  1.7866 -1.3659  0.3543
  825MOL0     H 8839   1.496   1.658  11.030  0.7146 -0.8409 -0.9782
  825MOL0     H 8840   1.532   1.673  11.205  1.3024  0.2529 -1.0381
  825MOL0     H 8841   1.429   1.445  11.243 -1.0137  0.9999  1.2934
  825MOL0     H 8842   1.367   1.449  11.073  0.3472 -0.8113 -0.1425
  825MOL0     H 8843   1.308   1.682  11.256  0.8066 -0.4002  1.1728
  825MOL0     H 8844   1.243   1.643  11.093 -1.1747  1.7502  1.3105
  825MOL0     H 8845   1.070   1.606  11.241 -2.4876 -2.0760 -2.4548
  825MOL0     H 8846   1.168   1.490  11.342  0.8654  2.2356  1.7341
  825MOL0     H 8847   1.168   1.334  11.154 -0.6325 -1.4002 -1.7081
  825MOL0     H 8848   1.103   1.449  11.052  1.0889 -1.9426 -0.2422
  825MOL0     H 8849   0.889   1.455  11.217  0.6304  0.0576  0.0310
  825MOL0     H 8850   0.919   1.319  11.108  0.1627  3.5321 -2.2928
  825MOL0     H 8851   0.981   1.350  11.408 -0.8513 -1.8217  1.7916
  825MOL0     H 8852   1.047   1.219  11.317 -0.2372 -0.4895  0.3557
  825MOL0     H 8853   0.692   1.343  11.383  2.2366  1.7471 -2.7078
  825MOL0     H 8854   0.432   1.080  11.343  1.0385  2.9380 -1.1345
  825MOL0     H 8855   0.480   1.215  11.439  0.5797  0.5317 -0.1069
  825MOL0     H 8856   0.546   0.936  11.552  0.1489  0.5149  2.4409
  825MOL0     H 8857   0.380   0.998  11.546  0.0792 -0.1372  1.6843
  825MOL0     H 8858   0.623   1.152  11.651  0.7704 -2.5516  1.3151
  825MOL0     H 8859   0.447   1.199  11.660  1.0943  0.7951 -1.1088
  825MOL0     H 8860   0.541   1.158  11.859 -0.4232  2.3319 -3.2500
  825MOL0     H 8861   0.578   0.988  11.830  1.6750  1.8991  0.2777
  825MOL0     H 8862   0.514   1.049  12.065 -2.4577  4.5785 -0.8735
  825MOL0     H 8863   0.422   1.004  12.292  1.3747  0.3898 -1.2387
  825MOL0     H 8864   0.110   0.779  12.610 -0.1850  0.3928  1.0640
  825MOL0     H 8865  -0.046   0.744  12.796 -0.2637  1.2650  1.4949
  825MOL0     H 8866  -0.185   0.893  12.922 -0.1569  0.1867 -1.6063
  825MOL0     H 8867  -0.251   0.743  12.982 -1.9701 -0.1067  0.5662
  825MOL0     H 8868  -0.344   0.955  13.071  1.6827 -0.2619 -0.8647
  825MOL0     H 8869  -0.470   0.836  13.026  0.2876 -0.7813  0.7247
  825MOL0     H 8870  -0.502   0.982  12.802 -2.6699  1.3962 -0.3030
  825MOL0     H 8871  -0.397   1.095  12.872  1.3902 -0.3741  0.6130
  825MOL0     H 8872  -0.663   0.968  12.990 -1.7744  1.5246 -0.3782
  825MOL0     H 8873  -0.561   1.069  13.093  0.7785 -0.7659  0.2841
  825MOL0     H 8874  -0.711   1.157  12.849  0.6597  1.9114 -0.2813
  825MOL0     H 8875  -0.593   1.251  12.918 -2.0460 -0.8865 -1.9752
  825MOL0     H 8876  -0.695   1.294  13.116  0.0203  0.0519 -1.7704
  825MOL0     H 8877  -0.785   1.142  13.120 -1.4924 -0.4353 -1.2836
  825MOL0     H 8878  -0.913   1.372  13.093 -0.6407  0.8813 -0.8225
  825MOL0     H 8879  -0.836   1.384  12.939  1.3121  3.0545  3.3965
  825MOL0     H 8880  -1.052   1.175  13.013 -0.2701  0.5801 -0.4453
  825MOL0     H 8881  -0.948   1.142  12.891 -1.8867 -0.9731 -0.5756
  825MOL0     H 8882  -0.383   0.861  12.577 -0.0388  1.1137 -0.6349
  825MOL0     H 8883  -0.229   0.919  12.377  0.9332 -1.9197 -0.4094
  825MOL0     H 8884   0.044   0.892  12.100  0.4501 -0.6573 -1.8761
  825MOL0     H 8885   0.148   0.951  11.893 -0.2305  0.0550 -0.5596
  825MOL0     H 8886   1.896   1.782  10.981  1.4993  0.4026 -1.7385
  825MOL0     H 8887   2.149   1.756  10.947 -0.6330 -0.5602 -1.1527
  825MOL0     H 8888   2.443   1.360  10.698  0.5898 -4.6626 -0.1317
  825MOL0     H 8889   2.682   1.290  10.682 -0.0009 -2.0145  2.1417
  825MOL0     H 8890   2.938   1.349  10.641 -1.0127 -1.7827 -1.7482
  825MOL0     H 8891   2.860   1.220  10.726 -2.0767  2.9336 -1.7054
  825MOL0     H 8892   3.116   1.167  10.687  3.4113  1.9233  0.5605
  825MOL0     H 8893   3.137   1.305  10.802 -0.1369  0.6422 -0.7541
  825MOL0     H 8894   3.139   1.047  10.875 -2.2016 -0.7889 -2.1836
  825MOL0     H 8895   2.970   1.054  10.881 -0.7368  0.1808 -0.3763
  825MOL0     H 8896   2.947   1.232  11.039 -0.5903  0.0939 -1.4369
  825MOL0     H 8897   3.044   1.100  11.107  0.2536  0.2642  1.0036
  825MOL0     H 8898   3.306   1.364  11.204  0.9076  2.9205 -2.3630
  825MOL0     H 8899   2.752   1.557  11.015  0.9059  0.7329 -2.6699
  825MOL0     H 8900   2.520   1.566  11.062  1.9031 -3.0404  2.2325
  826MOL0     O 8901   0.396   8.514   7.635 -0.0660  1.1057 -0.4794
  826MOL0     C 8902   0.367   8.542   7.755 -0.2136  0.7116 -0.0692
  826MOL0     O 8903   0.423   8.642   7.822 -0.2717 -0.1697 -0.0758
  826MOL0     C 8904   0.507   8.725   7.757  0.2022 -0.0258  0.0617
  826MOL0     C 8905   0.640   8.692   7.726  0.2261  0.5968  0.4460
  826MOL0     C 8906   0.728   8.790   7.683  1.0825  1.1363 -0.1589
  826MOL0     C 8907   0.694   8.925   7.669  0.2436 -0.2680 -0.3074
  826MOL0     O 8908   0.785   9.000   7.605 -0.6987 -0.4430 -0.0773
  826MOL0     C 8909   0.741   9.069   7.488 -0.0196 -1.2475  0.3135
  826MOL0     C 8910   0.748   9.228   7.517 -0.8124  0.5641  0.2868
  826MOL0     C 8911   0.892   9.278   7.524  0.1746  0.6082  0.1055
  826MOL0     C 8912   0.879   9.434   7.513  0.9231  0.0988  0.1308
  826MOL0     C 8913   1.013   9.496   7.472 -0.8492  0.4956  0.1984
  826MOL0     C 8914   1.131   9.464   7.570 -0.1093  0.4529  0.0341
  826MOL0     C 8915   1.215   9.585   7.617 -0.7921  0.5103  0.4723
  826MOL0     C 8916   1.308   9.642   7.504  0.2504 -0.1324  0.5505
  826MOL0     N 8917   1.421   9.549   7.466  0.0840 -0.4251  0.1962
  826MOL0     C 8918   1.516   9.502   7.556  0.2506  0.0051 -0.2547
  826MOL0     C 8919   1.607   9.444   7.475  0.1102  0.1625 -0.5358
  826MOL0     C 8920   1.726   9.359   7.516 -0.3787 -0.7055 -0.5180
  826MOL0     C 8921   1.752   9.359   7.673  0.4301  0.0956 -0.1894
  826MOL0     C 8922   1.869   9.272   7.717 -0.2525 -0.3741 -0.1309
  826MOL0     C 8923   1.834   9.129   7.719  0.3287 -0.0144  0.0431
  826MOL0     O 8924   1.728   9.101   7.818 -0.3042 -0.2843  0.5891
  826MOL0     C 8925   1.704   8.967   7.835 -0.0920 -0.3448  0.0678
  826MOL0     C 8926   1.797   8.891   7.899  0.1304 -0.0966 -0.5505
  826MOL0     C 8927   1.797   8.753   7.905  0.6342  0.2440  0.0564
  826MOL0     C 8928   1.682   8.683   7.859 -0.3194  0.0517  0.2404
  826MOL0     C 8929   1.665   8.537   7.858 -0.5239 -0.5839  0.1006
  826MOL0     O 8930   1.537   8.491   7.817 -0.4063  0.6901  0.2677
  826MOL0     C 8931   1.506   8.357   7.813  0.7221  0.7024 -0.0587
  826MOL0     C 8932   1.374   8.319   7.784 -0.0317 -0.1285  0.3674
  826MOL0     C 8933   1.335   8.183   7.782 -0.0732  0.1629  0.4820
  826MOL0     C 8934   1.429   8.082   7.796 -0.1511 -0.5596 -0.1023
  826MOL0     O 8935   1.383   7.945   7.799  0.8270  0.2855  0.2816
  826MOL0     C 8936   1.454   7.841   7.865 -0.2665  0.9880 -0.1523
  826MOL0     C 8937   1.360   7.725   7.892  0.1698 -0.4812  0.4768
  826MOL0     C 8938   1.269   7.738   8.008 -0.9455  0.3183  0.2646
  826MOL0     C 8939   1.176   7.616   8.045 -0.8595 -0.8440 -0.9872
  826MOL0     C 8940   1.080   7.658   8.159 -0.4065 -0.4460 -0.8594
  826MOL0     C 8941   0.997   7.542   8.204 -0.3398 -0.0861 -0.1906
  826MOL0     C 8942   0.912   7.568   8.337  0.1228  0.7247  0.1850
  826MOL0     C 8943   0.996   7.610   8.452 -1.1410 -0.7732  0.3679
  826MOL0    Cl 8944   0.920   7.665   8.598 -0.1819 -0.1157 -0.0708
  826MOL0     C 8945   1.559   8.119   7.816  0.1966  0.0881 -1.2010
  826MOL0     C 8946   1.601   8.250   7.817 -1.3828 -0.2196  0.8831
  826MOL0     O 8947   1.755   8.468   7.918  0.0599 -0.5252  0.0449
  826MOL0     C 8948   1.583   8.764   7.792  0.1990  1.0075  0.0030
  826MOL0     C 8949   1.602   8.905   7.777  1.1924  0.3150 -0.2464
  826MOL0     N 8950   1.562   9.446   7.340 -0.3489  0.7117 -0.6929
  826MOL0     N 8951   1.451   9.508   7.339  0.4329  0.3243  0.0828
  826MOL0     C 8952   0.567   8.961   7.711  0.2822  0.1235  0.5655
  826MOL0     C 8953   0.475   8.865   7.755 -0.8139  0.3355 -1.2042
  826MOL0     C 8954   0.271   8.468   7.833  0.4549  0.1592 -0.1643
  826MOL0     C 8955   0.157   8.408   7.765 -0.6280  0.7274 -0.3196
  826MOL0     C 8956   0.079   8.320   7.844  1.0005  0.5388 -0.3130
  826MOL0     C 8957   0.103   8.301   7.982 -0.5230  0.1690  0.0154
  826MOL0     O 8958   0.026   8.209   8.044  0.2363 -0.6886 -0.3694
  826MOL0     C 8959   0.027   8.193   8.183 -0.0219 -0.9846 -0.0918
  826MOL0     C 8960  -0.055   8.073   8.216  0.0307 -0.0653  0.1492
  826MOL0     C 8961  -0.204   8.104   8.200 -0.4342  0.1207  0.5266
  826MOL0     C 8962  -0.289   7.986   8.244  0.2309 -0.3932  0.5170
  826MOL0     C 8963  -0.252   7.925   8.365  0.8816  0.1732 -0.2026
  826MOL0     C 8964  -0.221   7.863   8.464 -0.4875  0.2449 -0.4349
  826MOL0     C 8965   0.203   8.375   8.039 -0.0112 -0.5562 -0.3478
  826MOL0     C 8966   0.293   8.454   7.969 -0.0692 -0.1803  0.3826
  826MOL0     H 8967   0.677   8.592   7.748 -3.3124 -1.4791 -1.9772
  826MOL0     H 8968   0.824   8.754   7.647 -0.3345 -1.0258 -2.1078
  826MOL0     H 8969   0.637   9.053   7.457 -2.0591  5.0603  2.3430
  826MOL0     H 8970   0.821   9.057   7.414  1.1576  0.7542  1.1878
  826MOL0     H 8971   0.692   9.249   7.608 -1.2338  0.2919  0.0951
  826MOL0     H 8972   0.690   9.263   7.430  1.3917 -0.3262 -1.6528
  826MOL0     H 8973   0.959   9.239   7.447 -0.5251  0.8387 -0.6341
  826MOL0     H 8974   0.945   9.244   7.613  0.0952 -0.0238 -0.0851
  826MOL0     H 8975   0.797   9.461   7.446 -0.6569 -1.5454  1.3145
  826MOL0     H 8976   0.851   9.481   7.607  1.8485 -0.1305  0.5367
  826MOL0     H 8977   1.012   9.605   7.473  0.4143  0.5280  0.0006
  826MOL0     H 8978   1.036   9.460   7.371 -3.3957 -0.4958 -0.1100
  826MOL0     H 8979   1.202   9.393   7.526  2.2419  2.4531  0.3585
  826MOL0     H 8980   1.092   9.417   7.661  1.7251 -0.2545  0.5004
  826MOL0     H 8981   1.141   9.662   7.639 -0.8762  0.5663  0.0008
  826MOL0     H 8982   1.267   9.551   7.707 -1.4676 -2.8420 -0.2910
  826MOL0     H 8983   1.341   9.738   7.543 -3.0593  0.4623  2.1946
  826MOL0     H 8984   1.244   9.661   7.418  0.1861  0.0890  0.6492
  826MOL0     H 8985   1.513   9.510   7.664 -2.0732 -2.5025 -0.0160
  826MOL0     H 8986   1.811   9.394   7.457 -0.2637 -0.9789 -0.5174
  826MOL0     H 8987   1.705   9.254   7.491 -0.6179 -1.2805  1.7870
  826MOL0     H 8988   1.660   9.318   7.715  0.0823  1.7078  0.7209
  826MOL0     H 8989   1.763   9.461   7.711 -2.2369 -0.6656  3.1446
  826MOL0     H 8990   1.955   9.279   7.649 -1.4195  1.5375 -1.5246
  826MOL0     H 8991   1.904   9.301   7.816  2.3666  2.2766 -1.6420
  826MOL0     H 8992   1.922   9.066   7.737  0.0207 -0.4425  0.0854
  826MOL0     H 8993   1.808   9.101   7.616 -0.0541  0.9661 -0.1297
  826MOL0     H 8994   1.884   8.940   7.941  1.2648 -3.0458  0.7489
  826MOL0     H 8995   1.873   8.687   7.944  1.8029  1.3972 -0.1996
  826MOL0     H 8996   1.309   8.406   7.786  0.9511  0.6248  1.4264
  826MOL0     H 8997   1.231   8.151   7.785 -0.2667  0.4267 -1.7377
  826MOL0     H 8998   1.508   7.875   7.954 -2.1044 -0.2323  1.5279
  826MOL0     H 8999   1.526   7.807   7.790 -3.3673  1.3817 -3.5902
  826MOL0     H 9000   1.427   7.638   7.896  0.5025 -0.2165  0.7220
  826MOL0     H 9001   1.287   7.708   7.812 -0.3797 -2.9384  1.4228
  826MOL0     H 9002   1.211   7.830   7.996 -1.9115 -0.2224  0.6981
  826MOL0     H 9003   1.337   7.758   8.091  1.5069 -0.5903 -1.4246
  826MOL0     H 9004   1.131   7.590   7.949 -0.9052  1.2881 -1.5942
  826MOL0     H 9005   1.240   7.535   8.081 -0.1251  0.7641  1.6080
  826MOL0     H 9006   1.011   7.737   8.126 -0.0183  0.1235 -0.3328
  826MOL0     H 9007   1.144   7.693   8.241  0.9154 -2.8989 -0.7421
  826MOL0     H 9008   1.061   7.458   8.233 -0.3775 -1.1229 -2.8555
  826MOL0     H 9009   0.936   7.509   8.119 -0.5602 -2.0179  0.6759
  826MOL0     H 9010   0.835   7.643   8.321 -0.4081  0.7821  2.5998
  826MOL0     H 9011   0.862   7.476   8.370  3.3081 -0.1143  3.2933
  826MOL0     H 9012   1.060   7.693   8.419  0.2858 -2.5216 -1.4631
  826MOL0     H 9013   1.053   7.520   8.475  3.6284  1.7085 -0.3260
  826MOL0     H 9014   1.628   8.041   7.846  0.1182  0.0998 -0.9938
  826MOL0     H 9015   1.708   8.265   7.823 -1.1632 -0.0498 -2.1033
  826MOL0     H 9016   1.487   8.717   7.775  0.6167 -0.9969  2.6595
  826MOL0     H 9017   1.531   8.960   7.716  2.0972  2.2526  0.3464
  826MOL0     H 9018   0.535   9.064   7.698  2.2220  0.7786  0.7140
  826MOL0     H 9019   0.371   8.893   7.773 -0.3309  0.4364  1.9701
  826MOL0     H 9020   0.147   8.431   7.660  1.1414  1.6073 -0.3345
  826MOL0     H 9021  -0.005   8.278   7.790  0.7402 -1.8459  1.7700
  826MOL0     H 9022   0.002   8.281   8.242  0.8936 -0.7271 -0.0845
  826MOL0     H 9023   0.128   8.167   8.215  0.2015 -0.5824 -0.4707
  826MOL0     H 9024  -0.022   7.999   8.143 -1.5945 -1.7998  1.1044
  826MOL0     H 9025  -0.038   8.033   8.317 -2.9267 -2.0110 -0.0132
  826MOL0     H 9026  -0.229   8.140   8.100  1.6782 -0.7850 -0.4051
  826MOL0     H 9027  -0.224   8.189   8.265  2.4820  1.9522 -0.7587
  826MOL0     H 9028  -0.392   8.021   8.247 -0.2303 -0.7266 -4.0544
  826MOL0     H 9029  -0.289   7.907   8.167 -1.3114 -1.0086  1.1131
  826MOL0     H 9030  -0.188   7.816   8.555  0.3173  1.8054  0.1100
  826MOL0     H 9031   0.222   8.375   8.146  0.6515  0.4998 -0.4561
  826MOL0     H 9032   0.361   8.511   8.032  1.5374 -2.3968  0.7833
  827MOL0     O 9033  10.775   1.729   8.919  0.4839  0.1904  0.3721
  827MOL0     C 9034  10.780   1.847   8.955 -0.1982 -0.3168  0.0382
  827MOL0     O 9035  10.691   1.908   9.032  0.3779  0.2858 -0.6397
  827MOL0     C 9036  10.559   1.875   9.015 -0.4920  0.4158 -0.1819
  827MOL0     C 9037  10.519   1.752   9.066 -0.0613  0.7142 -0.4700
  827MOL0     C 9038  10.390   1.716   9.041  0.8265  0.0227 -0.0291
  827MOL0     C 9039  10.295   1.796   8.977 -0.9183  0.0262  0.8202
  827MOL0     O 9040  10.166   1.747   8.965  0.2506  0.2772  0.1534
  827MOL0     C 9041  10.135   1.723   8.824  0.0026  1.0081  1.1235
  827MOL0     C 9042   9.995   1.761   8.791  0.8258  0.0571  0.1681
  827MOL0     C 9043   9.885   1.695   8.880 -0.0699 -0.0830  0.7576
  827MOL0     C 9044   9.883   1.543   8.875 -0.2089  0.1375  0.1098
  827MOL0     C 9045   9.760   1.480   8.930 -0.1304  0.1509 -0.2880
  827MOL0     C 9046   9.748   1.330   8.886  0.3619 -0.5380 -0.1682
  827MOL0     C 9047   9.632   1.259   8.965 -0.8386 -0.3852  0.5785
  827MOL0     C 9048   9.617   1.117   8.911 -0.0361 -0.5250 -0.6678
  827MOL0     N 9049   9.533   1.028   8.999  0.1862 -0.4783  0.1197
  827MOL0     C 9050   9.396   1.036   9.011 -0.8170  0.3603 -0.1101
  827MOL0     C 9051   9.370   0.948   9.112  0.1426  0.0719 -0.0084
  827MOL0     C 9052   9.234   0.943   9.181 -0.3196  0.3641  0.8243
  827MOL0     C 9053   9.252   0.931   9.333  0.1951 -0.5239 -0.0519
  827MOL0     C 9054   9.109   0.935   9.390 -0.3368  1.3493 -0.1423
  827MOL0     C 9055   9.113   0.944   9.547  0.3191 -0.8496  0.7690
  827MOL0     O 9056   9.214   0.866   9.608 -0.2593 -0.0940  0.0862
  827MOL0     C 9057   9.207   0.727   9.610  0.9485  0.0089 -0.0346
  827MOL0     C 9058   9.315   0.646   9.635  0.2717 -0.1591  0.1606
  827MOL0     C 9059   9.310   0.505   9.624  0.3765  0.0601 -0.1947
  827MOL0     C 9060   9.197   0.437   9.588  0.5802 -1.0288  0.7204
  827MOL0     C 9061   9.185   0.293   9.576  0.0407 -0.8802 -0.0481
  827MOL0     O 9062   9.070   0.242   9.530 -0.4900  0.3755  0.1042
  827MOL0     C 9063   9.077   0.120   9.468  0.3078  0.3469  0.1372
  827MOL0     C 9064   9.004   0.010   9.518 -0.0466 -0.3148  0.3177
  827MOL0     C 9065   9.001  -0.111   9.451  0.3460 -0.3977  0.3347
  827MOL0     C 9066   9.051  -0.118   9.320 -0.1801  0.3123 -0.0986
  827MOL0     O 9067   9.036  -0.228   9.245  0.1264  0.1724  0.2764
  827MOL0     C 9068   9.107  -0.348   9.282 -0.2418 -0.0303  0.5841
  827MOL0     C 9069   9.014  -0.462   9.245  0.8853 -0.3533 -0.0182
  827MOL0     C 9070   8.884  -0.458   9.322  0.7980  0.1567  0.0793
  827MOL0     C 9071   8.778  -0.536   9.236 -0.3699 -0.2292 -0.4238
  827MOL0     C 9072   8.642  -0.557   9.303 -0.5131  0.1155 -0.3052
  827MOL0     C 9073   8.577  -0.429   9.347  0.6575 -0.0471 -0.1200
  827MOL0     C 9074   8.440  -0.472   9.396 -0.0548  0.2465  0.5441
  827MOL0     C 9075   8.345  -0.361   9.416 -0.5358 -0.3448 -0.3965
  827MOL0    Cl 9076   8.181  -0.397   9.476  0.1355  0.5161 -0.2595
  827MOL0     C 9077   9.107  -0.006   9.264 -0.2571  0.3138  1.6020
  827MOL0     C 9078   9.134   0.111   9.337  0.2392  0.1882 -1.3526
  827MOL0     O 9079   9.284   0.232   9.615  0.0512  0.2060  0.2662
  827MOL0     C 9080   9.082   0.524   9.566  0.1975  0.5936  0.8676
  827MOL0     C 9081   9.087   0.664   9.575  0.5580  0.1689  0.0656
  827MOL0     N 9082   9.486   0.889   9.158 -0.1881  0.0275  0.1672
  827MOL0     N 9083   9.581   0.939   9.086 -0.5861  0.6523  0.2882
  827MOL0     C 9084  10.328   1.927   8.941  0.4896  0.1109 -0.3664
  827MOL0     C 9085  10.466   1.961   8.949  0.2486 -0.7306 -0.0945
  827MOL0     C 9086  10.903   1.916   8.915  0.0259  0.5173 -0.0661
  827MOL0     C 9087  10.910   2.052   8.945 -0.4702  0.2909  0.2569
  827MOL0     C 9088  11.031   2.123   8.924  0.5587  0.3685 -0.2447
  827MOL0     C 9089  11.144   2.057   8.877 -0.1981  0.3916 -0.7365
  827MOL0     O 9090  11.250   2.137   8.863 -0.3924 -0.0852  0.6023
  827MOL0     C 9091  11.379   2.091   8.818  0.3458 -0.0791  0.0145
  827MOL0     C 9092  11.473   2.216   8.821 -0.3023  0.3022  0.7575
  827MOL0     C 9093  11.422   2.329   8.744  0.2692 -0.8687  0.5889
  827MOL0     C 9094  11.363   2.430   8.849  0.5934  0.8886 -0.6281
  827MOL0     C 9095  11.300   2.545   8.783  0.1335 -0.3237  0.2614
  827MOL0     C 9096  11.259   2.646   8.736  0.5357 -0.3894 -0.1509
  827MOL0     C 9097  11.136   1.915   8.848  0.0843  0.1748  0.3520
  827MOL0     C 9098  11.015   1.849   8.864  0.1540 -0.4273  0.1568
  827MOL0     H 9099  10.583   1.690   9.129 -0.1351  2.3251  1.2876
  827MOL0     H 9100  10.349   1.623   9.080  1.5503 -0.4453 -0.3567
  827MOL0     H 9101  10.158   1.619   8.799  1.1647  1.6018 -0.4275
  827MOL0     H 9102  10.206   1.779   8.763  2.7055 -0.3978  2.8143
  827MOL0     H 9103   9.962   1.720   8.695 -1.6692 -0.7043  1.2645
  827MOL0     H 9104   9.976   1.868   8.806  1.8156  0.1626  0.7117
  827MOL0     H 9105   9.793   1.737   8.837 -0.8705 -0.7189  1.7734
  827MOL0     H 9106   9.899   1.739   8.980  1.7135  0.8024  0.1544
  827MOL0     H 9107   9.899   1.510   8.772 -0.3417  1.5645 -0.3921
  827MOL0     H 9108   9.970   1.507   8.931 -0.3456  0.7027  0.6986
  827MOL0     H 9109   9.668   1.534   8.902 -0.9417 -0.7854  0.5043
  827MOL0     H 9110   9.760   1.506   9.036  1.2231  1.7549 -0.6370
  827MOL0     H 9111   9.841   1.281   8.917  0.4343 -1.1695 -1.3423
  827MOL0     H 9112   9.727   1.332   8.779 -1.0828  2.3232  0.0711
  827MOL0     H 9113   9.651   1.249   9.072 -0.1058 -3.5420  0.2390
  827MOL0     H 9114   9.534   1.306   8.956 -1.8804 -1.8768  3.0481
  827MOL0     H 9115   9.719   1.078   8.897  0.4285  0.3597  0.1408
  827MOL0     H 9116   9.574   1.115   8.810 -0.6208  0.0435 -0.4381
  827MOL0     H 9117   9.332   1.108   8.960  0.0576  0.9516 -0.3925
  827MOL0     H 9118   9.174   0.856   9.154  2.9532 -1.4678 -1.2002
  827MOL0     H 9119   9.192   1.036   9.143  1.1783  0.7313 -0.0095
  827MOL0     H 9120   9.317   1.005   9.380  0.6373 -1.9225  1.6216
  827MOL0     H 9121   9.293   0.832   9.354  2.0668 -0.0675 -1.2719
  827MOL0     H 9122   9.054   1.023   9.356 -1.2786  1.6573  2.0537
  827MOL0     H 9123   9.057   0.842   9.364 -0.3699  0.7254  2.0115
  827MOL0     H 9124   9.014   0.933   9.593  0.3729  0.6365  1.2695
  827MOL0     H 9125   9.139   1.049   9.562  0.7357 -1.0460  1.4718
  827MOL0     H 9126   9.412   0.683   9.669  0.0075 -1.6314  2.7684
  827MOL0     H 9127   9.402   0.450   9.639  0.1272 -0.3062  0.0188
  827MOL0     H 9128   8.952   0.023   9.612  0.9124 -0.5982  0.9040
  827MOL0     H 9129   8.957  -0.200   9.494 -1.8432  1.2979  1.7891
  827MOL0     H 9130   9.111  -0.353   9.391  0.9554 -0.1734  0.5446
  827MOL0     H 9131   9.209  -0.358   9.244  0.8005 -1.2559  3.4806
  827MOL0     H 9132   9.069  -0.552   9.276 -0.6618 -1.4161 -0.2233
  827MOL0     H 9133   9.001  -0.456   9.136  2.7671  2.6798 -0.1973
  827MOL0     H 9134   8.844  -0.357   9.335 -2.4344 -0.7057 -2.0409
  827MOL0     H 9135   8.889  -0.507   9.420 -1.5436 -0.3328  0.0159
  827MOL0     H 9136   8.768  -0.483   9.141 -0.2509 -2.5870 -1.8396
  827MOL0     H 9137   8.818  -0.637   9.223  0.0306 -0.3920  1.7192
  827MOL0     H 9138   8.650  -0.625   9.389 -1.8907 -0.8650 -0.9316
  827MOL0     H 9139   8.580  -0.600   9.225 -1.7089 -0.5298  0.9685
  827MOL0     H 9140   8.556  -0.362   9.263 -3.2759 -1.7030 -0.6947
  827MOL0     H 9141   8.627  -0.385   9.433 -2.6681 -1.9518  3.0671
  827MOL0     H 9142   8.390  -0.542   9.328  0.1762  0.6575 -0.0570
  827MOL0     H 9143   8.465  -0.523   9.489 -1.7197  2.0455  2.0859
  827MOL0     H 9144   8.322  -0.321   9.317  3.5643 -1.2779 -1.9235
  827MOL0     H 9145   8.388  -0.291   9.488 -1.2373 -2.9186  2.7875
  827MOL0     H 9146   9.135  -0.002   9.159 -2.3449  1.7309  1.0435
  827MOL0     H 9147   9.181   0.199   9.294  1.5623  0.7674  1.1189
  827MOL0     H 9148   8.988   0.470   9.565  0.4692 -0.3355 -4.7805
  827MOL0     H 9149   9.004   0.728   9.548  1.3607  1.0161 -0.4368
  827MOL0     H 9150  10.256   2.003   8.911  2.0330  0.8383 -2.4213
  827MOL0     H 9151  10.504   2.060   8.925 -0.0422  0.4468  3.7191
  827MOL0     H 9152  10.831   2.097   9.003  0.4247  2.2481  0.0326
  827MOL0     H 9153  11.029   2.227   8.954 -2.4217  0.7454 -1.4529
  827MOL0     H 9154  11.366   2.049   8.718 -0.6005 -0.7766  0.4101
  827MOL0     H 9155  11.422   2.017   8.885  2.0529  0.9607  0.1289
  827MOL0     H 9156  11.501   2.243   8.924  2.2123 -0.2708  0.2901
  827MOL0     H 9157  11.571   2.191   8.780  0.7685  2.8834  1.5413
  827MOL0     H 9158  11.355   2.291   8.666  0.1578 -1.8590  1.1429
  827MOL0     H 9159  11.504   2.374   8.688  0.0840 -0.8206  0.3554
  827MOL0     H 9160  11.280   2.382   8.901  0.5251 -2.1215 -3.2075
  827MOL0     H 9161  11.433   2.479   8.917 -1.6868  1.2736  1.6252
  827MOL0     H 9162  11.229   2.738   8.689 -3.7233 -1.5604 -0.1850
  827MOL0     H 9163  11.226   1.863   8.815 -0.6122 -1.0154  0.2846
  827MOL0     H 9164  11.002   1.746   8.833 -0.9042 -0.7620  1.6416
  828MOL0     O 9165  10.545   4.851   8.272 -0.1001 -0.6219  0.3192
  828MOL0     C 9166  10.543   4.830   8.390  0.3367  0.3174 -0.4322
  828MOL0     O 9167  10.429   4.810   8.462 -0.9001  0.2330 -0.1240
  828MOL0     C 9168  10.300   4.805   8.420  0.4621 -0.4425  0.3838
  828MOL0     C 9169  10.204   4.853   8.507 -0.2739  0.0011 -0.6412
  828MOL0     C 9170  10.074   4.837   8.467  0.6043 -0.4615  0.2990
  828MOL0     C 9171  10.036   4.766   8.349  0.4370 -1.0943  0.8903
  828MOL0     O 9172   9.905   4.755   8.307 -0.3529 -0.3054  0.0689
  828MOL0     C 9173   9.800   4.791   8.399  0.8172 -0.0851 -0.2228
  828MOL0     C 9174   9.669   4.766   8.325 -0.1916 -0.7498 -0.1118
  828MOL0     C 9175   9.563   4.713   8.429 -0.8322 -0.2442 -0.1424
  828MOL0     C 9176   9.430   4.691   8.355  0.0922  0.0647 -0.0083
  828MOL0     C 9177   9.303   4.676   8.434 -0.4106 -0.8179 -0.8024
  828MOL0     C 9178   9.282   4.559   8.521  0.1928  1.1113  0.0535
  828MOL0     C 9179   9.145   4.537   8.575  0.4936 -0.0659  0.1806
  828MOL0     C 9180   9.066   4.421   8.507  0.0743 -0.0650 -0.7480
  828MOL0     N 9181   8.931   4.421   8.552  0.6872 -0.0495 -0.2881
  828MOL0     C 9182   8.867   4.320   8.618  0.1844  0.1073 -0.7241
  828MOL0     C 9183   8.743   4.364   8.641 -0.2283 -1.3024  0.5249
  828MOL0     C 9184   8.642   4.289   8.728 -0.1129  0.0790 -0.3095
  828MOL0     C 9185   8.495   4.343   8.709  0.0887  0.0709  0.1996
  828MOL0     C 9186   8.474   4.463   8.790  0.3554 -0.2694 -0.0088
  828MOL0     C 9187   8.322   4.504   8.797 -0.2817 -0.5603 -0.8499
  828MOL0     O 9188   8.273   4.510   8.932  0.8578  0.0083 -0.2289
  828MOL0     C 9189   8.155   4.564   8.962 -0.0740 -0.1995  0.2889
  828MOL0     C 9190   8.107   4.565   9.094 -0.1317 -0.3837 -0.3753
  828MOL0     C 9191   7.982   4.616   9.130  0.7410  0.7773  1.0947
  828MOL0     C 9192   7.891   4.644   9.020 -0.3327 -0.0765  0.0800
  828MOL0     C 9193   7.759   4.681   9.057  0.0391  0.1232 -0.5976
  828MOL0     O 9194   7.710   4.650   9.179  0.4053  0.4313 -0.2550
  828MOL0     C 9195   7.579   4.674   9.210 -0.0757  0.3184  0.2717
  828MOL0     C 9196   7.553   4.754   9.314 -0.1464  0.0639 -0.4417
  828MOL0     C 9197   7.422   4.787   9.357  0.2809 -0.4673 -0.8713
  828MOL0     C 9198   7.309   4.726   9.298 -0.0742  0.7882  0.0849
  828MOL0     O 9199   7.173   4.724   9.334 -0.8508 -0.1210  0.3355
  828MOL0     C 9200   7.127   4.788   9.454  0.1126 -0.1000  0.5768
  828MOL0     C 9201   7.001   4.722   9.506 -0.0334  0.4482  0.5846
  828MOL0     C 9202   6.887   4.725   9.401  0.1003 -0.0049  0.0898
  828MOL0     C 9203   6.765   4.646   9.452 -0.3631 -0.0497  0.0385
  828MOL0     C 9204   6.646   4.679   9.350  0.8536  0.7716  0.0315
  828MOL0     C 9205   6.521   4.584   9.374  0.3283 -0.6818 -0.1383
  828MOL0     C 9206   6.390   4.636   9.291 -0.5083 -0.7500  0.3528
  828MOL0     C 9207   6.260   4.589   9.354  0.8920 -0.4244 -0.2389
  828MOL0    Cl 9208   6.147   4.555   9.223  0.0524 -0.2152  0.1903
  828MOL0     C 9209   7.338   4.637   9.179 -0.4296 -1.2726  0.3885
  828MOL0     C 9210   7.474   4.616   9.141  0.2678 -0.1617  0.4678
  828MOL0     O 9211   7.693   4.748   8.973 -0.4430  0.0521 -0.0770
  828MOL0     C 9212   7.933   4.645   8.890  0.7201  0.5979  0.6605
  828MOL0     C 9213   8.060   4.612   8.856 -0.3106  1.1534 -0.3996
  828MOL0     N 9214   8.729   4.491   8.586 -0.9324 -0.0787  0.0005
  828MOL0     N 9215   8.847   4.524   8.535 -0.0646  0.0365 -0.6563
  828MOL0     C 9216  10.129   4.733   8.258 -0.9728 -0.3750  0.1833
  828MOL0     C 9217  10.262   4.747   8.299 -0.4152  0.5638  0.0564
  828MOL0     C 9218  10.672   4.829   8.456 -0.0919  0.5326  0.7591
  828MOL0     C 9219  10.685   4.831   8.595 -0.0994  0.6259 -0.2631
  828MOL0     C 9220  10.811   4.833   8.657  0.0035 -0.0912  0.0517
  828MOL0     C 9221  10.927   4.845   8.584  0.5629  0.8360 -0.4141
  828MOL0     O 9222  11.045   4.836   8.650 -0.6438  0.3787 -0.2575
  828MOL0     C 9223  11.172   4.831   8.586 -0.9097 -0.6903  0.4288
  828MOL0     C 9224  11.279   4.889   8.678 -0.2724 -0.1183 -0.2688
  828MOL0     C 9225  11.416   4.906   8.602 -0.6574 -0.1411 -0.1279
  828MOL0     C 9226  11.489   4.768   8.590 -0.0835  0.1203  1.5402
  828MOL0     C 9227  11.615   4.793   8.516 -0.7970 -0.8773  0.4466
  828MOL0     C 9228  11.717   4.820   8.456 -0.3331  0.8907 -0.6291
  828MOL0     C 9229  10.915   4.844   8.443  0.2342 -0.6742 -0.3683
  828MOL0     C 9230  10.790   4.832   8.377  0.3805  0.0726 -0.3449
  828MOL0     H 9231  10.219   4.898   8.604 -1.3444 -1.4491  0.2439
  828MOL0     H 9232   9.995   4.877   8.529  1.6024 -1.1544  2.1075
  828MOL0     H 9233   9.811   4.895   8.431 -0.3964  0.0614 -0.2319
  828MOL0     H 9234   9.816   4.720   8.481  3.7428 -3.7205 -3.5690
  828MOL0     H 9235   9.678   4.688   8.248  2.0459  1.0474 -1.8144
  828MOL0     H 9236   9.630   4.848   8.265  0.1867  0.3898  1.1602
  828MOL0     H 9237   9.557   4.781   8.515 -3.5312 -1.7238  0.9842
  828MOL0     H 9238   9.602   4.616   8.461  0.4993 -0.3028 -1.8150
  828MOL0     H 9239   9.410   4.783   8.300  1.7547  1.1516  1.0953
  828MOL0     H 9240   9.437   4.608   8.283 -3.1576 -0.7855  0.5249
  828MOL0     H 9241   9.219   4.670   8.365  0.5501 -1.1309 -1.9682
  828MOL0     H 9242   9.289   4.767   8.494 -1.1351  0.6207 -3.0411
  828MOL0     H 9243   9.360   4.566   8.597  2.0895  2.5677 -1.8891
  828MOL0     H 9244   9.307   4.474   8.456  1.2780  1.3629  0.1316
  828MOL0     H 9245   9.162   4.519   8.682  0.1538  0.1880  0.2795
  828MOL0     H 9246   9.082   4.626   8.567  0.6271  0.0816  0.6829
  828MOL0     H 9247   9.120   4.332   8.540  2.6128  1.8968  0.8355
  828MOL0     H 9248   9.073   4.426   8.398 -2.3182 -0.0188 -0.9376
  828MOL0     H 9249   8.929   4.242   8.660  1.5987  1.2639 -0.5898
  828MOL0     H 9250   8.667   4.312   8.832 -1.6475 -3.4488  1.0094
  828MOL0     H 9251   8.655   4.181   8.715  1.1591  0.0549  0.9283
  828MOL0     H 9252   8.426   4.266   8.747  1.8898 -1.8441 -0.1976
  828MOL0     H 9253   8.469   4.367   8.606  0.6481 -2.3064 -0.5684
  828MOL0     H 9254   8.519   4.455   8.889  0.4337 -0.4706 -0.0598
  828MOL0     H 9255   8.542   4.535   8.744  0.5845 -1.0414 -0.9163
  828MOL0     H 9256   8.264   4.430   8.741 -0.2058 -3.2499  2.2976
  828MOL0     H 9257   8.302   4.598   8.745  0.7974  0.0781 -0.1448
  828MOL0     H 9258   8.172   4.533   9.175 -1.3797 -2.2008 -0.0353
  828MOL0     H 9259   7.948   4.624   9.232  1.0574 -1.3165  1.4247
  828MOL0     H 9260   7.632   4.796   9.376 -1.8557  0.0556  1.8797
  828MOL0     H 9261   7.395   4.854   9.438  0.6820  1.4359 -2.2548
  828MOL0     H 9262   7.111   4.895   9.440  0.0348 -0.1106  0.5864
  828MOL0     H 9263   7.198   4.774   9.536  1.9758  0.0448 -0.9398
  828MOL0     H 9264   6.963   4.778   9.592  0.3302  0.5129  0.7038
  828MOL0     H 9265   7.024   4.619   9.534 -1.2886  0.1416  0.5333
  828MOL0     H 9266   6.915   4.675   9.308  1.1760 -2.3333  1.5336
  828MOL0     H 9267   6.849   4.826   9.387  0.4915  0.0224 -0.8258
  828MOL0     H 9268   6.777   4.537   9.459 -1.3795 -0.0699  3.8753
  828MOL0     H 9269   6.738   4.687   9.550  0.3547  0.1058  0.1713
  828MOL0     H 9270   6.692   4.661   9.253  2.0272 -0.0027  0.7046
  828MOL0     H 9271   6.616   4.784   9.359  0.5139  0.7028 -0.2473
  828MOL0     H 9272   6.494   4.597   9.480  1.9237 -1.6529  0.4134
  828MOL0     H 9273   6.539   4.477   9.365  0.2188 -0.8051  0.9503
  828MOL0     H 9274   6.387   4.745   9.283  0.5627 -0.5781  1.7559
  828MOL0     H 9275   6.399   4.598   9.189  0.1297 -1.5748  0.7058
  828MOL0     H 9276   6.217   4.651   9.433  0.2139 -0.8120 -0.2984
  828MOL0     H 9277   6.281   4.497   9.410 -0.1034 -1.1251 -0.9697
  828MOL0     H 9278   7.249   4.607   9.124 -2.0456  1.1679  1.4959
  828MOL0     H 9279   7.484   4.538   9.068 -0.8910  1.1011 -1.1138
  828MOL0     H 9280   7.872   4.668   8.804  2.9803  0.6852 -1.0169
  828MOL0     H 9281   8.085   4.602   8.751  0.3294 -0.8229 -0.1084
  828MOL0     H 9282  10.100   4.695   8.160 -0.4207  0.5631 -0.3598
  828MOL0     H 9283  10.335   4.697   8.237 -1.0251 -2.5805  1.6484
  828MOL0     H 9284  10.587   4.836   8.641  0.3789 -0.3687  0.9308
  828MOL0     H 9285  10.814   4.847   8.764 -2.1083  3.2374 -0.1707
  828MOL0     H 9286  11.167   4.882   8.489 -1.1294  1.4071  1.4677
  828MOL0     H 9287  11.186   4.725   8.563 -0.9218 -0.5586 -0.1926
  828MOL0     H 9288  11.247   4.990   8.708 -0.9177 -0.2110 -0.6204
  828MOL0     H 9289  11.283   4.842   8.777 -1.9194 -0.0565 -0.1304
  828MOL0     H 9290  11.479   4.984   8.646 -1.4468  0.8031 -0.6380
  828MOL0     H 9291  11.389   4.944   8.503 -0.6262  1.4791  0.4490
  828MOL0     H 9292  11.517   4.722   8.685  2.8830  0.2200  0.8379
  828MOL0     H 9293  11.442   4.697   8.522 -0.6913 -0.4685  2.5681
  828MOL0     H 9294  11.809   4.851   8.411  0.9175  2.6136  2.7947
  828MOL0     H 9295  11.003   4.854   8.380  1.9188  0.6290  2.0429
  828MOL0     H 9296  10.787   4.826   8.269 -3.1239 -1.9933 -0.2986
  829MOL0     O 9297  10.267   0.790   0.905  0.0242 -0.7300  0.6028
  829MOL0     C 9298  10.295   0.853   0.804 -0.6902 -0.2612 -0.2225
  829MOL0     O 9299  10.249   0.817   0.678 -0.2543  0.0107 -0.2356
  829MOL0     C 9300  10.140   0.741   0.658  0.5355 -0.1462  0.4427
  829MOL0     C 9301  10.035   0.798   0.578 -0.2544  0.2128  0.7684
  829MOL0     C 9302   9.927   0.716   0.541  0.2252 -0.5259  0.5588
  829MOL0     C 9303   9.929   0.578   0.577  0.4668 -0.4252 -0.2343
  829MOL0     O 9304   9.845   0.482   0.519 -0.2640 -0.1791 -0.0768
  829MOL0     C 9305   9.843   0.474   0.372  0.8539 -0.8099 -0.0484
  829MOL0     C 9306   9.709   0.437   0.310  0.1462  0.0591  0.3176
  829MOL0     C 9307   9.596   0.523   0.357 -1.0350 -0.4140 -0.3116
  829MOL0     C 9308   9.469   0.474   0.301 -0.3088  0.3989  0.0864
  829MOL0     C 9309   9.349   0.563   0.338 -0.7900  0.4398 -0.4891
  829MOL0     C 9310   9.225   0.524   0.254  0.4372  0.0587  0.1251
  829MOL0     C 9311   9.101   0.612   0.299  1.0635  0.1678 -0.3921
  829MOL0     C 9312   8.974   0.522   0.294  0.7931  1.0208  0.1337
  829MOL0     N 9313   8.920   0.478   0.167 -0.5907  0.3430 -0.6617
  829MOL0     C 9314   8.897   0.353   0.119  0.3119  0.1336 -0.1791
  829MOL0     C 9315   8.836   0.369   0.003 -0.6065  0.2675  0.2813
  829MOL0     C 9316   8.784   0.268  -0.101  0.6476 -0.3348 -0.1408
  829MOL0     C 9317   8.638   0.236  -0.083  0.6071 -0.5378 -0.7745
  829MOL0     C 9318   8.550   0.349  -0.142 -0.2255  0.4035  0.1715
  829MOL0     C 9319   8.407   0.310  -0.188 -0.2040  0.2775  0.0064
  829MOL0     O 9320   8.306   0.324  -0.079 -0.1005  0.0244 -0.1319
  829MOL0     C 9321   8.176   0.306  -0.104  0.6135 -0.4758 -0.4233
  829MOL0     C 9322   8.083   0.308   0.003 -0.1780  0.6779 -1.3770
  829MOL0     C 9323   7.948   0.279  -0.012  0.4644 -0.7950 -0.4952
  829MOL0     C 9324   7.900   0.225  -0.137  0.4528  0.3152  1.4974
  829MOL0     C 9325   7.766   0.171  -0.167 -0.4165 -0.3689  0.1628
  829MOL0     O 9326   7.685   0.185  -0.060  0.2845  0.0675  0.2558
  829MOL0     C 9327   7.558   0.130  -0.062 -0.1394 -0.1036  0.1897
  829MOL0     C 9328   7.448   0.186   0.006  0.0273 -0.1332  0.0536
  829MOL0     C 9329   7.327   0.117   0.005  0.2447 -0.3731 -0.2314
  829MOL0     C 9330   7.300   0.005  -0.064 -0.5101  0.1424  0.1448
  829MOL0     O 9331   7.180  -0.062  -0.050  0.0789  0.3645  0.3933
  829MOL0     C 9332   7.144  -0.169  -0.143  0.5834 -0.0229 -0.5466
  829MOL0     C 9333   6.994  -0.178  -0.149  0.3571 -0.8337 -0.5199
  829MOL0     C 9334   6.938  -0.284  -0.243 -0.8597 -0.5426 -0.2485
  829MOL0     C 9335   6.796  -0.310  -0.199  0.3243  0.0330  0.1605
  829MOL0     C 9336   6.730  -0.431  -0.280 -0.0819 -0.8249 -0.0464
  829MOL0     C 9337   6.591  -0.461  -0.239  0.0611  1.2280  0.3285
  829MOL0     C 9338   6.565  -0.503  -0.098 -0.3573 -0.6701 -0.4876
  829MOL0     C 9339   6.628  -0.636  -0.062  0.7702 -0.3901 -1.0237
  829MOL0    Cl 9340   6.563  -0.695   0.099  0.3521  0.8008  0.3309
  829MOL0     C 9341   7.408  -0.049  -0.127  0.0191  0.6041 -0.8247
  829MOL0     C 9342   7.537   0.002  -0.114 -0.1465  0.5008  0.1992
  829MOL0     O 9343   7.733   0.121  -0.275 -0.5651 -0.3217 -0.2879
  829MOL0     C 9344   7.985   0.239  -0.245 -0.6412 -1.0354  1.7482
  829MOL0     C 9345   8.122   0.273  -0.228 -0.3482 -0.1237  0.7568
  829MOL0     N 9346   8.813   0.509  -0.018 -1.0475 -0.3970  0.2311
  829MOL0     N 9347   8.871   0.571   0.078 -0.0608  0.5407 -0.4200
  829MOL0     C 9348  10.042   0.530   0.649  0.4212  0.4751  0.2004
  829MOL0     C 9349  10.143   0.612   0.693 -0.2245  0.1695 -0.4235
  829MOL0     C 9350  10.375   0.968   0.808 -0.4555  0.1328  1.0974
  829MOL0     C 9351  10.446   1.013   0.691  0.6714  0.1415 -0.4973
  829MOL0     C 9352  10.528   1.125   0.698  0.2190  0.0229 -0.1212
  829MOL0     C 9353  10.537   1.202   0.815  0.3792 -0.1283 -0.3208
  829MOL0     O 9354  10.613   1.315   0.823 -0.4553 -0.1901  0.1840
  829MOL0     C 9355  10.728   1.291   0.911  0.3205  0.1367  1.3412
  829MOL0     C 9356  10.817   1.412   0.925 -0.7347  0.1997 -1.3943
  829MOL0     C 9357  10.847   1.491   0.797  0.0364 -0.0400  0.0547
  829MOL0     C 9358  10.929   1.412   0.690  1.2320 -0.8309 -0.0937
  829MOL0     C 9359  10.947   1.484   0.568 -0.1057 -1.2393  0.6609
  829MOL0     C 9360  10.964   1.539   0.457  0.3100 -0.1383 -0.5413
  829MOL0     C 9361  10.469   1.164   0.934  0.1049  0.6942  0.7449
  829MOL0     C 9362  10.396   1.048   0.927  0.1106 -0.2651  0.0556
  829MOL0     H 9363  10.041   0.896   0.531  0.6568  0.1484  0.7428
  829MOL0     H 9364   9.844   0.751   0.480  2.2218  0.3109 -1.7984
  829MOL0     H 9365   9.921   0.403   0.342  3.5489  1.5906  0.8322
  829MOL0     H 9366   9.879   0.569   0.332  2.9795 -0.2570  2.8599
  829MOL0     H 9367   9.694   0.331   0.335 -0.7405 -0.1897 -1.1345
  829MOL0     H 9368   9.723   0.454   0.202 -2.0495  0.7440  0.0825
  829MOL0     H 9369   9.601   0.624   0.317 -0.9517 -1.0000 -1.8426
  829MOL0     H 9370   9.608   0.515   0.466  0.3499  0.0689 -0.4044
  829MOL0     H 9371   9.485   0.482   0.193  1.1755 -0.6009  0.1984
  829MOL0     H 9372   9.449   0.368   0.317  1.7589 -0.4835 -2.3521
  829MOL0     H 9373   9.366   0.669   0.320  0.2674  0.2115 -0.9023
  829MOL0     H 9374   9.333   0.537   0.443  3.2439 -3.8165 -0.6024
  829MOL0     H 9375   9.196   0.419   0.255 -1.7175  0.5911 -0.5652
  829MOL0     H 9376   9.255   0.539   0.149  2.7569  1.3361  0.8938
  829MOL0     H 9377   9.119   0.644   0.402 -1.1061  1.5527 -0.3947
  829MOL0     H 9378   9.081   0.689   0.224 -3.9102 -1.1982 -0.8254
  829MOL0     H 9379   8.896   0.566   0.356 -0.3954 -1.5205  0.5460
  829MOL0     H 9380   8.990   0.426   0.345  2.1361 -2.1409 -5.4490
  829MOL0     H 9381   8.929   0.261   0.166 -0.6413 -0.1481 -0.0528
  829MOL0     H 9382   8.846   0.179  -0.092  0.8033 -0.3241 -1.0832
  829MOL0     H 9383   8.802   0.312  -0.199  1.4543 -0.7070 -0.1678
  829MOL0     H 9384   8.607   0.230   0.022  3.4626  2.2675  0.3607
  829MOL0     H 9385   8.610   0.145  -0.138 -0.4240 -1.0726  0.5839
  829MOL0     H 9386   8.532   0.430  -0.070 -1.5633 -0.9956  1.4859
  829MOL0     H 9387   8.602   0.392  -0.227 -1.2988  1.0177 -0.2011
  829MOL0     H 9388   8.396   0.212  -0.234  0.4959  0.0776  0.2632
  829MOL0     H 9389   8.390   0.390  -0.261 -1.2143  0.0052 -0.0781
  829MOL0     H 9390   8.127   0.348   0.093 -1.7964 -0.6218  0.0572
  829MOL0     H 9391   7.878   0.296   0.069  0.2864  1.2989 -1.0454
  829MOL0     H 9392   7.467   0.282   0.054  0.6329  0.7960 -1.9003
  829MOL0     H 9393   7.235   0.153   0.051 -0.5348 -0.1049 -1.9174
  829MOL0     H 9394   7.199  -0.262  -0.122 -0.9479 -1.6976 -3.3382
  829MOL0     H 9395   7.175  -0.123  -0.237 -0.2394 -2.1390 -1.9137
  829MOL0     H 9396   6.953  -0.082  -0.182  0.5020 -0.9439 -1.0255
  829MOL0     H 9397   6.959  -0.195  -0.046 -1.6738  2.3120 -0.5557
  829MOL0     H 9398   6.994  -0.378  -0.239 -0.1884 -0.1131  0.7324
  829MOL0     H 9399   6.955  -0.249  -0.345 -1.0937 -1.5770 -0.6598
  829MOL0     H 9400   6.794  -0.328  -0.091 -0.4791 -2.0717 -0.1581
  829MOL0     H 9401   6.735  -0.222  -0.221 -0.1591 -0.9842 -3.0198
  829MOL0     H 9402   6.794  -0.519  -0.268  0.3641 -0.5995 -0.6961
  829MOL0     H 9403   6.726  -0.403  -0.386 -0.1504  1.9895  0.6187
  829MOL0     H 9404   6.565  -0.542  -0.308  0.8774  1.5570 -0.3756
  829MOL0     H 9405   6.530  -0.377  -0.275 -1.8691 -0.9147 -1.7810
  829MOL0     H 9406   6.594  -0.419  -0.033 -1.0387 -0.4128 -0.5080
  829MOL0     H 9407   6.457  -0.522  -0.101 -0.3661 -1.0845  1.2925
  829MOL0     H 9408   6.737  -0.639  -0.054  0.7797 -2.2072 -1.4264
  829MOL0     H 9409   6.598  -0.708  -0.138  1.8692 -3.5215  1.2968
  829MOL0     H 9410   7.405  -0.149  -0.170 -3.0733 -0.0850  0.6730
  829MOL0     H 9411   7.618  -0.048  -0.166 -0.9268 -0.7163  0.1236
  829MOL0     H 9412   7.946   0.228  -0.346  0.3207  1.6168  0.9843
  829MOL0     H 9413   8.185   0.276  -0.316  1.1124 -1.3200  1.7199
  829MOL0     H 9414  10.041   0.423   0.669  2.4460  0.0111 -1.7076
  829MOL0     H 9415  10.229   0.562   0.736  0.5430  1.7050 -0.1100
  829MOL0     H 9416  10.445   0.955   0.599  1.1685 -0.5232 -0.0881
  829MOL0     H 9417  10.588   1.138   0.608 -1.0590 -1.4667 -1.2276
  829MOL0     H 9418  10.791   1.213   0.869 -0.6584  0.4302 -0.7906
  829MOL0     H 9419  10.695   1.258   1.010  0.5380  2.2853  2.2013
  829MOL0     H 9420  10.764   1.481   0.992  0.1489 -0.0952 -0.3562
  829MOL0     H 9421  10.907   1.391   0.984 -1.6175  2.1353  0.8090
  829MOL0     H 9422  10.899   1.585   0.820 -0.9845  1.3690 -2.9152
  829MOL0     H 9423  10.756   1.540   0.763  0.4002  0.8220  0.2632
  829MOL0     H 9424  11.025   1.410   0.744  2.4631  2.7931 -1.8081
  829MOL0     H 9425  10.881   1.319   0.658 -3.6084  2.4663 -3.6910
  829MOL0     H 9426  10.979   1.566   0.354 -0.4198 -1.2648 -0.9580
  829MOL0     H 9427  10.475   1.228   1.022 -0.4311  1.9234 -0.0772
  829MOL0     H 9428  10.348   1.018   1.020 -1.3194 -0.2917 -0.6674
  830MOL0     O 9429   4.979   2.235   1.828  0.3194 -1.1955  0.6212
  830MOL0     C 9430   5.079   2.239   1.757 -1.3803  0.7486  0.5561
  830MOL0     O 9431   5.092   2.198   1.627  0.3854  0.1304 -0.2085
  830MOL0     C 9432   4.995   2.113   1.585 -0.1706 -0.2113 -1.0702
  830MOL0     C 9433   5.001   1.981   1.610  0.9176  0.0657  0.8074
  830MOL0     C 9434   4.896   1.895   1.589  0.1938  0.8021  1.1482
  830MOL0     C 9435   4.780   1.941   1.534  0.3205 -0.0326 -0.1949
  830MOL0     O 9436   4.689   1.848   1.507  0.4432 -0.2088  0.0124
  830MOL0     C 9437   4.549   1.890   1.481 -0.7437 -0.7416  0.1856
  830MOL0     C 9438   4.487   1.927   1.614 -0.4066  0.0416  0.2578
  830MOL0     C 9439   4.345   1.984   1.617 -1.0875 -0.2776  0.2585
  830MOL0     C 9440   4.256   1.884   1.550  0.2149  0.6627 -0.3712
  830MOL0     C 9441   4.118   1.905   1.589  1.0814  0.3773 -0.8143
  830MOL0     C 9442   4.045   2.005   1.494 -0.2784 -0.0521  0.5058
  830MOL0     C 9443   3.906   2.044   1.533  0.2392  0.2873 -0.6732
  830MOL0     C 9444   3.796   1.931   1.527  0.1785  0.2106  0.7149
  830MOL0     N 9445   3.665   1.987   1.564  0.0799 -0.3067 -1.1587
  830MOL0     C 9446   3.589   2.075   1.493 -0.4912 -0.3608 -0.2125
  830MOL0     C 9447   3.465   2.069   1.540 -0.1210  0.2763 -0.3132
  830MOL0     C 9448   3.342   2.147   1.507  0.0222 -0.6674  0.0022
  830MOL0     C 9449   3.242   2.078   1.420  0.4791  0.3741  0.4729
  830MOL0     C 9450   3.153   1.985   1.492  1.1264  0.0042 -0.7494
  830MOL0     C 9451   3.041   1.932   1.400 -0.3311 -0.7037 -0.5003
  830MOL0     O 9452   2.939   2.027   1.386  0.0995  0.1161  0.7855
  830MOL0     C 9453   2.815   2.003   1.329  0.7836  0.6225  0.1846
  830MOL0     C 9454   2.777   1.878   1.281 -0.4355  0.6705 -0.3006
  830MOL0     C 9455   2.643   1.857   1.239  0.4526 -0.3612 -0.5118
  830MOL0     C 9456   2.551   1.959   1.255  0.7251  0.2035 -0.1556
  830MOL0     C 9457   2.404   1.941   1.241  0.4680  0.3454 -0.0123
  830MOL0     O 9458   2.364   1.818   1.269  0.3708  0.5801  0.0827
  830MOL0     C 9459   2.248   1.773   1.213  0.2913  0.4466 -0.6119
  830MOL0     C 9460   2.152   1.741   1.306  0.2340 -0.1111  0.4405
  830MOL0     C 9461   2.031   1.673   1.264  0.0448 -0.5735 -0.3409
  830MOL0     C 9462   2.009   1.638   1.131 -0.2020 -0.4290  0.1706
  830MOL0     O 9463   1.892   1.580   1.078 -0.0132  0.1128 -0.1969
  830MOL0     C 9464   1.805   1.517   1.178  0.0760  0.5091  0.9296
  830MOL0     C 9465   1.668   1.486   1.113 -0.4189 -0.2249 -0.0291
  830MOL0     C 9466   1.574   1.409   1.215 -0.1683 -0.3942  0.5122
  830MOL0     C 9467   1.573   1.254   1.195  0.6515  0.1965  0.1856
  830MOL0     C 9468   1.459   1.176   1.255 -0.1525  0.7482  0.1719
  830MOL0     C 9469   1.461   1.020   1.240  0.1873  0.7764 -0.4510
  830MOL0     C 9470   1.582   0.955   1.312  0.4683 -0.4923 -0.6105
  830MOL0     C 9471   1.581   0.952   1.464 -0.0541 -0.5294  0.1332
  830MOL0    Cl 9472   1.754   0.901   1.507  0.1226  0.5935  0.2861
  830MOL0     C 9473   2.106   1.684   1.039 -0.3483 -0.0612  0.0169
  830MOL0     C 9474   2.224   1.741   1.083 -0.1036  0.0164 -0.3697
  830MOL0     O 9475   2.326   2.027   1.202 -0.1399  0.0673  0.7096
  830MOL0     C 9476   2.594   2.085   1.292  0.7841 -0.5802  0.5097
  830MOL0     C 9477   2.731   2.107   1.320  0.6006 -0.2836 -0.1918
  830MOL0     N 9478   3.474   1.989   1.652  0.1920 -0.3338  0.6688
  830MOL0     N 9479   3.591   1.944   1.668 -0.0640 -0.9811  0.2674
  830MOL0     C 9480   4.774   2.076   1.494 -1.3667  0.1841 -1.4138
  830MOL0     C 9481   4.879   2.161   1.529 -0.3439 -0.1319 -0.1222
  830MOL0     C 9482   5.197   2.313   1.804  0.0125 -0.4038  0.3817
  830MOL0     C 9483   5.325   2.308   1.744 -0.0487 -0.5250  0.1310
  830MOL0     C 9484   5.436   2.385   1.788  0.3165  0.3590  0.6613
  830MOL0     C 9485   5.420   2.488   1.877  0.0468 -0.1235 -0.6881
  830MOL0     O 9486   5.512   2.582   1.927 -0.4168  0.5236 -0.0135
  830MOL0     C 9487   5.642   2.581   1.859 -0.5952  0.5260  0.0455
  830MOL0     C 9488   5.738   2.651   1.950 -0.1193  0.4738 -1.1103
  830MOL0     C 9489   5.886   2.637   1.919 -0.0583  0.0258 -0.8482
  830MOL0     C 9490   5.935   2.731   1.804  0.4615  0.4143  0.0195
  830MOL0     C 9491   5.955   2.874   1.838  0.0234  0.5452  0.2844
  830MOL0     C 9492   5.989   2.983   1.880 -1.2151  0.1244  0.0748
  830MOL0     C 9493   5.292   2.501   1.936 -0.1729 -0.1697 -0.2629
  830MOL0     C 9494   5.185   2.415   1.905 -0.2297 -0.1462 -0.0875
  830MOL0     H 9495   5.094   1.936   1.644 -0.4040 -2.2997  1.5013
  830MOL0     H 9496   4.901   1.794   1.627 -4.0308  0.4905  1.4163
  830MOL0     H 9497   4.498   1.803   1.440 -2.3250  0.0277  0.4262
  830MOL0     H 9498   4.538   1.980   1.420  3.7632 -0.1852 -0.1193
  830MOL0     H 9499   4.544   2.013   1.652  0.0212 -0.6118  1.1206
  830MOL0     H 9500   4.497   1.843   1.683  3.0105  0.0719 -0.0280
  830MOL0     H 9501   4.352   2.073   1.554  2.0012 -0.6001 -0.0281
  830MOL0     H 9502   4.311   1.998   1.720 -3.8750  0.3530 -0.6565
  830MOL0     H 9503   4.267   1.879   1.442 -2.3830 -0.3956 -0.6595
  830MOL0     H 9504   4.288   1.790   1.595  0.0679  2.4034  3.8371
  830MOL0     H 9505   4.114   1.940   1.692 -0.0136 -2.2695  0.1466
  830MOL0     H 9506   4.065   1.810   1.570 -0.1660  0.6817  0.9335
  830MOL0     H 9507   4.036   1.980   1.388 -0.3572  1.2853  0.1867
  830MOL0     H 9508   4.107   2.094   1.504 -0.3067  0.0705 -0.3499
  830MOL0     H 9509   3.912   2.084   1.634  2.4293 -0.4473 -0.4445
  830MOL0     H 9510   3.877   2.130   1.473  1.3503  0.5604 -0.8376
  830MOL0     H 9511   3.822   1.851   1.597 -5.3710 -1.4996  1.3010
  830MOL0     H 9512   3.787   1.892   1.425  0.6970 -2.6617  1.6787
  830MOL0     H 9513   3.614   2.138   1.407  2.0663  0.1215  0.7821
  830MOL0     H 9514   3.385   2.234   1.455  3.1629 -0.7943  2.0839
  830MOL0     H 9515   3.304   2.195   1.598  1.7926 -1.7304  1.3744
  830MOL0     H 9516   3.287   2.023   1.337 -1.9127 -0.6147 -0.2820
  830MOL0     H 9517   3.176   2.150   1.370  1.4201  1.7508  1.1889
  830MOL0     H 9518   3.222   1.910   1.530 -0.6312  0.1367  3.1490
  830MOL0     H 9519   3.113   2.033   1.582  2.7800 -2.1641  1.2492
  830MOL0     H 9520   2.995   1.839   1.437  1.1361 -1.4494 -0.4909
  830MOL0     H 9521   3.083   1.907   1.303  2.7144  2.4436 -0.1761
  830MOL0     H 9522   2.855   1.803   1.281 -1.4642 -0.4528  0.1167
  830MOL0     H 9523   2.607   1.759   1.209  0.3407 -0.9765  1.5241
  830MOL0     H 9524   2.167   1.752   1.413  1.0957  1.4633  0.1820
  830MOL0     H 9525   1.966   1.659   1.349  2.7153 -0.5887  1.8325
  830MOL0     H 9526   1.796   1.570   1.273  2.0218 -2.7431  3.1228
  830MOL0     H 9527   1.843   1.415   1.189 -1.9793 -0.5736 -1.1270
  830MOL0     H 9528   1.691   1.432   1.021 -4.1697 -1.0689 -0.6202
  830MOL0     H 9529   1.618   1.579   1.086 -0.9687 -0.5495 -0.1300
  830MOL0     H 9530   1.468   1.434   1.200  0.4117  0.5911 -2.5495
  830MOL0     H 9531   1.598   1.443   1.316  0.2979  2.2674 -0.4108
  830MOL0     H 9532   1.571   1.230   1.088 -1.5120  0.7327  0.0736
  830MOL0     H 9533   1.667   1.216   1.237 -0.6940 -1.4873  1.8133
  830MOL0     H 9534   1.362   1.210   1.218 -1.9623 -1.9449  2.0226
  830MOL0     H 9535   1.453   1.194   1.363 -2.6899 -1.5888  0.5364
  830MOL0     H 9536   1.464   0.987   1.136  0.8878 -1.2375  0.1654
  830MOL0     H 9537   1.369   0.986   1.290 -0.1885  3.6322  0.9825
  830MOL0     H 9538   1.595   0.851   1.280 -0.6618 -0.1409 -2.3286
  830MOL0     H 9539   1.675   1.006   1.285 -0.9038  0.8285 -3.3047
  830MOL0     H 9540   1.512   0.870   1.487 -1.4059  0.6980  0.5520
  830MOL0     H 9541   1.549   1.046   1.509  0.7229  0.2912 -0.9949
  830MOL0     H 9542   2.084   1.681   0.932 -2.1275  4.2110  0.0558
  830MOL0     H 9543   2.303   1.757   1.011  1.1410 -0.4454  0.8421
  830MOL0     H 9544   2.536   2.172   1.321  1.7096  0.3594 -0.3762
  830MOL0     H 9545   2.773   2.201   1.355  0.0438 -0.9769  2.6029
  830MOL0     H 9546   4.681   2.115   1.455 -0.7332  1.1857 -1.9713
  830MOL0     H 9547   4.862   2.268   1.521 -2.3061  0.2888  5.1804
  830MOL0     H 9548   5.345   2.238   1.664 -0.0981 -0.0572 -0.2981
  830MOL0     H 9549   5.538   2.372   1.755  1.0432 -0.1237  2.8967
  830MOL0     H 9550   5.639   2.641   1.767  2.3584 -0.5050 -0.8503
  830MOL0     H 9551   5.678   2.479   1.844 -2.4281 -0.0056 -1.0536
  830MOL0     H 9552   5.710   2.756   1.959  0.8277  1.0314 -3.6609
  830MOL0     H 9553   5.728   2.600   2.046  1.5353  1.2206 -0.5067
  830MOL0     H 9554   5.896   2.532   1.891 -2.9312 -1.4792  2.9873
  830MOL0     H 9555   5.951   2.660   2.004 -0.1342 -0.2294 -0.7206
  830MOL0     H 9556   6.029   2.688   1.768  1.5177 -0.2769  3.2607
  830MOL0     H 9557   5.860   2.724   1.725 -1.0117 -0.5535  1.4504
  830MOL0     H 9558   6.027   3.075   1.918 -1.0429  0.1155 -0.0730
  830MOL0     H 9559   5.282   2.578   2.012  2.3511 -0.4921  0.4992
  830MOL0     H 9560   5.091   2.436   1.955  0.3942  2.3973  0.1663
  831MOL0     O 9561   9.477   8.722   3.252  0.9407  0.5322  0.4240
  831MOL0     C 9562   9.525   8.816   3.313  0.1177  0.0818 -0.3453
  831MOL0     O 9563   9.460   8.904   3.399 -0.5605 -0.1628  0.2996
  831MOL0     C 9564   9.322   8.900   3.407  0.7702  0.4563 -0.2922
  831MOL0     C 9565   9.276   8.871   3.538 -0.4017  0.0707 -0.7016
  831MOL0     C 9566   9.145   8.867   3.568 -0.3389 -0.7247  0.5281
  831MOL0     C 9567   9.046   8.883   3.466 -0.4393 -0.8209  0.6403
  831MOL0     O 9568   8.916   8.889   3.493 -0.3555  1.0180  0.2007
  831MOL0     C 9569   8.824   8.938   3.397 -0.0689 -0.4591 -0.1391
  831MOL0     C 9570   8.683   8.903   3.437 -0.4329  0.7639  0.0029
  831MOL0     C 9571   8.646   8.754   3.458  1.0497  0.0745  0.6638
  831MOL0     C 9572   8.494   8.754   3.489 -0.1794 -0.3149 -0.0568
  831MOL0     C 9573   8.440   8.611   3.488  0.1928  0.3991 -0.2898
  831MOL0     C 9574   8.316   8.610   3.574 -0.6231 -0.3210 -0.2270
  831MOL0     C 9575   8.221   8.496   3.549  0.0159 -0.5473  0.1904
  831MOL0     C 9576   8.292   8.371   3.575 -0.4002  0.2340 -0.7164
  831MOL0     N 9577   8.215   8.254   3.560 -0.0957  0.1787  0.1263
  831MOL0     C 9578   8.115   8.237   3.465 -0.2171 -0.7563 -0.2033
  831MOL0     C 9579   8.051   8.123   3.511 -0.8557  0.0715  0.0035
  831MOL0     C 9580   7.946   8.056   3.432  0.6909  0.4566  0.4544
  831MOL0     C 9581   7.808   8.113   3.450  0.6179 -0.6798 -0.4875
  831MOL0     C 9582   7.767   8.088   3.599 -0.2443  0.3495 -0.8038
  831MOL0     C 9583   7.624   8.135   3.616 -0.7536 -0.2398 -0.2721
  831MOL0     O 9584   7.633   8.276   3.573  0.1321 -0.5132 -0.3534
  831MOL0     C 9585   7.526   8.352   3.593  0.4294 -0.3181  0.4529
  831MOL0     C 9586   7.533   8.482   3.553 -0.2609  0.7428  1.2684
  831MOL0     C 9587   7.431   8.574   3.556  0.6354  0.3917 -0.0658
  831MOL0     C 9588   7.309   8.535   3.608  0.0193 -0.5684  0.3714
  831MOL0     C 9589   7.198   8.634   3.614  0.2430 -0.9504 -0.1397
  831MOL0     O 9590   7.081   8.587   3.672  0.3813  0.0642  0.3013
  831MOL0     C 9591   6.966   8.660   3.676 -1.1940  0.1418  0.0497
  831MOL0     C 9592   6.945   8.743   3.784 -0.1431 -0.3812 -0.2324
  831MOL0     C 9593   6.816   8.802   3.800 -0.9579  0.1005  0.4609
  831MOL0     C 9594   6.715   8.772   3.712 -0.0081 -0.4783  0.1577
  831MOL0     O 9595   6.581   8.796   3.726  0.8108  0.1286 -0.3150
  831MOL0     C 9596   6.535   8.866   3.849 -0.7157  0.2724 -0.1767
  831MOL0     C 9597   6.384   8.878   3.859  0.4881  0.0070 -0.3538
  831MOL0     C 9598   6.334   8.959   3.978  0.3480  0.7368  1.2699
  831MOL0     C 9599   6.195   8.923   4.023 -0.7678 -0.5978 -0.7665
  831MOL0     C 9600   6.083   8.997   3.944 -1.0558  0.3966  0.0208
  831MOL0     C 9601   5.960   8.910   3.934 -0.2362 -0.2240  1.0761
  831MOL0     C 9602   5.845   8.983   3.848 -1.0423 -0.8340  0.0945
  831MOL0     C 9603   5.722   8.895   3.827 -0.0745  0.2033 -0.5963
  831MOL0    Cl 9604   5.586   8.983   3.743  0.2347  0.2475  0.1655
  831MOL0     C 9605   6.745   8.702   3.597 -0.6929 -0.3172 -0.4690
  831MOL0     C 9606   6.871   8.639   3.586  0.4300  0.1888  0.6101
  831MOL0     O 9607   7.203   8.744   3.560 -0.6017  0.3478 -0.0079
  831MOL0     C 9608   7.293   8.406   3.649  0.1396  0.7876 -0.6254
  831MOL0     C 9609   7.401   8.318   3.652  0.4613  0.3274 -0.1414
  831MOL0     N 9610   8.127   8.068   3.608  0.6428 -0.6931 -0.5017
  831MOL0     N 9611   8.224   8.147   3.640  0.4851  0.0475  0.1261
  831MOL0     C 9612   9.093   8.910   3.336  0.0216 -0.7348  0.1146
  831MOL0     C 9613   9.227   8.911   3.305 -0.4958 -0.4621  0.2993
  831MOL0     C 9614   9.677   8.835   3.315  0.4247  0.0102  0.0570
  831MOL0     C 9615   9.754   8.755   3.224 -0.7172  0.0995  0.3589
  831MOL0     C 9616   9.895   8.770   3.217  0.5214  1.2069 -0.3889
  831MOL0     C 9617   9.957   8.852   3.310  0.3920  0.5123  0.1564
  831MOL0     O 9618  10.092   8.867   3.299  0.5322  0.3492 -0.0099
  831MOL0     C 9619  10.173   8.821   3.409  1.2225  0.5383  0.3282
  831MOL0     C 9620  10.289   8.723   3.389 -0.7987  0.1783 -0.0758
  831MOL0     C 9621  10.248   8.590   3.322  0.1377 -0.6382 -0.3595
  831MOL0     C 9622  10.167   8.499   3.412  0.5395  0.1078 -0.0540
  831MOL0     C 9623  10.126   8.389   3.332  0.1198  0.7028  0.2175
  831MOL0     C 9624  10.100   8.303   3.249 -0.4057 -0.0273 -0.3886
  831MOL0     C 9625   9.877   8.924   3.396  0.5079  0.0610  0.2855
  831MOL0     C 9626   9.741   8.916   3.404  0.1308 -0.5170 -0.0798
  831MOL0     H 9627   9.348   8.856   3.618 -1.1856  2.1817  0.4716
  831MOL0     H 9628   9.099   8.840   3.662 -1.8146  3.8575  1.4010
  831MOL0     H 9629   8.835   8.904   3.294  0.7149  1.2078 -0.6288
  831MOL0     H 9630   8.841   9.045   3.407  0.8740 -0.6181  0.0582
  831MOL0     H 9631   8.615   8.937   3.358 -0.9863  0.3727  0.3090
  831MOL0     H 9632   8.668   8.957   3.531  3.0492  0.4287  0.9050
  831MOL0     H 9633   8.700   8.708   3.541 -0.2719 -1.1584  0.8688
  831MOL0     H 9634   8.662   8.692   3.369 -2.2033 -2.4406  1.6381
  831MOL0     H 9635   8.482   8.801   3.587  2.1271  1.2164 -0.4205
  831MOL0     H 9636   8.444   8.812   3.410 -2.8174  1.6719  2.8270
  831MOL0     H 9637   8.518   8.541   3.520 -0.1392  0.1571  0.0057
  831MOL0     H 9638   8.406   8.584   3.387 -2.4291 -0.8990  0.8265
  831MOL0     H 9639   8.258   8.697   3.542 -0.3610 -0.6814 -1.7792
  831MOL0     H 9640   8.349   8.621   3.678 -0.3101 -3.7499  0.1582
  831MOL0     H 9641   8.130   8.507   3.610  0.8115 -1.5979  1.6244
  831MOL0     H 9642   8.188   8.498   3.444 -3.7944  3.8383  1.1008
  831MOL0     H 9643   8.340   8.371   3.673  1.5921 -1.2605 -1.6107
  831MOL0     H 9644   8.388   8.363   3.523  0.6523 -0.2175  1.1996
  831MOL0     H 9645   8.079   8.302   3.386 -0.9572 -1.7645 -0.7275
  831MOL0     H 9646   7.941   7.953   3.469  0.1235 -0.5079 -2.1535
  831MOL0     H 9647   7.981   8.045   3.329  2.5661  0.0070  1.0974
  831MOL0     H 9648   7.734   8.058   3.393 -3.2495  3.3192  0.1255
  831MOL0     H 9649   7.817   8.216   3.413  4.6593 -1.5680 -2.5440
  831MOL0     H 9650   7.772   7.986   3.637  0.3288  0.7808  0.3553
  831MOL0     H 9651   7.814   8.155   3.672 -0.3180  1.4524 -1.7489
  831MOL0     H 9652   7.588   8.138   3.719 -1.3959 -0.1517 -0.4965
  831MOL0     H 9653   7.563   8.066   3.558 -1.2435 -2.8880  3.0345
  831MOL0     H 9654   7.633   8.514   3.524 -1.2642  3.2676  0.2526
  831MOL0     H 9655   7.445   8.677   3.524 -0.3846  1.9016  3.7724
  831MOL0     H 9656   7.029   8.752   3.853 -1.4082  4.1367  1.0519
  831MOL0     H 9657   6.808   8.858   3.892 -0.1489 -0.2792  0.7742
  831MOL0     H 9658   6.572   8.968   3.839  1.0635 -0.2438  0.7210
  831MOL0     H 9659   6.581   8.816   3.935  0.6828 -0.9948 -1.5922
  831MOL0     H 9660   6.334   8.780   3.861 -0.3757  0.3964  2.3718
  831MOL0     H 9661   6.354   8.923   3.765 -1.2848 -1.9839 -0.8172
  831MOL0     H 9662   6.335   9.062   3.942  2.2175 -0.2772 -1.9585
  831MOL0     H 9663   6.404   8.939   4.060 -0.7263 -1.9178  1.6458
  831MOL0     H 9664   6.176   8.815   4.023 -2.1860 -0.3705 -0.6066
  831MOL0     H 9665   6.192   8.970   4.122  3.2589  0.9293 -1.1901
  831MOL0     H 9666   6.120   9.020   3.844 -1.2178 -0.2450 -0.1970
  831MOL0     H 9667   6.055   9.093   3.987 -1.1357 -0.0064  0.8934
  831MOL0     H 9668   5.938   8.883   4.038  2.5827 -0.1719  1.7601
  831MOL0     H 9669   5.973   8.811   3.889 -4.6739 -0.7920  0.5294
  831MOL0     H 9670   5.815   9.070   3.908  1.4981 -1.2039  2.0540
  831MOL0     H 9671   5.891   9.023   3.757  3.3500  0.7515  2.6676
  831MOL0     H 9672   5.693   8.849   3.922  0.1275  0.2689 -0.5018
  831MOL0     H 9673   5.756   8.806   3.773 -2.5049 -3.2674  3.0220
  831MOL0     H 9674   6.667   8.684   3.524  0.1864 -4.8803 -0.5519
  831MOL0     H 9675   6.891   8.592   3.490  1.1653  1.9918 -0.1675
  831MOL0     H 9676   7.191   8.381   3.675 -0.7791  0.6652 -3.9212
  831MOL0     H 9677   7.383   8.221   3.697 -0.6273  1.1866  1.3572
  831MOL0     H 9678   9.024   8.930   3.254 -0.8408 -1.0413  0.7494
  831MOL0     H 9679   9.257   8.931   3.202 -2.2123 -3.1635 -0.8514
  831MOL0     H 9680   9.706   8.688   3.154 -1.3222 -1.3926  2.1212
  831MOL0     H 9681   9.953   8.710   3.148 -0.4878  0.2382 -0.4185
  831MOL0     H 9682  10.106   8.771   3.479  0.1812  0.2259 -0.8422
  831MOL0     H 9683  10.201   8.912   3.463 -1.5239  1.7600 -0.1514
  831MOL0     H 9684  10.361   8.767   3.320 -2.3004  0.1876 -1.7327
  831MOL0     H 9685  10.338   8.717   3.486  0.8079  1.8074 -0.7441
  831MOL0     H 9686  10.342   8.536   3.309 -0.0720 -1.1679  0.2868
  831MOL0     H 9687  10.203   8.593   3.222 -1.7292 -1.0891  0.4405
  831MOL0     H 9688  10.225   8.464   3.498 -0.6135  1.2799  1.2498
  831MOL0     H 9689  10.078   8.548   3.453 -1.3076 -1.9240 -1.4355
  831MOL0     H 9690  10.068   8.229   3.178  0.5122 -0.3128 -0.5158
  831MOL0     H 9691   9.924   8.986   3.472  1.7377  1.5644 -1.5984
  831MOL0     H 9692   9.685   8.952   3.490 -1.0353 -3.5984  0.5636
  832MOL0     O 9693   0.550   8.502  10.953  0.7979  0.6061 -0.4559
  832MOL0     C 9694   0.608   8.516  11.059  0.2238  0.5475  0.4702
  832MOL0     O 9695   0.548   8.500  11.177 -0.0723  0.1496  0.1050
  832MOL0     C 9696   0.416   8.463  11.201  0.7960  0.9476 -0.4282
  832MOL0     C 9697   0.366   8.488  11.326  0.8824 -0.2113 -0.6828
  832MOL0     C 9698   0.237   8.447  11.370 -0.6833  0.0439 -0.0086
  832MOL0     C 9699   0.150   8.392  11.277 -1.0562 -0.0302 -0.4136
  832MOL0     O 9700   0.020   8.366  11.327 -0.2981  0.1679  0.3051
  832MOL0     C 9701  -0.084   8.331  11.235 -0.5664  0.1403 -0.0834
  832MOL0     C 9702  -0.218   8.304  11.303 -0.0889 -0.4380  0.4079
  832MOL0     C 9703  -0.324   8.243  11.209  0.4382 -0.7889  0.8312
  832MOL0     C 9704  -0.453   8.221  11.290 -0.0390 -0.4683  0.3159
  832MOL0     C 9705  -0.580   8.174  11.212 -0.5008 -0.5300 -0.5072
  832MOL0     C 9706  -0.607   8.265  11.092 -0.1504 -0.0905  0.1463
  832MOL0     C 9707  -0.752   8.255  11.062  1.1143 -0.2989  0.3660
  832MOL0     C 9708  -0.791   8.330  10.941  0.4241  0.4579 -0.7469
  832MOL0     N 9709  -0.939   8.349  10.915 -0.4858  0.2522 -0.3274
  832MOL0     C 9710  -1.012   8.464  10.949 -0.5122 -0.5628 -0.5946
  832MOL0     C 9711  -1.119   8.448  10.869  0.7938  0.5145 -0.1156
  832MOL0     C 9712  -1.226   8.558  10.840 -1.0609 -0.2842 -0.0537
  832MOL0     C 9713  -1.332   8.586  10.954 -0.2942  0.4511  0.0973
  832MOL0     C 9714  -1.373   8.447  11.003 -1.0542  0.3789 -0.5470
  832MOL0     C 9715  -1.460   8.456  11.131  0.9938 -1.6736 -0.1893
  832MOL0     O 9716  -1.558   8.564  11.117  1.2985  0.1790  0.1534
  832MOL0     C 9717  -1.692   8.529  11.132 -0.1009 -0.0256 -0.1415
  832MOL0     C 9718  -1.738   8.433  11.227 -0.1345 -0.6045 -0.6596
  832MOL0     C 9719  -1.868   8.397  11.232  0.0112  0.2099 -0.5318
  832MOL0     C 9720  -1.956   8.461  11.147  0.2881 -1.2220 -0.6428
  832MOL0     C 9721  -2.099   8.447  11.160  0.8781 -0.1413 -0.3249
  832MOL0     O 9722  -2.187   8.530  11.087 -0.1295  0.7014  0.0889
  832MOL0     C 9723  -2.322   8.504  11.118  0.6155  0.3564  0.7557
  832MOL0     C 9724  -2.398   8.581  11.201  0.6132 -0.1083 -0.1683
  832MOL0     C 9725  -2.539   8.569  11.212  0.4384  0.3941 -0.3006
  832MOL0     C 9726  -2.603   8.448  11.162  0.4588  0.3046 -0.4550
  832MOL0     O 9727  -2.731   8.421  11.190  1.2710 -0.0486 -0.0750
  832MOL0     C 9728  -2.793   8.458  11.318 -0.8210 -0.0880  0.8292
  832MOL0     C 9729  -2.947   8.427  11.319  0.0272  0.6503 -0.0115
  832MOL0     C 9730  -3.001   8.451  11.462  0.2505  0.2605 -0.3595
  832MOL0     C 9731  -3.150   8.422  11.465  1.2036 -0.0435 -0.1679
  832MOL0     C 9732  -3.216   8.477  11.592  0.9111 -0.6961 -0.3396
  832MOL0     C 9733  -3.356   8.419  11.615  0.3939 -1.0757 -0.1560
  832MOL0     C 9734  -3.460   8.527  11.580 -0.5140  0.7401  0.0819
  832MOL0     C 9735  -3.605   8.467  11.554 -0.4002  0.5994 -0.3177
  832MOL0    Cl 9736  -3.707   8.451  11.704 -0.1393 -0.4902 -0.1719
  832MOL0     C 9737  -2.527   8.363  11.083  0.3158  0.9819  0.1925
  832MOL0     C 9738  -2.390   8.386  11.060  0.5627  0.3786 -0.5444
  832MOL0     O 9739  -2.132   8.359  11.242 -0.0438  0.5120 -0.1300
  832MOL0     C 9740  -1.910   8.563  11.058  0.9225  0.2367 -0.8981
  832MOL0     C 9741  -1.778   8.591  11.048 -0.0377  0.8591 -0.0348
  832MOL0     N 9742  -1.128   8.320  10.813 -0.6446 -0.0153  0.2432
  832MOL0     N 9743  -1.015   8.265  10.841  0.6736 -0.1895  0.2796
  832MOL0     C 9744   0.199   8.367  11.146 -0.2677 -0.3652 -0.8275
  832MOL0     C 9745   0.328   8.401  11.109  0.1310  0.0299 -0.5789
  832MOL0     C 9746   0.754   8.533  11.048 -0.4196 -0.3213  0.2146
  832MOL0     C 9747   0.840   8.544  11.162  0.2194  0.5633  0.8564
  832MOL0     C 9748   0.977   8.564  11.150  0.1813 -0.3277  0.1832
  832MOL0     C 9749   1.039   8.574  11.027  0.9910 -0.5220 -0.1692
  832MOL0     O 9750   1.172   8.599  11.021  0.4178  0.2433  0.2433
  832MOL0     C 9751   1.231   8.618  10.893  0.3813  0.0889  0.4703
  832MOL0     C 9752   1.366   8.680  10.911  0.1401  0.3649 -0.7365
  832MOL0     C 9753   1.429   8.697  10.776 -0.2106  0.3708 -0.3101
  832MOL0     C 9754   1.578   8.752  10.769 -0.0025 -0.6125 -0.0982
  832MOL0     C 9755   1.678   8.656  10.819  0.6607 -0.8420 -0.3218
  832MOL0     C 9756   1.773   8.587  10.852  0.8444  0.1429  0.0570
  832MOL0     C 9757   0.956   8.561  10.914  0.3645  0.9047 -0.1499
  832MOL0     C 9758   0.823   8.530  10.929  0.2422 -0.0260 -0.3112
  832MOL0     H 9759   0.429   8.541  11.396 -1.6847 -0.7348  2.2414
  832MOL0     H 9760   0.189   8.463  11.466 -0.6104 -0.9386  0.2041
  832MOL0     H 9761  -0.059   8.230  11.201 -1.5751 -0.5898  1.2372
  832MOL0     H 9762  -0.093   8.397  11.148  0.7807  0.8482  0.2904
  832MOL0     H 9763  -0.249   8.398  11.351 -1.2544  0.1528 -1.3948
  832MOL0     H 9764  -0.204   8.235  11.386  3.1805 -2.3676 -1.5367
  832MOL0     H 9765  -0.299   8.142  11.175 -1.2822 -0.7036 -0.9233
  832MOL0     H 9766  -0.337   8.307  11.121 -1.7538 -0.0960  1.5807
  832MOL0     H 9767  -0.429   8.143  11.363  0.4855 -0.3123  0.3126
  832MOL0     H 9768  -0.480   8.310  11.347 -0.6576 -0.9911  0.8555
  832MOL0     H 9769  -0.660   8.181  11.286  1.0796 -4.9850  2.0097
  832MOL0     H 9770  -0.565   8.071  11.177 -2.6758 -0.4456 -1.9002
  832MOL0     H 9771  -0.553   8.228  11.004 -0.7204  1.4154 -0.8704
  832MOL0     H 9772  -0.576   8.369  11.103 -1.6162  0.4670 -0.8066
  832MOL0     H 9773  -0.787   8.152  11.050 -2.1122  0.8102 -0.6491
  832MOL0     H 9774  -0.804   8.305  11.145 -0.1289  1.7369 -1.5303
  832MOL0     H 9775  -0.745   8.275  10.858 -1.5248  0.8840 -2.1810
  832MOL0     H 9776  -0.746   8.430  10.951  0.2754  0.3633  1.2958
  832MOL0     H 9777  -0.988   8.545  11.018  0.5072 -0.3016 -1.2377
  832MOL0     H 9778  -1.289   8.520  10.759 -2.8198  0.7985  0.7688
  832MOL0     H 9779  -1.185   8.657  10.818 -2.0871  0.5781  1.6898
  832MOL0     H 9780  -1.423   8.632  10.915 -0.4108  0.9330  0.9417
  832MOL0     H 9781  -1.285   8.648  11.031 -3.7720  3.7865 -0.2033
  832MOL0     H 9782  -1.430   8.387  10.932 -0.5958 -1.8657  0.8901
  832MOL0     H 9783  -1.290   8.385  11.038 -1.8016 -0.2013  0.2774
  832MOL0     H 9784  -1.408   8.474  11.226  2.4787 -1.0210 -1.0829
  832MOL0     H 9785  -1.519   8.365  11.145 -2.4478  0.4287  0.1832
  832MOL0     H 9786  -1.670   8.383  11.294 -0.5087  0.7803  0.8025
  832MOL0     H 9787  -1.908   8.321  11.298  0.6234 -0.2518 -0.6843
  832MOL0     H 9788  -2.336   8.654  11.253 -0.7798  1.5934 -0.7956
  832MOL0     H 9789  -2.603   8.641  11.263 -0.8685  1.1317 -2.8329
  832MOL0     H 9790  -2.790   8.568  11.316 -3.3029  0.0528 -1.4305
  832MOL0     H 9791  -2.739   8.411  11.400  2.1151  2.0230  0.2596
  832MOL0     H 9792  -2.963   8.322  11.292  4.0368 -0.4297  1.1835
  832MOL0     H 9793  -3.003   8.482  11.243  2.0338  0.9329 -1.3368
  832MOL0     H 9794  -2.984   8.557  11.482  2.0328 -0.0002 -0.3530
  832MOL0     H 9795  -2.958   8.382  11.535 -2.3946 -0.5944  0.5063
  832MOL0     H 9796  -3.204   8.461  11.378  0.4198  0.7444  0.6439
  832MOL0     H 9797  -3.160   8.313  11.466  1.8934 -0.1412  1.7768
  832MOL0     H 9798  -3.216   8.586  11.583 -2.8638 -0.5141  0.0124
  832MOL0     H 9799  -3.157   8.440  11.676 -0.5417  0.8345  1.4627
  832MOL0     H 9800  -3.368   8.393  11.721  2.8966 -1.9752 -0.0273
  832MOL0     H 9801  -3.366   8.327  11.556 -0.3738 -1.6248  0.7848
  832MOL0     H 9802  -3.459   8.604  11.658  0.4922  0.8366 -0.0166
  832MOL0     H 9803  -3.432   8.571  11.484 -0.6578 -1.5789 -1.1032
  832MOL0     H 9804  -3.596   8.369  11.507  2.4941 -0.3019  1.8006
  832MOL0     H 9805  -3.668   8.531  11.492 -1.2212 -0.0209 -0.1440
  832MOL0     H 9806  -2.571   8.273  11.041  1.0034  0.1057  1.2794
  832MOL0     H 9807  -2.341   8.303  11.011 -1.5459  0.2074 -2.5141
  832MOL0     H 9808  -1.974   8.629  10.998  1.2789  1.5396  0.1123
  832MOL0     H 9809  -1.748   8.661  10.970  4.0696 -1.4548 -0.8274
  832MOL0     H 9810   0.133   8.318  11.076 -3.1258  1.2630  0.5478
  832MOL0     H 9811   0.366   8.400  11.007  1.8393  1.4424 -0.0030
  832MOL0     H 9812   0.802   8.549  11.263  1.3321  3.3379  1.2210
  832MOL0     H 9813   1.038   8.596  11.234 -1.2156  2.1933  0.3410
  832MOL0     H 9814   1.173   8.680  10.823  0.2059 -1.4983 -0.8494
  832MOL0     H 9815   1.252   8.524  10.842 -2.0255  0.0903 -0.6657
  832MOL0     H 9816   1.357   8.777  10.960 -4.6259  0.6911 -1.7129
  832MOL0     H 9817   1.422   8.620  10.984 -0.9232  0.2507  0.0068
  832MOL0     H 9818   1.370   8.775  10.728 -0.6997 -0.3842 -0.9694
  832MOL0     H 9819   1.412   8.607  10.715 -0.7468 -0.1021  0.5241
  832MOL0     H 9820   1.601   8.785  10.668  1.1121 -0.9613  0.0317
  832MOL0     H 9821   1.587   8.837  10.837  1.0725  0.4770 -1.5748
  832MOL0     H 9822   1.861   8.528  10.869  1.7277  1.3016 -0.3660
  832MOL0     H 9823   1.004   8.570  10.817  2.4066 -0.3569  0.6736
  832MOL0     H 9824   0.765   8.504  10.841 -0.5969 -0.2337  0.2875
  833MOL0     O 9825   1.581   3.619  10.590  0.3365  0.4906  0.0081
  833MOL0     C 9826   1.654   3.542  10.655  0.4945  0.9157  1.0811
  833MOL0     O 9827   1.609   3.447  10.745  0.4997  0.0913 -0.0907
  833MOL0     C 9828   1.477   3.440  10.779 -0.3554 -0.1124  0.7220
  833MOL0     C 9829   1.438   3.472  10.903 -0.4252 -0.0483 -0.0848
  833MOL0     C 9830   1.303   3.462  10.941 -0.3838 -0.2086 -0.9447
  833MOL0     C 9831   1.208   3.408  10.860  0.3720 -0.4610  0.5689
  833MOL0     O 9832   1.081   3.391  10.902  0.0414 -0.4276  0.4885
  833MOL0     C 9833   1.065   3.284  10.997  0.4013  0.2799  0.5069
  833MOL0     C 9834   0.913   3.240  11.003 -0.4346 -0.5328  0.4507
  833MOL0     C 9835   0.864   3.201  10.864 -0.2597 -1.0355  0.9784
  833MOL0     C 9836   0.739   3.118  10.880  0.7375 -0.2468  0.3669
  833MOL0     C 9837   0.711   3.045  10.750  0.1350  0.3640 -1.0464
  833MOL0     C 9838   0.672   3.142  10.636 -0.1627  0.3835 -0.2956
  833MOL0     C 9839   0.623   3.061  10.509  0.4742  1.1399 -0.3572
  833MOL0     C 9840   0.565   3.150  10.402 -0.0978  0.1223  0.3522
  833MOL0     N 9841   0.458   3.238  10.452 -0.0059 -0.6170  0.4040
  833MOL0     C 9842   0.354   3.209  10.536  0.1585 -0.3459  0.1918
  833MOL0     C 9843   0.285   3.321  10.539  0.2561  0.7711 -0.0902
  833MOL0     C 9844   0.162   3.337  10.630 -0.1792 -0.0034  0.5105
  833MOL0     C 9845   0.200   3.341  10.779  0.1155  0.1575  0.2269
  833MOL0     C 9846   0.071   3.374  10.853  0.7537 -0.1905  0.2075
  833MOL0     C 9847   0.088   3.343  11.007  0.4320  0.5724 -0.0164
  833MOL0     O 9848  -0.024   3.346  11.090  0.2943  0.3965  0.0299
  833MOL0     C 9849  -0.120   3.257  11.055 -0.1532  0.3144  0.2837
  833MOL0     C 9850  -0.241   3.317  11.042  0.3321  0.3477  0.5786
  833MOL0     C 9851  -0.353   3.231  11.025 -0.3048 -0.2255  0.0932
  833MOL0     C 9852  -0.340   3.089  11.012  0.2209 -0.0492 -0.1774
  833MOL0     C 9853  -0.463   3.003  10.994  0.2321 -0.6783  0.3630
  833MOL0     O 9854  -0.446   2.867  10.998 -0.4113  0.5134 -0.4438
  833MOL0     C 9855  -0.556   2.784  10.996 -0.2156 -0.0795 -0.2876
  833MOL0     C 9856  -0.582   2.716  11.111 -0.9199 -0.1148 -0.7819
  833MOL0     C 9857  -0.666   2.609  11.110  0.0765  0.7255 -0.4012
  833MOL0     C 9858  -0.723   2.563  10.991 -0.1442 -0.2818 -0.0850
  833MOL0     O 9859  -0.789   2.443  11.003  0.2221  0.3078  0.0453
  833MOL0     C 9860  -0.794   2.346  10.897  0.1666  0.2639 -0.7243
  833MOL0     C 9861  -0.908   2.243  10.921  0.4077 -0.0077  0.1825
  833MOL0     C 9862  -1.026   2.257  10.824 -0.0222  0.3573  0.9604
  833MOL0     C 9863  -1.136   2.156  10.866 -0.2771  0.1997 -0.5290
  833MOL0     C 9864  -1.260   2.155  10.774  0.3607  0.1731 -0.3551
  833MOL0     C 9865  -1.342   2.281  10.757 -0.7880  0.4098 -0.0549
  833MOL0     C 9866  -1.375   2.343  10.899  0.9160 -0.1778 -0.5967
  833MOL0     C 9867  -1.502   2.435  10.887 -0.3793  0.1279 -0.6942
  833MOL0    Cl 9868  -1.551   2.505  11.039  0.3370 -0.2001  0.0439
  833MOL0     C 9869  -0.723   2.644  10.879  0.7070 -0.0693 -0.1338
  833MOL0     C 9870  -0.637   2.756  10.877  0.3488 -0.0091  0.1785
  833MOL0     O 9871  -0.577   3.058  10.985 -0.9523  0.1420  0.3133
  833MOL0     C 9872  -0.212   3.035  11.022 -0.5678 -0.1927  0.4808
  833MOL0     C 9873  -0.105   3.120  11.046 -0.6678  0.0484  0.1280
  833MOL0     N 9874   0.336   3.414  10.456 -0.7812  0.2424  0.0901
  833MOL0     N 9875   0.444   3.366  10.408  0.2195  0.0269 -0.0856
  833MOL0     C 9876   1.243   3.390  10.728  0.6287  0.2173  0.0071
  833MOL0     C 9877   1.380   3.403  10.691 -0.3536  0.8742 -0.0528
  833MOL0     C 9878   1.794   3.527  10.608 -0.2975  0.0451 -0.4688
  833MOL0     C 9879   1.883   3.435  10.662 -0.0079 -0.1560 -0.0016
  833MOL0     C 9880   2.009   3.423  10.601 -0.2708 -0.4471 -0.3621
  833MOL0     C 9881   2.055   3.511  10.499  0.6237 -0.0531 -0.2394
  833MOL0     O 9882   2.183   3.500  10.449  0.2485  0.3656  0.2728
  833MOL0     C 9883   2.265   3.404  10.500  0.4275  0.1301  0.0473
  833MOL0     C 9884   2.397   3.435  10.436 -0.8908  0.6944  0.0372
  833MOL0     C 9885   2.456   3.560  10.487  0.2375 -0.2848  0.1738
  833MOL0     C 9886   2.591   3.602  10.423 -0.2193 -0.2248  1.1345
  833MOL0     C 9887   2.704   3.507  10.440 -0.2489 -1.2445  0.2601
  833MOL0     C 9888   2.795   3.427  10.433 -0.0488  0.5394 -0.4264
  833MOL0     C 9889   1.965   3.602  10.446 -0.1066  0.3410  0.6065
  833MOL0     C 9890   1.842   3.608  10.501  0.1259  0.0595 -0.0185
  833MOL0     H 9891   1.517   3.506  10.970  1.1096 -1.9688 -0.8113
  833MOL0     H 9892   1.272   3.487  11.042  2.5616  0.3276 -0.0735
  833MOL0     H 9893   1.111   3.313  11.092  1.4920  1.9968 -0.4893
  833MOL0     H 9894   1.124   3.196  10.971  1.3967  0.8718  0.7064
  833MOL0     H 9895   0.852   3.321  11.042 -0.1252 -0.5049  0.8735
  833MOL0     H 9896   0.907   3.158  11.075 -0.1006 -1.4604 -0.5406
  833MOL0     H 9897   0.943   3.139  10.821  2.9995  1.4856  2.7923
  833MOL0     H 9898   0.837   3.285  10.799  1.6895 -0.8262  0.3869
  833MOL0     H 9899   0.763   3.043  10.955  0.0343  0.0640  0.9171
  833MOL0     H 9900   0.663   3.189  10.915  2.6926  2.8734 -1.2428
  833MOL0     H 9901   0.633   2.969  10.766 -0.5240  1.5436  1.9424
  833MOL0     H 9902   0.799   2.986  10.721  0.2111  0.4648 -1.0213
  833MOL0     H 9903   0.747   3.214  10.602 -0.0312 -0.1923 -1.2897
  833MOL0     H 9904   0.576   3.183  10.668 -0.0841  1.7031 -1.6605
  833MOL0     H 9905   0.708   3.004  10.471 -0.8208 -1.0183 -0.1994
  833MOL0     H 9906   0.546   2.994  10.548  1.7298  0.5609  1.2727
  833MOL0     H 9907   0.539   3.097  10.310  3.7645  1.4853 -1.7659
  833MOL0     H 9908   0.645   3.216  10.368  0.2367  0.2650  1.3624
  833MOL0     H 9909   0.336   3.116  10.590  1.7422  0.4773  2.2727
  833MOL0     H 9910   0.092   3.253  10.620  0.3090 -0.3009 -0.5101
  833MOL0     H 9911   0.100   3.422  10.598 -0.8668 -0.4262  0.6948
  833MOL0     H 9912   0.273   3.421  10.794 -2.9391  2.6532  3.6041
  833MOL0     H 9913   0.241   3.244  10.807  1.7930  1.2765  1.9548
  833MOL0     H 9914   0.050   3.481  10.841  1.8271 -0.1086 -1.2302
  833MOL0     H 9915  -0.017   3.318  10.823  0.5234 -0.5108  1.4354
  833MOL0     H 9916   0.163   3.413  11.044  4.2757 -0.9894 -3.9962
  833MOL0     H 9917   0.140   3.248  11.025 -0.7000  0.4622  3.3962
  833MOL0     H 9918  -0.273   3.420  11.049 -3.1451 -0.2838 -2.8605
  833MOL0     H 9919  -0.456   3.264  11.023 -0.9554 -2.1023  0.7651
  833MOL0     H 9920  -0.535   2.743  11.206  1.3241 -0.9266 -1.6007
  833MOL0     H 9921  -0.677   2.562  11.207  0.3806  1.2429 -0.1060
  833MOL0     H 9922  -0.703   2.286  10.892 -1.5161 -2.3581 -2.7847
  833MOL0     H 9923  -0.816   2.394  10.801 -1.6234  0.7910 -0.0883
  833MOL0     H 9924  -0.938   2.250  11.026 -0.3683  0.5133 -0.0654
  833MOL0     H 9925  -0.869   2.141  10.917 -0.8652 -0.8371  4.2800
  833MOL0     H 9926  -1.012   2.224  10.720 -1.5415 -0.7521  1.0804
  833MOL0     H 9927  -1.065   2.358  10.835  0.7452  0.6381  1.1946
  833MOL0     H 9928  -1.095   2.055  10.862  3.4987  1.5388  0.6167
  833MOL0     H 9929  -1.162   2.174  10.970  4.1473  2.5556  0.4138
  833MOL0     H 9930  -1.325   2.076  10.814  1.2585  0.3323  1.5761
  833MOL0     H 9931  -1.223   2.117  10.679  2.4610  0.0636  0.4458
  833MOL0     H 9932  -1.431   2.246  10.705  0.7270 -1.7986 -1.3378
  833MOL0     H 9933  -1.288   2.352  10.693 -1.8761  0.0155 -1.4487
  833MOL0     H 9934  -1.402   2.262  10.968 -0.1316  0.6402 -0.0061
  833MOL0     H 9935  -1.288   2.398  10.935  1.0882 -1.4474  1.0789
  833MOL0     H 9936  -1.584   2.371  10.854  1.8371 -1.8268 -2.7590
  833MOL0     H 9937  -1.489   2.500  10.800 -1.6201 -1.4886 -2.1426
  833MOL0     H 9938  -0.781   2.618  10.791  2.2771 -0.8819 -0.9855
  833MOL0     H 9939  -0.629   2.821  10.790  1.1522 -0.2434  0.0719
  833MOL0     H 9940  -0.199   2.928  11.009  1.9534 -0.2929  2.6962
  833MOL0     H 9941  -0.010   3.081  11.081 -0.7123  2.3879  3.3421
  833MOL0     H 9942   1.169   3.358  10.656  0.2157 -0.0833  0.5640
  833MOL0     H 9943   1.415   3.365  10.595  0.2532  1.1284  0.0657
  833MOL0     H 9944   1.866   3.359  10.738  1.6968 -1.5540 -0.9534
  833MOL0     H 9945   2.061   3.338  10.643  0.6642 -0.6590 -1.8960
  833MOL0     H 9946   2.226   3.306  10.473  2.3339 -0.1667 -1.9091
  833MOL0     H 9947   2.284   3.416  10.608  2.2805  1.8389 -0.4045
  833MOL0     H 9948   2.461   3.350  10.462 -2.8696 -0.4600  1.3638
  833MOL0     H 9949   2.380   3.443  10.328 -0.8985 -2.3455 -0.2656
  833MOL0     H 9950   2.466   3.551  10.596 -2.3936 -0.8138  0.4406
  833MOL0     H 9951   2.388   3.641  10.461  3.2600  2.1887 -0.6080
  833MOL0     H 9952   2.580   3.639  10.321  0.1725  1.2401  1.5982
  833MOL0     H 9953   2.627   3.695  10.468 -0.6316  1.5205 -1.8574
  833MOL0     H 9954   2.886   3.370  10.437  0.0386  0.3367 -3.2246
  833MOL0     H 9955   1.992   3.662  10.359 -2.0710  0.8819  0.3263
  833MOL0     H 9956   1.779   3.683  10.455 -0.6052 -1.7114 -2.0366
  834MOL0     O 9957   4.247   9.951   4.807 -0.0667 -0.1291 -0.0279
  834MOL0     C 9958   4.212   9.837   4.850 -0.1867 -0.0556 -0.3243
  834MOL0     O 9959   4.087   9.781   4.836  0.3644 -1.0720 -0.4408
  834MOL0     C 9960   3.983   9.856   4.790 -0.1014  0.0632 -0.0060
  834MOL0     C 9961   3.863   9.786   4.773  0.0689 -0.0922  0.0801
  834MOL0     C 9962   3.742   9.835   4.715 -0.6975  0.5335 -0.1521
  834MOL0     C 9963   3.740   9.971   4.679 -0.0668 -0.6172 -0.9111
  834MOL0     O 9964   3.637  10.028   4.609 -0.4737 -0.7542 -0.2630
  834MOL0     C 9965   3.496   9.975   4.628  0.6932 -0.3848 -0.5328
  834MOL0     C 9966   3.391  10.091   4.641 -0.5358  0.1403  0.0425
  834MOL0     C 9967   3.350  10.157   4.511 -0.4599 -0.2183 -0.0988
  834MOL0     C 9968   3.308  10.307   4.545 -0.1098 -0.3776  0.0927
  834MOL0     C 9969   3.242  10.374   4.424 -0.6718  0.4601 -0.3326
  834MOL0     C 9970   3.265  10.527   4.424  0.0532  0.9612  0.1737
  834MOL0     C 9971   3.411  10.573   4.388 -0.2661 -0.8987 -0.5043
  834MOL0     C 9972   3.400  10.720   4.335 -0.6081 -0.3648  0.1952
  834MOL0     N 9973   3.386  10.815   4.446  0.5905 -0.0431  0.2278
  834MOL0     C 9974   3.487  10.878   4.515  0.1212  0.3394 -0.1495
  834MOL0     C 9975   3.433  10.896   4.636  0.2482 -0.4041 -0.1256
  834MOL0     C 9976   3.518  10.932   4.759  0.0024 -0.1259  0.7086
  834MOL0     C 9977   3.465  10.869   4.885 -0.7980 -0.1996 -0.6930
  834MOL0     C 9978   3.527  10.897   5.019  0.4981 -0.6498 -0.1427
  834MOL0     C 9979   3.660  10.828   5.043 -0.5314 -0.1604 -0.2029
  834MOL0     O 9980   3.689  10.837   5.183  0.3839 -0.0590 -0.3949
  834MOL0     C 9981   3.799  10.772   5.231 -0.0167  0.2446 -0.2500
  834MOL0     C 9982   3.809  10.759   5.376  0.0344  0.8308  0.6049
  834MOL0     C 9983   3.922  10.702   5.439  0.0247 -0.6092 -0.0701
  834MOL0     C 9984   4.030  10.649   5.363 -0.4977  0.2328  0.4493
  834MOL0     C 9985   4.145  10.585   5.428 -0.2430  0.1332  0.4507
  834MOL0     O 9986   4.143  10.581   5.564 -0.2000 -0.7360 -1.0307
  834MOL0     C 9987   4.253  10.526   5.629 -0.1780 -0.1753  1.2154
  834MOL0     C 9988   4.302  10.398   5.594  0.2614 -1.3594  0.0459
  834MOL0     C 9989   4.411  10.336   5.659  0.3957 -0.3238  0.5142
  834MOL0     C 9990   4.474  10.406   5.767 -0.6817 -0.0415 -0.7247
  834MOL0     O 9991   4.568  10.338   5.837 -0.2872 -0.3415 -0.6365
  834MOL0     C 9992   4.671  10.401   5.912 -0.2711 -0.3304 -0.3892
  834MOL0     C 9993   4.796  10.313   5.932  0.1233 -0.6158 -0.1268
  834MOL0     C 9994   4.862  10.283   5.801  0.4131  0.4935  0.7763
  834MOL0     C 9995   4.988  10.182   5.815 -0.0690 -0.3508 -0.2162
  834MOL0     C 9996   5.084  10.185   5.694 -0.0290 -0.2517 -0.1283
  834MOL0     C 9997   5.185  10.069   5.692  0.1336  0.2963 -0.1637
  834MOL0     C 9998   5.310  10.092   5.610 -0.0779 -0.0248 -0.8100
  834MOL0     C 9999   5.347   9.978   5.517 -0.4920  0.0292 -0.4383
  834MOL0    Cl10000   5.422   9.848   5.611  0.0016  0.0162  0.0233
  834MOL0     C10001   4.424  10.532   5.804 -0.4766  0.4103  0.2828
  834MOL0     C10002   4.317  10.590   5.734 -0.5676  0.2735 -1.1089
  834MOL0     O10003   4.238  10.534   5.361  0.3292  0.1426  0.4316
  834MOL0     C10004   4.022  10.664   5.224  0.1139  0.2209  0.9839
  834MOL0     C10005   3.907  10.719   5.161 -0.4254  0.3198  0.5070
  834MOL0     N10006   3.296  10.856   4.636  1.1397  0.0334 -0.2416
  834MOL0     N10007   3.267  10.803   4.522  0.0318  1.0009  0.1814
  834MOL0     C10008   3.861  10.045   4.703  0.8195  0.3886 -0.7277
  834MOL0     C10009   3.977   9.993   4.758 -0.6232  0.2635  0.7051
  834MOL0     C10010   4.310   9.740   4.923  0.3543  0.1456 -0.7348
  834MOL0     C10011   4.449   9.763   4.915  0.5247  0.3748  0.0978
  834MOL0     C10012   4.529   9.678   4.986  0.1872 -0.4722 -0.5694
  834MOL0     C10013   4.479   9.576   5.070  0.2979  0.1214  0.7913
  834MOL0     O10014   4.580   9.506   5.134 -0.1791  0.1978 -0.2640
  834MOL0     C10015   4.539   9.408   5.230  0.1137  0.0208  0.4645
  834MOL0     C10016   4.657   9.394   5.336 -0.2489  0.0583 -0.4022
  834MOL0     C10017   4.785   9.356   5.253 -0.2592 -0.7821  0.5437
  834MOL0     C10018   4.905   9.348   5.346  0.7588 -0.2499  0.3703
  834MOL0     C10019   4.944   9.213   5.378 -0.4994 -0.8934 -0.4391
  834MOL0     C10020   4.960   9.094   5.418 -0.3453 -0.5721  0.0110
  834MOL0     C10021   4.342   9.543   5.063 -0.5462  0.1493 -0.2067
  834MOL0     C10022   4.258   9.626   4.994  0.5047  0.0739  0.5016
  834MOL0     H10023   3.855   9.685   4.811 -0.6190 -0.4878 -1.0664
  834MOL0     H10024   3.662   9.765   4.694  0.7233 -1.2918  0.2429
  834MOL0     H10025   3.495   9.920   4.723 -2.3315 -0.7437 -0.6598
  834MOL0     H10026   3.478   9.914   4.539  1.7638  0.9619 -1.7026
  834MOL0     H10027   3.444  10.165   4.701  3.7611 -1.9958 -0.7352
  834MOL0     H10028   3.302  10.048   4.687 -0.3559 -0.9228 -0.5593
  834MOL0     H10029   3.269  10.101   4.462 -1.1975  1.7240 -1.2232
  834MOL0     H10030   3.437  10.161   4.444 -0.4147  1.3040  0.0185
  834MOL0     H10031   3.233  10.311   4.624 -2.1033 -2.8932 -1.5035
  834MOL0     H10032   3.396  10.357   4.588 -0.7766 -1.8836  3.5517
  834MOL0     H10033   3.135  10.350   4.425 -1.3797  3.2501 -0.4814
  834MOL0     H10034   3.293  10.324   4.342 -2.3154 -4.0539  1.0776
  834MOL0     H10035   3.237  10.572   4.519  0.5586  3.8825 -0.9546
  834MOL0     H10036   3.192  10.574   4.358 -0.2222  4.3300  2.6333
  834MOL0     H10037   3.481  10.560   4.471  0.3471  0.8262 -0.7109
  834MOL0     H10038   3.452  10.514   4.306  1.8588  0.4728 -0.4873
  834MOL0     H10039   3.322  10.741   4.261 -1.0689  0.4779  0.9104
  834MOL0     H10040   3.501  10.734   4.293 -1.2975  0.2941 -1.3364
  834MOL0     H10041   3.591  10.896   4.489 -0.1088  0.7675 -0.8286
  834MOL0     H10042   3.524  11.041   4.769  1.5601 -0.0405 -0.6338
  834MOL0     H10043   3.618  10.891   4.740  0.0157  0.5810 -0.9246
  834MOL0     H10044   3.447  10.762   4.869 -0.6332 -0.8391  2.6303
  834MOL0     H10045   3.363  10.906   4.899 -0.8246  0.4479 -2.3431
  834MOL0     H10046   3.533  11.006   5.024  0.2700 -0.6623  0.4925
  834MOL0     H10047   3.458  10.868   5.099  2.1486 -1.3820  1.0888
  834MOL0     H10048   3.738  10.883   4.989  0.9593 -1.5027  0.5208
  834MOL0     H10049   3.650  10.722   5.020  0.6993 -0.6738  1.4266
  834MOL0     H10050   3.720  10.782   5.433 -1.1884 -0.9936 -0.4516
  834MOL0     H10051   3.918  10.694   5.547 -2.2638 -3.3720 -0.2452
  834MOL0     H10052   4.248  10.349   5.515  2.1996 -1.3937 -1.3263
  834MOL0     H10053   4.442  10.234   5.638  0.4683 -0.0047 -1.0478
  834MOL0     H10054   4.623  10.431   6.006 -2.3737  0.2554 -1.5806
  834MOL0     H10055   4.708  10.492   5.864  0.1010  1.2108  2.6228
  834MOL0     H10056   4.774  10.224   5.992 -0.2667 -0.8524 -0.6117
  834MOL0     H10057   4.854  10.378   5.998  0.6327  2.1953 -3.1049
  834MOL0     H10058   4.906  10.376   5.765  1.9558 -1.4387 -2.8257
  834MOL0     H10059   4.803  10.230   5.726 -0.8653  1.4040  1.1098
  834MOL0     H10060   5.055  10.208   5.897 -1.0530 -0.7083  0.7307
  834MOL0     H10061   4.935  10.088   5.835 -1.7073  0.2361 -1.4975
  834MOL0     H10062   5.139  10.279   5.702 -0.1849 -0.2843  2.2132
  834MOL0     H10063   5.032  10.178   5.598  0.5577  0.2150 -0.4823
  834MOL0     H10064   5.131   9.977   5.667 -1.1509 -1.2100  6.3336
  834MOL0     H10065   5.206  10.051   5.798 -0.5209  0.0080 -0.0839
  834MOL0     H10066   5.301  10.184   5.551 -2.9086 -0.3911 -1.0501
  834MOL0     H10067   5.383  10.104   5.691  0.0378  1.9923 -1.1618
  834MOL0     H10068   5.413  10.012   5.437 -3.9336  2.3103 -2.6012
  834MOL0     H10069   5.254   9.951   5.466 -1.3067  0.0010  1.0149
  834MOL0     H10070   4.481  10.588   5.878  1.9548 -1.2387 -0.2293
  834MOL0     H10071   4.281  10.686   5.769  1.3428  0.7590 -0.3554
  834MOL0     H10072   4.095  10.615   5.160 -0.3790 -1.6270  1.7896
  834MOL0     H10073   3.920  10.709   5.054 -2.5249  0.0864  0.2423
  834MOL0     H10074   3.861  10.153   4.699  0.1815  0.5482  1.9605
  834MOL0     H10075   4.054  10.064   4.784 -1.0011  1.6612 -1.6676
  834MOL0     H10076   4.485   9.860   4.881  0.9827  0.6345  1.2730
  834MOL0     H10077   4.636   9.696   4.992  0.5693 -2.5959  0.0885
  834MOL0     H10078   4.528   9.315   5.172  0.9113  0.3166 -0.1777
  834MOL0     H10079   4.446   9.436   5.279 -0.7192 -0.3079 -0.8744
  834MOL0     H10080   4.664   9.481   5.401 -0.3626 -0.0399 -0.2560
  834MOL0     H10081   4.637   9.314   5.408 -0.8871  1.4797  1.0556
  834MOL0     H10082   4.812   9.427   5.174  2.4811 -0.9144  1.2364
  834MOL0     H10083   4.770   9.261   5.202  1.8843 -0.2162 -1.3217
  834MOL0     H10084   4.985   9.405   5.299  0.2942 -0.6454 -0.9336
  834MOL0     H10085   4.872   9.396   5.439 -1.3052 -0.5843 -0.1421
  834MOL0     H10086   4.968   8.993   5.452 -1.1699 -0.2351  1.2782
  834MOL0     H10087   4.300   9.458   5.116 -2.2943  1.2941  0.3254
  834MOL0     H10088   4.157   9.587   4.985 -0.4063  1.5507  3.1066
  835MOL0     O10089   7.835   4.779   6.128 -1.2806  0.6496  0.8587
  835MOL0     C10090   7.921   4.686   6.131  1.0724 -0.2917 -0.2078
  835MOL0     O10091   7.884   4.556   6.131 -0.5837  0.0839 -1.2827
  835MOL0     C10092   7.758   4.527   6.174  0.4359 -0.4172 -0.6832
  835MOL0     C10093   7.659   4.497   6.084 -0.4726 -0.3787  0.3319
  835MOL0     C10094   7.535   4.463   6.132  0.7033 -0.2915  0.1184
  835MOL0     C10095   7.504   4.471   6.265  0.1239  0.0663  0.7340
  835MOL0     O10096   7.382   4.449   6.318 -0.3430 -0.1079  0.5693
  835MOL0     C10097   7.287   4.390   6.232  0.5843  0.7956 -0.0108
  835MOL0     C10098   7.176   4.346   6.322 -0.4515 -1.2459  0.4665
  835MOL0     C10099   7.049   4.309   6.244 -0.9521  0.1916 -1.5458
  835MOL0     C10100   6.946   4.264   6.342  0.2773  0.4948  0.4933
  835MOL0     C10101   6.813   4.246   6.276 -0.5862 -0.4014 -0.7393
  835MOL0     C10102   6.716   4.170   6.376  0.5984  0.0582  0.1637
  835MOL0     C10103   6.588   4.147   6.299  0.3265  0.2645  0.3963
  835MOL0     C10104   6.501   4.264   6.260  0.5064 -0.0612 -1.0735
  835MOL0     N10105   6.371   4.225   6.204 -0.8646  0.1126  0.6395
  835MOL0     C10106   6.303   4.104   6.214 -0.6266 -0.9486 -0.9635
  835MOL0     C10107   6.185   4.121   6.151  0.4968 -0.2145  0.0630
  835MOL0     C10108   6.064   4.030   6.140 -0.4156  0.0182 -0.0029
  835MOL0     C10109   6.060   3.952   6.003 -0.6432  1.0366 -0.4661
  835MOL0     C10110   5.955   3.838   5.999  0.4462 -0.5081 -0.2512
  835MOL0     C10111   5.813   3.884   6.006  0.6757  0.2999  0.2095
  835MOL0     O10112   5.748   3.852   5.884 -0.6102  0.0980 -0.6361
  835MOL0     C10113   5.613   3.868   5.887 -0.8778  0.2583  0.8397
  835MOL0     C10114   5.544   3.821   5.777  0.0199 -0.3701  0.0807
  835MOL0     C10115   5.397   3.835   5.776  0.3256  0.4656  0.4214
  835MOL0     C10116   5.328   3.889   5.881 -0.7442 -0.7337  0.2068
  835MOL0     C10117   5.175   3.891   5.873 -1.0111 -0.1058  0.6041
  835MOL0     O10118   5.115   3.872   5.753 -0.1022 -0.1821  0.0618
  835MOL0     C10119   4.981   3.896   5.751 -0.5746 -1.1217 -0.1246
  835MOL0     C10120   4.928   4.025   5.734  0.3201  0.3778  0.2900
  835MOL0     C10121   4.792   4.040   5.724  0.4654 -0.2438  0.2561
  835MOL0     C10122   4.704   3.928   5.726 -0.7142  0.9340  1.2055
  835MOL0     O10123   4.571   3.952   5.717 -0.3563 -0.3277 -0.2800
  835MOL0     C10124   4.490   3.850   5.652  0.2370  0.2158 -0.3485
  835MOL0     C10125   4.354   3.911   5.614 -0.9958 -0.4987  0.1345
  835MOL0     C10126   4.240   3.808   5.588 -0.0737  0.3365 -0.1367
  835MOL0     C10127   4.103   3.875   5.561 -0.3175 -1.3793  0.3444
  835MOL0     C10128   4.004   3.765   5.522  0.0854 -0.7946  0.1709
  835MOL0     C10129   3.858   3.818   5.490  0.5218  0.3340 -0.1094
  835MOL0     C10130   3.750   3.706   5.507  1.0155  0.0335  0.3669
  835MOL0     C10131   3.787   3.574   5.434  0.1635  0.1288 -0.5722
  835MOL0    Cl10132   3.774   3.589   5.258  0.0120 -0.4540 -0.3129
  835MOL0     C10133   4.756   3.792   5.745 -0.2803 -0.1588 -0.1400
  835MOL0     C10134   4.896   3.791   5.764 -0.4831 -0.4050 -0.2627
  835MOL0     O10135   5.115   3.898   5.988 -0.4527 -0.0423  0.2475
  835MOL0     C10136   5.400   3.932   5.990  0.1383  0.0726 -0.2301
  835MOL0     C10137   5.535   3.920   5.996 -0.8872 -0.0940  0.3453
  835MOL0     N10138   6.180   4.249   6.102  0.7296 -0.0810 -0.3725
  835MOL0     N10139   6.291   4.313   6.143  0.5241 -0.2676 -0.0455
  835MOL0     C10140   7.609   4.511   6.353 -0.4956 -0.5061  0.0605
  835MOL0     C10141   7.738   4.533   6.314  0.4423  0.2348  0.4814
  835MOL0     C10142   8.054   4.744   6.118 -0.8019  0.3653  0.6056
  835MOL0     C10143   8.080   4.879   6.097  0.0456 -0.0603  0.2770
  835MOL0     C10144   8.214   4.924   6.083 -0.6166  0.4509 -0.0888
  835MOL0     C10145   8.326   4.834   6.086  1.0598 -0.6728  0.0580
  835MOL0     O10146   8.452   4.890   6.065  0.2777  0.5827 -0.1429
  835MOL0     C10147   8.562   4.797   6.045 -0.5921 -0.0055 -0.1342
  835MOL0     C10148   8.685   4.877   5.978 -0.1219 -0.1328  0.2311
  835MOL0     C10149   8.688   5.025   6.020 -0.2333 -0.2082 -0.1851
  835MOL0     C10150   8.814   5.100   5.969  1.1965  0.4128 -0.5206
  835MOL0     C10151   8.832   5.234   6.023  0.5469  0.7465 -0.1762
  835MOL0     C10152   8.858   5.345   6.053  0.2060 -0.1845  0.8115
  835MOL0     C10153   8.300   4.704   6.106 -0.2339  0.6733  0.2955
  835MOL0     C10154   8.169   4.658   6.132 -0.0715  0.3016 -0.4406
  835MOL0     H10155   7.673   4.491   5.977 -1.6889 -0.6298  0.1724
  835MOL0     H10156   7.455   4.443   6.062  1.2913  0.6312 -0.8415
  835MOL0     H10157   7.319   4.297   6.183 -2.5170 -0.4485  0.0978
  835MOL0     H10158   7.251   4.460   6.157 -0.1555 -0.1248 -0.5387
  835MOL0     H10159   7.151   4.435   6.381  0.2997  0.4918 -1.6920
  835MOL0     H10160   7.203   4.259   6.382 -0.2325 -0.6915  1.1769
  835MOL0     H10161   7.078   4.224   6.181 -0.0456 -0.5620 -0.1398
  835MOL0     H10162   7.006   4.399   6.198 -0.1836  2.3546  1.6634
  835MOL0     H10163   6.976   4.169   6.388  0.4405 -1.0809 -2.6469
  835MOL0     H10164   6.934   4.336   6.424  1.8022  0.6555  0.6036
  835MOL0     H10165   6.819   4.181   6.188 -1.2042 -1.0652 -0.3014
  835MOL0     H10166   6.782   4.347   6.249  1.0288  0.4130  0.2843
  835MOL0     H10167   6.688   4.229   6.464  0.0577 -0.5099  0.3729
  835MOL0     H10168   6.758   4.076   6.413  2.0583  1.1313  1.3923
  835MOL0     H10169   6.609   4.096   6.205  0.4654  2.9531 -1.1447
  835MOL0     H10170   6.531   4.085   6.368  0.9554 -0.9718 -0.1641
  835MOL0     H10171   6.550   4.339   6.197  0.5443 -1.6118 -2.9772
  835MOL0     H10172   6.492   4.322   6.352  3.4341  2.2311 -2.0766
  835MOL0     H10173   6.348   4.014   6.255 -1.3785 -2.1755 -2.7276
  835MOL0     H10174   5.974   4.088   6.161 -0.0023 -0.1853  2.6811
  835MOL0     H10175   6.069   3.946   6.210  1.6338  1.0448  1.1591
  835MOL0     H10176   6.157   3.903   5.987  0.1465  2.0123  1.0476
  835MOL0     H10177   6.054   4.019   5.917 -1.8987  1.0818 -0.3571
  835MOL0     H10178   5.957   3.774   5.911 -0.8667  1.6961 -1.9847
  835MOL0     H10179   5.977   3.771   6.083  1.8418 -3.3636 -2.7202
  835MOL0     H10180   5.814   3.993   6.010 -1.7119  0.4221 -0.9202
  835MOL0     H10181   5.777   3.839   6.099  1.5724  0.1300  0.4765
  835MOL0     H10182   5.599   3.782   5.692 -1.6294  0.0730 -1.2585
  835MOL0     H10183   5.342   3.793   5.692  2.8645 -2.6529  0.1445
  835MOL0     H10184   5.000   4.106   5.726  0.8874 -0.0255  1.1580
  835MOL0     H10185   4.756   4.142   5.720 -0.0001 -0.3851  0.7655
  835MOL0     H10186   4.484   3.770   5.727  0.3762  0.2052 -0.3486
  835MOL0     H10187   4.536   3.809   5.561  2.2958  2.5031 -0.4386
  835MOL0     H10188   4.356   3.986   5.534  2.0722 -0.7061 -0.1084
  835MOL0     H10189   4.328   3.962   5.708 -1.3185 -0.5239  0.0607
  835MOL0     H10190   4.226   3.734   5.667 -1.7904 -1.2609 -1.8532
  835MOL0     H10191   4.262   3.743   5.503  0.8380  3.1375 -2.2004
  835MOL0     H10192   4.073   3.914   5.658  1.0027  0.2479  0.1404
  835MOL0     H10193   4.114   3.961   5.495 -0.0611 -2.5613 -1.2222
  835MOL0     H10194   3.987   3.696   5.605 -0.5939 -1.1612 -0.2614
  835MOL0     H10195   4.031   3.703   5.437 -0.4776 -2.8604  1.4288
  835MOL0     H10196   3.855   3.860   5.389 -0.4025  0.8800  0.1306
  835MOL0     H10197   3.831   3.905   5.551 -0.6978 -1.4236  1.9785
  835MOL0     H10198   3.735   3.688   5.614 -3.5677 -2.9933 -0.5067
  835MOL0     H10199   3.654   3.742   5.469  1.8618  3.7339  1.2826
  835MOL0     H10200   3.718   3.502   5.477 -0.0204  0.1175 -0.8831
  835MOL0     H10201   3.890   3.544   5.458 -0.6946 -1.7740  0.9624
  835MOL0     H10202   4.698   3.701   5.759 -0.5139  0.1840  1.2427
  835MOL0     H10203   4.960   3.704   5.778  2.3407  1.9524  3.3151
  835MOL0     H10204   5.335   3.973   6.067 -2.5781 -3.2336 -0.4868
  835MOL0     H10205   5.584   3.962   6.083  2.1274 -0.2056 -1.1785
  835MOL0     H10206   7.608   4.518   6.461  1.7830  0.9113  0.0818
  835MOL0     H10207   7.810   4.558   6.390  2.4354 -3.6573  0.0894
  835MOL0     H10208   8.011   4.962   6.087  1.4348  1.1089  0.1089
  835MOL0     H10209   8.243   5.027   6.070  2.9874 -0.4055  0.2534
  835MOL0     H10210   8.540   4.717   5.974 -0.6583 -0.4009  0.3237
  835MOL0     H10211   8.585   4.750   6.141 -1.8052 -2.1050 -0.8103
  835MOL0     H10212   8.781   4.827   5.996  0.9224  0.7905 -2.2361
  835MOL0     H10213   8.665   4.880   5.870 -1.0476 -1.5161  0.3356
  835MOL0     H10214   8.682   5.029   6.130  2.1148 -0.3034  0.0066
  835MOL0     H10215   8.601   5.077   5.980 -1.3695 -3.2496 -1.9531
  835MOL0     H10216   8.900   5.038   5.994  0.7753  0.1277  0.2825
  835MOL0     H10217   8.810   5.105   5.860 -0.1738  2.5788 -0.4492
  835MOL0     H10218   8.873   5.447   6.084  1.8160  0.1075 -0.7586
  835MOL0     H10219   8.378   4.629   6.121  0.4985  1.4585  0.5082
  835MOL0     H10220   8.152   4.555   6.163  1.7791 -0.0188 -0.4208
  836MOL0     O10221   2.077   5.184   2.836 -0.0164  0.1950  0.2828
  836MOL0     C10222   2.157   5.193   2.926 -0.3578 -0.0016 -0.5804
  836MOL0     O10223   2.125   5.180   3.058  0.4821 -0.1479  0.1378
  836MOL0     C10224   1.993   5.204   3.085  0.3271  0.0048 -0.2957
  836MOL0     C10225   1.935   5.335   3.088  0.3871 -0.0686 -0.5323
  836MOL0     C10226   1.798   5.347   3.115 -1.2110 -1.3681 -0.0271
  836MOL0     C10227   1.725   5.238   3.140  0.9825  0.2427 -0.7923
  836MOL0     O10228   1.594   5.260   3.193 -0.3493 -0.3012  0.5667
  836MOL0     C10229   1.480   5.190   3.128  0.7141 -0.3688  0.0602
  836MOL0     C10230   1.342   5.207   3.210 -0.6375 -0.0079 -0.6108
  836MOL0     C10231   1.229   5.111   3.160  0.2988 -0.1331  0.6917
  836MOL0     C10232   1.105   5.146   3.243  0.5965 -0.5106  0.5977
  836MOL0     C10233   0.972   5.079   3.180 -0.7586 -0.0200 -0.5224
  836MOL0     C10234   0.854   5.169   3.214 -0.6732 -0.2833 -0.0500
  836MOL0     C10235   0.717   5.086   3.194 -0.4358  0.8247 -0.4218
  836MOL0     C10236   0.658   5.106   3.051 -0.0062 -0.1864 -0.1808
  836MOL0     N10237   0.530   5.034   3.038 -0.1144 -0.1582  0.0253
  836MOL0     C10238   0.515   4.924   2.957  0.5628 -0.2843 -0.2482
  836MOL0     C10239   0.382   4.891   2.989 -0.1839 -0.6654  1.0681
  836MOL0     C10240   0.297   4.779   2.939 -0.8541  0.1949  0.2030
  836MOL0     C10241   0.251   4.663   3.046 -0.3772 -0.3482  0.4645
  836MOL0     C10242   0.364   4.594   3.131  0.4031 -0.2884  0.0114
  836MOL0     C10243   0.327   4.491   3.238  0.3313  0.7935  0.3042
  836MOL0     O10244   0.222   4.548   3.317 -0.2702 -0.3116  0.7480
  836MOL0     C10245   0.093   4.536   3.283  0.4498  0.3094  0.1740
  836MOL0     C10246   0.004   4.631   3.335  0.5518 -1.0920  0.6103
  836MOL0     C10247  -0.132   4.615   3.324  0.6395 -0.4857  0.4240
  836MOL0     C10248  -0.185   4.508   3.245  0.4342 -0.7797 -0.4132
  836MOL0     C10249  -0.328   4.492   3.216 -0.1214 -0.4675 -0.7877
  836MOL0     O10250  -0.397   4.553   3.319 -0.9001  0.9731  0.1521
  836MOL0     C10251  -0.532   4.527   3.319  0.0075  0.1272  0.7205
  836MOL0     C10252  -0.607   4.629   3.264  0.0618 -0.0923 -0.5664
  836MOL0     C10253  -0.738   4.619   3.246  0.5037 -0.4066  0.4395
  836MOL0     C10254  -0.813   4.505   3.291 -0.2640 -0.3179 -0.5707
  836MOL0     O10255  -0.947   4.471   3.276  0.4461  0.0140 -0.0732
  836MOL0     C10256  -1.010   4.563   3.189  0.3625 -0.5595  0.6324
  836MOL0     C10257  -1.137   4.503   3.137  0.5853 -0.3912  0.0628
  836MOL0     C10258  -1.250   4.498   3.247  0.4125 -0.0419 -0.1938
  836MOL0     C10259  -1.378   4.445   3.176  0.0957  0.8700 -0.8800
  836MOL0     C10260  -1.500   4.444   3.262 -0.7047 -0.4155  0.3711
  836MOL0     C10261  -1.628   4.373   3.198  0.3106  0.2442  0.1706
  836MOL0     C10262  -1.745   4.344   3.291  0.1485 -0.2107  0.9288
  836MOL0     C10263  -1.870   4.290   3.228  0.3690 -0.5925  0.5283
  836MOL0    Cl10264  -1.962   4.228   3.371  0.4535 -0.1189  0.1964
  836MOL0     C10265  -0.737   4.413   3.362  0.7714  0.8312 -0.1154
  836MOL0     C10266  -0.594   4.414   3.364  0.5884 -0.2434  0.2266
  836MOL0     O10267  -0.378   4.444   3.120  0.2853  0.0535  0.1681
  836MOL0     C10268  -0.094   4.415   3.194 -0.3803  0.2270 -0.1819
  836MOL0     C10269   0.044   4.433   3.200  0.4617 -0.0184  0.1795
  836MOL0     N10270   0.331   4.978   3.092 -0.7270 -0.0769  0.2394
  836MOL0     N10271   0.415   5.070   3.109  0.2203  0.4517 -0.2017
  836MOL0     C10272   1.781   5.110   3.146  0.4632 -0.4291  0.2923
  836MOL0     C10273   1.918   5.089   3.121 -0.1548 -0.6877  0.0810
  836MOL0     C10274   2.298   5.187   2.881 -0.5771 -0.5863 -0.0693
  836MOL0     C10275   2.338   5.239   2.760 -0.0230 -0.0267 -0.5739
  836MOL0     C10276   2.470   5.234   2.722  0.1128 -0.9458  0.6543
  836MOL0     C10277   2.570   5.186   2.796 -0.1216  1.1628 -0.2358
  836MOL0     O10278   2.699   5.194   2.746 -0.3441  0.3195  0.3517
  836MOL0     C10279   2.813   5.142   2.816 -0.7576  0.3130  0.0454
  836MOL0     C10280   2.934   5.164   2.729  0.0526 -0.3970  0.9888
  836MOL0     C10281   3.060   5.099   2.781 -0.7261  0.3170  0.4888
  836MOL0     C10282   3.170   5.132   2.680 -0.1995  0.0905 -0.6315
  836MOL0     C10283   3.301   5.073   2.717 -0.5676  0.1499 -0.0300
  836MOL0     C10284   3.415   5.023   2.746  0.2767  0.7147  0.0182
  836MOL0     C10285   2.528   5.128   2.922  0.5384 -0.0139 -0.2542
  836MOL0     C10286   2.396   5.136   2.962  0.2767 -0.2522 -1.0668
  836MOL0     H10287   1.997   5.418   3.056  0.1179  0.0179 -0.8377
  836MOL0     H10288   1.755   5.447   3.116  1.6458  0.1056 -3.4451
  836MOL0     H10289   1.496   5.082   3.129  1.4541 -0.2772  1.8912
  836MOL0     H10290   1.467   5.228   3.026  0.2289  0.3055  0.3664
  836MOL0     H10291   1.307   5.309   3.226  0.9271  0.4567  0.0556
  836MOL0     H10292   1.366   5.179   3.313 -3.3002  1.9003  0.6475
  836MOL0     H10293   1.254   5.009   3.191  0.5983 -0.0094  0.8542
  836MOL0     H10294   1.208   5.128   3.054  1.0375  0.1729  0.5907
  836MOL0     H10295   1.114   5.121   3.349  1.7025 -1.5546  0.2851
  836MOL0     H10296   1.096   5.253   3.224 -1.3504 -0.6884  0.3216
  836MOL0     H10297   0.960   4.977   3.218 -1.7113 -0.1088 -1.0420
  836MOL0     H10298   0.985   5.075   3.072 -1.3987 -3.3350 -0.5768
  836MOL0     H10299   0.861   5.255   3.147 -4.2244  0.1060 -0.1496
  836MOL0     H10300   0.862   5.209   3.315  0.2968  0.8255 -0.5551
  836MOL0     H10301   0.733   4.979   3.207 -1.1868  0.6315 -1.0279
  836MOL0     H10302   0.644   5.119   3.268  0.4604  2.4451 -0.2183
  836MOL0     H10303   0.722   5.072   2.970 -1.5279 -0.4454 -1.3079
  836MOL0     H10304   0.635   5.212   3.035 -0.6971 -0.5950 -2.0547
  836MOL0     H10305   0.600   4.901   2.894  0.5977 -0.6039 -0.0864
  836MOL0     H10306   0.365   4.728   2.871 -0.7616 -0.4029  0.7433
  836MOL0     H10307   0.215   4.821   2.879 -0.7831 -0.1008 -0.1044
  836MOL0     H10308   0.193   4.578   3.009  0.4159  0.6572 -3.6176
  836MOL0     H10309   0.193   4.730   3.110 -0.4665 -1.8752  2.0458
  836MOL0     H10310   0.444   4.558   3.065 -0.0961 -1.1351 -0.1453
  836MOL0     H10311   0.418   4.675   3.182  1.0289 -0.6028 -0.1430
  836MOL0     H10312   0.414   4.491   3.304  1.6656  2.1853 -1.3299
  836MOL0     H10313   0.304   4.397   3.187  1.0719  0.4995  0.4956
  836MOL0     H10314   0.036   4.723   3.384  2.2310 -1.1524 -0.2822
  836MOL0     H10315  -0.201   4.688   3.366 -1.7475 -2.1276 -0.4290
  836MOL0     H10316  -0.561   4.710   3.207 -1.7682 -2.5427 -6.2682
  836MOL0     H10317  -0.779   4.706   3.195  2.0003  0.2634  0.3516
  836MOL0     H10318  -0.947   4.590   3.104  0.0815 -0.8508  0.3245
  836MOL0     H10319  -1.049   4.651   3.240 -1.0263 -1.9931  2.1658
  836MOL0     H10320  -1.111   4.414   3.078 -0.4238 -0.8706  0.3159
  836MOL0     H10321  -1.171   4.584   3.072 -3.4704  0.4066  2.8063
  836MOL0     H10322  -1.271   4.599   3.283  1.6964 -0.0010  0.4769
  836MOL0     H10323  -1.217   4.440   3.334  0.0954 -2.1911 -1.4376
  836MOL0     H10324  -1.398   4.490   3.078 -0.2772  2.6971 -0.0163
  836MOL0     H10325  -1.346   4.345   3.147 -0.8297  0.9646 -2.3805
  836MOL0     H10326  -1.531   4.545   3.289 -0.3741 -0.2319  0.0645
  836MOL0     H10327  -1.470   4.407   3.361  1.1885 -0.9031 -0.3410
  836MOL0     H10328  -1.599   4.275   3.157 -1.3640  1.5890 -5.0914
  836MOL0     H10329  -1.654   4.426   3.106  0.0225 -0.9671 -0.4680
  836MOL0     H10330  -1.723   4.262   3.360  0.0119  0.1136  1.3691
  836MOL0     H10331  -1.777   4.431   3.350 -2.2891  1.4662 -2.5214
  836MOL0     H10332  -1.839   4.208   3.164  0.5113  0.0113 -0.1949
  836MOL0     H10333  -1.926   4.367   3.174  1.6128  2.0159  2.6514
  836MOL0     H10334  -0.795   4.326   3.391 -0.9113  0.5771 -3.6954
  836MOL0     H10335  -0.544   4.331   3.412 -0.3054 -0.4045  0.9062
  836MOL0     H10336  -0.136   4.322   3.156 -0.3973  1.9055 -4.8852
  836MOL0     H10337   0.100   4.345   3.170 -3.0679 -2.2171 -0.4663
  836MOL0     H10338   1.726   5.023   3.179  4.9396 -2.8475  2.2441
  836MOL0     H10339   1.961   4.990   3.134  1.8274  0.2909  1.6134
  836MOL0     H10340   2.260   5.288   2.703 -1.2977  1.2252  2.0657
  836MOL0     H10341   2.504   5.290   2.636  1.1758 -0.7915  1.1542
  836MOL0     H10342   2.806   5.034   2.826  0.5205 -0.0904 -2.6471
  836MOL0     H10343   2.816   5.188   2.916 -1.1784  0.3869  0.0281
  836MOL0     H10344   2.912   5.128   2.628  0.8012  0.8156  0.3712
  836MOL0     H10345   2.959   5.269   2.714  2.4592 -1.1507 -0.9104
  836MOL0     H10346   3.032   4.994   2.777 -3.5768  0.9223  1.7651
  836MOL0     H10347   3.084   5.139   2.881  0.7031  1.9446 -0.4448
  836MOL0     H10348   3.148   5.083   2.584 -0.1654 -0.0899 -0.5461
  836MOL0     H10349   3.180   5.240   2.662 -0.3649  0.4650  1.3549
  836MOL0     H10350   3.507   4.970   2.764 -0.5092 -1.0725 -0.9091
  836MOL0     H10351   2.603   5.086   2.988 -0.8179 -2.3596 -0.1010
  836MOL0     H10352   2.367   5.081   3.051  1.1328  1.5647  0.3914
  837MOL0     O10353   0.676   6.028   1.291 -0.1012 -0.8166 -0.5685
  837MOL0     C10354   0.716   6.124   1.229 -0.2801 -0.6765  0.1290
  837MOL0     O10355   0.641   6.213   1.166  0.6933 -0.2627 -0.4559
  837MOL0     C10356   0.504   6.195   1.159 -0.2267 -0.6417  0.1821
  837MOL0     C10357   0.411   6.284   1.216 -0.1248  1.0072 -0.3653
  837MOL0     C10358   0.272   6.270   1.198  0.1545  0.8870  0.1390
  837MOL0     C10359   0.221   6.167   1.116 -0.1950  0.1454  0.7459
  837MOL0     O10360   0.089   6.164   1.089 -0.6395  0.2235 -0.9205
  837MOL0     C10361   0.032   6.033   1.075  0.2670 -0.9952  0.5019
  837MOL0     C10362  -0.107   6.027   1.132  0.5396  0.4315 -0.1661
  837MOL0     C10363  -0.201   6.135   1.069 -0.4309  0.2960  0.1347
  837MOL0     C10364  -0.336   6.098   1.129 -1.0464  0.4261 -0.8169
  837MOL0     C10365  -0.448   6.190   1.085  0.2040 -0.3221  0.3075
  837MOL0     C10366  -0.480   6.171   0.935  0.0715  0.0124 -0.3558
  837MOL0     C10367  -0.593   6.259   0.890  0.3209 -0.5509 -1.1065
  837MOL0     C10368  -0.732   6.229   0.949 -0.3116  0.2202 -0.1826
  837MOL0     N10369  -0.841   6.324   0.913  0.3949 -0.3124  0.4811
  837MOL0     C10370  -0.874   6.439   0.974 -0.3399 -0.7125 -1.1428
  837MOL0     C10371  -0.994   6.492   0.923 -0.5777  0.9092 -0.0566
  837MOL0     C10372  -1.070   6.614   0.979 -0.5190 -0.2373 -0.1500
  837MOL0     C10373  -1.208   6.588   1.033  1.0476  0.2489  0.0121
  837MOL0     C10374  -1.311   6.528   0.935  0.0618  0.5779 -0.2773
  837MOL0     C10375  -1.442   6.515   0.996 -0.5817  0.7840 -0.1672
  837MOL0     O10376  -1.516   6.442   0.894  0.9118  0.0194 -0.3909
  837MOL0     C10377  -1.650   6.429   0.918  0.1357  0.1888 -0.1795
  837MOL0     C10378  -1.716   6.361   0.822 -0.0401 -0.2849 -0.3093
  837MOL0     C10379  -1.856   6.346   0.828  0.5024  0.0520  0.2167
  837MOL0     C10380  -1.928   6.409   0.932  0.0008  0.1795  0.2182
  837MOL0     C10381  -2.077   6.399   0.936 -0.1056  0.1678  0.0041
  837MOL0     O10382  -2.154   6.502   0.996 -0.5772  0.2227  0.1370
  837MOL0     C10383  -2.289   6.490   0.995  0.0787 -1.3375 -0.1397
  837MOL0     C10384  -2.363   6.377   1.010 -0.5565  0.4110 -0.1891
  837MOL0     C10385  -2.501   6.380   0.989  0.4337  0.1019  0.4362
  837MOL0     C10386  -2.575   6.497   0.957  0.1789  0.4220 -1.2903
  837MOL0     O10387  -2.713   6.490   0.939 -0.3238  0.8990  0.0321
  837MOL0     C10388  -2.779   6.598   0.863  0.6106  1.3017 -0.5482
  837MOL0     C10389  -2.907   6.536   0.813  0.2092  1.0496  0.3673
  837MOL0     C10390  -2.981   6.452   0.919  0.9546  0.0173  0.0066
  837MOL0     C10391  -3.006   6.527   1.045  0.0956  0.1446 -0.2740
  837MOL0     C10392  -3.131   6.472   1.120  0.3991 -0.0283  0.3272
  837MOL0     C10393  -3.226   6.583   1.171  0.8350  0.1936  0.5067
  837MOL0     C10394  -3.325   6.544   1.284  0.5307  0.1142 -0.6618
  837MOL0     C10395  -3.476   6.544   1.239 -0.6719 -0.4241 -0.6046
  837MOL0    Cl10396  -3.523   6.394   1.158  0.1552  0.5644  0.3302
  837MOL0     C10397  -2.498   6.615   0.949 -0.3057  0.6005 -0.1660
  837MOL0     C10398  -2.355   6.608   0.963 -0.2867 -0.0396  0.5420
  837MOL0     O10399  -2.119   6.298   0.884 -0.9000 -0.2122 -0.7678
  837MOL0     C10400  -1.859   6.477   1.030  0.5840  0.0604 -0.4839
  837MOL0     C10401  -1.723   6.474   1.028 -0.9022  0.5428 -0.6122
  837MOL0     N10402  -1.038   6.394   0.835 -1.1630  0.2361  0.0799
  837MOL0     N10403  -0.950   6.295   0.837 -0.3061  0.2753 -0.0577
  837MOL0     C10404   0.314   6.078   1.061  0.4276  0.4343 -0.9810
  837MOL0     C10405   0.449   6.096   1.087 -0.0709  0.3343 -0.1191
  837MOL0     C10406   0.860   6.146   1.206  0.1231 -0.0311 -0.7315
  837MOL0     C10407   0.908   6.237   1.110  0.0301  0.5663 -0.0624
  837MOL0     C10408   1.047   6.254   1.082 -0.5360 -0.3099 -0.8152
  837MOL0     C10409   1.142   6.193   1.171  0.5467 -0.4042 -0.8192
  837MOL0     O10410   1.278   6.216   1.164  0.5497 -0.5250  0.2624
  837MOL0     C10411   1.313   6.337   1.227  0.6985  0.0637 -0.0979
  837MOL0     C10412   1.391   6.302   1.353 -0.1143  0.0104  0.9346
  837MOL0     C10413   1.455   6.434   1.400 -1.5432  0.2201 -0.3441
  837MOL0     C10414   1.574   6.439   1.493 -0.0665  0.0344  0.2477
  837MOL0     C10415   1.557   6.364   1.612  0.3284 -0.7746 -0.2679
  837MOL0     C10416   1.542   6.307   1.722 -0.7498 -0.1555 -0.2755
  837MOL0     C10417   1.093   6.105   1.267 -0.1793  0.5931  0.2009
  837MOL0     C10418   0.956   6.078   1.282  0.9656  0.1646 -0.2615
  837MOL0     H10419   0.435   6.367   1.281  0.6032  2.0706 -1.9251
  837MOL0     H10420   0.197   6.339   1.236  2.5181  3.8336 -0.1481
  837MOL0     H10421   0.091   5.955   1.125  0.0523 -2.1073 -0.9124
  837MOL0     H10422   0.030   6.016   0.967 -0.1438 -1.6764  0.6111
  837MOL0     H10423  -0.103   6.040   1.240  1.3122 -0.6941 -0.0375
  837MOL0     H10424  -0.152   5.929   1.112 -3.5503  2.0689 -0.0309
  837MOL0     H10425  -0.202   6.137   0.960 -2.8976  1.8732  0.1179
  837MOL0     H10426  -0.175   6.237   1.096  0.7336 -0.2257  1.0374
  837MOL0     H10427  -0.374   6.000   1.101  0.4128  0.2905 -2.5022
  837MOL0     H10428  -0.334   6.087   1.238  0.6139  0.8361 -0.7780
  837MOL0     H10429  -0.423   6.296   1.090  0.1634 -0.3171  0.4079
  837MOL0     H10430  -0.535   6.171   1.149 -1.8868  2.6227 -1.3786
  837MOL0     H10431  -0.495   6.068   0.900 -5.5411  0.6236 -0.6210
  837MOL0     H10432  -0.389   6.201   0.882  2.7007 -4.3646  1.0671
  837MOL0     H10433  -0.571   6.361   0.925  0.2344 -1.3341  1.4544
  837MOL0     H10434  -0.593   6.269   0.781 -0.5826 -1.7371 -1.2274
  837MOL0     H10435  -0.728   6.223   1.058  0.0549 -1.4634 -0.2644
  837MOL0     H10436  -0.768   6.129   0.922 -1.9391  0.8167 -0.3116
  837MOL0     H10437  -0.808   6.473   1.053 -0.9001 -2.1946  0.0287
  837MOL0     H10438  -1.085   6.690   0.903  1.0782  0.9758  0.6753
  837MOL0     H10439  -1.014   6.663   1.060 -1.3728  0.4402  0.0437
  837MOL0     H10440  -1.249   6.683   1.067 -0.4887 -0.2196 -0.4810
  837MOL0     H10441  -1.198   6.512   1.112  1.4445  0.8855  0.5834
  837MOL0     H10442  -1.319   6.593   0.847  0.9333  3.3562  1.5765
  837MOL0     H10443  -1.275   6.431   0.901 -0.8372  0.9420 -2.4914
  837MOL0     H10444  -1.506   6.602   1.012  0.2833  1.4453 -0.3028
  837MOL0     H10445  -1.433   6.457   1.088 -1.8386  1.4318  0.3912
  837MOL0     H10446  -1.653   6.316   0.746 -0.5450 -3.0089  0.7555
  837MOL0     H10447  -1.903   6.280   0.755 -0.3599 -0.6214  1.3523
  837MOL0     H10448  -2.326   6.275   1.014  0.2149  0.7446  2.2281
  837MOL0     H10449  -2.560   6.289   0.981 -3.3030  2.3115  0.2855
  837MOL0     H10450  -2.719   6.624   0.776 -0.3419 -0.1687 -1.6914
  837MOL0     H10451  -2.806   6.679   0.932 -1.1879  0.1217  0.2105
  837MOL0     H10452  -2.870   6.457   0.746 -1.7836 -2.4293  2.9949
  837MOL0     H10453  -2.975   6.596   0.751 -0.0024  0.4299 -0.0170
  837MOL0     H10454  -2.924   6.361   0.942  0.5951  0.1479  1.5086
  837MOL0     H10455  -3.072   6.416   0.871  1.6199  0.8189 -1.9234
  837MOL0     H10456  -2.917   6.523   1.108 -1.0927 -2.8780  1.4475
  837MOL0     H10457  -3.026   6.633   1.028 -3.4871 -0.2167  0.9035
  837MOL0     H10458  -3.090   6.410   1.201  2.3059  0.7362 -0.0276
  837MOL0     H10459  -3.180   6.396   1.059  1.4325 -0.4756  0.0353
  837MOL0     H10460  -3.293   6.625   1.095  0.8808  0.1301  0.4316
  837MOL0     H10461  -3.151   6.657   1.201  0.4626  1.7904 -2.1896
  837MOL0     H10462  -3.293   6.451   1.331  2.3867  1.7658  1.5857
  837MOL0     H10463  -3.312   6.617   1.365 -0.2393 -0.1905 -0.2508
  837MOL0     H10464  -3.484   6.634   1.177 -1.5326 -0.0888 -0.0285
  837MOL0     H10465  -3.541   6.570   1.323 -0.4162 -2.6856  0.3734
  837MOL0     H10466  -2.542   6.709   0.919 -1.4089 -0.8261 -3.4921
  837MOL0     H10467  -2.310   6.706   0.950 -1.0923  0.2827  0.1838
  837MOL0     H10468  -1.906   6.539   1.106 -0.2736  0.3864 -1.2680
  837MOL0     H10469  -1.664   6.510   1.112  0.6020  0.4778 -1.5953
  837MOL0     H10470   0.276   6.009   0.986 -1.7040 -0.2440  0.6207
  837MOL0     H10471   0.513   6.025   1.035 -1.0012 -1.0717  0.5875
  837MOL0     H10472   0.851   6.287   1.032  0.8796 -0.6273 -1.5166
  837MOL0     H10473   1.083   6.317   1.001  1.7374 -2.3038 -1.4856
  837MOL0     H10474   1.221   6.394   1.246  0.3150  0.6944 -3.3759
  837MOL0     H10475   1.377   6.392   1.158  2.1080 -1.8011 -0.3658
  837MOL0     H10476   1.331   6.254   1.430  0.0530 -1.5235  0.1341
  837MOL0     H10477   1.470   6.230   1.329 -0.1636  0.5154 -0.9441
  837MOL0     H10478   1.373   6.497   1.437  0.3367  2.2716  0.5275
  837MOL0     H10479   1.494   6.485   1.312  1.2507  1.4120  1.4740
  837MOL0     H10480   1.661   6.408   1.436 -1.4339 -1.2716 -1.2327
  837MOL0     H10481   1.579   6.544   1.526 -1.9478 -0.5313  2.5937
  837MOL0     H10482   1.508   6.258   1.811 -1.2856 -1.1557 -1.0179
  837MOL0     H10483   1.168   6.065   1.334  1.0206  2.0125 -0.2393
  837MOL0     H10484   0.913   6.006   1.351  0.8688  1.1890  0.7636
  838MOL0     O10485   3.083   1.783   6.233 -0.1096 -0.2489 -0.2722
  838MOL0     C10486   3.120   1.736   6.337 -0.3685 -0.9798  0.1862
  838MOL0     O10487   3.034   1.687   6.427  0.5856  0.0605  0.2677
  838MOL0     C10488   2.897   1.673   6.395 -0.4872 -0.3650  0.3857
  838MOL0     C10489   2.809   1.683   6.500 -0.1772  0.4787  0.6863
  838MOL0     C10490   2.672   1.671   6.483  0.1857  0.6440 -0.0780
  838MOL0     C10491   2.615   1.661   6.357  0.4550 -0.0341 -0.0689
  838MOL0     O10492   2.478   1.655   6.339  0.0835  0.3722  0.0008
  838MOL0     C10493   2.385   1.650   6.446 -0.1786 -0.2646  0.6776
  838MOL0     C10494   2.245   1.667   6.377 -1.0350 -0.0540  0.3443
  838MOL0     C10495   2.132   1.598   6.457  0.5073  0.1506 -0.1019
  838MOL0     C10496   2.004   1.620   6.375  0.4957  1.1560  0.2551
  838MOL0     C10497   1.873   1.590   6.458 -0.5017 -0.2265 -0.1176
  838MOL0     C10498   1.760   1.627   6.368 -0.0381  0.1927  0.0008
  838MOL0     C10499   1.628   1.600   6.431 -0.3709 -0.3997 -0.8769
  838MOL0     C10500   1.515   1.620   6.326  0.3441  0.4512 -0.1457
  838MOL0     N10501   1.388   1.600   6.392  0.5139  0.3506 -0.3791
  838MOL0     C10502   1.307   1.698   6.439 -0.2220 -0.2297  1.0327
  838MOL0     C10503   1.191   1.637   6.485 -0.3804 -0.4686 -0.2470
  838MOL0     C10504   1.075   1.697   6.554 -0.2401 -0.0498  0.1740
  838MOL0     C10505   0.938   1.650   6.488 -0.8054  0.2282 -0.1574
  838MOL0     C10506   0.914   1.503   6.524  0.0481 -0.9671 -0.2789
  838MOL0     C10507   0.761   1.473   6.538  0.3069 -0.1100  0.3097
  838MOL0     O10508   0.702   1.528   6.421  0.6977  0.2847  0.1140
  838MOL0     C10509   0.565   1.514   6.404 -0.4681 -0.0056 -0.4159
  838MOL0     C10510   0.478   1.455   6.492  0.0895  0.1060  0.0731
  838MOL0     C10511   0.341   1.435   6.453 -0.5918 -0.4252  0.4784
  838MOL0     C10512   0.298   1.483   6.333  0.0603 -0.8120  0.9539
  838MOL0     C10513   0.144   1.486   6.317 -0.0009  0.0039  0.0020
  838MOL0     O10514   0.054   1.402   6.389 -0.0264 -0.2368  0.5781
  838MOL0     C10515  -0.085   1.407   6.380  0.2965  0.3729 -0.4320
  838MOL0     C10516  -0.155   1.295   6.432 -1.4687  0.8685  0.1255
  838MOL0     C10517  -0.294   1.301   6.448  0.2738  0.8201  0.3754
  838MOL0     C10518  -0.373   1.407   6.398  0.2932  0.0504 -0.5785
  838MOL0     O10519  -0.509   1.405   6.407 -0.3381 -0.1557 -0.0450
  838MOL0     C10520  -0.582   1.291   6.459 -0.2012  0.1730  0.0484
  838MOL0     C10521  -0.733   1.313   6.435 -0.3071  0.6069 -0.3002
  838MOL0     C10522  -0.820   1.216   6.510 -0.2924 -0.0000 -0.1813
  838MOL0     C10523  -0.787   1.070   6.475  0.7793  0.6084  0.1158
  838MOL0     C10524  -0.867   1.020   6.343 -0.5791  0.0898 -0.2065
  838MOL0     C10525  -0.824   0.877   6.312  0.2491 -0.0319 -0.1303
  838MOL0     C10526  -0.858   0.850   6.163  0.7493 -0.4145 -0.8859
  838MOL0     C10527  -0.835   0.704   6.122 -0.0519  0.1240 -0.1115
  838MOL0    Cl10528  -0.818   0.689   5.942 -0.0415 -0.0370  0.1399
  838MOL0     C10529  -0.304   1.511   6.344 -0.3787  1.0751  0.0398
  838MOL0     C10530  -0.162   1.515   6.343 -0.5174 -0.8641 -0.5592
  838MOL0     O10531   0.111   1.563   6.228 -0.3873  0.2310  0.0409
  838MOL0     C10532   0.387   1.542   6.246 -0.2725 -0.5375 -0.0931
  838MOL0     C10533   0.517   1.559   6.283 -0.1117  0.5955  0.4613
  838MOL0     N10534   1.210   1.497   6.474 -0.1700 -0.4310  0.2838
  838MOL0     N10535   1.330   1.478   6.420 -0.5008  0.3209  0.8562
  838MOL0     C10536   2.702   1.651   6.251  0.0998 -0.2654  1.1770
  838MOL0     C10537   2.839   1.656   6.262  0.0215  0.3667 -0.7537
  838MOL0     C10538   3.250   1.764   6.380 -0.5678  0.1633 -0.7106
  838MOL0     C10539   3.346   1.796   6.283 -0.7476  1.7065 -0.0729
  838MOL0     C10540   3.479   1.820   6.321 -0.4143 -0.1523  0.2939
  838MOL0     C10541   3.514   1.798   6.454  0.5944 -1.2853  0.2528
  838MOL0     O10542   3.641   1.819   6.496  0.2017  0.4010 -0.9018
  838MOL0     C10543   3.733   1.889   6.405  0.3299  0.1173 -0.4188
  838MOL0     C10544   3.868   1.908   6.473 -0.4519  0.1147 -0.4643
  838MOL0     C10545   3.957   1.994   6.394 -0.9552 -0.0278 -0.0695
  838MOL0     C10546   4.009   1.926   6.263  0.2023  0.5062  0.2639
  838MOL0     C10547   4.107   2.005   6.189 -0.1049 -0.2406 -0.2028
  838MOL0     C10548   4.169   2.072   6.105  0.5847  0.1974  0.2038
  838MOL0     C10549   3.421   1.758   6.547  0.6469 -0.0626 -0.9313
  838MOL0     C10550   3.292   1.746   6.516 -0.0178 -1.1093  0.0183
  838MOL0     H10551   2.847   1.683   6.602  0.3449 -1.1592  0.5198
  838MOL0     H10552   2.603   1.662   6.566 -1.5036 -1.1616 -1.5706
  838MOL0     H10553   2.389   1.737   6.512  0.4729  1.5129 -1.6024
  838MOL0     H10554   2.387   1.560   6.509 -3.0490 -1.7404 -1.0907
  838MOL0     H10555   2.251   1.625   6.276 -2.8719  3.4402 -1.4070
  838MOL0     H10556   2.230   1.775   6.368  0.0504  0.1324  0.7022
  838MOL0     H10557   2.111   1.651   6.551  0.8384  0.8344 -0.4113
  838MOL0     H10558   2.153   1.491   6.462 -2.5458 -0.6331 -1.4121
  838MOL0     H10559   2.001   1.724   6.341  3.4492  0.7381 -1.6506
  838MOL0     H10560   2.013   1.557   6.286  2.1345  0.2441  1.0263
  838MOL0     H10561   1.875   1.633   6.559 -0.1682  0.1304 -0.2736
  838MOL0     H10562   1.865   1.483   6.478 -0.6342  0.0360  1.3292
  838MOL0     H10563   1.768   1.570   6.275  0.8962 -0.5061  0.4924
  838MOL0     H10564   1.765   1.733   6.340  1.0899 -0.0682 -0.8891
  838MOL0     H10565   1.630   1.504   6.482  0.8079 -0.7140 -1.4838
  838MOL0     H10566   1.610   1.679   6.505  0.3260  1.3642 -2.5043
  838MOL0     H10567   1.525   1.556   6.238 -4.6960  0.1957 -0.8142
  838MOL0     H10568   1.511   1.725   6.296 -0.3795  1.2258  2.3847
  838MOL0     H10569   1.318   1.806   6.439 -1.8085 -0.0375  0.1507
  838MOL0     H10570   1.092   1.805   6.556  2.8168 -0.4358  0.1938
  838MOL0     H10571   1.068   1.664   6.658 -1.0704 -1.3154 -0.2670
  838MOL0     H10572   0.949   1.649   6.379  1.7349 -0.4700  0.0295
  838MOL0     H10573   0.859   1.715   6.526  1.0792  1.9904  0.9980
  838MOL0     H10574   0.945   1.443   6.438 -1.0953 -1.7255 -0.1872
  838MOL0     H10575   0.969   1.481   6.616  2.7897  0.3500 -1.4803
  838MOL0     H10576   0.714   1.502   6.633 -2.9642 -1.7965 -0.6348
  838MOL0     H10577   0.749   1.365   6.541 -0.5880 -0.0169  0.4673
  838MOL0     H10578   0.504   1.443   6.597  2.7290 -1.5043 -0.6959
  838MOL0     H10579   0.279   1.399   6.534 -0.5774 -2.3998 -0.3363
  838MOL0     H10580  -0.102   1.209   6.473 -1.7407 -0.1231 -1.4929
  838MOL0     H10581  -0.343   1.215   6.494 -3.7549  1.5423 -2.1072
  838MOL0     H10582  -0.562   1.278   6.565 -0.9516  0.9842  0.3007
  838MOL0     H10583  -0.557   1.209   6.391 -3.3656  0.7866 -2.1021
  838MOL0     H10584  -0.744   1.303   6.327  1.6413  0.9305 -0.5777
  838MOL0     H10585  -0.767   1.410   6.474 -1.1863  0.6907 -1.2426
  838MOL0     H10586  -0.924   1.232   6.480 -0.1904  1.1779  0.0339
  838MOL0     H10587  -0.820   1.234   6.617  0.3040  1.1393 -0.3545
  838MOL0     H10588  -0.680   1.050   6.467  0.6339 -1.5659  2.4358
  838MOL0     H10589  -0.815   1.008   6.560  0.8395  1.5162  0.8094
  838MOL0     H10590  -0.844   1.076   6.252  2.5312 -0.0139  0.4210
  838MOL0     H10591  -0.975   1.015   6.361 -0.8653  1.4609 -1.3475
  838MOL0     H10592  -0.875   0.813   6.385  0.8008 -0.8913 -0.4934
  838MOL0     H10593  -0.718   0.871   6.338  0.1392 -0.6107  0.1940
  838MOL0     H10594  -0.965   0.867   6.155  0.1813 -1.1447  2.9573
  838MOL0     H10595  -0.793   0.922   6.112 -1.9030  1.8207 -1.3500
  838MOL0     H10596  -0.919   0.640   6.150 -0.8154 -0.8008 -3.9440
  838MOL0     H10597  -0.745   0.670   6.174 -0.7206 -1.7224 -0.1095
  838MOL0     H10598  -0.372   1.587   6.307 -1.7841 -0.6868 -1.1918
  838MOL0     H10599  -0.107   1.602   6.309  0.1369 -0.7336  0.7774
  838MOL0     H10600   0.347   1.577   6.152  0.5310  4.1669  1.0296
  838MOL0     H10601   0.592   1.604   6.218 -0.8983 -0.2170 -1.0584
  838MOL0     H10602   2.658   1.633   6.153  2.3765  0.5207 -0.0658
  838MOL0     H10603   2.901   1.654   6.172  0.2572 -0.6439 -0.5785
  838MOL0     H10604   3.314   1.795   6.180  2.3627  1.6147 -1.1370
  838MOL0     H10605   3.547   1.847   6.241 -0.8276  1.1639  0.3592
  838MOL0     H10606   3.695   1.988   6.375  2.1190  0.8105 -0.5142
  838MOL0     H10607   3.754   1.827   6.318 -1.3558 -0.6622 -0.3092
  838MOL0     H10608   3.861   1.940   6.578 -0.0910 -1.3691  0.0439
  838MOL0     H10609   3.913   1.809   6.488  3.7081  1.7522 -0.5399
  838MOL0     H10610   4.051   2.017   6.445 -0.8499  0.1624 -0.3509
  838MOL0     H10611   3.897   2.083   6.372 -2.8249 -0.8186  1.4778
  838MOL0     H10612   4.051   1.828   6.285  0.9102  1.3022  2.8452
  838MOL0     H10613   3.925   1.906   6.196  0.5416 -0.3086  0.0788
  838MOL0     H10614   4.199   2.135   6.023  0.3575 -1.4257 -1.1723
  838MOL0     H10615   3.459   1.741   6.647 -0.2480  3.2356  0.1012
  838MOL0     H10616   3.221   1.718   6.593  0.5739 -3.6879 -0.2745
  839MOL0     O10617   5.880  10.316   1.469  0.1559  0.6187  0.5968
  839MOL0     C10618   5.896  10.395   1.375  0.3796  0.3421 -0.3969
  839MOL0     O10619   5.797  10.436   1.292  0.9457 -0.2386  0.7380
  839MOL0     C10620   5.673  10.371   1.283 -0.1780 -0.3532  0.0546
  839MOL0     C10621   5.553  10.437   1.305 -0.1459  0.1948  0.1778
  839MOL0     C10622   5.428  10.378   1.309 -0.1890 -0.3393 -0.0626
  839MOL0     C10623   5.423  10.243   1.284  0.4255 -0.7578 -1.6996
  839MOL0     O10624   5.295  10.183   1.281 -0.3654 -0.8761  0.3058
  839MOL0     C10625   5.230  10.208   1.152  0.0191  0.3691  0.0540
  839MOL0     C10626   5.078  10.210   1.171  0.1674 -0.2427 -0.0657
  839MOL0     C10627   5.041  10.073   1.235  0.2358  0.1308 -0.6972
  839MOL0     C10628   4.889  10.075   1.252  0.2241 -0.1580  0.2562
  839MOL0     C10629   4.813  10.007   1.137  0.2590  0.3443  0.3727
  839MOL0     C10630   4.670   9.990   1.183  0.8480  0.5472  0.1574
  839MOL0     C10631   4.576   9.927   1.072  0.2708 -0.1243  0.3781
  839MOL0     C10632   4.438   9.897   1.134 -0.4376 -0.5649  0.6263
  839MOL0     N10633   4.337   9.892   1.028 -0.3987 -0.0287 -0.8023
  839MOL0     C10634   4.309   9.778   0.960  0.1409 -0.1677  0.4202
  839MOL0     C10635   4.222   9.820   0.867  0.5562  0.9557 -1.4890
  839MOL0     C10636   4.141   9.740   0.774 -0.7683  0.2178 -0.0631
  839MOL0     C10637   3.988   9.735   0.794  0.6250  0.4011 -0.2400
  839MOL0     C10638   3.951   9.627   0.891 -0.4049 -0.5909  0.2886
  839MOL0     C10639   3.804   9.580   0.884 -0.1115  0.8097  0.0832
  839MOL0     O10640   3.717   9.698   0.885  0.0668 -0.9347 -0.0776
  839MOL0     C10641   3.586   9.689   0.917 -0.2707 -0.3822  0.1520
  839MOL0     C10642   3.532   9.809   0.972  0.6515 -0.0956  0.4823
  839MOL0     C10643   3.396   9.816   0.999 -0.1066 -0.0260 -0.4910
  839MOL0     C10644   3.312   9.703   0.980  1.0624  0.1470  0.3776
  839MOL0     C10645   3.166   9.718   1.015 -0.2962 -0.0126  0.1318
  839MOL0     O10646   3.122   9.843   0.996  0.5306  0.5887  0.3264
  839MOL0     C10647   2.990   9.866   0.966 -0.3305  0.0906 -0.3945
  839MOL0     C10648   2.961   9.899   0.833 -0.5235 -1.1521 -0.1654
  839MOL0     C10649   2.825   9.923   0.801 -0.1314 -0.1635  0.7054
  839MOL0     C10650   2.718   9.909   0.894 -0.1523  0.1876 -0.9838
  839MOL0     O10651   2.580   9.927   0.875 -0.8380  0.0191  0.8612
  839MOL0     C10652   2.538   9.974   0.745  0.1317  0.5460  0.8372
  839MOL0     C10653   2.382   9.975   0.747  0.0021  0.6109  0.1971
  839MOL0     C10654   2.324  10.076   0.852 -0.2915  0.6611  0.7109
  839MOL0     C10655   2.185  10.029   0.910 -0.0592 -0.0155 -0.0461
  839MOL0     C10656   2.127  10.139   1.007  0.5389 -0.1203  0.3187
  839MOL0     C10657   2.076  10.270   0.936 -0.2093 -0.0571  0.5343
  839MOL0     C10658   2.006  10.366   1.028  0.2923 -0.5676  0.2287
  839MOL0     C10659   1.894  10.318   1.110  0.1859  0.0983  0.3462
  839MOL0    Cl10660   1.776  10.227   1.002 -0.4289  0.0483 -0.3038
  839MOL0     C10661   2.757   9.865   1.026 -0.2407  1.8855 -0.1962
  839MOL0     C10662   2.892   9.855   1.069  0.2560  0.2963 -0.6778
  839MOL0     O10663   3.098   9.615   1.034  0.0777  0.0520  0.1826
  839MOL0     C10664   3.373   9.580   0.933  1.2701 -0.0150 -0.0116
  839MOL0     C10665   3.507   9.574   0.907 -0.0294 -0.3555  0.5749
  839MOL0     N10666   4.204   9.953   0.877  0.4562 -0.4009  0.1135
  839MOL0     N10667   4.274  10.001   0.980 -0.0176  0.6142 -0.7755
  839MOL0     C10668   5.538  10.171   1.271  0.3898  0.2514  0.4293
  839MOL0     C10669   5.660  10.230   1.279  0.0471 -0.2104 -0.0038
  839MOL0     C10670   6.028  10.459   1.346  0.0071  0.4899  0.0586
  839MOL0     C10671   6.132  10.450   1.436 -0.1782  0.1766  0.1860
  839MOL0     C10672   6.259  10.512   1.409  0.1993  0.0986 -0.4283
  839MOL0     C10673   6.288  10.577   1.290 -0.3375  0.5470 -0.0186
  839MOL0     O10674   6.412  10.642   1.263 -0.0923  0.0271 -0.1527
  839MOL0     C10675   6.535  10.625   1.336  0.4350 -0.8474  0.2400
  839MOL0     C10676   6.595  10.491   1.289 -0.2681 -1.2165 -0.1141
  839MOL0     C10677   6.719  10.459   1.360 -0.2857 -0.2092  0.1871
  839MOL0     C10678   6.758  10.318   1.336 -0.2363  1.6205  0.1933
  839MOL0     C10679   6.897  10.293   1.376 -0.8083 -0.1545 -0.0193
  839MOL0     C10680   7.007  10.261   1.415  0.1162  0.2918 -0.0880
  839MOL0     C10681   6.180  10.581   1.202 -1.5652 -0.4083  0.3731
  839MOL0     C10682   6.053  10.537   1.231 -0.7170 -0.1475  0.0411
  839MOL0     H10683   5.554  10.545   1.317 -1.8627  0.2049  0.5597
  839MOL0     H10684   5.334  10.433   1.315  0.6616  1.1504  0.2168
  839MOL0     H10685   5.256  10.126   1.084  0.6554  0.1353  0.5731
  839MOL0     H10686   5.264  10.297   1.099 -1.7488  0.5148 -0.9053
  839MOL0     H10687   5.022  10.225   1.079  2.5043  3.7862 -1.0503
  839MOL0     H10688   5.040  10.283   1.243 -2.3119 -1.6439  0.1640
  839MOL0     H10689   5.073  10.067   1.340 -3.2129  1.7748  0.6342
  839MOL0     H10690   5.081   9.986   1.182  0.0704 -0.0432 -0.5413
  839MOL0     H10691   4.872  10.012   1.340 -0.8855 -1.8084 -1.0712
  839MOL0     H10692   4.855  10.176   1.275  0.8674  0.2691 -0.6155
  839MOL0     H10693   4.864   9.914   1.109 -0.3573 -0.0491  0.5318
  839MOL0     H10694   4.804  10.074   1.050 -1.8624  0.1041  0.3513
  839MOL0     H10695   4.626  10.085   1.213 -2.4640  0.0619 -2.4758
  839MOL0     H10696   4.671   9.923   1.270 -0.4834  0.2492 -0.0291
  839MOL0     H10697   4.565  10.002   0.993 -0.6685 -0.3729  0.2619
  839MOL0     H10698   4.622   9.840   1.025 -0.8933 -0.7745  0.3968
  839MOL0     H10699   4.413   9.984   1.196 -1.3130  1.0415 -1.8395
  839MOL0     H10700   4.428   9.807   1.196 -1.2494 -0.6691  0.3610
  839MOL0     H10701   4.339   9.677   0.987  0.4990 -0.4632 -0.9841
  839MOL0     H10702   4.175   9.635   0.774 -1.8067 -0.1549  1.8768
  839MOL0     H10703   4.162   9.772   0.671  3.1516  3.3874  1.4572
  839MOL0     H10704   3.940   9.730   0.696  2.3502  0.2265 -1.1136
  839MOL0     H10705   3.956   9.826   0.846 -0.7707 -2.2195  4.0082
  839MOL0     H10706   4.019   9.541   0.885  0.5525  0.0945  1.0639
  839MOL0     H10707   3.958   9.670   0.992 -4.1001 -2.8300  1.7344
  839MOL0     H10708   3.780   9.504   0.958 -0.6998 -0.5604 -1.4518
  839MOL0     H10709   3.806   9.524   0.790  1.1570  0.9111  0.0325
  839MOL0     H10710   3.585   9.903   0.984 -2.6943  2.2197 -1.3605
  839MOL0     H10711   3.344   9.900   1.044 -2.0657 -1.8336  0.8470
  839MOL0     H10712   3.035   9.923   0.758 -2.7074  1.6739 -1.6281
  839MOL0     H10713   2.808   9.957   0.699 -3.3184  0.2059  1.2735
  839MOL0     H10714   2.581   9.919   0.661  1.1545  2.5788 -0.0529
  839MOL0     H10715   2.565  10.079   0.729 -0.0654  0.0151 -4.9967
  839MOL0     H10716   2.345   9.874   0.763 -1.0303  0.7301 -1.2814
  839MOL0     H10717   2.341   9.997   0.648 -0.8623 -0.9684  0.1735
  839MOL0     H10718   2.320  10.175   0.806  2.0720  0.8204  0.7335
  839MOL0     H10719   2.400  10.082   0.930  1.6455 -0.7206 -0.9682
  839MOL0     H10720   2.121  10.022   0.822 -0.3060 -1.3822  0.2346
  839MOL0     H10721   2.192   9.929   0.952  1.2834 -0.3626 -1.0271
  839MOL0     H10722   2.206  10.172   1.076  1.7282  1.5128 -1.7143
  839MOL0     H10723   2.037  10.100   1.054  1.3203 -1.1520  1.0165
  839MOL0     H10724   1.995  10.249   0.867 -0.2300  1.0618  0.1965
  839MOL0     H10725   2.157  10.327   0.890  0.8256  1.9678  4.3924
  839MOL0     H10726   2.073  10.419   1.096 -1.4593  4.4571 -1.5044
  839MOL0     H10727   1.976  10.454   0.970  0.8537 -0.7833 -0.4061
  839MOL0     H10728   1.847  10.409   1.148 -1.6234 -1.3373  1.7131
  839MOL0     H10729   1.925  10.266   1.201 -1.1369 -2.1138 -0.4234
  839MOL0     H10730   2.680   9.841   1.099  0.6705 -1.1244 -0.0763
  839MOL0     H10731   2.913   9.826   1.172  0.0490  1.0858 -0.4075
  839MOL0     H10732   3.306   9.496   0.922  0.1752  0.9349 -0.9699
  839MOL0     H10733   3.556   9.487   0.865 -0.5887  0.0312 -0.9365
  839MOL0     H10734   5.524  10.064   1.258 -2.0089  0.7577 -1.7955
  839MOL0     H10735   5.753  10.174   1.277  0.3500  0.2891 -0.2754
  839MOL0     H10736   6.123  10.387   1.524 -0.2227 -0.4303 -0.2476
  839MOL0     H10737   6.341  10.495   1.478 -0.8738 -1.0189  0.6197
  839MOL0     H10738   6.531  10.634   1.445  1.8276 -0.9025  0.3197
  839MOL0     H10739   6.603  10.706   1.307  1.3418 -0.8854  2.1245
  839MOL0     H10740   6.526  10.411   1.316 -0.7804  0.5192  4.8940
  839MOL0     H10741   6.609  10.484   1.181  0.4608  2.1711 -0.3661
  839MOL0     H10742   6.691  10.461   1.465 -0.6640  0.7798  0.0825
  839MOL0     H10743   6.796  10.535   1.344 -0.7451  0.2353  0.0675
  839MOL0     H10744   6.680  10.254   1.379 -0.4118  3.3363  2.6393
  839MOL0     H10745   6.746  10.300   1.229 -0.4139 -0.4332  0.5264
  839MOL0     H10746   7.105  10.248   1.456  1.0087 -0.4190 -2.2931
  839MOL0     H10747   6.208  10.627   1.108  2.1615 -0.6428  1.1951
  839MOL0     H10748   5.975  10.535   1.155 -1.3932  0.2815  0.7018
  840MOL0     O10749   1.892   9.136   0.834 -0.6882  0.8025  0.2558
  840MOL0     C10750   1.777   9.106   0.843 -0.4244  0.5178 -0.3798
  840MOL0     O10751   1.728   8.999   0.916 -0.0563 -0.4112  0.4079
  840MOL0     C10752   1.833   8.930   0.972 -0.0216  0.0235  1.3425
  840MOL0     C10753   1.850   8.943   1.112 -0.0845  0.3911  0.5491
  840MOL0     C10754   1.966   8.887   1.174 -0.5014 -0.1004  0.9816
  840MOL0     C10755   2.044   8.792   1.104 -0.1513  0.6972 -0.1566
  840MOL0     O10756   2.150   8.719   1.161  1.1069 -0.3305  0.6017
  840MOL0     C10757   2.189   8.744   1.295  0.0893  0.3371 -0.3502
  840MOL0     C10758   2.323   8.677   1.317 -0.1028 -0.0736 -0.3881
  840MOL0     C10759   2.373   8.737   1.452  0.1144  1.1476  0.1596
  840MOL0     C10760   2.502   8.665   1.491 -0.1872  0.3592 -0.1057
  840MOL0     C10761   2.537   8.699   1.635 -0.2632 -0.2456 -0.5018
  840MOL0     C10762   2.633   8.605   1.703 -0.3760  1.0239  0.3407
  840MOL0     C10763   2.684   8.654   1.844  0.1043  0.8352 -0.2827
  840MOL0     C10764   2.736   8.529   1.923  0.8120  0.0544  0.5905
  840MOL0     N10765   2.627   8.446   1.975  1.1837  0.0578 -0.5155
  840MOL0     C10766   2.534   8.501   2.064 -0.4243 -0.6706  0.2864
  840MOL0     C10767   2.455   8.401   2.104 -0.7138 -0.0344  0.0069
  840MOL0     C10768   2.356   8.417   2.210  0.6375  0.2421  1.2611
  840MOL0     C10769   2.387   8.320   2.331  0.5019 -0.6259 -0.2048
  840MOL0     C10770   2.317   8.371   2.456 -0.5899 -0.1879  0.0961
  840MOL0     C10771   2.175   8.311   2.462  0.2352  0.6559 -0.1760
  840MOL0     O10772   2.114   8.360   2.582  0.7342  0.5921  0.0005
  840MOL0     C10773   1.985   8.323   2.602  0.6375  0.2599 -0.6585
  840MOL0     C10774   1.882   8.296   2.513 -0.0927  0.1575  0.0336
  840MOL0     C10775   1.757   8.274   2.548  1.0671 -0.7816  1.0175
  840MOL0     C10776   1.710   8.295   2.683  0.1559 -0.6951 -1.0798
  840MOL0     C10777   1.565   8.281   2.725 -0.4359  0.7987  0.6523
  840MOL0     O10778   1.489   8.216   2.640  0.5886 -0.5047 -0.2827
  840MOL0     C10779   1.348   8.190   2.652  0.7318  0.0900 -0.3139
  840MOL0     C10780   1.249   8.267   2.727  0.0697  0.1130  0.3854
  840MOL0     C10781   1.113   8.235   2.733 -0.7462 -0.4011  0.1539
  840MOL0     C10782   1.060   8.119   2.674 -0.0112  0.2935  0.0285
  840MOL0     O10783   0.932   8.081   2.698  0.9105 -0.2603 -0.9799
  840MOL0     C10784   0.837   8.188   2.667 -0.3507 -0.4522 -0.0038
  840MOL0     C10785   0.697   8.137   2.685  0.0075  0.1698  0.2274
  840MOL0     C10786   0.665   8.129   2.840  0.2363 -1.3044  0.7795
  840MOL0     C10787   0.523   8.094   2.872 -0.3317 -0.4957 -0.1195
  840MOL0     C10788   0.486   8.080   3.017 -0.2599 -0.2470  0.4307
  840MOL0     C10789   0.346   8.029   3.037  0.9458 -0.8900  0.6493
  840MOL0     C10790   0.314   8.010   3.181 -0.1447  0.9226 -0.4996
  840MOL0     C10791   0.167   8.033   3.216 -0.2147 -0.4405  0.5062
  840MOL0    Cl10792   0.037   7.976   3.106 -0.1642 -0.3403 -0.1849
  840MOL0     C10793   1.145   8.042   2.598  0.2537 -0.0670 -0.4836
  840MOL0     C10794   1.283   8.081   2.583  0.4197  0.5984  0.2213
  840MOL0     O10795   1.526   8.343   2.821  0.3633  0.5409 -0.2712
  840MOL0     C10796   1.812   8.313   2.781 -0.0657  0.8333  0.7866
  840MOL0     C10797   1.942   8.319   2.738  0.1162 -0.8893 -0.5889
  840MOL0     N10798   2.493   8.286   2.043  0.4827  0.1744 -0.2548
  840MOL0     N10799   2.601   8.310   1.971 -0.3490  0.0336 -0.0433
  840MOL0     C10800   2.023   8.779   0.967 -0.1517  0.8127  0.1526
  840MOL0     C10801   1.921   8.849   0.901  0.5272 -0.9113  0.0691
  840MOL0     C10802   1.674   9.208   0.803 -0.6258 -0.0282 -0.3450
  840MOL0     C10803   1.536   9.183   0.820 -0.5949 -1.3223 -0.5671
  840MOL0     C10804   1.443   9.282   0.782 -0.5798 -0.3217 -0.0818
  840MOL0     C10805   1.482   9.401   0.720 -0.5438  0.0726 -1.1344
  840MOL0     O10806   1.387   9.488   0.681  0.3694  0.5387  0.5508
  840MOL0     C10807   1.416   9.600   0.593 -0.1671  0.2248 -0.5564
  840MOL0     C10808   1.432   9.713   0.698  0.0677  0.6176 -0.2005
  840MOL0     C10809   1.416   9.847   0.636 -0.5873  0.5291  0.6277
  840MOL0     C10810   1.536   9.942   0.677 -0.4414 -0.2083 -0.1040
  840MOL0     C10811   1.539  10.073   0.619  0.2445 -0.3175 -0.8309
  840MOL0     C10812   1.552  10.181   0.561  0.5274  1.1230  0.8095
  840MOL0     C10813   1.617   9.431   0.720 -0.5577 -0.4278  0.2649
  840MOL0     C10814   1.708   9.339   0.761 -0.8438  0.8907 -0.6694
  840MOL0     H10815   1.779   9.003   1.168 -0.3621  1.1286 -0.5562
  840MOL0     H10816   1.979   8.912   1.278 -1.0902 -0.5749  1.1745
  840MOL0     H10817   2.124   8.696   1.369 -2.5796  1.5963 -1.7599
  840MOL0     H10818   2.188   8.852   1.315 -1.9031 -0.4446  6.9165
  840MOL0     H10819   2.394   8.705   1.238 -1.2783  2.8713 -0.5433
  840MOL0     H10820   2.313   8.569   1.328  2.2533 -0.2931  0.2485
  840MOL0     H10821   2.293   8.716   1.523 -0.1158 -1.9991 -0.8766
  840MOL0     H10822   2.398   8.843   1.452  0.7932  1.0009  0.7683
  840MOL0     H10823   2.484   8.558   1.477  2.9946 -1.0737  4.4064
  840MOL0     H10824   2.581   8.697   1.422  2.3599 -0.5239  2.2137
  840MOL0     H10825   2.446   8.695   1.696 -0.0190  0.7406 -0.0540
  840MOL0     H10826   2.579   8.800   1.640  0.1671 -0.4744  2.4090
  840MOL0     H10827   2.721   8.594   1.639  0.0611 -1.3090  1.2418
  840MOL0     H10828   2.586   8.507   1.714 -1.4833  1.4889 -0.0553
  840MOL0     H10829   2.754   8.737   1.835 -1.3353  2.0528 -0.6428
  840MOL0     H10830   2.594   8.694   1.893  0.4666  0.8754  0.3604
  840MOL0     H10831   2.807   8.557   2.002  0.2674 -1.7281  1.7756
  840MOL0     H10832   2.796   8.464   1.859  1.8342  2.0401 -0.5706
  840MOL0     H10833   2.521   8.604   2.095 -4.1011 -0.0830 -2.4999
  840MOL0     H10834   2.255   8.404   2.169  1.4439  0.9344 -1.0784
  840MOL0     H10835   2.364   8.520   2.247  1.3916 -0.0565  1.9524
  840MOL0     H10836   2.492   8.329   2.360 -0.3167  1.6254  2.4810
  840MOL0     H10837   2.369   8.214   2.308 -1.4088 -0.0827 -1.4236
  840MOL0     H10838   2.374   8.328   2.539 -0.8081  1.8831  1.3683
  840MOL0     H10839   2.319   8.480   2.458 -1.5625 -0.1509 -0.5729
  840MOL0     H10840   2.175   8.202   2.450 -1.4387  0.8255 -2.4034
  840MOL0     H10841   2.124   8.348   2.372  1.3241 -0.1003 -1.1384
  840MOL0     H10842   1.915   8.301   2.410 -4.0578  0.6003 -1.3793
  840MOL0     H10843   1.692   8.246   2.465 -0.9949 -1.7184  2.8363
  840MOL0     H10844   1.287   8.343   2.795  1.4529 -0.0340 -0.1698
  840MOL0     H10845   1.057   8.302   2.797 -0.4719  0.2074 -0.2393
  840MOL0     H10846   0.857   8.204   2.561  0.4186  2.7309  0.4981
  840MOL0     H10847   0.852   8.282   2.722  0.3015  0.8451 -2.2404
  840MOL0     H10848   0.693   8.039   2.637  5.1822  1.5063 -3.9401
  840MOL0     H10849   0.618   8.200   2.641  0.1665 -0.0255 -0.3517
  840MOL0     H10850   0.677   8.225   2.891 -1.3337 -1.3402  1.2720
  840MOL0     H10851   0.732   8.059   2.890  3.2584  1.2549  0.5915
  840MOL0     H10852   0.458   8.166   2.821 -1.0373 -0.1248  1.2515
  840MOL0     H10853   0.510   7.998   2.820 -0.1213 -1.2424  1.1839
  840MOL0     H10854   0.502   8.175   3.070  1.4746 -1.9674  3.2331
  840MOL0     H10855   0.547   8.006   3.070 -0.5366  0.5569  1.9247
  840MOL0     H10856   0.332   7.932   2.989 -3.7277 -1.2324  2.2269
  840MOL0     H10857   0.268   8.091   2.991  0.7933 -3.8283 -3.6790
  840MOL0     H10858   0.338   7.904   3.183 -0.3943  0.8630 -0.6474
  840MOL0     H10859   0.380   8.070   3.245  1.3428 -0.2445 -0.8969
  840MOL0     H10860   0.156   8.141   3.229  3.3995 -0.1857  2.8657
  840MOL0     H10861   0.141   7.984   3.310  1.0553 -0.5383  0.8139
  840MOL0     H10862   1.112   7.945   2.562 -0.2674 -0.2441  0.4302
  840MOL0     H10863   1.347   8.005   2.541 -0.9629 -1.1625  1.1553
  840MOL0     H10864   1.792   8.322   2.887  1.3211 -1.3427  1.2947
  840MOL0     H10865   2.012   8.337   2.819 -0.6123 -2.0859  0.3367
  840MOL0     H10866   2.082   8.702   0.918  0.0549  0.8945  0.2744
  840MOL0     H10867   1.902   8.838   0.795 -2.4927  0.2239  0.3983
  840MOL0     H10868   1.497   9.093   0.866 -0.9346 -1.0810 -0.3804
  840MOL0     H10869   1.337   9.262   0.790 -0.3737 -1.5955 -0.3019
  840MOL0     H10870   1.332   9.623   0.528 -0.5855 -0.8141 -0.3893
  840MOL0     H10871   1.511   9.584   0.541  0.0792 -0.4340  0.0825
  840MOL0     H10872   1.357   9.698   0.777  2.0055  0.5514  1.7242
  840MOL0     H10873   1.528   9.706   0.750 -0.5195 -0.7991  0.7423
  840MOL0     H10874   1.313   9.881   0.653 -1.5575 -1.6602 -0.4858
  840MOL0     H10875   1.420   9.844   0.527 -1.6377  1.3350  0.5418
  840MOL0     H10876   1.530   9.951   0.786  0.5995 -1.8993  0.1256
  840MOL0     H10877   1.631   9.890   0.661 -1.2241 -1.6304 -0.3491
  840MOL0     H10878   1.555  10.271   0.502  0.0523  0.0116 -1.0125
  840MOL0     H10879   1.649   9.532   0.695 -0.7185 -0.7518 -1.3738
  840MOL0     H10880   1.814   9.361   0.767 -0.2245 -1.2400 -2.2478
  841MOL0     O10881   4.060   1.552   8.885  0.6299  1.0640 -0.1902
  841MOL0     C10882   4.109   1.551   8.994  0.1355  0.6075 -0.1928
  841MOL0     O10883   4.085   1.644   9.088  1.0844  0.5931 -0.0082
  841MOL0     C10884   3.984   1.732   9.065  0.7020  0.0834 -0.4509
  841MOL0     C10885   3.855   1.717   9.121 -1.0468  0.3960 -0.0634
  841MOL0     C10886   3.753   1.807   9.091 -0.4825  0.2701  0.2501
  841MOL0     C10887   3.779   1.912   8.995  0.0733 -0.2793 -0.0565
  841MOL0     O10888   3.675   1.996   8.967 -0.1188  0.6477 -0.2819
  841MOL0     C10889   3.560   2.007   9.052 -0.7940 -0.1199  0.1161
  841MOL0     C10890   3.486   2.139   9.047  0.0421 -0.7848 -0.0806
  841MOL0     C10891   3.339   2.127   9.074  0.8353 -0.4555  0.7018
  841MOL0     C10892   3.271   2.259   9.094  0.1720  0.1982 -0.4566
  841MOL0     C10893   3.128   2.241   9.119  0.4851 -0.2020  0.3733
  841MOL0     C10894   3.060   2.373   9.138  0.1760 -0.3018 -0.3994
  841MOL0     C10895   2.915   2.350   9.159 -0.1118  0.0603  0.6780
  841MOL0     C10896   2.856   2.487   9.189  0.1278  0.3291  0.9121
  841MOL0     N10897   2.706   2.484   9.200  0.6813 -0.6492  0.3606
  841MOL0     C10898   2.634   2.416   9.294 -0.8464 -0.2332 -0.3464
  841MOL0     C10899   2.507   2.415   9.253 -0.6012  0.0486  0.0667
  841MOL0     C10900   2.392   2.363   9.326  0.0171  0.6883 -0.1858
  841MOL0     C10901   2.343   2.480   9.426 -0.0553  0.3202 -0.0691
  841MOL0     C10902   2.251   2.581   9.353 -0.2292  0.7656 -0.1272
  841MOL0     C10903   2.106   2.532   9.332  0.1181  0.0617 -0.1777
  841MOL0     O10904   2.011   2.633   9.333  0.1486 -0.5810  0.1179
  841MOL0     C10905   1.881   2.621   9.372  0.9846 -0.6322 -0.3047
  841MOL0     C10906   1.812   2.740   9.381 -0.6207  0.3877 -0.9498
  841MOL0     C10907   1.680   2.745   9.404  0.7922  0.3392 -0.8962
  841MOL0     C10908   1.604   2.632   9.416 -0.0604 -0.1270 -0.4511
  841MOL0     C10909   1.457   2.633   9.431  0.2281 -0.3755  0.0705
  841MOL0     O10910   1.393   2.524   9.406  0.5572 -0.0016 -0.3184
  841MOL0     C10911   1.260   2.509   9.419 -0.4623 -0.2124 -0.1381
  841MOL0     C10912   1.181   2.554   9.311  0.0901 -0.3625  0.0023
  841MOL0     C10913   1.042   2.557   9.321  0.2107 -0.3350  0.8024
  841MOL0     C10914   0.986   2.512   9.440 -0.5553  0.5773 -0.0337
  841MOL0     O10915   0.852   2.517   9.467  0.2739 -0.2398 -0.2325
  841MOL0     C10916   0.767   2.459   9.363  0.2751 -0.2212  0.0654
  841MOL0     C10917   0.643   2.406   9.442 -0.4834  0.0089  0.7357
  841MOL0     C10918   0.541   2.368   9.341 -0.0824  0.0570 -0.7051
  841MOL0     C10919   0.414   2.330   9.416 -0.2888  0.1701  0.4914
  841MOL0     C10920   0.291   2.354   9.324 -0.5669  0.5000 -0.0279
  841MOL0     C10921   0.163   2.317   9.386 -0.3350  0.1674  0.5346
  841MOL0     C10922   0.041   2.311   9.292 -0.4855  0.7580  0.1535
  841MOL0     C10923  -0.026   2.443   9.248  0.2472  0.1948 -0.4765
  841MOL0    Cl10924   0.069   2.557   9.157  0.0996 -0.4792 -0.5071
  841MOL0     C10925   1.066   2.462   9.547  0.3297 -0.1058 -0.3578
  841MOL0     C10926   1.204   2.460   9.536 -0.5605 -0.5316  0.1157
  841MOL0     O10927   1.401   2.739   9.460  0.0233  0.5051  0.4177
  841MOL0     C10928   1.669   2.506   9.408  0.6172 -0.1754  0.8262
  841MOL0     C10929   1.804   2.500   9.378 -0.3710  0.9270 -0.8778
  841MOL0     N10930   2.505   2.470   9.125 -0.1420 -0.4835  0.8052
  841MOL0     N10931   2.622   2.513   9.100 -1.0268 -0.2736  0.2543
  841MOL0     C10932   3.902   1.928   8.933  0.2248  0.0842 -0.8943
  841MOL0     C10933   4.007   1.835   8.975  0.0942  0.5898  0.4856
  841MOL0     C10934   4.226   1.457   9.016  0.6093  0.3467  0.2600
  841MOL0     C10935   4.288   1.380   8.913  0.2495 -0.1574 -0.3889
  841MOL0     C10936   4.386   1.283   8.949  1.2276 -0.5670 -0.5240
  841MOL0     C10937   4.430   1.269   9.077 -0.2355  0.5983 -0.2671
  841MOL0     O10938   4.522   1.171   9.109  0.8183 -0.0329  0.5008
  841MOL0     C10939   4.491   1.091   9.234  0.1569  0.5603 -0.0151
  841MOL0     C10940   4.378   0.987   9.197  0.1802  0.3311 -0.2586
  841MOL0     C10941   4.269   0.999   9.299  0.7381 -0.7763 -0.6339
  841MOL0     C10942   4.135   0.930   9.260  0.3626 -0.4306  0.1947
  841MOL0     C10943   4.047   0.917   9.377 -1.2716 -1.1272  0.3302
  841MOL0     C10944   3.984   0.910   9.481 -0.6189  0.2236 -0.3347
  841MOL0     C10945   4.365   1.333   9.182 -0.0060  0.7161  0.5373
  841MOL0     C10946   4.265   1.427   9.149  0.1596 -0.8229  0.6894
  841MOL0     H10947   3.858   1.647   9.204 -1.3162 -0.8680 -1.0996
  841MOL0     H10948   3.657   1.794   9.140 -1.2851  0.4640 -1.2379
  841MOL0     H10949   3.577   1.984   9.158 -0.6061 -2.1494 -0.3064
  841MOL0     H10950   3.484   1.937   9.018 -0.6026 -0.7117  0.8742
  841MOL0     H10951   3.491   2.191   8.951  1.1708 -2.2690 -0.8409
  841MOL0     H10952   3.534   2.209   9.117  1.1559 -0.3131 -1.2720
  841MOL0     H10953   3.318   2.058   9.157 -1.9417 -0.1613  0.3101
  841MOL0     H10954   3.309   2.072   8.985  0.4846 -0.3120  0.7311
  841MOL0     H10955   3.307   2.308   9.185 -2.4116 -1.9164  1.8966
  841MOL0     H10956   3.289   2.328   9.011 -0.4076  2.6292  1.3191
  841MOL0     H10957   3.112   2.172   9.202 -2.6196 -2.2127 -1.6512
  841MOL0     H10958   3.069   2.190   9.042 -2.0771  1.3157  1.2249
  841MOL0     H10959   3.080   2.442   9.055  0.2831  1.1801  0.8028
  841MOL0     H10960   3.101   2.412   9.232  1.6855  1.4253 -1.7090
  841MOL0     H10961   2.879   2.331   9.058  1.9554 -0.4754  0.0044
  841MOL0     H10962   2.897   2.264   9.224  0.6567  0.1911  1.0821
  841MOL0     H10963   2.883   2.564   9.116  1.5448 -0.1351  0.9276
  841MOL0     H10964   2.885   2.517   9.290 -0.7572  2.4583  0.5984
  841MOL0     H10965   2.670   2.384   9.391 -1.1239  2.7771  0.8703
  841MOL0     H10966   2.406   2.275   9.389 -0.4857  0.6492 -0.1235
  841MOL0     H10967   2.307   2.335   9.263 -1.8070  0.7584  2.1065
  841MOL0     H10968   2.424   2.539   9.469 -1.2805  1.0599  1.3055
  841MOL0     H10969   2.294   2.439   9.515  0.0136 -0.4706 -0.3865
  841MOL0     H10970   2.246   2.668   9.419 -0.5298  0.6138  0.0556
  841MOL0     H10971   2.298   2.601   9.256  2.7203  3.7663  1.7197
  841MOL0     H10972   2.082   2.478   9.424  1.2317 -1.7465 -0.8897
  841MOL0     H10973   2.106   2.468   9.243 -2.5726  1.3012 -1.1833
  841MOL0     H10974   1.856   2.837   9.362  2.1635 -1.0198 -2.3411
  841MOL0     H10975   1.647   2.845   9.429 -0.9539 -0.8602  2.1870
  841MOL0     H10976   1.235   2.596   9.227  1.6955 -0.2066  1.0529
  841MOL0     H10977   0.975   2.593   9.244 -1.4658 -0.5784  2.0851
  841MOL0     H10978   0.813   2.372   9.316 -2.7029 -1.1929 -1.3311
  841MOL0     H10979   0.740   2.536   9.290 -3.8980 -0.4532  1.1288
  841MOL0     H10980   0.611   2.493   9.501  1.1020  2.9209 -2.3209
  841MOL0     H10981   0.658   2.316   9.502 -2.5655 -1.1743 -0.3853
  841MOL0     H10982   0.564   2.289   9.269 -1.0000 -0.8846  0.0127
  841MOL0     H10983   0.525   2.454   9.276  2.0655 -0.6901 -2.3597
  841MOL0     H10984   0.414   2.223   9.440 -1.6030  0.4914  2.1242
  841MOL0     H10985   0.405   2.390   9.507  2.4345  1.3771  0.0825
  841MOL0     H10986   0.308   2.297   9.232  1.8949  1.2373 -0.1220
  841MOL0     H10987   0.283   2.458   9.289  0.6349  1.1456  1.4701
  841MOL0     H10988   0.152   2.383   9.472  0.6014 -0.3158  1.0463
  841MOL0     H10989   0.177   2.216   9.425 -1.6338 -0.6688 -1.0563
  841MOL0     H10990   0.071   2.263   9.199  1.4615 -1.1357  1.6661
  841MOL0     H10991  -0.040   2.262   9.347 -2.1599  2.2956 -0.8400
  841MOL0     H10992  -0.069   2.489   9.337  1.2967 -0.1300  0.2147
  841MOL0     H10993  -0.110   2.414   9.184 -0.0181  0.3808 -0.2140
  841MOL0     H10994   1.007   2.434   9.634 -0.2539  0.7048 -0.4827
  841MOL0     H10995   1.267   2.435   9.621  1.3837 -1.6016 -1.5725
  841MOL0     H10996   1.608   2.416   9.415  1.4394 -0.9483 -1.3560
  841MOL0     H10997   1.854   2.404   9.371 -1.2259  0.4186 -0.2319
  841MOL0     H10998   3.916   2.010   8.864 -1.9192  0.2518 -1.1724
  841MOL0     H10999   4.106   1.860   8.938  0.0798  3.3999  2.0180
  841MOL0     H11000   4.267   1.389   8.806  2.5817 -2.1469 -1.0894
  841MOL0     H11001   4.445   1.219   8.884 -0.0527 -2.6692  0.2724
  841MOL0     H11002   4.479   1.146   9.328  0.7171 -1.7140  1.4636
  841MOL0     H11003   4.583   1.038   9.261  0.5187  1.3460  0.3399
  841MOL0     H11004   4.336   1.014   9.100  0.3777 -3.0118 -1.4026
  841MOL0     H11005   4.416   0.885   9.185 -0.8876  0.0537 -1.5978
  841MOL0     H11006   4.240   1.104   9.311 -3.5983 -1.8497  0.2406
  841MOL0     H11007   4.297   0.960   9.398  0.0808 -0.7302 -0.4207
  841MOL0     H11008   4.081   0.981   9.180 -2.4863 -1.6403  1.2068
  841MOL0     H11009   4.162   0.829   9.228  0.5345 -0.4097  0.2694
  841MOL0     H11010   3.928   0.915   9.572 -0.1913 -2.5593  0.1653
  841MOL0     H11011   4.394   1.322   9.286  0.9197 -2.6553  0.0716
  841MOL0     H11012   4.216   1.484   9.227 -0.2844 -0.6085  0.2643
  842MOL0     O11013   1.472   3.820   6.034 -0.1895 -0.5793  0.0629
  842MOL0     C11014   1.511   3.742   5.945  0.0407 -0.0344  0.1995
  842MOL0     O11015   1.432   3.659   5.872 -0.6688 -0.0660 -0.2074
  842MOL0     C11016   1.298   3.674   5.844 -0.6320 -0.0784 -0.8099
  842MOL0     C11017   1.249   3.805   5.826  0.5709  0.2828 -1.0419
  842MOL0     C11018   1.109   3.817   5.808  0.2205 -0.1483 -0.4322
  842MOL0     C11019   1.029   3.706   5.793  0.3677  0.4613 -0.1534
  842MOL0     O11020   0.900   3.707   5.741 -0.0728  0.0786 -0.1251
  842MOL0     C11021   0.811   3.794   5.807 -0.4782  1.3506 -1.5817
  842MOL0     C11022   0.682   3.792   5.723  0.3745 -0.1614 -0.6826
  842MOL0     C11023   0.564   3.851   5.800  0.7772  0.2874  0.1783
  842MOL0     C11024   0.501   3.747   5.892  0.3719 -0.2009 -0.2393
  842MOL0     C11025   0.366   3.808   5.961  0.4731 -0.1677  0.2514
  842MOL0     C11026   0.257   3.831   5.853 -0.9009  0.2164 -0.5757
  842MOL0     C11027   0.116   3.874   5.908 -1.0584  0.6012 -0.6201
  842MOL0     C11028   0.048   3.751   5.971 -0.2264 -0.1112 -0.3311
  842MOL0     N11029  -0.077   3.791   6.022  0.8373  0.0416 -0.2586
  842MOL0     C11030  -0.093   3.881   6.129 -0.2221 -0.3950 -0.1629
  842MOL0     C11031  -0.226   3.892   6.147  0.4180  0.3063  0.0291
  842MOL0     C11032  -0.318   3.977   6.234 -0.6210 -0.1182  0.6831
  842MOL0     C11033  -0.409   4.077   6.169  0.9597  0.6810  0.7905
  842MOL0     C11034  -0.356   4.184   6.092 -0.2247 -0.0502 -0.3317
  842MOL0     C11035  -0.307   4.288   6.182  0.2251 -0.1538 -0.4757
  842MOL0     O11036  -0.175   4.245   6.236 -0.2262  1.2033 -0.8741
  842MOL0     C11037  -0.074   4.259   6.145 -0.4386 -0.4741 -0.0680
  842MOL0     C11038  -0.083   4.291   6.007  0.6405 -0.6942 -0.0270
  842MOL0     C11039   0.023   4.301   5.929 -0.4021  0.3356 -0.0765
  842MOL0     C11040   0.152   4.268   5.982  0.3347  0.1036 -0.9606
  842MOL0     C11041   0.272   4.275   5.899  1.3484 -0.3507 -0.4141
  842MOL0     O11042   0.260   4.341   5.776  1.0137 -0.3700 -0.4210
  842MOL0     C11043   0.359   4.313   5.680  0.1965  0.0620 -0.0537
  842MOL0     C11044   0.403   4.187   5.642  0.7529 -0.3438  0.2552
  842MOL0     C11045   0.475   4.170   5.526  0.4025  0.6363 -0.2902
  842MOL0     C11046   0.516   4.276   5.455 -0.3984 -0.1667  0.4324
  842MOL0     O11047   0.602   4.257   5.348  0.0639  0.2256  0.4482
  842MOL0     C11048   0.563   4.320   5.228  1.1791  0.2714 -0.7013
  842MOL0     C11049   0.673   4.309   5.122 -0.3363 -0.1408 -0.5763
  842MOL0     C11050   0.683   4.167   5.061  0.1062 -0.4677  0.3652
  842MOL0     C11051   0.766   4.071   5.140  0.1525 -0.6764 -0.2993
  842MOL0     C11052   0.787   3.934   5.065 -0.6975 -0.8337  1.1215
  842MOL0     C11053   0.867   3.965   4.931  0.2134  0.1372 -0.5700
  842MOL0     C11054   0.911   3.831   4.875 -0.3466  0.6291  0.4784
  842MOL0     C11055   0.801   3.744   4.826  0.0251 -0.1746 -0.4348
  842MOL0    Cl11056   0.875   3.659   4.681  0.2755 -0.1551 -0.5258
  842MOL0     C11057   0.483   4.407   5.494 -0.4576  0.9312  0.0041
  842MOL0     C11058   0.398   4.433   5.607  1.2589  0.1531 -0.5965
  842MOL0     O11059   0.367   4.219   5.943 -0.4047  1.0122  0.1330
  842MOL0     C11060   0.156   4.228   6.118  0.3593  0.0868  0.5510
  842MOL0     C11061   0.044   4.207   6.192 -0.0556  0.1045  0.6422
  842MOL0     N11062  -0.287   3.807   6.048 -0.7130 -0.1085 -0.3072
  842MOL0     N11063  -0.193   3.747   5.973  0.5074 -1.0699 -1.0881
  842MOL0     C11064   1.085   3.579   5.812 -0.9780 -0.6597  0.0911
  842MOL0     C11065   1.216   3.556   5.839 -0.3809 -0.2190  0.5854
  842MOL0     C11066   1.651   3.708   5.942 -0.2944  0.1907  0.3063
  842MOL0     C11067   1.742   3.757   6.031 -0.5716 -0.2318  0.6188
  842MOL0     C11068   1.879   3.736   6.016  0.5580 -0.2082  0.3864
  842MOL0     C11069   1.931   3.658   5.917  0.1653  0.1017  0.5098
  842MOL0     O11070   2.067   3.627   5.901  0.1112 -0.0197 -0.1484
  842MOL0     C11071   2.169   3.692   5.989  0.2612 -1.2256  0.8690
  842MOL0     C11072   2.313   3.647   5.979 -0.9962 -0.1187  0.5918
  842MOL0     C11073   2.381   3.647   5.847  0.3108 -0.3765 -0.4657
  842MOL0     C11074   2.523   3.603   5.867 -0.3527 -1.3560  0.3566
  842MOL0     C11075   2.597   3.609   5.738 -0.1817 -0.1396  0.2628
  842MOL0     C11076   2.656   3.605   5.629  0.1232  0.2509 -0.3049
  842MOL0     C11077   1.834   3.603   5.824 -0.5197  1.0229 -0.4195
  842MOL0     C11078   1.701   3.625   5.839  0.4731 -0.3363  0.7969
  842MOL0     H11079   1.306   3.896   5.808  1.2964 -0.2359 -1.4300
  842MOL0     H11080   1.065   3.916   5.796 -1.6681 -0.6974  1.2589
  842MOL0     H11081   0.849   3.895   5.827 -0.6110  1.0084  0.7001
  842MOL0     H11082   0.794   3.740   5.901 -0.0833  2.8271 -0.6270
  842MOL0     H11083   0.656   3.689   5.696  0.5602 -1.0781  2.3378
  842MOL0     H11084   0.704   3.842   5.628  1.5271 -1.4302 -1.1081
  842MOL0     H11085   0.490   3.870   5.722  1.4306  0.4865 -0.3955
  842MOL0     H11086   0.583   3.946   5.850 -1.2667  0.8396 -0.0061
  842MOL0     H11087   0.487   3.654   5.835  1.5875 -0.2434 -0.4969
  842MOL0     H11088   0.567   3.724   5.977 -0.9692 -3.2112  0.1255
  842MOL0     H11089   0.396   3.906   5.999 -2.8809  0.9595  0.2413
  842MOL0     H11090   0.327   3.750   6.045  0.3375 -0.2461  0.1359
  842MOL0     H11091   0.256   3.739   5.793 -2.2540  2.1619 -3.7667
  842MOL0     H11092   0.298   3.902   5.781  2.7717  0.8474  1.8674
  842MOL0     H11093   0.125   3.950   5.986 -2.7097  0.6159 -0.4226
  842MOL0     H11094   0.065   3.908   5.817  0.9341 -0.5558 -2.2742
  842MOL0     H11095   0.103   3.712   6.057  0.4936  0.8702 -0.3306
  842MOL0     H11096   0.046   3.668   5.899 -1.2044  1.3866 -2.1078
  842MOL0     H11097  -0.031   3.941   6.195 -1.9012  2.2681 -0.8558
  842MOL0     H11098  -0.251   4.022   6.308 -1.2164  1.0730  0.5167
  842MOL0     H11099  -0.386   3.911   6.288 -2.7808 -0.0919 -1.7855
  842MOL0     H11100  -0.475   4.119   6.245  1.2430  0.5238  1.1227
  842MOL0     H11101  -0.473   4.013   6.107 -0.6059  3.1218 -0.2652
  842MOL0     H11102  -0.274   4.138   6.036  2.6158  1.0737  2.5707
  842MOL0     H11103  -0.432   4.228   6.027 -1.0694 -0.8320  0.1000
  842MOL0     H11104  -0.366   4.300   6.274  0.6131 -2.1237  0.0750
  842MOL0     H11105  -0.291   4.388   6.141  0.5318  0.2417  0.5641
  842MOL0     H11106  -0.181   4.310   5.963 -1.2942  2.5038  4.7978
  842MOL0     H11107   0.014   4.323   5.823  2.7467  1.1691 -0.2673
  842MOL0     H11108   0.375   4.108   5.712 -0.4422  0.8961  1.2436
  842MOL0     H11109   0.495   4.070   5.489  1.4621  0.7792 -0.1260
  842MOL0     H11110   0.563   4.429   5.236  0.3155  0.4258 -2.4326
  842MOL0     H11111   0.466   4.286   5.191  2.0591 -2.4584 -0.7012
  842MOL0     H11112   0.766   4.335   5.175 -1.5675  2.4129  0.5072
  842MOL0     H11113   0.664   4.379   5.039 -0.0048 -0.6652 -1.0594
  842MOL0     H11114   0.713   4.177   4.956  0.9418 -0.0653  0.6324
  842MOL0     H11115   0.580   4.131   5.057 -0.9458  2.3526 -0.6393
  842MOL0     H11116   0.860   4.122   5.165 -0.0894 -0.0731 -0.6225
  842MOL0     H11117   0.718   4.044   5.235  0.8681 -1.2855 -0.0956
  842MOL0     H11118   0.693   3.879   5.052 -1.1848  0.3875 -1.0814
  842MOL0     H11119   0.850   3.868   5.126  0.9920  0.5934  1.0021
  842MOL0     H11120   0.959   4.020   4.953 -0.1447  0.4025  0.3220
  842MOL0     H11121   0.807   4.016   4.856  0.0832  1.1265  0.1862
  842MOL0     H11122   0.984   3.850   4.796 -0.9491  1.3045  0.0716
  842MOL0     H11123   0.961   3.767   4.947  0.5271 -0.1721 -0.8022
  842MOL0     H11124   0.726   3.804   4.774  1.2794  0.0188 -2.1271
  842MOL0     H11125   0.767   3.669   4.898  1.6784  0.4774  1.0834
  842MOL0     H11126   0.516   4.497   5.443  0.1778  0.3396 -0.6632
  842MOL0     H11127   0.355   4.531   5.621  0.7989  0.1086 -1.5986
  842MOL0     H11128   0.254   4.206   6.158 -0.1595 -3.3108  0.2532
  842MOL0     H11129   0.051   4.166   6.292  1.3781  0.6230  0.7761
  842MOL0     H11130   1.028   3.488   5.795 -0.6719 -0.8378  0.0081
  842MOL0     H11131   1.257   3.458   5.861  1.4878  0.4781  0.3613
  842MOL0     H11132   1.718   3.820   6.116  3.5843  0.7212  1.2921
  842MOL0     H11133   1.945   3.787   6.086 -1.3710  0.1070  2.0845
  842MOL0     H11134   2.137   3.680   6.093 -2.9022 -1.7646 -0.0504
  842MOL0     H11135   2.169   3.800   5.973 -0.3376 -1.4446 -0.8259
  842MOL0     H11136   2.365   3.725   6.036  1.2335 -0.3774 -0.9250
  842MOL0     H11137   2.333   3.552   6.028  1.3289  0.8367  1.6587
  842MOL0     H11138   2.368   3.747   5.804 -2.7719  0.3668  1.9080
  842MOL0     H11139   2.328   3.581   5.778  0.4220  1.6239 -2.5982
  842MOL0     H11140   2.577   3.678   5.926 -1.7121 -0.0556  0.0387
  842MOL0     H11141   2.535   3.507   5.918  1.6939 -0.2979  2.0237
  842MOL0     H11142   2.706   3.589   5.536  1.4277  0.6911  0.2943
  842MOL0     H11143   1.873   3.531   5.753 -0.2994 -1.3104  1.9130
  842MOL0     H11144   1.632   3.570   5.776  1.6981 -3.1774  1.7303
  843MOL0     O11145   0.890   4.148   0.195  0.0984 -0.8461  0.1919
  843MOL0     C11146   0.882   4.196   0.084 -0.5478 -0.6937  0.7597
  843MOL0     O11147   0.775   4.194  -0.003  0.2708  0.0351 -0.5740
  843MOL0     C11148   0.661   4.136   0.048 -0.1104 -0.7831 -0.6402
  843MOL0     C11149   0.625   4.003   0.034 -0.5089 -0.2516 -0.0281
  843MOL0     C11150   0.518   3.953   0.092  0.2055  0.0928 -0.0118
  843MOL0     C11151   0.425   4.027   0.159 -0.1044  0.1371 -0.3891
  843MOL0     O11152   0.317   3.965   0.204  0.1625 -0.3943  0.1881
  843MOL0     C11153   0.216   4.059   0.262 -0.6404  0.6411 -0.4709
  843MOL0     C11154   0.089   3.989   0.273  0.2240  0.3089 -0.1079
  843MOL0     C11155  -0.033   4.075   0.302 -0.5078 -0.2811  0.2803
  843MOL0     C11156  -0.148   3.991   0.311  0.3005  0.1126 -0.8854
  843MOL0     C11157  -0.275   4.068   0.311 -0.0938  0.1421  0.4526
  843MOL0     C11158  -0.342   4.073   0.167 -0.0017  1.1749  0.0927
  843MOL0     C11159  -0.475   4.146   0.177 -1.5515  0.3667 -0.1810
  843MOL0     C11160  -0.509   4.197   0.037 -0.5313 -0.7227  0.5154
  843MOL0     N11161  -0.649   4.227   0.019 -0.2731 -0.8112 -0.3173
  843MOL0     C11162  -0.733   4.160  -0.072 -0.1268 -0.1535  0.2441
  843MOL0     C11163  -0.847   4.239  -0.080 -0.4171 -0.1157 -0.3595
  843MOL0     C11164  -0.970   4.207  -0.156  0.2361 -0.0189  0.5964
  843MOL0     C11165  -1.088   4.169  -0.065  0.0993 -0.5416 -0.3644
  843MOL0     C11166  -1.077   4.033  -0.004  0.4211  0.2648  0.7570
  843MOL0     C11167  -1.085   3.920  -0.109 -0.3690 -0.2779  0.1621
  843MOL0     O11168  -1.055   3.796  -0.062 -0.5074 -0.2133 -0.7860
  843MOL0     C11169  -0.921   3.745  -0.055 -0.5376  0.3797 -0.3746
  843MOL0     C11170  -0.888   3.652   0.049 -0.2830 -0.3632  0.2692
  843MOL0     C11171  -0.772   3.584   0.046 -0.4584  0.6992  0.0534
  843MOL0     C11172  -0.678   3.600  -0.058 -0.6356 -0.4030  0.5143
  843MOL0     C11173  -0.542   3.536  -0.050  0.4323  0.2821 -0.1042
  843MOL0     O11174  -0.507   3.522   0.082 -0.0296 -0.4921  0.4976
  843MOL0     C11175  -0.376   3.516   0.111 -0.6856  0.4741  0.2803
  843MOL0     C11176  -0.306   3.623   0.178  0.2147 -0.2717 -0.3836
  843MOL0     C11177  -0.178   3.619   0.224 -0.6542 -0.2779  0.0852
  843MOL0     C11178  -0.111   3.491   0.216  0.1179 -0.5224 -0.2582
  843MOL0     O11179   0.019   3.480   0.256 -0.0072  0.5240 -0.1456
  843MOL0     C11180   0.113   3.578   0.207  0.4872  0.3571 -0.1922
  843MOL0     C11181   0.252   3.519   0.198  0.0230  0.1977 -0.0692
  843MOL0     C11182   0.237   3.366   0.170  0.3045  0.2764 -0.2595
  843MOL0     C11183   0.374   3.300   0.130  0.5629 -0.1703 -0.6020
  843MOL0     C11184   0.364   3.148   0.126  0.1714 -1.4709 -0.1118
  843MOL0     C11185   0.505   3.094   0.081  0.4806 -0.7698  0.2671
  843MOL0     C11186   0.512   2.942   0.084 -1.0936 -0.6048 -0.2530
  843MOL0     C11187   0.552   2.897   0.226  0.6386 -0.4720  0.0076
  843MOL0    Cl11188   0.569   2.721   0.243  0.4628 -0.2878  0.0684
  843MOL0     C11189  -0.177   3.379   0.159 -0.6914  0.4208 -0.6466
  843MOL0     C11190  -0.305   3.391   0.110 -0.1528 -0.0157 -0.1098
  843MOL0     O11191  -0.470   3.533  -0.145  0.6474 -0.3437 -0.3377
  843MOL0     C11192  -0.706   3.689  -0.159  0.2551 -0.3370  0.1386
  843MOL0     C11193  -0.830   3.751  -0.162  1.1009 -0.5683 -1.0512
  843MOL0     N11194  -0.828   4.344   0.008 -0.3259  0.0126  0.0471
  843MOL0     N11195  -0.722   4.339   0.063  0.2515 -0.2217  0.5304
  843MOL0     C11196   0.456   4.161   0.179 -0.0562  0.7957 -0.3991
  843MOL0     C11197   0.579   4.214   0.132 -0.5943  0.3457 -0.4100
  843MOL0     C11198   1.001   4.263   0.026  0.5208  0.2076  0.3030
  843MOL0     C11199   1.115   4.269   0.103 -0.3926 -0.4184  0.3480
  843MOL0     C11200   1.228   4.325   0.059 -0.5271  0.1409 -0.7010
  843MOL0     C11201   1.232   4.375  -0.073 -0.7385 -0.2762  0.3779
  843MOL0     O11202   1.362   4.421  -0.105  0.3417  0.0759  0.1865
  843MOL0     C11203   1.382   4.441  -0.247  0.0668 -0.0725  0.6268
  843MOL0     C11204   1.509   4.517  -0.269 -0.4430 -0.1710  0.7783
  843MOL0     C11205   1.536   4.542  -0.424 -0.2977 -0.3904 -0.1912
  843MOL0     C11206   1.662   4.636  -0.440 -0.4916 -0.4034 -0.3171
  843MOL0     C11207   1.784   4.580  -0.384 -0.8545 -0.4753 -1.0262
  843MOL0     C11208   1.890   4.536  -0.338  0.4746  0.0738 -0.0260
  843MOL0     C11209   1.119   4.378  -0.151 -0.7785  0.3731  0.4956
  843MOL0     C11210   0.997   4.325  -0.100 -1.0340 -1.1613  0.2336
  843MOL0     H11211   0.690   3.943  -0.029  0.1837  0.7733 -0.3148
  843MOL0     H11212   0.490   3.853   0.060  1.1993  0.7377 -3.1590
  843MOL0     H11213   0.208   4.142   0.191  0.3511  1.9923  0.9207
  843MOL0     H11214   0.240   4.094   0.363  2.6601 -0.8032 -0.6085
  843MOL0     H11215   0.101   3.908   0.345  2.4494  1.0109  0.3705
  843MOL0     H11216   0.068   3.953   0.172 -1.1535  2.9809 -0.8876
  843MOL0     H11217  -0.051   4.147   0.222 -1.3803 -2.1994 -1.3332
  843MOL0     H11218  -0.018   4.126   0.398 -1.1520 -0.1142  0.2949
  843MOL0     H11219  -0.140   3.923   0.226 -0.7673 -0.3787 -0.6056
  843MOL0     H11220  -0.154   3.926   0.398 -2.6200 -0.6194 -1.5028
  843MOL0     H11221  -0.260   4.166   0.357 -2.2860  0.8636 -0.2547
  843MOL0     H11222  -0.339   4.024   0.388  2.0906  1.8608  3.4869
  843MOL0     H11223  -0.357   3.972   0.128  1.7259  1.1675 -0.6150
  843MOL0     H11224  -0.269   4.125   0.105  0.8402 -0.0409  0.0269
  843MOL0     H11225  -0.554   4.086   0.222  0.5628 -0.4842  2.7512
  843MOL0     H11226  -0.456   4.230   0.245 -0.2436  1.1408 -1.4422
  843MOL0     H11227  -0.480   4.121  -0.036  0.2842  0.3364 -0.3015
  843MOL0     H11228  -0.446   4.287   0.028 -0.4067 -1.0144 -2.3192
  843MOL0     H11229  -0.711   4.076  -0.136 -2.6263 -0.1848 -0.6939
  843MOL0     H11230  -0.936   4.125  -0.221  2.5859  1.9111 -0.7952
  843MOL0     H11231  -1.001   4.294  -0.214  0.5869  0.4007  1.0397
  843MOL0     H11232  -1.179   4.182  -0.124  0.7988  0.6072 -1.2468
  843MOL0     H11233  -1.098   4.240   0.018 -0.0245 -1.2020  0.1901
  843MOL0     H11234  -0.982   4.023   0.049  1.3178 -2.3473 -1.1187
  843MOL0     H11235  -1.162   4.018   0.063 -1.6476  0.9323 -1.5647
  843MOL0     H11236  -1.011   3.950  -0.183  0.7163  1.6462  1.9313
  843MOL0     H11237  -1.183   3.909  -0.158  1.1801 -0.6142 -3.1147
  843MOL0     H11238  -0.958   3.646   0.131 -0.3334 -1.6288  0.1485
  843MOL0     H11239  -0.752   3.526   0.136 -2.8860 -0.2769  0.0399
  843MOL0     H11240  -0.369   3.712   0.182 -0.9465 -1.0948  0.4008
  843MOL0     H11241  -0.126   3.705   0.265 -0.7136 -0.2684  0.1410
  843MOL0     H11242   0.111   3.660   0.279 -3.6580  0.7471 -0.4765
  843MOL0     H11243   0.075   3.612   0.111 -1.8824  2.2031  1.2710
  843MOL0     H11244   0.296   3.531   0.297  0.3208 -3.5730  0.3832
  843MOL0     H11245   0.324   3.563   0.128  2.6951 -0.8283  1.9041
  843MOL0     H11246   0.181   3.364   0.076  1.8121  2.7847 -1.3303
  843MOL0     H11247   0.197   3.311   0.255 -1.6262  1.4930 -0.3245
  843MOL0     H11248   0.386   3.327   0.025  2.0753 -0.6214 -0.5700
  843MOL0     H11249   0.462   3.322   0.190  1.0269 -0.4592 -1.1638
  843MOL0     H11250   0.286   3.117   0.056  0.1878  0.4749 -1.0466
  843MOL0     H11251   0.333   3.112   0.225 -2.0753  1.2354  0.2916
  843MOL0     H11252   0.583   3.138   0.142  0.8101  0.3281 -0.8957
  843MOL0     H11253   0.515   3.123  -0.024  2.0361 -0.0483  0.5862
  843MOL0     H11254   0.427   2.887   0.044  0.7032 -1.7581 -2.8315
  843MOL0     H11255   0.595   2.917   0.017 -0.8933 -0.9454  0.1186
  843MOL0     H11256   0.486   2.918   0.311  0.3252 -0.1643 -0.3085
  843MOL0     H11257   0.652   2.935   0.249  0.7366 -0.1997 -0.8483
  843MOL0     H11258  -0.125   3.285   0.143 -1.9333 -0.3379 -0.3509
  843MOL0     H11259  -0.357   3.300   0.080  0.3277 -0.0761 -0.7685
  843MOL0     H11260  -0.640   3.720  -0.240 -0.3253  2.1101  0.5261
  843MOL0     H11261  -0.852   3.822  -0.240 -0.4915  0.3536  0.1760
  843MOL0     H11262   0.396   4.220   0.246 -3.3370 -0.6732 -1.7934
  843MOL0     H11263   0.609   4.317   0.145  1.0848  0.0617 -1.6496
  843MOL0     H11264   1.117   4.236   0.206  0.7941 -1.0586  0.1414
  843MOL0     H11265   1.312   4.327   0.127 -1.2185  0.6591  0.1627
  843MOL0     H11266   1.305   4.498  -0.300  1.9729  0.4212 -1.8200
  843MOL0     H11267   1.395   4.345  -0.298  2.9943 -0.4580  1.8827
  843MOL0     H11268   1.498   4.613  -0.219 -2.4245  0.1784 -0.2147
  843MOL0     H11269   1.597   4.470  -0.224 -0.7210 -0.6393  0.8422
  843MOL0     H11270   1.459   4.600  -0.475 -1.0505 -1.1746  0.0459
  843MOL0     H11271   1.542   4.449  -0.481 -2.9519 -1.2386  0.7895
  843MOL0     H11272   1.676   4.662  -0.545  1.6081 -1.5484 -0.3606
  843MOL0     H11273   1.640   4.729  -0.386 -0.6752 -0.5446 -0.1483
  843MOL0     H11274   1.970   4.497  -0.279  1.0507  0.2622 -0.6614
  843MOL0     H11275   1.115   4.421  -0.251  1.1971  1.1034  0.6984
  843MOL0     H11276   0.900   4.321  -0.149 -3.6462 -0.4174  4.7691
  844MOL0     O11277   2.629   8.458   7.499 -0.0457  0.1432  0.5485
  844MOL0     C11278   2.688   8.562   7.514  1.0682 -0.1221 -0.4789
  844MOL0     O11279   2.674   8.678   7.442 -0.0920 -0.4454 -0.1509
  844MOL0     C11280   2.592   8.676   7.332  0.7580  0.0244  0.2351
  844MOL0     C11281   2.646   8.659   7.200  0.3997  0.1841 -0.3223
  844MOL0     C11282   2.566   8.664   7.089 -0.2587 -0.6549 -0.5726
  844MOL0     C11283   2.427   8.691   7.112  0.1290  1.3910  0.7184
  844MOL0     O11284   2.353   8.695   6.994 -0.0701 -0.2712 -1.1246
  844MOL0     C11285   2.217   8.737   7.007  0.2991 -0.0577 -0.1438
  844MOL0     C11286   2.142   8.721   6.877 -0.7580 -0.3817 -0.3889
  844MOL0     C11287   2.014   8.802   6.876 -0.3618 -0.1892 -0.1358
  844MOL0     C11288   1.961   8.786   6.735 -0.4723 -0.3016  0.1444
  844MOL0     C11289   1.830   8.846   6.687 -0.0885 -0.1153 -0.0194
  844MOL0     C11290   1.711   8.829   6.785 -0.0408 -0.1481 -0.6505
  844MOL0     C11291   1.576   8.894   6.729  0.1849 -0.2795  0.2287
  844MOL0     C11292   1.459   8.825   6.791  0.0639  0.0274  0.4674
  844MOL0     N11293   1.331   8.869   6.740  0.1575  0.3717  0.4772
  844MOL0     C11294   1.284   8.993   6.759  0.7494  0.3846 -1.0266
  844MOL0     C11295   1.157   8.987   6.714  0.4250 -0.2786 -0.1359
  844MOL0     C11296   1.066   9.093   6.747  0.8046  0.2451 -1.7314
  844MOL0     C11297   1.061   9.194   6.636 -0.0341  0.0148 -0.4928
  844MOL0     C11298   0.938   9.278   6.672 -0.5389 -0.2284 -0.2560
  844MOL0     C11299   0.931   9.405   6.588  0.3427 -0.6970 -0.3434
  844MOL0     O11300   1.055   9.488   6.594  0.2723 -0.4361  0.1322
  844MOL0     C11301   1.070   9.599   6.516  0.9703 -0.1221 -0.3781
  844MOL0     C11302   1.171   9.605   6.426  0.1658 -0.3549  0.1661
  844MOL0     C11303   1.174   9.706   6.322 -0.1852  0.6248  0.7043
  844MOL0     C11304   1.069   9.798   6.313  0.2016  0.4850  0.6580
  844MOL0     C11305   1.069   9.904   6.211 -0.2167 -0.2972 -0.5246
  844MOL0     O11306   0.961   9.997   6.194  0.0538  0.2262 -0.4281
  844MOL0     C11307   0.976  10.085   6.098 -0.5360 -1.4309 -0.0435
  844MOL0     C11308   1.091  10.159   6.076 -0.1408 -0.1334  0.2948
  844MOL0     C11309   1.100  10.249   5.973 -0.1099 -0.0371 -0.6331
  844MOL0     C11310   0.998  10.274   5.887 -0.2043  0.4417  1.3053
  844MOL0     O11311   1.034  10.369   5.785  0.2677  0.4045 -0.5388
  844MOL0     C11312   0.932  10.401   5.685  0.4394 -0.0351 -0.5352
  844MOL0     C11313   1.000  10.460   5.560  0.0494  0.2444 -0.0237
  844MOL0     C11314   0.909  10.466   5.429  0.3599 -0.6077  0.0074
  844MOL0     C11315   0.777  10.538   5.455 -0.0649 -0.3087 -0.3862
  844MOL0     C11316   0.713  10.602   5.328  0.1624 -0.1203 -0.6070
  844MOL0     C11317   0.622  10.719   5.361 -0.0846 -0.0181 -0.3762
  844MOL0     C11318   0.554  10.794   5.248 -0.5239  0.0484 -0.1675
  844MOL0     C11319   0.401  10.811   5.265 -0.1102  0.2892 -0.4911
  844MOL0    Cl11320   0.329  10.647   5.253  0.1794  0.7124 -0.3024
  844MOL0     C11321   0.879  10.212   5.915  0.3699  0.1669  0.7431
  844MOL0     C11322   0.862  10.122   6.015  0.2157  0.7816 -1.0681
  844MOL0     O11323   1.165   9.901   6.137  0.0689 -0.3271  0.3264
  844MOL0     C11324   0.964   9.787   6.405 -0.3384 -0.1272  0.6238
  844MOL0     C11325   0.962   9.681   6.500  0.6391  0.8290  0.1324
  844MOL0     N11326   1.135   8.868   6.652  0.0008 -0.4782  0.3805
  844MOL0     N11327   1.244   8.800   6.670 -0.3741  0.3953 -0.1873
  844MOL0     C11328   2.377   8.711   7.239  0.1316  0.9594  0.0440
  844MOL0     C11329   2.462   8.705   7.343  0.0272  0.2099  0.2937
  844MOL0     C11330   2.772   8.565   7.640  0.3850  0.0557  0.2988
  844MOL0     C11331   2.773   8.461   7.729 -0.2750 -0.1864 -0.3436
  844MOL0     C11332   2.842   8.464   7.845  0.0961  0.9213 -0.1329
  844MOL0     C11333   2.929   8.573   7.863  0.4320 -0.7435  0.1989
  844MOL0     O11334   3.011   8.559   7.974 -0.5371  0.2487 -0.2941
  844MOL0     C11335   3.143   8.613   7.972  0.1885 -0.0140 -0.4426
  844MOL0     C11336   3.224   8.559   7.850 -0.3311 -0.3375 -0.2003
  844MOL0     C11337   3.378   8.585   7.862  0.2046 -0.4902  0.3032
  844MOL0     C11338   3.455   8.503   7.761 -0.0031  0.6046  0.3415
  844MOL0     C11339   3.457   8.351   7.773 -0.1970 -0.3756 -0.5393
  844MOL0     C11340   3.470   8.230   7.783  0.6995  0.3443  0.8618
  844MOL0     C11341   2.934   8.687   7.774  0.2373  0.8615 -0.0029
  844MOL0     C11342   2.855   8.677   7.662  0.7113 -0.5712  0.6550
  844MOL0     H11343   2.747   8.621   7.192  0.0943 -0.3249 -2.2125
  844MOL0     H11344   2.601   8.662   6.986 -1.7624  2.8520 -1.3102
  844MOL0     H11345   2.215   8.843   7.037  0.2323  0.5450 -2.1599
  844MOL0     H11346   2.168   8.665   7.073  0.7217 -3.2818 -3.1067
  844MOL0     H11347   2.122   8.616   6.854 -0.5145 -0.4867 -0.1280
  844MOL0     H11348   2.216   8.760   6.805 -0.2407  2.2590  1.4106
  844MOL0     H11349   2.035   8.902   6.914 -0.8656  0.7348 -2.1603
  844MOL0     H11350   1.938   8.758   6.941 -0.4875 -0.6975 -0.6216
  844MOL0     H11351   2.039   8.816   6.665 -0.9395 -0.2286 -0.3551
  844MOL0     H11352   1.947   8.679   6.714 -1.0880 -0.2000  0.0311
  844MOL0     H11353   1.797   8.801   6.593 -2.4404 -1.9966  1.5670
  844MOL0     H11354   1.859   8.950   6.673  0.0254 -0.3891 -2.0855
  844MOL0     H11355   1.729   8.868   6.886 -1.9368  0.4890 -0.5355
  844MOL0     H11356   1.695   8.721   6.799  0.5290 -0.3240 -1.2802
  844MOL0     H11357   1.586   9.000   6.758 -0.9041 -0.8098  2.8556
  844MOL0     H11358   1.575   8.900   6.620 -3.6094  2.5022  0.1978
  844MOL0     H11359   1.459   8.843   6.899 -1.5744 -0.5253  0.5939
  844MOL0     H11360   1.461   8.716   6.779  1.8765  0.0097  0.6477
  844MOL0     H11361   1.328   9.075   6.815 -1.2334  1.3224 -0.7709
  844MOL0     H11362   1.106   9.143   6.835 -1.0900  3.4448 -2.5178
  844MOL0     H11363   0.963   9.056   6.759  1.7459 -1.6261  1.4577
  844MOL0     H11364   1.050   9.137   6.544 -2.2439 -1.1884  0.4548
  844MOL0     H11365   1.150   9.258   6.641  0.5988 -0.8104 -0.9873
  844MOL0     H11366   0.838   9.234   6.669 -1.3145  1.5090 -3.1305
  844MOL0     H11367   0.950   9.318   6.774 -1.5445  1.1135 -0.6323
  844MOL0     H11368   0.852   9.470   6.629  0.6258 -1.4018  1.4091
  844MOL0     H11369   0.916   9.380   6.483 -4.2970  1.9488 -0.5972
  844MOL0     H11370   1.253   9.534   6.430  1.3883  0.8388 -1.8486
  844MOL0     H11371   1.254   9.702   6.249 -0.8075 -0.4250  0.0470
  844MOL0     H11372   1.186  10.149   6.129  3.4109  0.7607 -5.1216
  844MOL0     H11373   1.191  10.308   5.963  0.2148 -0.0315  1.7527
  844MOL0     H11374   0.861  10.472   5.728 -0.2086 -1.0866  0.1740
  844MOL0     H11375   0.878  10.308   5.663 -0.9711  0.4754  0.6610
  844MOL0     H11376   1.088  10.396   5.546  0.5749  0.4278  2.1626
  844MOL0     H11377   1.041  10.558   5.587 -0.5902  0.4958  0.0628
  844MOL0     H11378   0.881  10.370   5.386 -3.9708 -0.1051  1.2744
  844MOL0     H11379   0.965  10.526   5.357  1.0247 -1.2838 -0.0465
  844MOL0     H11380   0.710  10.468   5.507  0.1339 -1.1481 -1.2459
  844MOL0     H11381   0.800  10.622   5.522 -1.2239 -0.0559 -0.2840
  844MOL0     H11382   0.657  10.533   5.263  0.6130  0.5335 -1.7191
  844MOL0     H11383   0.787  10.647   5.262  2.4476 -2.1586  0.3952
  844MOL0     H11384   0.680  10.792   5.417 -0.8285  1.3672 -1.3573
  844MOL0     H11385   0.546  10.679   5.428  2.1532 -1.3401  1.5189
  844MOL0     H11386   0.609  10.888   5.242  0.5958 -0.4707  1.2795
  844MOL0     H11387   0.569  10.735   5.158  1.4187  0.0093  0.1357
  844MOL0     H11388   0.345  10.877   5.199 -2.8173 -2.4776 -1.1728
  844MOL0     H11389   0.393  10.847   5.368  0.9149  2.7609 -1.1995
  844MOL0     H11390   0.796  10.228   5.848  1.0275 -0.1417 -0.1786
  844MOL0     H11391   0.768  10.068   6.029  1.5612 -1.1076  1.7092
  844MOL0     H11392   0.894   9.869   6.394 -0.4733 -0.3653 -0.3893
  844MOL0     H11393   0.876   9.669   6.565  1.4871 -1.9445  0.8740
  844MOL0     H11394   2.273   8.724   7.270  1.2487  0.6167  4.7812
  844MOL0     H11395   2.420   8.713   7.443 -1.0584 -3.0108  0.2323
  844MOL0     H11396   2.709   8.379   7.697 -0.0368 -0.2140 -0.7513
  844MOL0     H11397   2.844   8.383   7.917  0.5327  1.2799  0.2576
  844MOL0     H11398   3.191   8.591   8.068 -1.5495  3.0243  1.2564
  844MOL0     H11399   3.132   8.721   7.965 -3.0118 -0.1480  0.9072
  844MOL0     H11400   3.215   8.450   7.840  1.1783 -0.3557 -1.7734
  844MOL0     H11401   3.180   8.588   7.755 -2.0760 -2.1549 -0.0107
  844MOL0     H11402   3.394   8.554   7.966 -1.9495 -3.2556 -0.0667
  844MOL0     H11403   3.401   8.690   7.844 -1.9713 -0.2447 -1.5298
  844MOL0     H11404   3.420   8.531   7.661  1.0203  1.6723  0.2657
  844MOL0     H11405   3.559   8.534   7.772  0.4391 -0.3651 -0.9021
  844MOL0     H11406   3.479   8.124   7.799  1.9579  0.6097  2.0431
  844MOL0     H11407   3.010   8.760   7.798  2.4889 -2.1455  3.0784
  844MOL0     H11408   2.849   8.756   7.587  1.5637  0.8854  2.0390
  845MOL0     O11409   3.233  10.761   3.815  0.0538 -0.0823 -0.0682
  845MOL0     C11410   3.326  10.714   3.888  0.7477  0.2522 -0.3001
  845MOL0     O11411   3.305  10.617   3.978 -0.2892  0.7662  0.3352
  845MOL0     C11412   3.181  10.585   4.024  0.0358 -0.3146  0.1075
  845MOL0     C11413   3.138  10.453   4.022  0.9191 -0.0590  0.9097
  845MOL0     C11414   3.010  10.408   4.063  0.5728 -0.2219 -0.9162
  845MOL0     C11415   2.918  10.501   4.105 -0.2454 -0.7684 -0.4925
  845MOL0     O11416   2.802  10.453   4.154 -0.4788  0.0365 -0.6604
  845MOL0     C11417   2.765  10.503   4.284  0.1718  0.1190  0.5449
  845MOL0     C11418   2.664  10.419   4.355  0.0886  0.4889  0.5101
  845MOL0     C11419   2.621  10.484   4.487 -0.8274 -0.5212 -0.0413
  845MOL0     C11420   2.546  10.392   4.580 -0.2744  0.5004 -0.1941
  845MOL0     C11421   2.392  10.376   4.544  0.3866 -0.3404 -0.0781
  845MOL0     C11422   2.307  10.507   4.551  0.0865 -1.1462 -0.2820
  845MOL0     C11423   2.159  10.462   4.538  0.5570 -0.1559  0.3342
  845MOL0     C11424   2.067  10.586   4.497 -0.0617 -0.5497  0.0873
  845MOL0     N11425   1.928  10.580   4.527 -0.4175  0.0447 -0.4287
  845MOL0     C11426   1.849  10.694   4.547 -0.0588  0.0731  0.5306
  845MOL0     C11427   1.736  10.651   4.598 -0.0999 -0.2549  0.7361
  845MOL0     C11428   1.615  10.744   4.623 -0.5460  0.2027 -0.1782
  845MOL0     C11429   1.515  10.763   4.512 -0.2962  0.1669 -0.5609
  845MOL0     C11430   1.405  10.861   4.571 -0.1197 -0.3354  0.6438
  845MOL0     C11431   1.293  10.855   4.475  0.1538  0.2974 -0.1292
  845MOL0     O11432   1.219  10.973   4.507  0.4477 -0.3776  0.3190
  845MOL0     C11433   1.081  10.972   4.487  0.3093  0.1653  0.3983
  845MOL0     C11434   1.005  11.068   4.551 -0.5684  0.2233  0.1314
  845MOL0     C11435   0.867  11.074   4.534  0.4995 -0.7857 -0.1852
  845MOL0     C11436   0.797  10.976   4.468  0.5342  0.3007 -0.5236
  845MOL0     C11437   0.644  10.975   4.464 -0.2102  0.3040  0.5579
  845MOL0     O11438   0.580  10.883   4.385  0.5464 -0.1102 -0.0992
  845MOL0     C11439   0.441  10.881   4.390 -0.2522  0.8324 -0.1919
  845MOL0     C11440   0.366  10.984   4.330  0.0232  0.0841  0.1709
  845MOL0     C11441   0.237  10.948   4.311  0.0434 -0.2327 -0.5729
  845MOL0     C11442   0.178  10.827   4.345  0.5401 -0.1503 -0.0501
  845MOL0     O11443   0.045  10.806   4.317  0.1809  0.0759 -0.0402
  845MOL0     C11444  -0.035  10.790   4.434  0.6683 -0.3269 -0.5540
  845MOL0     C11445  -0.129  10.906   4.435 -0.1186 -0.0863 -0.1557
  845MOL0     C11446  -0.257  10.893   4.345  0.2176 -0.9303  0.0127
  845MOL0     C11447  -0.344  11.022   4.352 -0.4368 -0.1240 -0.4740
  845MOL0     C11448  -0.455  11.006   4.257  0.4105 -0.5798  0.0693
  845MOL0     C11449  -0.538  11.130   4.252 -0.1527 -0.3610  0.5356
  845MOL0     C11450  -0.668  11.088   4.178 -0.3406  0.6156  0.5315
  845MOL0     C11451  -0.721  11.214   4.098  1.7688 -1.3071 -0.0798
  845MOL0    Cl11452  -0.699  11.208   3.918 -0.0599 -0.0891 -0.4262
  845MOL0     C11453   0.258  10.728   4.409  0.5145 -0.5780 -0.1681
  845MOL0     C11454   0.390  10.760   4.428  0.3709 -0.0818  0.3205
  845MOL0     O11455   0.591  11.042   4.549 -0.3850 -0.1493 -0.2622
  845MOL0     C11456   0.875  10.871   4.405 -0.0979 -0.9490  0.2820
  845MOL0     C11457   1.017  10.874   4.409 -0.3398 -0.3511  0.0029
  845MOL0     N11458   1.737  10.513   4.604  0.5849 -0.0564 -0.2653
  845MOL0     N11459   1.855  10.476   4.577 -0.6752 -0.6102 -0.3177
  845MOL0     C11460   2.947  10.634   4.106  0.3935  0.4230 -0.2393
  845MOL0     C11461   3.078  10.673   4.054 -0.7296 -0.5556  0.8201
  845MOL0     C11462   3.465  10.772   3.874  0.4913 -0.5668  0.1466
  845MOL0     C11463   3.489  10.881   3.788  0.2167  0.0984 -0.7183
  845MOL0     C11464   3.615  10.939   3.775 -0.1979 -0.6044 -0.1574
  845MOL0     C11465   3.723  10.891   3.856 -0.0917  0.1025 -0.0241
  845MOL0     O11466   3.852  10.953   3.845  0.7524 -0.3721 -0.3860
  845MOL0     C11467   3.967  10.888   3.904 -0.0029 -0.1717  0.4613
  845MOL0     C11468   4.095  10.969   3.877  0.6941 -0.9737 -0.7219
  845MOL0     C11469   4.209  10.940   3.974 -0.1347 -0.1900 -0.0808
  845MOL0     C11470   4.341  11.010   3.940 -0.0580  0.6860  0.0603
  845MOL0     C11471   4.426  10.995   4.063 -0.4133  0.0982 -0.9169
  845MOL0     C11472   4.494  10.971   4.166  0.9905 -0.0311 -0.3598
  845MOL0     C11473   3.701  10.777   3.934 -0.1472  0.1479 -0.2094
  845MOL0     C11474   3.570  10.715   3.938 -1.3573 -0.2889 -1.2062
  845MOL0     H11475   3.213  10.388   3.977 -0.5415 -0.8835 -0.4098
  845MOL0     H11476   2.987  10.303   4.076 -0.4928  0.1114  0.1702
  845MOL0     H11477   2.718  10.602   4.284  0.8864  0.4630  0.1867
  845MOL0     H11478   2.856  10.528   4.340  1.5708  0.6360 -1.8421
  845MOL0     H11479   2.712  10.325   4.384  2.2712  1.7898  1.3670
  845MOL0     H11480   2.571  10.410   4.297  0.4330  1.1907 -0.1642
  845MOL0     H11481   2.561  10.575   4.475 -1.3091 -0.8323 -0.0427
  845MOL0     H11482   2.708  10.513   4.546  0.0951 -0.0749 -1.5783
  845MOL0     H11483   2.587  10.291   4.583 -0.0498  0.5565  3.1953
  845MOL0     H11484   2.558  10.426   4.684 -0.1307  1.2582 -0.4492
  845MOL0     H11485   2.347  10.299   4.608  1.4291 -1.6885 -0.8945
  845MOL0     H11486   2.376  10.332   4.445 -0.5194 -0.0201 -0.0803
  845MOL0     H11487   2.338  10.566   4.464 -1.6939 -1.3637 -1.1307
  845MOL0     H11488   2.326  10.567   4.640 -0.7779  0.3381 -1.0655
  845MOL0     H11489   2.147  10.378   4.469 -2.5742 -1.6384  2.4215
  845MOL0     H11490   2.116  10.428   4.633 -1.0647 -0.4229 -0.4639
  845MOL0     H11491   2.075  10.619   4.393 -0.9285  0.5591  0.3556
  845MOL0     H11492   2.100  10.676   4.549  0.0368  0.8169 -2.1828
  845MOL0     H11493   1.875  10.794   4.516  1.5003 -0.5640 -0.3409
  845MOL0     H11494   1.662  10.841   4.644 -0.9557  0.8280 -1.9759
  845MOL0     H11495   1.569  10.716   4.719 -0.2087 -1.4164 -0.4620
  845MOL0     H11496   1.486  10.666   4.470  3.8263 -0.3011 -2.9121
  845MOL0     H11497   1.561  10.817   4.428  0.6884  1.5419  0.8038
  845MOL0     H11498   1.363  10.819   4.663 -0.1331 -0.4687  0.5772
  845MOL0     H11499   1.442  10.961   4.597  1.1333 -0.4350 -0.6028
  845MOL0     H11500   1.231  10.766   4.490  0.3651 -0.4025 -2.8687
  845MOL0     H11501   1.325  10.850   4.371  1.1330 -1.1201  0.2041
  845MOL0     H11502   1.048  11.140   4.620  2.5551 -1.0378 -0.3406
  845MOL0     H11503   0.803  11.140   4.592 -0.2539 -1.9405  0.3310
  845MOL0     H11504   0.414  11.069   4.284 -0.4975  0.2432 -0.0724
  845MOL0     H11505   0.180  11.027   4.264 -1.5667 -1.2741 -0.4429
  845MOL0     H11506   0.021  10.808   4.526 -0.9685 -0.2241  0.4601
  845MOL0     H11507  -0.096  10.700   4.438 -0.3484  0.3636 -0.0944
  845MOL0     H11508  -0.068  10.990   4.402  0.3199 -0.0648  0.6788
  845MOL0     H11509  -0.150  10.922   4.542 -0.8261 -0.4257 -0.2332
  845MOL0     H11510  -0.302  10.800   4.380  2.2558 -1.4160  1.4654
  845MOL0     H11511  -0.219  10.880   4.244 -1.1636 -1.1319 -0.5057
  845MOL0     H11512  -0.378  11.038   4.455  3.6917  3.0842  0.6864
  845MOL0     H11513  -0.283  11.108   4.322  0.4022 -1.5735 -3.2424
  845MOL0     H11514  -0.517  10.921   4.287 -0.0866  1.1923  4.9817
  845MOL0     H11515  -0.419  10.998   4.154  0.7155 -1.3904  0.2321
  845MOL0     H11516  -0.483  11.210   4.200  0.9159 -0.2217  1.8178
  845MOL0     H11517  -0.546  11.175   4.351  1.6442  0.7751  0.2193
  845MOL0     H11518  -0.652  11.009   4.105 -0.3210  0.8639  0.2675
  845MOL0     H11519  -0.747  11.042   4.239  0.4667 -2.1695 -0.3959
  845MOL0     H11520  -0.668  11.303   4.133  1.9664 -1.1994 -0.6320
  845MOL0     H11521  -0.823  11.240   4.124  2.5727 -0.0544  2.1129
  845MOL0     H11522   0.205  10.640   4.444 -0.2680  0.1465  0.4990
  845MOL0     H11523   0.455  10.692   4.482  1.4795  0.3200 -0.4739
  845MOL0     H11524   0.831  10.782   4.361 -2.7884  0.3591  0.0818
  845MOL0     H11525   1.077  10.800   4.357  0.3837  0.2722 -0.0625
  845MOL0     H11526   2.863  10.699   4.127 -0.1344 -0.3819  0.2162
  845MOL0     H11527   3.097  10.779   4.065 -1.3345 -0.6005  2.7089
  845MOL0     H11528   3.411  10.921   3.724  0.0234  0.2281 -0.4053
  845MOL0     H11529   3.634  11.031   3.721 -1.2501  1.0501  2.1166
  845MOL0     H11530   3.993  10.786   3.873  0.4688  1.1713 -4.3795
  845MOL0     H11531   3.961  10.888   4.013 -1.4689  3.0777  0.4810
  845MOL0     H11532   4.127  10.954   3.773 -2.0255  2.0105 -2.1676
  845MOL0     H11533   4.064  11.074   3.888 -0.8876 -1.5620  0.9117
  845MOL0     H11534   4.226  10.832   3.987 -0.0205 -0.5291 -2.5347
  845MOL0     H11535   4.165  10.977   4.067  1.1628 -0.3356  0.6216
  845MOL0     H11536   4.383  10.959   3.853 -0.1494 -0.7689  0.8408
  845MOL0     H11537   4.322  11.112   3.905  1.5627 -0.0528 -3.4118
  845MOL0     H11538   4.568  10.936   4.235 -0.9907 -3.0957  0.4062
  845MOL0     H11539   3.784  10.730   3.986 -1.6978  0.5093  2.7356
  845MOL0     H11540   3.560  10.627   4.001 -2.1105 -1.3499 -2.7337
  846MOL0     O11541   4.770   4.383   9.088  0.3511  0.3312 -0.4180
  846MOL0     C11542   4.797   4.289   9.169 -0.5783  0.1867 -0.3496
  846MOL0     O11543   4.706   4.214   9.233 -0.2892  0.3295  0.0529
  846MOL0     C11544   4.573   4.233   9.229  0.0975  0.6984  1.0400
  846MOL0     C11545   4.502   4.254   9.102  0.6710 -0.0530  0.2594
  846MOL0     C11546   4.359   4.253   9.101 -0.3422 -0.7553  0.2481
  846MOL0     C11547   4.287   4.251   9.229 -0.8143 -0.3473 -0.2164
  846MOL0     O11548   4.155   4.257   9.212 -0.0905  0.0916 -0.0614
  846MOL0     C11549   4.060   4.190   9.291 -0.0730  0.0796  0.4055
  846MOL0     C11550   3.979   4.090   9.197 -0.1930 -0.1385 -0.5118
  846MOL0     C11551   3.874   4.004   9.276 -0.1368  0.4332 -0.3003
  846MOL0     C11552   3.723   4.041   9.244  0.2407 -0.1465  0.5885
  846MOL0     C11553   3.667   3.970   9.118 -0.1839  0.4893 -0.1829
  846MOL0     C11554   3.662   3.818   9.134 -0.1825 -0.1497  0.5848
  846MOL0     C11555   3.519   3.768   9.172 -0.5992  0.4697 -0.2646
  846MOL0     C11556   3.535   3.619   9.207  0.9190 -0.4471 -0.4948
  846MOL0     N11557   3.407   3.554   9.230  0.1199 -0.2451 -0.5485
  846MOL0     C11558   3.285   3.586   9.161  0.4203 -0.0665 -0.4078
  846MOL0     C11559   3.206   3.478   9.189 -0.3147  0.2202  0.7382
  846MOL0     C11560   3.066   3.455   9.161  0.6469 -0.1200 -0.1922
  846MOL0     C11561   2.973   3.524   9.266  0.1480 -0.5346 -0.4017
  846MOL0     C11562   2.831   3.458   9.253 -0.9583 -0.4856  0.5479
  846MOL0     C11563   2.743   3.515   9.357 -0.7332 -0.6650 -1.1406
  846MOL0     O11564   2.641   3.418   9.353  0.5617  0.0115 -0.7248
  846MOL0     C11565   2.521   3.461   9.410  0.4003  0.2515  1.2888
  846MOL0     C11566   2.496   3.586   9.471  0.1198 -0.1843 -0.3062
  846MOL0     C11567   2.376   3.626   9.529  0.6026 -0.2890 -0.0551
  846MOL0     C11568   2.271   3.538   9.520  0.5454 -0.4324 -0.3159
  846MOL0     C11569   2.135   3.568   9.579  0.0861 -0.5296  0.8796
  846MOL0     O11570   2.033   3.471   9.584  0.5008 -0.6401 -0.3563
  846MOL0     C11571   1.907   3.506   9.617  0.3177  0.4170  0.1869
  846MOL0     C11572   1.836   3.608   9.552 -0.1208  0.2362  0.0071
  846MOL0     C11573   1.701   3.637   9.597 -0.7378 -0.6375 -0.7114
  846MOL0     C11574   1.646   3.571   9.707  0.4917  0.0266 -0.1004
  846MOL0     O11575   1.516   3.607   9.746 -1.0162 -0.2562  0.6565
  846MOL0     C11576   1.432   3.507   9.791 -0.2928 -0.3940 -0.2664
  846MOL0     C11577   1.288   3.560   9.768 -0.2221  1.0438 -0.1776
  846MOL0     C11578   1.175   3.462   9.779 -0.0009 -0.1431  0.0906
  846MOL0     C11579   1.047   3.536   9.777  0.2851 -0.2696 -0.7156
  846MOL0     C11580   0.922   3.458   9.729  0.1337  0.2171 -0.0945
  846MOL0     C11581   0.926   3.408   9.585  0.3254 -0.3185 -1.0848
  846MOL0     C11582   0.786   3.355   9.554  0.0363 -0.7047  1.0342
  846MOL0     C11583   0.784   3.278   9.420  0.0012 -0.8489 -0.2353
  846MOL0    Cl11584   0.877   3.374   9.285  0.2724 -0.0939 -0.4381
  846MOL0     C11585   1.718   3.471   9.766 -0.2652  0.6442  0.6663
  846MOL0     C11586   1.844   3.442   9.721 -0.4300  0.0001  0.0958
  846MOL0     O11587   2.120   3.683   9.622 -0.2119 -0.2020  0.9170
  846MOL0     C11588   2.280   3.423   9.444  0.1102  0.6660 -0.5343
  846MOL0     C11589   2.408   3.375   9.402  0.3925 -0.4659 -0.4693
  846MOL0     N11590   3.284   3.390   9.263 -0.2389  0.2268  0.0499
  846MOL0     N11591   3.403   3.439   9.296 -0.1254 -0.9491 -0.4268
  846MOL0     C11592   4.357   4.235   9.351  0.2384  0.0821  0.2502
  846MOL0     C11593   4.489   4.215   9.343  0.4248  0.0333 -0.6189
  846MOL0     C11594   4.940   4.273   9.199 -0.3155  0.8936  0.5482
  846MOL0     C11595   5.037   4.308   9.106 -0.3899 -0.3384 -0.1328
  846MOL0     C11596   5.169   4.320   9.144 -0.6153 -0.1043 -0.6291
  846MOL0     C11597   5.211   4.264   9.272 -0.4687 -0.5649  0.3921
  846MOL0     O11598   5.334   4.259   9.324 -0.5677  0.0713  0.1697
  846MOL0     C11599   5.445   4.277   9.231  0.1042 -0.7706 -0.9466
  846MOL0     C11600   5.584   4.266   9.304 -0.2969  0.6898  0.1836
  846MOL0     C11601   5.622   4.393   9.385 -0.8041  0.0235 -0.0510
  846MOL0     C11602   5.601   4.369   9.535  0.3373 -0.6209 -0.6368
  846MOL0     C11603   5.631   4.493   9.610 -0.3749 -0.1130 -0.2401
  846MOL0     C11604   5.651   4.610   9.655 -0.5197  0.0712  0.1976
  846MOL0     C11605   5.113   4.217   9.358  0.3147  0.0217  0.3444
  846MOL0     C11606   4.977   4.229   9.329  0.0966  0.2750 -0.7340
  846MOL0     H11607   4.560   4.259   9.010  0.4018 -1.5908 -0.0203
  846MOL0     H11608   4.303   4.250   9.008  1.3011  0.7157 -0.8664
  846MOL0     H11609   3.992   4.266   9.329  0.9862  0.3955  1.7202
  846MOL0     H11610   4.108   4.137   9.374 -2.1625 -0.8551  1.0964
  846MOL0     H11611   4.053   4.025   9.149  0.4616 -0.3925  0.8045
  846MOL0     H11612   3.936   4.150   9.116  0.5017  0.0277 -0.7660
  846MOL0     H11613   3.883   4.022   9.384 -4.0620 -2.8091  0.8343
  846MOL0     H11614   3.881   3.896   9.262 -0.6838  0.1383  1.4423
  846MOL0     H11615   3.655   4.014   9.325 -0.7046  2.1947  0.6780
  846MOL0     H11616   3.710   4.150   9.235 -0.9859 -0.4098 -1.3959
  846MOL0     H11617   3.733   3.979   9.032  2.9613 -2.7529  1.6205
  846MOL0     H11618   3.573   4.023   9.098 -0.7370 -0.6705 -0.7115
  846MOL0     H11619   3.737   3.777   9.202 -2.0164 -0.4621  2.5179
  846MOL0     H11620   3.682   3.780   9.033 -2.7944  1.2986 -0.5797
  846MOL0     H11621   3.498   3.828   9.261  2.2374 -0.9582  1.5411
  846MOL0     H11622   3.444   3.788   9.095 -0.3394  0.9852 -0.3885
  846MOL0     H11623   3.603   3.608   9.292  0.5028 -3.1800 -0.4431
  846MOL0     H11624   3.597   3.558   9.141  1.2527 -1.4179  0.6852
  846MOL0     H11625   3.256   3.676   9.108 -1.1390 -0.3486 -0.0636
  846MOL0     H11626   3.052   3.346   9.168  1.3250 -0.2055 -0.0985
  846MOL0     H11627   3.032   3.505   9.070 -3.2047  1.0368  1.6889
  846MOL0     H11628   2.978   3.632   9.248  3.3076 -0.5332 -0.1082
  846MOL0     H11629   3.005   3.506   9.369  0.1185  4.6723  0.7623
  846MOL0     H11630   2.791   3.473   9.153  0.1137 -1.8475 -0.1218
  846MOL0     H11631   2.853   3.351   9.264  2.1476  0.2121  2.6232
  846MOL0     H11632   2.717   3.613   9.316  1.5627  0.1288 -0.8033
  846MOL0     H11633   2.788   3.531   9.455  0.3347  0.4874 -1.7970
  846MOL0     H11634   2.573   3.662   9.470 -0.0328 -0.0232 -1.6394
  846MOL0     H11635   2.365   3.722   9.579  1.2436  0.1403 -0.7210
  846MOL0     H11636   1.875   3.661   9.465 -1.1302 -0.6239 -1.0139
  846MOL0     H11637   1.646   3.712   9.540 -0.3085 -0.7276 -1.2495
  846MOL0     H11638   1.444   3.485   9.898 -0.8311  0.1354 -0.0900
  846MOL0     H11639   1.447   3.413   9.738  4.5675 -0.3492  0.5682
  846MOL0     H11640   1.283   3.608   9.670 -0.3479  0.4754 -0.4512
  846MOL0     H11641   1.269   3.631   9.849  0.0341 -1.8884  2.6651
  846MOL0     H11642   1.180   3.397   9.867 -2.4914 -0.3073  0.1795
  846MOL0     H11643   1.192   3.395   9.695 -1.7500 -1.6451  0.8680
  846MOL0     H11644   1.034   3.579   9.877  0.2175 -0.0145 -0.8324
  846MOL0     H11645   1.061   3.617   9.705  0.3802 -0.2431 -0.6680
  846MOL0     H11646   0.835   3.521   9.747  1.0959  1.4924  0.2568
  846MOL0     H11647   0.903   3.372   9.793 -3.0317 -1.1335 -2.5573
  846MOL0     H11648   1.002   3.328   9.583  1.6563  0.8384  0.2956
  846MOL0     H11649   0.959   3.490   9.521  1.6811 -0.5024 -0.6735
  846MOL0     H11650   0.744   3.286   9.628 -1.8683 -2.1625 -1.2727
  846MOL0     H11651   0.720   3.443   9.549  1.1469  0.1069 -3.6543
  846MOL0     H11652   0.680   3.268   9.388 -0.3664 -0.4787  0.8138
  846MOL0     H11653   0.835   3.183   9.436 -4.0202 -3.0353  0.7587
  846MOL0     H11654   1.669   3.424   9.851 -3.2624 -1.0089 -1.7928
  846MOL0     H11655   1.900   3.362   9.769 -2.7923 -1.1078  1.1396
  846MOL0     H11656   2.202   3.348   9.435  0.4160  0.1206  0.9375
  846MOL0     H11657   2.417   3.278   9.355  0.0728 -0.6156 -0.2271
  846MOL0     H11658   4.303   4.224   9.444 -0.1063 -3.5753 -0.2091
  846MOL0     H11659   4.537   4.189   9.437  0.3984  1.4247 -0.1932
  846MOL0     H11660   5.002   4.338   9.008 -1.9790  2.1635  1.1024
  846MOL0     H11661   5.244   4.371   9.084 -0.4039 -1.3549 -1.4727
  846MOL0     H11662   5.441   4.372   9.178 -0.5434 -0.3225 -0.1060
  846MOL0     H11663   5.436   4.196   9.157 -0.1211  0.5228 -2.3914
  846MOL0     H11664   5.569   4.181   9.370 -0.9733  0.6449 -0.0257
  846MOL0     H11665   5.656   4.242   9.225 -1.5830 -1.1273 -0.4834
  846MOL0     H11666   5.563   4.479   9.350  0.6776  1.5631  1.0968
  846MOL0     H11667   5.729   4.412   9.377 -0.7660 -0.5522 -1.1164
  846MOL0     H11668   5.502   4.332   9.565  0.7560 -0.8972  0.4925
  846MOL0     H11669   5.674   4.291   9.562  2.4804  1.1066 -1.1971
  846MOL0     H11670   5.672   4.697   9.714  3.9135 -0.4804 -0.2408
  846MOL0     H11671   5.135   4.172   9.455 -2.4283  0.2836  1.1745
  846MOL0     H11672   4.902   4.188   9.395 -1.5250 -0.4253 -2.9030
  847MOL0     O11673   4.444   2.119   1.174 -0.2006  0.0011 -0.1768
  847MOL0     C11674   4.471   2.187   1.076 -0.5125  0.0939 -0.2639
  847MOL0     O11675   4.414   2.180   0.958 -0.2943 -0.6837 -0.3313
  847MOL0     C11676   4.298   2.109   0.949 -0.3697 -0.3991 -0.1029
  847MOL0     C11677   4.178   2.137   1.018 -0.5891 -0.5095  0.7430
  847MOL0     C11678   4.064   2.070   0.987  0.3597  0.0891  0.3224
  847MOL0     C11679   4.064   1.969   0.889 -0.1323  0.1480 -0.0761
  847MOL0     O11680   3.958   1.890   0.861 -0.8018 -0.0183 -0.5718
  847MOL0     C11681   3.837   1.954   0.821  0.8952 -0.4759  0.1351
  847MOL0     C11682   3.791   1.897   0.691  0.3102  0.1416  0.4035
  847MOL0     C11683   3.767   1.746   0.693 -0.6214  0.4686  0.5415
  847MOL0     C11684   3.738   1.688   0.556  0.1852  0.1431 -0.2258
  847MOL0     C11685   3.666   1.560   0.581 -0.3877 -0.6939 -0.0486
  847MOL0     C11686   3.619   1.490   0.457 -0.4387  0.0886  0.1341
  847MOL0     C11687   3.572   1.343   0.495  0.0558 -0.5636 -0.5132
  847MOL0     C11688   3.525   1.264   0.376  0.4980  0.4226 -0.4687
  847MOL0     N11689   3.385   1.286   0.355  0.3935  0.6800  0.3016
  847MOL0     C11690   3.283   1.198   0.400 -0.3260  0.5079  0.8462
  847MOL0     C11691   3.181   1.228   0.315 -0.5230  0.4236 -0.5797
  847MOL0     C11692   3.047   1.156   0.292  0.2070 -0.2602 -0.5010
  847MOL0     C11693   3.043   1.116   0.144  0.8195  0.3726  0.1101
  847MOL0     C11694   2.956   0.994   0.134  0.2630 -0.3909  0.5169
  847MOL0     C11695   2.809   1.027   0.136  0.5092 -0.0119 -0.4289
  847MOL0     O11696   2.776   1.089   0.012 -0.4549 -0.4271 -0.3843
  847MOL0     C11697   2.644   1.114  -0.009  0.8824 -0.1945  0.5804
  847MOL0     C11698   2.543   1.107   0.093  0.1122  0.7296  0.0884
  847MOL0     C11699   2.411   1.101   0.059 -0.0656 -0.2556  0.5347
  847MOL0     C11700   2.372   1.121  -0.077 -0.1820  0.1839 -0.4795
  847MOL0     C11701   2.228   1.100  -0.115  0.1388 -0.0049  0.2843
  847MOL0     O11702   2.153   1.096  -0.006  0.7540  0.2555 -0.0663
  847MOL0     C11703   2.018   1.073  -0.022 -0.2331  0.3910  0.2287
  847MOL0     C11704   1.953   0.982  -0.108 -0.4620 -0.4312  0.4317
  847MOL0     C11705   1.817   0.952  -0.092  0.4033  0.4389  0.3247
  847MOL0     C11706   1.734   1.008   0.005  1.0049  0.7257 -0.3622
  847MOL0     O11707   1.595   0.976   0.012 -0.7039 -0.4695 -0.3758
  847MOL0     C11708   1.502   1.054   0.088 -0.2891  1.2145 -0.2793
  847MOL0     C11709   1.363   1.043   0.023  0.6789  0.4869 -0.6508
  847MOL0     C11710   1.288   0.920   0.090  0.3287 -0.0888 -0.3084
  847MOL0     C11711   1.208   0.971   0.212 -0.0976 -0.1728 -0.5310
  847MOL0     C11712   1.136   0.872   0.297 -0.4601 -0.3318  0.4923
  847MOL0     C11713   1.026   0.784   0.239  0.7177  0.3843  0.2191
  847MOL0     C11714   0.953   0.699   0.334 -0.1302  0.4804  0.0153
  847MOL0     C11715   0.855   0.788   0.419 -0.1881 -0.4622 -0.5368
  847MOL0    Cl11716   0.923   0.899   0.541  0.4875  0.1886  0.1528
  847MOL0     C11717   1.798   1.108   0.090 -1.1945  0.3560 -0.2346
  847MOL0     C11718   1.938   1.129   0.074 -0.4368 -0.3691 -1.0005
  847MOL0     O11719   2.188   1.087  -0.229  0.3226  0.0454 -0.2242
  847MOL0     C11720   2.470   1.154  -0.172  0.1285 -0.0717  0.1052
  847MOL0     C11721   2.603   1.144  -0.137  0.4516 -0.2577 -0.0432
  847MOL0     N11722   3.212   1.338   0.246 -0.1238 -0.2836  0.1245
  847MOL0     N11723   3.341   1.362   0.252  0.9054 -0.3758  0.2059
  847MOL0     C11724   4.180   1.955   0.814  0.0110  0.1995 -0.0102
  847MOL0     C11725   4.296   2.024   0.843  0.6683 -0.5498  0.6838
  847MOL0     C11726   4.570   2.292   1.089  0.3456 -0.7921 -0.1386
  847MOL0     C11727   4.606   2.368   0.970  0.9000  0.7235 -0.1204
  847MOL0     C11728   4.692   2.467   0.988  0.7584  1.2146  0.0998
  847MOL0     C11729   4.733   2.517   1.112 -0.3729  0.6440 -0.0411
  847MOL0     O11730   4.816   2.624   1.110 -0.3418 -0.0717 -0.0307
  847MOL0     C11731   4.952   2.583   1.076 -0.3757 -0.8637  0.2840
  847MOL0     C11732   5.049   2.684   1.141 -0.2936 -0.1492 -1.0390
  847MOL0     C11733   5.193   2.662   1.125 -1.1332  0.2113  0.3223
  847MOL0     C11734   5.275   2.765   1.223  0.2282 -0.3444  0.6096
  847MOL0     C11735   5.413   2.729   1.239 -0.4509 -0.7940 -0.2436
  847MOL0     C11736   5.534   2.696   1.249  0.1957  0.1497  0.1947
  847MOL0     C11737   4.697   2.451   1.226 -0.3392  0.6882 -1.0005
  847MOL0     C11738   4.616   2.339   1.217 -0.2477  0.0048 -0.0669
  847MOL0     H11739   4.185   2.213   1.095 -2.5135  2.3418 -1.6627
  847MOL0     H11740   3.978   2.102   1.046 -0.9482  0.0845 -1.4844
  847MOL0     H11741   3.846   2.062   0.805 -0.9550  0.2501  3.2481
  847MOL0     H11742   3.758   1.950   0.896  0.5023  1.1069 -0.1668
  847MOL0     H11743   3.862   1.933   0.616  0.8451 -2.5211 -0.4489
  847MOL0     H11744   3.702   1.953   0.662  1.9440  0.8121 -4.1058
  847MOL0     H11745   3.684   1.735   0.764  1.1643  0.0544  2.6546
  847MOL0     H11746   3.846   1.698   0.751  0.2610 -0.3242 -1.2258
  847MOL0     H11747   3.663   1.751   0.509 -0.1079 -1.1820 -1.6163
  847MOL0     H11748   3.830   1.686   0.497  0.1417 -1.4340 -0.2859
  847MOL0     H11749   3.594   1.562   0.663  0.6363  1.2048  0.8588
  847MOL0     H11750   3.752   1.503   0.619 -0.4453 -0.4263  0.4816
  847MOL0     H11751   3.707   1.480   0.392 -1.1520 -1.2584 -0.6580
  847MOL0     H11752   3.547   1.549   0.400 -0.6883 -0.4601 -0.1293
  847MOL0     H11753   3.659   1.294   0.540 -0.7083 -1.2064  0.2907
  847MOL0     H11754   3.490   1.356   0.565 -2.3995 -1.5158 -3.0402
  847MOL0     H11755   3.541   1.158   0.397  1.7392  0.3703 -1.5467
  847MOL0     H11756   3.590   1.288   0.291  0.1893  1.4614 -0.4204
  847MOL0     H11757   3.283   1.118   0.473  1.8794  0.2374  0.6326
  847MOL0     H11758   2.961   1.218   0.317 -0.1321 -1.6269  2.1184
  847MOL0     H11759   3.037   1.072   0.361 -2.9368  1.1591  0.9326
  847MOL0     H11760   3.143   1.086   0.112  0.0806 -1.4338 -0.6327
  847MOL0     H11761   3.003   1.197   0.082  2.1644  0.6973 -0.3639
  847MOL0     H11762   2.968   0.950   0.034 -2.8032  0.9334 -0.5602
  847MOL0     H11763   2.977   0.921   0.212  4.8257  2.5763  2.4784
  847MOL0     H11764   2.785   1.085   0.225 -3.8425 -2.6156  0.3626
  847MOL0     H11765   2.752   0.935   0.143  0.7084 -0.3483 -2.5903
  847MOL0     H11766   2.564   1.089   0.198 -0.8400 -0.5669  0.0741
  847MOL0     H11767   2.351   1.087   0.148 -1.3508 -2.2094 -0.5652
  847MOL0     H11768   2.001   0.930  -0.190  0.3693  2.9690 -1.4339
  847MOL0     H11769   1.759   0.894  -0.164 -0.2355  1.0658  0.3201
  847MOL0     H11770   1.539   1.157   0.089  3.8477 -0.0658  2.4907
  847MOL0     H11771   1.506   1.020   0.191  3.6465 -2.3344 -1.3578
  847MOL0     H11772   1.377   1.030  -0.084 -0.1270  1.4057 -0.8801
  847MOL0     H11773   1.299   1.129   0.043  0.8998  0.0112  2.7291
  847MOL0     H11774   1.355   0.836   0.112 -3.5031 -3.3080  0.1625
  847MOL0     H11775   1.220   0.882   0.013 -0.4635 -0.0239  0.3440
  847MOL0     H11776   1.286   1.021   0.270 -0.6026  3.7929 -2.9024
  847MOL0     H11777   1.135   1.047   0.183  0.4723  0.1469 -1.1460
  847MOL0     H11778   1.096   0.937   0.376 -1.2129 -2.0252  1.5480
  847MOL0     H11779   1.215   0.811   0.341 -0.6183 -1.0877 -0.2630
  847MOL0     H11780   1.072   0.718   0.165  1.5563 -1.0442  1.9422
  847MOL0     H11781   0.953   0.840   0.181 -0.6440  1.7829  3.0912
  847MOL0     H11782   0.895   0.622   0.283 -2.0346 -1.8357  4.9976
  847MOL0     H11783   1.024   0.647   0.399 -2.1294  1.3892  3.1809
  847MOL0     H11784   0.791   0.720   0.477 -0.7718  0.4752 -0.0500
  847MOL0     H11785   0.775   0.835   0.361 -0.8067  0.4418  0.9878
  847MOL0     H11786   1.737   1.153   0.167  0.2406 -1.2182  1.9194
  847MOL0     H11787   1.991   1.196   0.142  0.1006 -1.6933 -0.0640
  847MOL0     H11788   2.457   1.181  -0.276  0.4677  0.4845  0.2071
  847MOL0     H11789   2.670   1.161  -0.221 -2.2388 -1.0668 -2.4996
  847MOL0     H11790   4.185   1.874   0.742  0.2429  0.0449  0.1790
  847MOL0     H11791   4.388   2.008   0.787 -0.1730 -0.6814 -0.7217
  847MOL0     H11792   4.575   2.342   0.869 -0.8874  0.9674  0.3350
  847MOL0     H11793   4.734   2.522   0.904  2.8482  2.0577  1.5905
  847MOL0     H11794   4.970   2.588   0.968  0.2143 -2.4827  0.2899
  847MOL0     H11795   4.977   2.484   1.115 -1.2726 -1.1090  0.2565
  847MOL0     H11796   5.031   2.784   1.101  1.1001  1.3367  1.7801
  847MOL0     H11797   5.020   2.695   1.246  2.6525  3.2229 -0.4106
  847MOL0     H11798   5.236   2.670   1.024 -1.4922 -1.7871 -0.0329
  847MOL0     H11799   5.211   2.559   1.158  3.1747  0.2899 -1.0785
  847MOL0     H11800   5.271   2.866   1.182  0.0832  0.0162  1.4885
  847MOL0     H11801   5.226   2.766   1.320 -1.8443 -1.7048 -0.3478
  847MOL0     H11802   5.632   2.653   1.242  0.0856  0.1160 -1.6972
  847MOL0     H11803   4.730   2.482   1.325 -1.9831 -3.6378  1.1858
  847MOL0     H11804   4.572   2.308   1.311 -0.8517  1.6270  0.2125
  848MOL0     O11805   9.084   0.218   0.363 -0.3765  0.5990 -0.6632
  848MOL0     C11806   9.134   0.099   0.377  0.1592 -0.8465  0.3692
  848MOL0     O11807   9.065  -0.013   0.353 -0.2069  0.1652 -0.1605
  848MOL0     C11808   8.939   0.005   0.302  0.2546 -0.9111  0.1305
  848MOL0     C11809   8.835   0.033   0.388 -0.4539  0.3055 -0.3753
  848MOL0     C11810   8.699   0.022   0.346  0.0438 -0.5895 -0.3914
  848MOL0     C11811   8.674  -0.001   0.214 -0.0851  0.8352  0.4254
  848MOL0     O11812   8.546  -0.019   0.165 -0.0985  0.0359  0.5126
  848MOL0     C11813   8.452  -0.104   0.229 -0.3375 -0.2331  0.8995
  848MOL0     C11814   8.371  -0.196   0.126 -0.9308 -0.4797  0.1613
  848MOL0     C11815   8.238  -0.229   0.170  0.4110 -0.3477  0.2501
  848MOL0     C11816   8.149  -0.254   0.049  0.7905  0.6626 -0.4284
  848MOL0     C11817   8.021  -0.323   0.095 -0.4577 -0.6597  0.2130
  848MOL0     C11818   7.905  -0.282   0.003 -0.1374  0.4855  0.1857
  848MOL0     C11819   7.776  -0.357   0.038  0.6372 -0.0078  0.1786
  848MOL0     C11820   7.729  -0.306   0.175  0.6820 -0.2309 -0.0334
  848MOL0     N11821   7.600  -0.357   0.213  0.2278  0.2151  0.2727
  848MOL0     C11822   7.484  -0.324   0.146  0.4106  0.2447  0.5098
  848MOL0     C11823   7.383  -0.398   0.206 -0.0680  0.6380 -0.0627
  848MOL0     C11824   7.239  -0.411   0.163  1.1474  0.4244 -0.8432
  848MOL0     C11825   7.131  -0.357   0.258 -0.1106 -0.8203 -0.0128
  848MOL0     C11826   6.989  -0.396   0.214  0.3477  0.2881 -0.4776
  848MOL0     C11827   6.893  -0.324   0.304  0.2687 -0.1032  0.6702
  848MOL0     O11828   6.758  -0.344   0.253 -0.1867  0.3754  0.8571
  848MOL0     C11829   6.656  -0.307   0.334 -0.2491  1.1368  0.1048
  848MOL0     C11830   6.674  -0.261   0.470 -0.0651  0.3917  0.4264
  848MOL0     C11831   6.562  -0.206   0.525  0.3063  1.1038  0.0952
  848MOL0     C11832   6.436  -0.214   0.465 -0.0925 -0.0705 -0.5366
  848MOL0     C11833   6.316  -0.167   0.543  0.1566 -0.2377  0.0701
  848MOL0     O11834   6.200  -0.169   0.474  0.0171  0.0776  0.6801
  848MOL0     C11835   6.080  -0.120   0.525 -0.0409  0.3314 -0.5112
  848MOL0     C11836   6.060  -0.013   0.613 -0.7199  0.4557  0.3574
  848MOL0     C11837   5.929   0.038   0.647 -0.4938  0.3489  0.5520
  848MOL0     C11838   5.820  -0.019   0.587 -0.0060 -0.4634 -1.3744
  848MOL0     O11839   5.693   0.033   0.623  0.0770  0.1921  0.1055
  848MOL0     C11840   5.607  -0.064   0.690  0.9363 -0.0072  0.1141
  848MOL0     C11841   5.497  -0.109   0.590 -0.3682  0.5368 -0.4976
  848MOL0     C11842   5.420   0.007   0.524  0.8051  0.1011  0.1518
  848MOL0     C11843   5.288  -0.047   0.454  0.5000  0.4860 -0.9274
  848MOL0     C11844   5.213   0.068   0.382  0.0160 -0.4295 -0.9510
  848MOL0     C11845   5.072   0.042   0.333  0.7805 -0.2726  0.0652
  848MOL0     C11846   5.023   0.158   0.239 -0.1509  1.0715 -0.2937
  848MOL0     C11847   4.908   0.126   0.158 -0.8851 -0.5999 -0.0607
  848MOL0    Cl11848   4.779   0.056   0.274 -0.1939  0.3565  0.0687
  848MOL0     C11849   5.828  -0.121   0.507  0.0404 -1.2687  0.4040
  848MOL0     C11850   5.957  -0.172   0.472 -0.0161  0.0879 -0.1739
  848MOL0     O11851   6.334  -0.118   0.656 -0.1101  0.1098  0.2495
  848MOL0     C11852   6.421  -0.266   0.341 -0.0083  1.1110  0.5747
  848MOL0     C11853   6.529  -0.313   0.275 -0.3631  0.4213 -0.5483
  848MOL0     N11854   7.443  -0.460   0.315  0.5478 -0.2720  0.3854
  848MOL0     N11855   7.575  -0.438   0.314  0.2868  1.1048 -0.3262
  848MOL0     C11856   8.776  -0.027   0.131 -0.2742  0.4877  0.3773
  848MOL0     C11857   8.907  -0.026   0.172  0.0442 -0.5747 -0.0582
  848MOL0     C11858   9.272   0.091   0.428 -0.2219  0.1023  0.6291
  848MOL0     C11859   9.329   0.194   0.517  0.1794 -0.7046 -0.2314
  848MOL0     C11860   9.456   0.182   0.566  0.0419  0.2022 -0.7693
  848MOL0     C11861   9.526   0.058   0.553 -0.2505  1.3418  0.4793
  848MOL0     O11862   9.648   0.052   0.613 -0.0983  1.0769 -0.1034
  848MOL0     C11863   9.733  -0.069   0.594  0.0679  0.7719 -0.1665
  848MOL0     C11864   9.887  -0.063   0.618  0.0634 -0.6384 -0.4529
  848MOL0     C11865   9.928   0.074   0.561  0.0524 -1.2470  0.1992
  848MOL0     C11866  10.077   0.083   0.577 -0.3663 -0.2151  0.4345
  848MOL0     C11867  10.134   0.204   0.526  0.2977 -0.1918 -0.4700
  848MOL0     C11868  10.188   0.307   0.489  0.4232  0.5343  0.7078
  848MOL0     C11869   9.460  -0.051   0.482  0.2659 -0.6358 -0.2957
  848MOL0     C11870   9.340  -0.029   0.417  0.5368  0.0642 -0.0653
  848MOL0     H11871   8.862   0.043   0.493 -1.3330 -2.8860  0.2532
  848MOL0     H11872   8.619   0.035   0.419 -0.9586  0.2689 -1.6036
  848MOL0     H11873   8.366  -0.055   0.277 -3.1284 -1.8219 -2.1300
  848MOL0     H11874   8.509  -0.162   0.302  0.0101 -0.3842  0.5110
  848MOL0     H11875   8.429  -0.287   0.108  0.4728  0.3344  0.3869
  848MOL0     H11876   8.364  -0.142   0.030  0.7803  0.1122  0.3367
  848MOL0     H11877   8.188  -0.153   0.231 -1.4112 -1.2431 -0.0724
  848MOL0     H11878   8.246  -0.315   0.237  0.7389  0.2622  1.0166
  848MOL0     H11879   8.121  -0.159   0.003  0.5766  0.1571 -1.3815
  848MOL0     H11880   8.194  -0.313  -0.031  1.5732 -0.1482  0.5879
  848MOL0     H11881   8.006  -0.296   0.200  5.0419  0.7999  0.9347
  848MOL0     H11882   8.038  -0.431   0.096  1.0565 -0.4351  0.7201
  848MOL0     H11883   7.932  -0.301  -0.101 -1.3864 -0.0141 -0.0678
  848MOL0     H11884   7.884  -0.176   0.017  1.1892  0.4567  2.9624
  848MOL0     H11885   7.701  -0.336  -0.039 -0.8920 -1.4000  1.2113
  848MOL0     H11886   7.792  -0.465   0.040  0.5595 -0.0944 -1.9861
  848MOL0     H11887   7.722  -0.198   0.188  2.1190 -0.3948  3.0854
  848MOL0     H11888   7.813  -0.324   0.243  1.1240  2.9752  0.4023
  848MOL0     H11889   7.469  -0.267   0.055 -0.8705 -0.1696  0.4525
  848MOL0     H11890   7.215  -0.514   0.139 -1.6126  0.6541  0.5186
  848MOL0     H11891   7.214  -0.351   0.075 -0.7367  1.6236  0.4439
  848MOL0     H11892   7.134  -0.248   0.267 -4.5219 -0.6457  1.6640
  848MOL0     H11893   7.147  -0.394   0.360 -0.2474 -1.0042 -0.0566
  848MOL0     H11894   6.976  -0.369   0.109  3.6919 -3.7943 -2.2742
  848MOL0     H11895   6.979  -0.505   0.217  0.7300  0.2604  0.3345
  848MOL0     H11896   6.909  -0.216   0.310  1.7420 -0.0658 -2.4204
  848MOL0     H11897   6.907  -0.356   0.408 -3.3117  0.0386  1.3395
  848MOL0     H11898   6.763  -0.280   0.529 -0.4495 -4.5640 -0.1636
  848MOL0     H11899   6.574  -0.168   0.626  2.4945  0.5193  0.1036
  848MOL0     H11900   6.139   0.036   0.670 -2.0006  0.4191  2.2442
  848MOL0     H11901   5.914   0.122   0.713 -0.6041 -0.0945  1.0925
  848MOL0     H11902   5.553  -0.022   0.775  0.0158 -1.5513  0.3390
  848MOL0     H11903   5.665  -0.145   0.734  0.5474 -1.4242 -1.8418
  848MOL0     H11904   5.426  -0.166   0.650 -1.0052  2.9886  1.2638
  848MOL0     H11905   5.546  -0.182   0.525 -0.4585 -0.3502  0.3993
  848MOL0     H11906   5.481   0.057   0.448  0.3167 -2.0336 -1.7888
  848MOL0     H11907   5.392   0.070   0.609 -0.5622 -1.6466  1.0909
  848MOL0     H11908   5.297  -0.121   0.374 -2.0075 -3.5876  2.1049
  848MOL0     H11909   5.217  -0.096   0.522  1.8243 -2.2459 -1.3598
  848MOL0     H11910   5.266   0.091   0.289 -2.0281 -0.9480 -2.3081
  848MOL0     H11911   5.206   0.161   0.439 -2.5684  1.1135 -3.5313
  848MOL0     H11912   5.001   0.044   0.417 -0.0164  2.9183 -0.5688
  848MOL0     H11913   5.065  -0.053   0.280 -2.3958  0.2635 -0.6435
  848MOL0     H11914   4.998   0.248   0.297 -2.7041 -0.3938  1.0600
  848MOL0     H11915   5.106   0.188   0.175  0.7324 -0.2818  0.1752
  848MOL0     H11916   4.948   0.055   0.084  1.3624 -0.6215  1.0966
  848MOL0     H11917   4.867   0.217   0.115  2.7375  1.1152 -0.3090
  848MOL0     H11918   5.740  -0.147   0.450 -0.8932  0.2799  1.0934
  848MOL0     H11919   5.955  -0.250   0.396 -0.3505 -0.9891  0.8949
  848MOL0     H11920   6.323  -0.279   0.296 -0.0716 -1.0736  1.2403
  848MOL0     H11921   6.520  -0.341   0.171  0.3218  0.1724 -0.5447
  848MOL0     H11922   8.761  -0.047   0.026  0.2705 -1.1043  0.5837
  848MOL0     H11923   8.990  -0.059   0.112  0.0010  0.1255 -0.5042
  848MOL0     H11924   9.284   0.292   0.533  1.7891  0.4769 -2.3179
  848MOL0     H11925   9.503   0.262   0.622  1.3275 -1.0666  0.0155
  848MOL0     H11926   9.725  -0.107   0.492  1.1416 -0.4240  0.1764
  848MOL0     H11927   9.694  -0.149   0.659 -1.3604  0.2725 -1.5688
  848MOL0     H11928   9.911  -0.075   0.724 -4.0499 -2.2230  0.4907
  848MOL0     H11929   9.933  -0.147   0.565  0.0265  0.0612 -1.6373
  848MOL0     H11930   9.882   0.148   0.626  2.3161 -0.8346  1.4210
  848MOL0     H11931   9.909   0.096   0.455 -0.8072 -0.4097  0.5090
  848MOL0     H11932  10.100   0.073   0.683 -1.5437 -1.9733  0.5588
  848MOL0     H11933  10.130  -0.001   0.532  2.5609  1.6314  0.1391
  848MOL0     H11934  10.242   0.387   0.444  1.3688  0.7514  2.1561
  848MOL0     H11935   9.502  -0.150   0.496  1.8632  0.3716  3.0510
  848MOL0     H11936   9.294  -0.110   0.361  2.3154  0.7620 -2.7329
  849MOL0     O11937   2.166  10.344   5.166  0.0209  0.5308  0.0515
  849MOL0     C11938   2.223  10.340   5.053  0.2256 -0.5957  1.2408
  849MOL0     O11939   2.199  10.436   4.953 -0.2749  1.3343 -0.4277
  849MOL0     C11940   2.108  10.532   4.974 -0.0676  0.1518 -0.0907
  849MOL0     C11941   2.120  10.633   5.071 -0.2196  0.1707  0.3045
  849MOL0     C11942   2.020  10.731   5.085 -0.1718  0.4756  0.0553
  849MOL0     C11943   1.903  10.727   5.008 -0.9263 -0.1219 -0.5042
  849MOL0     O11944   1.798  10.814   5.016  0.9782 -0.1435  0.3464
  849MOL0     C11945   1.805  10.929   5.104  0.4601 -0.8980  0.7812
  849MOL0     C11946   1.715  11.036   5.030  0.8355  0.2646  0.3558
  849MOL0     C11947   1.569  10.994   5.032  0.3336  0.5265  0.2404
  849MOL0     C11948   1.464  11.084   4.963 -0.2332 -0.4018  0.3272
  849MOL0     C11949   1.323  11.013   4.966 -0.9222 -0.7134  0.6615
  849MOL0     C11950   1.214  11.111   4.938  0.2537 -0.4395  0.6047
  849MOL0     C11951   1.075  11.052   4.975 -0.6327 -0.0356  0.1858
  849MOL0     C11952   0.981  11.171   4.949 -0.1676  0.7282 -0.2914
  849MOL0     N11953   0.837  11.135   4.954  0.3036  0.5199 -0.0836
  849MOL0     C11954   0.765  11.043   4.881  0.4124 -0.4893  0.1664
  849MOL0     C11955   0.633  11.042   4.920 -0.9384  0.1750 -0.3436
  849MOL0     C11956   0.521  10.964   4.865 -0.3589 -0.5549 -0.8666
  849MOL0     C11957   0.411  11.057   4.817 -0.2279  0.0617  0.1275
  849MOL0     C11958   0.302  10.983   4.734  0.2318  0.1710  0.6467
  849MOL0     C11959   0.168  11.053   4.724  0.8113 -0.8126 -0.8954
  849MOL0     O11960   0.109  11.076   4.852  0.0274 -0.5388 -0.2954
  849MOL0     C11961  -0.000  11.157   4.871 -0.2481  0.2476  1.0424
  849MOL0     C11962  -0.024  11.197   5.003  0.5989  0.1728  0.1701
  849MOL0     C11963  -0.144  11.247   5.039  0.5136 -0.5450  0.2592
  849MOL0     C11964  -0.241  11.275   4.940 -0.2333 -0.3920 -0.0996
  849MOL0     C11965  -0.367  11.352   4.971  0.5763 -0.0572 -0.7655
  849MOL0     O11966  -0.391  11.378   5.109 -0.2128 -0.7037 -0.9771
  849MOL0     C11967  -0.486  11.478   5.134 -0.8369  0.2434  0.2322
  849MOL0     C11968  -0.572  11.455   5.240  0.1440  0.9385 -0.2943
  849MOL0     C11969  -0.676  11.542   5.268 -0.3900  0.0167 -0.8783
  849MOL0     C11970  -0.681  11.673   5.214  0.3755  0.1216  0.4100
  849MOL0     O11971  -0.785  11.763   5.252  0.1525 -0.3099  0.3919
  849MOL0     C11972  -0.769  11.902   5.200 -0.0648 -0.5745  0.0788
  849MOL0     C11973  -0.869  11.993   5.267  0.8523  0.4692  0.0981
  849MOL0     C11974  -0.861  12.009   5.421 -0.2156  0.1230  0.5685
  849MOL0     C11975  -0.981  12.072   5.492  0.0184  0.1537 -1.1412
  849MOL0     C11976  -0.965  12.062   5.649 -0.0872 -0.4582  0.1724
  849MOL0     C11977  -1.084  12.135   5.709 -0.5284  0.3725  0.1321
  849MOL0     C11978  -1.059  12.161   5.856 -0.6728 -0.7622  0.4788
  849MOL0     C11979  -1.184  12.208   5.925  0.0112 -0.4845 -0.2339
  849MOL0    Cl11980  -1.128  12.306   6.066 -0.1296  0.1474 -0.1023
  849MOL0     C11981  -0.579  11.705   5.124  0.5418  0.0724  0.8213
  849MOL0     C11982  -0.487  11.609   5.079  0.0212 -0.0025 -0.0210
  849MOL0     O11983  -0.439  11.384   4.875  0.3728 -0.9822 -0.3526
  849MOL0     C11984  -0.211  11.243   4.806 -0.3049  0.3044 -0.1422
  849MOL0     C11985  -0.093  11.177   4.775  1.2336  0.0290  0.0350
  849MOL0     N11986   0.633  11.135   5.022  0.2221  0.2781 -0.6808
  849MOL0     N11987   0.745  11.197   5.036  0.1999 -0.6881  0.0949
  849MOL0     C11988   1.890  10.618   4.925  0.2077 -0.2639  0.6519
  849MOL0     C11989   1.992  10.522   4.903 -0.0451 -0.9884  0.7322
  849MOL0     C11990   2.340  10.245   5.030  0.4037  0.2709 -0.9055
  849MOL0     C11991   2.425  10.273   4.923 -0.4831 -0.3024 -0.0605
  849MOL0     C11992   2.541  10.207   4.908 -0.6492  0.7420  0.1276
  849MOL0     C11993   2.565  10.100   4.995 -0.3586 -0.1456 -0.4168
  849MOL0     O11994   2.678  10.029   4.996  0.2914 -0.3495  0.7142
  849MOL0     C11995   2.802  10.105   5.014 -0.0155  0.7630  0.0223
  849MOL0     C11996   2.912  10.073   4.915 -0.3420  0.9066  0.5497
  849MOL0     C11997   2.899  10.119   4.772  0.4703  0.6779 -0.4747
  849MOL0     C11998   3.024  10.153   4.702  0.2728 -0.2612 -0.6766
  849MOL0     C11999   3.002  10.112   4.566  0.0589  0.2634 -0.2408
  849MOL0     C12000   2.967  10.095   4.452  0.3863 -0.2395 -0.1654
  849MOL0     C12001   2.485  10.064   5.098 -0.3843  0.1088 -0.2959
  849MOL0     C12002   2.369  10.139   5.121 -0.6367  0.3153  0.6911
  849MOL0     H12003   2.206  10.642   5.136  0.6181 -0.2525 -0.7210
  849MOL0     H12004   2.030  10.806   5.163  0.6244  0.9851 -0.5150
  849MOL0     H12005   1.908  10.964   5.112  0.3530  0.4766 -2.4854
  849MOL0     H12006   1.767  10.918   5.206 -1.4196  0.7352  0.3109
  849MOL0     H12007   1.747  11.063   4.929 -1.1868 -0.1214 -0.4554
  849MOL0     H12008   1.723  11.133   5.079 -1.6905  1.9002 -2.1249
  849MOL0     H12009   1.540  10.991   5.137 -0.9017 -0.7410 -0.1004
  849MOL0     H12010   1.563  10.896   4.985  1.5640 -0.7136  2.5188
  849MOL0     H12011   1.452  11.180   5.014  0.2674 -0.8916  1.4029
  849MOL0     H12012   1.490  11.113   4.860 -1.4690  2.6748  0.7688
  849MOL0     H12013   1.312  10.971   5.066  1.3015 -1.4126  0.6777
  849MOL0     H12014   1.318  10.934   4.890 -0.2785  0.3965 -0.5721
  849MOL0     H12015   1.222  11.127   4.830  0.3196  1.5752  0.8612
  849MOL0     H12016   1.224  11.209   4.986  2.8120 -0.8146  0.9565
  849MOL0     H12017   1.042  10.973   4.907  2.4125 -0.7360 -0.6525
  849MOL0     H12018   1.074  11.019   5.079  4.6842 -0.3502  0.4122
  849MOL0     H12019   0.993  11.199   4.844 -2.2910 -1.7499 -1.3062
  849MOL0     H12020   1.008  11.250   5.019 -0.7649 -0.6983  1.6390
  849MOL0     H12021   0.805  10.983   4.800  1.2255 -0.0485  0.2257
  849MOL0     H12022   0.500  10.886   4.938 -1.6660  0.0963 -0.5145
  849MOL0     H12023   0.548  10.913   4.772 -4.5134  0.0004 -2.6172
  849MOL0     H12024   0.452  11.143   4.764 -1.7452  1.3638  0.9620
  849MOL0     H12025   0.360  11.101   4.904 -0.6512 -3.1076  1.6258
  849MOL0     H12026   0.340  10.983   4.631  3.0894  1.6353  1.6053
  849MOL0     H12027   0.284  10.880   4.765 -4.0730  0.3613 -0.5755
  849MOL0     H12028   0.099  10.996   4.662 -0.7667  0.0195  0.0130
  849MOL0     H12029   0.183  11.154   4.683 -0.2632 -0.5013 -0.5547
  849MOL0     H12030   0.060  11.194   5.072  0.7734 -0.6287 -0.0746
  849MOL0     H12031  -0.174  11.272   5.140 -2.9668  2.1815 -1.1962
  849MOL0     H12032  -0.566  11.356   5.284 -1.3145  0.7498 -0.4629
  849MOL0     H12033  -0.755  11.516   5.337  2.1238 -0.4568  2.0485
  849MOL0     H12034  -0.789  11.905   5.093 -0.5050  0.4925  0.1789
  849MOL0     H12035  -0.669  11.941   5.220 -0.9044  1.1384  1.1138
  849MOL0     H12036  -0.966  11.950   5.243  1.2615 -0.3325 -0.1385
  849MOL0     H12037  -0.863  12.098   5.235  0.9399  1.5296  3.2300
  849MOL0     H12038  -0.765  12.056   5.441  0.2223 -0.7774  0.6230
  849MOL0     H12039  -0.860  11.908   5.462  1.6602 -0.3427 -0.5353
  849MOL0     H12040  -1.001  12.176   5.466  1.5750  1.1342  1.2230
  849MOL0     H12041  -1.064  12.006   5.463 -0.1877 -0.5893  0.9638
  849MOL0     H12042  -0.872  12.104   5.688 -0.9029  0.4605  1.1861
  849MOL0     H12043  -0.966  11.958   5.685  0.1704 -0.6318 -0.3232
  849MOL0     H12044  -1.170  12.068   5.702 -1.4292  1.3270  1.5306
  849MOL0     H12045  -1.117  12.225   5.656 -0.2888  0.1607 -0.3828
  849MOL0     H12046  -1.030  12.066   5.902  0.8093  0.0023  1.1758
  849MOL0     H12047  -0.984  12.239   5.871 -0.3846 -1.3320  2.2327
  849MOL0     H12048  -1.249  12.124   5.951 -3.2072  2.3458  1.6835
  849MOL0     H12049  -1.241  12.267   5.853  0.3165  1.6970  1.2132
  849MOL0     H12050  -0.567  11.802   5.078 -1.1357  0.0147  0.1894
  849MOL0     H12051  -0.417  11.644   5.005 -0.8850 -1.5109 -1.6928
  849MOL0     H12052  -0.272  11.267   4.719  3.5064  4.8393 -2.0128
  849MOL0     H12053  -0.076  11.135   4.676  1.5233 -1.7368  0.8022
  849MOL0     H12054   1.797  10.607   4.869 -0.1011  0.0041  1.1148
  849MOL0     H12055   1.977  10.449   4.824  0.7316  1.3451 -1.7116
  849MOL0     H12056   2.396  10.345   4.846  2.2719  1.0322  0.0454
  849MOL0     H12057   2.619  10.235   4.838  2.1796 -2.2410  1.7786
  849MOL0     H12058   2.838  10.082   5.114  0.6592 -0.3036 -0.4483
  849MOL0     H12059   2.780  10.211   5.001  1.3502  0.9780 -0.6639
  849MOL0     H12060   3.000  10.108   4.968  0.0122 -1.8082  1.9352
  849MOL0     H12061   2.925   9.964   4.911 -1.3863  0.7289  1.4773
  849MOL0     H12062   2.830  10.201   4.751 -2.1349 -1.9426 -2.9762
  849MOL0     H12063   2.842  10.034   4.734 -2.3039  2.5140 -0.6757
  849MOL0     H12064   3.031  10.262   4.711 -0.4565 -0.4222  3.8767
  849MOL0     H12065   3.110  10.106   4.751 -1.7572 -2.2653  1.1679
  849MOL0     H12066   2.930  10.099   4.352  0.9158  2.8560 -0.3376
  849MOL0     H12067   2.521   9.984   5.162  3.8473  2.1323  0.2456
  849MOL0     H12068   2.309  10.120   5.210  0.7183 -1.9337  1.2168
  850MOL0     O12069   6.056   8.379   8.632 -0.0987  0.7128 -0.5628
  850MOL0     C12070   6.094   8.328   8.528  0.7249 -0.2366 -0.0174
  850MOL0     O12071   6.017   8.295   8.422 -0.0949 -0.1371  0.6193
  850MOL0     C12072   5.882   8.319   8.426  0.4666 -0.4443 -0.1936
  850MOL0     C12073   5.825   8.446   8.466 -0.0318  0.8421  0.9634
  850MOL0     C12074   5.684   8.464   8.459 -0.4574 -0.3872  0.0453
  850MOL0     C12075   5.594   8.364   8.427  0.0742  0.2998  0.1453
  850MOL0     O12076   5.458   8.380   8.425 -0.1573  0.0573 -0.2869
  850MOL0     C12077   5.397   8.502   8.480  0.3945  0.2293  0.5576
  850MOL0     C12078   5.247   8.502   8.451  0.1572 -0.2569 -0.7968
  850MOL0     C12079   5.210   8.543   8.314  0.4133 -0.2918  0.6141
  850MOL0     C12080   5.082   8.486   8.264  0.7842 -0.6313  0.3963
  850MOL0     C12081   4.961   8.531   8.346  0.2488  0.6623  0.1506
  850MOL0     C12082   4.828   8.461   8.291 -0.1064 -0.2327 -0.1281
  850MOL0     C12083   4.712   8.478   8.382 -0.4181  0.2658 -0.0906
  850MOL0     C12084   4.652   8.617   8.373 -0.3520 -0.4855 -0.9495
  850MOL0     N12085   4.540   8.620   8.277 -0.3479  0.2014  0.0171
  850MOL0     C12086   4.541   8.658   8.143 -0.8677 -0.3209 -0.4548
  850MOL0     C12087   4.421   8.635   8.100 -0.2931 -0.6198  0.1167
  850MOL0     C12088   4.373   8.654   7.960  0.4380 -0.2241  0.0291
  850MOL0     C12089   4.409   8.795   7.916 -0.3183 -0.7272  1.0582
  850MOL0     C12090   4.366   8.820   7.766  0.1110 -0.2266 -0.3545
  850MOL0     C12091   4.404   8.957   7.721  0.5825 -0.2102 -0.2368
  850MOL0     O12092   4.370   9.066   7.813  0.2510 -0.3286  0.3928
  850MOL0     C12093   4.245   9.110   7.810 -0.1216 -0.5040 -0.6378
  850MOL0     C12094   4.224   9.225   7.883 -0.7728  0.7116 -0.8438
  850MOL0     C12095   4.105   9.293   7.882  0.0188  0.4302 -0.6550
  850MOL0     C12096   4.000   9.250   7.800 -0.2609  0.0944 -0.5850
  850MOL0     C12097   3.886   9.336   7.783  0.2509  0.3725  0.2143
  850MOL0     O12098   3.895   9.464   7.835  0.0095  0.3780  0.2727
  850MOL0     C12099   3.793   9.555   7.813  0.1847 -0.2776  0.3105
  850MOL0     C12100   3.676   9.531   7.879  0.4422 -1.0417  0.8502
  850MOL0     C12101   3.557   9.610   7.855  0.4677 -0.2943  0.1415
  850MOL0     C12102   3.565   9.712   7.759 -0.3847  0.0976  0.0077
  850MOL0     O12103   3.462   9.795   7.744 -0.2796  0.0927  0.3730
  850MOL0     C12104   3.442   9.891   7.860 -0.5734  0.9146  0.3823
  850MOL0     C12105   3.426  10.040   7.820  0.2872  0.2727 -0.1558
  850MOL0     C12106   3.311  10.059   7.713 -0.3710  0.4541 -0.5969
  850MOL0     C12107   3.170  10.032   7.767  0.2742 -0.4981 -0.2857
  850MOL0     C12108   3.067  10.050   7.654  0.2719 -0.0603 -1.0317
  850MOL0     C12109   2.923  10.036   7.721 -0.3773  0.6749  0.1711
  850MOL0     C12110   2.824  10.022   7.601  0.8926  0.3576  0.5268
  850MOL0     C12111   2.694   9.963   7.654 -0.5060 -0.0719 -0.2080
  850MOL0    Cl12112   2.550   9.995   7.541  0.1448 -0.1448  0.2806
  850MOL0     C12113   3.687   9.741   7.698 -0.0036 -0.5955 -0.4256
  850MOL0     C12114   3.804   9.670   7.724 -0.3482  0.8968 -0.6717
  850MOL0     O12115   3.794   9.289   7.718 -0.4778 -0.1535  0.2183
  850MOL0     C12116   4.016   9.136   7.721  0.2571  0.0952 -0.7985
  850MOL0     C12117   4.137   9.064   7.730 -0.0240 -0.3405 -0.0257
  850MOL0     N12118   4.355   8.588   8.210  0.2645  0.4269 -0.4115
  850MOL0     N12119   4.420   8.578   8.316  0.7722  0.8981  0.8170
  850MOL0     C12120   5.654   8.244   8.385  0.4723  0.1396 -0.6351
  850MOL0     C12121   5.792   8.215   8.394  0.0488 -0.5761  0.2726
  850MOL0     C12122   6.242   8.318   8.507  0.2798  0.6917 -0.1342
  850MOL0     C12123   6.295   8.299   8.378 -0.4489  0.2793  0.3496
  850MOL0     C12124   6.429   8.269   8.361  1.4054 -0.1737  0.4637
  850MOL0     C12125   6.517   8.282   8.459 -0.0754  0.1977 -0.4047
  850MOL0     O12126   6.650   8.264   8.427  0.4748 -0.0587  0.0005
  850MOL0     C12127   6.743   8.283   8.535  0.5093 -0.1382  0.4519
  850MOL0     C12128   6.886   8.249   8.498 -1.5553 -0.2122 -0.2976
  850MOL0     C12129   6.893   8.117   8.418  0.3586  0.7067 -0.2512
  850MOL0     C12130   7.031   8.045   8.440 -0.1812 -0.4493 -0.0429
  850MOL0     C12131   7.144   8.138   8.424 -0.2821 -0.5837  0.2224
  850MOL0     C12132   7.219   8.233   8.420  0.5256 -1.0945  0.2412
  850MOL0     C12133   6.464   8.298   8.593  0.0320 -0.2200  1.3304
  850MOL0     C12134   6.335   8.326   8.607  0.0222  0.4808 -0.4167
  850MOL0     H12135   5.886   8.531   8.495 -2.1042  1.9157  2.4446
  850MOL0     H12136   5.650   8.563   8.486  1.0783  0.5642 -1.3183
  850MOL0     H12137   5.437   8.593   8.433  0.7107 -0.3525 -0.3454
  850MOL0     H12138   5.430   8.485   8.583 -0.4264 -0.6878  0.6848
  850MOL0     H12139   5.196   8.568   8.521 -0.5136 -1.4795 -0.0948
  850MOL0     H12140   5.210   8.399   8.460  0.6939 -0.2971  1.6884
  850MOL0     H12141   5.289   8.525   8.240 -2.0460  1.0403 -2.5787
  850MOL0     H12142   5.195   8.651   8.308  1.3260 -0.2339 -1.0211
  850MOL0     H12143   5.060   8.529   8.165  0.6406 -1.1763  0.1886
  850MOL0     H12144   5.077   8.378   8.247 -1.5530 -0.3398 -1.4106
  850MOL0     H12145   4.944   8.639   8.350  2.4301  1.0384  0.6253
  850MOL0     H12146   4.991   8.487   8.442 -0.1257  1.2164  0.5296
  850MOL0     H12147   4.853   8.355   8.281  0.2691  0.0258 -2.3822
  850MOL0     H12148   4.803   8.487   8.188  2.0841 -0.3361 -0.7381
  850MOL0     H12149   4.634   8.405   8.359  1.6616 -1.5486 -1.7931
  850MOL0     H12150   4.747   8.452   8.483  3.7707 -3.7254 -2.1885
  850MOL0     H12151   4.731   8.686   8.343  2.8152 -3.6161 -0.4571
  850MOL0     H12152   4.600   8.645   8.465 -0.0164 -2.0332 -0.2702
  850MOL0     H12153   4.630   8.688   8.089 -0.9719  0.3516 -0.2618
  850MOL0     H12154   4.267   8.635   7.980  0.6527 -1.2624  0.1975
  850MOL0     H12155   4.415   8.581   7.890  1.6180 -0.0244  0.5128
  850MOL0     H12156   4.517   8.813   7.920 -0.1316 -1.8651  1.7382
  850MOL0     H12157   4.358   8.865   7.982 -1.6980  1.8800 -2.4817
  850MOL0     H12158   4.417   8.748   7.702 -1.2851 -0.6333 -1.0522
  850MOL0     H12159   4.259   8.798   7.760  0.5126 -2.0520 -1.6946
  850MOL0     H12160   4.364   8.985   7.623  2.2235 -1.0552 -1.1858
  850MOL0     H12161   4.513   8.956   7.707  0.3704  1.9686 -3.1540
  850MOL0     H12162   4.297   9.253   7.959  0.7265 -2.3944 -0.9971
  850MOL0     H12163   4.104   9.383   7.942  0.5239  0.4548 -0.6779
  850MOL0     H12164   3.667   9.439   7.935  0.6937 -1.4481  0.2224
  850MOL0     H12165   3.462   9.593   7.905 -0.6911  0.0846 -1.8379
  850MOL0     H12166   3.522   9.888   7.935  0.1153 -0.6219 -0.3627
  850MOL0     H12167   3.350   9.863   7.912 -0.4318 -2.0641 -0.7945
  850MOL0     H12168   3.520  10.081   7.783  0.1650  0.7092  0.0136
  850MOL0     H12169   3.396  10.098   7.907  0.7752  1.5341 -0.8010
  850MOL0     H12170   3.337   9.989   7.633  1.0184 -0.0642  0.2623
  850MOL0     H12171   3.311  10.160   7.670 -2.6231  0.9586  0.4601
  850MOL0     H12172   3.166   9.933   7.811  0.0280 -0.2268  0.3130
  850MOL0     H12173   3.160  10.097   7.855  1.9186 -1.4508  0.6344
  850MOL0     H12174   3.082   9.979   7.573  3.3992 -0.7082 -0.0363
  850MOL0     H12175   3.087  10.150   7.616  0.8628  1.4384  2.7454
  850MOL0     H12176   2.896  10.111   7.796 -1.0827  1.0457 -0.4374
  850MOL0     H12177   2.926   9.944   7.780  2.4390  0.9776  0.6557
  850MOL0     H12178   2.803  10.123   7.564 -1.3880  0.7001  2.5694
  850MOL0     H12179   2.860   9.966   7.514 -0.2659 -0.4355  0.5378
  850MOL0     H12180   2.665  10.011   7.748 -0.9430 -2.2491  0.8244
  850MOL0     H12181   2.718   9.857   7.667 -3.3986 -1.1668 -2.6866
  850MOL0     H12182   3.696   9.842   7.658 -3.1057 -0.4086 -0.9312
  850MOL0     H12183   3.901   9.702   7.689 -0.8796  5.2683  1.2077
  850MOL0     H12184   3.943   9.108   7.646 -1.4923  1.6322  0.2256
  850MOL0     H12185   4.157   8.973   7.674 -2.7570 -0.1182 -1.5538
  850MOL0     H12186   5.580   8.166   8.371  0.5690  0.1224 -1.0518
  850MOL0     H12187   5.820   8.114   8.369  0.9193 -0.4038  0.5313
  850MOL0     H12188   6.225   8.295   8.295 -1.6844 -2.3875  1.3921
  850MOL0     H12189   6.466   8.252   8.261 -0.8573 -2.5378 -0.0784
  850MOL0     H12190   6.732   8.210   8.616  2.0124 -1.5260 -0.5323
  850MOL0     H12191   6.737   8.386   8.571  0.0321 -0.3101  0.8763
  850MOL0     H12192   6.948   8.324   8.449 -1.0843 -1.0188 -0.9717
  850MOL0     H12193   6.948   8.230   8.586  0.8993  2.8293 -1.2200
  850MOL0     H12194   6.884   8.144   8.312 -1.2866 -0.9909 -0.6057
  850MOL0     H12195   6.810   8.053   8.450  1.1038 -0.3889 -0.4453
  850MOL0     H12196   7.041   8.006   8.542  1.3841 -0.7714 -0.3017
  850MOL0     H12197   7.059   7.965   8.371  0.7620 -0.8569  0.8002
  850MOL0     H12198   7.284   8.317   8.435  1.9751 -1.7742 -1.9245
  850MOL0     H12199   6.532   8.298   8.678  3.0714  0.8475 -0.9152
  850MOL0     H12200   6.289   8.356   8.701  0.8814 -0.0420  0.1795
  851MOL0     O12201  10.164   3.012   2.923  0.1630  0.4621 -0.0080
  851MOL0     C12202  10.185   3.125   2.956  0.1881 -0.8046  0.5474
  851MOL0     O12203  10.106   3.234   2.940  0.7683  0.6296 -0.4740
  851MOL0     C12204  10.021   3.237   2.832 -0.6145 -0.1244 -0.4209
  851MOL0     C12205  10.063   3.282   2.708  0.5433  0.1202 -0.0085
  851MOL0     C12206   9.978   3.289   2.599 -0.6161  0.6187  1.2230
  851MOL0     C12207   9.838   3.257   2.609  0.4845  0.5708 -0.7345
  851MOL0     O12208   9.757   3.262   2.501  0.2477  0.1308  0.2159
  851MOL0     C12209   9.627   3.220   2.511  0.7855 -0.2812 -0.3824
  851MOL0     C12210   9.556   3.226   2.373 -0.7054  0.4545  0.3271
  851MOL0     C12211   9.408   3.220   2.388  0.3303  0.4943 -0.3979
  851MOL0     C12212   9.350   3.206   2.246 -0.2194  0.2562  0.1021
  851MOL0     C12213   9.193   3.189   2.257 -0.3625 -0.0897 -0.1957
  851MOL0     C12214   9.110   3.311   2.311 -0.2843  0.1964  1.1217
  851MOL0     C12215   8.958   3.299   2.284  0.7135  0.0215 -1.0043
  851MOL0     C12216   8.894   3.432   2.321  0.2628  0.5865  0.0454
  851MOL0     N12217   8.750   3.435   2.311 -0.8679 -0.4996  0.1425
  851MOL0     C12218   8.678   3.340   2.377 -0.0901 -0.2026 -0.1200
  851MOL0     C12219   8.551   3.355   2.333  0.5516  0.5232  0.1622
  851MOL0     C12220   8.426   3.276   2.377 -0.4398 -0.3160  0.2447
  851MOL0     C12221   8.297   3.354   2.386  0.3803  0.2785 -0.4833
  851MOL0     C12222   8.174   3.270   2.419 -0.0733  0.2549 -0.2251
  851MOL0     C12223   8.044   3.347   2.370  0.4088 -0.1328  0.1163
  851MOL0     O12224   7.928   3.273   2.397 -0.0435 -0.5532  0.1416
  851MOL0     C12225   7.807   3.332   2.363 -0.4353  0.0393  0.1819
  851MOL0     C12226   7.776   3.456   2.296  0.6507 -0.5159 -0.6050
  851MOL0     C12227   7.642   3.498   2.275 -0.5140  0.4447  0.9665
  851MOL0     C12228   7.540   3.412   2.314  0.0714 -0.4823 -0.7430
  851MOL0     C12229   7.396   3.442   2.293  0.2269 -0.0482 -0.2093
  851MOL0     O12230   7.368   3.531   2.193  0.4556 -0.0073  0.3756
  851MOL0     C12231   7.250   3.591   2.162  0.0470 -1.5677 -0.9961
  851MOL0     C12232   7.128   3.589   2.232 -0.2556  0.0047  0.4634
  851MOL0     C12233   7.010   3.655   2.189 -0.7695  0.1867 -0.1156
  851MOL0     C12234   7.028   3.743   2.077  1.0377  0.1407  0.3924
  851MOL0     O12235   6.923   3.822   2.032  0.7541  0.0721  0.3820
  851MOL0     C12236   6.782   3.790   2.042 -0.2567 -0.5443 -0.0725
  851MOL0     C12237   6.708   3.880   1.946  0.2627  0.1098 -0.7066
  851MOL0     C12238   6.708   4.017   2.000 -0.0154 -1.1606 -0.6734
  851MOL0     C12239   6.612   4.110   1.919 -0.1263  0.4111  0.0093
  851MOL0     C12240   6.549   4.224   1.997  0.0077  0.7290  1.1650
  851MOL0     C12241   6.487   4.315   1.902  0.2334 -0.5917 -0.1822
  851MOL0     C12242   6.456   4.440   1.966 -0.6228  0.0551 -0.2486
  851MOL0     C12243   6.375   4.545   1.881  0.1851  0.2069  0.0054
  851MOL0    Cl12244   6.194   4.535   1.901  0.0117 -0.4098 -0.4080
  851MOL0     C12245   7.145   3.751   2.005  0.0669 -0.9747 -0.1629
  851MOL0     C12246   7.254   3.678   2.051 -0.7645  0.6603 -0.5971
  851MOL0     O12247   7.307   3.392   2.369 -0.2407  0.5638 -0.2537
  851MOL0     C12248   7.570   3.298   2.381 -0.3756  0.5544 -0.2743
  851MOL0     C12249   7.697   3.259   2.408 -0.0647 -0.2033  0.3280
  851MOL0     N12250   8.551   3.467   2.256  0.0007  0.4704  0.8455
  851MOL0     N12251   8.669   3.518   2.236  0.3503 -0.3152 -0.1379
  851MOL0     C12252   9.798   3.218   2.747 -0.0189 -1.0034  0.0813
  851MOL0     C12253   9.884   3.207   2.854 -0.5668 -0.5146 -0.4908
  851MOL0     C12254  10.298   3.145   3.049 -0.5882  0.0988 -0.2265
  851MOL0     C12255  10.361   3.272   3.089 -0.7435  0.5665  0.0612
  851MOL0     C12256  10.475   3.269   3.173  0.6800  0.0419  0.4482
  851MOL0     C12257  10.527   3.157   3.222 -0.0478  0.0049 -0.4694
  851MOL0     O12258  10.625   3.173   3.320  0.2499 -0.4931 -0.1529
  851MOL0     C12259  10.699   3.061   3.359  0.3024  0.6296  0.6142
  851MOL0     C12260  10.813   3.109   3.446 -0.0366  0.3626  0.1441
  851MOL0     C12261  10.931   3.147   3.362  0.0301  0.3381  0.2092
  851MOL0     C12262  11.006   3.272   3.428  0.0673 -0.6283 -0.9863
  851MOL0     C12263  11.144   3.261   3.399  0.6228  0.0219  0.0799
  851MOL0     C12264  11.261   3.263   3.383 -0.4786 -0.1696  0.2273
  851MOL0     C12265  10.475   3.036   3.194  0.0462  0.1526  0.3026
  851MOL0     C12266  10.363   3.029   3.107 -0.1398  0.6286  0.5841
  851MOL0     H12267  10.164   3.318   2.694  1.0809 -1.8157 -1.6090
  851MOL0     H12268  10.008   3.320   2.499 -1.0195 -3.5194 -0.4124
  851MOL0     H12269   9.558   3.276   2.576 -2.3264 -2.5095 -1.5184
  851MOL0     H12270   9.619   3.121   2.557 -0.1699  0.5086  1.2606
  851MOL0     H12271   9.597   3.150   2.306 -0.8078  1.7845 -1.3233
  851MOL0     H12272   9.584   3.326   2.337  3.4109 -0.2599  1.0796
  851MOL0     H12273   9.376   3.306   2.447 -0.1628 -0.0595  0.1682
  851MOL0     H12274   9.370   3.140   2.453 -3.3368  3.1340  1.0790
  851MOL0     H12275   9.379   3.279   2.170  1.7169  0.1597  0.7143
  851MOL0     H12276   9.382   3.107   2.213 -2.0436 -0.3154 -0.0660
  851MOL0     H12277   9.171   3.097   2.313  5.0667 -2.2962 -1.0572
  851MOL0     H12278   9.148   3.170   2.160  0.8389  3.4157 -1.5931
  851MOL0     H12279   9.153   3.395   2.257  1.8422 -1.3858  0.2069
  851MOL0     H12280   9.149   3.327   2.411  0.1206 -0.6556  1.1117
  851MOL0     H12281   8.947   3.274   2.178  1.9900 -2.1642 -0.6772
  851MOL0     H12282   8.913   3.217   2.341  1.8348 -1.5564 -2.2990
  851MOL0     H12283   8.929   3.508   2.251 -4.9931  2.0234 -1.5362
  851MOL0     H12284   8.933   3.457   2.420 -1.4603 -0.2326  0.9746
  851MOL0     H12285   8.715   3.265   2.446  0.1430 -0.5917 -0.6578
  851MOL0     H12286   8.449   3.237   2.477  1.5550 -2.7019 -1.0163
  851MOL0     H12287   8.412   3.186   2.316  2.2420 -1.5172  1.2260
  851MOL0     H12288   8.276   3.398   2.288 -1.4459 -0.5613 -0.5215
  851MOL0     H12289   8.319   3.433   2.458 -0.1543 -0.9733  1.0957
  851MOL0     H12290   8.184   3.172   2.371 -2.8850 -0.8650  1.2249
  851MOL0     H12291   8.171   3.244   2.525 -1.3297  1.1368 -0.0321
  851MOL0     H12292   8.052   3.366   2.263  2.7676  0.0179  0.2657
  851MOL0     H12293   8.045   3.443   2.423  3.6305  0.6876 -1.2193
  851MOL0     H12294   7.862   3.521   2.283 -0.3752  1.1716  0.7771
  851MOL0     H12295   7.625   3.592   2.223  0.9942 -1.9420 -4.5869
  851MOL0     H12296   7.117   3.541   2.329  2.4264 -1.6646  0.0562
  851MOL0     H12297   6.913   3.641   2.234 -1.6056  0.4153 -1.7852
  851MOL0     H12298   6.747   3.795   2.145  3.2891 -0.7892  1.2804
  851MOL0     H12299   6.770   3.686   2.010 -0.5681 -0.5593  0.0932
  851MOL0     H12300   6.605   3.843   1.944 -0.3151  1.2081  2.6551
  851MOL0     H12301   6.748   3.871   1.845 -1.3136 -0.2744 -1.3136
  851MOL0     H12302   6.809   4.058   1.995  1.0753 -3.7749 -1.6086
  851MOL0     H12303   6.683   4.009   2.106  0.6824 -2.0528 -0.5700
  851MOL0     H12304   6.671   4.147   1.834  1.7456  0.5028  1.2822
  851MOL0     H12305   6.533   4.046   1.879  1.7049 -0.7482 -1.9886
  851MOL0     H12306   6.633   4.276   2.046  1.3372  0.0606 -0.3030
  851MOL0     H12307   6.477   4.186   2.070 -3.3923 -0.5397 -2.5329
  851MOL0     H12308   6.388   4.274   1.881 -0.7400 -1.8420  5.3544
  851MOL0     H12309   6.540   4.324   1.807 -0.7730 -0.6898 -0.7719
  851MOL0     H12310   6.406   4.414   2.059 -0.0423 -0.6579 -0.1249
  851MOL0     H12311   6.553   4.481   1.997 -0.0549 -2.1703  1.1550
  851MOL0     H12312   6.394   4.533   1.774  0.3415  0.9722 -0.0532
  851MOL0     H12313   6.413   4.643   1.911 -2.3444  1.5219 -0.8290
  851MOL0     H12314   7.147   3.829   1.931 -0.2523  0.7594  1.5647
  851MOL0     H12315   7.344   3.705   1.996  0.1023  3.6110  1.9344
  851MOL0     H12316   7.493   3.232   2.419  1.5929 -0.9699  1.2576
  851MOL0     H12317   7.719   3.163   2.453 -0.7736 -0.4489  0.1616
  851MOL0     H12318   9.693   3.203   2.769  0.3282 -1.6323  1.4058
  851MOL0     H12319   9.844   3.173   2.949 -0.7673 -4.7609 -1.9014
  851MOL0     H12320  10.314   3.364   3.057 -0.9172 -0.0030 -1.4144
  851MOL0     H12321  10.509   3.368   3.203 -0.3734 -0.3499  3.2240
  851MOL0     H12322  10.739   3.000   3.277  1.4564 -0.0614  1.6488
  851MOL0     H12323  10.638   2.993   3.418  1.3715 -2.1087 -1.2007
  851MOL0     H12324  10.768   3.197   3.494  0.5726  0.0567  1.2990
  851MOL0     H12325  10.839   3.030   3.517 -3.3112 -0.7799  0.2452
  851MOL0     H12326  10.895   3.173   3.262 -1.4472 -0.3530  0.5436
  851MOL0     H12327  11.007   3.068   3.349  0.0251  0.4338 -0.4284
  851MOL0     H12328  10.979   3.367   3.381 -0.1029  1.0443  2.2070
  851MOL0     H12329  10.992   3.286   3.536  0.0319  0.6628 -1.1429
  851MOL0     H12330  11.368   3.269   3.373 -0.4272  1.4594  1.3407
  851MOL0     H12331  10.511   2.941   3.232  3.5234  0.9445 -0.7252
  851MOL0     H12332  10.322   2.932   3.084 -2.8606  1.6476  0.8458
  852MOL0     O12333   7.808   2.158   0.615  0.6376  0.3334  0.2800
  852MOL0     C12334   7.883   2.111   0.531  0.3561 -0.1968  0.4561
  852MOL0     O12335   7.862   1.995   0.461 -0.0182  0.1371 -0.4934
  852MOL0     C12336   7.744   1.924   0.476 -0.0617  0.0319 -0.0356
  852MOL0     C12337   7.745   1.789   0.521  0.4569 -0.4714  0.1785
  852MOL0     C12338   7.621   1.724   0.542 -0.3961 -0.0844  0.0738
  852MOL0     C12339   7.499   1.789   0.503 -0.0949 -0.1117 -0.2823
  852MOL0     O12340   7.373   1.724   0.511  0.2180 -0.7188  0.5136
  852MOL0     C12341   7.354   1.608   0.589  0.2885  0.0489 -0.9177
  852MOL0     C12342   7.210   1.547   0.556 -0.0991  0.0820 -0.0013
  852MOL0     C12343   7.188   1.540   0.408 -0.7614 -0.2710 -0.1507
  852MOL0     C12344   7.064   1.471   0.357  0.3989  0.2439 -0.2618
  852MOL0     C12345   7.062   1.450   0.199 -0.6222 -0.2640  0.1969
  852MOL0     C12346   6.923   1.407   0.153 -0.9873  0.3803  0.2365
  852MOL0     C12347   6.822   1.520   0.151 -0.2944 -0.1676  0.7650
  852MOL0     C12348   6.684   1.460   0.132 -0.4018 -0.4575  0.0053
  852MOL0     N12349   6.588   1.560   0.152 -0.0430  0.3433 -0.4464
  852MOL0     C12350   6.542   1.600   0.272 -0.1181  0.3154 -0.4235
  852MOL0     C12351   6.434   1.680   0.254 -0.7003  0.2678 -0.5130
  852MOL0     C12352   6.369   1.768   0.367  0.5667  0.0230  0.1356
  852MOL0     C12353   6.226   1.804   0.335  0.0751 -0.5445  0.3855
  852MOL0     C12354   6.134   1.687   0.286 -0.0028  0.2459  0.9416
  852MOL0     C12355   5.986   1.697   0.314  0.4133 -0.6317 -0.1131
  852MOL0     O12356   5.918   1.779   0.217 -0.3766  0.3828 -0.1221
  852MOL0     C12357   5.790   1.741   0.169 -0.3657  0.0332 -0.9068
  852MOL0     C12358   5.764   1.749   0.036 -0.5920 -0.0061  0.2976
  852MOL0     C12359   5.639   1.703  -0.007  0.2559 -0.0046 -1.4562
  852MOL0     C12360   5.538   1.669   0.088  0.3661  0.2827  0.4106
  852MOL0     C12361   5.407   1.632   0.049  0.8585 -0.5721 -0.0222
  852MOL0     O12362   5.375   1.664  -0.082 -0.6134 -0.6674 -0.2425
  852MOL0     C12363   5.252   1.658  -0.134  0.0733 -0.1720 -0.2001
  852MOL0     C12364   5.128   1.637  -0.067  0.0659  0.4228 -0.2664
  852MOL0     C12365   5.007   1.631  -0.135  0.3470 -0.5063 -0.6316
  852MOL0     C12366   5.009   1.644  -0.271  0.6813 -0.5328  0.6175
  852MOL0     O12367   4.898   1.636  -0.349 -0.0812 -0.0221 -0.3434
  852MOL0     C12368   4.786   1.722  -0.320 -1.2881 -0.3095 -0.2572
  852MOL0     C12369   4.705   1.712  -0.448 -0.2544  0.5834  0.4262
  852MOL0     C12370   4.623   1.579  -0.459 -0.5503  0.4896 -0.4912
  852MOL0     C12371   4.530   1.606  -0.579 -0.3923 -0.3556  0.1483
  852MOL0     C12372   4.457   1.482  -0.608 -0.0757  0.0103  0.0319
  852MOL0     C12373   4.359   1.513  -0.719 -0.4098  0.2853 -0.3180
  852MOL0     C12374   4.264   1.399  -0.734  0.4073  0.7793 -0.3654
  852MOL0     C12375   4.152   1.396  -0.636  0.2590 -0.1899  0.3810
  852MOL0    Cl12376   4.044   1.272  -0.687  0.2074  0.5567  0.4229
  852MOL0     C12377   5.135   1.667  -0.346  0.0847  0.0031  0.7471
  852MOL0     C12378   5.259   1.667  -0.278  0.0008  0.0013  0.8013
  852MOL0     O12379   5.327   1.589   0.134 -0.6224  0.2203 -0.2309
  852MOL0     C12380   5.572   1.668   0.221 -0.2073  0.4713 -1.1935
  852MOL0     C12381   5.700   1.697   0.266  0.3444  1.1945  0.1404
  852MOL0     N12382   6.424   1.707   0.120  0.0864 -0.3476  0.7047
  852MOL0     N12383   6.501   1.624   0.064 -1.2006 -0.6831  0.0474
  852MOL0     C12384   7.500   1.922   0.457  0.5998 -0.3890 -0.3516
  852MOL0     C12385   7.623   1.985   0.448  0.7749 -0.3261  0.3453
  852MOL0     C12386   8.002   2.188   0.496  0.3260 -0.7498  0.1536
  852MOL0     C12387   8.115   2.126   0.431 -0.0719 -0.4681 -0.8751
  852MOL0     C12388   8.235   2.191   0.408 -0.4205 -0.7888  0.4074
  852MOL0     C12389   8.246   2.331   0.428 -0.2625  0.0298  0.9846
  852MOL0     O12390   8.346   2.415   0.382  0.0780 -0.1293  0.3876
  852MOL0     C12391   8.466   2.355   0.343 -0.4097 -0.2359 -1.0128
  852MOL0     C12392   8.576   2.461   0.360 -0.9441 -0.1362  0.6523
  852MOL0     C12393   8.715   2.394   0.365 -0.5517 -0.6830  0.3159
  852MOL0     C12394   8.824   2.504   0.383  0.9513 -0.6367  0.0834
  852MOL0     C12395   8.956   2.468   0.325 -0.1965  1.2137  0.4601
  852MOL0     C12396   9.069   2.447   0.297 -0.4787  0.2911 -0.5675
  852MOL0     C12397   8.142   2.395   0.490  0.1937 -0.5466 -0.4624
  852MOL0     C12398   8.025   2.321   0.536 -0.0055 -0.1282  0.5384
  852MOL0     H12399   7.848   1.754   0.530  0.3787 -0.6302  0.4444
  852MOL0     H12400   7.621   1.626   0.589 -0.0694 -0.0253  0.1995
  852MOL0     H12401   7.373   1.636   0.693  3.2681  2.0569 -1.8909
  852MOL0     H12402   7.420   1.524   0.566 -1.9177 -2.4085  1.0175
  852MOL0     H12403   7.133   1.605   0.607 -0.6097 -0.7515  0.1764
  852MOL0     H12404   7.207   1.452   0.610 -2.1661  0.7969  1.2509
  852MOL0     H12405   7.277   1.495   0.363 -1.2554 -3.3637  1.6796
  852MOL0     H12406   7.188   1.646   0.379 -0.8158 -0.5251 -1.0761
  852MOL0     H12407   7.051   1.379   0.415  0.4966  1.7038  2.2290
  852MOL0     H12408   6.975   1.531   0.376 -0.3108 -0.6244 -0.8029
  852MOL0     H12409   7.132   1.367   0.183 -0.4202 -0.5085  2.1705
  852MOL0     H12410   7.097   1.541   0.149  0.6067 -0.0832  1.3317
  852MOL0     H12411   6.898   1.331   0.227  1.6290  0.4818  1.3035
  852MOL0     H12412   6.939   1.353   0.059 -1.4979  0.1074  0.3012
  852MOL0     H12413   6.816   1.572   0.247  0.6682  0.0751  0.6955
  852MOL0     H12414   6.849   1.584   0.066  3.8330 -2.8804 -0.2277
  852MOL0     H12415   6.661   1.377   0.199 -0.2939  0.2265  0.9037
  852MOL0     H12416   6.677   1.415   0.033 -1.7059  2.9082 -1.5981
  852MOL0     H12417   6.595   1.568   0.361  1.2793 -0.9919 -1.6752
  852MOL0     H12418   6.437   1.850   0.390  1.8263 -1.3002  1.3071
  852MOL0     H12419   6.372   1.708   0.459  0.4104 -1.1651 -0.6092
  852MOL0     H12420   6.226   1.879   0.256  1.0944 -4.2144 -3.4458
  852MOL0     H12421   6.181   1.850   0.423  2.1703  0.9272  0.7832
  852MOL0     H12422   6.146   1.668   0.179  0.7170 -0.9542  1.2142
  852MOL0     H12423   6.161   1.587   0.322 -2.2963 -1.7433 -2.3194
  852MOL0     H12424   5.965   1.745   0.411 -2.0604  0.9603 -1.3374
  852MOL0     H12425   5.932   1.602   0.312  0.1489 -0.5641  1.8680
  852MOL0     H12426   5.825   1.796  -0.041  1.5783  0.4131  2.1633
  852MOL0     H12427   5.611   1.707  -0.111 -1.9814  1.6540 -0.8746
  852MOL0     H12428   5.120   1.664   0.038  0.1698 -1.0789  0.1445
  852MOL0     H12429   4.909   1.620  -0.088 -0.2313 -0.5453 -1.8099
  852MOL0     H12430   4.814   1.827  -0.309  0.5073 -0.4538 -2.6528
  852MOL0     H12431   4.731   1.695  -0.230  0.7611  0.2009  1.2245
  852MOL0     H12432   4.781   1.702  -0.526  1.9145 -3.5739  2.7514
  852MOL0     H12433   4.635   1.796  -0.454  1.1646  1.7398 -0.7846
  852MOL0     H12434   4.560   1.558  -0.373 -0.4042 -0.9683 -0.7171
  852MOL0     H12435   4.683   1.488  -0.465  0.0416  0.6384  1.9978
  852MOL0     H12436   4.456   1.681  -0.549  0.0397 -0.2282  0.9287
  852MOL0     H12437   4.588   1.637  -0.666 -1.0318  3.1109  0.8210
  852MOL0     H12438   4.396   1.449  -0.523  0.0819  0.6628  0.3996
  852MOL0     H12439   4.525   1.401  -0.637  0.2275  0.4011 -0.3532
  852MOL0     H12440   4.415   1.540  -0.809  1.1666 -1.2981  0.1501
  852MOL0     H12441   4.293   1.598  -0.699 -1.3222 -0.0276 -1.8276
  852MOL0     H12442   4.219   1.406  -0.834 -1.6854 -1.2128  0.3575
  852MOL0     H12443   4.311   1.300  -0.732 -0.4186  0.3893 -0.0100
  852MOL0     H12444   4.099   1.491  -0.637  0.2289 -0.2093  0.0476
  852MOL0     H12445   4.182   1.368  -0.534 -0.7219 -1.6250  0.3003
  852MOL0     H12446   5.134   1.666  -0.454 -2.0762 -1.5045  0.7137
  852MOL0     H12447   5.353   1.678  -0.331  0.3911 -0.3699  1.4040
  852MOL0     H12448   5.510   1.628   0.301 -0.7161  2.1811 -0.6804
  852MOL0     H12449   5.715   1.690   0.374 -0.4846 -0.8479  0.1705
  852MOL0     H12450   7.414   1.974   0.417  1.9173  1.3403 -1.0492
  852MOL0     H12451   7.617   2.085   0.408 -1.6738 -0.3881  0.3760
  852MOL0     H12452   8.118   2.021   0.406  0.7522 -0.5548 -0.4544
  852MOL0     H12453   8.307   2.135   0.349  0.0836  2.5830 -2.5992
  852MOL0     H12454   8.465   2.333   0.236 -0.4162  1.3372 -1.3532
  852MOL0     H12455   8.488   2.266   0.403 -2.0086 -0.6476 -0.9723
  852MOL0     H12456   8.566   2.544   0.290  2.9994 -0.0493 -0.0193
  852MOL0     H12457   8.560   2.498   0.462 -0.3000 -0.6934  0.9635
  852MOL0     H12458   8.729   2.340   0.270 -0.2656 -0.9352  0.4973
  852MOL0     H12459   8.730   2.326   0.449 -1.1701 -0.2374  0.7920
  852MOL0     H12460   8.793   2.595   0.332  1.2815 -0.1375  0.7676
  852MOL0     H12461   8.836   2.535   0.487  0.7086  1.8604 -0.5775
  852MOL0     H12462   9.173   2.427   0.277 -0.5313  1.1578 -1.8277
  852MOL0     H12463   8.138   2.502   0.507 -1.2268 -0.6497  0.0625
  852MOL0     H12464   7.954   2.372   0.600  1.8316  0.9406  1.8240
  853MOL0     O12465   4.977   2.470   1.491 -0.0069 -0.0582 -0.1969
  853MOL0     C12466   4.978   2.568   1.561 -0.3541 -0.1805 -0.4194
  853MOL0     O12467   4.868   2.616   1.626  0.1117  0.6405  0.3000
  853MOL0     C12468   4.747   2.545   1.617  0.1185 -0.8483  0.5285
  853MOL0     C12469   4.644   2.599   1.539 -0.2819  0.0007 -0.1695
  853MOL0     C12470   4.521   2.531   1.542 -0.5678 -0.1491  0.2348
  853MOL0     C12471   4.509   2.408   1.616  0.2059 -0.2758  0.6715
  853MOL0     O12472   4.403   2.321   1.608  0.4133  0.1301 -0.1620
  853MOL0     C12473   4.278   2.378   1.606  0.7705 -0.1677  0.1054
  853MOL0     C12474   4.187   2.316   1.719 -0.9026 -0.4929  0.5132
  853MOL0     C12475   4.209   2.372   1.859 -0.4429 -0.4295  0.3655
  853MOL0     C12476   4.113   2.311   1.962  1.2997 -0.2856  0.9250
  853MOL0     C12477   4.155   2.308   2.104 -0.0177  0.6125 -0.2816
  853MOL0     C12478   4.040   2.284   2.214 -0.3211  0.0514 -0.1407
  853MOL0     C12479   4.086   2.247   2.351 -0.2268  0.4595 -0.3751
  853MOL0     C12480   3.972   2.206   2.446  0.5244  0.4522 -0.2203
  853MOL0     N12481   3.859   2.303   2.468  0.2508 -0.6600 -0.8448
  853MOL0     C12482   3.744   2.298   2.411  1.2962  0.4682 -0.8488
  853MOL0     C12483   3.675   2.395   2.465 -0.4694 -0.5106 -0.3087
  853MOL0     C12484   3.527   2.425   2.457 -0.4564 -0.0393  0.5743
  853MOL0     C12485   3.465   2.354   2.583  0.1206  0.6066 -0.7639
  853MOL0     C12486   3.312   2.346   2.567 -0.3446  0.5305  0.6164
  853MOL0     C12487   3.231   2.283   2.689  0.8202  0.2453  1.5000
  853MOL0     O12488   3.098   2.280   2.647  0.6668 -0.1964  0.1683
  853MOL0     C12489   3.002   2.236   2.735  0.6991 -0.3387 -0.4020
  853MOL0     C12490   2.892   2.177   2.679  0.5997  0.5115  0.4397
  853MOL0     C12491   2.776   2.138   2.756 -0.5096 -0.3369 -0.8983
  853MOL0     C12492   2.778   2.157   2.901 -0.4061 -0.2165  0.6831
  853MOL0     C12493   2.677   2.102   2.986  0.5371  0.7713  0.0706
  853MOL0     O12494   2.572   2.051   2.917  0.6267 -0.7070 -0.0300
  853MOL0     C12495   2.471   1.997   2.987  0.0467  0.2525  0.5788
  853MOL0     C12496   2.432   1.868   2.962 -0.6462  0.9007 -0.2282
  853MOL0     C12497   2.329   1.799   3.035  0.0098 -0.2897 -0.1825
  853MOL0     C12498   2.264   1.858   3.141  0.2459 -0.6377 -0.4306
  853MOL0     O12499   2.173   1.791   3.225 -0.0546 -0.0058 -0.3737
  853MOL0     C12500   2.032   1.813   3.217  0.1760 -0.0742 -0.2319
  853MOL0     C12501   1.997   1.887   3.343 -0.1561 -0.4243  0.7133
  853MOL0     C12502   1.853   1.913   3.355  0.0893  1.0590  0.6856
  853MOL0     C12503   1.772   1.791   3.376 -0.0139  0.0626 -0.2536
  853MOL0     C12504   1.637   1.822   3.434 -0.2950  0.2089 -1.1244
  853MOL0     C12505   1.546   1.697   3.448 -0.3549 -0.6045  0.5674
  853MOL0     C12506   1.407   1.727   3.504  0.5513  0.7546  0.1120
  853MOL0     C12507   1.292   1.678   3.409 -0.8758  0.5541 -0.6249
  853MOL0    Cl12508   1.275   1.506   3.379 -0.0966  0.3239 -0.4052
  853MOL0     C12509   2.298   1.989   3.168 -0.3971  0.0461  0.3518
  853MOL0     C12510   2.397   2.064   3.094 -0.4305 -0.1848 -0.1599
  853MOL0     O12511   2.684   2.109   3.113 -0.8293  0.0532  0.2891
  853MOL0     C12512   2.895   2.212   2.958 -0.2952  0.0313  0.1488
  853MOL0     C12513   3.001   2.249   2.872  0.1730  0.5585 -0.1709
  853MOL0     N12514   3.759   2.479   2.537  0.1200 -1.5742  0.6460
  853MOL0     N12515   3.869   2.414   2.550 -0.1954  0.3309  0.3000
  853MOL0     C12516   4.614   2.367   1.694 -0.9731 -0.5566  0.1241
  853MOL0     C12517   4.742   2.430   1.687 -0.7463 -0.1639  1.2217
  853MOL0     C12518   5.105   2.642   1.593  0.7687 -0.1578  0.3570
  853MOL0     C12519   5.103   2.745   1.684  0.7964  0.5857 -0.6522
  853MOL0     C12520   5.218   2.801   1.739 -0.0057  0.3947  0.5933
  853MOL0     C12521   5.343   2.768   1.684 -0.2940 -0.1837  0.0756
  853MOL0     O12522   5.463   2.832   1.713 -0.2585  0.7924 -0.0400
  853MOL0     C12523   5.470   2.923   1.821 -0.5658  0.2622  0.2050
  853MOL0     C12524   5.588   3.024   1.810 -0.6500 -0.0413  0.1525
  853MOL0     C12525   5.597   3.119   1.924 -0.5929 -0.8681  0.5497
  853MOL0     C12526   5.516   3.247   1.909 -0.5314 -0.1329 -0.2766
  853MOL0     C12527   5.368   3.230   1.920  0.5226 -0.0014 -0.3065
  853MOL0     C12528   5.254   3.221   1.953  0.2347  0.1127  0.4250
  853MOL0     C12529   5.351   2.668   1.588 -0.3342  0.1868 -0.2606
  853MOL0     C12530   5.231   2.601   1.540 -0.5771 -0.4514  0.6602
  853MOL0     H12531   4.666   2.686   1.478  4.6503  0.1804  1.4334
  853MOL0     H12532   4.442   2.577   1.483  0.8293  0.5437 -1.1595
  853MOL0     H12533   4.233   2.359   1.508 -0.6091 -0.6605  0.7993
  853MOL0     H12534   4.278   2.486   1.624  2.0953 -0.2927  0.9899
  853MOL0     H12535   4.209   2.209   1.721  0.2756 -0.2674  0.5037
  853MOL0     H12536   4.085   2.333   1.684 -0.4137  2.1935  0.2016
  853MOL0     H12537   4.197   2.481   1.857 -2.0390 -0.5458 -2.8789
  853MOL0     H12538   4.311   2.355   1.894 -0.5820  1.0429  1.5797
  853MOL0     H12539   4.022   2.371   1.956  0.4813 -1.6396 -1.9566
  853MOL0     H12540   4.086   2.213   1.922 -1.3299 -0.2045  2.2478
  853MOL0     H12541   4.214   2.395   2.135  2.1122 -1.0611  0.6319
  853MOL0     H12542   4.220   2.221   2.112  1.1420  1.5896  1.6516
  853MOL0     H12543   3.989   2.193   2.180  2.0117 -0.2880 -3.2465
  853MOL0     H12544   3.973   2.370   2.216 -1.8421 -1.1038  0.1655
  853MOL0     H12545   4.166   2.172   2.351 -0.0535  0.6433  0.0030
  853MOL0     H12546   4.143   2.331   2.391  0.3988  1.6355 -3.5007
  853MOL0     H12547   4.011   2.183   2.546 -2.1766  2.6485  1.4811
  853MOL0     H12548   3.929   2.114   2.406  2.2984 -1.4916  2.0448
  853MOL0     H12549   3.698   2.237   2.333 -2.4380  2.0549 -0.1085
  853MOL0     H12550   3.476   2.384   2.370 -1.0952 -1.0093  1.3867
  853MOL0     H12551   3.507   2.532   2.466  0.6745  0.3741 -1.2943
  853MOL0     H12552   3.504   2.413   2.666  3.1811 -1.5002 -0.5124
  853MOL0     H12553   3.497   2.249   2.587  0.5951  0.7096 -1.7471
  853MOL0     H12554   3.271   2.447   2.565 -0.9756  0.3366 -2.6477
  853MOL0     H12555   3.283   2.289   2.478 -2.2795  0.0746  1.5013
  853MOL0     H12556   3.251   2.339   2.782  0.4287  1.4375  0.8919
  853MOL0     H12557   3.252   2.181   2.722 -1.2288  0.2090  2.9519
  853MOL0     H12558   2.896   2.165   2.571  1.4008  2.4635  0.2074
  853MOL0     H12559   2.690   2.084   2.719 -2.1329  1.9788 -0.6704
  853MOL0     H12560   2.485   1.814   2.885 -0.7239  1.0129 -0.3588
  853MOL0     H12561   2.300   1.700   3.002  0.7860 -0.6136  0.0836
  853MOL0     H12562   1.986   1.715   3.200 -1.6779  0.2210  2.4619
  853MOL0     H12563   2.017   1.876   3.129 -2.7075  1.5693  1.2889
  853MOL0     H12564   2.057   1.979   3.340  1.1772 -1.2937 -1.2933
  853MOL0     H12565   2.031   1.829   3.429  1.4399 -0.6552 -0.0376
  853MOL0     H12566   1.808   1.966   3.270 -1.3085  0.5330  1.0681
  853MOL0     H12567   1.846   1.988   3.434  3.2640  2.7200 -0.4176
  853MOL0     H12568   1.748   1.747   3.278  0.5564  1.9178 -1.2688
  853MOL0     H12569   1.831   1.719   3.434 -0.1433  1.1147  1.2097
  853MOL0     H12570   1.585   1.896   3.373 -0.3828 -0.3161 -1.7018
  853MOL0     H12571   1.646   1.857   3.537 -2.2212 -1.4259 -0.3084
  853MOL0     H12572   1.601   1.620   3.503  0.0465  0.3403  1.5144
  853MOL0     H12573   1.539   1.670   3.342  2.3237  0.6578 -0.0361
  853MOL0     H12574   1.404   1.681   3.604  0.7136 -2.0647 -1.0750
  853MOL0     H12575   1.401   1.835   3.514 -0.3077  0.5305  3.2977
  853MOL0     H12576   1.295   1.726   3.311 -0.3662 -1.1893 -1.5148
  853MOL0     H12577   1.199   1.706   3.459 -0.9019 -2.1224  1.0433
  853MOL0     H12578   2.260   2.036   3.258  1.2005 -1.0745  1.6678
  853MOL0     H12579   2.421   2.164   3.127 -0.2433 -0.1444 -0.4207
  853MOL0     H12580   2.894   2.227   3.066 -2.8181  1.2631  0.0117
  853MOL0     H12581   3.088   2.301   2.911  0.9836 -0.4838 -0.5378
  853MOL0     H12582   4.601   2.285   1.764 -3.2304  0.8552  1.4741
  853MOL0     H12583   4.827   2.386   1.737 -0.5647 -2.8733 -1.2153
  853MOL0     H12584   5.006   2.770   1.726  1.5461 -2.7698  3.7668
  853MOL0     H12585   5.213   2.873   1.820 -0.8787 -0.0362  0.9405
  853MOL0     H12586   5.462   2.865   1.913 -2.6413  0.2041  0.0220
  853MOL0     H12587   5.383   2.988   1.825 -0.3741  0.4684  1.4915
  853MOL0     H12588   5.670   2.955   1.832 -2.5193 -2.9856 -1.4294
  853MOL0     H12589   5.600   3.072   1.712 -2.6451 -0.2220 -0.2279
  853MOL0     H12590   5.702   3.148   1.928 -0.9776  0.7735 -0.4652
  853MOL0     H12591   5.568   3.071   2.018  2.3276  0.0219  2.0323
  853MOL0     H12592   5.538   3.331   1.975 -1.5608  0.6993 -0.9511
  853MOL0     H12593   5.529   3.288   1.808 -1.9831 -1.1881 -0.9207
  853MOL0     H12594   5.153   3.203   1.984  0.8208 -0.2408  2.2059
  853MOL0     H12595   5.442   2.649   1.533  1.1187  0.0753  2.0369
  853MOL0     H12596   5.259   2.526   1.467  4.9143  0.3626  1.4956
  854MOL0     O12597   2.698   1.310   9.537 -0.1762 -0.5606  0.8830
  854MOL0     C12598   2.765   1.417   9.535  0.0108 -0.0300  0.1124
  854MOL0     O12599   2.720   1.548   9.541 -0.6565  0.0381  1.1372
  854MOL0     C12600   2.588   1.578   9.539  0.0996  0.4316  0.5299
  854MOL0     C12601   2.511   1.533   9.648 -0.3531  0.1986  0.3258
  854MOL0     C12602   2.371   1.554   9.640  0.1871  0.2681 -0.6395
  854MOL0     C12603   2.306   1.613   9.531 -0.2193 -0.7685 -0.0035
  854MOL0     O12604   2.165   1.620   9.537 -0.3940 -0.3978 -0.0119
  854MOL0     C12605   2.111   1.728   9.456  0.0369  0.5886 -0.8796
  854MOL0     C12606   1.976   1.764   9.516  0.0993  0.3451 -0.6245
  854MOL0     C12607   1.871   1.657   9.551 -0.1536 -0.4891  0.7859
  854MOL0     C12608   1.725   1.706   9.573 -0.5539 -0.7604 -0.5887
  854MOL0     C12609   1.724   1.815   9.671  0.1810 -0.8937 -1.2604
  854MOL0     C12610   1.587   1.848   9.712 -0.6062 -0.4681 -0.1207
  854MOL0     C12611   1.595   1.985   9.783  0.6134  0.7376 -0.3689
  854MOL0     C12612   1.452   2.012   9.836  0.6475  0.3449 -0.1346
  854MOL0     N12613   1.470   2.146   9.900  0.9303  0.3225 -0.0952
  854MOL0     C12614   1.507   2.169  10.030 -0.2375 -1.2748 -1.0145
  854MOL0     C12615   1.455   2.291  10.064 -0.3374 -0.2047  0.3230
  854MOL0     C12616   1.455   2.361  10.196  0.3737  0.1582  0.5673
  854MOL0     C12617   1.593   2.387  10.251 -0.2914 -0.3236 -0.2917
  854MOL0     C12618   1.678   2.460  10.145 -0.1340  0.8367 -0.4342
  854MOL0     C12619   1.808   2.517  10.207 -0.5313  0.6130 -0.2142
  854MOL0     O12620   1.913   2.414  10.229 -0.6368 -0.0500  0.6316
  854MOL0     C12621   2.046   2.439  10.254 -0.9606 -0.4666  0.3758
  854MOL0     C12622   2.124   2.345  10.316  0.3115 -1.4199 -0.7963
  854MOL0     C12623   2.253   2.374  10.363  0.3433 -0.6857 -0.1787
  854MOL0     C12624   2.325   2.497  10.319  0.4523  0.5112  0.0008
  854MOL0     C12625   2.466   2.527  10.354  0.3560  0.1197 -0.2765
  854MOL0     O12626   2.519   2.642  10.303  0.5016  1.0561 -0.0507
  854MOL0     C12627   2.657   2.662  10.322  1.2877  0.0451  0.0914
  854MOL0     C12628   2.723   2.714  10.213 -0.4655  0.4802 -0.5685
  854MOL0     C12629   2.857   2.730  10.217 -0.4529 -0.5330 -0.1956
  854MOL0     C12630   2.931   2.705  10.330  0.9382 -0.2410  0.7315
  854MOL0     O12631   3.063   2.722  10.309  0.3916 -0.4184 -0.1977
  854MOL0     C12632   3.158   2.673  10.402  0.3785 -0.1019  0.2979
  854MOL0     C12633   3.306   2.694  10.356 -0.1578 -0.0518  0.2412
  854MOL0     C12634   3.347   2.835  10.342 -0.2298 -0.6892 -1.0670
  854MOL0     C12635   3.491   2.863  10.385 -0.1241  0.0318  0.5438
  854MOL0     C12636   3.526   3.008  10.378  0.2913 -0.1821 -0.8556
  854MOL0     C12637   3.663   3.034  10.435 -0.1271 -0.6300 -0.3247
  854MOL0     C12638   3.679   3.186  10.436 -0.7298  0.1257 -0.7062
  854MOL0     C12639   3.797   3.235  10.533 -0.5164  0.8918  0.3611
  854MOL0    Cl12640   3.849   3.388  10.464 -0.0081 -0.2926  0.0972
  854MOL0     C12641   2.863   2.671  10.458 -0.9026 -0.4619  0.1153
  854MOL0     C12642   2.726   2.640  10.450 -0.2599 -0.0575 -0.8030
  854MOL0     O12643   2.524   2.440  10.410 -0.0253 -0.0884 -0.4082
  854MOL0     C12644   2.237   2.586  10.248 -0.9240 -0.2426 -0.3125
  854MOL0     C12645   2.106   2.571  10.226 -1.0625  0.0049  0.2642
  854MOL0     N12646   1.404   2.345   9.943 -0.0892  0.1373  0.2480
  854MOL0     N12647   1.413   2.257   9.848  0.9653 -0.2990 -0.3833
  854MOL0     C12648   2.382   1.658   9.415  0.5231  0.4571 -0.0308
  854MOL0     C12649   2.522   1.637   9.422 -0.0928 -0.5100 -1.0012
  854MOL0     C12650   2.910   1.397   9.541  0.4912 -0.1334 -0.2743
  854MOL0     C12651   2.960   1.272   9.540 -0.1781 -0.3423 -0.5281
  854MOL0     C12652   3.090   1.250   9.572 -0.9015 -0.0414  0.2465
  854MOL0     C12653   3.177   1.353   9.595 -0.4686 -0.7499  0.5655
  854MOL0     O12654   3.305   1.324   9.616 -0.2178  0.1750 -0.2041
  854MOL0     C12655   3.355   1.388   9.739 -0.8937  0.5684 -0.5220
  854MOL0     C12656   3.497   1.326   9.746 -0.7105  0.2271 -0.4402
  854MOL0     C12657   3.504   1.173   9.760  0.1328 -0.0154  0.1741
  854MOL0     C12658   3.496   1.130   9.904 -0.4423  0.2393  0.1677
  854MOL0     C12659   3.591   1.192   9.996 -0.0548  0.3459  0.0837
  854MOL0     C12660   3.663   1.257  10.065 -0.2307  0.0609  0.2717
  854MOL0     C12661   3.129   1.484   9.578 -0.9152  0.1777  0.5254
  854MOL0     C12662   2.992   1.502   9.562 -0.2457  0.0112 -0.4762
  854MOL0     H12663   2.545   1.473   9.732 -0.9719 -0.9356 -0.2117
  854MOL0     H12664   2.311   1.514   9.721  0.9172 -2.1121 -1.2114
  854MOL0     H12665   2.103   1.703   9.349 -1.1518  4.0397 -1.7405
  854MOL0     H12666   2.170   1.821   9.457  4.6594 -2.0176  1.0075
  854MOL0     H12667   1.943   1.839   9.443 -0.7654 -0.8872 -1.5516
  854MOL0     H12668   1.990   1.827   9.604  0.7438 -0.0800 -0.4121
  854MOL0     H12669   1.914   1.623   9.647  0.8450 -0.4851  0.3539
  854MOL0     H12670   1.871   1.574   9.480 -0.2997 -0.7287  1.0593
  854MOL0     H12671   1.687   1.752   9.481 -3.3008  0.9711  1.2612
  854MOL0     H12672   1.663   1.622   9.607  0.9182 -1.3613  0.7420
  854MOL0     H12673   1.780   1.899   9.629 -0.0743 -1.2621 -2.3670
  854MOL0     H12674   1.780   1.789   9.761 -3.3203 -0.8212  1.1713
  854MOL0     H12675   1.552   1.774   9.784  0.7371  0.7302  1.8755
  854MOL0     H12676   1.515   1.856   9.630 -1.1819 -1.2415  0.2963
  854MOL0     H12677   1.668   1.979   9.864  2.4614 -1.9423 -2.0908
  854MOL0     H12678   1.648   2.052   9.715  2.7814 -1.5667 -1.0816
  854MOL0     H12679   1.418   1.937   9.908  1.7969  0.7244  0.8387
  854MOL0     H12680   1.383   2.022   9.752  0.9111 -1.1505 -0.5529
  854MOL0     H12681   1.560   2.097  10.092 -1.7579 -0.8286  0.8920
  854MOL0     H12682   1.404   2.294  10.266  0.6019 -0.1914  0.3985
  854MOL0     H12683   1.394   2.452  10.187 -1.6575 -1.3502 -2.2891
  854MOL0     H12684   1.624   2.286  10.280 -3.5969 -0.9685  1.4114
  854MOL0     H12685   1.596   2.447  10.343  2.0528  1.1638 -1.2306
  854MOL0     H12686   1.696   2.395  10.059  0.3036  2.3557 -1.5263
  854MOL0     H12687   1.621   2.547  10.111 -1.5305 -0.7800 -2.5011
  854MOL0     H12688   1.792   2.580  10.294  1.2152 -1.8591  2.0494
  854MOL0     H12689   1.837   2.585  10.126 -2.1412 -0.9812 -2.2698
  854MOL0     H12690   2.088   2.243  10.325 -3.2454 -0.1547  1.4550
  854MOL0     H12691   2.305   2.293  10.413  1.6520 -1.0570 -2.0513
  854MOL0     H12692   2.677   2.744  10.119  2.0504  1.1564 -1.6656
  854MOL0     H12693   2.906   2.756  10.124  1.4707  0.2136  0.9617
  854MOL0     H12694   3.133   2.566  10.404 -2.8200  0.4754 -1.8092
  854MOL0     H12695   3.144   2.709  10.505 -0.1049  0.7211 -0.0496
  854MOL0     H12696   3.328   2.639  10.264  1.2542 -0.5161  0.8295
  854MOL0     H12697   3.367   2.653  10.437  0.0262 -1.2500 -0.4781
  854MOL0     H12698   3.285   2.898  10.407 -2.1600 -1.1052 -2.4237
  854MOL0     H12699   3.319   2.870  10.242  0.7914  0.8577 -0.8556
  854MOL0     H12700   3.521   2.824  10.483 -1.6883  3.1470  2.4188
  854MOL0     H12701   3.559   2.816  10.313 -0.1333 -0.6493  0.9806
  854MOL0     H12702   3.453   3.070  10.431  0.2138 -0.5196 -0.5629
  854MOL0     H12703   3.512   3.040  10.275  0.9179  0.1435 -0.8451
  854MOL0     H12704   3.742   2.989  10.375 -1.3500 -0.9555 -1.7613
  854MOL0     H12705   3.688   3.000  10.536  2.0717 -0.9832 -0.9376
  854MOL0     H12706   3.695   3.220  10.333  0.6872 -0.2793 -0.6363
  854MOL0     H12707   3.592   3.242  10.471  0.1207  0.0899  1.6314
  854MOL0     H12708   3.876   3.161  10.541 -0.1369  1.4716  2.6022
  854MOL0     H12709   3.758   3.240  10.635  0.9923 -0.9788  1.0889
  854MOL0     H12710   2.926   2.658  10.546  0.3229 -1.4639 -0.8724
  854MOL0     H12711   2.677   2.614  10.544 -0.3936 -1.4208 -1.2285
  854MOL0     H12712   2.288   2.669  10.201  1.2157 -0.8519  0.7707
  854MOL0     H12713   2.050   2.642  10.165  0.8884  1.6747  0.3204
  854MOL0     H12714   2.323   1.701   9.335  0.6976 -0.7521 -0.8274
  854MOL0     H12715   2.587   1.669   9.341  1.7725  2.0062  1.2933
  854MOL0     H12716   2.901   1.186   9.511 -2.6416  1.8202 -2.3778
  854MOL0     H12717   3.135   1.151   9.574 -1.6251 -0.3776  2.7462
  854MOL0     H12718   3.284   1.374   9.821 -0.0812  3.4038  0.7749
  854MOL0     H12719   3.367   1.497   9.732  1.4198  0.8638  4.1423
  854MOL0     H12720   3.560   1.362   9.664 -1.4453  0.3469 -0.9636
  854MOL0     H12721   3.551   1.367   9.831  0.6744 -1.1746 -0.5806
  854MOL0     H12722   3.598   1.138   9.718  0.9219  1.0981  0.9641
  854MOL0     H12723   3.425   1.122   9.703 -0.2083  0.0343  0.5898
  854MOL0     H12724   3.394   1.154   9.937 -0.5437  1.8083 -1.1726
  854MOL0     H12725   3.516   1.023   9.915  2.7391  0.6709 -0.4693
  854MOL0     H12726   3.733   1.312  10.125 -1.9059  0.5187  1.9082
  854MOL0     H12727   3.195   1.568   9.596  0.6124 -0.7417 -0.5248
  854MOL0     H12728   2.953   1.603   9.557 -0.0667  0.0312 -1.7905
  855MOL0     O12729   3.278  10.140   4.955  0.0831  0.0841  0.4553
  855MOL0     C12730   3.343  10.196   5.042 -0.0220 -0.7733  0.1091
  855MOL0     O12731   3.318  10.317   5.093 -0.3492 -0.2368  0.7341
  855MOL0     C12732   3.215  10.396   5.047  0.3740  0.6824  1.5133
  855MOL0     C12733   3.078  10.365   5.071  0.3510 -0.1431 -0.3961
  855MOL0     C12734   2.975  10.458   5.029  0.3491 -0.2842  0.4586
  855MOL0     C12735   3.013  10.563   4.948  0.4736  0.5307  0.2570
  855MOL0     O12736   2.914  10.637   4.892  0.1177  0.0295  0.1775
  855MOL0     C12737   2.958  10.705   4.768  0.4408  0.3902 -0.4812
  855MOL0     C12738   2.848  10.774   4.687 -0.0640  0.4778 -0.7112
  855MOL0     C12739   2.898  10.815   4.549 -0.0616 -0.0728  0.5784
  855MOL0     C12740   2.785  10.866   4.453  0.4410 -0.8004 -0.4424
  855MOL0     C12741   2.724  11.001   4.516 -0.0794  0.4300  0.6616
  855MOL0     C12742   2.648  11.080   4.417 -0.2052  0.2227 -0.1145
  855MOL0     C12743   2.550  11.167   4.501 -0.5627 -0.1152  0.1510
  855MOL0     C12744   2.433  11.088   4.565  0.1023  0.2017 -0.1882
  855MOL0     N12745   2.367  11.008   4.459  0.3074 -0.5284 -0.1704
  855MOL0     C12746   2.274  11.067   4.380  0.6931 -0.7763 -0.0023
  855MOL0     C12747   2.211  10.961   4.324 -0.0871 -0.2701 -0.0692
  855MOL0     C12748   2.108  10.986   4.217 -0.3231  0.4064 -0.2456
  855MOL0     C12749   2.047  10.851   4.157 -0.4119 -0.3094  0.4421
  855MOL0     C12750   1.933  10.873   4.059 -0.1299 -0.1965  0.4567
  855MOL0     C12751   1.804  10.929   4.121  0.5699 -0.8536 -0.5701
  855MOL0     O12752   1.707  10.905   4.013  0.3389  0.1097  0.3671
  855MOL0     C12753   1.571  10.945   4.028  0.2846  0.4059 -0.4345
  855MOL0     C12754   1.486  10.913   3.924 -0.0929 -0.0319 -0.5267
  855MOL0     C12755   1.346  10.940   3.927  0.1902  0.4251  0.3771
  855MOL0     C12756   1.294  11.001   4.045 -0.1380 -0.3045  0.6077
  855MOL0     C12757   1.153  11.047   4.041  0.0562  0.2971  0.0327
  855MOL0     O12758   1.109  11.101   4.154  0.3775 -0.3138  0.3348
  855MOL0     C12759   0.970  11.122   4.170 -0.4957 -0.2652  0.0801
  855MOL0     C12760   0.865  11.042   4.103  0.1660 -0.6204 -0.7739
  855MOL0     C12761   0.726  11.085   4.112 -0.1338 -0.3798 -0.8259
  855MOL0     C12762   0.694  11.201   4.189 -0.6416 -0.5036 -0.2009
  855MOL0     O12763   0.568  11.252   4.198  0.2004 -0.0949 -0.4076
  855MOL0     C12764   0.543  11.325   4.311  0.3361 -0.4046  0.3805
  855MOL0     C12765   0.395  11.337   4.345 -0.5052  0.4255  0.3466
  855MOL0     C12766   0.367  11.420   4.467 -0.1563  0.3656 -0.1738
  855MOL0     C12767   0.220  11.414   4.512  0.2603  0.1066 -0.4354
  855MOL0     C12768   0.194  11.518   4.627  0.0341  0.1506 -0.0250
  855MOL0     C12769   0.051  11.530   4.683 -0.2251  0.0374  0.8363
  855MOL0     C12770   0.035  11.644   4.787 -0.0356 -0.7262  0.4906
  855MOL0     C12771  -0.106  11.640   4.840 -0.6381  0.6803 -0.1362
  855MOL0    Cl12772  -0.114  11.801   4.931 -0.1508 -0.0783 -0.0719
  855MOL0     C12773   0.801  11.279   4.245  0.3624  0.2203 -0.1153
  855MOL0     C12774   0.935  11.238   4.238  0.3056 -0.2092  0.0953
  855MOL0     O12775   1.097  11.053   3.931 -0.4787 -0.5696  0.5065
  855MOL0     C12776   1.384  11.031   4.146  1.0095  0.7286  0.1611
  855MOL0     C12777   1.518  10.999   4.147  0.8440 -0.6684  0.2022
  855MOL0     N12778   2.268  10.845   4.363  0.1607  0.7539  0.1131
  855MOL0     N12779   2.359  10.875   4.452  1.0868  0.9395 -0.4752
  855MOL0     C12780   3.154  10.586   4.920 -0.0314 -0.4699 -0.3994
  855MOL0     C12781   3.255  10.504   4.967  0.5931  0.1233 -0.1229
  855MOL0     C12782   3.464  10.130   5.098  0.3431 -0.7936  1.0846
  855MOL0     C12783   3.556  10.058   5.012 -0.7395  0.5036 -0.2276
  855MOL0     C12784   3.682  10.013   5.069  0.8625 -0.0945  0.1207
  855MOL0     C12785   3.712  10.039   5.204  0.0246  0.1883 -0.0669
  855MOL0     O12786   3.824   9.979   5.250 -0.0529  0.0549  0.1245
  855MOL0     C12787   3.875   9.995   5.387  0.0372 -1.3399 -0.3623
  855MOL0     C12788   3.989   9.895   5.400  0.0266 -0.9838 -0.2302
  855MOL0     C12789   4.108   9.911   5.291  0.1778  0.3137 -0.4194
  855MOL0     C12790   4.234   9.848   5.338 -0.3130  0.2999 -0.4003
  855MOL0     C12791   4.221   9.700   5.355  0.0451  0.3115  0.2357
  855MOL0     C12792   4.208   9.577   5.366  0.1756  0.1366 -0.2492
  855MOL0     C12793   3.633  10.113   5.286  0.4960 -0.3332 -0.1808
  855MOL0     C12794   3.504  10.157   5.232 -0.0693  0.5717  0.2342
  855MOL0     H12795   3.053  10.280   5.133 -1.2812  1.7930  1.7998
  855MOL0     H12796   2.869  10.438   5.041  0.1627  0.0588 -0.4892
  855MOL0     H12797   3.011  10.634   4.705 -0.7645 -1.9811  1.0277
  855MOL0     H12798   3.025  10.786   4.795 -0.1417  1.4987 -2.1959
  855MOL0     H12799   2.809  10.860   4.742  1.0162  1.1315 -0.9287
  855MOL0     H12800   2.765  10.703   4.676  1.0591 -0.9073 -0.4994
  855MOL0     H12801   2.937  10.727   4.498 -0.1651 -0.3358  0.9570
  855MOL0     H12802   2.982  10.885   4.553 -0.3467  0.2757  0.5393
  855MOL0     H12803   2.833  10.889   4.357  4.8115 -1.9496  1.2144
  855MOL0     H12804   2.698  10.801   4.444 -1.0406  1.1795 -1.1636
  855MOL0     H12805   2.793  11.058   4.578 -1.0967  0.2511  2.0106
  855MOL0     H12806   2.660  10.953   4.591 -0.0424 -2.2041 -0.8450
  855MOL0     H12807   2.586  11.024   4.347  1.8523 -1.9982 -0.2952
  855MOL0     H12808   2.709  11.147   4.356 -0.9969  1.7505  0.7024
  855MOL0     H12809   2.607  11.225   4.575  2.3936 -1.4695 -0.9026
  855MOL0     H12810   2.509  11.234   4.426  0.5503 -0.2259 -0.5781
  855MOL0     H12811   2.365  11.156   4.618 -1.0980  0.2163 -1.7039
  855MOL0     H12812   2.477  11.028   4.645  0.1707  2.0694  1.2744
  855MOL0     H12813   2.254  11.172   4.366  1.0923 -1.0387 -3.2376
  855MOL0     H12814   2.149  11.053   4.140  1.1585  0.5222  0.5951
  855MOL0     H12815   2.033  11.038   4.276  2.2024  0.4569  3.2835
  855MOL0     H12816   2.009  10.789   4.238 -0.7571  1.7981  1.9876
  855MOL0     H12817   2.134  10.802   4.112  0.8769  0.8609  1.5253
  855MOL0     H12818   1.972  10.928   3.973  1.7155 -1.4406  0.4312
  855MOL0     H12819   1.899  10.776   4.020  0.5499 -1.1307  2.1056
  855MOL0     H12820   1.813  11.035   4.146 -0.4207 -0.9786  0.4108
  855MOL0     H12821   1.775  10.873   4.211 -1.8798  1.9075  0.5311
  855MOL0     H12822   1.526  10.855   3.842  0.9813 -1.1332  0.7336
  855MOL0     H12823   1.285  10.911   3.842 -1.3223  1.0865  1.2135
  855MOL0     H12824   0.888  10.957   4.040 -0.2021 -0.0129 -1.7531
  855MOL0     H12825   0.641  11.041   4.060 -0.9762 -0.0916  0.2837
  855MOL0     H12826   0.570  11.430   4.297 -2.5555  0.3026 -0.7579
  855MOL0     H12827   0.597  11.280   4.394  1.6264 -0.3239 -0.3915
  855MOL0     H12828   0.341  11.241   4.345 -0.5834  0.4494 -0.8206
  855MOL0     H12829   0.349  11.389   4.260 -2.2326  1.9130  2.0967
  855MOL0     H12830   0.400  11.524   4.458  1.9050 -0.2311 -0.1283
  855MOL0     H12831   0.425  11.376   4.548 -0.9075  0.1963  0.2841
  855MOL0     H12832   0.154  11.433   4.426 -0.2679  1.0745  0.1562
  855MOL0     H12833   0.205  11.312   4.547  1.8114 -0.4645 -1.3667
  855MOL0     H12834   0.221  11.618   4.594  1.1187  0.0838  0.5917
  855MOL0     H12835   0.263  11.501   4.710  0.9235  0.1853 -0.7435
  855MOL0     H12836   0.020  11.438   4.732  0.4195  0.5551  2.2895
  855MOL0     H12837  -0.017  11.550   4.600  0.6324 -1.8894 -0.4072
  855MOL0     H12838   0.113  11.657   4.864  1.9764  2.5657 -1.8290
  855MOL0     H12839   0.034  11.740   4.735  2.5543 -0.1620  1.3261
  855MOL0     H12840  -0.140  11.555   4.901 -0.3170  0.8351  0.2662
  855MOL0     H12841  -0.178  11.640   4.757  0.2255 -2.7363 -1.0032
  855MOL0     H12842   0.782  11.367   4.306  0.7997  2.0141 -2.4488
  855MOL0     H12843   1.007  11.300   4.290 -1.9832  1.7100  1.1582
  855MOL0     H12844   1.353  11.085   4.235  0.5015  2.1396 -0.8339
  855MOL0     H12845   1.582  11.014   4.233  0.7863 -0.7269  0.2554
  855MOL0     H12846   3.178  10.680   4.871  1.5289 -1.0222 -0.7424
  855MOL0     H12847   3.363  10.518   4.960  1.0594 -2.3290  0.9763
  855MOL0     H12848   3.546  10.030   4.907  0.1840 -0.0954 -0.1690
  855MOL0     H12849   3.754   9.955   5.011 -0.5449 -0.9638 -0.8150
  855MOL0     H12850   3.800   9.973   5.463  0.5191  0.4692  0.6991
  855MOL0     H12851   3.905  10.096   5.415 -0.9493 -1.1057 -0.1127
  855MOL0     H12852   4.022   9.906   5.504 -3.0049  0.7309  0.7026
  855MOL0     H12853   3.942   9.797   5.394  0.7258 -1.2247 -3.2692
  855MOL0     H12854   4.131  10.018   5.292  0.3522  0.2773  0.0755
  855MOL0     H12855   4.082   9.872   5.193  0.0663 -1.8992  0.4268
  855MOL0     H12856   4.320   9.879   5.277  0.8457  5.1705  3.1042
  855MOL0     H12857   4.273   9.885   5.433 -0.0215 -1.4638  0.2024
  855MOL0     H12858   4.203   9.472   5.388 -0.2948  0.3577  0.7560
  855MOL0     H12859   3.653  10.131   5.391 -3.2214 -0.4908  0.7131
  855MOL0     H12860   3.428  10.210   5.288 -1.6773  0.1585 -1.4895
  856MOL0     O12861   9.723   6.977   2.821  0.9763 -0.6435  0.1626
  856MOL0     C12862   9.758   6.858   2.836 -0.0252 -0.0718  0.2507
  856MOL0     O12863   9.668   6.757   2.869  0.1839  0.2884 -0.3908
  856MOL0     C12864   9.536   6.780   2.881  0.9102 -0.1510  0.4689
  856MOL0     C12865   9.452   6.841   2.784  0.5007  0.1866  0.7937
  856MOL0     C12866   9.322   6.880   2.815  0.1709  0.2151  0.3636
  856MOL0     C12867   9.269   6.848   2.942 -0.0740  0.3420  0.5232
  856MOL0     O12868   9.140   6.884   2.962  0.3716 -0.2279  0.1133
  856MOL0     C12869   9.076   6.848   3.085  0.3098 -0.3291 -0.4655
  856MOL0     C12870   9.081   6.951   3.200  0.3718  0.3781  0.3502
  856MOL0     C12871   9.027   6.908   3.330 -0.0012  0.5482  0.1335
  856MOL0     C12872   8.878   6.916   3.342 -1.1551 -0.2950  0.6189
  856MOL0     C12873   8.831   6.867   3.474 -0.2431  0.4748 -0.2746
  856MOL0     C12874   8.832   6.966   3.585  0.5865 -0.2203  0.3230
  856MOL0     C12875   8.733   7.083   3.560  0.8466 -0.4468  0.4369
  856MOL0     C12876   8.583   7.046   3.577  0.3376  1.0030 -0.4741
  856MOL0     N12877   8.548   6.994   3.711  0.1443  0.7278 -0.1971
  856MOL0     C12878   8.527   6.863   3.752 -1.1437  0.1682 -0.8788
  856MOL0     C12879   8.496   6.875   3.885 -0.6113  0.0289 -0.3978
  856MOL0     C12880   8.468   6.759   3.973  0.2560 -0.8212 -0.8700
  856MOL0     C12881   8.340   6.678   3.944  0.4769 -1.1650  0.6172
  856MOL0     C12882   8.205   6.754   3.936  0.1394 -0.7930 -0.3309
  856MOL0     C12883   8.200   6.853   4.053  0.4294 -0.3965 -0.3950
  856MOL0     O12884   8.089   6.942   4.049 -0.0968 -1.0189  0.3426
  856MOL0     C12885   8.048   7.025   4.152  0.1740 -0.5863  0.6013
  856MOL0     C12886   7.935   7.105   4.120  0.6776  0.4012 -0.6016
  856MOL0     C12887   7.898   7.209   4.216 -0.5927  0.8137  0.0054
  856MOL0     C12888   7.963   7.226   4.338 -0.0384  0.5486 -0.6640
  856MOL0     C12889   7.922   7.325   4.436  0.4844 -1.0251 -0.3166
  856MOL0     O12890   7.799   7.386   4.411  0.0768  0.6207  0.0872
  856MOL0     C12891   7.742   7.472   4.500 -0.3718 -0.3530  0.1350
  856MOL0     C12892   7.608   7.457   4.527 -0.0189  0.5165  0.6065
  856MOL0     C12893   7.537   7.561   4.593 -0.8860 -0.8279 -0.6104
  856MOL0     C12894   7.599   7.678   4.634 -0.5103  0.1145 -0.4430
  856MOL0     O12895   7.524   7.777   4.695  0.5765  0.1329  0.1549
  856MOL0     C12896   7.591   7.890   4.753  0.6163 -0.4679  0.3899
  856MOL0     C12897   7.492   7.976   4.821 -0.5312 -0.9384  0.5167
  856MOL0     C12898   7.428   7.905   4.941  0.6544  0.1464 -0.1544
  856MOL0     C12899   7.312   7.967   5.023  0.2148 -0.3342  1.4732
  856MOL0     C12900   7.350   8.109   5.084  0.2817 -0.6084 -0.1520
  856MOL0     C12901   7.471   8.095   5.179  0.3762  0.2723 -0.3826
  856MOL0     C12902   7.504   8.226   5.252  0.6825 -0.0353 -0.0017
  856MOL0     C12903   7.623   8.215   5.354 -0.3138 -0.4826 -0.1185
  856MOL0    Cl12904   7.766   8.192   5.250  0.3111 -0.2555  0.2657
  856MOL0     C12905   7.741   7.684   4.619 -0.1855  0.3066 -0.5283
  856MOL0     C12906   7.809   7.582   4.558  0.3949  0.2662  1.0471
  856MOL0     O12907   7.996   7.342   4.533  0.0570 -0.1399  0.0014
  856MOL0     C12908   8.081   7.157   4.355 -0.1164 -1.2989  0.0089
  856MOL0     C12909   8.125   7.063   4.266  0.3069 -0.1016  0.0688
  856MOL0     N12910   8.492   7.005   3.918  0.4022  0.3329  0.2026
  856MOL0     N12911   8.513   7.079   3.814 -0.0684  0.1874  0.9563
  856MOL0     C12912   9.353   6.784   3.036  0.9135 -0.1672 -0.5789
  856MOL0     C12913   9.484   6.750   3.002  0.7477 -0.1272 -0.6978
  856MOL0     C12914   9.900   6.831   2.845 -0.5122 -0.8117 -0.1791
  856MOL0     C12915   9.942   6.699   2.878 -0.6583  0.4615 -0.7668
  856MOL0     C12916  10.080   6.668   2.871  1.1572 -0.3066  0.0588
  856MOL0     C12917  10.171   6.752   2.808  1.3326 -0.3919  0.2883
  856MOL0     O12918  10.299   6.716   2.790 -0.3374  0.6465  0.0436
  856MOL0     C12919  10.314   6.591   2.714 -0.0425 -0.2569 -0.2552
  856MOL0     C12920  10.459   6.565   2.675 -0.5526 -0.6750 -0.3215
  856MOL0     C12921  10.561   6.630   2.770  0.4930  0.2322  0.2974
  856MOL0     C12922  10.696   6.574   2.735 -0.4624 -0.6245 -0.3192
  856MOL0     C12923  10.801   6.657   2.786  0.0625 -0.8165  0.0812
  856MOL0     C12924  10.894   6.708   2.838 -0.1792 -0.5348 -0.4037
  856MOL0     C12925  10.130   6.881   2.771 -0.6066 -0.0969 -0.7332
  856MOL0     C12926   9.998   6.921   2.795 -0.0750 -0.3847  0.1756
  856MOL0     H12927   9.484   6.858   2.682 -0.3248 -2.5631 -0.0142
  856MOL0     H12928   9.267   6.941   2.745  0.3897 -0.8682 -0.7915
  856MOL0     H12929   9.100   6.744   3.104 -1.3924 -0.7595 -0.5288
  856MOL0     H12930   8.970   6.854   3.061 -0.0525 -1.9861  0.6019
  856MOL0     H12931   9.027   7.041   3.170  1.1646  0.7437 -0.0197
  856MOL0     H12932   9.188   6.969   3.213  1.5101 -2.8566 -2.8746
  856MOL0     H12933   9.067   6.981   3.401 -0.5085  1.0143 -0.0546
  856MOL0     H12934   9.067   6.810   3.357 -1.5197 -0.7801 -2.1170
  856MOL0     H12935   8.834   7.010   3.309  0.5990  0.3828  0.0624
  856MOL0     H12936   8.850   6.838   3.269 -1.2678  1.1908 -0.9897
  856MOL0     H12937   8.898   6.786   3.507 -0.2635  1.4458  2.3884
  856MOL0     H12938   8.726   6.840   3.463 -0.3492  0.2830  1.0805
  856MOL0     H12939   8.934   7.003   3.598  0.0580  1.1282  0.8353
  856MOL0     H12940   8.814   6.919   3.682  0.8230  1.4935  1.2309
  856MOL0     H12941   8.751   7.166   3.630  0.5570 -0.5045  0.5811
  856MOL0     H12942   8.745   7.125   3.459  1.1589  0.0384  0.6687
  856MOL0     H12943   8.571   6.961   3.509 -0.7401  0.3033  0.5493
  856MOL0     H12944   8.525   7.136   3.555 -0.7942 -0.4422 -4.2751
  856MOL0     H12945   8.539   6.772   3.694  1.7341 -0.2968  0.2791
  856MOL0     H12946   8.471   6.790   4.078 -0.4913 -1.8983 -0.5130
  856MOL0     H12947   8.549   6.686   3.966 -0.9459 -2.1905 -1.0787
  856MOL0     H12948   8.342   6.601   4.021  0.4032 -0.7071  1.0839
  856MOL0     H12949   8.355   6.633   3.846  2.5471  0.1623  0.2532
  856MOL0     H12950   8.202   6.810   3.842 -0.2811  3.1795  1.8266
  856MOL0     H12951   8.125   6.680   3.925  0.0455 -0.7131 -0.1928
  856MOL0     H12952   8.292   6.911   4.056  1.4559 -1.9882  0.2211
  856MOL0     H12953   8.198   6.800   4.148  0.5924  0.5629  0.1506
  856MOL0     H12954   7.875   7.092   4.030  0.9650  0.5411 -0.8169
  856MOL0     H12955   7.799   7.253   4.214 -0.8527  0.2299 -0.2474
  856MOL0     H12956   7.543   7.376   4.495 -1.1748  2.4599 -2.4530
  856MOL0     H12957   7.430   7.562   4.610 -0.8569 -0.6352 -0.4380
  856MOL0     H12958   7.636   7.951   4.673  0.1129  2.5097  2.2535
  856MOL0     H12959   7.672   7.858   4.819 -0.7483 -0.8430  1.9359
  856MOL0     H12960   7.409   8.008   4.756  0.9844 -2.7114 -2.5117
  856MOL0     H12961   7.541   8.067   4.854 -2.3128  0.6497 -0.9565
  856MOL0     H12962   7.503   7.859   5.006 -0.1573 -2.3991 -0.8848
  856MOL0     H12963   7.385   7.810   4.908 -0.6340  1.0396 -1.1522
  856MOL0     H12964   7.224   7.984   4.960  2.1025 -0.5973 -1.4096
  856MOL0     H12965   7.289   7.895   5.101 -0.7358 -0.5973  0.9712
  856MOL0     H12966   7.269   8.144   5.149  0.3017 -3.1351  1.3711
  856MOL0     H12967   7.356   8.172   4.995 -1.5638 -0.4731 -0.2144
  856MOL0     H12968   7.561   8.057   5.129  0.3488 -2.3288  1.4067
  856MOL0     H12969   7.444   8.025   5.258  1.7727 -2.0021 -1.8108
  856MOL0     H12970   7.538   8.296   5.175  0.8050  0.1475  0.2126
  856MOL0     H12971   7.422   8.270   5.310  1.0526  2.0994 -0.9986
  856MOL0     H12972   7.613   8.139   5.432 -1.3556 -0.8336 -0.5750
  856MOL0     H12973   7.628   8.309   5.409 -0.6325  1.2979 -2.9729
  856MOL0     H12974   7.795   7.765   4.666 -1.5956  0.7159  0.4434
  856MOL0     H12975   7.917   7.583   4.549  0.4249 -1.4038  0.9529
  856MOL0     H12976   8.141   7.181   4.442 -0.8896  0.5685  0.0784
  856MOL0     H12977   8.223   7.021   4.285  0.9145  1.7544  1.3590
  856MOL0     H12978   9.304   6.757   3.129 -0.6021 -0.2379 -1.3607
  856MOL0     H12979   9.552   6.703   3.072  0.0246 -3.6480 -2.1470
  856MOL0     H12980   9.870   6.636   2.929  0.2685  0.9243  1.1978
  856MOL0     H12981  10.118   6.577   2.917  0.3130  0.2167  1.8804
  856MOL0     H12982  10.249   6.604   2.627  2.5704  1.9442 -2.0682
  856MOL0     H12983  10.274   6.510   2.775 -3.5994  0.6322 -1.1552
  856MOL0     H12984  10.479   6.458   2.664  0.7508 -0.9662  3.5371
  856MOL0     H12985  10.475   6.595   2.571  2.8198 -2.8856 -0.5822
  856MOL0     H12986  10.534   6.607   2.874  1.1227 -0.5396  0.3036
  856MOL0     H12987  10.553   6.738   2.755  1.5935  0.1449 -1.1798
  856MOL0     H12988  10.713   6.473   2.774  2.3854 -1.4666 -3.2793
  856MOL0     H12989  10.694   6.578   2.625 -0.9608 -1.7077 -0.3625
  856MOL0     H12990  10.978   6.757   2.883  1.3415 -3.3237  0.0435
  856MOL0     H12991  10.202   6.933   2.708  0.7587 -1.5463 -0.4517
  856MOL0     H12992   9.965   7.012   2.746  0.9380 -0.6854 -1.1201
  857MOL0     O12993   0.472   3.401   3.860 -0.2837  0.0306 -0.0704
  857MOL0     C12994   0.442   3.331   3.766 -0.5451  0.5692  0.0390
  857MOL0     O12995   0.327   3.332   3.699  0.0558  0.4785 -0.1277
  857MOL0     C12996   0.222   3.408   3.742  0.6629 -0.7899  0.7720
  857MOL0     C12997   0.155   3.385   3.858 -0.1355  0.9950  0.6361
  857MOL0     C12998   0.042   3.460   3.897 -0.0692 -0.2257  0.1539
  857MOL0     C12999  -0.012   3.543   3.802  1.0658  0.0151 -0.5366
  857MOL0     O13000  -0.134   3.611   3.810 -0.7691 -0.3993  0.4080
  857MOL0     C13001  -0.238   3.562   3.896  0.4982 -0.5742 -0.5153
  857MOL0     C13002  -0.326   3.471   3.815 -0.2380  0.0190  0.6143
  857MOL0     C13003  -0.452   3.547   3.754  0.6790  0.3357 -0.3782
  857MOL0     C13004  -0.538   3.441   3.680 -0.3996  0.0773  0.7504
  857MOL0     C13005  -0.666   3.505   3.616 -0.4309 -0.1106  0.4210
  857MOL0     C13006  -0.762   3.393   3.587  0.1970 -0.3612 -0.0992
  857MOL0     C13007  -0.873   3.454   3.498  0.0786  0.7571 -0.3423
  857MOL0     C13008  -0.977   3.353   3.461 -0.5401  0.2996  0.5577
  857MOL0     N13009  -1.107   3.418   3.415 -0.5689  0.4262  0.5280
  857MOL0     C13010  -1.134   3.469   3.292 -0.2222 -0.3031 -1.0507
  857MOL0     C13011  -1.270   3.503   3.305 -0.1058 -0.0424 -0.1459
  857MOL0     C13012  -1.341   3.545   3.185  1.4756  1.0219  0.0269
  857MOL0     C13013  -1.451   3.440   3.154  0.3387 -0.8514 -0.5349
  857MOL0     C13014  -1.531   3.490   3.037 -0.0317 -0.3844 -0.4648
  857MOL0     C13015  -1.621   3.376   3.000 -0.8130  0.0155 -0.1665
  857MOL0     O13016  -1.701   3.425   2.894  0.1121 -0.5615 -0.2780
  857MOL0     C13017  -1.798   3.340   2.851 -0.0591  0.5927  0.7109
  857MOL0     C13018  -1.812   3.199   2.884 -0.3025 -0.3905 -0.1666
  857MOL0     C13019  -1.912   3.119   2.819  0.1695 -0.1663 -0.0959
  857MOL0     C13020  -1.992   3.178   2.717 -0.7869  0.1112 -0.0470
  857MOL0     C13021  -2.102   3.098   2.668 -0.0153  0.3488  0.7284
  857MOL0     O13022  -2.212   3.166   2.618 -0.0890 -0.0864 -0.5819
  857MOL0     C13023  -2.329   3.093   2.597 -0.3439 -0.9158  0.7309
  857MOL0     C13024  -2.338   2.983   2.513  0.0465  0.7960  0.4353
  857MOL0     C13025  -2.451   2.913   2.490  0.3870  0.2138 -0.4123
  857MOL0     C13026  -2.567   2.947   2.555 -0.6270 -0.4477  0.0734
  857MOL0     O13027  -2.686   2.883   2.545 -0.3725 -0.0159 -0.4351
  857MOL0     C13028  -2.722   2.841   2.412 -0.4658 -0.5884 -0.0139
  857MOL0     C13029  -2.868   2.790   2.424  0.5548 -0.3390  0.4148
  857MOL0     C13030  -2.917   2.737   2.289 -0.7033 -0.3336  1.1408
  857MOL0     C13031  -3.062   2.701   2.300 -0.7544 -0.1861  0.4235
  857MOL0     C13032  -3.155   2.829   2.268 -0.0471  0.6447  0.0018
  857MOL0     C13033  -3.310   2.800   2.304 -0.2290  0.1048 -0.1508
  857MOL0     C13034  -3.405   2.900   2.237  0.1185 -0.8137  0.2330
  857MOL0     C13035  -3.550   2.871   2.273  0.6067  0.9800 -0.4798
  857MOL0    Cl13036  -3.583   2.920   2.444 -0.0054  0.1422 -0.3082
  857MOL0     C13037  -2.567   3.057   2.630  0.0583 -0.2128  0.3781
  857MOL0     C13038  -2.453   3.135   2.649  0.1470 -0.2911  0.7614
  857MOL0     O13039  -2.086   2.975   2.659 -0.4903 -0.1118 -0.3913
  857MOL0     C13040  -1.979   3.314   2.696 -0.3592  0.1716 -0.1739
  857MOL0     C13041  -1.882   3.393   2.750 -0.5814  0.2685 -0.1412
  857MOL0     N13042  -1.315   3.483   3.434 -0.2025 -0.4481  0.0734
  857MOL0     N13043  -1.213   3.440   3.493 -0.1629  0.4103  0.0691
  857MOL0     C13044   0.061   3.584   3.692 -0.8873  0.5060 -0.4202
  857MOL0     C13045   0.182   3.520   3.664  0.1730 -0.0321  0.0595
  857MOL0     C13046   0.554   3.230   3.727 -0.6230  0.7131  0.0291
  857MOL0     C13047   0.558   3.171   3.601  0.2211 -0.5682  0.9541
  857MOL0     C13048   0.678   3.108   3.557  0.0506  1.1314 -0.0128
  857MOL0     C13049   0.781   3.086   3.644 -0.8409 -0.3184 -0.5980
  857MOL0     O13050   0.881   3.007   3.588 -0.7108  0.2875  0.5646
  857MOL0     C13051   0.980   2.955   3.673 -0.1301 -0.4688  0.4423
  857MOL0     C13052   0.923   2.843   3.750  0.1464 -0.1689  0.7490
  857MOL0     C13053   1.001   2.813   3.872  0.0548 -0.5345 -0.1877
  857MOL0     C13054   0.963   2.675   3.943 -0.5532 -0.1750 -0.2131
  857MOL0     C13055   1.020   2.562   3.868 -0.4556  0.5835  0.1591
  857MOL0     C13056   1.087   2.477   3.816  0.5271  0.4275 -0.6656
  857MOL0     C13057   0.772   3.135   3.772  0.2534  0.4827  0.8374
  857MOL0     C13058   0.664   3.210   3.808 -0.2487  0.1518 -0.0259
  857MOL0     H13059   0.195   3.312   3.928 -1.8109 -1.3675 -0.7235
  857MOL0     H13060  -0.005   3.437   3.993 -0.1868 -0.0666  0.1353
  857MOL0     H13061  -0.292   3.650   3.933  1.2652 -0.7923  1.2438
  857MOL0     H13062  -0.204   3.513   3.988 -0.3693  0.8982  0.6391
  857MOL0     H13063  -0.352   3.378   3.866  0.6930 -0.0652  0.9533
  857MOL0     H13064  -0.263   3.431   3.735 -1.3262  0.2161 -0.3742
  857MOL0     H13065  -0.418   3.631   3.694  2.3987  0.6623  0.9778
  857MOL0     H13066  -0.516   3.580   3.836  1.1038 -1.5161  0.7578
  857MOL0     H13067  -0.484   3.395   3.597  1.5197  0.8991  1.5028
  857MOL0     H13068  -0.562   3.360   3.750 -0.8706  0.7031  1.3205
  857MOL0     H13069  -0.636   3.552   3.522  0.9006 -1.0261  0.3637
  857MOL0     H13070  -0.711   3.583   3.677 -1.6286 -0.5301  0.0993
  857MOL0     H13071  -0.810   3.352   3.677 -0.4640  2.0448  0.7159
  857MOL0     H13072  -0.698   3.317   3.542  0.5169 -0.4787  0.5364
  857MOL0     H13073  -0.906   3.538   3.560  3.5204  0.1392  2.6933
  857MOL0     H13074  -0.834   3.502   3.408 -0.7797  2.7675  0.3119
  857MOL0     H13075  -1.011   3.291   3.544  0.0142  1.2418  1.5116
  857MOL0     H13076  -0.937   3.287   3.383 -1.5087  2.5896 -2.0733
  857MOL0     H13077  -1.065   3.467   3.208  1.3917  0.1011  0.2129
  857MOL0     H13078  -1.281   3.540   3.094  0.3466 -1.1796 -0.6511
  857MOL0     H13079  -1.385   3.644   3.197  0.1569  0.2797  1.7278
  857MOL0     H13080  -1.517   3.424   3.240 -0.6380  1.8409 -0.6555
  857MOL0     H13081  -1.393   3.350   3.137 -1.6099 -2.8452  2.4769
  857MOL0     H13082  -1.591   3.579   3.057 -0.7323 -0.9850  0.1881
  857MOL0     H13083  -1.464   3.513   2.953 -2.5378  3.0635 -1.6998
  857MOL0     H13084  -1.676   3.347   3.090 -2.3047 -1.4951 -1.5240
  857MOL0     H13085  -1.573   3.284   2.965 -0.8850  0.3424 -1.1588
  857MOL0     H13086  -1.747   3.155   2.959  2.6375  3.4389 -0.1407
  857MOL0     H13087  -1.939   3.021   2.856 -1.2493  1.0480  2.4134
  857MOL0     H13088  -2.245   2.952   2.466  0.4015 -1.5701  2.4635
  857MOL0     H13089  -2.446   2.820   2.435 -2.2206  0.7558 -1.7309
  857MOL0     H13090  -2.656   2.762   2.377  0.3819  0.0751  0.0367
  857MOL0     H13091  -2.727   2.932   2.351 -3.7572 -1.0585 -0.6291
  857MOL0     H13092  -2.934   2.873   2.450 -0.5485 -0.3692 -2.0292
  857MOL0     H13093  -2.881   2.712   2.500 -0.4975 -0.0940  0.5063
  857MOL0     H13094  -2.855   2.654   2.254  1.4559  0.6561  2.3592
  857MOL0     H13095  -2.901   2.809   2.208  0.9200 -1.7524  0.1220
  857MOL0     H13096  -3.073   2.622   2.225  2.3487 -1.2055  0.9357
  857MOL0     H13097  -3.083   2.668   2.402 -0.6776  3.1718  1.6563
  857MOL0     H13098  -3.144   2.859   2.163  0.0598 -1.3907 -0.6092
  857MOL0     H13099  -3.126   2.915   2.330  0.3902 -0.1470  0.9252
  857MOL0     H13100  -3.323   2.804   2.413 -0.7921 -0.7645 -0.1816
  857MOL0     H13101  -3.325   2.696   2.276  1.3886 -0.2401  0.1791
  857MOL0     H13102  -3.368   3.002   2.256 -1.4834  0.8501 -4.3150
  857MOL0     H13103  -3.390   2.881   2.131 -0.6479  1.2700 -0.2973
  857MOL0     H13104  -3.573   2.769   2.243  0.4705  1.1079 -0.8141
  857MOL0     H13105  -3.621   2.925   2.208  0.0694  1.2303  0.2918
  857MOL0     H13106  -2.652   3.093   2.688  2.9009  3.3351  2.8126
  857MOL0     H13107  -2.453   3.226   2.707 -0.0129  0.6791 -0.7003
  857MOL0     H13108  -2.061   3.361   2.642 -0.4063 -0.6930 -0.8701
  857MOL0     H13109  -1.869   3.500   2.741  4.5314 -0.2527 -1.7869
  857MOL0     H13110   0.046   3.674   3.632  1.2707  0.0609 -1.7232
  857MOL0     H13111   0.233   3.548   3.572  0.4936  2.7358  0.9874
  857MOL0     H13112   0.480   3.175   3.526  1.2599 -2.0772 -0.2627
  857MOL0     H13113   0.681   3.069   3.456  0.2457 -0.8063  0.6945
  857MOL0     H13114   1.031   3.033   3.730  0.0689 -0.3448  0.0960
  857MOL0     H13115   1.059   2.913   3.610  1.3824 -1.2867  2.7529
  857MOL0     H13116   0.819   2.866   3.775  0.3298 -0.5204  1.9369
  857MOL0     H13117   0.929   2.763   3.676  0.2759 -1.4794  2.1146
  857MOL0     H13118   0.978   2.893   3.943  1.5620 -1.8039  1.8366
  857MOL0     H13119   1.109   2.813   3.858  0.1332 -1.2212  0.3114
  857MOL0     H13120   0.990   2.670   4.049 -1.4608 -1.0421 -0.0051
  857MOL0     H13121   0.854   2.662   3.942 -0.4204 -1.3494 -1.2712
  857MOL0     H13122   1.157   2.402   3.785 -0.1155 -1.3672  1.8429
  857MOL0     H13123   0.859   3.113   3.834  0.4060  0.7414  0.7205
  857MOL0     H13124   0.667   3.260   3.904 -1.0115  1.9410 -0.8762
  858MOL0     O13125   7.545   5.055   5.825 -0.3664 -0.0097 -0.0321
  858MOL0     C13126   7.615   5.056   5.929  0.5571 -0.1058 -0.0144
  858MOL0     O13127   7.574   5.017   6.055  0.6807 -0.2413 -0.4160
  858MOL0     C13128   7.448   4.973   6.076 -0.2075 -0.5342 -0.3195
  858MOL0     C13129   7.342   5.057   6.028  0.1100  0.5021 -0.5230
  858MOL0     C13130   7.215   5.020   6.066  0.2484 -0.7292  0.2939
  858MOL0     C13131   7.193   4.896   6.129 -0.4048  0.2311  0.1212
  858MOL0     O13132   7.066   4.857   6.143  0.1335 -0.1117  0.1368
  858MOL0     C13133   7.029   4.727   6.180 -0.1229  0.2803  0.0913
  858MOL0     C13134   6.880   4.701   6.211  0.3627  0.2932  0.5691
  858MOL0     C13135   6.795   4.694   6.090 -0.2352  0.1410 -0.1117
  858MOL0     C13136   6.639   4.659   6.105  0.0429  0.2787 -0.7751
  858MOL0     C13137   6.569   4.639   5.968 -1.2353  0.2483  0.5530
  858MOL0     C13138   6.430   4.581   5.991  0.5572 -0.6544  0.3602
  858MOL0     C13139   6.322   4.694   5.977 -0.0943  0.3633  2.0165
  858MOL0     C13140   6.187   4.621   5.995 -0.4809  0.0590 -0.2747
  858MOL0     N13141   6.079   4.720   5.997  0.0424  0.5628 -0.2495
  858MOL0     C13142   6.042   4.799   6.098  0.1358 -1.1175 -0.7497
  858MOL0     C13143   5.948   4.872   6.032  0.3429  0.3060  0.2003
  858MOL0     C13144   5.879   4.989   6.092  0.2661  0.1017  0.7652
  858MOL0     C13145   5.734   5.013   6.027 -0.7126 -1.2062  0.0223
  858MOL0     C13146   5.676   5.146   6.076  0.1688 -0.5801  0.1365
  858MOL0     C13147   5.523   5.167   6.033  0.2738  0.1988  0.1431
  858MOL0     O13148   5.503   5.140   5.897  0.3759  0.2874  0.0754
  858MOL0     C13149   5.379   5.167   5.847 -0.4800  0.4600 -0.4104
  858MOL0     C13150   5.361   5.180   5.706  0.0386 -0.2123  0.1152
  858MOL0     C13151   5.240   5.195   5.648  0.8081 -0.4418 -1.2750
  858MOL0     C13152   5.130   5.232   5.731 -0.0303  0.6221  0.2019
  858MOL0     C13153   5.010   5.292   5.677  0.1352  0.3364 -0.0199
  858MOL0     O13154   4.998   5.284   5.543 -0.2050  0.4496 -0.3480
  858MOL0     C13155   4.875   5.290   5.484 -0.6337 -0.4029 -0.3544
  858MOL0     C13156   4.866   5.343   5.356 -0.4900  0.9018  0.7555
  858MOL0     C13157   4.745   5.366   5.294  0.7909  1.3031  0.2147
  858MOL0     C13158   4.614   5.347   5.365 -0.2238  0.1800 -0.9599
  858MOL0     O13159   4.492   5.367   5.311  0.5787 -0.3752 -0.4246
  858MOL0     C13160   4.487   5.415   5.176  0.3283  0.6181 -0.1074
  858MOL0     C13161   4.486   5.564   5.151  0.7298  0.2540 -0.7215
  858MOL0     C13162   4.373   5.653   5.221 -0.0174  0.1878  0.0457
  858MOL0     C13163   4.230   5.616   5.191  0.1733  0.0349 -0.0836
  858MOL0     C13164   4.163   5.708   5.083 -0.9176 -0.1824 -0.1853
  858MOL0     C13165   4.219   5.677   4.947  0.7697  0.3320  0.7080
  858MOL0     C13166   4.172   5.783   4.842  0.5125 -0.1524 -0.4308
  858MOL0     C13167   4.235   5.756   4.706  0.4721 -0.0847  0.3996
  858MOL0    Cl13168   4.166   5.871   4.587  0.0947  0.2324  0.0838
  858MOL0     C13169   4.627   5.292   5.493 -0.1315  0.5534  0.3362
  858MOL0     C13170   4.752   5.257   5.549 -0.0267 -0.1482 -0.1254
  858MOL0     O13171   4.931   5.345   5.757 -0.0343  0.0985 -0.0009
  858MOL0     C13172   5.145   5.226   5.868 -0.0299  0.1571 -0.6062
  858MOL0     C13173   5.265   5.182   5.929  0.0551 -0.1963  0.6807
  858MOL0     N13174   5.941   4.848   5.898  0.4623  0.2659  0.2340
  858MOL0     N13175   6.014   4.751   5.877 -0.1501 -0.0520 -0.0885
  858MOL0     C13176   7.303   4.814   6.167 -0.2414 -0.2664  0.2914
  858MOL0     C13177   7.432   4.856   6.143 -0.3669 -0.2678  0.0576
  858MOL0     C13178   7.744   5.132   5.931 -0.2516  0.0511 -0.4647
  858MOL0     C13179   7.800   5.184   6.048  0.6274  0.0420 -0.0736
  858MOL0     C13180   7.915   5.262   6.047 -0.2199  0.1578 -0.0363
  858MOL0     C13181   7.971   5.290   5.919  0.2522  0.0230 -1.2227
  858MOL0     O13182   8.086   5.365   5.901 -0.4347 -0.0864  0.2026
  858MOL0     C13183   8.164   5.395   6.014  0.6381  0.5228 -0.2215
  858MOL0     C13184   8.293   5.451   5.954 -0.1916 -0.0747 -0.6107
  858MOL0     C13185   8.402   5.456   6.067 -0.3176 -0.6675  0.3435
  858MOL0     C13186   8.489   5.329   6.078  0.3133 -0.1348  0.3994
  858MOL0     C13187   8.420   5.242   6.167 -0.2937  0.4489  1.0914
  858MOL0     C13188   8.375   5.172   6.253  0.4804  0.3430 -0.6823
  858MOL0     C13189   7.914   5.248   5.812  0.3430 -0.3504  1.1955
  858MOL0     C13190   7.793   5.174   5.811 -0.2704 -0.2922  0.2298
  858MOL0     H13191   7.358   5.140   5.960 -1.7627 -0.0531 -1.7285
  858MOL0     H13192   7.127   5.075   6.035 -0.8174 -1.2778  2.2084
  858MOL0     H13193   7.085   4.703   6.271 -0.5254  0.4784  0.3922
  858MOL0     H13194   7.063   4.663   6.098 -1.7544  1.9615 -2.0087
  858MOL0     H13195   6.833   4.782   6.268 -2.2703 -1.1767  0.6358
  858MOL0     H13196   6.865   4.613   6.274  1.5107  0.4826  1.1227
  858MOL0     H13197   6.840   4.630   6.012  0.9758  1.2424 -0.3545
  858MOL0     H13198   6.798   4.795   6.048  2.6708  0.0077 -0.4743
  858MOL0     H13199   6.622   4.577   6.175  0.3049  0.3605 -0.6113
  858MOL0     H13200   6.590   4.742   6.155 -3.3414 -1.1539 -1.4490
  858MOL0     H13201   6.616   4.560   5.909 -1.6979 -0.1220  0.6746
  858MOL0     H13202   6.584   4.732   5.911  0.0337  0.9281  1.9100
  858MOL0     H13203   6.423   4.520   6.081  0.9142 -1.3615 -0.0863
  858MOL0     H13204   6.411   4.500   5.921  1.5202 -1.2294  0.7445
  858MOL0     H13205   6.320   4.777   6.049  2.3665  1.5069  0.8587
  858MOL0     H13206   6.329   4.721   5.871  2.0463 -4.1708  0.7792
  858MOL0     H13207   6.189   4.573   6.093 -0.4781  0.0131 -0.2971
  858MOL0     H13208   6.164   4.552   5.913 -0.7997  1.4620 -1.4060
  858MOL0     H13209   6.091   4.802   6.195 -0.1058 -0.5781 -0.6423
  858MOL0     H13210   5.939   5.079   6.077  1.4267 -1.1032 -2.6771
  858MOL0     H13211   5.872   4.971   6.200  1.8049  1.0419  1.0493
  858MOL0     H13212   5.663   4.931   6.043 -0.4312 -2.1263 -2.8368
  858MOL0     H13213   5.740   5.005   5.918  0.5500  0.6041 -0.0923
  858MOL0     H13214   5.675   5.137   6.185  0.8961  1.7061  0.3726
  858MOL0     H13215   5.740   5.228   6.042 -2.9460  0.3500 -4.3929
  858MOL0     H13216   5.493   5.270   6.053  2.3803  0.6436  1.2291
  858MOL0     H13217   5.457   5.090   6.074 -0.8485 -0.1330 -2.1158
  858MOL0     H13218   5.446   5.170   5.639 -1.7763 -0.6642 -2.2564
  858MOL0     H13219   5.230   5.178   5.542 -1.9475 -0.0484 -1.1464
  858MOL0     H13220   4.959   5.356   5.302 -0.1277  0.0524  1.1533
  858MOL0     H13221   4.754   5.391   5.188 -0.8290 -1.1536 -0.5779
  858MOL0     H13222   4.389   5.388   5.137 -1.2924  4.5631  0.7482
  858MOL0     H13223   4.562   5.368   5.112  1.7294  0.9670  1.2192
  858MOL0     H13224   4.493   5.596   5.046 -3.3520  0.5172 -1.0786
  858MOL0     H13225   4.586   5.602   5.176  1.3930 -0.8695 -1.5926
  858MOL0     H13226   4.390   5.756   5.189 -1.4403  0.8189  1.2212
  858MOL0     H13227   4.389   5.647   5.329 -3.5960 -0.8176  0.6509
  858MOL0     H13228   4.220   5.513   5.156 -2.7068  0.7491 -1.7057
  858MOL0     H13229   4.176   5.629   5.285  0.3842 -0.1237  0.0586
  858MOL0     H13230   4.179   5.815   5.096  0.8039 -0.4218 -0.1513
  858MOL0     H13231   4.057   5.683   5.097 -0.7044  0.0889  2.5113
  858MOL0     H13232   4.187   5.577   4.917  1.9264  0.5910 -1.6629
  858MOL0     H13233   4.328   5.669   4.943  0.7290 -2.1882  2.5415
  858MOL0     H13234   4.063   5.791   4.841  0.3761 -1.2200  1.1157
  858MOL0     H13235   4.221   5.878   4.863  0.6685  0.3616 -2.8690
  858MOL0     H13236   4.219   5.657   4.663 -1.0003  0.6425 -0.8433
  858MOL0     H13237   4.341   5.783   4.697 -0.0290  1.2505 -3.0520
  858MOL0     H13238   4.533   5.256   5.534 -0.1094  0.6198  0.4452
  858MOL0     H13239   4.749   5.206   5.645  0.9642 -1.6400 -0.8477
  858MOL0     H13240   5.064   5.245   5.938  0.4258 -5.8502  2.1646
  858MOL0     H13241   5.267   5.176   6.038  0.2720  0.4772  0.7178
  858MOL0     H13242   7.293   4.721   6.223  0.7918 -0.3158  0.4119
  858MOL0     H13243   7.524   4.802   6.166 -0.9109 -1.6669 -0.8996
  858MOL0     H13244   7.746   5.161   6.139 -2.5685 -0.8157 -2.0232
  858MOL0     H13245   7.948   5.297   6.145  0.6809  2.5758 -1.1214
  858MOL0     H13246   8.180   5.311   6.081 -1.3927  0.3575  0.0936
  858MOL0     H13247   8.118   5.466   6.084  2.3709  1.7146 -0.2290
  858MOL0     H13248   8.322   5.380   5.876  1.0424  0.4013 -0.6047
  858MOL0     H13249   8.267   5.550   5.913  0.5301  0.7276  0.7940
  858MOL0     H13250   8.350   5.478   6.161 -1.6316 -0.4235 -0.4176
  858MOL0     H13251   8.457   5.546   6.041 -0.9142 -1.2192 -3.4109
  858MOL0     H13252   8.502   5.279   5.981  1.2194  2.6589 -1.0271
  858MOL0     H13253   8.589   5.350   6.115 -0.0606  0.9854  0.8228
  858MOL0     H13254   8.334   5.096   6.316  2.8417 -0.4699  0.0115
  858MOL0     H13255   7.952   5.274   5.714  2.2298  0.0184  1.9901
  858MOL0     H13256   7.747   5.143   5.718  4.2566  0.0534 -2.4115
  859MOL0     O13257   2.567   0.524  11.214  0.9003 -0.6167 -0.1125
  859MOL0     C13258   2.489   0.431  11.183 -0.4163  0.8386 -0.5538
  859MOL0     O13259   2.511   0.304  11.227 -0.2787 -0.3979 -0.4352
  859MOL0     C13260   2.624   0.271  11.301  0.0981  0.1745 -0.1759
  859MOL0     C13261   2.680   0.142  11.284  0.2217  0.6646  0.5406
  859MOL0     C13262   2.798   0.103  11.351  0.1848 -0.3195 -0.2002
  859MOL0     C13263   2.867   0.193  11.428  0.8001 -0.3003 -0.3239
  859MOL0     O13264   2.983   0.140  11.487  0.2861 -0.0545 -0.2547
  859MOL0     C13265   3.071   0.235  11.541  0.7779  0.3447 -0.6977
  859MOL0     C13266   3.193   0.151  11.582 -0.3170 -1.2379 -0.2861
  859MOL0     C13267   3.302   0.242  11.641 -0.2065  0.2023 -0.2651
  859MOL0     C13268   3.412   0.153  11.697  0.2417  0.0683 -0.6939
  859MOL0     C13269   3.524   0.235  11.758 -0.1890 -0.6734 -0.0541
  859MOL0     C13270   3.647   0.154  11.790 -0.3819 -0.5962  0.0729
  859MOL0     C13271   3.759   0.237  11.857 -1.1021  0.6450  0.4024
  859MOL0     C13272   3.741   0.279  12.002 -0.1904  0.1217  0.0415
  859MOL0     N13273   3.763   0.175  12.099  0.1890  0.1072 -0.6851
  859MOL0     C13274   3.872   0.096  12.132 -0.6063 -0.1142 -0.1026
  859MOL0     C13275   3.834  -0.001  12.221  0.3824  0.1812  0.1775
  859MOL0     C13276   3.903  -0.117  12.286 -0.2687  0.9924 -0.2284
  859MOL0     C13277   3.807  -0.178  12.386 -0.2841  0.5709  0.7564
  859MOL0     C13278   3.862  -0.311  12.439  1.0085 -0.7487 -0.3566
  859MOL0     C13279   3.779  -0.376  12.551 -0.1685 -0.3351 -0.3970
  859MOL0     O13280   3.677  -0.470  12.515 -0.1928 -0.0309  0.2905
  859MOL0     C13281   3.546  -0.422  12.524  0.8061  0.5592  0.4558
  859MOL0     C13282   3.482  -0.433  12.652  0.4103 -0.1916  0.4050
  859MOL0     C13283   3.352  -0.381  12.663 -0.5927 -0.5136  0.0957
  859MOL0     C13284   3.275  -0.330  12.552 -0.3912 -0.0701  0.2830
  859MOL0     C13285   3.146  -0.266  12.569 -0.9617 -0.2405 -1.0658
  859MOL0     O13286   3.121  -0.224  12.702  0.9328  0.5573  0.3223
  859MOL0     C13287   2.992  -0.188  12.730 -0.3121 -0.5123  0.3436
  859MOL0     C13288   2.946  -0.058  12.700 -0.1878  0.8294  0.6388
  859MOL0     C13289   2.814  -0.026  12.716 -0.2330  0.2427  0.2682
  859MOL0     C13290   2.723  -0.113  12.781 -0.6803 -0.1275 -0.3162
  859MOL0     O13291   2.602  -0.078  12.832 -0.5277  0.2650 -0.2980
  859MOL0     C13292   2.524   0.019  12.762 -0.8146  0.3732  0.1524
  859MOL0     C13293   2.392   0.043  12.838 -0.3181  0.2870 -0.1452
  859MOL0     C13294   2.309  -0.087  12.877  0.0590  0.3012 -0.1888
  859MOL0     C13295   2.271  -0.165  12.748 -0.4332 -0.9262  0.3649
  859MOL0     C13296   2.192  -0.296  12.759 -1.0415  0.5726 -0.6167
  859MOL0     C13297   2.197  -0.356  12.616  0.0739  0.4038 -0.1407
  859MOL0     C13298   2.103  -0.476  12.603  0.0485 -0.3996 -0.0534
  859MOL0     C13299   2.136  -0.572  12.490 -0.0661  0.3645 -0.3793
  859MOL0    Cl13300   2.184  -0.502  12.335  0.1919  0.4627  0.1676
  859MOL0     C13301   2.778  -0.232  12.828 -0.2092  0.1231 -0.5525
  859MOL0     C13302   2.907  -0.270  12.796  0.3044  0.0483 -0.3878
  859MOL0     O13303   3.079  -0.242  12.476 -0.4810  0.3411 -0.1688
  859MOL0     C13304   3.342  -0.332  12.427  0.9527  0.0259 -0.0636
  859MOL0     C13305   3.471  -0.376  12.412  1.2251 -0.5567  0.1601
  859MOL0     N13306   3.701   0.028  12.246 -0.2923 -0.3915 -1.3392
  859MOL0     N13307   3.661   0.123  12.172  0.7277  0.5596  0.3787
  859MOL0     C13308   2.803   0.313  11.463 -0.5124 -0.3876  0.3911
  859MOL0     C13309   2.686   0.353  11.402  0.1045  0.3544 -0.5527
  859MOL0     C13310   2.360   0.456  11.117  0.0936  0.1967  0.5411
  859MOL0     C13311   2.257   0.359  11.114  0.7813 -0.0637 -0.4595
  859MOL0     C13312   2.122   0.391  11.072  0.2549  0.6331 -0.0111
  859MOL0     C13313   2.095   0.517  11.015  0.3583  0.5152  0.6397
  859MOL0     O13314   1.973   0.542  10.959  0.6091  0.1512 -0.4045
  859MOL0     C13315   1.959   0.641  10.861  0.1270  0.5445 -0.0102
  859MOL0     C13316   1.825   0.643  10.788 -0.2213  0.2562 -0.2424
  859MOL0     C13317   1.765   0.504  10.756  0.3646  0.5502 -0.0759
  859MOL0     C13318   1.608   0.520  10.712 -0.2111  0.3085 -0.1688
  859MOL0     C13319   1.526   0.570  10.810 -0.4470  0.4314  0.5606
  859MOL0     C13320   1.459   0.632  10.888 -0.4017  0.3272 -0.1127
  859MOL0     C13321   2.197   0.615  11.025  0.3144 -0.2763 -0.4027
  859MOL0     C13322   2.323   0.588  11.071  0.2588 -0.3878 -0.4723
  859MOL0     H13323   2.629   0.070  11.221  2.5888 -0.4674 -0.2069
  859MOL0     H13324   2.843   0.004  11.348 -1.0580 -1.0407  2.2825
  859MOL0     H13325   3.028   0.259  11.639  1.7599  1.2737 -0.4765
  859MOL0     H13326   3.078   0.333  11.493 -0.4815  0.2272 -1.1493
  859MOL0     H13327   3.238   0.104  11.494 -1.5883 -0.5274 -1.3511
  859MOL0     H13328   3.159   0.072  11.650  1.1442 -1.9306 -0.3222
  859MOL0     H13329   3.263   0.306  11.721  1.4496  0.3652  0.4590
  859MOL0     H13330   3.345   0.295  11.556  0.7193 -2.2574 -1.4403
  859MOL0     H13331   3.363   0.096  11.777 -0.5682 -0.2100 -1.3681
  859MOL0     H13332   3.445   0.085  11.618  0.9387 -0.7636  0.2928
  859MOL0     H13333   3.488   0.284  11.849 -0.9278 -2.8218  0.8784
  859MOL0     H13334   3.546   0.313  11.685 -2.2221  0.6316  0.6378
  859MOL0     H13335   3.684   0.104  11.700 -1.3138  0.3815 -0.8829
  859MOL0     H13336   3.627   0.073  11.861  0.3941 -0.6633  0.2316
  859MOL0     H13337   3.852   0.180  11.844 -1.3152 -0.2429  2.3748
  859MOL0     H13338   3.769   0.332  11.805 -0.8295  1.3785  1.7557
  859MOL0     H13339   3.647   0.331  12.020 -1.5994 -3.4242  4.8281
  859MOL0     H13340   3.813   0.356  12.030 -1.3919  0.4425  2.4766
  859MOL0     H13341   3.966   0.124  12.086 -0.0141  2.1240  2.2095
  859MOL0     H13342   4.000  -0.086  12.326 -0.1336  1.4590 -0.8997
  859MOL0     H13343   3.923  -0.195  12.212 -0.9795  0.4136  0.1760
  859MOL0     H13344   3.714  -0.201  12.333 -0.0318  1.0957  0.0693
  859MOL0     H13345   3.773  -0.112  12.466  1.2683  1.1415  0.9864
  859MOL0     H13346   3.869  -0.381  12.356  0.7135  0.3445 -1.3299
  859MOL0     H13347   3.960  -0.282  12.478 -0.3827  0.4187  2.5687
  859MOL0     H13348   3.722  -0.298  12.603  0.1820  0.2602 -0.8908
  859MOL0     H13349   3.850  -0.413  12.626  1.5584 -0.2381 -1.9288
  859MOL0     H13350   3.535  -0.462  12.742 -2.9191  0.7611  2.8682
  859MOL0     H13351   3.311  -0.367  12.762 -0.8082  0.9640 -0.1721
  859MOL0     H13352   3.011   0.007  12.641 -1.3188 -0.3590 -2.0757
  859MOL0     H13353   2.783   0.074  12.689  0.0325  0.6262  1.3638
  859MOL0     H13354   2.490  -0.019  12.665 -2.7223  0.7057  0.6438
  859MOL0     H13355   2.589   0.106  12.748 -0.1960 -0.3936 -2.2022
  859MOL0     H13356   2.328   0.097  12.767 -0.7119 -2.9001 -2.4510
  859MOL0     H13357   2.412   0.107  12.924 -1.8510 -0.0017  0.4697
  859MOL0     H13358   2.220  -0.063  12.936  1.3597 -2.2844  3.1515
  859MOL0     H13359   2.364  -0.151  12.946 -1.6147 -0.2238  0.7127
  859MOL0     H13360   2.219  -0.090  12.690  2.8987  1.1161 -0.2392
  859MOL0     H13361   2.366  -0.184  12.697 -0.4135 -0.2487  0.1388
  859MOL0     H13362   2.094  -0.282  12.807 -1.6292  0.1627 -1.6760
  859MOL0     H13363   2.236  -0.363  12.834 -4.1294 -1.9208 -0.8004
  859MOL0     H13364   2.298  -0.366  12.575 -0.5187 -1.8775 -1.2257
  859MOL0     H13365   2.150  -0.284  12.548 -2.0623  0.2460  1.1030
  859MOL0     H13366   2.105  -0.536  12.695  2.4410 -2.0583 -1.0814
  859MOL0     H13367   2.002  -0.435  12.592 -0.1996 -1.0353 -0.1377
  859MOL0     H13368   2.043  -0.629  12.478  0.3714 -0.5120  0.3213
  859MOL0     H13369   2.212  -0.642  12.523  1.8653  2.5235 -0.0019
  859MOL0     H13370   2.713  -0.293  12.889 -1.0311  0.7145 -0.8246
  859MOL0     H13371   2.938  -0.371  12.824  0.1270 -0.2444 -1.2004
  859MOL0     H13372   3.286  -0.294  12.342  0.9974  0.5711  0.1478
  859MOL0     H13373   3.530  -0.369  12.322  1.4681  1.5037  0.4358
  859MOL0     H13374   2.832   0.378  11.544  0.0380  0.8443 -0.7448
  859MOL0     H13375   2.650   0.453  11.426 -2.8636 -0.4492 -1.2887
  859MOL0     H13376   2.266   0.255  11.143  0.2915 -0.0914 -0.3994
  859MOL0     H13377   2.043   0.318  11.064  1.2064 -0.2493 -2.1337
  859MOL0     H13378   2.034   0.643  10.782 -1.5905 -0.0533 -1.7525
  859MOL0     H13379   1.966   0.740  10.906 -1.6508 -0.2645  2.2482
  859MOL0     H13380   1.753   0.699  10.847  1.0560  5.1136 -2.7405
  859MOL0     H13381   1.827   0.690  10.689  0.9447 -0.0436 -0.3775
  859MOL0     H13382   1.770   0.448  10.850 -3.5897  1.5170  0.8635
  859MOL0     H13383   1.833   0.450  10.689  2.5688  0.2861  2.2041
  859MOL0     H13384   1.598   0.582  10.623 -1.5359  0.0179 -0.2468
  859MOL0     H13385   1.576   0.416  10.695  0.1913  0.0301  0.6881
  859MOL0     H13386   1.409   0.695  10.958 -0.3284  1.4225 -1.0083
  859MOL0     H13387   2.185   0.711  10.976 -1.2347  0.1911  0.8066
  859MOL0     H13388   2.390   0.674  11.079  1.0771 -1.1894  2.8055
  860MOL0     O13389   4.690   5.775   7.187  0.1895  0.3075  0.1017
  860MOL0     C13390   4.759   5.805   7.287 -0.2173 -0.4309 -0.0852
  860MOL0     O13391   4.717   5.860   7.405  0.1297  0.2778 -0.0754
  860MOL0     C13392   4.583   5.855   7.433  0.9130  1.0968  0.4292
  860MOL0     C13393   4.538   5.768   7.526  1.8626  0.5313  0.9564
  860MOL0     C13394   4.400   5.748   7.547  0.2464  0.0695 -0.7667
  860MOL0     C13395   4.300   5.820   7.467 -0.6378  0.7812 -0.4261
  860MOL0     O13396   4.164   5.812   7.477 -0.5270 -0.5011  0.0572
  860MOL0     C13397   4.115   5.694   7.538  0.5280 -0.1280 -0.5270
  860MOL0     C13398   3.987   5.667   7.474  0.4945 -0.3190 -0.1966
  860MOL0     C13399   3.871   5.762   7.506  0.4654 -0.2781  0.0481
  860MOL0     C13400   3.739   5.692   7.484 -0.5931 -0.3311 -0.6756
  860MOL0     C13401   3.628   5.805   7.522  0.3313  0.4649 -0.0329
  860MOL0     C13402   3.504   5.727   7.551  0.4564  0.0466  0.3974
  860MOL0     C13403   3.396   5.833   7.563  0.3203 -0.1749  0.3750
  860MOL0     C13404   3.256   5.782   7.611  0.1211 -0.2256  0.2011
  860MOL0     N13405   3.207   5.669   7.539 -0.1062  0.0980  0.7216
  860MOL0     C13406   3.108   5.658   7.443  0.2617  1.2946  0.4959
  860MOL0     C13407   3.083   5.523   7.438 -0.3208  0.3432  0.5396
  860MOL0     C13408   2.973   5.462   7.355 -0.8238  0.4557  0.8154
  860MOL0     C13409   2.867   5.395   7.436 -0.4606  0.1212 -1.2825
  860MOL0     C13410   2.736   5.378   7.351 -0.1604  0.6003 -0.1180
  860MOL0     C13411   2.621   5.301   7.420 -0.1087  0.2199 -0.0551
  860MOL0     O13412   2.539   5.256   7.313  0.5172 -1.0302 -0.2839
  860MOL0     C13413   2.399   5.261   7.323 -0.1067  0.2333  0.6437
  860MOL0     C13414   2.327   5.263   7.445 -0.6200 -0.7782  0.2296
  860MOL0     C13415   2.192   5.273   7.449  0.0112 -0.8545  0.2634
  860MOL0     C13416   2.114   5.287   7.335 -0.6609  0.4925 -0.2345
  860MOL0     C13417   1.974   5.302   7.341  0.3060  0.3456  0.2738
  860MOL0     O13418   1.917   5.325   7.468 -0.2119  0.1063 -0.3300
  860MOL0     C13419   1.781   5.317   7.474 -0.1915 -0.5156  0.0056
  860MOL0     C13420   1.729   5.197   7.506 -0.7553 -0.1714  0.2117
  860MOL0     C13421   1.590   5.169   7.505  0.2221 -0.5850 -0.2155
  860MOL0     C13422   1.500   5.270   7.472 -0.1220 -0.4494  0.0556
  860MOL0     O13423   1.364   5.255   7.458 -0.8474 -0.5855  0.6875
  860MOL0     C13424   1.331   5.134   7.396  0.1610 -0.5506  0.6638
  860MOL0     C13425   1.187   5.154   7.344  0.3129  0.7467 -0.0719
  860MOL0     C13426   1.119   5.037   7.263  0.0906  0.3117 -0.8199
  860MOL0     C13427   0.983   5.080   7.203 -0.0373 -0.2452 -0.3409
  860MOL0     C13428   0.917   4.963   7.121  0.4688  1.3585 -1.3588
  860MOL0     C13429   0.803   5.018   7.033  0.8572 -0.1038 -0.6222
  860MOL0     C13430   0.719   4.913   6.973 -0.2446 -0.8676 -1.0988
  860MOL0     C13431   0.584   4.962   6.913  0.0183 -0.0737  0.2931
  860MOL0    Cl13432   0.477   5.036   7.047 -0.0599 -0.3183 -0.0082
  860MOL0     C13433   1.557   5.399   7.442  1.1076  0.2596  0.7418
  860MOL0     C13434   1.695   5.420   7.440 -0.1725 -0.2886  0.3743
  860MOL0     O13435   1.904   5.280   7.238  0.4258  0.1918 -0.4948
  860MOL0     C13436   2.180   5.273   7.216 -0.2490  0.2896  0.1115
  860MOL0     C13437   2.318   5.268   7.207 -0.2378 -0.2148 -0.4144
  860MOL0     N13438   3.177   5.453   7.514  0.5903  0.0699  0.3905
  860MOL0     N13439   3.250   5.545   7.574 -0.5457  0.3510 -0.2272
  860MOL0     C13440   4.353   5.911   7.382  0.2309  0.3166 -0.3969
  860MOL0     C13441   4.492   5.926   7.359  0.2317  0.2642 -0.4885
  860MOL0     C13442   4.908   5.792   7.273  1.0489 -0.9983  0.3573
  860MOL0     C13443   5.000   5.867   7.346  0.1177  0.7057 -0.1344
  860MOL0     C13444   5.139   5.842   7.333 -0.4551  0.1491 -0.4980
  860MOL0     C13445   5.193   5.757   7.241  0.0761 -0.4593 -0.7001
  860MOL0     O13446   5.323   5.735   7.252 -0.0239 -0.3263  0.6729
  860MOL0     C13447   5.380   5.646   7.161  0.7338  0.1585  0.2956
  860MOL0     C13448   5.531   5.633   7.176  0.6170 -0.0302  1.6728
  860MOL0     C13449   5.602   5.769   7.160 -0.1814 -0.7475 -0.0393
  860MOL0     C13450   5.746   5.772   7.133  0.5322 -0.4604  0.8593
  860MOL0     C13451   5.819   5.683   7.227 -0.2169 -0.1201 -0.2447
  860MOL0     C13452   5.885   5.636   7.320 -0.4939  0.2105  0.0846
  860MOL0     C13453   5.100   5.695   7.158 -0.6340 -0.0569 -0.1318
  860MOL0     C13454   4.962   5.715   7.169  0.8503  0.7708  0.8514
  860MOL0     H13455   4.616   5.709   7.574  0.7033 -1.6731  0.3014
  860MOL0     H13456   4.375   5.668   7.617  2.3663  1.6765  2.0184
  860MOL0     H13457   4.104   5.705   7.646  0.4457  1.3863 -0.6673
  860MOL0     H13458   4.179   5.608   7.514  0.3682 -0.0414 -1.3103
  860MOL0     H13459   3.955   5.569   7.510 -1.7115 -0.6567 -2.7864
  860MOL0     H13460   3.994   5.649   7.366  0.4186 -0.8115 -0.1231
  860MOL0     H13461   3.881   5.850   7.442 -0.1087  0.4714  0.9640
  860MOL0     H13462   3.880   5.792   7.611 -0.7781  2.3659 -0.5208
  860MOL0     H13463   3.726   5.670   7.377 -0.1289 -0.9965 -0.6039
  860MOL0     H13464   3.732   5.591   7.527  1.7161 -1.6591 -3.0768
  860MOL0     H13465   3.612   5.872   7.438  1.0852  0.8022  0.0816
  860MOL0     H13466   3.648   5.864   7.612  1.2439  0.1800 -0.0371
  860MOL0     H13467   3.508   5.663   7.640  1.8267  1.2869  1.2758
  860MOL0     H13468   3.470   5.668   7.466  1.6992  1.1942 -0.9395
  860MOL0     H13469   3.418   5.911   7.636 -1.5955  0.6944  0.0876
  860MOL0     H13470   3.395   5.887   7.468  0.0904 -0.9183 -0.0554
  860MOL0     H13471   3.188   5.869   7.616  1.4121  0.7777  1.0074
  860MOL0     H13472   3.264   5.757   7.717  0.1398  2.3987  0.9073
  860MOL0     H13473   3.050   5.733   7.390  0.0084 -0.3810 -1.7683
  860MOL0     H13474   3.030   5.391   7.295  1.0408  0.4592  2.4797
  860MOL0     H13475   2.923   5.530   7.286 -0.1335 -2.5687 -2.9758
  860MOL0     H13476   2.836   5.451   7.525  2.2521 -0.6531  0.2885
  860MOL0     H13477   2.899   5.294   7.463  0.0042  0.7514  0.7458
  860MOL0     H13478   2.704   5.475   7.314 -1.8418  0.9240  1.9550
  860MOL0     H13479   2.768   5.316   7.267 -2.9206 -2.0154  0.5686
  860MOL0     H13480   2.572   5.361   7.498  0.0198  0.7173 -0.3556
  860MOL0     H13481   2.648   5.205   7.465  1.5155 -0.4039 -2.2175
  860MOL0     H13482   2.377   5.249   7.540 -2.4053 -1.2996  1.1473
  860MOL0     H13483   2.148   5.253   7.546  1.5226 -1.2299  0.9057
  860MOL0     H13484   1.804   5.121   7.529  0.0798  0.4321 -0.4496
  860MOL0     H13485   1.558   5.070   7.534 -0.9991  0.0116  0.5170
  860MOL0     H13486   1.332   5.049   7.465 -2.0406 -0.5508  0.7723
  860MOL0     H13487   1.393   5.117   7.308  1.3532  3.4635  0.5307
  860MOL0     H13488   1.184   5.245   7.283  1.3899  0.3712 -0.7190
  860MOL0     H13489   1.130   5.174   7.434 -0.5962 -0.6565 -0.3038
  860MOL0     H13490   1.106   4.957   7.336 -0.8101  0.2562 -1.0282
  860MOL0     H13491   1.184   5.005   7.181  0.1586 -1.5224 -0.0852
  860MOL0     H13492   0.919   5.107   7.288 -0.0877  0.0327 -0.4652
  860MOL0     H13493   0.995   5.166   7.136  1.2346 -0.7899 -0.8515
  860MOL0     H13494   0.867   4.897   7.193 -2.4616  1.4828 -3.1435
  860MOL0     H13495   0.994   4.917   7.058  3.1402  0.5863  2.1135
  860MOL0     H13496   0.851   5.076   6.954  1.5110  0.2318  0.0024
  860MOL0     H13497   0.741   5.092   7.084  1.1713  0.9769 -1.7602
  860MOL0     H13498   0.776   4.854   6.901  0.1602 -2.0349  0.1534
  860MOL0     H13499   0.693   4.841   7.050  1.2933 -1.5067 -1.1350
  860MOL0     H13500   0.537   4.877   6.863 -0.1310  1.2224 -1.8904
  860MOL0     H13501   0.599   5.037   6.835  0.3185 -1.7867 -1.3515
  860MOL0     H13502   1.493   5.480   7.410 -0.4594 -1.0102  0.5551
  860MOL0     H13503   1.736   5.520   7.425 -1.9547  0.4359  0.1655
  860MOL0     H13504   2.117   5.279   7.128 -0.2831  0.4648  0.1469
  860MOL0     H13505   2.371   5.266   7.113  1.9702 -0.6112  0.7650
  860MOL0     H13506   4.278   5.963   7.323  0.3344 -1.4848 -2.2247
  860MOL0     H13507   4.534   5.994   7.285  0.6587 -1.8216 -2.2788
  860MOL0     H13508   4.964   5.926   7.430 -1.8942 -1.7120  0.8422
  860MOL0     H13509   5.203   5.899   7.400 -4.0345  0.5972  2.9538
  860MOL0     H13510   5.362   5.672   7.056 -0.3431 -2.3917 -0.2296
  860MOL0     H13511   5.345   5.544   7.179  1.4808  0.4059  3.8756
  860MOL0     H13512   5.530   5.585   7.274 -2.5080  0.5590  2.0189
  860MOL0     H13513   5.583   5.565   7.108  1.1758  0.4781  1.5740
  860MOL0     H13514   5.581   5.817   7.256 -2.5422 -0.6709 -0.5368
  860MOL0     H13515   5.558   5.833   7.083 -0.9657 -1.2251  0.0037
  860MOL0     H13516   5.761   5.733   7.032  1.4316  2.5084 -0.2587
  860MOL0     H13517   5.775   5.877   7.137 -1.1639  0.1338 -0.7942
  860MOL0     H13518   5.930   5.603   7.411 -0.5630  0.9895  0.4045
  860MOL0     H13519   5.140   5.622   7.088  0.1601  1.2926 -1.1373
  860MOL0     H13520   4.901   5.662   7.097 -0.6816  1.0966  1.8697
  861MOL0     O13521   7.464   0.152   1.820 -0.0479  0.2494 -0.4531
  861MOL0     C13522   7.497   0.249   1.761 -0.3997 -0.1682 -0.1151
  861MOL0     O13523   7.413   0.344   1.705 -0.2170  0.0486  0.5856
  861MOL0     C13524   7.280   0.306   1.685 -0.4969 -1.0610  0.2671
  861MOL0     C13525   7.190   0.417   1.656  0.8856 -0.2319 -0.7144
  861MOL0     C13526   7.048   0.400   1.646  0.0406 -0.1742 -0.5569
  861MOL0     C13527   6.993   0.262   1.644  0.2743 -0.5032  0.1403
  861MOL0     O13528   6.864   0.233   1.615 -0.0503 -0.2140 -0.1250
  861MOL0     C13529   6.762   0.332   1.636  0.8802 -0.4104  0.0292
  861MOL0     C13530   6.634   0.259   1.701 -0.1880 -0.1744 -0.0758
  861MOL0     C13531   6.518   0.359   1.704  0.2955 -0.3387 -0.8411
  861MOL0     C13532   6.481   0.419   1.568  0.6288 -0.2067 -0.5002
  861MOL0     C13533   6.527   0.567   1.558 -0.6058 -0.6099 -0.1564
  861MOL0     C13534   6.512   0.612   1.413 -0.8289  0.3053  0.5506
  861MOL0     C13535   6.564   0.760   1.394  0.1289 -0.3870 -0.4109
  861MOL0     C13536   6.508   0.825   1.264 -0.6199 -0.1265 -0.2911
  861MOL0     N13537   6.367   0.783   1.222 -0.2295  0.0408  0.1220
  861MOL0     C13538   6.250   0.841   1.266  0.0896  0.3620 -0.9045
  861MOL0     C13539   6.156   0.782   1.193 -0.4144  0.9150  0.6190
  861MOL0     C13540   6.007   0.815   1.203  0.2904  0.7383 -0.3096
  861MOL0     C13541   5.905   0.699   1.162  0.3688  0.0237 -0.9480
  861MOL0     C13542   5.764   0.768   1.181 -1.2042  1.1606  0.2900
  861MOL0     C13543   5.658   0.679   1.123 -0.0901 -0.2230  0.1689
  861MOL0     O13544   5.531   0.733   1.157  0.0753 -0.5982 -0.7508
  861MOL0     C13545   5.419   0.661   1.132  0.3596  0.4524  1.4269
  861MOL0     C13546   5.423   0.532   1.073  0.5356  0.9961  0.0447
  861MOL0     C13547   5.312   0.442   1.097 -0.3183 -0.1762  0.7987
  861MOL0     C13548   5.195   0.495   1.159 -0.9972  0.8002  0.7735
  861MOL0     C13549   5.080   0.403   1.166 -0.5504  0.1251  1.0862
  861MOL0     O13550   4.954   0.455   1.213  0.2411 -0.4523 -0.6322
  861MOL0     C13551   4.835   0.404   1.168 -0.5682  0.3982  0.1735
  861MOL0     C13552   4.724   0.467   1.220  0.1353 -0.8624  0.3639
  861MOL0     C13553   4.594   0.454   1.168 -0.5489 -0.0637 -1.4198
  861MOL0     C13554   4.560   0.360   1.074 -0.4057  0.6899 -0.1047
  861MOL0     O13555   4.432   0.335   1.021 -0.1712  0.0228 -0.6575
  861MOL0     C13556   4.328   0.403   1.095  0.0764  1.0396  0.5290
  861MOL0     C13557   4.196   0.331   1.071  1.6487 -0.1366 -0.1891
  861MOL0     C13558   4.084   0.400   1.157  0.5901 -0.1444  0.0482
  861MOL0     C13559   3.945   0.330   1.141  0.1451 -0.7877 -0.8581
  861MOL0     C13560   3.827   0.405   1.215 -0.4039  0.1180 -0.3656
  861MOL0     C13561   3.781   0.522   1.130 -0.0898 -0.7639 -0.7922
  861MOL0     C13562   3.652   0.597   1.184  0.3398  0.3122 -0.3136
  861MOL0     C13563   3.584   0.666   1.073  0.5110 -0.6949 -0.1257
  861MOL0    Cl13564   3.417   0.699   1.134  0.0182 -0.2984  0.2996
  861MOL0     C13565   4.674   0.291   1.018 -0.0054  0.8294  0.0496
  861MOL0     C13566   4.804   0.314   1.061 -0.7660 -0.5162  0.3399
  861MOL0     O13567   5.099   0.284   1.137  0.0516  0.4127  0.0483
  861MOL0     C13568   5.190   0.619   1.203  0.3225 -0.6828 -0.0171
  861MOL0     C13569   5.305   0.703   1.193  0.5260 -0.2684  0.1023
  861MOL0     N13570   6.218   0.693   1.107  0.0210 -0.6644  0.1506
  861MOL0     N13571   6.343   0.697   1.120  0.5081 -0.4118  0.3011
  861MOL0     C13572   7.083   0.156   1.660  0.6802  0.1543  0.4363
  861MOL0     C13573   7.224   0.178   1.671  0.9066  0.1258 -1.1306
  861MOL0     C13574   7.643   0.287   1.756 -0.0693 -0.2363 -0.1590
  861MOL0     C13575   7.689   0.396   1.684 -0.3245 -0.0259  0.1854
  861MOL0     C13576   7.825   0.416   1.669  0.2835  0.6045  0.5734
  861MOL0     C13577   7.922   0.334   1.721  0.5317  0.3658 -0.4708
  861MOL0     O13578   8.058   0.357   1.695 -0.0651 -0.0842  0.0505
  861MOL0     C13579   8.167   0.280   1.760 -0.4434 -0.6031 -0.6517
  861MOL0     C13580   8.307   0.347   1.747 -0.4557  0.4635  0.4540
  861MOL0     C13581   8.405   0.247   1.799  0.5811 -0.2343 -0.3150
  861MOL0     C13582   8.553   0.287   1.778  0.0366  0.3842  0.9455
  861MOL0     C13583   8.599   0.361   1.896 -0.0180  0.1092  0.2484
  861MOL0     C13584   8.623   0.415   2.003  0.0726  0.2718 -0.6707
  861MOL0     C13585   7.876   0.241   1.818 -0.5211 -0.5379  0.6768
  861MOL0     C13586   7.739   0.204   1.818  0.3313 -1.0403  0.0469
  861MOL0     H13587   7.232   0.516   1.640 -1.8720  0.7990 -2.2805
  861MOL0     H13588   6.986   0.487   1.630 -0.5253 -0.2977  0.8491
  861MOL0     H13589   6.739   0.374   1.538 -0.1102 -3.1837 -0.9917
  861MOL0     H13590   6.788   0.417   1.701 -0.3187  1.6705 -2.0330
  861MOL0     H13591   6.657   0.218   1.800 -0.6303  1.6234  0.8047
  861MOL0     H13592   6.606   0.178   1.633 -1.6273  0.9869 -0.8892
  861MOL0     H13593   6.546   0.438   1.774 -0.7904 -0.3121 -0.4153
  861MOL0     H13594   6.435   0.307   1.754 -0.6935 -0.8071 -2.9000
  861MOL0     H13595   6.529   0.350   1.498  0.8535  0.2910 -0.8412
  861MOL0     H13596   6.374   0.405   1.551  0.6122  0.0964 -0.6435
  861MOL0     H13597   6.628   0.594   1.590 -0.1340 -2.4529  0.0700
  861MOL0     H13598   6.459   0.624   1.621 -0.6270 -3.3230  2.5575
  861MOL0     H13599   6.406   0.605   1.385  0.0443  1.3391 -3.6316
  861MOL0     H13600   6.569   0.544   1.349 -1.0741  1.2783 -0.7361
  861MOL0     H13601   6.516   0.809   1.479  1.6847 -0.7417  0.7158
  861MOL0     H13602   6.674   0.763   1.398  0.1036  0.3389 -0.0672
  861MOL0     H13603   6.581   0.796   1.189  1.5677  0.5704  1.4691
  861MOL0     H13604   6.516   0.934   1.263 -0.8016 -0.0935  0.7655
  861MOL0     H13605   6.238   0.922   1.337  0.0709 -2.2046  2.2171
  861MOL0     H13606   5.988   0.893   1.129  3.6715 -0.7169 -3.0104
  861MOL0     H13607   5.968   0.859   1.295 -0.8860  1.7104 -1.2495
  861MOL0     H13608   5.917   0.620   1.238  4.2195  3.1421  2.1189
  861MOL0     H13609   5.913   0.664   1.058  1.3020 -0.4465 -0.7248
  861MOL0     H13610   5.744   0.795   1.285 -1.0986  1.9972  0.0962
  861MOL0     H13611   5.757   0.863   1.128 -0.3087 -0.4296 -2.9185
  861MOL0     H13612   5.676   0.575   1.154 -1.4517 -0.2777  0.8337
  861MOL0     H13613   5.668   0.675   1.014  1.9282 -0.4846  0.3151
  861MOL0     H13614   5.499   0.498   1.003 -0.4627 -0.6707 -0.2935
  861MOL0     H13615   5.311   0.339   1.061 -0.7029 -1.1002  3.2274
  861MOL0     H13616   4.744   0.541   1.296 -0.1988 -0.0222 -0.3460
  861MOL0     H13617   4.524   0.520   1.217 -0.9008 -0.5543 -1.2554
  861MOL0     H13618   4.320   0.505   1.059 -1.1089  1.4974  1.9718
  861MOL0     H13619   4.346   0.395   1.203 -2.3366  0.2878  0.9501
  861MOL0     H13620   4.202   0.226   1.101  3.3533  0.2357  0.9509
  861MOL0     H13621   4.159   0.344   0.969 -1.7910  0.0372  0.9478
  861MOL0     H13622   4.068   0.506   1.134 -2.0701 -0.2208  1.2411
  861MOL0     H13623   4.117   0.407   1.261  1.6464  1.7463 -0.3623
  861MOL0     H13624   3.926   0.313   1.035 -1.4532  1.8861 -1.1057
  861MOL0     H13625   3.948   0.231   1.187 -0.1961  0.2524  1.5627
  861MOL0     H13626   3.852   0.434   1.317 -1.2364  0.7044 -0.3230
  861MOL0     H13627   3.737   0.343   1.226 -0.4527 -0.0680 -1.6740
  861MOL0     H13628   3.750   0.485   1.032 -5.2091 -0.0887  0.2791
  861MOL0     H13629   3.859   0.597   1.112 -0.5055  0.9818  3.3212
  861MOL0     H13630   3.577   0.530   1.228  1.5212  0.8032  2.6964
  861MOL0     H13631   3.668   0.669   1.265  0.5222  1.0748 -1.0192
  861MOL0     H13632   3.563   0.611   0.981  0.5737  0.2809 -0.7421
  861MOL0     H13633   3.633   0.760   1.045  1.3547 -0.1664  2.8104
  861MOL0     H13634   4.651   0.226   0.934  0.5551  0.8094 -0.0900
  861MOL0     H13635   4.883   0.264   1.007 -1.5450 -0.3384 -1.0123
  861MOL0     H13636   5.105   0.652   1.262 -0.4865 -1.7210 -0.5530
  861MOL0     H13637   5.300   0.802   1.238  4.8621 -0.1778  0.7698
  861MOL0     H13638   7.044   0.056   1.653 -1.7893  1.1043 -0.3969
  861MOL0     H13639   7.284   0.088   1.679 -1.9268 -1.9921 -1.8990
  861MOL0     H13640   7.628   0.475   1.641  0.1656  0.9656  1.2517
  861MOL0     H13641   7.860   0.497   1.605  0.7065  0.7197  0.9468
  861MOL0     H13642   8.170   0.185   1.706 -0.3145 -0.6920 -0.4862
  861MOL0     H13643   8.144   0.270   1.866  3.0982 -1.1885  0.1872
  861MOL0     H13644   8.320   0.363   1.639 -4.5169 -1.1634 -0.4638
  861MOL0     H13645   8.305   0.442   1.800  1.2492  1.8304 -1.7625
  861MOL0     H13646   8.397   0.148   1.754 -1.9579 -1.1387  1.8752
  861MOL0     H13647   8.391   0.224   1.905  1.3318  1.2291  0.1265
  861MOL0     H13648   8.614   0.202   1.747 -1.6482 -0.4021 -0.3729
  861MOL0     H13649   8.569   0.352   1.691 -1.5807 -2.4630 -1.6813
  861MOL0     H13650   8.644   0.457   2.100  1.1836 -0.7010 -0.4812
  861MOL0     H13651   7.938   0.165   1.865 -0.0229 -1.2261 -0.9972
  861MOL0     H13652   7.708   0.119   1.878 -1.7831 -1.2447 -1.2350
  862MOL0     O13653   5.348   2.793   8.923  0.6307  0.1497  0.1379
  862MOL0     C13654   5.409   2.828   9.025  0.5178 -1.0230 -0.1483
  862MOL0     O13655   5.354   2.875   9.146 -0.9321  0.4601  0.0064
  862MOL0     C13656   5.224   2.881   9.183  0.5649  0.5256  0.1224
  862MOL0     C13657   5.206   2.876   9.324  0.2172 -0.0366  0.3507
  862MOL0     C13658   5.076   2.882   9.369  0.9977 -0.3775  0.3173
  862MOL0     C13659   4.963   2.899   9.286 -0.5679  0.4120  0.3642
  862MOL0     O13660   4.836   2.908   9.318 -0.5313  0.0068 -0.2024
  862MOL0     C13661   4.776   2.808   9.412 -0.4425 -0.5099 -0.1226
  862MOL0     C13662   4.627   2.820   9.416 -0.2951  0.0713 -0.1664
  862MOL0     C13663   4.550   2.788   9.282 -0.1560  0.4320  0.8772
  862MOL0     C13664   4.406   2.773   9.311  0.6884  0.9202 -0.6400
  862MOL0     C13665   4.325   2.773   9.176  0.0213  0.4480 -0.4892
  862MOL0     C13666   4.173   2.790   9.195 -0.3591 -0.3772 -0.1668
  862MOL0     C13667   4.093   2.756   9.067 -0.5243 -1.0139  0.9708
  862MOL0     C13668   3.936   2.742   9.076  0.0630  0.8385 -0.2610
  862MOL0     N13669   3.855   2.863   9.064  0.1145 -0.2857 -0.6167
  862MOL0     C13670   3.768   2.899   8.965  0.1744 -0.1017 -1.0285
  862MOL0     C13671   3.748   3.033   9.004 -0.0061  0.2499 -0.5955
  862MOL0     C13672   3.662   3.130   8.936  0.0199  0.1633 -0.4889
  862MOL0     C13673   3.517   3.080   8.940  0.4916  0.0501 -0.9703
  862MOL0     C13674   3.435   3.158   8.833 -0.2371 -0.4615 -0.3711
  862MOL0     C13675   3.287   3.159   8.855 -0.3179 -0.0032 -0.4743
  862MOL0     O13676   3.219   3.218   8.745 -1.1005  0.1951  0.1102
  862MOL0     C13677   3.095   3.266   8.752 -1.0849 -1.0968 -0.9324
  862MOL0     C13678   3.027   3.271   8.870  0.7565 -1.1503  0.6840
  862MOL0     C13679   2.896   3.317   8.868 -0.1003  0.6693  0.2098
  862MOL0     C13680   2.829   3.351   8.742 -0.0415  0.5134 -0.5907
  862MOL0     C13681   2.682   3.378   8.750  0.3928  0.0822 -0.0920
  862MOL0     O13682   2.643   3.407   8.874  0.3175  0.6994 -0.2722
  862MOL0     C13683   2.514   3.455   8.907  0.6135 -0.4377 -0.3523
  862MOL0     C13684   2.424   3.510   8.813  0.0025 -0.1806 -0.6287
  862MOL0     C13685   2.289   3.538   8.856  0.0290  0.4749  0.5367
  862MOL0     C13686   2.247   3.523   8.987 -0.1428 -0.3644  1.3030
  862MOL0     O13687   2.134   3.581   9.031  0.8367 -0.6983  0.0723
  862MOL0     C13688   2.037   3.486   9.066 -0.5333 -0.6103 -0.1387
  862MOL0     C13689   1.909   3.541   9.127  0.8357  0.4340  0.7298
  862MOL0     C13690   1.821   3.426   9.183  0.3844  0.2616 -0.8391
  862MOL0     C13691   1.685   3.486   9.218 -1.0447 -0.2592 -1.3282
  862MOL0     C13692   1.581   3.387   9.271 -0.3304  0.6514  0.2487
  862MOL0     C13693   1.465   3.472   9.303 -0.7022  0.5009 -0.5260
  862MOL0     C13694   1.352   3.388   9.358 -0.4806 -0.2996  0.4959
  862MOL0     C13695   1.219   3.447   9.344  0.2987 -0.2497 -0.5596
  862MOL0    Cl13696   1.231   3.613   9.399 -0.3224  0.1637 -0.9415
  862MOL0     C13697   2.334   3.463   9.076 -0.6885 -0.4882 -0.4694
  862MOL0     C13698   2.473   3.429   9.035  0.9408  1.1157 -0.3800
  862MOL0     O13699   2.613   3.384   8.647 -0.2785 -0.3574  0.8191
  862MOL0     C13700   2.902   3.347   8.626  0.1556  0.1934 -0.1777
  862MOL0     C13701   3.042   3.308   8.636  0.2082 -0.6831  0.0011
  862MOL0     N13702   3.824   3.066   9.115 -0.2895  0.4089  0.7714
  862MOL0     N13703   3.884   2.962   9.153 -0.0193  0.2523 -0.5946
  862MOL0     C13704   4.983   2.917   9.142  0.3778  0.0463 -1.2769
  862MOL0     C13705   5.115   2.908   9.094 -0.4244 -0.8882  0.8441
  862MOL0     C13706   5.553   2.852   9.018 -0.6114 -0.0137  0.2018
  862MOL0     C13707   5.630   2.844   9.136 -0.5751 -0.0713  0.0707
  862MOL0     C13708   5.770   2.852   9.127  0.0310 -0.5200 -0.7857
  862MOL0     C13709   5.831   2.864   9.003  0.3604  0.1621 -0.1307
  862MOL0     O13710   5.959   2.866   8.976 -0.2407  0.3099  0.1166
  862MOL0     C13711   6.053   2.865   9.084 -0.3012  0.1260  0.1525
  862MOL0     C13712   6.196   2.859   9.033  0.0940  0.6389  0.0577
  862MOL0     C13713   6.235   2.991   8.968  0.4773 -0.0667 -0.4181
  862MOL0     C13714   6.222   3.110   9.052  0.4073  0.0869  0.0141
  862MOL0     C13715   6.302   3.230   9.004 -0.8927  0.9755 -0.2006
  862MOL0     C13716   6.372   3.320   8.978 -0.2074 -1.3438  0.4048
  862MOL0     C13717   5.754   2.874   8.887 -0.2028 -0.9085 -0.0583
  862MOL0     C13718   5.615   2.862   8.894 -0.2875 -0.0363  0.1127
  862MOL0     H13719   5.287   2.852   9.393  0.0992  0.3880  0.6424
  862MOL0     H13720   5.063   2.888   9.476 -1.3695 -0.3639  0.0836
  862MOL0     H13721   4.815   2.822   9.513  2.5719  2.0874 -1.4441
  862MOL0     H13722   4.804   2.709   9.375 -0.4857 -0.5006 -0.1804
  862MOL0     H13723   4.605   2.919   9.455  2.9714  1.2019 -0.8244
  862MOL0     H13724   4.591   2.748   9.490  1.1728  1.9413  2.5258
  862MOL0     H13725   4.589   2.694   9.244 -0.2035  0.0890  1.6602
  862MOL0     H13726   4.564   2.855   9.197  2.4990  0.3689  1.2050
  862MOL0     H13727   4.404   2.674   9.358  0.8464  0.6368 -1.2294
  862MOL0     H13728   4.366   2.859   9.366 -2.5897 -0.3255 -0.8321
  862MOL0     H13729   4.334   2.682   9.116  0.7051 -1.3256  2.1523
  862MOL0     H13730   4.365   2.851   9.110  0.2385 -1.2439 -2.4584
  862MOL0     H13731   4.140   2.888   9.231  0.0077 -0.9820  1.9658
  862MOL0     H13732   4.148   2.720   9.275  0.7160  0.9139  1.3493
  862MOL0     H13733   4.106   2.830   8.987  1.1873 -3.1887 -0.9081
  862MOL0     H13734   4.131   2.659   9.035  0.9313 -0.4858  1.0290
  862MOL0     H13735   3.911   2.684   9.165  2.3923 -0.7301 -0.5495
  862MOL0     H13736   3.913   2.678   8.990  1.0802 -0.6198  0.5218
  862MOL0     H13737   3.716   2.842   8.889  1.0183 -3.4037  0.6923
  862MOL0     H13738   3.709   3.147   8.838  1.3049  3.0743  0.5219
  862MOL0     H13739   3.664   3.232   8.975  1.3531  0.7539 -1.9800
  862MOL0     H13740   3.474   3.111   9.036 -1.1925  0.0484 -1.6901
  862MOL0     H13741   3.516   2.971   8.950  0.1386  0.2581  3.3378
  862MOL0     H13742   3.458   3.263   8.855 -1.8610 -0.1783  0.0895
  862MOL0     H13743   3.463   3.127   8.731  1.8384  1.0652 -0.3389
  862MOL0     H13744   3.276   3.220   8.945 -0.3572 -0.4584 -0.1644
  862MOL0     H13745   3.271   3.053   8.876 -0.2868  0.1062  0.1231
  862MOL0     H13746   3.064   3.226   8.962  4.6688 -2.5523 -1.3729
  862MOL0     H13747   2.841   3.311   8.962 -0.3343 -1.0690 -0.0063
  862MOL0     H13748   2.460   3.539   8.715 -1.2591 -0.3541 -1.1566
  862MOL0     H13749   2.221   3.582   8.784 -1.3974 -4.1339 -1.3258
  862MOL0     H13750   2.066   3.405   9.133 -0.2355  0.5100  1.1171
  862MOL0     H13751   2.019   3.444   8.966  3.0626  2.7173 -2.4648
  862MOL0     H13752   1.856   3.591   9.046  1.2307  1.4078  1.0630
  862MOL0     H13753   1.919   3.608   9.212  0.4242  0.7100  0.5641
  862MOL0     H13754   1.864   3.368   9.265 -1.8303 -1.7412 -0.9970
  862MOL0     H13755   1.806   3.340   9.117  0.3351  1.1711 -2.0463
  862MOL0     H13756   1.702   3.560   9.297  1.1223 -2.4143  0.3708
  862MOL0     H13757   1.645   3.536   9.130 -0.5281  1.9511 -0.3678
  862MOL0     H13758   1.610   3.337   9.364  2.6713 -0.3631 -1.0989
  862MOL0     H13759   1.558   3.316   9.191  3.6979  0.2652 -0.7519
  862MOL0     H13760   1.433   3.519   9.210  1.7553  2.3765 -0.5355
  862MOL0     H13761   1.494   3.550   9.374  1.5074 -1.7843  1.2540
  862MOL0     H13762   1.346   3.292   9.306 -1.3536 -0.7768  1.4381
  862MOL0     H13763   1.370   3.370   9.465 -0.9506  1.8704  0.9940
  862MOL0     H13764   1.146   3.396   9.407 -1.3162  0.4157 -1.8359
  862MOL0     H13765   1.176   3.432   9.245 -0.4436  1.7450 -0.5772
  862MOL0     H13766   2.303   3.438   9.177 -0.6119 -0.6558 -0.4864
  862MOL0     H13767   2.544   3.387   9.106 -2.3782  0.7593  3.0802
  862MOL0     H13768   2.847   3.356   8.533 -1.4125 -1.2183  0.5703
  862MOL0     H13769   3.102   3.301   8.545 -0.5773 -1.1715 -0.4949
  862MOL0     H13770   4.895   2.941   9.083  0.0678  0.3828 -0.6908
  862MOL0     H13771   5.128   2.945   8.993  0.4677 -0.1317  1.2225
  862MOL0     H13772   5.580   2.812   9.227 -1.2945 -2.4400 -1.0696
  862MOL0     H13773   5.831   2.824   9.212  0.6228  2.0126 -0.2770
  862MOL0     H13774   6.040   2.777   9.147  0.6039  0.1777  0.4365
  862MOL0     H13775   6.030   2.945   9.156  1.5584  1.8083 -0.9994
  862MOL0     H13776   6.270   2.825   9.107 -0.3400 -1.2140 -0.3253
  862MOL0     H13777   6.201   2.796   8.945  0.3872  3.5307 -2.1466
  862MOL0     H13778   6.167   2.995   8.882  0.2059 -0.3481 -0.2181
  862MOL0     H13779   6.333   2.986   8.920  0.0357 -0.0959 -1.3325
  862MOL0     H13780   6.117   3.142   9.059  0.1600 -1.0018  3.0187
  862MOL0     H13781   6.246   3.093   9.158  0.6238  2.5325  0.4154
  862MOL0     H13782   6.433   3.406   8.962 -1.1147 -0.5114  1.2643
  862MOL0     H13783   5.811   2.886   8.795 -2.1530 -1.2425 -1.3618
  862MOL0     H13784   5.558   2.872   8.801  0.2445 -2.0445 -0.4641
  863MOL0     O13785   5.719   4.964  10.482  0.4595 -0.3729 -0.2010
  863MOL0     C13786   5.789   5.028  10.403 -0.2013 -0.2460  0.2438
  863MOL0     O13787   5.741   5.100  10.295  0.0199 -0.0239  0.4517
  863MOL0     C13788   5.611   5.116  10.265  0.7578  0.1795  0.7287
  863MOL0     C13789   5.592   5.223  10.174 -0.4954 -0.9564  0.0985
  863MOL0     C13790   5.459   5.266  10.139  0.6278  0.2897  0.2349
  863MOL0     C13791   5.341   5.199  10.194  0.8921 -0.4879 -0.6724
  863MOL0     O13792   5.213   5.240  10.149 -0.4275  0.5871  0.1419
  863MOL0     C13793   5.100   5.156  10.186  0.0601 -0.0530  0.3415
  863MOL0     C13794   5.101   5.020  10.114 -0.5353  0.0343  0.2910
  863MOL0     C13795   5.073   5.039   9.962  0.9410  0.4339 -0.4396
  863MOL0     C13796   4.924   5.079   9.938  0.4969 -0.5506 -0.1418
  863MOL0     C13797   4.878   5.078   9.792  0.7930  0.3659  0.9490
  863MOL0     C13798   4.957   5.153   9.691 -0.3221 -0.5743  0.4006
  863MOL0     C13799   4.938   5.108   9.547  0.4420 -0.1295  0.4893
  863MOL0     C13800   4.995   5.215   9.451 -0.2235  0.0327 -0.3273
  863MOL0     N13801   5.139   5.213   9.422  0.5234  0.6020  0.4863
  863MOL0     C13802   5.243   5.227   9.507 -0.2963  0.4748 -0.3874
  863MOL0     C13803   5.352   5.223   9.425 -0.6182  0.6605  0.7431
  863MOL0     C13804   5.500   5.222   9.476  0.3237 -0.9206  0.1460
  863MOL0     C13805   5.529   5.296   9.604 -0.1198 -0.1445 -0.8430
  863MOL0     C13806   5.526   5.457   9.588 -0.6257 -0.1044 -0.1963
  863MOL0     C13807   5.558   5.517   9.722 -0.7031  0.6269 -0.6923
  863MOL0     O13808   5.472   5.492   9.835  0.0044  0.1250 -0.0228
  863MOL0     C13809   5.338   5.510   9.823  0.0055 -0.0767  0.5450
  863MOL0     C13810   5.248   5.413   9.871  0.1788 -0.3524  0.0158
  863MOL0     C13811   5.115   5.434   9.869 -0.6434  0.2846  0.5710
  863MOL0     C13812   5.058   5.551   9.809 -0.4451  1.0975 -0.0321
  863MOL0     C13813   4.913   5.572   9.792  0.2107 -0.4820 -0.2401
  863MOL0     O13814   4.876   5.692   9.753  0.2233  0.2799  0.5707
  863MOL0     C13815   4.753   5.744   9.728 -0.0376  0.8453 -0.5718
  863MOL0     C13816   4.740   5.882   9.738  0.9642 -0.5966 -0.5707
  863MOL0     C13817   4.624   5.948   9.699 -0.1598 -0.4370  0.9105
  863MOL0     C13818   4.507   5.880   9.673 -0.1699 -0.1733  0.5806
  863MOL0     O13819   4.389   5.948   9.645 -0.6357  0.1431 -0.3760
  863MOL0     C13820   4.380   5.978   9.508  1.1111 -0.1561 -0.8390
  863MOL0     C13821   4.242   6.051   9.486 -0.6148 -0.1765 -0.0636
  863MOL0     C13822   4.122   5.953   9.507 -0.8007 -0.1658  0.7024
  863MOL0     C13823   4.143   5.820   9.415  0.1363  0.2306 -0.0669
  863MOL0     C13824   4.003   5.750   9.406 -0.1792 -0.1122 -0.3741
  863MOL0     C13825   3.994   5.609   9.460 -0.3393  0.6267  0.1145
  863MOL0     C13826   4.031   5.589   9.604 -0.2736  0.3793 -1.3821
  863MOL0     C13827   4.118   5.463   9.624  0.3926 -0.0371  0.1051
  863MOL0    Cl13828   4.139   5.445   9.796  0.5667 -0.4805  0.3027
  863MOL0     C13829   4.512   5.736   9.685 -0.2976 -0.2888  0.4280
  863MOL0     C13830   4.633   5.672   9.704 -0.4849 -0.3057  0.1762
  863MOL0     O13831   4.836   5.478   9.825  0.3136 -0.4192 -0.5226
  863MOL0     C13832   5.151   5.647   9.762 -0.0373  0.5580  0.8686
  863MOL0     C13833   5.292   5.631   9.771 -0.0178 -0.3446 -0.4006
  863MOL0     N13834   5.317   5.215   9.292 -0.4639 -0.3509  0.6496
  863MOL0     N13835   5.191   5.208   9.289 -0.2225  0.5865 -0.4555
  863MOL0     C13836   5.365   5.094  10.283  0.3473 -0.5919 -0.4429
  863MOL0     C13837   5.496   5.046  10.320  0.6732 -0.0367  0.0851
  863MOL0     C13838   5.936   5.021  10.435  0.2235  0.3753  0.0312
  863MOL0     C13839   5.977   4.939  10.548  0.6893 -0.1546  0.2777
  863MOL0     C13840   6.116   4.931  10.588  0.9473  0.3834 -0.6510
  863MOL0     C13841   6.207   5.008  10.518 -0.7592 -0.6379 -0.2201
  863MOL0     O13842   6.340   5.011  10.553  0.9115 -0.3551 -0.2108
  863MOL0     C13843   6.367   4.983  10.688  0.3527  0.2311  0.3790
  863MOL0     C13844   6.517   5.001  10.708 -0.6324  0.9683  0.2176
  863MOL0     C13845   6.569   5.135  10.673  0.6149 -0.2455  0.3466
  863MOL0     C13846   6.700   5.156  10.749  0.4102 -0.2021  0.2184
  863MOL0     C13847   6.804   5.078  10.673 -0.9628 -0.4979 -0.4964
  863MOL0     C13848   6.889   5.003  10.626  0.0476 -0.2799 -0.7726
  863MOL0     C13849   6.168   5.079  10.405  0.8715  0.4724 -0.6209
  863MOL0     C13850   6.031   5.096  10.369 -0.5976 -0.3145 -0.2965
  863MOL0     H13851   5.677   5.269  10.126 -0.1832 -1.7299 -0.0989
  863MOL0     H13852   5.448   5.338  10.058  2.2321  0.7018  0.3438
  863MOL0     H13853   5.004   5.206  10.167  0.9397  1.7663  0.4929
  863MOL0     H13854   5.102   5.146  10.295 -3.6086  0.5025  0.6064
  863MOL0     H13855   5.034   4.940  10.146 -1.6442 -0.9696 -3.8576
  863MOL0     H13856   5.201   4.977  10.107 -0.8718 -0.8526  0.7277
  863MOL0     H13857   5.089   4.947   9.905 -1.5428  1.4719 -3.0208
  863MOL0     H13858   5.146   5.109   9.920  1.0925 -0.4348 -1.6882
  863MOL0     H13859   4.866   5.010  10.000  0.7111  1.0325  1.9119
  863MOL0     H13860   4.911   5.183   9.971  1.2828 -0.2110 -0.8559
  863MOL0     H13861   4.775   5.112   9.782  1.3640  1.9362 -0.0898
  863MOL0     H13862   4.885   4.972   9.766 -0.5318 -0.0811  2.2896
  863MOL0     H13863   5.063   5.143   9.716 -0.3817  0.0324  0.9019
  863MOL0     H13864   4.927   5.258   9.698  0.4707 -0.0755 -2.3857
  863MOL0     H13865   4.974   5.006   9.528 -0.9610 -0.8436  1.4288
  863MOL0     H13866   4.830   5.109   9.532  0.2967 -0.0234  1.4277
  863MOL0     H13867   4.975   5.318   9.481  1.3893 -0.1858  1.7800
  863MOL0     H13868   4.943   5.200   9.356 -1.3393  1.5500  0.0101
  863MOL0     H13869   5.223   5.231   9.614 -3.4482 -1.8754 -0.7521
  863MOL0     H13870   5.563   5.259   9.395 -1.4159 -0.0647 -0.8885
  863MOL0     H13871   5.534   5.121   9.501 -1.3964 -1.2556  1.3018
  863MOL0     H13872   5.622   5.268   9.654 -0.9771 -1.1699  0.2169
  863MOL0     H13873   5.453   5.266   9.677  2.7110 -0.0366  2.3741
  863MOL0     H13874   5.601   5.484   9.513 -3.1441  3.1639 -1.7860
  863MOL0     H13875   5.429   5.485   9.546 -0.3505 -0.6881 -1.2831
  863MOL0     H13876   5.567   5.626   9.722  0.0726  0.7131  3.1275
  863MOL0     H13877   5.658   5.482   9.749 -0.4686  3.0329  2.0719
  863MOL0     H13878   5.289   5.316   9.897 -0.9048 -1.3436 -1.7670
  863MOL0     H13879   5.043   5.358   9.898 -0.4444 -1.1223 -2.2310
  863MOL0     H13880   4.818   5.952   9.769  0.4855 -1.0521  1.8303
  863MOL0     H13881   4.626   6.057   9.698 -0.9561 -0.4176  0.0082
  863MOL0     H13882   4.373   5.890   9.444 -2.4463  0.6559 -1.7254
  863MOL0     H13883   4.459   6.050   9.483  1.6941 -0.1968  0.7537
  863MOL0     H13884   4.242   6.096   9.387  4.8083  0.2139 -0.2031
  863MOL0     H13885   4.238   6.135   9.556 -2.1217 -1.4218  1.4508
  863MOL0     H13886   4.034   6.011   9.479 -0.0432  0.3210 -0.7870
  863MOL0     H13887   4.110   5.926   9.612 -1.1484  1.3199  1.0666
  863MOL0     H13888   4.160   5.845   9.309  0.6874  3.6216  0.7205
  863MOL0     H13889   4.215   5.751   9.460 -0.0390 -0.0611 -0.2297
  863MOL0     H13890   3.978   5.757   9.300  0.7826 -0.2587 -0.6230
  863MOL0     H13891   3.929   5.807   9.463  0.3612  0.2282  0.0056
  863MOL0     H13892   4.059   5.549   9.396  2.4319  2.2887  1.1752
  863MOL0     H13893   3.891   5.574   9.450 -0.2222 -0.2543  1.5967
  863MOL0     H13894   4.076   5.681   9.643 -0.3942 -0.8300  1.9625
  863MOL0     H13895   3.944   5.574   9.668 -0.2612  2.0339 -0.9308
  863MOL0     H13896   4.213   5.480   9.573  2.0861  1.2854  3.3787
  863MOL0     H13897   4.061   5.373   9.597 -3.7041  2.0590  1.0155
  863MOL0     H13898   4.435   5.660   9.680 -0.5922  0.0902 -1.4505
  863MOL0     H13899   4.636   5.564   9.692  0.6638 -0.0517 -2.8129
  863MOL0     H13900   5.108   5.731   9.710 -0.6322 -1.0126 -1.3327
  863MOL0     H13901   5.351   5.714   9.733 -1.9514  0.4641 -1.8483
  863MOL0     H13902   5.283   5.038  10.325  0.5808 -0.5655  0.0558
  863MOL0     H13903   5.505   4.960  10.385 -0.1591 -0.3436 -0.1941
  863MOL0     H13904   5.901   4.885  10.604 -0.6585 -1.4642 -2.6010
  863MOL0     H13905   6.135   4.864  10.671 -0.3837 -0.1658 -0.7633
  863MOL0     H13906   6.347   4.879  10.718  1.3842  0.2348  1.1233
  863MOL0     H13907   6.305   5.044  10.754 -0.2134 -1.3865  1.4154
  863MOL0     H13908   6.536   4.982  10.814 -0.5645 -3.0039 -0.3599
  863MOL0     H13909   6.580   4.934  10.650 -0.3682  2.0895 -0.8425
  863MOL0     H13910   6.497   5.207  10.714 -0.5543 -2.0472  1.6027
  863MOL0     H13911   6.595   5.147  10.567 -0.7736  1.6893  0.1696
  863MOL0     H13912   6.730   5.260  10.734  2.7046 -0.8382  0.1546
  863MOL0     H13913   6.696   5.137  10.856 -1.9206  1.2773  0.4704
  863MOL0     H13914   6.967   4.934  10.601  0.4741  0.1806 -0.7275
  863MOL0     H13915   6.245   5.125  10.343 -0.7909 -0.6868 -3.7584
  863MOL0     H13916   6.013   5.171  10.293  1.3377  1.2702  0.7213
  864MOL0     O13917   2.435   6.313   8.844  0.2915  0.6453  0.2234
  864MOL0     C13918   2.422   6.424   8.796 -0.5163  0.7859  0.6538
  864MOL0     O13919   2.313   6.487   8.737 -0.2990  0.1034  0.2537
  864MOL0     C13920   2.195   6.424   8.759 -0.0478 -0.1524  0.2798
  864MOL0     C13921   2.142   6.413   8.887  0.6898  0.8921 -0.0141
  864MOL0     C13922   2.016   6.365   8.905  1.0628 -0.0667 -0.2513
  864MOL0     C13923   1.933   6.319   8.803 -0.1889  0.2002  0.0766
  864MOL0     O13924   1.803   6.282   8.825 -0.1645 -0.1914  0.9201
  864MOL0     C13925   1.786   6.137   8.843  0.6139  0.4865  0.4983
  864MOL0     C13926   1.646   6.112   8.905  0.5024 -0.2262 -0.1170
  864MOL0     C13927   1.607   6.211   9.014 -0.6216 -0.6195 -0.1025
  864MOL0     C13928   1.463   6.202   9.052  0.8429  0.5751 -0.0802
  864MOL0     C13929   1.410   6.070   9.102  0.1912  0.3517 -0.6391
  864MOL0     C13930   1.345   5.982   8.997  0.1383  0.7710 -0.0671
  864MOL0     C13931   1.311   5.846   9.053 -1.0370 -0.0456  0.0211
  864MOL0     C13932   1.202   5.859   9.157  0.1329  0.5119  0.2626
  864MOL0     N13933   1.174   5.728   9.220  0.4653  0.1565  0.0368
  864MOL0     C13934   1.145   5.698   9.354  0.8895 -0.7642  0.2193
  864MOL0     C13935   1.145   5.569   9.363 -1.0063  0.3606  0.1154
  864MOL0     C13936   1.129   5.487   9.490 -1.4539 -0.4844 -0.3898
  864MOL0     C13937   0.997   5.407   9.470  0.3478  0.3687 -0.5767
  864MOL0     C13938   0.879   5.510   9.459  0.6073  0.0062  0.4135
  864MOL0     C13939   0.752   5.425   9.462 -0.5041  0.7092 -0.3594
  864MOL0     O13940   0.636   5.510   9.460  1.0130  0.2629 -0.8253
  864MOL0     C13941   0.513   5.459   9.477  0.2322 -0.5634  0.2892
  864MOL0     C13942   0.486   5.320   9.486 -0.1820  0.3951 -0.0617
  864MOL0     C13943   0.358   5.274   9.493  0.1369  0.0862 -0.8054
  864MOL0     C13944   0.243   5.354   9.485  0.2310  0.3729  0.3720
  864MOL0     C13945   0.101   5.302   9.471  0.8719 -0.7679 -0.0927
  864MOL0     O13946   0.073   5.182   9.521 -0.4603 -1.0699 -0.2807
  864MOL0     C13947  -0.055   5.140   9.506  0.5469 -0.8492  0.5260
  864MOL0     C13948  -0.146   5.158   9.617  0.1049  0.5852  0.2165
  864MOL0     C13949  -0.281   5.125   9.603 -0.2090 -0.6155 -0.0098
  864MOL0     C13950  -0.340   5.070   9.491 -0.6485  1.1699  0.9651
  864MOL0     O13951  -0.475   5.052   9.492 -0.1821 -0.3854  0.4484
  864MOL0     C13952  -0.535   4.981   9.376  0.7134 -0.0214 -0.6209
  864MOL0     C13953  -0.684   4.946   9.405 -0.3682 -0.2766  0.6068
  864MOL0     C13954  -0.761   4.911   9.268 -0.2720 -0.0701  0.1837
  864MOL0     C13955  -0.904   4.865   9.295 -0.4236  0.1055  0.1528
  864MOL0     C13956  -0.962   4.791   9.175 -0.1731  0.1077  0.1318
  864MOL0     C13957  -1.097   4.724   9.196 -0.2303 -0.6623  0.0785
  864MOL0     C13958  -1.203   4.838   9.221  0.3652  0.8539  0.2521
  864MOL0     C13959  -1.341   4.762   9.249 -0.9024 -0.9732  0.6772
  864MOL0    Cl13960  -1.422   4.703   9.103  0.1010  0.6646 -0.0982
  864MOL0     C13961  -0.249   5.050   9.381  0.1913 -0.3994  0.2397
  864MOL0     C13962  -0.112   5.081   9.390 -0.3465  0.1670  0.6666
  864MOL0     O13963   0.020   5.381   9.417 -0.2003 -0.1024 -0.0937
  864MOL0     C13964   0.269   5.494   9.474  0.5594  1.4850 -1.0690
  864MOL0     C13965   0.399   5.547   9.470 -0.8408 -0.3371 -0.1512
  864MOL0     N13966   1.184   5.514   9.242 -0.0098  0.5429  0.7571
  864MOL0     N13967   1.200   5.614   9.159 -0.1394  0.1644 -0.1123
  864MOL0     C13968   1.987   6.317   8.674 -0.3608 -0.3708 -0.0410
  864MOL0     C13969   2.116   6.368   8.654  0.3115  1.0007 -0.1811
  864MOL0     C13970   2.550   6.504   8.787 -0.3069  0.2516  0.0216
  864MOL0     C13971   2.572   6.599   8.682  0.5546  0.2184 -0.4371
  864MOL0     C13972   2.693   6.664   8.679  0.1365  0.5534  0.7563
  864MOL0     C13973   2.791   6.642   8.774  0.9601 -0.5357 -0.3375
  864MOL0     O13974   2.912   6.704   8.785 -0.3482  0.2055  0.3021
  864MOL0     C13975   2.943   6.822   8.720 -0.4402 -1.1758  0.1415
  864MOL0     C13976   2.875   6.946   8.776 -0.1243  0.4399 -0.5154
  864MOL0     C13977   2.933   6.996   8.902 -0.2164 -0.7770 -0.2608
  864MOL0     C13978   2.854   7.117   8.945  0.6808 -0.5737 -0.8671
  864MOL0     C13979   2.923   7.175   9.059  0.0705  0.0066 -0.4265
  864MOL0     C13980   2.980   7.226   9.152  0.1529 -0.4743 -0.4280
  864MOL0     C13981   2.770   6.553   8.885 -1.0472 -0.2077 -0.0881
  864MOL0     C13982   2.648   6.486   8.884 -0.0768 -0.4925 -0.7995
  864MOL0     H13983   2.202   6.437   8.974  0.9566 -4.1075  1.4992
  864MOL0     H13984   1.976   6.362   9.006  0.4523  1.0697 -0.4390
  864MOL0     H13985   1.866   6.098   8.907  0.5950  0.3254  0.4237
  864MOL0     H13986   1.795   6.087   8.746  3.6669 -0.2200  1.0242
  864MOL0     H13987   1.630   6.011   8.942 -0.3869 -0.1894 -0.3661
  864MOL0     H13988   1.573   6.124   8.824  1.0387 -0.2697 -0.6113
  864MOL0     H13989   1.626   6.312   8.979  0.0654 -0.3313  1.0589
  864MOL0     H13990   1.677   6.195   9.097 -0.0564  2.2604  0.0667
  864MOL0     H13991   1.460   6.282   9.127  0.6734  0.4126  0.0883
  864MOL0     H13992   1.399   6.218   8.965 -2.0403 -2.0110  1.3386
  864MOL0     H13993   1.344   6.095   9.185  1.4261 -0.8072  0.7529
  864MOL0     H13994   1.496   6.015   9.140  1.0968  2.0521 -0.1279
  864MOL0     H13995   1.415   5.964   8.915 -2.1437 -1.7982 -1.5800
  864MOL0     H13996   1.265   6.040   8.951 -1.1027 -0.1660  0.8217
  864MOL0     H13997   1.286   5.768   8.981 -0.0338 -0.6080  0.2512
  864MOL0     H13998   1.404   5.811   9.099 -2.8215 -0.2790  3.8927
  864MOL0     H13999   1.108   5.888   9.110 -0.7652 -0.4508  1.3882
  864MOL0     H14000   1.227   5.937   9.230 -0.0617 -1.3942  2.4726
  864MOL0     H14001   1.131   5.771   9.433 -1.1596 -0.4928 -0.3179
  864MOL0     H14002   1.125   5.551   9.578  2.0660 -2.2919  1.2890
  864MOL0     H14003   1.216   5.421   9.499 -1.3853 -0.3856 -0.3336
  864MOL0     H14004   0.975   5.335   9.549 -2.4824  0.3140 -1.3048
  864MOL0     H14005   1.017   5.351   9.379  0.0899 -2.2719  0.8963
  864MOL0     H14006   0.883   5.580   9.543 -1.5886 -1.9657  2.2923
  864MOL0     H14007   0.880   5.572   9.369 -0.1655  1.3933  1.3224
  864MOL0     H14008   0.749   5.376   9.559  1.0127  0.8012 -0.2381
  864MOL0     H14009   0.747   5.353   9.379  2.8581  0.8290 -0.7834
  864MOL0     H14010   0.563   5.244   9.489  0.4608  1.0304  2.5742
  864MOL0     H14011   0.357   5.166   9.504  1.4697 -0.1730 -2.5933
  864MOL0     H14012  -0.108   5.200   9.709  1.4626  0.8624 -0.4515
  864MOL0     H14013  -0.337   5.136   9.695 -2.0285  1.6153 -1.2471
  864MOL0     H14014  -0.472   4.894   9.356 -0.0182 -0.8055  0.3782
  864MOL0     H14015  -0.544   5.040   9.285  0.6935 -1.5008 -1.6213
  864MOL0     H14016  -0.720   5.035   9.458 -0.9787 -0.7845  1.0588
  864MOL0     H14017  -0.674   4.861   9.472 -0.7636 -0.4019  0.5111
  864MOL0     H14018  -0.713   4.825   9.221  1.9007  0.6502  0.9969
  864MOL0     H14019  -0.759   5.001   9.205  2.0498  1.4369  2.2486
  864MOL0     H14020  -0.905   4.805   9.386  0.1504 -0.2231 -0.0501
  864MOL0     H14021  -0.974   4.945   9.321 -1.1959 -0.4682 -0.1124
  864MOL0     H14022  -0.886   4.714   9.156  1.1783  1.0072  1.6267
  864MOL0     H14023  -0.965   4.854   9.086 -2.7090  1.2501  0.9331
  864MOL0     H14024  -1.093   4.654   9.280 -1.1800 -1.3852 -0.4626
  864MOL0     H14025  -1.116   4.662   9.108  0.4067 -0.8822  0.0880
  864MOL0     H14026  -1.173   4.893   9.311  2.5056 -1.6308  1.2053
  864MOL0     H14027  -1.218   4.913   9.143  2.7610  1.8732  0.6717
  864MOL0     H14028  -1.401   4.843   9.293 -0.0783 -0.4441  0.8585
  864MOL0     H14029  -1.319   4.683   9.321  1.1487  1.0070  2.3578
  864MOL0     H14030  -0.294   4.997   9.298  1.6441  1.3879 -1.7811
  864MOL0     H14031  -0.045   5.069   9.306 -2.8854  1.0996 -1.6502
  864MOL0     H14032   0.188   5.565   9.471  0.8644  1.8952  0.0029
  864MOL0     H14033   0.400   5.655   9.460  0.2459 -0.2391  0.7477
  864MOL0     H14034   1.924   6.311   8.585 -1.2528  4.1647  0.0374
  864MOL0     H14035   2.152   6.368   8.552  1.2888 -0.9174  0.1139
  864MOL0     H14036   2.493   6.630   8.614 -0.0504 -0.6222 -0.1401
  864MOL0     H14037   2.714   6.733   8.598  0.8794 -1.1636 -0.5965
  864MOL0     H14038   2.905   6.819   8.618 -0.4557  1.4663  0.0043
  864MOL0     H14039   3.050   6.842   8.719 -0.8064  1.1183 -1.6965
  864MOL0     H14040   2.884   7.028   8.704 -2.4246  1.1569 -0.0634
  864MOL0     H14041   2.767   6.928   8.781 -1.0269  3.1751 -4.8215
  864MOL0     H14042   3.036   7.023   8.877 -0.5191 -0.8423 -1.6495
  864MOL0     H14043   2.932   6.918   8.979 -0.3275  0.1321  0.6696
  864MOL0     H14044   2.853   7.182   8.858  4.2414  1.0422  0.1416
  864MOL0     H14045   2.754   7.081   8.972  0.4683  0.0271 -0.8317
  864MOL0     H14046   3.040   7.271   9.228 -1.9501 -2.0056  2.3462
  864MOL0     H14047   2.851   6.544   8.957 -0.0722  1.2397 -0.9576
  864MOL0     H14048   2.633   6.413   8.963  0.8118  0.5464  0.3834
  865MOL0     O14049   1.513   2.780   2.068  0.4729  0.1713 -0.3762
  865MOL0     C14050   1.575   2.769   1.968  0.2554  0.4743  0.4500
  865MOL0     O14051   1.531   2.779   1.840 -0.5353  0.4066 -0.3149
  865MOL0     C14052   1.397   2.780   1.811 -0.0722  0.1158  1.2359
  865MOL0     C14053   1.303   2.852   1.883 -0.6015 -0.7622  0.3455
  865MOL0     C14054   1.170   2.847   1.840 -0.5750 -0.0924 -0.2530
  865MOL0     C14055   1.134   2.787   1.718  0.1279  0.1252 -0.0661
  865MOL0     O14056   1.007   2.767   1.672 -0.4268  0.0457  0.4195
  865MOL0     C14057   0.906   2.839   1.736 -0.0774  0.7752  0.8450
  865MOL0     C14058   0.776   2.810   1.659 -0.1288 -1.3857 -0.2769
  865MOL0     C14059   0.668   2.905   1.700  0.6242 -0.4289 -0.5900
  865MOL0     C14060   0.536   2.883   1.624 -0.7941 -0.6588 -0.3053
  865MOL0     C14061   0.416   2.969   1.677  0.0371 -0.3475 -0.1889
  865MOL0     C14062   0.295   2.961   1.586  0.5930  1.0021 -0.3949
  865MOL0     C14063   0.184   3.043   1.631  0.2958  0.1105 -0.3873
  865MOL0     C14064   0.101   2.975   1.743  0.8630  1.1251 -0.0206
  865MOL0     N14065   0.005   3.067   1.793  1.4187 -0.2767 -0.8378
  865MOL0     C14066  -0.086   3.136   1.723  1.0440  0.2180  0.2630
  865MOL0     C14067  -0.176   3.193   1.813  0.0942  0.0444 -0.0948
  865MOL0     C14068  -0.301   3.270   1.790  0.2909  0.6858 -1.3074
  865MOL0     C14069  -0.283   3.416   1.836  0.7570 -0.3417 -0.5210
  865MOL0     C14070  -0.426   3.463   1.854  0.0181  0.3506 -0.9228
  865MOL0     C14071  -0.416   3.600   1.912  0.6811  0.1874  0.6357
  865MOL0     O14072  -0.545   3.652   1.953 -0.2720 -0.0999 -0.0877
  865MOL0     C14073  -0.653   3.671   1.868 -0.0474 -0.1672  0.2801
  865MOL0     C14074  -0.636   3.697   1.730  0.1877 -0.5976 -1.0753
  865MOL0     C14075  -0.754   3.703   1.652  0.1609  0.2760 -0.2333
  865MOL0     C14076  -0.879   3.681   1.700  0.5079 -0.0898  0.5820
  865MOL0     C14077  -0.996   3.684   1.614  0.2999  0.8604 -0.1500
  865MOL0     O14078  -1.122   3.641   1.669 -0.1965 -0.6103  0.7653
  865MOL0     C14079  -1.236   3.653   1.586 -0.4448 -0.2580 -0.5914
  865MOL0     C14080  -1.329   3.752   1.630 -0.1257 -0.3565  0.0992
  865MOL0     C14081  -1.455   3.754   1.574 -0.8092 -0.5284 -0.1693
  865MOL0     C14082  -1.488   3.663   1.476  0.2668  0.3174 -0.2238
  865MOL0     O14083  -1.613   3.672   1.431 -0.2538  0.6290  0.5451
  865MOL0     C14084  -1.651   3.589   1.316  0.2622  0.0036  0.0942
  865MOL0     C14085  -1.787   3.640   1.265 -0.3245  0.3960 -0.3701
  865MOL0     C14086  -1.891   3.597   1.367 -0.3809  0.1707  0.2510
  865MOL0     C14087  -2.031   3.663   1.357 -0.1004  0.0903  1.5325
  865MOL0     C14088  -2.024   3.813   1.382  0.1352  0.0562  0.3070
  865MOL0     C14089  -2.168   3.863   1.397 -0.4308 -0.1807 -0.6267
  865MOL0     C14090  -2.215   3.859   1.546  0.5002  0.0984 -0.4813
  865MOL0     C14091  -2.367   3.880   1.542  0.6464  0.2953 -0.0651
  865MOL0    Cl14092  -2.456   3.746   1.475 -0.0161  0.1075 -0.1486
  865MOL0     C14093  -1.393   3.576   1.421 -0.0161  0.0684  0.0163
  865MOL0     C14094  -1.266   3.570   1.479  0.0064  0.5264 -0.0958
  865MOL0     O14095  -0.975   3.701   1.494  0.1298  0.9756  0.6812
  865MOL0     C14096  -0.889   3.648   1.837 -0.2923 -0.7372  0.0562
  865MOL0     C14097  -0.780   3.648   1.926  0.0729 -0.1097 -0.0866
  865MOL0     N14098  -0.138   3.147   1.938  0.4003 -0.8298 -0.2000
  865MOL0     N14099  -0.034   3.075   1.924  0.0288  0.3149 -0.4230
  865MOL0     C14100   1.234   2.746   1.631 -0.2425 -0.3694  0.6394
  865MOL0     C14101   1.365   2.738   1.676  0.2944  0.3920  0.0088
  865MOL0     C14102   1.725   2.776   1.987 -0.5644  0.4969 -0.1499
  865MOL0     C14103   1.777   2.791   2.111  0.7182  0.3079  0.5432
  865MOL0     C14104   1.917   2.799   2.123  0.3248 -1.2658  0.0015
  865MOL0     C14105   2.013   2.782   2.027  0.5129 -0.3819  0.5519
  865MOL0     O14106   2.150   2.806   2.056  0.8414  0.0866  0.2819
  865MOL0     C14107   2.247   2.830   1.952 -0.6607  0.0222  0.3320
  865MOL0     C14108   2.254   2.985   1.916 -0.5251  0.6229 -0.2707
  865MOL0     C14109   2.341   3.025   1.791  0.9571 -0.9860 -0.2056
  865MOL0     C14110   2.324   2.927   1.672  0.5009 -0.4377  1.1907
  865MOL0     C14111   2.407   2.973   1.558 -0.3850  0.0242 -0.1951
  865MOL0     C14112   2.472   3.019   1.469  0.1928 -0.5194 -0.2684
  865MOL0     C14113   1.957   2.760   1.903 -0.2146  0.1027  0.7687
  865MOL0     C14114   1.815   2.769   1.880 -0.5215 -0.5654 -0.0822
  865MOL0     H14115   1.324   2.911   1.971  0.3820  0.8263 -0.8917
  865MOL0     H14116   1.095   2.887   1.908 -0.0730 -0.9210  0.8206
  865MOL0     H14117   0.944   2.942   1.735  2.9159 -0.2069  1.2487
  865MOL0     H14118   0.907   2.817   1.843  0.4620  1.3040  0.9549
  865MOL0     H14119   0.749   2.705   1.673  1.2392 -1.5354  1.5553
  865MOL0     H14120   0.792   2.825   1.552  1.9660  0.8240  0.2670
  865MOL0     H14121   0.701   3.007   1.677 -0.8987 -0.4669 -3.4002
  865MOL0     H14122   0.653   2.902   1.808 -0.4535 -1.3220 -0.7456
  865MOL0     H14123   0.557   2.902   1.518  1.9856  1.1225  0.4294
  865MOL0     H14124   0.508   2.778   1.631 -3.1724 -0.2829 -2.5882
  865MOL0     H14125   0.449   3.072   1.691 -4.4167  1.2558  0.0919
  865MOL0     H14126   0.381   2.930   1.773  1.2329 -0.6952  0.1222
  865MOL0     H14127   0.256   2.860   1.574 -2.7588  2.0958  0.4190
  865MOL0     H14128   0.330   2.994   1.487  0.2260  0.1916 -0.7994
  865MOL0     H14129   0.204   3.143   1.670  0.1379 -0.5090  1.4212
  865MOL0     H14130   0.115   3.056   1.547 -1.3926 -0.5823  0.8198
  865MOL0     H14131   0.160   2.952   1.832  1.7480 -4.6009 -1.6938
  865MOL0     H14132   0.067   2.879   1.702 -0.2067  2.0070 -1.2927
  865MOL0     H14133  -0.098   3.152   1.616  0.9179  1.4672  0.4460
  865MOL0     H14134  -0.379   3.220   1.847  0.4716 -1.1578 -2.6168
  865MOL0     H14135  -0.333   3.262   1.686 -0.7160 -1.7464 -0.8735
  865MOL0     H14136  -0.232   3.469   1.755  1.6746 -1.5827 -0.7740
  865MOL0     H14137  -0.224   3.407   1.928 -0.3423 -1.8398  0.0839
  865MOL0     H14138  -0.488   3.468   1.764 -2.2739  0.6526  0.5874
  865MOL0     H14139  -0.482   3.400   1.925  1.6358  1.0553  1.0823
  865MOL0     H14140  -0.363   3.669   1.846  0.2089  0.8490  0.9364
  865MOL0     H14141  -0.360   3.593   2.005 -1.0877 -2.0303  1.6312
  865MOL0     H14142  -0.536   3.707   1.690  0.5134  0.5396 -0.0289
  865MOL0     H14143  -0.746   3.737   1.549 -1.1784  4.2991  0.8017
  865MOL0     H14144  -1.312   3.803   1.724 -2.9509  1.5454 -0.2908
  865MOL0     H14145  -1.529   3.822   1.617 -1.1474 -0.1755 -1.2860
  865MOL0     H14146  -1.654   3.483   1.342  0.6476 -0.2011 -0.6508
  865MOL0     H14147  -1.580   3.599   1.233 -1.6674 -1.0275 -1.7672
  865MOL0     H14148  -1.804   3.602   1.164  2.8498  0.2223 -0.9246
  865MOL0     H14149  -1.782   3.749   1.264 -0.4745  0.4186 -2.2593
  865MOL0     H14150  -1.851   3.625   1.465 -0.9916 -0.0689  0.5760
  865MOL0     H14151  -1.897   3.491   1.342  0.7761  0.2570 -0.4656
  865MOL0     H14152  -2.071   3.645   1.256  1.2304  2.1820  0.5521
  865MOL0     H14153  -2.098   3.619   1.431 -0.8251 -2.2247 -0.3622
  865MOL0     H14154  -1.972   3.870   1.304  0.2133  0.0148  0.3301
  865MOL0     H14155  -1.970   3.834   1.474 -2.6147  1.9927  1.6127
  865MOL0     H14156  -2.228   3.801   1.331  0.6656  0.8845 -2.7237
  865MOL0     H14157  -2.175   3.968   1.364  2.7858  1.1471  2.2940
  865MOL0     H14158  -2.182   3.767   1.595 -0.1748 -0.9184 -1.8553
  865MOL0     H14159  -2.163   3.932   1.608  1.1991  0.4842 -1.5026
  865MOL0     H14160  -2.386   3.971   1.485  0.5557  0.5922  0.4316
  865MOL0     H14161  -2.417   3.902   1.637 -3.6154  0.4732 -2.1002
  865MOL0     H14162  -1.407   3.507   1.339  0.3414 -1.5696  1.2940
  865MOL0     H14163  -1.187   3.504   1.444  2.2138  2.9288  0.0274
  865MOL0     H14164  -0.985   3.637   1.887 -2.5310  0.0138 -3.7032
  865MOL0     H14165  -0.792   3.611   2.027  1.3390 -1.1990 -0.3132
  865MOL0     H14166   1.214   2.717   1.528  1.3225 -0.5470  0.3546
  865MOL0     H14167   1.443   2.693   1.616 -0.6242  1.1270 -1.8300
  865MOL0     H14168   1.717   2.806   2.201  1.7046  0.3067  1.2195
  865MOL0     H14169   1.954   2.810   2.224  0.6669  0.4441 -0.2742
  865MOL0     H14170   2.222   2.762   1.871  0.5004  0.4722 -0.4240
  865MOL0     H14171   2.344   2.798   1.992 -0.8661  1.0231  1.7294
  865MOL0     H14172   2.156   3.031   1.909 -0.1054  1.5416 -0.2007
  865MOL0     H14173   2.304   3.037   1.999 -0.9054  1.1627 -0.3749
  865MOL0     H14174   2.446   3.037   1.819  0.3889  0.4938  1.4713
  865MOL0     H14175   2.317   3.125   1.753  1.8241 -0.8539 -0.4399
  865MOL0     H14176   2.372   2.836   1.708  0.2874  0.0186  2.7159
  865MOL0     H14177   2.220   2.918   1.643  0.2928  3.4300  0.1764
  865MOL0     H14178   2.517   3.061   1.381 -1.2084 -0.7996 -1.1360
  865MOL0     H14179   2.019   2.747   1.815 -0.4973 -0.5473  0.6601
  865MOL0     H14180   1.780   2.752   1.779  1.3747 -0.3087 -0.8366
  866MOL0     O14181   5.292   3.961   1.942 -0.3927 -0.1070  0.0079
  866MOL0     C14182   5.287   3.899   2.049  0.0669  0.2277  0.0143
  866MOL0     O14183   5.175   3.856   2.113  0.8927 -0.1814  0.1967
  866MOL0     C14184   5.054   3.858   2.044 -0.0707 -0.3063  0.5102
  866MOL0     C14185   4.994   3.985   2.017  0.2402 -0.3491 -0.2524
  866MOL0     C14186   4.866   3.988   1.942  0.0225  0.0901  0.2884
  866MOL0     C14187   4.807   3.867   1.905  0.0800  0.4398  0.2587
  866MOL0     O14188   4.706   3.856   1.811 -0.0372  0.4264 -0.4646
  866MOL0     C14189   4.614   3.964   1.805  1.0661  0.7322 -0.0886
  866MOL0     C14190   4.491   3.944   1.704  0.1790  0.3805  0.1381
  866MOL0     C14191   4.404   3.832   1.745  0.3669  0.5575  0.5054
  866MOL0     C14192   4.275   3.821   1.670  0.1396  0.3402  1.2149
  866MOL0     C14193   4.203   3.686   1.701  1.1222  0.3312 -0.5049
  866MOL0     C14194   4.058   3.685   1.648 -0.8104  0.1879 -0.6189
  866MOL0     C14195   3.975   3.561   1.705 -0.1749  0.1731 -0.1220
  866MOL0     C14196   3.856   3.527   1.619 -0.0783 -0.2985  0.1763
  866MOL0     N14197   3.796   3.394   1.651  0.7409  0.3669  0.6740
  866MOL0     C14198   3.723   3.313   1.561  0.6054  0.6985  0.0743
  866MOL0     C14199   3.653   3.228   1.634  0.2596  0.8816 -0.0592
  866MOL0     C14200   3.556   3.124   1.585  1.2684  0.3700  0.4796
  866MOL0     C14201   3.470   3.054   1.695 -0.1860  0.4307  0.2599
  866MOL0     C14202   3.454   2.907   1.658 -0.5331  0.4062 -0.0181
  866MOL0     C14203   3.330   2.857   1.732 -0.2669 -0.1560 -0.1377
  866MOL0     O14204   3.335   2.718   1.704  0.3963 -0.0375 -0.1972
  866MOL0     C14205   3.227   2.647   1.755  1.4133 -0.2802  0.6338
  866MOL0     C14206   3.224   2.520   1.707  0.3711 -0.0607 -0.0183
  866MOL0     C14207   3.117   2.442   1.745  0.3015  0.5997  0.5442
  866MOL0     C14208   3.012   2.487   1.824 -0.6721 -1.4763  0.3453
  866MOL0     C14209   2.898   2.395   1.861  0.1293  0.1580  0.4374
  866MOL0     O14210   2.837   2.424   1.979 -0.1390  0.6276  0.2658
  866MOL0     C14211   2.721   2.359   2.015  0.1663 -0.1089 -0.4981
  866MOL0     C14212   2.616   2.440   2.057 -0.7109 -0.3422  0.5106
  866MOL0     C14213   2.494   2.398   2.088 -0.2789  0.3421 -0.1235
  866MOL0     C14214   2.467   2.256   2.096  1.1129 -1.0681 -0.3814
  866MOL0     O14215   2.356   2.201   2.158 -0.9672  0.4537  0.9339
  866MOL0     C14216   2.241   2.283   2.181  0.4143  0.1706  0.7620
  866MOL0     C14217   2.141   2.285   2.064 -0.0403  0.4603  0.1603
  866MOL0     C14218   2.186   2.382   1.950  0.1206 -0.5430  0.4805
  866MOL0     C14219   2.085   2.395   1.839  0.3502  0.5063 -0.2992
  866MOL0     C14220   2.149   2.454   1.708 -0.1749  0.1288  0.0719
  866MOL0     C14221   2.042   2.455   1.597 -0.1309  0.8699  0.5342
  866MOL0     C14222   2.095   2.528   1.484  0.1999  0.4081  0.4865
  866MOL0     C14223   2.123   2.676   1.496  0.6879 -0.4021  0.0973
  866MOL0    Cl14224   1.975   2.759   1.564 -0.0809 -0.0287 -0.1498
  866MOL0     C14225   2.572   2.170   2.059 -0.6601 -0.3497  0.6424
  866MOL0     C14226   2.699   2.224   2.021  0.2362 -0.1826  0.0932
  866MOL0     O14227   2.875   2.301   1.785  0.0444  0.3604 -1.6470
  866MOL0     C14228   3.025   2.615   1.886 -1.0651  0.2449  0.9125
  866MOL0     C14229   3.124   2.701   1.839  0.1766  0.4859 -0.4285
  866MOL0     N14230   3.683   3.245   1.766 -0.0221 -0.9677  0.3790
  866MOL0     N14231   3.765   3.345   1.775 -0.5623  0.1192  0.7411
  866MOL0     C14232   4.882   3.747   1.935  0.8988 -0.4814 -0.0516
  866MOL0     C14233   5.007   3.737   1.993 -0.1157  0.4804 -0.0192
  866MOL0     C14234   5.418   3.857   2.104 -0.0964  1.0670 -0.3791
  866MOL0     C14235   5.437   3.783   2.219 -1.0294 -0.2340 -0.2544
  866MOL0     C14236   5.568   3.739   2.259  0.6581  0.2648  0.0905
  866MOL0     C14237   5.678   3.788   2.195  0.6398  0.1163 -0.1429
  866MOL0     O14238   5.799   3.754   2.243 -0.3050  0.1886  0.2449
  866MOL0     C14239   5.880   3.690   2.149 -0.6967  0.3203 -0.4394
  866MOL0     C14240   6.010   3.642   2.215  0.6992  0.1791  0.2904
  866MOL0     C14241   6.092   3.540   2.137 -0.4933  0.1328  0.8003
  866MOL0     C14242   6.224   3.514   2.217 -0.1140  0.1277 -0.0218
  866MOL0     C14243   6.315   3.634   2.198 -0.0468  0.8286  0.4755
  866MOL0     C14244   6.383   3.736   2.188 -0.3275 -0.1442 -0.0823
  866MOL0     C14245   5.662   3.866   2.080  0.2267 -0.5158  0.7914
  866MOL0     C14246   5.534   3.895   2.032  0.0119  0.1744  0.1983
  866MOL0     H14247   5.049   4.067   2.061  0.6763  0.4342 -2.1676
  866MOL0     H14248   4.823   4.086   1.921 -4.2593 -0.8219  3.4176
  866MOL0     H14249   4.668   4.049   1.762  0.0608 -0.6760 -4.7910
  866MOL0     H14250   4.575   3.994   1.902  1.3100  2.5757 -0.5292
  866MOL0     H14251   4.541   3.921   1.609 -0.8272  1.6680 -0.7438
  866MOL0     H14252   4.431   4.036   1.703 -0.0923  0.2093  0.4540
  866MOL0     H14253   4.381   3.857   1.849  1.1658 -0.4172  0.9277
  866MOL0     H14254   4.461   3.739   1.741  1.4983  1.1720  1.6222
  866MOL0     H14255   4.207   3.901   1.701 -1.2148  0.4148 -1.6552
  866MOL0     H14256   4.282   3.832   1.562 -1.0261  3.7504  1.3581
  866MOL0     H14257   4.199   3.693   1.810 -3.0260 -2.6789 -0.2230
  866MOL0     H14258   4.254   3.594   1.671  1.3277  0.2512  0.0747
  866MOL0     H14259   4.066   3.668   1.540  0.2358  1.3337 -0.7489
  866MOL0     H14260   3.998   3.774   1.671 -1.7877 -1.2652  3.3208
  866MOL0     H14261   4.038   3.472   1.705  1.7439  1.4411 -1.9207
  866MOL0     H14262   3.944   3.583   1.807 -0.4080 -0.7711  0.0253
  866MOL0     H14263   3.885   3.530   1.514 -1.4061  1.0743 -0.1938
  866MOL0     H14264   3.772   3.595   1.636  0.5314  0.7366 -0.8397
  866MOL0     H14265   3.712   3.328   1.454  1.4727  0.7912 -0.0143
  866MOL0     H14266   3.621   3.056   1.529 -0.2591 -0.5503 -0.2551
  866MOL0     H14267   3.486   3.166   1.512  1.4034  2.3253  1.4151
  866MOL0     H14268   3.369   3.093   1.711 -2.0479 -3.5780 -0.3932
  866MOL0     H14269   3.528   3.053   1.788 -0.5109 -3.5084  0.6068
  866MOL0     H14270   3.440   2.909   1.550  2.1701  0.7168 -0.4484
  866MOL0     H14271   3.541   2.845   1.685  0.3880  2.5619  2.3598
  866MOL0     H14272   3.244   2.913   1.693 -0.5760 -0.6612 -0.1928
  866MOL0     H14273   3.329   2.885   1.838  0.3267  0.2173 -0.2291
  866MOL0     H14274   3.298   2.499   1.631 -0.3693  0.2471 -0.8329
  866MOL0     H14275   3.116   2.339   1.709  0.8861 -0.4317  3.2059
  866MOL0     H14276   2.633   2.546   2.069 -0.5596 -0.2871 -0.1839
  866MOL0     H14277   2.419   2.472   2.116 -1.1979  0.0579 -1.7197
  866MOL0     H14278   2.259   2.385   2.215  1.8646 -0.2545  1.3496
  866MOL0     H14279   2.185   2.239   2.264 -3.0039  0.8759 -0.9608
  866MOL0     H14280   2.052   2.329   2.111  0.7522 -1.6965  4.1437
  866MOL0     H14281   2.130   2.181   2.031  3.6917 -0.6037  1.7796
  866MOL0     H14282   2.282   2.348   1.909 -0.3069  0.5286 -1.5240
  866MOL0     H14283   2.208   2.475   2.002  2.8953  0.0910 -1.5799
  866MOL0     H14284   2.035   2.301   1.818  0.2097 -0.5653  3.9523
  866MOL0     H14285   2.004   2.462   1.870 -1.4290 -0.4342 -2.6068
  866MOL0     H14286   2.240   2.398   1.683 -0.6854  0.0713 -1.8214
  866MOL0     H14287   2.188   2.554   1.730 -0.9837  0.0456  2.0883
  866MOL0     H14288   1.947   2.498   1.631 -0.6231 -0.2654  0.6782
  866MOL0     H14289   2.021   2.352   1.567 -0.6416  0.3980  2.3583
  866MOL0     H14290   2.185   2.485   1.440 -0.4665 -0.3299 -0.1958
  866MOL0     H14291   2.021   2.513   1.405 -1.0677  1.0483  1.5193
  866MOL0     H14292   2.156   2.722   1.402 -2.6176  1.6148 -0.2127
  866MOL0     H14293   2.210   2.688   1.561  0.3755  0.1412  0.4153
  866MOL0     H14294   2.551   2.063   2.061 -2.1429 -0.0763  2.0185
  866MOL0     H14295   2.784   2.158   2.010  1.6823  0.9456  3.3585
  866MOL0     H14296   2.942   2.650   1.946 -0.8003  0.7896  0.9709
  866MOL0     H14297   3.117   2.802   1.878 -1.8868  0.7115 -1.2898
  866MOL0     H14298   4.851   3.659   1.881 -2.0089  2.0294 -2.8557
  866MOL0     H14299   5.052   3.639   1.995  2.5058  1.5801 -0.6710
  866MOL0     H14300   5.353   3.758   2.282 -0.6891 -1.4308 -0.2463
  866MOL0     H14301   5.584   3.678   2.347 -0.3816  1.2448  0.9932
  866MOL0     H14302   5.909   3.757   2.067  2.0151 -1.4401 -1.0464
  866MOL0     H14303   5.831   3.599   2.115  1.4561 -0.7508 -0.9006
  866MOL0     H14304   6.062   3.730   2.255 -1.3376  0.3127  2.9023
  866MOL0     H14305   5.971   3.579   2.296 -1.0089 -1.5450 -1.7481
  866MOL0     H14306   6.118   3.571   2.035  0.9245 -0.2971  1.0185
  866MOL0     H14307   6.045   3.442   2.126  0.5869 -0.8990  4.2337
  866MOL0     H14308   6.223   3.512   2.326  4.4300  0.3018  0.1920
  866MOL0     H14309   6.282   3.425   2.191 -1.8638 -1.8945  2.4535
  866MOL0     H14310   6.437   3.828   2.201 -0.1528  0.0490 -1.9707
  866MOL0     H14311   5.748   3.913   2.034 -2.4261  0.4621 -3.7605
  866MOL0     H14312   5.527   3.946   1.936 -1.9138 -1.2391 -0.4720
  867MOL0     O14313   7.953   5.740   1.002 -0.6030  0.1274  0.3228
  867MOL0     C14314   7.982   5.638   1.072  0.8217 -0.5901 -0.0766
  867MOL0     O14315   7.894   5.562   1.138  0.6019 -0.0815 -0.5705
  867MOL0     C14316   7.753   5.581   1.130 -0.1906 -0.1839  0.2048
  867MOL0     C14317   7.675   5.463   1.125  0.2239 -0.1940  0.3024
  867MOL0     C14318   7.535   5.468   1.110  0.5373 -0.3185 -0.4456
  867MOL0     C14319   7.473   5.600   1.128  0.2884 -0.3388 -0.7276
  867MOL0     O14320   7.336   5.596   1.122 -0.2083  0.5775 -0.3241
  867MOL0     C14321   7.262   5.719   1.111  0.1854  0.4026  0.6275
  867MOL0     C14322   7.108   5.688   1.102  0.5207 -0.4281 -0.0749
  867MOL0     C14323   7.027   5.814   1.063 -0.0579  1.1137 -0.1782
  867MOL0     C14324   6.875   5.786   1.055  0.4349 -0.1842 -0.2626
  867MOL0     C14325   6.833   5.720   0.927 -0.2948  0.3386  0.3277
  867MOL0     C14326   6.691   5.662   0.925 -0.2201 -0.0904  0.0723
  867MOL0     C14327   6.674   5.567   0.815  0.9588 -0.5058  0.0506
  867MOL0     C14328   6.700   5.627   0.675 -0.7589  0.6384 -0.0707
  867MOL0     N14329   6.600   5.720   0.626 -0.5879 -0.9984  0.5375
  867MOL0     C14330   6.592   5.858   0.628 -0.1064  0.2870 -0.5741
  867MOL0     C14331   6.478   5.896   0.569 -0.2561 -0.0948 -0.8375
  867MOL0     C14332   6.437   6.034   0.530  0.3891  0.1554  0.4893
  867MOL0     C14333   6.449   6.061   0.383 -0.9080  0.2888  0.3135
  867MOL0     C14334   6.400   6.202   0.353 -0.6120 -0.5248  0.2234
  867MOL0     C14335   6.468   6.249   0.223 -0.6608 -0.1877 -0.3104
  867MOL0     O14336   6.444   6.386   0.183 -0.0595 -0.2856  0.0138
  867MOL0     C14337   6.308   6.417   0.143 -0.5103  0.3850 -0.2254
  867MOL0     C14338   6.204   6.324   0.111 -1.2237 -0.0510  0.6452
  867MOL0     C14339   6.079   6.377   0.058 -0.3977 -0.4337  0.6540
  867MOL0     C14340   6.068   6.518   0.031 -0.1526 -1.0400  0.9297
  867MOL0     C14341   5.937   6.564  -0.024  0.4879  0.3519  0.0516
  867MOL0     O14342   5.839   6.469  -0.049  0.0315 -0.3820  0.7539
  867MOL0     C14343   5.713   6.510  -0.096 -0.5075 -0.8633  0.1598
  867MOL0     C14344   5.614   6.453  -0.026  0.2593 -0.3491  0.3927
  867MOL0     C14345   5.481   6.473  -0.061 -0.2396  0.3815 -0.2310
  867MOL0     C14346   5.441   6.543  -0.174 -0.6587  0.8842  0.1968
  867MOL0     O14347   5.306   6.547  -0.191 -0.3590  0.4864  0.1291
  867MOL0     C14348   5.260   6.626  -0.305  0.5471  0.8991  0.1345
  867MOL0     C14349   5.111   6.628  -0.291 -0.4994  1.1113 -0.8268
  867MOL0     C14350   5.036   6.678  -0.409 -0.1351 -0.9505  0.2178
  867MOL0     C14351   4.893   6.708  -0.366 -0.7075 -0.1227 -0.2282
  867MOL0     C14352   4.798   6.738  -0.484 -0.6278  0.1376  0.0026
  867MOL0     C14353   4.664   6.802  -0.447 -0.2700  0.3915 -0.5303
  867MOL0     C14354   4.569   6.821  -0.566  0.4681  0.0724  0.3738
  867MOL0     C14355   4.438   6.874  -0.529  0.4439 -0.7292  0.8842
  867MOL0    Cl14356   4.319   6.898  -0.656 -0.2603 -0.0024  0.2174
  867MOL0     C14357   5.544   6.581  -0.259  0.6380  0.4472 -0.3026
  867MOL0     C14358   5.681   6.569  -0.222  0.5612 -0.6861  0.4334
  867MOL0     O14359   5.925   6.682  -0.037  0.0458  0.1678  0.2682
  867MOL0     C14360   6.169   6.606   0.067  0.0866  0.1959 -0.0768
  867MOL0     C14361   6.284   6.554   0.133  0.3999 -0.3534 -0.0945
  867MOL0     N14362   6.414   5.785   0.526  0.5250  0.4795  1.6866
  867MOL0     N14363   6.491   5.686   0.552 -0.7420  0.2604  0.1561
  867MOL0     C14364   7.554   5.717   1.152  0.4050  0.4277  0.3683
  867MOL0     C14365   7.693   5.702   1.147  0.0222  0.3666 -0.0225
  867MOL0     C14366   8.125   5.606   1.071  0.2375  0.7026 -0.4489
  867MOL0     C14367   8.223   5.709   1.059  0.3160 -0.2005  1.1004
  867MOL0     C14368   8.357   5.687   1.058 -0.2402  0.1912  0.0269
  867MOL0     C14369   8.397   5.558   1.069  0.6892  0.2277  0.5788
  867MOL0     O14370   8.531   5.526   1.068 -0.3314 -0.2722  0.9114
  867MOL0     C14371   8.570   5.456   1.180 -0.1262 -0.5541 -0.0377
  867MOL0     C14372   8.717   5.403   1.168  0.5958 -0.3531 -0.8599
  867MOL0     C14373   8.819   5.512   1.146 -0.0443 -0.4129  0.1149
  867MOL0     C14374   8.964   5.460   1.138 -1.1522 -0.9150  0.2198
  867MOL0     C14375   9.056   5.569   1.132 -0.0809  0.1217  0.1345
  867MOL0     C14376   9.139   5.658   1.128  0.5600  0.8039 -0.4454
  867MOL0     C14377   8.302   5.453   1.076 -0.0379 -1.0001  0.3436
  867MOL0     C14378   8.167   5.478   1.085  0.4330  0.1139  0.2013
  867MOL0     H14379   7.731   5.370   1.116 -0.8571 -0.6926 -1.9852
  867MOL0     H14380   7.478   5.381   1.081  1.4855 -0.5917 -1.5303
  867MOL0     H14381   7.282   5.753   1.009  1.3674 -0.5240  0.5210
  867MOL0     H14382   7.286   5.789   1.192 -0.9887 -0.1560  1.4835
  867MOL0     H14383   7.072   5.661   1.201  0.1722  1.7340  0.4497
  867MOL0     H14384   7.080   5.616   1.024 -0.8337  0.4780 -0.4594
  867MOL0     H14385   7.063   5.861   0.971  1.0596  0.8706  0.1288
  867MOL0     H14386   7.039   5.895   1.135 -0.2041  2.3181 -1.4569
  867MOL0     H14387   6.841   5.718   1.134  1.2196 -2.0538 -1.4824
  867MOL0     H14388   6.811   5.875   1.052 -0.1677 -0.4895  1.6816
  867MOL0     H14389   6.902   5.636   0.919 -1.1607 -0.3560 -0.0304
  867MOL0     H14390   6.846   5.785   0.840 -0.2398  0.8169  0.6869
  867MOL0     H14391   6.621   5.746   0.924  1.1087  1.0725 -1.4234
  867MOL0     H14392   6.666   5.618   1.022  2.2488  0.3889  1.0103
  867MOL0     H14393   6.741   5.481   0.827  1.6946 -0.1762 -1.5159
  867MOL0     H14394   6.580   5.511   0.815  1.3020 -1.0905  0.2661
  867MOL0     H14395   6.712   5.542   0.607 -2.2551  1.0706 -0.9287
  867MOL0     H14396   6.794   5.683   0.672 -2.1790  3.1762 -0.3699
  867MOL0     H14397   6.670   5.927   0.661  2.0109 -0.6776 -3.1679
  867MOL0     H14398   6.499   6.106   0.584  0.7452  0.0197  0.2678
  867MOL0     H14399   6.331   6.047   0.555 -0.0037  0.7781 -1.3485
  867MOL0     H14400   6.390   5.985   0.330 -2.1559  0.0204  1.9954
  867MOL0     H14401   6.551   6.046   0.348 -1.7088 -1.6602 -1.3793
  867MOL0     H14402   6.291   6.208   0.347 -0.7819 -2.1071  1.2023
  867MOL0     H14403   6.431   6.272   0.431 -0.0742  0.1970 -0.6083
  867MOL0     H14404   6.439   6.184   0.140 -2.7570 -0.4255  0.5487
  867MOL0     H14405   6.576   6.241   0.237 -0.4660  0.3882 -1.3122
  867MOL0     H14406   6.222   6.218   0.122 -0.5843 -0.0221 -0.0540
  867MOL0     H14407   6.007   6.304   0.024  0.5352 -1.4263  0.7302
  867MOL0     H14408   5.634   6.392   0.062 -1.5181 -1.6162 -0.0252
  867MOL0     H14409   5.405   6.423  -0.001 -0.3282  1.8158  0.9152
  867MOL0     H14410   5.277   6.567  -0.395  0.8357  0.7095  0.3128
  867MOL0     H14411   5.304   6.727  -0.306  0.8270  0.7774 -0.5345
  867MOL0     H14412   5.096   6.693  -0.204 -1.2742 -1.4923  1.1472
  867MOL0     H14413   5.081   6.530  -0.252  1.7952  0.8903  0.6250
  867MOL0     H14414   5.034   6.599  -0.484 -1.3541 -2.3378  1.6324
  867MOL0     H14415   5.083   6.775  -0.430  0.7937 -0.3486  4.1698
  867MOL0     H14416   4.854   6.632  -0.297  0.0851 -2.2971 -2.0715
  867MOL0     H14417   4.896   6.795  -0.299  0.9974 -0.9362  0.8305
  867MOL0     H14418   4.780   6.645  -0.540 -1.2469 -1.2186  2.3166
  867MOL0     H14419   4.845   6.809  -0.553  0.8853 -1.5332 -0.7639
  867MOL0     H14420   4.698   6.900  -0.410  2.3490 -0.3026 -0.9188
  867MOL0     H14421   4.620   6.743  -0.366  1.7381 -0.9800 -0.3685
  867MOL0     H14422   4.615   6.878  -0.647  1.8703 -1.8131 -0.2239
  867MOL0     H14423   4.555   6.722  -0.610  0.8570  0.0627  0.2666
  867MOL0     H14424   4.447   6.976  -0.489 -1.7057  0.2652 -0.9285
  867MOL0     H14425   4.389   6.804  -0.460 -0.8312  1.9431  2.9204
  867MOL0     H14426   5.521   6.608  -0.362  1.4581 -1.3794 -1.0228
  867MOL0     H14427   5.763   6.616  -0.275 -0.0978  0.0429  0.0354
  867MOL0     H14428   6.154   6.714   0.065 -0.1462  0.1520 -1.1778
  867MOL0     H14429   6.363   6.614   0.176  0.2271 -0.7173  0.7571
  867MOL0     H14430   7.519   5.819   1.164  1.1831  0.4313  3.4114
  867MOL0     H14431   7.761   5.787   1.145  0.0674  0.3224 -0.6094
  867MOL0     H14432   8.176   5.806   1.041 -0.0806 -0.5112  0.4516
  867MOL0     H14433   8.420   5.775   1.065  2.7974 -1.8324 -0.1398
  867MOL0     H14434   8.504   5.372   1.202  0.3527 -0.3283  2.5436
  867MOL0     H14435   8.571   5.530   1.261  2.2238  0.8931 -1.2593
  867MOL0     H14436   8.749   5.349   1.258  4.1235  0.0189 -1.7424
  867MOL0     H14437   8.731   5.318   1.101  0.9404 -1.8246  0.9630
  867MOL0     H14438   8.819   5.592   1.220 -0.3922 -1.6270  1.4608
  867MOL0     H14439   8.791   5.561   1.052  1.3564 -3.9861 -2.4209
  867MOL0     H14440   8.993   5.401   1.225 -2.9179 -0.2557  1.2983
  867MOL0     H14441   8.965   5.395   1.049 -0.0317 -1.6244  0.7346
  867MOL0     H14442   9.221   5.727   1.129  1.3939 -0.1603  1.0487
  867MOL0     H14443   8.340   5.351   1.075  2.2175 -0.2220  0.5954
  867MOL0     H14444   8.099   5.395   1.103 -0.3429  0.3455 -1.5285
  868MOL0     O14445   7.906   6.182   1.960  0.5289 -0.3906 -0.1761
  868MOL0     C14446   7.923   6.080   1.897 -0.3625 -0.2087  0.0296
  868MOL0     O14447   7.831   6.000   1.850  0.4104  0.0877  0.5146
  868MOL0     C14448   7.696   6.009   1.872 -0.2338 -0.5487  0.1481
  868MOL0     C14449   7.617   5.891   1.873 -0.8289 -0.4138  0.6221
  868MOL0     C14450   7.481   5.893   1.885  0.1753 -0.4506 -0.0186
  868MOL0     C14451   7.405   6.009   1.899 -0.2156  0.0527  0.0723
  868MOL0     O14452   7.272   6.017   1.913  0.2000  0.4511 -0.2719
  868MOL0     C14453   7.201   5.893   1.939 -0.7095 -0.7412  0.7608
  868MOL0     C14454   7.048   5.915   1.941  0.0583  0.3239  1.0240
  868MOL0     C14455   6.997   5.992   2.058  0.2994 -0.8014 -0.6361
  868MOL0     C14456   6.844   6.036   2.051  0.3378  0.5473 -0.8202
  868MOL0     C14457   6.795   6.128   2.174 -0.0285  0.2574  0.2614
  868MOL0     C14458   6.636   6.118   2.184 -0.1032 -0.8460  0.1554
  868MOL0     C14459   6.574   6.236   2.265  0.1505  0.1972  0.5025
  868MOL0     C14460   6.430   6.209   2.304  0.9790  0.2872 -1.1623
  868MOL0     N14461   6.419   6.262   2.438  0.4172  0.0299 -0.2549
  868MOL0     C14462   6.382   6.200   2.551  0.8038  0.2539  0.2498
  868MOL0     C14463   6.391   6.290   2.649 -0.4367 -0.5466  1.0420
  868MOL0     C14464   6.357   6.267   2.789  0.2442  0.6982  0.2365
  868MOL0     C14465   6.207   6.279   2.823  0.3828  0.0405 -0.2112
  868MOL0     C14466   6.134   6.416   2.795 -0.2531 -0.5532  0.6648
  868MOL0     C14467   5.984   6.405   2.793 -0.6806 -0.1119 -0.5781
  868MOL0     O14468   5.924   6.410   2.917 -0.1699 -0.7860 -0.5679
  868MOL0     C14469   5.794   6.360   2.916  0.3415 -0.2061  1.3099
  868MOL0     C14470   5.701   6.395   2.810 -0.5922  0.4581 -0.2581
  868MOL0     C14471   5.566   6.377   2.836 -0.1300 -0.9310  0.1983
  868MOL0     C14472   5.516   6.314   2.953  0.0985 -0.5915 -0.3778
  868MOL0     C14473   5.370   6.287   2.976 -0.6529 -0.9922 -0.8278
  868MOL0     O14474   5.280   6.383   2.922 -0.0942 -0.1051  0.3542
  868MOL0     C14475   5.145   6.344   2.930 -0.7135  0.8195 -0.7366
  868MOL0     C14476   5.055   6.358   2.819  0.0969  0.9951  0.3065
  868MOL0     C14477   4.917   6.323   2.823  0.1271  0.2076 -0.2297
  868MOL0     C14478   4.856   6.282   2.941  0.7509 -0.5479  0.1679
  868MOL0     O14479   4.721   6.275   2.931 -0.3513 -0.3062  0.0321
  868MOL0     C14480   4.651   6.324   3.043 -0.1919 -0.0254 -0.4253
  868MOL0     C14481   4.507   6.324   2.989  0.5834 -0.2232  0.0572
  868MOL0     C14482   4.404   6.363   3.092  0.2132 -0.1308  0.0588
  868MOL0     C14483   4.258   6.354   3.036 -0.0757  0.0086  0.1425
  868MOL0     C14484   4.149   6.408   3.121  0.9556  0.2605  0.2293
  868MOL0     C14485   4.018   6.403   3.046 -0.0478 -0.8861  0.0605
  868MOL0     C14486   3.889   6.422   3.135  0.0065 -0.7353 -0.4842
  868MOL0     C14487   3.756   6.417   3.065 -0.3809  0.8276 -0.4129
  868MOL0    Cl14488   3.728   6.254   2.994 -0.1255  0.0966  0.5511
  868MOL0     C14489   4.932   6.283   3.056  0.0220 -0.8655 -0.2298
  868MOL0     C14490   5.072   6.309   3.053 -0.6771 -0.1274 -0.3578
  868MOL0     O14491   5.345   6.175   3.019  0.3383 -0.5600 -0.3555
  868MOL0     C14492   5.609   6.286   3.055  0.6115 -0.1312 -0.3600
  868MOL0     C14493   5.745   6.313   3.031  0.7602  0.7023 -0.2498
  868MOL0     N14494   6.448   6.406   2.596  0.6601  0.3212  0.4081
  868MOL0     N14495   6.459   6.385   2.469  0.8592  0.5409  0.1871
  868MOL0     C14496   7.480   6.126   1.901  0.2886 -0.0146 -0.4148
  868MOL0     C14497   7.622   6.127   1.882  0.5088 -1.2544  0.5493
  868MOL0     C14498   8.060   6.057   1.829  0.8765  0.4646 -0.3220
  868MOL0     C14499   8.089   5.943   1.756  0.5206  1.0314 -0.2286
  868MOL0     C14500   8.219   5.928   1.706  0.0811  0.7193  0.0120
  868MOL0     C14501   8.309   6.032   1.713 -0.5489 -0.4430 -0.0272
  868MOL0     O14502   8.428   6.028   1.644  0.1196  0.3178  0.0546
  868MOL0     C14503   8.507   5.914   1.689 -0.1827 -0.1763 -0.2984
  868MOL0     C14504   8.647   5.964   1.699  0.5976  0.9553  0.1788
  868MOL0     C14505   8.754   5.851   1.707 -0.0864 -0.3060 -0.2771
  868MOL0     C14506   8.894   5.914   1.730  0.0416  0.1186 -0.1151
  868MOL0     C14507   8.900   5.983   1.861 -0.2121 -0.1899 -0.4148
  868MOL0     C14508   8.909   6.030   1.971 -0.5232  0.6076 -0.0128
  868MOL0     C14509   8.280   6.146   1.792 -0.7277 -0.2276  0.2594
  868MOL0     C14510   8.164   6.154   1.866  0.8999  1.0107 -0.4404
  868MOL0     H14511   7.671   5.796   1.869  2.7293  1.4999 -0.8218
  868MOL0     H14512   7.436   5.795   1.894  0.3906 -0.5469  0.0194
  868MOL0     H14513   7.228   5.859   2.040  1.7084  0.4683  0.5955
  868MOL0     H14514   7.236   5.815   1.870  1.0215 -0.9701  1.8187
  868MOL0     H14515   6.991   5.823   1.931  0.2830  0.3433 -0.9014
  868MOL0     H14516   7.024   5.971   1.850 -0.9774  1.2180  1.8250
  868MOL0     H14517   7.054   6.085   2.073  0.1888 -0.7044 -0.8123
  868MOL0     H14518   7.011   5.929   2.146  1.5394 -0.4194 -0.5338
  868MOL0     H14519   6.819   6.071   1.950 -1.5436 -0.6685 -0.8223
  868MOL0     H14520   6.793   5.940   2.062  2.2088 -0.5112 -0.9220
  868MOL0     H14521   6.814   6.234   2.152  1.3746 -0.3676 -1.7860
  868MOL0     H14522   6.842   6.110   2.271  0.9863 -0.7696 -0.4035
  868MOL0     H14523   6.607   6.024   2.232  0.7475 -1.0823  0.2377
  868MOL0     H14524   6.598   6.110   2.082  2.1142  0.1286 -0.8115
  868MOL0     H14525   6.640   6.238   2.352 -0.4504 -2.1410  1.0969
  868MOL0     H14526   6.583   6.327   2.206 -3.4390  0.3390 -0.0738
  868MOL0     H14527   6.394   6.106   2.298 -0.5630  0.8512 -2.1505
  868MOL0     H14528   6.364   6.262   2.234 -1.3795 -0.7838  0.1364
  868MOL0     H14529   6.343   6.101   2.573  1.0754  0.4194  1.6077
  868MOL0     H14530   6.414   6.330   2.858  0.0837 -1.3863  2.4210
  868MOL0     H14531   6.390   6.166   2.817  2.4278  1.4344  0.4780
  868MOL0     H14532   6.202   6.255   2.929  2.5728 -0.9014 -0.2829
  868MOL0     H14533   6.143   6.199   2.783  0.8180  0.4486 -1.8012
  868MOL0     H14534   6.167   6.486   2.872 -0.3608  2.3406 -1.7239
  868MOL0     H14535   6.166   6.462   2.700  1.2300  1.7046  2.1429
  868MOL0     H14536   5.941   6.319   2.741 -2.4813  0.3825  0.0106
  868MOL0     H14537   5.947   6.497   2.746  0.1990  1.1257  1.0562
  868MOL0     H14538   5.730   6.449   2.720 -1.4790  3.6178  1.2280
  868MOL0     H14539   5.494   6.429   2.773  1.0528  0.9079  0.2913
  868MOL0     H14540   5.091   6.390   2.722  3.7751 -0.9475  0.8599
  868MOL0     H14541   4.857   6.337   2.733 -0.8935 -0.1948  0.3805
  868MOL0     H14542   4.680   6.429   3.051 -1.0029  0.1668  0.1476
  868MOL0     H14543   4.664   6.277   3.140  1.7656  1.6591  0.1973
  868MOL0     H14544   4.490   6.221   2.954  2.0013  0.3055 -2.4189
  868MOL0     H14545   4.488   6.383   2.899  1.3213  0.1174  0.1138
  868MOL0     H14546   4.416   6.467   3.125 -2.0955  0.7278 -1.5363
  868MOL0     H14547   4.416   6.301   3.182 -0.6962  1.0588  1.0481
  868MOL0     H14548   4.251   6.404   2.939 -3.5384 -1.0906 -0.3147
  868MOL0     H14549   4.228   6.250   3.017  0.0243 -0.2551  1.3592
  868MOL0     H14550   4.174   6.510   3.152  2.7783 -0.3713  1.0119
  868MOL0     H14551   4.151   6.348   3.212 -1.4524  2.9751  2.2764
  868MOL0     H14552   4.017   6.300   3.009  1.8971 -0.9445  0.0334
  868MOL0     H14553   4.015   6.489   2.978 -1.8559  1.8715  3.2928
  868MOL0     H14554   3.901   6.348   3.215  5.4580  0.0925 -0.1198
  868MOL0     H14555   3.893   6.525   3.173  2.5314 -1.1225  0.4729
  868MOL0     H14556   3.755   6.495   2.988 -1.3628 -1.7656 -3.2136
  868MOL0     H14557   3.671   6.440   3.130  1.6262  1.9965  1.9536
  868MOL0     H14558   4.887   6.254   3.150 -4.2381  1.6056 -1.2424
  868MOL0     H14559   5.130   6.295   3.143  1.9226  2.5034 -1.4528
  868MOL0     H14560   5.585   6.235   3.147 -1.4056  1.6562  0.1808
  868MOL0     H14561   5.817   6.300   3.111  1.9254  0.6408 -1.2735
  868MOL0     H14562   7.420   6.212   1.929 -1.1861 -1.6571  1.8326
  868MOL0     H14563   7.677   6.221   1.878 -0.1197 -0.7149  2.8422
  868MOL0     H14564   8.009   5.881   1.716  0.0590  0.6360  1.2538
  868MOL0     H14565   8.233   5.845   1.637 -0.5743  1.1911 -0.7068
  868MOL0     H14566   8.500   5.836   1.612  0.8686 -1.0794  0.4955
  868MOL0     H14567   8.472   5.872   1.784 -0.2891  0.8074  0.1079
  868MOL0     H14568   8.664   6.005   1.598  1.1515 -0.3636 -0.2913
  868MOL0     H14569   8.655   6.036   1.781 -1.4484 -0.1669  1.4315
  868MOL0     H14570   8.763   5.795   1.613  0.5670 -1.7231  0.5882
  868MOL0     H14571   8.728   5.773   1.780  3.2012 -1.7423 -0.4487
  868MOL0     H14572   8.963   5.829   1.741 -0.4111 -0.0112  2.4659
  868MOL0     H14573   8.922   5.975   1.644 -0.3957  2.5667  1.3907
  868MOL0     H14574   8.906   6.087   2.062 -4.3416  2.3299 -0.9674
  868MOL0     H14575   8.359   6.215   1.819  1.0898 -1.3070 -1.8729
  868MOL0     H14576   8.150   6.234   1.937  1.2709 -1.3199  2.4621
  869MOL0     O14577   7.763   9.603   8.088 -0.0195  0.2282  0.8348
  869MOL0     C14578   7.829   9.497   8.109  0.3390 -0.6228  0.3869
  869MOL0     O14579   7.776   9.388   8.178 -0.5882 -0.3130  0.5685
  869MOL0     C14580   7.654   9.394   8.233  0.0389  0.6977  0.1624
  869MOL0     C14581   7.641   9.349   8.367 -0.2064  0.3966 -0.4462
  869MOL0     C14582   7.508   9.342   8.420  0.5708 -0.0999 -0.1642
  869MOL0     C14583   7.393   9.386   8.343  0.1892 -0.0403 -0.1709
  869MOL0     O14584   7.257   9.373   8.386  0.4956 -0.4600  0.9534
  869MOL0     C14585   7.224   9.325   8.516 -0.3640  0.3359 -1.7822
  869MOL0     C14586   7.070   9.306   8.519  0.8513  1.0169 -0.1568
  869MOL0     C14587   6.997   9.440   8.533 -0.0281  0.3913 -1.0242
  869MOL0     C14588   6.852   9.428   8.525 -0.3314  0.0765 -0.8594
  869MOL0     C14589   6.778   9.555   8.572  0.2367 -0.2871 -0.1611
  869MOL0     C14590   6.826   9.690   8.511 -0.2412 -0.5640  0.0285
  869MOL0     C14591   6.830   9.693   8.352 -0.2527 -0.1183  0.1929
  869MOL0     C14592   6.697   9.640   8.291  0.4618  0.0443 -0.2830
  869MOL0     N14593   6.583   9.710   8.340  0.3118 -0.1231  0.8869
  869MOL0     C14594   6.470   9.648   8.388  0.3440 -0.0162 -0.2697
  869MOL0     C14595   6.387   9.751   8.423  0.0943  0.5162  0.6188
  869MOL0     C14596   6.248   9.717   8.456 -0.7523 -0.8997  0.5664
  869MOL0     C14597   6.191   9.826   8.558  0.4549 -0.0818  0.3906
  869MOL0     C14598   6.117   9.935   8.484  0.3829  0.8569 -0.2004
  869MOL0     C14599   6.055  10.045   8.573  0.3471  0.1568  0.5946
  869MOL0     O14600   5.982   9.989   8.676  0.1908 -0.1335 -0.7145
  869MOL0     C14601   5.854   9.961   8.676  0.0459 -0.0701  0.2840
  869MOL0     C14602   5.801   9.834   8.720  0.1589 -0.9008  0.3138
  869MOL0     C14603   5.660   9.817   8.712 -0.0593  1.0094  0.4943
  869MOL0     C14604   5.569   9.914   8.663  0.3150  0.0994  0.6007
  869MOL0     C14605   5.426   9.893   8.652  0.1158 -0.3093  0.6143
  869MOL0     O14606   5.353   9.974   8.568 -0.4537 -0.2061 -0.2922
  869MOL0     C14607   5.222   9.948   8.531  0.1591  0.1997  0.8705
  869MOL0     C14608   5.140  10.056   8.513  0.1764 -0.0344  0.2022
  869MOL0     C14609   5.009  10.040   8.491  0.5685 -0.6014  1.3707
  869MOL0     C14610   4.949   9.916   8.470 -0.7804  0.6479  0.8083
  869MOL0     O14611   4.816   9.909   8.445  0.6647  0.2237  0.3930
  869MOL0     C14612   4.772   9.787   8.383  0.1953  0.3100  0.5733
  869MOL0     C14613   4.623   9.778   8.362 -0.0467  0.3143  0.7610
  869MOL0     C14614   4.557   9.912   8.310 -0.2879  0.8319 -0.3307
  869MOL0     C14615   4.406   9.901   8.282 -0.2559  0.5864 -0.1947
  869MOL0     C14616   4.343  10.025   8.209 -0.3270  0.0257 -0.6754
  869MOL0     C14617   4.200   9.999   8.165 -0.0172 -0.3783 -0.2101
  869MOL0     C14618   4.110   9.979   8.296  0.2460  1.2908  0.1296
  869MOL0     C14619   4.072  10.112   8.371 -1.0000 -0.3759  0.1477
  869MOL0    Cl14620   4.039  10.250   8.256 -0.1400  0.0721  0.7255
  869MOL0     C14621   5.037   9.803   8.481  0.8006  0.5943  0.0755
  869MOL0     C14622   5.168   9.823   8.522 -0.1920  0.5128 -0.3226
  869MOL0     O14623   5.381   9.811   8.731 -0.0169  0.4182  0.6474
  869MOL0     C14624   5.623  10.030   8.609 -0.4859 -0.8404 -0.3119
  869MOL0     C14625   5.763  10.053   8.619 -0.0717 -0.1560 -0.6696
  869MOL0     N14626   6.448   9.872   8.390  0.0212  0.0952 -1.0665
  869MOL0     N14627   6.557   9.844   8.323 -0.4532 -0.3726 -0.0534
  869MOL0     C14628   7.407   9.424   8.208  0.2232 -0.2664 -0.0621
  869MOL0     C14629   7.539   9.421   8.154  0.3519 -0.0698  0.0747
  869MOL0     C14630   7.964   9.489   8.035 -0.3990  0.0475 -0.6436
  869MOL0     C14631   7.965   9.514   7.898 -0.7283 -0.3621  0.4098
  869MOL0     C14632   8.081   9.530   7.835 -0.2178  0.4927  0.3108
  869MOL0     C14633   8.204   9.501   7.891 -0.1897  0.0320 -0.3516
  869MOL0     O14634   8.318   9.481   7.812  0.1269  0.2799 -0.2848
  869MOL0     C14635   8.346   9.582   7.710  1.0592  0.0705  0.2651
  869MOL0     C14636   8.490   9.576   7.668 -0.2241 -0.2999 -0.1353
  869MOL0     C14637   8.539   9.433   7.629  0.7205 -0.3015 -0.5721
  869MOL0     C14638   8.673   9.418   7.555  0.6756  1.3492 -0.5252
  869MOL0     C14639   8.715   9.274   7.556  0.3060  0.6807  0.3706
  869MOL0     C14640   8.757   9.163   7.567 -0.3850  0.1978  0.2421
  869MOL0     C14641   8.209   9.463   8.029 -0.3127 -0.4595 -0.5746
  869MOL0     C14642   8.092   9.467   8.102 -0.0909 -0.2197 -0.7277
  869MOL0     H14643   7.724   9.320   8.430 -0.2922  0.1467 -0.4451
  869MOL0     H14644   7.491   9.293   8.515  1.2783 -0.0469 -0.0000
  869MOL0     H14645   7.248   9.394   8.597 -4.4329  0.1432 -0.1678
  869MOL0     H14646   7.276   9.230   8.533  1.1358  1.2970 -0.7789
  869MOL0     H14647   7.031   9.244   8.601 -3.9618  0.5344 -2.4469
  869MOL0     H14648   7.040   9.260   8.425 -0.2509 -0.2413  0.7690
  869MOL0     H14649   7.032   9.503   8.450 -0.5297 -1.2392 -2.5326
  869MOL0     H14650   7.018   9.493   8.626 -3.3269  0.8752 -0.4324
  869MOL0     H14651   6.818   9.394   8.427 -2.0322  1.1498 -0.6917
  869MOL0     H14652   6.832   9.348   8.597 -0.0671 -0.1516 -1.0383
  869MOL0     H14653   6.777   9.565   8.681  1.5147 -0.8767 -0.0716
  869MOL0     H14654   6.672   9.541   8.551 -0.0602  0.3981  0.8131
  869MOL0     H14655   6.920   9.715   8.561 -0.8804 -0.7938  1.3918
  869MOL0     H14656   6.757   9.768   8.545  0.6261  1.8161 -3.1761
  869MOL0     H14657   6.842   9.797   8.324 -1.7220  0.3495  1.1674
  869MOL0     H14658   6.912   9.629   8.318  0.2423  1.1630 -1.0673
  869MOL0     H14659   6.690   9.537   8.325 -0.0784  0.7659  1.9585
  869MOL0     H14660   6.700   9.642   8.182 -0.3858 -0.2942 -0.3155
  869MOL0     H14661   6.439   9.545   8.397 -0.4392  0.2909  0.7769
  869MOL0     H14662   6.244   9.618   8.502  0.3431 -0.4494  1.6852
  869MOL0     H14663   6.181   9.712   8.369  1.1698 -0.1118 -1.0303
  869MOL0     H14664   6.260   9.870   8.630  0.1131  3.1979 -1.1197
  869MOL0     H14665   6.116   9.766   8.609  0.2473 -0.1525  0.0074
  869MOL0     H14666   6.184   9.979   8.410 -3.0658 -0.4670 -4.5082
  869MOL0     H14667   6.036   9.888   8.428 -0.3729  1.8735  0.0080
  869MOL0     H14668   6.001  10.116   8.510  1.9357 -0.1747 -1.2446
  869MOL0     H14669   6.145  10.098   8.606  0.4802  1.4173 -1.5606
  869MOL0     H14670   5.864   9.754   8.758 -1.7448 -1.4116  2.6136
  869MOL0     H14671   5.623   9.718   8.736  1.3301  0.2793 -0.2883
  869MOL0     H14672   5.181  10.153   8.539  3.0833 -0.3464 -2.6376
  869MOL0     H14673   4.948  10.129   8.484 -0.5335 -1.5003 -1.7113
  869MOL0     H14674   4.795   9.696   8.439  0.8397 -0.8045 -1.4351
  869MOL0     H14675   4.826   9.781   8.288 -0.3007 -0.6686  0.3415
  869MOL0     H14676   4.571   9.749   8.454 -3.2915  0.6027 -0.8352
  869MOL0     H14677   4.612   9.700   8.287  3.3668  0.0194  0.4227
  869MOL0     H14678   4.605   9.946   8.218  0.1224 -0.7807 -0.7513
  869MOL0     H14679   4.564   9.994   8.382 -0.4165 -1.1706  2.0724
  869MOL0     H14680   4.396   9.809   8.223  0.4701  1.0503 -1.0658
  869MOL0     H14681   4.359   9.888   8.379 -1.3915 -1.7083 -0.9871
  869MOL0     H14682   4.399  10.044   8.117  2.0880  0.0137  0.7285
  869MOL0     H14683   4.356  10.114   8.271  1.7697 -0.7898  0.1443
  869MOL0     H14684   4.198   9.911   8.100 -0.6677 -0.6973  0.2280
  869MOL0     H14685   4.162  10.083   8.106 -0.2047 -0.1938  0.1739
  869MOL0     H14686   4.009   9.949   8.266  0.5602 -0.3391  0.6436
  869MOL0     H14687   4.156   9.907   8.363 -1.2952  0.4446  0.3210
  869MOL0     H14688   4.150  10.126   8.446 -1.6095 -1.2992  0.9800
  869MOL0     H14689   3.980  10.112   8.429 -0.7695  1.0256  0.5577
  869MOL0     H14690   5.000   9.702   8.466  1.3200  0.8087 -3.6650
  869MOL0     H14691   5.219   9.735   8.560 -0.3259  1.3713  1.9874
  869MOL0     H14692   5.562  10.105   8.559  2.2961  0.9292 -1.2646
  869MOL0     H14693   5.803  10.148   8.587 -0.3187  0.9271  2.0137
  869MOL0     H14694   7.322   9.449   8.145 -0.1340 -0.4892  0.3229
  869MOL0     H14695   7.552   9.462   8.054 -2.8023  2.0004  0.3792
  869MOL0     H14696   7.873   9.529   7.842  0.8884 -2.0251 -3.0522
  869MOL0     H14697   8.077   9.549   7.728 -0.9771  0.4322  0.3201
  869MOL0     H14698   8.345   9.675   7.768  2.1074  1.5618 -1.9525
  869MOL0     H14699   8.273   9.572   7.630  0.8524  4.5304 -0.3837
  869MOL0     H14700   8.493   9.640   7.579  1.7460  2.6677  1.9055
  869MOL0     H14701   8.559   9.609   7.745  0.0023 -3.5676  1.2283
  869MOL0     H14702   8.465   9.386   7.563  2.2746 -1.8326 -1.3056
  869MOL0     H14703   8.531   9.372   7.720 -0.9141 -0.5500 -0.8529
  869MOL0     H14704   8.670   9.467   7.457  4.4070  2.0870 -0.4121
  869MOL0     H14705   8.758   9.459   7.611  1.1079  0.4231 -0.4843
  869MOL0     H14706   8.800   9.065   7.575 -0.8054  0.1461  2.5930
  869MOL0     H14707   8.301   9.444   8.083 -0.2428 -1.0140 -0.8769
  869MOL0     H14708   8.088   9.434   8.205  2.9337  0.6758 -0.2245
  870MOL0     O14709  10.816   3.528   7.877  0.0238  0.7040 -0.9146
  870MOL0     C14710  10.837   3.645   7.856 -0.2864 -0.3101 -0.6832
  870MOL0     O14711  10.752   3.744   7.886 -0.3678 -0.2935  0.0822
  870MOL0     C14712  10.618   3.722   7.898  0.3040  0.0414 -0.0941
  870MOL0     C14713  10.542   3.615   7.844 -0.2915  0.0694  0.2247
  870MOL0     C14714  10.407   3.596   7.884  0.2990 -0.3173  0.6890
  870MOL0     C14715  10.338   3.683   7.970  0.6416 -0.1280 -0.3809
  870MOL0     O14716  10.205   3.673   8.009 -0.2748  0.5105 -0.7947
  870MOL0     C14717  10.133   3.554   7.962  1.3147 -0.4591  0.2844
  870MOL0     C14718   9.992   3.560   8.020 -0.0167  0.2505 -0.3736
  870MOL0     C14719   9.911   3.430   7.988  0.1896 -1.1387  0.8940
  870MOL0     C14720   9.760   3.446   8.028 -0.1713 -0.0907 -0.0115
  870MOL0     C14721   9.669   3.329   7.990  0.3933  0.0984  0.2978
  870MOL0     C14722   9.525   3.354   8.027  0.3018 -1.1298  0.4553
  870MOL0     C14723   9.444   3.253   7.955  0.4903 -0.2802 -1.1114
  870MOL0     C14724   9.310   3.223   8.025 -0.0459  0.6421 -0.5270
  870MOL0     N14725   9.220   3.334   8.043  0.0477  0.0431 -0.5082
  870MOL0     C14726   9.246   3.452   8.111  0.6694 -0.4036  0.5811
  870MOL0     C14727   9.130   3.512   8.131  0.1786 -0.0309 -0.3421
  870MOL0     C14728   9.106   3.639   8.211  0.2227 -0.1021 -0.7501
  870MOL0     C14729   8.974   3.649   8.272 -0.0668  0.4604 -0.4017
  870MOL0     C14730   8.872   3.712   8.176 -0.3490  0.1460  0.0313
  870MOL0     C14731   8.737   3.706   8.237  0.9110 -0.1755 -0.0123
  870MOL0     O14732   8.633   3.761   8.153  0.3511  0.3727 -0.4519
  870MOL0     C14733   8.511   3.793   8.216 -0.5687  0.5894  1.1011
  870MOL0     C14734   8.432   3.881   8.149 -0.9516  0.9992 -0.1248
  870MOL0     C14735   8.303   3.912   8.206  0.3155 -0.1282 -0.7500
  870MOL0     C14736   8.251   3.851   8.328  0.3565  0.1324 -0.3074
  870MOL0     C14737   8.113   3.875   8.379  1.3780 -0.4520  0.0254
  870MOL0     O14738   8.052   3.984   8.320 -0.3861  0.0853 -0.3955
  870MOL0     C14739   7.927   4.005   8.364  0.8843 -0.2747 -0.1489
  870MOL0     C14740   7.879   4.000   8.503 -0.0870  0.1279 -0.0908
  870MOL0     C14741   7.745   4.024   8.538 -0.0814  0.1674 -0.9768
  870MOL0     C14742   7.658   4.066   8.439  0.6001  0.0516  0.6071
  870MOL0     O14743   7.529   4.098   8.473 -0.3553  0.9625 -0.6087
  870MOL0     C14744   7.424   4.042   8.388  0.2500  0.2759  0.3462
  870MOL0     C14745   7.298   4.055   8.474 -0.0020 -0.8219 -0.0114
  870MOL0     C14746   7.165   4.059   8.389  0.0229  0.3160 -0.8179
  870MOL0     C14747   7.038   4.062   8.478 -0.3474  0.9777 -0.1350
  870MOL0     C14748   7.017   3.923   8.555 -0.3424  0.1705 -0.2608
  870MOL0     C14749   6.903   3.921   8.653  0.2519 -1.0673 -0.0919
  870MOL0     C14750   6.879   3.786   8.711  0.3836 -0.6698  0.5071
  870MOL0     C14751   6.748   3.777   8.794 -1.0464 -0.3211  0.8834
  870MOL0    Cl14752   6.738   3.617   8.870 -0.3228  0.0735  0.0438
  870MOL0     C14753   7.701   4.080   8.308 -0.1291  0.3468  0.3322
  870MOL0     C14754   7.839   4.049   8.268  0.1301  0.5704 -0.1930
  870MOL0     O14755   8.059   3.791   8.450  0.6150  0.4754  0.0556
  870MOL0     C14756   8.341   3.773   8.393 -0.8098 -0.1813 -0.8565
  870MOL0     C14757   8.469   3.736   8.339  0.7407  0.2250 -0.6808
  870MOL0     N14758   9.038   3.445   8.061  0.0146  0.1989 -0.2644
  870MOL0     N14759   9.082   3.331   8.020 -0.0900 -0.6483 -0.1375
  870MOL0     C14760  10.410   3.792   8.022  0.4023  0.4430 -0.5650
  870MOL0     C14761  10.556   3.808   7.987 -0.0061 -0.4399 -0.3928
  870MOL0     C14762  10.968   3.678   7.791  0.3445  0.3289 -0.5688
  870MOL0     C14763  11.000   3.813   7.781 -0.4149 -0.5325 -0.4664
  870MOL0     C14764  11.126   3.848   7.738 -0.2653  0.5938  0.6175
  870MOL0     C14765  11.221   3.760   7.690 -0.7912 -0.1075  0.3408
  870MOL0     O14766  11.360   3.784   7.664  0.1754  0.0915 -0.1965
  870MOL0     C14767  11.457   3.686   7.608  0.0781 -0.0386 -0.1856
  870MOL0     C14768  11.426   3.667   7.466 -0.2479 -0.3053  0.2048
  870MOL0     C14769  11.498   3.780   7.380 -0.2411 -0.3550 -0.1807
  870MOL0     C14770  11.431   3.908   7.400  0.2187  0.6339  0.2495
  870MOL0     C14771  11.483   4.012   7.309  0.5074 -0.8075 -0.1683
  870MOL0     C14772  11.516   4.093   7.228 -0.4506 -0.1901 -0.1341
  870MOL0     C14773  11.179   3.619   7.685 -0.7858 -0.8736  0.4162
  870MOL0     C14774  11.054   3.583   7.729  0.7890  1.2108  0.4212
  870MOL0     H14775  10.581   3.544   7.771 -1.5581  2.1498 -2.6527
  870MOL0     H14776  10.359   3.506   7.846  2.0371 -1.2969  0.7142
  870MOL0     H14777  10.192   3.466   7.988  3.1074  1.4299  3.1464
  870MOL0     H14778  10.111   3.574   7.856 -1.3897  4.9749  1.5260
  870MOL0     H14779   9.951   3.645   7.965 -2.8086 -0.9354 -0.3084
  870MOL0     H14780   9.999   3.572   8.128 -0.2791 -2.2172 -0.0223
  870MOL0     H14781   9.944   3.342   8.043 -0.0791 -3.0371 -1.7959
  870MOL0     H14782   9.927   3.404   7.884  1.5736 -1.0919  1.0846
  870MOL0     H14783   9.773   3.476   8.132  0.9993  0.7332 -0.3755
  870MOL0     H14784   9.719   3.528   7.969  0.8015  0.2017 -0.2978
  870MOL0     H14785   9.700   3.236   8.040  2.1818 -0.3805 -1.5769
  870MOL0     H14786   9.680   3.310   7.883  2.8836  0.5002  0.4228
  870MOL0     H14787   9.499   3.453   7.988  0.1952 -1.0173  0.8050
  870MOL0     H14788   9.506   3.349   8.135 -0.8542 -1.2338  0.2625
  870MOL0     H14789   9.425   3.279   7.851  1.5414 -0.9152 -1.4780
  870MOL0     H14790   9.494   3.157   7.942  0.6397 -0.4305  0.3677
  870MOL0     H14791   9.344   3.193   8.124 -0.9587 -1.8165 -0.8637
  870MOL0     H14792   9.253   3.137   7.987  1.1738 -1.5573  2.2575
  870MOL0     H14793   9.333   3.486   8.166 -0.3009  1.7221  0.8884
  870MOL0     H14794   9.112   3.722   8.141 -0.0840 -0.9921 -1.8635
  870MOL0     H14795   9.175   3.645   8.296 -1.8470 -0.6137  1.0725
  870MOL0     H14796   8.986   3.700   8.368  0.7777  2.6161 -1.5911
  870MOL0     H14797   8.947   3.547   8.299  0.7811  0.4844  0.6074
  870MOL0     H14798   8.904   3.816   8.167 -0.9420  0.4492  1.2579
  870MOL0     H14799   8.874   3.672   8.074  2.0659 -0.4542  0.2435
  870MOL0     H14800   8.738   3.760   8.333 -2.6795 -0.5430  0.3629
  870MOL0     H14801   8.701   3.603   8.244 -0.8843  0.3639 -0.7319
  870MOL0     H14802   8.468   3.928   8.058 -0.3022  1.8180  0.5424
  870MOL0     H14803   8.244   3.976   8.142  0.5761 -1.3336 -2.2674
  870MOL0     H14804   7.948   3.974   8.583 -0.0826  0.5452  0.0424
  870MOL0     H14805   7.716   4.018   8.643  0.3513  0.0750 -0.8605
  870MOL0     H14806   7.444   3.939   8.358 -2.1403 -0.0555 -0.2804
  870MOL0     H14807   7.404   4.103   8.300  1.5737  0.1735 -0.0447
  870MOL0     H14808   7.299   4.146   8.536  0.6831 -0.3358 -0.7132
  870MOL0     H14809   7.302   3.969   8.541  3.0877 -0.4545  0.3988
  870MOL0     H14810   7.161   3.978   8.315 -0.5640 -1.0445  0.6579
  870MOL0     H14811   7.162   4.147   8.324 -1.1947 -1.0836 -2.8083
  870MOL0     H14812   7.042   4.136   8.558 -0.3263  0.8489 -0.0132
  870MOL0     H14813   6.958   4.095   8.411 -1.1320 -1.8146 -0.7307
  870MOL0     H14814   7.106   3.889   8.610  0.1715  0.4269 -0.9292
  870MOL0     H14815   6.994   3.847   8.480 -0.7608  2.0230 -2.0901
  870MOL0     H14816   6.810   3.952   8.604  0.7756 -2.0621 -1.8425
  870MOL0     H14817   6.926   3.991   8.734 -1.9157  2.4693 -2.2836
  870MOL0     H14818   6.876   3.708   8.634  2.4340 -2.4250  2.0761
  870MOL0     H14819   6.968   3.757   8.767  1.0112  0.3641  0.0632
  870MOL0     H14820   6.667   3.780   8.722 -0.9611  1.7745  0.8258
  870MOL0     H14821   6.746   3.858   8.867  0.3346  0.4867  0.0604
  870MOL0     H14822   7.638   4.116   8.228  2.4825  0.2707 -1.9182
  870MOL0     H14823   7.877   4.066   8.167  2.2174 -0.1194  0.4302
  870MOL0     H14824   8.299   3.734   8.485 -1.9914  0.1420 -1.2398
  870MOL0     H14825   8.532   3.675   8.402 -1.5450 -2.6880 -0.9730
  870MOL0     H14826  10.368   3.868   8.087 -0.5362  0.2304 -0.9024
  870MOL0     H14827  10.608   3.890   8.036 -0.8347  1.1277 -2.0298
  870MOL0     H14828  10.941   3.888   7.831 -0.9552 -2.4744  1.9962
  870MOL0     H14829  11.168   3.945   7.762  2.6009 -0.1516 -0.8713
  870MOL0     H14830  11.450   3.588   7.655  1.8467 -0.3423 -0.4901
  870MOL0     H14831  11.562   3.706   7.632 -0.0920  1.3454 -0.5023
  870MOL0     H14832  11.459   3.569   7.432 -2.5467 -1.5874  1.3998
  870MOL0     H14833  11.317   3.668   7.458 -0.3658 -3.7261 -0.1567
  870MOL0     H14834  11.483   3.742   7.278  1.6476  3.0484 -1.9032
  870MOL0     H14835  11.606   3.787   7.392  0.2514 -0.2774 -3.6407
  870MOL0     H14836  11.322   3.896   7.392  0.6104 -2.7646 -1.2509
  870MOL0     H14837  11.451   3.944   7.502  0.8729 -0.2807  0.4500
  870MOL0     H14838  11.562   4.163   7.161  0.4077 -0.9045 -0.3143
  870MOL0     H14839  11.244   3.541   7.648 -0.2601 -0.6031  0.7623
  870MOL0     H14840  11.033   3.477   7.726  0.5710  1.2522  0.4871
  871MOL0     O14841   2.646   3.119   5.351  0.4099  0.4826 -0.0867
  871MOL0     C14842   2.603   3.230   5.376  0.1389  0.1730 -1.2094
  871MOL0     O14843   2.678   3.345   5.364 -0.1958  0.1736 -0.3686
  871MOL0     C14844   2.808   3.327   5.323  0.0601  0.7787  0.4333
  871MOL0     C14845   2.838   3.342   5.185  0.0626  0.1865 -0.0023
  871MOL0     C14846   2.967   3.335   5.133 -0.3447  0.1218 -0.0960
  871MOL0     C14847   3.070   3.285   5.218  0.3622 -0.6728  0.7542
  871MOL0     O14848   3.203   3.270   5.178  0.5680  0.0512 -0.3357
  871MOL0     C14849   3.216   3.193   5.060 -0.6280  0.5019  0.3084
  871MOL0     C14850   3.362   3.149   5.045 -0.8992  0.8245  0.2546
  871MOL0     C14851   3.455   3.262   5.007 -0.4293 -0.4329  0.3957
  871MOL0     C14852   3.603   3.222   4.981  1.1059 -0.2252 -0.3551
  871MOL0     C14853   3.677   3.229   5.115 -0.0321 -0.5508 -0.1097
  871MOL0     C14854   3.824   3.209   5.095  0.3944  0.9466  0.6954
  871MOL0     C14855   3.906   3.253   5.218  0.4239 -0.0988 -0.3303
  871MOL0     C14856   4.058   3.210   5.211 -0.2145  0.2957 -0.1672
  871MOL0     N14857   4.083   3.073   5.182  0.2891  0.1550  0.5492
  871MOL0     C14858   4.138   3.014   5.071  0.0579  0.0828  0.4841
  871MOL0     C14859   4.098   2.888   5.066  0.6967  0.5321  0.3882
  871MOL0     C14860   4.117   2.794   4.949 -0.6764 -0.2754 -0.8469
  871MOL0     C14861   3.974   2.743   4.895 -0.2452  0.0126 -0.8714
  871MOL0     C14862   3.899   2.862   4.825  0.1701 -0.7453 -0.2107
  871MOL0     C14863   3.753   2.833   4.810 -0.2568  0.3522  0.1747
  871MOL0     O14864   3.678   2.835   4.932 -0.2256  0.5617 -0.4430
  871MOL0     C14865   3.545   2.820   4.927 -0.8998  0.7243 -0.0613
  871MOL0     C14866   3.469   2.804   4.815  0.1950 -0.0758 -0.0403
  871MOL0     C14867   3.332   2.780   4.831  0.2584  0.6926  0.3371
  871MOL0     C14868   3.272   2.765   4.958 -0.1328  0.3960 -0.2571
  871MOL0     C14869   3.132   2.732   4.979 -0.1805  0.3417  0.0227
  871MOL0     O14870   3.083   2.750   5.103 -0.1780  0.0408  0.0083
  871MOL0     C14871   2.948   2.740   5.115  0.6991  0.3448  0.0182
  871MOL0     C14872   2.880   2.849   5.166 -0.3859  0.0004  0.0519
  871MOL0     C14873   2.741   2.846   5.169 -0.4747  0.1997  0.0818
  871MOL0     C14874   2.666   2.731   5.150  0.9119  0.7289 -0.1601
  871MOL0     O14875   2.528   2.739   5.168  0.1208 -0.2540 -0.3281
  871MOL0     C14876   2.455   2.627   5.202 -0.3314  0.3857 -0.0455
  871MOL0     C14877   2.318   2.651   5.274  0.6306 -0.0173  0.6029
  871MOL0     C14878   2.243   2.739   5.179  0.6439  0.3461  0.9164
  871MOL0     C14879   2.099   2.771   5.212  0.0126 -0.2724  0.1792
  871MOL0     C14880   1.999   2.654   5.223  0.1560 -0.1200  0.7227
  871MOL0     C14881   1.858   2.709   5.216 -0.4418  0.3467 -0.4201
  871MOL0     C14882   1.765   2.591   5.233 -0.0160 -0.1643  0.1247
  871MOL0     C14883   1.623   2.640   5.249 -0.0274 -0.1968 -0.3577
  871MOL0    Cl14884   1.594   2.741   5.388  0.3306 -0.0545  0.2508
  871MOL0     C14885   2.745   2.614   5.107  0.8512 -0.1984 -0.3344
  871MOL0     C14886   2.883   2.618   5.089  0.9619 -0.0495 -0.9213
  871MOL0     O14887   3.066   2.692   4.885 -0.7178 -0.2709  0.2172
  871MOL0     C14888   3.357   2.782   5.067 -0.5031 -0.3156 -0.7564
  871MOL0     C14889   3.490   2.815   5.050  0.1864 -0.3860 -0.2018
  871MOL0     N14890   4.017   2.863   5.178 -0.3553 -0.8200 -0.2194
  871MOL0     N14891   4.018   2.977   5.248 -0.3508  0.3267 -0.6769
  871MOL0     C14892   3.045   3.257   5.349  0.0305 -0.5317  0.2242
  871MOL0     C14893   2.917   3.284   5.405  0.6011  0.3756 -0.0205
  871MOL0     C14894   2.459   3.234   5.409  0.2944 -0.5498  0.4473
  871MOL0     C14895   2.374   3.124   5.399  0.1613 -0.1408 -0.1867
  871MOL0     C14896   2.237   3.125   5.427  0.6126 -0.3244 -0.1499
  871MOL0     C14897   2.182   3.245   5.478 -0.3075 -0.7503 -0.3325
  871MOL0     O14898   2.055   3.267   5.518  0.7567  0.3884  0.2721
  871MOL0     C14899   1.956   3.237   5.418  0.5574  0.3115  0.3993
  871MOL0     C14900   1.836   3.324   5.429  0.6402  0.1079  0.0974
  871MOL0     C14901   1.764   3.322   5.561 -0.1343  0.0736  0.3042
  871MOL0     C14902   1.691   3.191   5.599  0.6985 -0.2821  0.2768
  871MOL0     C14903   1.578   3.171   5.517  0.8166  0.2135  0.4194
  871MOL0     C14904   1.479   3.147   5.440 -0.1120  0.7407 -0.7656
  871MOL0     C14905   2.265   3.360   5.489  0.2840 -0.0180  0.3478
  871MOL0     C14906   2.399   3.355   5.452 -0.5508 -0.3773  0.8223
  871MOL0     H14907   2.749   3.371   5.129 -1.9221 -4.7675  0.0192
  871MOL0     H14908   2.992   3.345   5.028 -1.7471 -0.0387 -0.4580
  871MOL0     H14909   3.177   3.249   4.975  1.3536 -0.3020 -1.2063
  871MOL0     H14910   3.156   3.102   5.074 -1.2349  1.3367  4.8202
  871MOL0     H14911   3.365   3.067   4.973  0.2899  1.1956 -0.1433
  871MOL0     H14912   3.392   3.099   5.137 -3.3494 -1.6582 -0.1624
  871MOL0     H14913   3.453   3.350   5.072  0.9561 -1.8868  2.5845
  871MOL0     H14914   3.425   3.290   4.906 -1.2310 -1.2566  0.3886
  871MOL0     H14915   3.608   3.121   4.939  0.2762 -0.0258 -0.9603
  871MOL0     H14916   3.647   3.293   4.910 -0.8092  3.2577  1.6376
  871MOL0     H14917   3.636   3.148   5.175  2.2786 -0.4097  1.8126
  871MOL0     H14918   3.662   3.331   5.151  0.4988 -0.5428  0.0923
  871MOL0     H14919   3.857   3.245   4.997 -1.6546 -0.7044 -0.6937
  871MOL0     H14920   3.844   3.102   5.084  1.4162  1.1551  0.4795
  871MOL0     H14921   3.910   3.361   5.233 -0.4514 -0.1902  0.6329
  871MOL0     H14922   3.857   3.213   5.307  2.1268  0.6961  1.0295
  871MOL0     H14923   4.116   3.230   5.302  1.2665  0.2253 -1.0472
  871MOL0     H14924   4.109   3.261   5.129  0.9456 -0.7429 -0.1310
  871MOL0     H14925   4.189   3.066   4.991 -0.0773  0.5914  0.7288
  871MOL0     H14926   4.180   2.707   4.970  0.0847  0.6095  0.6519
  871MOL0     H14927   4.150   2.851   4.861 -0.6721  3.7116  1.5008
  871MOL0     H14928   3.912   2.712   4.980  1.6883  0.3840  0.7488
  871MOL0     H14929   3.991   2.661   4.824 -2.6469 -0.8974 -0.5010
  871MOL0     H14930   3.898   2.953   4.887 -2.2055  0.0231 -1.2505
  871MOL0     H14931   3.962   2.888   4.740  1.9314  0.6727  1.4109
  871MOL0     H14932   3.736   2.745   4.747 -0.4243  1.9100 -2.0422
  871MOL0     H14933   3.721   2.920   4.753 -0.0047 -0.1656 -0.7723
  871MOL0     H14934   3.522   2.797   4.720  3.3508  2.5125  1.3895
  871MOL0     H14935   3.282   2.759   4.738  0.5241  0.1228  0.3214
  871MOL0     H14936   2.933   2.941   5.190  0.5679 -0.4862 -0.1040
  871MOL0     H14937   2.686   2.937   5.192 -0.1873  0.4398 -0.1810
  871MOL0     H14938   2.516   2.562   5.266 -0.5534  0.2993  0.0807
  871MOL0     H14939   2.437   2.577   5.106 -1.0866  1.1967 -0.3320
  871MOL0     H14940   2.325   2.699   5.373 -0.6417 -0.8531  1.1199
  871MOL0     H14941   2.267   2.556   5.295  0.0982  0.2273  0.4162
  871MOL0     H14942   2.239   2.693   5.080 -1.3042  1.5646  0.3841
  871MOL0     H14943   2.294   2.835   5.169  0.0241  0.4111 -3.7041
  871MOL0     H14944   2.108   2.831   5.303  2.8985  3.2985 -2.1588
  871MOL0     H14945   2.055   2.836   5.136 -1.8638 -0.2438  1.2448
  871MOL0     H14946   2.016   2.595   5.313 -1.7447  0.6591  1.6634
  871MOL0     H14947   2.021   2.591   5.136  1.7005  2.9856 -1.3306
  871MOL0     H14948   1.841   2.751   5.116  2.8016 -0.6971 -1.5480
  871MOL0     H14949   1.854   2.791   5.287  0.2843  1.8452 -2.0246
  871MOL0     H14950   1.765   2.533   5.140 -4.9739 -0.7686  0.2348
  871MOL0     H14951   1.789   2.531   5.321  0.0519 -2.1114 -1.1571
  871MOL0     H14952   1.561   2.551   5.263 -1.4652  1.2669  4.2709
  871MOL0     H14953   1.588   2.682   5.154  1.0934 -1.7433 -1.5159
  871MOL0     H14954   2.681   2.530   5.080 -1.6196  1.2061  0.7830
  871MOL0     H14955   2.944   2.535   5.055  0.2452 -1.2487  0.6150
  871MOL0     H14956   3.323   2.781   5.170 -2.2034 -1.1112 -1.2766
  871MOL0     H14957   3.558   2.830   5.133  2.0923 -2.2089 -1.3269
  871MOL0     H14958   3.131   3.224   5.405 -1.3758 -1.4287  1.9606
  871MOL0     H14959   2.894   3.256   5.507  0.4827 -2.4743 -0.7282
  871MOL0     H14960   2.420   3.025   5.390  2.4906  1.0412 -2.8778
  871MOL0     H14961   2.172   3.040   5.407  1.3875 -0.4126 -2.5222
  871MOL0     H14962   1.929   3.132   5.428  1.9408 -0.0179  1.0050
  871MOL0     H14963   2.005   3.250   5.322  0.7626 -1.4351  0.2354
  871MOL0     H14964   1.870   3.428   5.417 -0.0479  0.1073 -2.5527
  871MOL0     H14965   1.774   3.289   5.346  1.6862 -1.1548 -0.1699
  871MOL0     H14966   1.691   3.401   5.580 -0.9837 -1.1116  2.4072
  871MOL0     H14967   1.854   3.344   5.619  0.4068  3.4358 -1.5822
  871MOL0     H14968   1.747   3.098   5.588 -0.6937 -1.1380  0.1623
  871MOL0     H14969   1.654   3.192   5.701 -0.1554 -4.0124  0.1490
  871MOL0     H14970   1.390   3.134   5.382 -0.0852 -1.6556 -0.3789
  871MOL0     H14971   2.222   3.456   5.516  1.1902  0.1036  1.4412
  871MOL0     H14972   2.463   3.443   5.455 -1.5455  0.5243 -1.6005
  872MOL0     O14973   2.598   2.558   2.477 -0.1738  0.4289 -0.4498
  872MOL0     C14974   2.664   2.461   2.436 -0.0659 -1.1698 -0.0182
  872MOL0     O14975   2.632   2.330   2.449  0.1144 -0.7983  0.0975
  872MOL0     C14976   2.526   2.297   2.524 -0.0695  0.0869 -0.0966
  872MOL0     C14977   2.438   2.210   2.465 -0.8160  0.3384 -0.5673
  872MOL0     C14978   2.331   2.164   2.528  0.2351  0.5597 -0.4612
  872MOL0     C14979   2.301   2.207   2.657 -0.3108  0.0967  0.2605
  872MOL0     O14980   2.180   2.153   2.709 -0.5763 -0.3769  0.2223
  872MOL0     C14981   2.137   2.194   2.835 -0.2817 -0.0465 -0.3486
  872MOL0     C14982   2.002   2.125   2.852  0.5570  0.1828 -0.0251
  872MOL0     C14983   1.926   2.163   2.983 -0.4164  0.2507 -0.5496
  872MOL0     C14984   1.783   2.106   2.995 -0.4181 -0.1512  0.1376
  872MOL0     C14985   1.701   2.205   3.078 -0.0354  0.3729  0.0783
  872MOL0     C14986   1.556   2.148   3.109 -0.3445 -0.3527 -0.6136
  872MOL0     C14987   1.456   2.235   3.184 -0.3694 -0.3799 -0.2369
  872MOL0     C14988   1.513   2.280   3.322 -0.1560  0.4076  0.1377
  872MOL0     N14989   1.415   2.364   3.399 -0.6422  0.6817 -0.3484
  872MOL0     C14990   1.335   2.460   3.344 -0.1513 -0.3878 -0.3664
  872MOL0     C14991   1.275   2.518   3.458 -1.3230 -0.3313  0.1016
  872MOL0     C14992   1.179   2.632   3.476  0.1465 -0.2758  0.0710
  872MOL0     C14993   1.054   2.628   3.398 -0.0714  0.5735  0.5835
  872MOL0     C14994   0.959   2.528   3.464  0.0011  0.0494  0.7761
  872MOL0     C14995   0.830   2.524   3.385  0.5152  0.4613 -0.1709
  872MOL0     O14996   0.770   2.654   3.405 -0.1144  0.0620  0.3773
  872MOL0     C14997   0.653   2.660   3.468 -0.2502 -0.1471 -0.4774
  872MOL0     C14998   0.620   2.580   3.579 -0.2676  0.2563 -1.5806
  872MOL0     C14999   0.500   2.606   3.653  0.1954  0.9643 -0.6049
  872MOL0     C15000   0.417   2.712   3.618  0.3958  0.7046  0.0452
  872MOL0     C15001   0.295   2.754   3.696 -0.0595  0.0548 -0.0934
  872MOL0     O15002   0.211   2.847   3.650 -0.2655 -0.4054  0.3312
  872MOL0     C15003   0.121   2.915   3.729  0.1928  0.1665  0.3212
  872MOL0     C15004   0.086   2.897   3.870 -0.0388 -0.9217  0.4242
  872MOL0     C15005  -0.001   2.975   3.939 -0.3953 -1.0311  0.3188
  872MOL0     C15006  -0.068   3.074   3.876 -0.3938  1.1017 -0.2299
  872MOL0     O15007  -0.162   3.156   3.935  0.4927 -0.6276  0.7640
  872MOL0     C15008  -0.191   3.142   4.071  0.0818  0.4334  0.6830
  872MOL0     C15009  -0.326   3.206   4.087  0.2426  0.9664  0.1731
  872MOL0     C15010  -0.382   3.153   4.218 -0.4625 -0.4433  0.1503
  872MOL0     C15011  -0.485   3.252   4.264  0.3820 -0.0515  0.1571
  872MOL0     C15012  -0.616   3.226   4.192  0.2733 -0.1218 -0.5133
  872MOL0     C15013  -0.722   3.167   4.281 -0.3922 -0.2657 -0.2202
  872MOL0     C15014  -0.867   3.145   4.234 -0.3446 -0.4865  0.0316
  872MOL0     C15015  -0.950   3.068   4.336  0.5733 -0.9783 -1.4073
  872MOL0    Cl15016  -0.992   3.186   4.472 -0.1522 -0.4258  0.4736
  872MOL0     C15017  -0.045   3.095   3.736 -0.6473 -0.7223 -0.0628
  872MOL0     C15018   0.042   3.012   3.662 -0.5466  1.3860 -0.5994
  872MOL0     O15019   0.284   2.701   3.806 -1.0606  0.5065 -0.5110
  872MOL0     C15020   0.439   2.789   3.502 -0.1424  0.2216 -0.7633
  872MOL0     C15021   0.561   2.765   3.434 -1.0075  1.0497 -0.1826
  872MOL0     N15022   1.338   2.464   3.572  0.5537 -0.7807  0.1949
  872MOL0     N15023   1.410   2.367   3.538 -1.0433  0.0126  0.0973
  872MOL0     C15024   2.385   2.297   2.719 -0.4488  0.4315 -0.2012
  872MOL0     C15025   2.499   2.338   2.653  0.4468 -0.3093 -0.7637
  872MOL0     C15026   2.786   2.504   2.366 -0.0447  0.2332  0.7590
  872MOL0     C15027   2.831   2.636   2.350 -0.7040 -0.5047 -0.2011
  872MOL0     C15028   2.960   2.667   2.296  1.2818  0.2663  0.6917
  872MOL0     C15029   3.047   2.573   2.243  0.5265  0.6255  0.5330
  872MOL0     O15030   3.171   2.587   2.201 -0.0613  0.0492  0.6748
  872MOL0     C15031   3.212   2.724   2.189  0.5232 -0.9406 -0.4795
  872MOL0     C15032   3.344   2.737   2.120  0.2406  0.7750 -0.1511
  872MOL0     C15033   3.476   2.713   2.200 -0.2313  0.4623 -0.2340
  872MOL0     C15034   3.588   2.668   2.112 -0.4042  0.7292  0.5840
  872MOL0     C15035   3.615   2.773   2.010 -0.0721  0.4539 -0.9730
  872MOL0     C15036   3.656   2.852   1.920 -0.6812 -1.0844 -0.3793
  872MOL0     C15037   2.997   2.450   2.248 -0.0041  1.0400 -0.6413
  872MOL0     C15038   2.874   2.408   2.312 -1.1227  0.3793 -0.1723
  872MOL0     H15039   2.455   2.166   2.367 -0.1607  1.3919 -0.9431
  872MOL0     H15040   2.265   2.098   2.473 -1.4745  0.4656  1.5739
  872MOL0     H15041   2.132   2.302   2.851  0.5460  0.1453 -1.3179
  872MOL0     H15042   2.209   2.151   2.906  1.6451 -0.3137 -2.3420
  872MOL0     H15043   2.020   2.017   2.856  1.8324  0.3806 -0.0397
  872MOL0     H15044   1.934   2.151   2.771 -0.1618 -1.2533  0.0765
  872MOL0     H15045   1.933   2.272   2.985 -1.8319  0.3745 -1.2418
  872MOL0     H15046   1.988   2.133   3.068 -1.8721 -0.5084  0.2707
  872MOL0     H15047   1.735   2.097   2.897 -1.6379 -0.6091  0.7628
  872MOL0     H15048   1.797   2.010   3.046  0.0276 -0.6922 -0.9593
  872MOL0     H15049   1.685   2.291   3.013 -0.4890 -0.4466 -0.9244
  872MOL0     H15050   1.751   2.234   3.171 -1.2730  0.0318  0.8707
  872MOL0     H15051   1.571   2.061   3.174  0.9984 -1.7246 -2.6516
  872MOL0     H15052   1.507   2.109   3.019  2.1665 -2.1929 -1.3112
  872MOL0     H15053   1.434   2.328   3.132 -2.1132  0.0767  1.2435
  872MOL0     H15054   1.363   2.182   3.205 -1.7834  1.2592 -2.0691
  872MOL0     H15055   1.607   2.332   3.303  0.3179 -0.4229  0.1480
  872MOL0     H15056   1.533   2.189   3.380 -0.4514 -1.9893 -3.2429
  872MOL0     H15057   1.301   2.495   3.247 -3.0445  0.2424  0.7700
  872MOL0     H15058   1.226   2.730   3.463 -3.7191  1.6891 -0.3736
  872MOL0     H15059   1.158   2.641   3.583 -0.8987  0.5638 -0.1924
  872MOL0     H15060   1.076   2.599   3.294  0.8933  2.3114  0.2631
  872MOL0     H15061   1.015   2.730   3.391  0.8027  0.8134 -1.6661
  872MOL0     H15062   0.993   2.424   3.456 -0.1348  0.1314 -1.6953
  872MOL0     H15063   0.938   2.541   3.570 -2.5186 -3.4048  0.8755
  872MOL0     H15064   0.770   2.441   3.425  0.3105 -0.3770 -2.0994
  872MOL0     H15065   0.849   2.498   3.281 -0.3332 -0.5190 -0.0969
  872MOL0     H15066   0.690   2.503   3.612  0.3723  1.4082 -0.1408
  872MOL0     H15067   0.477   2.536   3.733 -2.7279  1.6939 -0.6966
  872MOL0     H15068   0.134   2.824   3.934  1.4354 -0.1595  0.2552
  872MOL0     H15069  -0.002   2.969   4.047 -1.5682  0.3395  0.4152
  872MOL0     H15070  -0.118   3.184   4.141  1.3029  1.2959 -1.0339
  872MOL0     H15071  -0.193   3.035   4.096  1.2147 -0.3047 -2.0668
  872MOL0     H15072  -0.391   3.190   4.000  0.3997  0.7042  0.1037
  872MOL0     H15073  -0.298   3.311   4.092  0.7110  0.7909  2.3953
  872MOL0     H15074  -0.306   3.158   4.297 -1.8762  1.9483  1.4782
  872MOL0     H15075  -0.410   3.047   4.212  1.1910 -0.8779 -0.4078
  872MOL0     H15076  -0.487   3.234   4.372  0.3276 -1.5320 -0.0754
  872MOL0     H15077  -0.451   3.355   4.252  0.3771 -0.2462 -1.9618
  872MOL0     H15078  -0.605   3.158   4.107  3.2122 -0.6915  0.2202
  872MOL0     H15079  -0.655   3.319   4.149 -0.7302 -0.3359 -0.0978
  872MOL0     H15080  -0.736   3.243   4.358  2.0609 -1.8638  1.9594
  872MOL0     H15081  -0.691   3.072   4.326  0.5715  0.1848  0.0855
  872MOL0     H15082  -0.903   3.246   4.215  2.1513  0.2463 -1.2417
  872MOL0     H15083  -0.867   3.095   4.136  0.4885  1.5130 -1.0417
  872MOL0     H15084  -0.890   2.988   4.380  0.1705  0.9887  3.2297
  872MOL0     H15085  -1.033   3.019   4.284  1.0599 -0.7924 -2.4017
  872MOL0     H15086  -0.102   3.173   3.687 -0.2390 -1.2661 -1.4501
  872MOL0     H15087   0.050   3.028   3.555 -2.5862  1.7284 -0.7374
  872MOL0     H15088   0.369   2.867   3.474 -0.7379  0.8953  2.2876
  872MOL0     H15089   0.591   2.828   3.350 -3.1416 -0.2942 -2.0558
  872MOL0     H15090   2.362   2.330   2.820  1.4320  0.6214  0.2032
  872MOL0     H15091   2.562   2.410   2.703  1.4057 -0.8191 -1.2150
  872MOL0     H15092   2.776   2.717   2.397  0.2681  0.0324  0.0271
  872MOL0     H15093   2.982   2.773   2.288 -3.5392  1.5032  0.6078
  872MOL0     H15094   3.204   2.769   2.288 -0.9230  2.6354 -2.0683
  872MOL0     H15095   3.132   2.765   2.126 -0.3561 -2.5473 -0.4771
  872MOL0     H15096   3.343   2.672   2.032  1.5655  0.4217  0.0702
  872MOL0     H15097   3.360   2.840   2.086 -0.6973  1.2824  0.8692
  872MOL0     H15098   3.457   2.637   2.276  0.0178  1.1074  0.4888
  872MOL0     H15099   3.510   2.801   2.255  0.8212 -1.8712  3.2154
  872MOL0     H15100   3.677   2.653   2.175  0.6580  3.3529 -0.1677
  872MOL0     H15101   3.564   2.573   2.065 -2.2294  1.4024  0.0816
  872MOL0     H15102   3.684   2.922   1.845 -0.1182  2.1947  2.6215
  872MOL0     H15103   3.060   2.374   2.204  2.9841  1.9013  1.8314
  872MOL0     H15104   2.869   2.300   2.319 -1.8610  0.4492  0.4839
  873MOL0     O15105   0.062  10.298   6.276 -0.4195  0.5231 -0.0135
  873MOL0     C15106   0.155  10.375   6.255  0.3860 -0.2045  0.7596
  873MOL0     O15107   0.147  10.481   6.167  0.0811 -0.3250  0.6404
  873MOL0     C15108   0.033  10.498   6.093 -0.0515 -0.7080  0.2473
  873MOL0     C15109  -0.099  10.507   6.138 -0.0629  0.3198 -0.1315
  873MOL0     C15110  -0.206  10.495   6.046 -0.2793  0.2607  0.4901
  873MOL0     C15111  -0.181  10.496   5.907 -0.5201 -0.0274 -0.6505
  873MOL0     O15112  -0.279  10.486   5.811 -0.5629 -0.1351 -0.0017
  873MOL0     C15113  -0.418  10.456   5.838 -0.5200 -0.3112 -0.0908
  873MOL0     C15114  -0.478  10.595   5.851  0.2803 -0.6088  0.5172
  873MOL0     C15115  -0.630  10.583   5.888  0.6733 -0.0945 -0.0187
  873MOL0     C15116  -0.709  10.710   5.873  0.4196  0.1844  0.4081
  873MOL0     C15117  -0.850  10.686   5.909 -1.0285  0.2274 -0.4597
  873MOL0     C15118  -0.909  10.825   5.918 -0.2339 -0.2967  0.2163
  873MOL0     C15119  -1.053  10.813   5.967 -0.2708 -0.7508  0.2959
  873MOL0     C15120  -1.126  10.949   5.952 -0.6372 -1.1759 -0.1150
  873MOL0     N15121  -1.262  10.934   6.010 -0.2495 -0.3061  0.7793
  873MOL0     C15122  -1.357  10.839   5.988  0.0717 -0.2061  0.7934
  873MOL0     C15123  -1.469  10.889   6.052 -0.3037  0.3604  0.5503
  873MOL0     C15124  -1.605  10.822   6.074 -0.4455  0.6478  0.2067
  873MOL0     C15125  -1.705  10.860   5.968 -0.5436 -0.8342  0.1728
  873MOL0     C15126  -1.829  10.774   5.973  0.4366  0.0896  0.1619
  873MOL0     C15127  -1.931  10.829   5.872 -0.3517  0.3271  0.4864
  873MOL0     O15128  -2.054  10.751   5.876 -0.7681 -0.2749 -0.1145
  873MOL0     C15129  -2.165  10.807   5.803  0.3928  0.4184  0.6216
  873MOL0     C15130  -2.163  10.922   5.730 -0.8216  0.8610  0.4441
  873MOL0     C15131  -2.278  10.954   5.647 -0.3535  0.7832 -0.1818
  873MOL0     C15132  -2.388  10.875   5.649 -0.5537 -0.2289 -0.3670
  873MOL0     C15133  -2.493  10.897   5.553  0.0006  0.0547  0.5112
  873MOL0     O15134  -2.617  10.841   5.584 -0.9898  0.1381 -0.1043
  873MOL0     C15135  -2.707  10.858   5.491  0.0753 -0.0226  0.8156
  873MOL0     C15136  -2.729  10.767   5.381 -0.4290 -0.6844  0.3853
  873MOL0     C15137  -2.850  10.781   5.303  0.8725  0.3166 -0.0697
  873MOL0     C15138  -2.940  10.891   5.329 -0.4623 -0.2123  0.9677
  873MOL0     O15139  -3.029  10.910   5.224  0.1030 -0.0627  0.3112
  873MOL0     C15140  -3.148  10.995   5.248 -0.4927 -0.3335  0.3930
  873MOL0     C15141  -3.259  10.959   5.155 -0.2847  0.3046  0.1696
  873MOL0     C15142  -3.387  11.029   5.183  1.3830  0.1862 -0.7256
  873MOL0     C15143  -3.479  11.023   5.057 -0.8982 -0.6912  0.2860
  873MOL0     C15144  -3.618  11.085   5.080 -0.6746  0.0575 -0.0130
  873MOL0     C15145  -3.693  11.079   4.946 -0.6986 -0.2016 -0.1991
  873MOL0     C15146  -3.849  11.100   4.977 -0.0858  0.0958  1.0736
  873MOL0     C15147  -3.926  11.101   4.838  0.1153  0.1973  0.1600
  873MOL0    Cl15148  -4.105  11.076   4.868  0.1127  0.5791 -0.3387
  873MOL0     C15149  -2.903  10.978   5.424 -0.6079 -0.9453 -0.3498
  873MOL0     C15150  -2.799  10.959   5.521 -0.1773  0.3742 -0.1768
  873MOL0     O15151  -2.468  10.952   5.449 -0.2885 -0.0657  0.7817
  873MOL0     C15152  -2.391  10.762   5.736 -0.3581 -0.4963 -0.2769
  873MOL0     C15153  -2.282  10.737   5.815 -0.2219 -0.1685 -0.1258
  873MOL0     N15154  -1.443  11.021   6.095  0.3279  0.7016  0.0773
  873MOL0     N15155  -1.318  11.045   6.069  0.7363  0.7978 -0.2790
  873MOL0     C15156  -0.049  10.513   5.858  0.3631 -0.2988  1.0026
  873MOL0     C15157   0.057  10.495   5.955  0.2833  0.0198 -0.0546
  873MOL0     C15158   0.277  10.364   6.338 -0.2680 -0.0553 -0.4685
  873MOL0     C15159   0.300  10.256   6.417 -0.5881  0.9326 -0.1004
  873MOL0     C15160   0.414  10.250   6.498 -0.2672  0.0661 -0.9024
  873MOL0     C15161   0.513  10.352   6.497  0.4451  0.0330  0.1018
  873MOL0     O15162   0.611  10.354   6.582  0.0862  0.0201 -0.1102
  873MOL0     C15163   0.698  10.243   6.572  0.6784 -0.3064 -0.1081
  873MOL0     C15164   0.808  10.311   6.492 -0.8994 -0.3560  0.2527
  873MOL0     C15165   0.927  10.222   6.492  0.1295 -0.0811  0.6291
  873MOL0     C15166   1.052  10.296   6.431 -0.1216  0.7680  0.0765
  873MOL0     C15167   1.156  10.194   6.449  0.1704 -0.8202 -0.8829
  873MOL0     C15168   1.228  10.100   6.438 -0.1150  0.6034 -0.3856
  873MOL0     C15169   0.490  10.461   6.409 -0.9085 -0.6112  0.1039
  873MOL0     C15170   0.373  10.468   6.334  0.2480 -0.9615 -0.6489
  873MOL0     H15171  -0.119  10.518   6.244 -0.9841  1.4095 -0.4095
  873MOL0     H15172  -0.311  10.503   6.076 -0.3812  0.2356  0.1442
  873MOL0     H15173  -0.433  10.395   5.928 -0.8305 -0.3733 -0.1850
  873MOL0     H15174  -0.456  10.414   5.745  1.0237  0.7624 -1.2631
  873MOL0     H15175  -0.471  10.631   5.748  1.0350 -2.1314 -0.0001
  873MOL0     H15176  -0.427  10.657   5.926 -0.3242 -1.1959  1.4334
  873MOL0     H15177  -0.648  10.542   5.988 -1.2155 -1.3103 -0.7955
  873MOL0     H15178  -0.679  10.509   5.825 -0.9280 -0.2067  1.2757
  873MOL0     H15179  -0.664  10.781   5.944  0.2336  1.8711 -1.0820
  873MOL0     H15180  -0.701  10.756   5.774 -0.7542 -2.3575 -0.9439
  873MOL0     H15181  -0.852  10.633   6.004  2.5584 -2.2213 -1.5457
  873MOL0     H15182  -0.905  10.620   5.842  0.2908 -0.7108 -0.6574
  873MOL0     H15183  -0.906  10.857   5.814 -1.3720 -1.2091 -0.1153
  873MOL0     H15184  -0.847  10.885   5.986  0.6375 -2.1976  1.1956
  873MOL0     H15185  -1.117  10.743   5.912 -0.6739 -0.2999  0.1830
  873MOL0     H15186  -1.039  10.778   6.069  1.5317  0.3547  0.4735
  873MOL0     H15187  -1.142  10.966   5.845 -1.4362 -1.4029 -0.0359
  873MOL0     H15188  -1.078  11.034   6.001 -1.8220 -1.0631  0.8882
  873MOL0     H15189  -1.340  10.753   5.924  0.6511  2.3899 -2.8518
  873MOL0     H15190  -1.645  10.844   6.174  0.5228  0.6883  0.5971
  873MOL0     H15191  -1.580  10.715   6.075  2.8649  1.2651  2.4502
  873MOL0     H15192  -1.661  10.841   5.869 -2.5088 -0.2542 -0.8523
  873MOL0     H15193  -1.739  10.963   5.972  0.0859 -0.4580 -2.3009
  873MOL0     H15194  -1.795  10.673   5.948  3.2966  1.3151 -1.3263
  873MOL0     H15195  -1.877  10.763   6.071 -0.2501 -0.5786 -0.2358
  873MOL0     H15196  -1.884  10.826   5.773  0.9238 -0.2122  1.0851
  873MOL0     H15197  -1.964  10.931   5.894 -0.8199  0.7628 -2.0113
  873MOL0     H15198  -2.076  10.984   5.712 -2.3143  2.5490 -1.4404
  873MOL0     H15199  -2.266  11.033   5.574  1.9567 -0.2013 -0.9659
  873MOL0     H15200  -2.672  10.675   5.378 -3.2040 -2.5094  0.2316
  873MOL0     H15201  -2.881  10.714   5.224 -1.9350  2.3158 -0.8320
  873MOL0     H15202  -3.113  11.096   5.224 -1.1265 -0.3577 -0.6985
  873MOL0     H15203  -3.176  10.977   5.352 -2.1115 -3.9374 -0.5126
  873MOL0     H15204  -3.284  10.852   5.158 -2.6481  0.8171  1.7280
  873MOL0     H15205  -3.226  10.978   5.052  0.7149  0.0951  0.4416
  873MOL0     H15206  -3.357  11.133   5.198 -2.4851  1.4496 -0.5943
  873MOL0     H15207  -3.430  11.000   5.279  2.7641  4.9718  1.6339
  873MOL0     H15208  -3.426  11.071   4.974  2.8603  0.5995  3.1495
  873MOL0     H15209  -3.495  10.917   5.038  1.8603 -1.3100  1.0341
  873MOL0     H15210  -3.615  11.179   5.136  1.3610  0.2690 -0.4120
  873MOL0     H15211  -3.667  11.018   5.151 -0.1181  0.9242  1.2408
  873MOL0     H15212  -3.674  10.983   4.897 -2.1736  0.8254 -2.9479
  873MOL0     H15213  -3.654  11.165   4.891  1.4206 -0.2813  1.0685
  873MOL0     H15214  -3.883  11.011   5.032  1.0962  0.4482  2.4408
  873MOL0     H15215  -3.885  11.187   5.033 -1.7400 -0.0380  0.2717
  873MOL0     H15216  -3.879  11.030   4.770 -0.9960  0.5234 -0.9841
  873MOL0     H15217  -3.906  11.198   4.792  0.8651 -0.1597 -0.2812
  873MOL0     H15218  -2.968  11.063   5.442 -3.0461 -2.9685  1.0410
  873MOL0     H15219  -2.778  11.032   5.599 -1.3335 -0.2277  0.7218
  873MOL0     H15220  -2.468  10.688   5.752  0.1729 -0.6785  1.7299
  873MOL0     H15221  -2.289  10.657   5.888 -2.6680  0.1960  0.1256
  873MOL0     H15222  -0.018  10.526   5.754  1.8737  0.2850  1.4942
  873MOL0     H15223   0.159  10.497   5.918 -0.4882  2.1873 -2.3270
  873MOL0     H15224   0.234  10.170   6.431  0.1278  0.5908  1.4088
  873MOL0     H15225   0.423  10.167   6.568  2.8564  0.7876 -0.2740
  873MOL0     H15226   0.657  10.159   6.517 -2.3867  1.0677 -0.1104
  873MOL0     H15227   0.733  10.219   6.673  0.5207 -0.9234 -0.1990
  873MOL0     H15228   0.773  10.337   6.392 -0.6818  1.6890  0.6583
  873MOL0     H15229   0.841  10.399   6.549 -1.3932 -1.3006  2.0662
  873MOL0     H15230   0.895  10.140   6.428  0.3019  0.9858 -0.8842
  873MOL0     H15231   0.955  10.180   6.589 -0.2319  1.5092  1.4730
  873MOL0     H15232   1.037  10.325   6.327 -0.1765  0.8288  0.1004
  873MOL0     H15233   1.074  10.384   6.492 -0.4215  0.6147  0.4085
  873MOL0     H15234   1.301  10.022   6.439 -0.4728  0.2267  1.8053
  873MOL0     H15235   0.564  10.541   6.404 -0.1237 -1.1567  2.0079
  873MOL0     H15236   0.354  10.555   6.272 -1.2319 -1.6295 -1.1905
  874MOL0     O15237   9.513   0.268   3.923 -0.6014 -0.1138  0.9550
  874MOL0     C15238   9.589   0.196   3.851 -0.1235 -0.3464 -0.1246
  874MOL0     O15239   9.565   0.149   3.722 -0.0385 -0.2798 -0.3002
  874MOL0     C15240   9.483   0.214   3.632  0.5769  0.6093  0.0539
  874MOL0     C15241   9.527   0.199   3.493  0.5256 -0.7273  0.9996
  874MOL0     C15242   9.438   0.256   3.394  0.1326  0.2331  0.0160
  874MOL0     C15243   9.313   0.319   3.422 -0.2068 -0.0728  1.0317
  874MOL0     O15244   9.252   0.378   3.322  0.2803 -0.0507  0.1831
  874MOL0     C15245   9.111   0.368   3.308  0.0191  0.8050  0.4736
  874MOL0     C15246   9.088   0.420   3.164  0.0198  0.1182 -0.4474
  874MOL0     C15247   8.949   0.383   3.114 -0.0280 -0.0597 -0.0278
  874MOL0     C15248   8.911   0.465   2.988 -0.0516  0.0566 -0.0206
  874MOL0     C15249   8.773   0.414   2.928 -0.9035 -0.0829 -0.8670
  874MOL0     C15250   8.754   0.474   2.791 -0.0622 -0.3999  0.9960
  874MOL0     C15251   8.611   0.452   2.738 -0.1286 -1.1466  0.7542
  874MOL0     C15252   8.504   0.547   2.791  0.4077 -0.4949 -0.3410
  874MOL0     N15253   8.369   0.507   2.754 -0.2628  0.2995  0.4484
  874MOL0     C15254   8.314   0.510   2.630  0.2143 -0.0015 -0.5796
  874MOL0     C15255   8.182   0.467   2.642 -0.2252 -0.0787  0.5764
  874MOL0     C15256   8.083   0.430   2.532  0.2813 -0.5992  0.5056
  874MOL0     C15257   8.088   0.276   2.490 -0.4676 -0.7910  0.1354
  874MOL0     C15258   8.007   0.241   2.372 -0.0928  0.8038  0.3807
  874MOL0     C15259   7.945   0.098   2.384  0.8501  0.0246 -0.1831
  874MOL0     O15260   7.853   0.073   2.270 -0.2243 -0.4462 -0.3686
  874MOL0     C15261   7.725   0.107   2.271  0.2133  0.8249 -0.3259
  874MOL0     C15262   7.635   0.055   2.173  0.1056  0.2831 -0.6007
  874MOL0     C15263   7.503   0.097   2.170  0.4440  0.2198  0.0603
  874MOL0     C15264   7.448   0.195   2.248 -0.0631 -0.0944  0.8655
  874MOL0     C15265   7.310   0.239   2.238  0.3987  0.0755  0.1251
  874MOL0     O15266   7.229   0.180   2.142  0.0970 -0.2009 -0.2231
  874MOL0     C15267   7.103   0.215   2.124 -0.8064  0.4674  0.5856
  874MOL0     C15268   6.999   0.190   2.218 -0.3581 -0.4722 -0.4317
  874MOL0     C15269   6.858   0.213   2.190 -0.3303  0.2334  0.5718
  874MOL0     C15270   6.818   0.272   2.068 -0.1970  0.3495 -0.1130
  874MOL0     O15271   6.686   0.274   2.028  0.2760 -0.2185  0.3931
  874MOL0     C15272   6.592   0.282   2.134 -0.5932  0.2049 -0.4008
  874MOL0     C15273   6.471   0.372   2.084 -0.5163  0.3025  0.2892
  874MOL0     C15274   6.343   0.353   2.164  0.2437 -0.2619  0.3519
  874MOL0     C15275   6.239   0.458   2.136  0.0322  0.8235 -1.0981
  874MOL0     C15276   6.097   0.430   2.202  0.3832 -0.1869  0.1070
  874MOL0     C15277   5.980   0.514   2.140 -0.4371  0.8275 -0.3682
  874MOL0     C15278   5.838   0.462   2.178 -0.1733 -0.4141 -1.3590
  874MOL0     C15279   5.822   0.461   2.331 -0.3518 -0.9092 -0.6870
  874MOL0    Cl15280   5.850   0.620   2.418  0.0870 -0.0795 -0.0426
  874MOL0     C15281   6.917   0.313   1.985 -0.2842 -1.0441  0.1688
  874MOL0     C15282   7.061   0.281   2.003  0.3205 -0.6350 -0.8836
  874MOL0     O15283   7.277   0.315   2.323  0.6289 -0.1351 -0.0559
  874MOL0     C15284   7.540   0.255   2.338  0.3849 -0.1536  1.0240
  874MOL0     C15285   7.668   0.203   2.347 -1.6560 -0.8768 -0.1295
  874MOL0     N15286   8.161   0.436   2.770  0.2494 -0.4837 -0.1382
  874MOL0     N15287   8.271   0.464   2.833  0.1070 -0.3602 -0.1349
  874MOL0     C15288   9.283   0.325   3.556 -0.7034  0.4139  0.2321
  874MOL0     C15289   9.362   0.280   3.661 -0.0592 -0.0659  0.7181
  874MOL0     C15290   9.706   0.152   3.921 -0.0223  0.1549  0.0333
  874MOL0     C15291   9.813   0.090   3.847  0.2206  0.8556  0.1076
  874MOL0     C15292   9.928   0.046   3.916 -0.1232 -0.7947  0.3648
  874MOL0     C15293   9.936   0.079   4.053  0.7495  0.4761  0.1869
  874MOL0     O15294  10.057   0.043   4.109  0.7894  0.0549 -0.9939
  874MOL0     C15295  10.048  -0.093   4.151  0.1515  0.0240 -0.2395
  874MOL0     C15296  10.049  -0.076   4.303 -0.3346 -0.2770 -0.2943
  874MOL0     C15297  10.189  -0.027   4.362  0.1355  0.6158  0.3475
  874MOL0     C15298  10.188  -0.049   4.515 -0.0288 -0.6532  0.3005
  874MOL0     C15299  10.093   0.040   4.583  0.4736  0.4432  0.2350
  874MOL0     C15300  10.012   0.125   4.627  0.8909  0.1504 -0.5321
  874MOL0     C15301   9.846   0.154   4.123 -0.1279 -0.5364 -0.8865
  874MOL0     C15302   9.723   0.181   4.057  0.6398 -0.6023  0.4332
  874MOL0     H15303   9.622   0.152   3.472 -0.0598 -1.1183 -1.0094
  874MOL0     H15304   9.466   0.252   3.289 -1.0397  1.6460 -0.3849
  874MOL0     H15305   9.058   0.433   3.378  0.6091  1.9323 -0.0994
  874MOL0     H15306   9.077   0.267   3.332 -0.6821  1.2516  1.4162
  874MOL0     H15307   9.159   0.377   3.093 -0.3803 -0.5328 -0.4628
  874MOL0     H15308   9.109   0.527   3.170  1.4616 -0.1971  0.7478
  874MOL0     H15309   8.883   0.399   3.200  0.9583  0.0846  0.7176
  874MOL0     H15310   8.952   0.278   3.085  2.1636 -0.2053  0.5058
  874MOL0     H15311   8.914   0.572   3.012  1.1638  0.7617 -2.9051
  874MOL0     H15312   8.986   0.444   2.911 -2.7120 -0.2951 -2.6784
  874MOL0     H15313   8.697   0.452   2.997 -0.6746  1.6725 -1.5549
  874MOL0     H15314   8.772   0.304   2.934  0.9704 -0.0667  0.7285
  874MOL0     H15315   8.826   0.432   2.719 -0.7433  0.6503 -0.3342
  874MOL0     H15316   8.775   0.581   2.792  0.5500 -0.2923 -3.3056
  874MOL0     H15317   8.624   0.457   2.629  0.3593  2.4325  0.8583
  874MOL0     H15318   8.569   0.353   2.759 -0.7257 -1.1533 -0.3844
  874MOL0     H15319   8.528   0.645   2.751  0.6317 -0.4892 -0.1913
  874MOL0     H15320   8.504   0.564   2.899 -0.5917 -0.1622 -0.3757
  874MOL0     H15321   8.368   0.536   2.539 -2.6593 -0.3276 -2.4957
  874MOL0     H15322   8.103   0.488   2.441  0.3297 -2.4812 -0.7386
  874MOL0     H15323   7.986   0.443   2.581  1.3213 -1.0897  2.8282
  874MOL0     H15324   8.046   0.224   2.577  0.5159  0.1778  1.2379
  874MOL0     H15325   8.192   0.245   2.474  0.1985  2.1532 -1.9275
  874MOL0     H15326   7.923   0.311   2.369  0.5964  1.9546  3.9679
  874MOL0     H15327   8.063   0.265   2.281 -1.8357  3.1295 -0.1861
  874MOL0     H15328   7.899   0.088   2.483  1.5974  1.1495  0.2994
  874MOL0     H15329   8.025   0.024   2.382  1.4112  0.6229 -0.7372
  874MOL0     H15330   7.674  -0.017   2.101 -1.8767 -0.5152 -0.9270
  874MOL0     H15331   7.441   0.050   2.094  1.1906  0.3528 -0.6506
  874MOL0     H15332   7.023   0.137   2.309  4.3886 -3.1559 -2.8694
  874MOL0     H15333   6.789   0.173   2.263  1.3547 -2.2226  0.9278
  874MOL0     H15334   6.621   0.337   2.224 -0.0173  2.6951 -2.0140
  874MOL0     H15335   6.558   0.182   2.160  1.1122 -0.8246 -1.9028
  874MOL0     H15336   6.447   0.341   1.981 -2.5215  0.8859  0.5289
  874MOL0     H15337   6.512   0.473   2.091 -1.2768  0.8440 -2.0927
  874MOL0     H15338   6.377   0.355   2.268  0.9293  0.4141  0.1278
  874MOL0     H15339   6.299   0.260   2.130 -0.1699  1.2114 -3.6888
  874MOL0     H15340   6.266   0.560   2.162  0.2048  0.9117 -1.6009
  874MOL0     H15341   6.231   0.474   2.028 -1.4358  3.5285 -0.6610
  874MOL0     H15342   6.088   0.435   2.311 -1.9255  3.3871 -0.0832
  874MOL0     H15343   6.075   0.325   2.179 -0.4712 -0.0326  0.1883
  874MOL0     H15344   5.983   0.504   2.031 -2.7084 -2.2839 -0.2842
  874MOL0     H15345   5.987   0.621   2.164 -0.7277  0.9667 -0.8892
  874MOL0     H15346   5.777   0.535   2.123  1.4379  1.3699 -0.8896
  874MOL0     H15347   5.823   0.364   2.133 -0.7180 -0.9089 -0.1204
  874MOL0     H15348   5.889   0.387   2.378  0.9826  0.0952 -0.9574
  874MOL0     H15349   5.721   0.430   2.357 -1.9820  1.6832 -3.3205
  874MOL0     H15350   6.888   0.377   1.901  0.3318  1.1545  1.5461
  874MOL0     H15351   7.134   0.311   1.929  2.0419 -0.6026  0.7458
  874MOL0     H15352   7.510   0.338   2.402 -1.4864 -1.0200  1.3344
  874MOL0     H15353   7.727   0.258   2.420 -1.8325 -0.2223 -0.4695
  874MOL0     H15354   9.182   0.349   3.585 -0.2273  1.1552  1.3421
  874MOL0     H15355   9.329   0.288   3.764 -0.1280  1.3797  0.6016
  874MOL0     H15356   9.802   0.058   3.744  0.5308 -2.7340  1.0681
  874MOL0     H15357  10.003  -0.009   3.860  0.9220  1.4920 -0.5936
  874MOL0     H15358  10.137  -0.151   4.126 -1.6785 -3.1230  0.0239
  874MOL0     H15359   9.964  -0.157   4.120 -0.3040  0.5407 -0.0948
  874MOL0     H15360   9.969  -0.008   4.334 -0.0278  0.8477 -1.9021
  874MOL0     H15361  10.016  -0.171   4.347  1.1156 -0.5632  0.2251
  874MOL0     H15362  10.214   0.076   4.336  0.1672 -0.0319 -2.4248
  874MOL0     H15363  10.266  -0.097   4.327  0.8960 -0.3838  3.6506
  874MOL0     H15364  10.165  -0.151   4.547  1.1931 -0.1489  3.0730
  874MOL0     H15365  10.286  -0.027   4.559  0.2274  0.4311 -0.7490
  874MOL0     H15366   9.956   0.198   4.681 -0.9023 -2.7151  1.8288
  874MOL0     H15367   9.880   0.189   4.220 -2.3475  2.1265 -0.9237
  874MOL0     H15368   9.655   0.243   4.115  0.2553 -2.9423  2.6649
  875MOL0     O15369   6.354   4.338   4.593 -0.3592 -0.2490 -0.6684
  875MOL0     C15370   6.393   4.231   4.549 -0.1887 -0.8678 -0.4055
  875MOL0     O15371   6.317   4.135   4.487 -0.7946 -0.1792  0.1555
  875MOL0     C15372   6.181   4.129   4.490  0.4360  0.3485 -0.3413
  875MOL0     C15373   6.096   4.218   4.558 -0.3423  0.1709  0.6329
  875MOL0     C15374   5.960   4.187   4.570  0.1411  0.0213  0.5432
  875MOL0     C15375   5.905   4.081   4.497  1.0335 -0.2799  0.2864
  875MOL0     O15376   5.768   4.056   4.493 -0.1243 -0.3705 -0.1177
  875MOL0     C15377   5.698   4.023   4.616  0.0604 -1.1529 -0.3134
  875MOL0     C15378   5.550   4.042   4.615  1.0732  0.6594  0.1680
  875MOL0     C15379   5.467   3.917   4.579 -0.9915  0.1465  0.4681
  875MOL0     C15380   5.317   3.932   4.561  0.5238 -0.1936  0.0359
  875MOL0     C15381   5.270   3.801   4.499  0.4682  0.1603  0.4363
  875MOL0     C15382   5.124   3.810   4.468  0.7255  0.3070  0.8407
  875MOL0     C15383   5.085   3.688   4.382 -0.0268 -0.6940 -0.2602
  875MOL0     C15384   4.940   3.694   4.333 -0.2110 -0.5526  0.2639
  875MOL0     N15385   4.844   3.716   4.449 -0.6249  0.9787  0.0586
  875MOL0     C15386   4.823   3.624   4.553 -0.4413  0.3177  0.9772
  875MOL0     C15387   4.739   3.695   4.633  0.0722 -0.4749  0.3886
  875MOL0     C15388   4.676   3.636   4.759  0.9875  0.4706 -0.2802
  875MOL0     C15389   4.556   3.542   4.720 -0.4827 -0.2715  0.2788
  875MOL0     C15390   4.506   3.459   4.837  0.0824  0.1754  1.0206
  875MOL0     C15391   4.384   3.389   4.797 -0.4248 -0.1032  0.1857
  875MOL0     O15392   4.272   3.482   4.767  0.2861  0.8540 -0.0964
  875MOL0     C15393   4.145   3.420   4.731 -1.4717  0.2061 -0.2881
  875MOL0     C15394   4.138   3.287   4.700  0.6864  0.2016 -0.5788
  875MOL0     C15395   4.018   3.225   4.659 -0.2236 -0.1102  0.0548
  875MOL0     C15396   3.901   3.312   4.652 -0.5233 -0.3240 -0.4298
  875MOL0     C15397   3.766   3.250   4.614 -0.6158 -0.3946 -0.4641
  875MOL0     O15398   3.654   3.329   4.584  0.6734 -0.3650  0.0443
  875MOL0     C15399   3.523   3.293   4.599 -0.2691 -0.0917  0.6197
  875MOL0     C15400   3.478   3.179   4.666 -0.3196  0.1669  0.0732
  875MOL0     C15401   3.347   3.142   4.675  0.2882  0.2884  0.6019
  875MOL0     C15402   3.246   3.224   4.608  0.0175 -0.9619  0.2991
  875MOL0     O15403   3.112   3.186   4.618  0.2401  0.3638 -0.0143
  875MOL0     C15404   3.018   3.272   4.553 -1.1479 -0.0010  0.3349
  875MOL0     C15405   2.888   3.230   4.597 -0.0086  0.3030  0.0400
  875MOL0     C15406   2.780   3.303   4.526  0.8950  0.5555  0.7141
  875MOL0     C15407   2.644   3.250   4.564  0.4783 -0.3280 -0.5682
  875MOL0     C15408   2.544   3.327   4.485 -0.5400  0.1768 -0.1277
  875MOL0     C15409   2.407   3.271   4.497  0.5314  0.9759 -0.5090
  875MOL0     C15410   2.298   3.377   4.475  0.0202 -0.3670 -0.2061
  875MOL0     C15411   2.228   3.414   4.613  1.3247 -0.0738 -0.0396
  875MOL0    Cl15412   2.123   3.287   4.685  0.3734  0.3942 -0.7070
  875MOL0     C15413   3.295   3.330   4.530  0.4223  0.5819 -0.2262
  875MOL0     C15414   3.428   3.368   4.520  0.2604  1.0264  0.6749
  875MOL0     O15415   3.776   3.125   4.587  0.4832 -0.9932 -0.3854
  875MOL0     C15416   3.911   3.447   4.693 -1.0221 -0.0233 -0.4497
  875MOL0     C15417   4.032   3.495   4.722 -0.3683 -1.0964 -0.3153
  875MOL0     N15418   4.715   3.822   4.581 -0.5383  0.6617 -0.1827
  875MOL0     N15419   4.789   3.837   4.473 -0.1148 -0.5708  0.3931
  875MOL0     C15420   5.985   4.012   4.406  0.5523  0.2721 -0.6497
  875MOL0     C15421   6.128   4.026   4.411  0.3593 -0.2299 -0.4039
  875MOL0     C15422   6.530   4.191   4.548  0.0066  0.2065  0.0254
  875MOL0     C15423   6.587   4.086   4.473 -0.1104 -0.3024 -0.2827
  875MOL0     C15424   6.725   4.064   4.465 -0.3693  0.5619  0.6303
  875MOL0     C15425   6.816   4.145   4.540 -0.0617  0.1404 -0.1213
  875MOL0     O15426   6.954   4.141   4.521  0.3845 -0.1578 -0.3326
  875MOL0     C15427   6.995   4.208   4.400  0.6989 -0.3304 -0.1619
  875MOL0     C15428   7.021   4.360   4.422  0.0348  0.2490  0.4270
  875MOL0     C15429   7.110   4.392   4.543 -0.0097 -0.7077 -0.0176
  875MOL0     C15430   7.187   4.529   4.520 -0.3999  0.5964 -0.0335
  875MOL0     C15431   7.303   4.542   4.612  0.8158 -0.3068  0.4680
  875MOL0     C15432   7.399   4.527   4.681 -0.5168 -0.8628 -0.1909
  875MOL0     C15433   6.760   4.241   4.621  0.3507 -0.6174 -0.8780
  875MOL0     C15434   6.621   4.263   4.632  0.3025  0.6093 -0.3681
  875MOL0     H15435   6.122   4.315   4.598 -0.6997 -0.2010  1.8211
  875MOL0     H15436   5.908   4.250   4.642  0.1386  2.4435 -1.4799
  875MOL0     H15437   5.723   4.096   4.693 -0.6567 -1.6613  0.4166
  875MOL0     H15438   5.713   3.919   4.645 -0.7930 -1.6897 -1.6668
  875MOL0     H15439   5.516   4.115   4.541 -3.3564  0.0840  1.3610
  875MOL0     H15440   5.526   4.082   4.714  1.2809  0.3216  0.3552
  875MOL0     H15441   5.474   3.843   4.659 -2.9563 -1.4780 -0.7700
  875MOL0     H15442   5.513   3.874   4.490 -2.0313 -0.8653  0.3896
  875MOL0     H15443   5.268   3.957   4.656 -0.5903  0.0778 -0.5842
  875MOL0     H15444   5.303   4.021   4.499  1.2859  0.1866  0.3985
  875MOL0     H15445   5.288   3.721   4.572 -1.0514 -2.4067 -1.8079
  875MOL0     H15446   5.327   3.767   4.411  2.4071  1.9734  0.9253
  875MOL0     H15447   5.094   3.905   4.421  0.9542  1.3003  2.6348
  875MOL0     H15448   5.069   3.804   4.562 -0.6045 -0.3079  0.0527
  875MOL0     H15449   5.142   3.677   4.290  0.0070  1.8227 -0.6193
  875MOL0     H15450   5.099   3.598   4.442  0.9272  1.1387  2.4995
  875MOL0     H15451   4.913   3.606   4.274 -3.0627  0.8582 -0.7300
  875MOL0     H15452   4.937   3.782   4.267  0.9527 -1.2486 -0.7593
  875MOL0     H15453   4.870   3.529   4.579  1.6055  1.0044 -0.0436
  875MOL0     H15454   4.650   3.718   4.826 -0.9482  1.7731 -2.4823
  875MOL0     H15455   4.748   3.570   4.808 -1.3286 -2.9328 -1.0956
  875MOL0     H15456   4.589   3.475   4.640  0.9897 -0.2189  0.8049
  875MOL0     H15457   4.477   3.602   4.674  3.2620  3.3577 -2.2070
  875MOL0     H15458   4.591   3.394   4.859 -0.2870 -0.9246 -0.5795
  875MOL0     H15459   4.490   3.532   4.917 -0.6500  0.0173  1.0278
  875MOL0     H15460   4.356   3.314   4.871 -0.7292 -1.0176 -0.8370
  875MOL0     H15461   4.409   3.336   4.704 -0.4533  0.5638 -0.2111
  875MOL0     H15462   4.225   3.224   4.714  0.8348  0.5458  0.0540
  875MOL0     H15463   4.003   3.117   4.652 -0.5105 -0.1432  0.9575
  875MOL0     H15464   3.553   3.114   4.710 -0.5071 -0.5865 -0.7064
  875MOL0     H15465   3.325   3.046   4.721  2.2268 -1.3397 -1.5698
  875MOL0     H15466   3.035   3.266   4.445  0.4053 -1.1039  0.6030
  875MOL0     H15467   3.035   3.373   4.592 -1.4252  1.2721 -2.5659
  875MOL0     H15468   2.891   3.237   4.706  1.5165  0.5516  0.0058
  875MOL0     H15469   2.876   3.126   4.567 -1.6484  0.8679 -1.4005
  875MOL0     H15470   2.784   3.295   4.417  0.5991 -1.6078  0.8236
  875MOL0     H15471   2.789   3.409   4.552 -0.3462  0.8174  0.1649
  875MOL0     H15472   2.641   3.142   4.550 -0.2667 -0.3660 -0.1200
  875MOL0     H15473   2.631   3.283   4.667 -0.0481 -0.0338 -0.7235
  875MOL0     H15474   2.566   3.327   4.377  1.4330 -1.5648  0.2078
  875MOL0     H15475   2.549   3.429   4.525  0.1871 -1.0249  3.1595
  875MOL0     H15476   2.400   3.211   4.587  1.1796  0.1146 -1.0200
  875MOL0     H15477   2.409   3.193   4.420  2.3667  1.5809 -1.1293
  875MOL0     H15478   2.349   3.470   4.448  4.3639 -1.2596  3.6127
  875MOL0     H15479   2.224   3.342   4.403  0.3918  0.9033 -1.2370
  875MOL0     H15480   2.156   3.495   4.597 -0.0376 -0.8576  1.7491
  875MOL0     H15481   2.310   3.436   4.682  1.5902  2.7006 -1.0997
  875MOL0     H15482   3.237   3.394   4.464  0.9472  1.9192  0.5619
  875MOL0     H15483   3.460   3.446   4.451  2.0090  1.0639  1.4816
  875MOL0     H15484   3.830   3.517   4.676  1.3124  3.0409  0.2019
  875MOL0     H15485   4.037   3.599   4.754  0.6343 -2.0866  3.1519
  875MOL0     H15486   5.951   3.920   4.360  2.0625  0.5329 -2.4054
  875MOL0     H15487   6.196   3.961   4.356  1.8681  2.4656 -1.9401
  875MOL0     H15488   6.529   4.027   4.404  0.6197 -1.4804  0.0849
  875MOL0     H15489   6.761   3.979   4.408  0.0727 -1.0724  3.1410
  875MOL0     H15490   6.921   4.187   4.323 -0.7377 -1.0600  1.3411
  875MOL0     H15491   7.095   4.173   4.373  1.0780  1.2623 -0.9271
  875MOL0     H15492   7.043   4.417   4.331 -2.0141  3.7420  1.9134
  875MOL0     H15493   6.919   4.399   4.435 -1.4613 -2.3638 -2.1944
  875MOL0     H15494   7.180   4.312   4.564 -0.1026 -0.3749  1.6579
  875MOL0     H15495   7.046   4.413   4.629  1.6918 -0.0238  1.1279
  875MOL0     H15496   7.228   4.537   4.419  0.1451  1.8137  0.2702
  875MOL0     H15497   7.121   4.616   4.524 -0.7313  0.3241  0.6652
  875MOL0     H15498   7.479   4.509   4.750  0.2112  1.0685 -0.4505
  875MOL0     H15499   6.826   4.308   4.676  0.2482 -1.3167  0.1124
  875MOL0     H15500   6.587   4.352   4.685 -3.0756  0.6544 -2.3167
  876MOL0     O15501   7.749   7.442   0.326  0.4601 -0.4790 -0.0327
  876MOL0     C15502   7.723   7.525   0.241 -0.7096 -0.5579  0.2941
  876MOL0     O15503   7.810   7.581   0.149  0.5324 -0.3718 -0.2798
  876MOL0     C15504   7.946   7.577   0.156 -0.2066 -0.2504  0.2011
  876MOL0     C15505   8.028   7.539   0.261 -0.1243  0.4693  0.8014
  876MOL0     C15506   8.166   7.531   0.253 -0.1341  0.0073  1.7260
  876MOL0     C15507   8.228   7.591   0.136 -0.2697  0.2979 -0.1013
  876MOL0     O15508   8.367   7.587   0.110  0.7446 -0.6620  0.1306
  876MOL0     C15509   8.454   7.593   0.222  0.4297  0.2341  0.1139
  876MOL0     C15510   8.591   7.665   0.188  0.0247 -0.3570  0.7616
  876MOL0     C15511   8.683   7.685   0.306 -0.2452  0.2294  0.3527
  876MOL0     C15512   8.815   7.758   0.253 -0.0102  0.1869 -0.1285
  876MOL0     C15513   8.928   7.762   0.345  0.5712  0.0807 -0.1542
  876MOL0     C15514   9.060   7.794   0.278 -0.7925  0.1836 -0.0206
  876MOL0     C15515   9.193   7.802   0.358 -0.5225 -0.6039 -0.1911
  876MOL0     C15516   9.319   7.787   0.275 -1.0362  0.4084  0.9256
  876MOL0     N15517   9.333   7.898   0.178 -0.7315 -0.2833  0.4977
  876MOL0     C15518   9.263   7.894   0.062  0.1650 -0.1965  1.0968
  876MOL0     C15519   9.300   7.998  -0.013  0.3187 -0.3132 -0.2236
  876MOL0     C15520   9.246   8.040  -0.141  0.1784 -0.7563  0.0750
  876MOL0     C15521   9.096   8.080  -0.136  0.3863  0.0811  0.5557
  876MOL0     C15522   8.991   7.963  -0.171  0.2117  0.2670 -0.1453
  876MOL0     C15523   8.856   8.001  -0.115  0.1249 -0.6036  0.3391
  876MOL0     O15524   8.761   7.892  -0.128  0.2062 -0.5540  0.1206
  876MOL0     C15525   8.620   7.921  -0.106 -0.2977  0.8115  0.3996
  876MOL0     C15526   8.564   8.033  -0.043  0.5271  0.5781  0.3876
  876MOL0     C15527   8.419   8.046  -0.039  0.8948  0.0620 -0.1656
  876MOL0     C15528   8.338   7.948  -0.107 -0.1344  0.8178 -0.0225
  876MOL0     C15529   8.183   7.956  -0.114  0.3431 -0.3094 -0.0025
  876MOL0     O15530   8.142   8.070  -0.058  0.6870 -0.0190  0.2133
  876MOL0     C15531   8.008   8.103  -0.051  0.4146 -0.2257  1.1679
  876MOL0     C15532   7.902   8.014  -0.038 -0.5594 -0.1341 -0.2364
  876MOL0     C15533   7.771   8.059  -0.010  0.3579  0.0844 -0.1633
  876MOL0     C15534   7.748   8.194  -0.003  0.2074  0.0452  0.6674
  876MOL0     O15535   7.623   8.234   0.033  0.3553  0.1072 -0.1367
  876MOL0     C15536   7.554   8.301  -0.068 -0.7146 -0.0111  0.4542
  876MOL0     C15537   7.411   8.323  -0.044  0.1484 -0.8012 -1.0971
  876MOL0     C15538   7.391   8.367   0.101  1.1735  0.2884 -0.9992
  876MOL0     C15539   7.247   8.408   0.135 -0.4560  0.5673  0.8022
  876MOL0     C15540   7.227   8.423   0.288 -0.2678  0.7458  0.4969
  876MOL0     C15541   7.077   8.453   0.314 -0.2384 -0.0645  0.0745
  876MOL0     C15542   7.064   8.469   0.460 -0.7799  0.0885  0.0620
  876MOL0     C15543   6.922   8.517   0.501  0.7463 -0.1792 -0.4462
  876MOL0    Cl15544   6.880   8.463   0.674 -0.1627 -0.0766 -0.0567
  876MOL0     C15545   7.850   8.283  -0.026 -0.6812  0.1822  0.1513
  876MOL0     C15546   7.977   8.238  -0.050 -0.7013 -0.9971  0.4625
  876MOL0     O15547   8.113   7.868  -0.167  0.2422  0.1991 -0.7121
  876MOL0     C15548   8.404   7.834  -0.173 -0.2165 -0.7153 -0.9701
  876MOL0     C15549   8.537   7.821  -0.159 -0.4922  0.0156  0.5925
  876MOL0     N15550   9.405   8.062   0.059  0.5962  0.5196 -0.6340
  876MOL0     N15551   9.429   7.988   0.165 -0.1148 -0.3928  0.2347
  876MOL0     C15552   8.147   7.627   0.032  0.1806 -0.0867 -1.1974
  876MOL0     C15553   8.007   7.623   0.034 -0.0239 -0.4783  0.0669
  876MOL0     C15554   7.583   7.566   0.239  0.3062  0.4057 -0.4281
  876MOL0     C15555   7.539   7.661   0.152  0.1160  0.4725  0.3131
  876MOL0     C15556   7.400   7.695   0.147 -0.4671 -0.4936  0.6974
  876MOL0     C15557   7.314   7.649   0.240 -0.5547  0.9482  0.2385
  876MOL0     O15558   7.188   7.681   0.254  0.3098 -0.8287  0.1266
  876MOL0     C15559   7.140   7.804   0.203  0.1014 -0.0366 -0.4146
  876MOL0     C15560   7.028   7.852   0.296  0.4277 -0.7865  0.7307
  876MOL0     C15561   7.002   8.006   0.288 -0.3421  1.1063 -0.6667
  876MOL0     C15562   6.888   8.044   0.383  0.6088 -0.2428 -0.3843
  876MOL0     C15563   6.906   8.015   0.527 -0.1883 -0.8678  0.3280
  876MOL0     C15564   6.907   8.008   0.646 -0.2464  0.6485  0.2935
  876MOL0     C15565   7.361   7.549   0.327 -0.3382 -0.0828 -0.5486
  876MOL0     C15566   7.489   7.501   0.318  0.3225  0.7657 -0.2829
  876MOL0     H15567   7.985   7.511   0.357  1.2082  0.6161  1.4713
  876MOL0     H15568   8.215   7.508   0.347 -2.7177  0.4568  3.2691
  876MOL0     H15569   8.475   7.492   0.256 -1.2316 -1.2470 -2.8853
  876MOL0     H15570   8.414   7.644   0.310 -0.5085 -0.0719 -0.1279
  876MOL0     H15571   8.562   7.764   0.150  1.6032 -1.0250 -2.5480
  876MOL0     H15572   8.639   7.604   0.111 -4.2549 -1.0292 -1.6956
  876MOL0     H15573   8.699   7.582   0.339 -2.1379  0.4942  2.3875
  876MOL0     H15574   8.644   7.740   0.392  0.4205 -0.0557  0.8416
  876MOL0     H15575   8.855   7.708   0.164  1.8206  0.9282  0.2386
  876MOL0     H15576   8.783   7.856   0.216  0.5352 -0.1738 -1.6587
  876MOL0     H15577   8.949   7.663   0.387  0.9432 -0.7888 -2.2598
  876MOL0     H15578   8.910   7.836   0.423  0.4078  1.2782 -1.2950
  876MOL0     H15579   9.050   7.891   0.228 -1.2327  0.4751  0.6114
  876MOL0     H15580   9.067   7.718   0.200 -0.0010  1.0477 -0.8196
  876MOL0     H15581   9.192   7.898   0.412 -2.1234 -0.4808 -0.3897
  876MOL0     H15582   9.194   7.730   0.440  0.4173 -1.0278 -0.5622
  876MOL0     H15583   9.310   7.690   0.223  1.9173  0.6167 -0.1989
  876MOL0     H15584   9.409   7.777   0.336 -0.2056  1.0652 -0.1499
  876MOL0     H15585   9.194   7.815   0.035  1.3471 -1.0986  0.5917
  876MOL0     H15586   9.256   7.960  -0.216  2.5420 -0.9035  0.4932
  876MOL0     H15587   9.305   8.123  -0.180 -2.9712  1.1679 -1.0090
  876MOL0     H15588   9.077   8.147  -0.220  0.7495  0.6881  0.9561
  876MOL0     H15589   9.074   8.124  -0.038  0.1843 -2.7877  1.9052
  876MOL0     H15590   8.987   7.957  -0.280 -0.1753  1.3543 -0.2098
  876MOL0     H15591   9.025   7.869  -0.128 -0.1332  0.2514  0.1011
  876MOL0     H15592   8.809   8.088  -0.162 -1.5259  0.3908  3.4818
  876MOL0     H15593   8.871   8.025  -0.009 -1.0164 -0.3940  0.4614
  876MOL0     H15594   8.625   8.104   0.011 -1.0540  1.9368  0.4783
  876MOL0     H15595   8.371   8.128   0.013  0.3028 -1.2139  1.3362
  876MOL0     H15596   7.915   7.907  -0.049  0.7885  0.0052 -0.0994
  876MOL0     H15597   7.694   7.987   0.016  1.5546 -0.7009  1.4100
  876MOL0     H15598   7.561   8.248  -0.163 -5.5368 -0.6275  0.1987
  876MOL0     H15599   7.605   8.398  -0.074 -0.5322 -0.1396 -0.1094
  876MOL0     H15600   7.350   8.235  -0.069  0.9545 -1.4342 -0.8672
  876MOL0     H15601   7.375   8.407  -0.105  4.0517  2.9391  1.2198
  876MOL0     H15602   7.462   8.448   0.120 -0.9809  2.3393 -1.2154
  876MOL0     H15603   7.422   8.281   0.161  0.5665  0.2520 -0.7275
  876MOL0     H15604   7.227   8.506   0.092  1.0645  0.1553 -0.9386
  876MOL0     H15605   7.170   8.345   0.090  2.1258 -3.1914  1.1782
  876MOL0     H15606   7.293   8.502   0.324 -1.0128  1.4925  0.2611
  876MOL0     H15607   7.255   8.326   0.329 -1.8143  0.6048  1.2837
  876MOL0     H15608   7.014   8.371   0.278 -3.3660  2.6036 -0.9749
  876MOL0     H15609   7.046   8.544   0.262  1.6982  0.3293 -0.4851
  876MOL0     H15610   7.074   8.370   0.506  4.1790  0.8406  1.1951
  876MOL0     H15611   7.140   8.533   0.506  1.2891 -0.0888 -2.8450
  876MOL0     H15612   6.840   8.487   0.435 -0.8310  2.0788  0.3610
  876MOL0     H15613   6.905   8.625   0.494  1.6235  0.0425  0.5564
  876MOL0     H15614   7.832   8.390  -0.031  3.2501  1.0278  0.7449
  876MOL0     H15615   8.060   8.307  -0.064 -1.0429 -0.3823  1.3240
  876MOL0     H15616   8.345   7.747  -0.199 -1.2901  0.2578 -1.8463
  876MOL0     H15617   8.593   7.740  -0.203 -0.2289  0.4676  0.0883
  876MOL0     H15618   8.183   7.670  -0.061  0.0543 -0.3924 -1.3884
  876MOL0     H15619   7.938   7.655  -0.044 -0.1755  0.6480  0.6408
  876MOL0     H15620   7.603   7.709   0.080  0.3208  0.8758  0.7619
  876MOL0     H15621   7.365   7.772   0.079  1.4855 -0.3798 -0.2486
  876MOL0     H15622   7.100   7.792   0.101  1.3863  0.3041 -0.9841
  876MOL0     H15623   7.220   7.878   0.214 -0.3192  0.4452 -0.5283
  876MOL0     H15624   6.936   7.796   0.275  0.2144  0.4511 -1.9483
  876MOL0     H15625   7.063   7.827   0.397 -1.7713 -3.4302  0.9454
  876MOL0     H15626   6.972   8.028   0.185 -1.4221 -0.1736 -0.6426
  876MOL0     H15627   7.095   8.061   0.308  0.7107 -1.8429  4.0663
  876MOL0     H15628   6.872   8.152   0.377  0.9471  0.0415  2.5802
  876MOL0     H15629   6.804   7.977   0.361 -0.0350 -0.1254  1.4975
  876MOL0     H15630   6.905   7.994   0.752  3.1928 -0.4388  0.3317
  876MOL0     H15631   7.291   7.518   0.403 -0.2757  0.7170 -0.1448
  876MOL0     H15632   7.515   7.432   0.397  0.4549  2.1221  0.9031
  877MOL0     O15633   4.298   3.274   0.879 -0.4617 -0.3937  0.1091
  877MOL0     C15634   4.271   3.164   0.834  0.0343 -1.1512  0.0097
  877MOL0     O15635   4.343   3.104   0.728  0.5784 -0.1796 -0.2328
  877MOL0     C15636   4.468   3.151   0.703 -0.7554 -0.6294  0.2518
  877MOL0     C15637   4.568   3.176   0.795 -0.0756  1.0174 -0.4709
  877MOL0     C15638   4.700   3.188   0.767  0.3358 -0.1299 -0.2569
  877MOL0     C15639   4.736   3.193   0.630 -0.0052 -0.5990 -0.2132
  877MOL0     O15640   4.862   3.229   0.589  0.0189  0.1274 -0.4586
  877MOL0     C15641   4.980   3.179   0.657 -0.3787 -0.5880  0.1019
  877MOL0     C15642   5.116   3.207   0.590  0.6470 -0.3531 -0.4923
  877MOL0     C15643   5.136   3.126   0.461 -0.9083 -1.0226 -0.5252
  877MOL0     C15644   5.241   3.216   0.380 -0.2577  0.4203 -0.2725
  877MOL0     C15645   5.303   3.138   0.253  0.8010  0.6394 -0.0652
  877MOL0     C15646   5.444   3.096   0.257 -0.7052  0.2007  0.1013
  877MOL0     C15647   5.503   3.037   0.119  0.7299 -0.4145  0.6742
  877MOL0     C15648   5.655   2.986   0.131  0.4160 -0.4512 -0.8294
  877MOL0     N15649   5.666   2.891   0.243 -0.2395  0.0653 -0.5110
  877MOL0     C15650   5.592   2.777   0.248  0.4441  0.1148  0.3143
  877MOL0     C15651   5.616   2.725   0.367 -0.5413  0.0029 -1.0077
  877MOL0     C15652   5.543   2.607   0.416  0.0936  0.1743 -0.0435
  877MOL0     C15653   5.618   2.477   0.403 -1.0271  1.0464  0.2264
  877MOL0     C15654   5.533   2.356   0.449 -0.1207  0.1112 -0.2883
  877MOL0     C15655   5.403   2.344   0.367  0.1406 -0.2184 -0.4921
  877MOL0     O15656   5.306   2.416   0.439 -0.2913 -0.1334 -0.2341
  877MOL0     C15657   5.174   2.393   0.413  0.4842  1.0268  0.3683
  877MOL0     C15658   5.123   2.353   0.288 -0.4851 -0.1018  0.2913
  877MOL0     C15659   4.990   2.333   0.262  0.0752 -0.5170  0.0035
  877MOL0     C15660   4.889   2.356   0.360 -0.2980 -0.0541  0.6664
  877MOL0     C15661   4.749   2.339   0.331 -0.5165  0.8277 -0.2697
  877MOL0     O15662   4.662   2.362   0.431  0.2163 -0.3347 -0.1631
  877MOL0     C15663   4.528   2.346   0.427 -0.2865 -0.1404  0.1121
  877MOL0     C15664   4.454   2.346   0.314  0.6384  1.2281  0.4181
  877MOL0     C15665   4.318   2.314   0.319  0.1632  0.2214  1.6302
  877MOL0     C15666   4.264   2.270   0.434 -0.0118  0.3983  0.2738
  877MOL0     O15667   4.143   2.204   0.431  0.0973 -0.3010  0.6073
  877MOL0     C15668   4.150   2.069   0.455  0.0596  0.0535  0.3004
  877MOL0     C15669   4.155   1.986   0.325  0.1446 -0.7401  0.7998
  877MOL0     C15670   4.017   1.997   0.244 -0.4242  0.1157  0.8765
  877MOL0     C15671   3.927   1.871   0.265  0.6435 -0.1895  1.0004
  877MOL0     C15672   3.812   1.871   0.166 -0.0198 -0.5023  0.3146
  877MOL0     C15673   3.747   1.741   0.142  0.2504 -0.0535  0.6728
  877MOL0     C15674   3.624   1.768   0.045  0.2212  0.2133 -0.6905
  877MOL0     C15675   3.511   1.655   0.056 -0.0049  0.3104  0.1277
  877MOL0    Cl15676   3.398   1.681  -0.089  0.2849 -0.0721 -0.2322
  877MOL0     C15677   4.333   2.282   0.556 -0.1533  0.2012 -0.8384
  877MOL0     C15678   4.466   2.329   0.553 -1.0930 -0.3426 -0.0691
  877MOL0     O15679   4.727   2.293   0.214 -0.5109 -0.2316 -0.0832
  877MOL0     C15680   4.944   2.391   0.481  0.1265 -1.0150  0.7024
  877MOL0     C15681   5.077   2.419   0.509  0.0613  0.3190  0.1581
  877MOL0     N15682   5.716   2.804   0.434  0.4679  0.3865 -0.0838
  877MOL0     N15683   5.731   2.913   0.361  0.4170  0.2489 -0.1785
  877MOL0     C15684   4.649   3.159   0.532  0.1896  0.6807 -1.1341
  877MOL0     C15685   4.514   3.151   0.570  0.1562 -0.1416  0.1935
  877MOL0     C15686   4.158   3.089   0.885  1.0719 -0.5753  0.6798
  877MOL0     C15687   4.153   2.949   0.861  0.0426 -0.5491  0.3718
  877MOL0     C15688   4.047   2.870   0.904 -0.5516 -0.0951  0.0709
  877MOL0     C15689   3.936   2.930   0.969  0.1795 -0.3428 -0.8239
  877MOL0     O15690   3.828   2.860   1.011  0.1119  0.3581  0.1656
  877MOL0     C15691   3.764   2.780   0.913 -0.9935  1.0099 -0.0780
  877MOL0     C15692   3.621   2.753   0.945 -0.5435  0.3033 -0.1983
  877MOL0     C15693   3.560   2.640   0.853 -0.5045 -0.5325  0.7195
  877MOL0     C15694   3.429   2.604   0.898  0.0135 -0.0153 -0.1354
  877MOL0     C15695   3.370   2.495   0.829  0.5258  0.3983 -0.0825
  877MOL0     C15696   3.328   2.402   0.764  0.3342  0.1000  0.9928
  877MOL0     C15697   3.936   3.074   0.979  0.3517  1.0623 -0.5312
  877MOL0     C15698   4.049   3.153   0.938  0.4152  0.2464 -0.1095
  877MOL0     H15699   4.532   3.190   0.897 -2.0865  1.2276 -1.1738
  877MOL0     H15700   4.772   3.205   0.846 -0.5040 -2.2080  1.0518
  877MOL0     H15701   4.974   3.070   0.657  0.5723 -0.6873 -1.7809
  877MOL0     H15702   4.989   3.223   0.756 -0.4704 -0.0261 -0.1360
  877MOL0     H15703   5.187   3.165   0.662 -1.0371 -0.9102  0.9031
  877MOL0     H15704   5.154   3.309   0.580  0.1041 -0.0364  0.5668
  877MOL0     H15705   5.041   3.116   0.408  0.5363  0.9107 -3.7826
  877MOL0     H15706   5.178   3.028   0.487  2.8590  0.2999 -1.0412
  877MOL0     H15707   5.198   3.312   0.350 -0.2236 -0.1336 -2.2523
  877MOL0     H15708   5.330   3.246   0.436 -1.8671  2.7583  1.1712
  877MOL0     H15709   5.284   3.188   0.158 -1.0692 -1.6813 -1.0249
  877MOL0     H15710   5.240   3.049   0.244  0.7666  0.8199 -2.1378
  877MOL0     H15711   5.449   3.025   0.340  0.2861 -0.3057 -0.3669
  877MOL0     H15712   5.503   3.185   0.281 -0.7582  0.5229 -0.9143
  877MOL0     H15713   5.437   2.957   0.085 -3.1056  3.3073 -1.7719
  877MOL0     H15714   5.486   3.108   0.037 -2.4309 -1.1228  0.5732
  877MOL0     H15715   5.708   3.076   0.162  1.4086 -0.4540 -2.4094
  877MOL0     H15716   5.701   2.952   0.037 -1.7650 -0.8731 -1.8131
  877MOL0     H15717   5.534   2.740   0.164  0.3611 -1.1593  0.9125
  877MOL0     H15718   5.446   2.597   0.366 -0.0351 -1.0916  0.4028
  877MOL0     H15719   5.524   2.636   0.520 -0.8666  0.5605 -0.3205
  877MOL0     H15720   5.713   2.468   0.456  0.3968 -1.2123 -2.4168
  877MOL0     H15721   5.641   2.459   0.297  0.8473  4.4155 -0.0625
  877MOL0     H15722   5.588   2.262   0.434 -1.4849 -1.4654  3.3837
  877MOL0     H15723   5.513   2.354   0.556 -0.0051  0.7555 -0.2496
  877MOL0     H15724   5.384   2.236   0.363  1.1392 -0.4315  0.1191
  877MOL0     H15725   5.406   2.386   0.266  0.8931 -0.2963 -0.5114
  877MOL0     H15726   5.198   2.332   0.213 -0.6501  1.5977 -0.3738
  877MOL0     H15727   4.968   2.300   0.160 -1.6786 -0.2591  0.2557
  877MOL0     H15728   4.488   2.378   0.216  3.2758 -0.2344  0.7672
  877MOL0     H15729   4.259   2.313   0.229  1.0799  1.1985  0.9888
  877MOL0     H15730   4.060   2.038   0.508 -1.3278  1.7901 -0.9468
  877MOL0     H15731   4.235   2.055   0.523 -0.3790  2.4431  1.4228
  877MOL0     H15732   4.178   1.881   0.346  0.1844 -0.8296  0.3133
  877MOL0     H15733   4.236   2.020   0.260  0.1196 -1.2941  0.4745
  877MOL0     H15734   4.038   2.014   0.138 -0.7346 -2.4983  0.3494
  877MOL0     H15735   3.954   2.080   0.276 -0.6658  0.8176 -1.2753
  877MOL0     H15736   3.983   1.777   0.264  2.4722  0.8522  1.7584
  877MOL0     H15737   3.883   1.881   0.364 -1.2761  3.4319 -0.0257
  877MOL0     H15738   3.849   1.914   0.073  2.9740 -1.6244  0.8940
  877MOL0     H15739   3.741   1.946   0.204  1.3966 -0.5002  3.2314
  877MOL0     H15740   3.725   1.701   0.241  1.4773 -3.2676 -0.2043
  877MOL0     H15741   3.822   1.676   0.095  0.7513  0.5936  0.5635
  877MOL0     H15742   3.573   1.864   0.059 -2.8980 -1.5951  1.7869
  877MOL0     H15743   3.664   1.771  -0.057  1.3709  0.9135 -0.2390
  877MOL0     H15744   3.460   1.659   0.152 -0.8027  1.6723 -0.3283
  877MOL0     H15745   3.546   1.551   0.053  0.1546  0.3493  0.5757
  877MOL0     H15746   4.276   2.254   0.644 -1.0693  1.8298 -0.8615
  877MOL0     H15747   4.519   2.343   0.646  1.9893  1.7937 -1.9301
  877MOL0     H15748   4.875   2.409   0.563  0.6896 -2.7494  1.6185
  877MOL0     H15749   5.118   2.458   0.602  1.0899 -1.5031  0.5348
  877MOL0     H15750   4.675   3.155   0.427 -0.5784 -1.9351 -1.3027
  877MOL0     H15751   4.445   3.136   0.488  2.9580 -5.5446 -1.7069
  877MOL0     H15752   4.238   2.905   0.811 -0.4231  1.7208 -2.6899
  877MOL0     H15753   4.055   2.762   0.896 -2.0060 -0.1194 -1.7319
  877MOL0     H15754   3.811   2.681   0.912 -1.1009  0.9569  0.2088
  877MOL0     H15755   3.776   2.824   0.813  0.8210  0.4060 -0.1782
  877MOL0     H15756   3.620   2.713   1.047 -3.7996 -0.4744 -0.4082
  877MOL0     H15757   3.557   2.838   0.921  0.0678  0.9598  0.4147
  877MOL0     H15758   3.615   2.546   0.840  1.3904  0.3079  2.0525
  877MOL0     H15759   3.561   2.680   0.751  0.0285 -1.5107  0.3274
  877MOL0     H15760   3.437   2.574   1.003 -3.2542 -1.5879 -0.1959
  877MOL0     H15761   3.362   2.691   0.905  0.0446  0.0725 -0.9068
  877MOL0     H15762   3.287   2.326   0.700 -2.9129  0.8788  1.9961
  877MOL0     H15763   3.850   3.128   1.017 -1.8627 -0.6715 -2.7796
  877MOL0     H15764   4.071   3.259   0.948 -0.2710  0.4857 -1.0264
  878MOL0     O15765  10.984   9.096   0.530  0.4701 -0.3629 -1.2798
  878MOL0     C15766  11.061   9.129   0.616 -0.2823 -0.9633  0.3084
  878MOL0     O15767  11.020   9.191   0.731  0.1853  0.2299 -0.4946
  878MOL0     C15768  10.889   9.216   0.756 -0.8245  0.5521 -0.5343
  878MOL0     C15769  10.844   9.343   0.716  0.2027 -0.1177 -0.5456
  878MOL0     C15770  10.707   9.360   0.719  0.2692 -0.0674 -0.6689
  878MOL0     C15771  10.623   9.254   0.750  0.7172  0.2545  0.0346
  878MOL0     O15772  10.484   9.275   0.732 -0.0935  0.1162  0.4312
  878MOL0     C15773  10.392   9.160   0.711 -0.7812  0.9138  0.3926
  878MOL0     C15774  10.409   9.104   0.571 -0.2342  0.1487  0.2917
  878MOL0     C15775  10.318   8.985   0.546  0.4657 -0.9125  0.3892
  878MOL0     C15776  10.282   8.971   0.392  0.5019 -0.2252 -0.3974
  878MOL0     C15777  10.165   8.882   0.363  0.8605 -0.1484 -0.1417
  878MOL0     C15778  10.143   8.867   0.213  0.1784 -0.3060  0.4748
  878MOL0     C15779  10.058   8.740   0.179 -0.6926 -0.9000  0.5949
  878MOL0     C15780   9.920   8.752   0.238  1.0186 -0.6801 -0.0975
  878MOL0     N15781   9.845   8.860   0.168 -0.2972  0.2452  0.0814
  878MOL0     C15782   9.786   8.836   0.044  0.0332 -1.1296 -0.4989
  878MOL0     C15783   9.734   8.958   0.009  0.0920 -0.6108 -0.4608
  878MOL0     C15784   9.656   8.977  -0.113 -1.2449 -0.3445 -0.1564
  878MOL0     C15785   9.515   8.964  -0.074 -0.5018 -0.1402 -0.5331
  878MOL0     C15786   9.420   8.994  -0.191 -0.4422  0.3487  0.2060
  878MOL0     C15787   9.277   8.957  -0.158  0.3369  0.5126  0.5000
  878MOL0     O15788   9.197   9.074  -0.185  0.4895  0.4062 -0.4351
  878MOL0     C15789   9.057   9.065  -0.179 -0.1768  0.2580 -0.9104
  878MOL0     C15790   8.982   9.176  -0.210  0.3636 -0.3631  0.8279
  878MOL0     C15791   8.836   9.170  -0.207  0.3452 -0.1587  0.4621
  878MOL0     C15792   8.764   9.060  -0.180 -0.0216  0.8297 -0.3813
  878MOL0     C15793   8.613   9.053  -0.165  0.1289 -1.0010  1.0425
  878MOL0     O15794   8.539   9.169  -0.188 -0.2252  0.0721  0.2264
  878MOL0     C15795   8.413   9.171  -0.129  0.2575  0.0945  0.7200
  878MOL0     C15796   8.309   9.131  -0.212  0.2785  0.4865 -0.0316
  878MOL0     C15797   8.182   9.136  -0.167 -0.3418  0.3465  0.1953
  878MOL0     C15798   8.137   9.190  -0.049  0.8812  0.0781 -0.1221
  878MOL0     O15799   8.003   9.185  -0.019  0.6482  0.2124 -1.2098
  878MOL0     C15800   7.954   9.266   0.084 -0.0637  0.0698 -0.2662
  878MOL0     C15801   7.799   9.260   0.067  0.7309  0.3028 -0.3291
  878MOL0     C15802   7.719   9.348   0.169  0.0663  0.2516 -0.2725
  878MOL0     C15803   7.572   9.347   0.135  0.4440  0.4509  0.2210
  878MOL0     C15804   7.498   9.434   0.231 -0.3991 -0.2781 -1.5384
  878MOL0     C15805   7.503   9.582   0.196  0.0882  0.7530 -0.4514
  878MOL0     C15806   7.396   9.651   0.280  0.1445 -0.0512 -0.0528
  878MOL0     C15807   7.383   9.797   0.246  0.5265  0.5703  0.6507
  878MOL0    Cl15808   7.278   9.887   0.363  0.0393  0.1254  0.0200
  878MOL0     C15809   8.239   9.239   0.026 -0.8186 -1.1330 -0.0796
  878MOL0     C15810   8.377   9.242  -0.016  0.5314 -0.1189 -0.6043
  878MOL0     O15811   8.568   8.952  -0.109 -0.8479 -0.1469  0.4842
  878MOL0     C15812   8.839   8.939  -0.149 -0.4923  0.0214 -0.2442
  878MOL0     C15813   8.983   8.949  -0.153  0.5710  0.4628  0.4843
  878MOL0     N15814   9.760   9.046   0.112 -0.1116  0.4775 -0.4033
  878MOL0     N15815   9.822   8.990   0.216 -0.1019  0.2090 -0.0589
  878MOL0     C15816  10.676   9.130   0.790  0.4978  0.1338 -0.6279
  878MOL0     C15817  10.807   9.115   0.794  0.2201 -0.0431 -0.9176
  878MOL0     C15818  11.204   9.110   0.579  0.2704 -0.1438  0.3257
  878MOL0     C15819  11.295   9.151   0.673 -0.2555 -0.6013 -0.4213
  878MOL0     C15820  11.429   9.128   0.665 -0.0305 -0.7662 -0.1447
  878MOL0     C15821  11.488   9.058   0.562  0.2608 -0.0398  0.0571
  878MOL0     O15822  11.619   9.029   0.543  0.1798 -0.5325 -0.0989
  878MOL0     C15823  11.708   9.081   0.645 -0.0327 -0.1621 -0.2670
  878MOL0     C15824  11.848   9.041   0.603 -1.0346  0.7937  0.6518
  878MOL0     C15825  11.903   9.096   0.470 -0.3497  0.1629 -0.0368
  878MOL0     C15826  12.053   9.048   0.436  0.1498  0.0578  0.0728
  878MOL0     C15827  12.106   9.118   0.321 -1.1061  0.4437 -0.3919
  878MOL0     C15828  12.159   9.175   0.223 -0.6495 -1.0685 -0.6319
  878MOL0     C15829  11.399   9.028   0.456  1.3786 -0.2130 -0.2018
  878MOL0     C15830  11.261   9.054   0.466 -0.3336 -0.1989  0.2330
  878MOL0     H15831  10.913   9.424   0.697  2.5481 -1.5310  1.3648
  878MOL0     H15832  10.665   9.457   0.694 -0.2287 -0.0998 -0.0056
  878MOL0     H15833  10.290   9.195   0.729 -1.9459 -1.6394 -0.8806
  878MOL0     H15834  10.398   9.089   0.794  1.0643 -0.2166 -0.6478
  878MOL0     H15835  10.513   9.079   0.546  0.0554  1.9867 -0.4777
  878MOL0     H15836  10.373   9.183   0.504  0.7180 -0.4182 -0.9501
  878MOL0     H15837  10.221   9.000   0.596  0.6033  1.3166  0.0928
  878MOL0     H15838  10.362   8.891   0.579  1.4010 -0.6899 -0.1983
  878MOL0     H15839  10.264   9.070   0.351  2.2732  1.5367  2.6826
  878MOL0     H15840  10.376   8.937   0.346  0.2438 -0.3400 -0.8417
  878MOL0     H15841  10.070   8.918   0.404 -0.7899 -2.7724 -1.3768
  878MOL0     H15842  10.182   8.778   0.393 -0.8334 -1.1390 -2.3402
  878MOL0     H15843  10.243   8.859   0.169  0.0182 -1.2257  0.2434
  878MOL0     H15844  10.094   8.954   0.167  0.5193  0.2653  1.1849
  878MOL0     H15845  10.049   8.729   0.070  2.4311 -0.4320  0.1993
  878MOL0     H15846  10.106   8.648   0.213  0.5462 -0.4313  0.1728
  878MOL0     H15847   9.912   8.772   0.345 -1.1498  0.3251 -0.3901
  878MOL0     H15848   9.862   8.661   0.219 -1.3137  0.3589  1.6213
  878MOL0     H15849   9.779   8.739  -0.004  2.2516 -0.8717 -1.4671
  878MOL0     H15850   9.686   8.904  -0.188 -0.5482  1.7304 -1.9796
  878MOL0     H15851   9.669   9.075  -0.160  0.5937  0.0848  1.1313
  878MOL0     H15852   9.499   9.032   0.010  0.0126 -3.6854  2.7181
  878MOL0     H15853   9.491   8.861  -0.045  0.0154  0.5751  2.7725
  878MOL0     H15854   9.428   9.102  -0.210  1.1391 -0.1572 -2.4648
  878MOL0     H15855   9.446   8.941  -0.283  0.4248  0.5193  0.3406
  878MOL0     H15856   9.268   8.929  -0.052  1.2717  0.2342  0.5107
  878MOL0     H15857   9.236   8.876  -0.220  0.0318  1.8296 -1.0742
  878MOL0     H15858   9.024   9.274  -0.229  1.0974 -0.4045  2.0804
  878MOL0     H15859   8.769   9.251  -0.232  0.0988 -0.1724  1.0493
  878MOL0     H15860   8.337   9.097  -0.311 -0.6687 -1.2992  0.2573
  878MOL0     H15861   8.104   9.105  -0.237  0.0411  1.8303 -0.9606
  878MOL0     H15862   7.999   9.366   0.086  1.7082 -0.6664 -1.4115
  878MOL0     H15863   7.978   9.234   0.186 -2.4395  1.5083  0.8437
  878MOL0     H15864   7.779   9.154   0.082  1.7354 -0.0229 -1.1449
  878MOL0     H15865   7.778   9.294  -0.034  4.9745 -1.2646 -1.9787
  878MOL0     H15866   7.760   9.449   0.158  1.3647 -0.2057  0.1843
  878MOL0     H15867   7.718   9.305   0.269  2.1941 -1.6828 -0.9848
  878MOL0     H15868   7.569   9.370   0.028  0.0118 -1.7060 -0.2806
  878MOL0     H15869   7.524   9.249   0.140 -1.7899  1.4468 -0.5033
  878MOL0     H15870   7.547   9.431   0.329 -0.3218  1.0481 -1.5120
  878MOL0     H15871   7.397   9.394   0.240  0.7746 -3.5153 -1.7306
  878MOL0     H15872   7.489   9.597   0.089 -1.7953 -3.1583 -0.8938
  878MOL0     H15873   7.601   9.628   0.215  1.5786 -2.4430  0.1902
  878MOL0     H15874   7.294   9.615   0.262 -0.7607  0.6109  3.1070
  878MOL0     H15875   7.421   9.631   0.384 -1.4570  0.9629  0.5687
  878MOL0     H15876   7.345   9.800   0.143 -0.8694 -1.6009  1.0268
  878MOL0     H15877   7.477   9.853   0.242  2.3273 -2.1520  2.0091
  878MOL0     H15878   8.208   9.294   0.115 -2.4993  0.7981 -1.7426
  878MOL0     H15879   8.451   9.283   0.052  0.3102  1.6419 -1.3805
  878MOL0     H15880   8.789   8.845  -0.128  1.6830 -0.6867  2.2168
  878MOL0     H15881   9.023   8.851  -0.129 -3.5666 -1.5794 -0.0818
  878MOL0     H15882  10.609   9.046   0.804 -0.6966  1.3237  1.5617
  878MOL0     H15883  10.834   9.011   0.813  0.2516 -0.1134 -1.3246
  878MOL0     H15884  11.248   9.209   0.751 -0.4755 -2.1776  0.6756
  878MOL0     H15885  11.482   9.154   0.756  0.8937 -1.5865 -0.4384
  878MOL0     H15886  11.690   9.050   0.748  3.8338  1.1944  0.9871
  878MOL0     H15887  11.699   9.190   0.648  0.2308  0.0853 -3.9572
  878MOL0     H15888  11.917   9.073   0.682  0.9255  0.5238 -0.8645
  878MOL0     H15889  11.835   8.933   0.592 -1.2261  0.8306  0.5237
  878MOL0     H15890  11.911   9.205   0.460  0.4434 -0.0066 -1.6059
  878MOL0     H15891  11.833   9.058   0.396 -1.1710 -0.3607  0.9805
  878MOL0     H15892  12.115   9.060   0.524  0.4517 -4.1638  0.6574
  878MOL0     H15893  12.057   8.940   0.418 -0.3529 -0.0054  0.3075
  878MOL0     H15894  12.215   9.234   0.153 -0.9600 -0.1094 -0.0962
  878MOL0     H15895  11.433   8.988   0.361  1.4643 -0.2706 -0.1462
  878MOL0     H15896  11.190   9.037   0.385 -2.2204  0.5272  1.6473
  879MOL0     O15897   6.033   8.176  10.807 -0.1095 -0.5203  0.4976
  879MOL0     C15898   6.039   8.104  10.707  0.2005  0.4110 -0.2092
  879MOL0     O15899   5.940   8.030  10.648  0.1348  0.0689 -0.3013
  879MOL0     C15900   5.813   8.049  10.701 -0.0858  1.1834  0.4832
  879MOL0     C15901   5.732   8.152  10.649 -0.1551 -0.0092  0.1609
  879MOL0     C15902   5.598   8.161  10.690  0.0338 -0.6276  0.3451
  879MOL0     C15903   5.543   8.079  10.779  0.0256 -0.1300  1.0587
  879MOL0     O15904   5.409   8.093  10.806 -0.8303 -0.2053 -0.1347
  879MOL0     C15905   5.364   8.044  10.936  0.2690 -0.1637 -0.2153
  879MOL0     C15906   5.207   8.054  10.949  1.2987 -0.3485 -0.5355
  879MOL0     C15907   5.145   8.200  10.952 -0.8331  0.4840 -0.5629
  879MOL0     C15908   4.999   8.193  10.990 -0.0306  0.6110 -0.9452
  879MOL0     C15909   4.929   8.322  10.963  0.7411  0.2207  0.9502
  879MOL0     C15910   4.982   8.444  11.035  0.1034 -0.3437 -0.2945
  879MOL0     C15911   4.896   8.567  11.006  0.6257  1.1449  0.3266
  879MOL0     C15912   4.935   8.696  11.079  0.3232  0.2452 -0.8721
  879MOL0     N15913   4.821   8.786  11.085  0.7303  0.3414 -0.0012
  879MOL0     C15914   4.719   8.799  10.992  0.1533  0.2313  0.0422
  879MOL0     C15915   4.639   8.896  11.035  1.2802  0.1301 -0.0833
  879MOL0     C15916   4.525   8.950  10.959  0.8103  0.6498  0.4240
  879MOL0     C15917   4.396   8.932  11.025  0.8161  0.2126  0.0111
  879MOL0     C15918   4.346   8.786  11.014 -0.4040  0.5414  0.0666
  879MOL0     C15919   4.192   8.787  11.014 -0.5372 -0.9654 -0.0265
  879MOL0     O15920   4.164   8.651  10.997  0.9885 -0.0276  0.1984
  879MOL0     C15921   4.037   8.625  10.955  0.3750 -0.1315 -1.0277
  879MOL0     C15922   3.929   8.661  11.033 -0.7133 -0.6075 -0.1967
  879MOL0     C15923   3.797   8.639  10.983  0.4981  0.6653 -0.4923
  879MOL0     C15924   3.778   8.583  10.852 -0.1757  0.5566 -0.3266
  879MOL0     C15925   3.640   8.565  10.795 -0.9015  0.2376 -0.4385
  879MOL0     O15926   3.637   8.524  10.672 -0.1221 -0.4610  0.5533
  879MOL0     C15927   3.523   8.543  10.606  0.5462 -0.0754 -0.9946
  879MOL0     C15928   3.412   8.457  10.627 -0.6759 -0.3801 -0.6046
  879MOL0     C15929   3.305   8.467  10.550  0.1427  0.2566  0.6463
  879MOL0     C15930   3.295   8.555  10.441 -0.5056 -0.8523  0.3901
  879MOL0     O15931   3.197   8.567  10.346  0.1506  0.1998  0.6744
  879MOL0     C15932   3.086   8.482  10.347  0.6092  0.1425 -0.7126
  879MOL0     C15933   2.982   8.521  10.234 -0.3193  0.0719 -0.9230
  879MOL0     C15934   2.844   8.478  10.278  0.2174  0.1749 -0.4763
  879MOL0     C15935   2.745   8.478  10.157  0.6319 -1.3562  0.4987
  879MOL0     C15936   2.595   8.452  10.198  0.5573  0.1213 -0.3325
  879MOL0     C15937   2.506   8.470  10.076  0.6282  0.4839 -0.4132
  879MOL0     C15938   2.369   8.421  10.110  0.2175  0.6540 -0.1658
  879MOL0     C15939   2.280   8.430   9.987 -0.6845 -0.3895  0.7670
  879MOL0    Cl15940   2.280   8.596   9.912 -0.2383  0.3846  0.0319
  879MOL0     C15941   3.410   8.631  10.409 -0.2543  0.6022  0.1887
  879MOL0     C15942   3.525   8.631  10.494  0.2814  0.2294 -0.5899
  879MOL0     O15943   3.538   8.604  10.853 -0.3319  0.2298  0.5728
  879MOL0     C15944   3.898   8.549  10.783  0.2282  0.3323 -0.1913
  879MOL0     C15945   4.019   8.574  10.831 -0.3523  0.5003 -0.9468
  879MOL0     N15946   4.694   8.948  11.151  0.2972  0.4666  0.6003
  879MOL0     N15947   4.799   8.874  11.186 -0.7428  0.2069 -0.4067
  879MOL0     C15948   5.630   7.980  10.832  1.0125 -0.2956 -0.1320
  879MOL0     C15949   5.760   7.959  10.789 -0.0793  0.8466 -0.1159
  879MOL0     C15950   6.167   8.096  10.633  0.6099 -1.2550 -0.6676
  879MOL0     C15951   6.287   8.112  10.706  0.5359  0.2560 -0.1133
  879MOL0     C15952   6.412   8.083  10.650 -0.2800  0.0233  0.8289
  879MOL0     C15953   6.419   8.052  10.509  0.2649 -0.3931  0.3257
  879MOL0     O15954   6.527   8.022  10.435 -0.2103 -0.3794 -0.0898
  879MOL0     C15955   6.654   8.033  10.499 -0.6124 -0.0845  0.3439
  879MOL0     C15956   6.767   7.973  10.412 -0.3284 -0.6528 -0.2013
  879MOL0     C15957   6.904   8.023  10.467 -0.0418 -0.9141 -0.7158
  879MOL0     C15958   7.027   7.988  10.400 -0.3065  0.1401 -0.3431
  879MOL0     C15959   7.089   7.853  10.415  0.3291 -0.5778  0.0925
  879MOL0     C15960   7.139   7.747  10.437 -0.1889  0.4892  0.7038
  879MOL0     C15961   6.296   8.031  10.442 -0.1900 -0.5379 -0.2641
  879MOL0     C15962   6.175   8.046  10.502 -0.4470  0.5349 -0.0654
  879MOL0     H15963   5.770   8.228  10.581  0.0671  1.2998  1.6809
  879MOL0     H15964   5.532   8.231  10.639  0.8199  2.2237  2.9486
  879MOL0     H15965   5.415   8.102  11.013  1.1867 -0.9503 -0.2116
  879MOL0     H15966   5.383   7.936  10.936 -0.0042 -0.2524 -1.9753
  879MOL0     H15967   5.180   8.002  11.042 -0.3271 -2.0728 -1.8778
  879MOL0     H15968   5.150   7.992  10.879 -1.6783 -1.8425  2.8768
  879MOL0     H15969   5.148   8.240  10.850 -2.2973  0.1418 -0.7618
  879MOL0     H15970   5.206   8.259  11.021  2.3366  0.0264 -2.7750
  879MOL0     H15971   4.946   8.118  10.930  0.6286 -0.0589 -0.6955
  879MOL0     H15972   4.999   8.169  11.096  1.3063 -1.4163 -1.3535
  879MOL0     H15973   4.823   8.297  10.970  0.7436  0.0509  0.4277
  879MOL0     H15974   4.936   8.339  10.855 -1.8915 -0.7952  0.5490
  879MOL0     H15975   5.082   8.465  10.998  1.1373 -1.4611  1.6850
  879MOL0     H15976   4.983   8.441  11.145 -2.1286  0.2274 -0.1915
  879MOL0     H15977   4.896   8.576  10.897 -0.6966 -1.0853  0.0666
  879MOL0     H15978   4.794   8.539  11.036  1.6219 -1.6300  1.5330
  879MOL0     H15979   5.015   8.751  11.029  1.9601  0.2100  1.5639
  879MOL0     H15980   4.964   8.673  11.182  2.5252  0.0959 -1.4682
  879MOL0     H15981   4.704   8.736  10.905 -3.1845  0.4709  0.3033
  879MOL0     H15982   4.525   8.891  10.867  1.3007  0.5870  0.4632
  879MOL0     H15983   4.534   9.052  10.919 -2.9101 -0.0268 -2.7298
  879MOL0     H15984   4.332   8.986  10.956  1.1475  0.4078 -0.1494
  879MOL0     H15985   4.382   8.973  11.126  3.1075  0.0348  0.4566
  879MOL0     H15986   4.387   8.735  10.926  0.8212  0.0981  0.8803
  879MOL0     H15987   4.365   8.732  11.107  2.8690 -0.5914 -1.1188
  879MOL0     H15988   4.143   8.853  10.942 -0.5550 -0.3539  0.5360
  879MOL0     H15989   4.156   8.819  11.112 -0.1235  1.1782 -0.5406
  879MOL0     H15990   3.948   8.704  11.131 -0.1140  1.7656 -1.2852
  879MOL0     H15991   3.718   8.668  11.052  0.9189 -0.4700  0.4994
  879MOL0     H15992   3.411   8.387  10.711 -0.4786  0.2587 -0.0632
  879MOL0     H15993   3.228   8.399  10.585 -0.0584  1.0021  1.6919
  879MOL0     H15994   3.030   8.502  10.439 -0.5505  1.0809 -1.5917
  879MOL0     H15995   3.103   8.376  10.329  0.7303  0.1118 -0.4319
  879MOL0     H15996   3.009   8.465  10.145 -1.3748 -2.7999  0.4392
  879MOL0     H15997   2.991   8.628  10.212 -0.5476  0.6548  1.5227
  879MOL0     H15998   2.813   8.550  10.355  1.8244  0.3536  0.0456
  879MOL0     H15999   2.844   8.378  10.324 -1.9054  0.1082 -0.5299
  879MOL0     H16000   2.733   8.583  10.127 -0.4027 -0.7648  2.7865
  879MOL0     H16001   2.776   8.417  10.072  1.2987  1.2153 -1.2358
  879MOL0     H16002   2.557   8.515  10.279  0.1765 -3.0203  2.1344
  879MOL0     H16003   2.588   8.349  10.232 -3.3716  0.3220 -0.0075
  879MOL0     H16004   2.542   8.425   9.983 -0.8974  0.0141 -0.8152
  879MOL0     H16005   2.503   8.578  10.059 -2.2652  0.3757 -1.1372
  879MOL0     H16006   2.366   8.317  10.146 -1.6936  0.3742 -1.0093
  879MOL0     H16007   2.320   8.489  10.181  0.7234 -1.3258  2.2414
  879MOL0     H16008   2.177   8.398  10.006 -1.0197  0.0893 -0.1581
  879MOL0     H16009   2.329   8.364   9.915  2.1480  2.2104  0.0349
  879MOL0     H16010   3.413   8.690  10.318 -0.4295  1.5386  0.7814
  879MOL0     H16011   3.609   8.693  10.464 -0.3911  2.2058  1.3265
  879MOL0     H16012   3.900   8.501  10.686  0.7386  1.8123 -0.9522
  879MOL0     H16013   4.105   8.550  10.770  0.2325  3.3717 -1.4216
  879MOL0     H16014   5.581   7.906  10.894 -1.0359  0.9010 -0.2195
  879MOL0     H16015   5.815   7.873  10.826 -1.3661 -0.8694 -1.9784
  879MOL0     H16016   6.286   8.166  10.801 -0.1059  0.5391 -0.2725
  879MOL0     H16017   6.493   8.095  10.722  1.2654 -1.3941 -0.5875
  879MOL0     H16018   6.655   7.980  10.595  2.8760 -0.8456  0.0218
  879MOL0     H16019   6.673   8.139  10.517  3.3755 -0.1706 -2.0227
  879MOL0     H16020   6.767   7.863  10.407  2.7889 -0.7081 -2.1535
  879MOL0     H16021   6.755   8.006  10.308 -1.4043  4.6705  1.3504
  879MOL0     H16022   6.909   7.985  10.569  0.8006  2.6129  0.7062
  879MOL0     H16023   6.893   8.131  10.470 -1.5611 -1.0735  0.0656
  879MOL0     H16024   7.010   7.980  10.292  1.1861 -1.3182 -0.5132
  879MOL0     H16025   7.104   8.066  10.405 -1.0205  0.9298 -1.3365
  879MOL0     H16026   7.165   7.647  10.466 -0.6302  0.3683  0.6884
  879MOL0     H16027   6.293   8.006  10.337 -4.1719 -0.0975 -0.3998
  879MOL0     H16028   6.092   8.011  10.441 -0.1474  2.8463 -1.9284
  880MOL0     O16029   6.675   0.554   5.607 -0.9365 -0.1224  0.4250
  880MOL0     C16030   6.666   0.520   5.723  0.2227  0.6608 -0.0217
  880MOL0     O16031   6.571   0.425   5.774 -0.0584 -0.0614  0.0048
  880MOL0     C16032   6.476   0.389   5.683  0.0438 -0.4712 -0.4918
  880MOL0     C16033   6.364   0.467   5.649  0.6531 -0.0288  0.3527
  880MOL0     C16034   6.253   0.419   5.570  0.3608  0.6625 -0.7787
  880MOL0     C16035   6.256   0.288   5.520  0.3438  0.5601 -0.5419
  880MOL0     O16036   6.147   0.226   5.444  0.6974  0.2854  0.0236
  880MOL0     C16037   6.032   0.305   5.400  0.5032  0.3786 -0.0626
  880MOL0     C16038   5.922   0.206   5.350  0.2803 -1.0242  0.9555
  880MOL0     C16039   5.791   0.268   5.332  0.3163  0.0513 -0.3612
  880MOL0     C16040   5.684   0.170   5.300  0.2695  0.4631  1.0134
  880MOL0     C16041   5.551   0.223   5.258  0.0280 -0.2599 -0.0158
  880MOL0     C16042   5.469   0.302   5.361  0.2826  0.1853 -0.8093
  880MOL0     C16043   5.323   0.288   5.333  0.1031 -0.2726 -0.1500
  880MOL0     C16044   5.286   0.347   5.201  1.0453  0.0421 -0.3031
  880MOL0     N16045   5.148   0.317   5.173  0.5911  0.3727  0.3129
  880MOL0     C16046   5.116   0.184   5.147 -0.7391 -0.7447 -0.1013
  880MOL0     C16047   4.979   0.187   5.141 -0.1742  0.1287  1.1485
  880MOL0     C16048   4.883   0.067   5.119  0.0044 -0.4214 -0.8877
  880MOL0     C16049   4.892  -0.016   5.253  0.3344 -0.0391  0.1293
  880MOL0     C16050   4.778  -0.122   5.270  0.2138 -0.6986  0.3773
  880MOL0     C16051   4.780  -0.207   5.388  0.6362 -0.5293  0.2245
  880MOL0     O16052   4.914  -0.236   5.421  0.1270  0.0240 -0.0383
  880MOL0     C16053   4.976  -0.339   5.360 -0.0258  0.4928 -0.3469
  880MOL0     C16054   5.108  -0.349   5.407  0.4357 -0.3779 -0.1673
  880MOL0     C16055   5.196  -0.448   5.355 -0.6175  0.4687 -0.1677
  880MOL0     C16056   5.147  -0.545   5.264 -0.2568  0.1216  0.6082
  880MOL0     C16057   5.236  -0.657   5.212  0.0916 -0.8329 -0.2323
  880MOL0     O16058   5.368  -0.645   5.240 -0.0328  0.2535  0.3244
  880MOL0     C16059   5.448  -0.747   5.193  0.3494 -1.0539  0.1356
  880MOL0     C16060   5.456  -0.855   5.277 -0.0306 -0.4200 -0.7281
  880MOL0     C16061   5.544  -0.958   5.246  0.0327 -0.4510 -0.0150
  880MOL0     C16062   5.636  -0.938   5.136 -0.4931  0.0949 -0.4830
  880MOL0     O16063   5.714  -1.043   5.097 -0.1316 -0.4073  0.1388
  880MOL0     C16064   5.852  -1.016   5.067  0.4651  0.0855  1.1300
  880MOL0     C16065   5.918  -1.151   5.045 -0.7817 -0.0229  0.4363
  880MOL0     C16066   6.069  -1.143   5.070 -0.2850 -0.0917  0.1148
  880MOL0     C16067   6.153  -1.051   4.987 -0.9336  0.5075 -0.4317
  880MOL0     C16068   6.173  -1.091   4.830  0.1518 -0.3979  0.2327
  880MOL0     C16069   6.269  -0.996   4.750  0.2938 -0.1140 -0.3615
  880MOL0     C16070   6.408  -1.030   4.799 -0.2948  0.7690 -0.1773
  880MOL0     C16071   6.504  -0.971   4.701  0.0438 -0.3205  0.0177
  880MOL0    Cl16072   6.675  -0.989   4.750  0.2380  0.0683  0.0888
  880MOL0     C16073   5.620  -0.824   5.058  0.2182 -0.5159 -0.4476
  880MOL0     C16074   5.532  -0.728   5.090  0.2376  0.5834 -0.1660
  880MOL0     O16075   5.174  -0.746   5.156 -0.3465  0.4233 -0.2923
  880MOL0     C16076   5.010  -0.536   5.228  0.4153  0.0750 -0.7543
  880MOL0     C16077   4.926  -0.431   5.272  0.2367  0.0063 -0.4442
  880MOL0     N16078   4.938   0.319   5.171  0.7787 -0.9440  0.0650
  880MOL0     N16079   5.039   0.394   5.197  0.4967  0.2325  0.2151
  880MOL0     C16080   6.366   0.211   5.559 -0.6259 -0.2654  0.0701
  880MOL0     C16081   6.471   0.259   5.639 -0.0671  0.0338  0.1677
  880MOL0     C16082   6.770   0.562   5.810  0.1254 -0.6419  0.5084
  880MOL0     C16083   6.841   0.681   5.786 -0.4256 -0.5258  0.0494
  880MOL0     C16084   6.936   0.735   5.872 -0.5403  0.4164 -0.8163
  880MOL0     C16085   6.953   0.674   5.996 -0.4138  0.2248 -0.4115
  880MOL0     O16086   7.037   0.729   6.091  0.5567  0.0205  0.8786
  880MOL0     C16087   7.117   0.651   6.182  0.2118 -0.3169 -0.1933
  880MOL0     C16088   7.230   0.718   6.256  1.0570  0.2100  0.1603
  880MOL0     C16089   7.162   0.822   6.349  0.4189  0.2785 -0.0337
  880MOL0     C16090   7.099   0.750   6.472  0.9044 -0.4234 -1.3298
  880MOL0     C16091   7.207   0.705   6.560  0.7341 -0.0654  0.8051
  880MOL0     C16092   7.293   0.657   6.630  0.0342  0.7336 -0.1040
  880MOL0     C16093   6.878   0.568   6.034  0.3744  0.8935  0.3892
  880MOL0     C16094   6.789   0.512   5.933  0.7036  0.2303 -0.4410
  880MOL0     H16095   6.353   0.564   5.697  1.5734  0.4367 -0.3350
  880MOL0     H16096   6.163   0.477   5.551 -0.9029  0.1540  2.7577
  880MOL0     H16097   6.062   0.369   5.316  2.1462  1.4011  1.2486
  880MOL0     H16098   5.988   0.367   5.478  0.5945 -0.1576  0.4254
  880MOL0     H16099   5.896   0.141   5.435  1.7639 -0.3713  1.9601
  880MOL0     H16100   5.961   0.146   5.267 -1.9572 -1.2998  0.0416
  880MOL0     H16101   5.799   0.344   5.253  0.7288  0.1940 -0.1873
  880MOL0     H16102   5.766   0.316   5.427  1.7731  1.6150 -0.7064
  880MOL0     H16103   5.723   0.102   5.223  1.1697  1.2557  0.7416
  880MOL0     H16104   5.678   0.100   5.384 -1.8803  2.0172  2.2583
  880MOL0     H16105   5.490   0.139   5.223  0.0430 -0.1091 -0.4059
  880MOL0     H16106   5.565   0.285   5.169 -1.3814  0.7248  0.4272
  880MOL0     H16107   5.500   0.406   5.375 -2.9242  0.8993  2.1652
  880MOL0     H16108   5.494   0.249   5.453 -0.2337 -1.9452 -1.8337
  880MOL0     H16109   5.290   0.184   5.348 -1.3687  0.1733 -0.1432
  880MOL0     H16110   5.261   0.342   5.406 -1.6254 -0.3873 -1.4645
  880MOL0     H16111   5.349   0.300   5.124  0.6567 -0.1134 -0.5324
  880MOL0     H16112   5.302   0.455   5.197 -0.7952  0.4280  1.2520
  880MOL0     H16113   5.180   0.097   5.136 -0.4016 -0.5589  0.3723
  880MOL0     H16114   4.910  -0.003   5.039  5.6684 -0.4903  0.6111
  880MOL0     H16115   4.787   0.117   5.102 -1.1069 -2.8522 -2.2787
  880MOL0     H16116   4.899   0.051   5.339  0.8999  0.5972 -0.4109
  880MOL0     H16117   4.984  -0.076   5.253 -0.8307 -1.9329  0.9477
  880MOL0     H16118   4.676  -0.086   5.254 -0.2466 -3.0234 -2.9148
  880MOL0     H16119   4.794  -0.183   5.181  0.7545 -2.0910  1.4030
  880MOL0     H16120   4.728  -0.300   5.368  1.8140 -0.9538 -1.0375
  880MOL0     H16121   4.731  -0.151   5.468 -2.0552 -1.9765 -0.3111
  880MOL0     H16122   5.142  -0.279   5.483  0.2826  1.0560 -1.3679
  880MOL0     H16123   5.300  -0.448   5.387 -0.4753  1.5798 -0.5663
  880MOL0     H16124   5.387  -0.861   5.361 -1.6428 -1.6373 -2.0671
  880MOL0     H16125   5.548  -1.048   5.306  2.6188 -0.5948 -0.3032
  880MOL0     H16126   5.895  -0.955   5.147  0.8819 -0.2929  1.1977
  880MOL0     H16127   5.856  -0.956   4.976  0.5320  1.0571  1.7538
  880MOL0     H16128   5.877  -1.181   4.949 -1.4823  0.2754  0.6300
  880MOL0     H16129   5.885  -1.220   5.124 -1.3187  0.2953  0.4964
  880MOL0     H16130   6.101  -1.246   5.052 -1.5508 -0.3033 -1.0995
  880MOL0     H16131   6.076  -1.113   5.174 -0.2598 -2.1017  0.7371
  880MOL0     H16132   6.112  -0.950   4.977 -0.4321  0.7106 -0.4355
  880MOL0     H16133   6.254  -1.050   5.029 -0.2821 -0.4226 -1.8790
  880MOL0     H16134   6.081  -1.088   4.771 -0.1713  1.6505  0.7773
  880MOL0     H16135   6.199  -1.196   4.813  0.4832 -0.4454  0.9832
  880MOL0     H16136   6.237  -0.893   4.769  0.7451 -0.1486  0.6188
  880MOL0     H16137   6.270  -1.024   4.644  0.7484 -1.1548 -0.0916
  880MOL0     H16138   6.434  -0.998   4.900  2.2653 -4.3066  1.1295
  880MOL0     H16139   6.426  -1.138   4.808  2.3844  1.1876  0.2785
  880MOL0     H16140   6.485  -0.866   4.677  0.3521 -0.2511  0.0719
  880MOL0     H16141   6.495  -1.024   4.606  2.8504 -0.0810 -0.4727
  880MOL0     H16142   5.683  -0.800   4.974  0.0878  2.7264  0.2288
  880MOL0     H16143   5.529  -0.636   5.033  0.8232 -0.0727 -1.2796
  880MOL0     H16144   4.972  -0.610   5.158 -0.0126  1.0134 -1.5422
  880MOL0     H16145   4.825  -0.421   5.233  0.1529  2.3803  0.2118
  880MOL0     H16146   6.366   0.110   5.520 -2.1579 -0.2006 -0.1938
  880MOL0     H16147   6.562   0.205   5.665 -0.2920  0.6854  2.5793
  880MOL0     H16148   6.828   0.745   5.699 -3.2043  1.6044  1.8537
  880MOL0     H16149   6.995   0.817   5.833  0.0034  0.3141 -0.2155
  880MOL0     H16150   7.164   0.577   6.118  3.3123  1.2229  0.0856
  880MOL0     H16151   7.054   0.593   6.250 -2.5680  1.0140 -1.4719
  880MOL0     H16152   7.289   0.640   6.306  0.3154 -1.5170 -1.5116
  880MOL0     H16153   7.302   0.770   6.192  1.2434 -0.5548 -0.2774
  880MOL0     H16154   7.087   0.887   6.303 -0.3114 -0.9939 -0.6868
  880MOL0     H16155   7.239   0.888   6.391  0.1591 -0.7071  2.0706
  880MOL0     H16156   7.028   0.820   6.515  3.1780  1.2448 -0.0698
  880MOL0     H16157   7.040   0.662   6.443 -1.2062  0.0820  1.0587
  880MOL0     H16158   7.366   0.611   6.693  1.6197  2.3355 -0.7170
  880MOL0     H16159   6.877   0.527   6.135  2.5114 -0.2293  0.0380
  880MOL0     H16160   6.742   0.417   5.954  0.8903 -0.1908 -1.8397
  881MOL0     O16161   0.859  10.626   3.098  0.6227  0.3486 -0.8392
  881MOL0     C16162   0.924  10.671   3.001  0.0614 -0.3035 -0.3410
  881MOL0     O16163   0.876  10.727   2.890  0.7098 -0.1611 -0.1152
  881MOL0     C16164   0.741  10.732   2.854  0.1399 -0.0780  0.3861
  881MOL0     C16165   0.719  10.798   2.730  0.7456  0.2488 -0.7165
  881MOL0     C16166   0.590  10.821   2.683  0.9661  0.7664 -0.3531
  881MOL0     C16167   0.484  10.763   2.748  0.7458  0.2205  0.1069
  881MOL0     O16168   0.360  10.762   2.701  0.5673  0.4444 -0.6752
  881MOL0     C16169   0.335  10.772   2.563  0.6734  0.3385 -0.9618
  881MOL0     C16170   0.183  10.756   2.545 -0.3142 -0.1335 -0.8127
  881MOL0     C16171   0.092  10.876   2.536  0.9097 -0.3053  0.7184
  881MOL0     C16172   0.110  10.958   2.407  0.0725 -1.0400 -0.2409
  881MOL0     C16173   0.060  11.108   2.422  0.1163  0.2935  0.7170
  881MOL0     C16174   0.133  11.194   2.534  0.3004 -0.0784 -0.1319
  881MOL0     C16175   0.126  11.349   2.533 -0.1400  0.3954 -0.7973
  881MOL0     C16176  -0.024  11.397   2.544 -0.7771  0.3270 -0.2521
  881MOL0     N16177  -0.100  11.352   2.664 -1.1712  0.3152  0.0046
  881MOL0     C16178  -0.069  11.400   2.786  0.2618  0.6100 -0.2203
  881MOL0     C16179  -0.155  11.336   2.875  0.1600  0.2133  0.6312
  881MOL0     C16180  -0.140  11.360   3.022  0.0466 -0.1770  0.2794
  881MOL0     C16181  -0.225  11.481   3.065  0.2575 -0.1176 -0.0098
  881MOL0     C16182  -0.213  11.508   3.219 -0.2385  0.5837 -0.1776
  881MOL0     C16183  -0.307  11.633   3.254  0.9237  0.7479  0.4411
  881MOL0     O16184  -0.297  11.666   3.397  0.4572  0.3877 -0.2517
  881MOL0     C16185  -0.379  11.754   3.447 -0.4845  0.2571 -0.3439
  881MOL0     C16186  -0.462  11.841   3.378  0.1478 -0.5457 -0.5796
  881MOL0     C16187  -0.548  11.927   3.448  0.2130  0.6309  0.5194
  881MOL0     C16188  -0.548  11.929   3.590 -0.4427 -0.1328 -0.1600
  881MOL0     C16189  -0.641  12.007   3.661 -1.0726 -0.5228  0.6075
  881MOL0     O16190  -0.670  11.969   3.788 -0.6252 -0.1835 -0.1804
  881MOL0     C16191  -0.769  12.037   3.854  0.7537 -0.7209 -0.3066
  881MOL0     C16192  -0.897  11.991   3.847  0.1570  0.5297 -1.3793
  881MOL0     C16193  -1.009  12.064   3.903 -0.6195 -0.3770  0.3185
  881MOL0     C16194  -0.982  12.192   3.970 -0.2771 -0.2228 -0.0379
  881MOL0     O16195  -1.082  12.268   4.027  0.6314  0.2187  0.4213
  881MOL0     C16196  -1.174  12.200   4.116 -0.3496 -0.4425 -0.5063
  881MOL0     C16197  -1.300  12.294   4.136  0.1272 -0.3283  0.3521
  881MOL0     C16198  -1.411  12.237   4.227  0.2289  0.5782 -0.1714
  881MOL0     C16199  -1.526  12.334   4.241 -0.2459 -0.1064  0.1586
  881MOL0     C16200  -1.499  12.443   4.354  0.0614 -0.2312 -0.7500
  881MOL0     C16201  -1.636  12.488   4.403  1.1418  0.7418  0.2063
  881MOL0     C16202  -1.624  12.603   4.502 -0.6639  0.2566  0.2371
  881MOL0     C16203  -1.757  12.652   4.560  0.8267 -0.2095  0.5897
  881MOL0    Cl16204  -1.827  12.764   4.439  0.2755 -0.0889  0.3104
  881MOL0     C16205  -0.847  12.229   3.988 -0.4574 -0.6525 -0.0939
  881MOL0     C16206  -0.749  12.157   3.931  0.0637 -0.5528 -0.8238
  881MOL0     O16207  -0.694  12.101   3.603 -0.5469 -0.0075  0.6094
  881MOL0     C16208  -0.453  11.849   3.660  0.4251 -0.8075 -0.8125
  881MOL0     C16209  -0.374  11.764   3.588  0.1293  0.0603 -0.1883
  881MOL0     N16210  -0.237  11.254   2.801  0.0143 -0.3191 -0.1335
  881MOL0     N16211  -0.204  11.264   2.672  0.2734  0.1097 -0.7227
  881MOL0     C16212   0.502  10.697   2.865 -0.4836  0.9229 -0.2821
  881MOL0     C16213   0.627  10.682   2.917 -0.1272  0.1768 -0.9847
  881MOL0     C16214   1.070  10.659   3.003  0.4590  0.2897  0.4362
  881MOL0     C16215   1.140  10.619   3.116  0.5395  0.1220 -0.0546
  881MOL0     C16216   1.281  10.612   3.118 -0.5816  0.8220 -0.1227
  881MOL0     C16217   1.359  10.635   3.007 -0.5650  0.2294  0.9480
  881MOL0     O16218   1.499  10.627   3.017  0.0742 -0.0611 -0.3008
  881MOL0     C16219   1.577  10.650   3.142  0.3211  0.5632 -0.0004
  881MOL0     C16220   1.721  10.689   3.109  0.0764  0.3056 -0.2178
  881MOL0     C16221   1.793  10.578   3.021  0.7849  0.2746 -0.6195
  881MOL0     C16222   1.942  10.627   2.996  0.1713  0.2388 -0.0075
  881MOL0     C16223   1.953  10.767   2.937  0.1600 -0.0275 -0.4662
  881MOL0     C16224   1.931  10.876   2.887 -0.3850 -0.5127 -0.1541
  881MOL0     C16225   1.295  10.676   2.888  0.0267  0.3411  0.3294
  881MOL0     C16226   1.154  10.691   2.889  0.3072 -0.1139 -0.5500
  881MOL0     H16227   0.796  10.842   2.667  1.5526  0.0294  0.0985
  881MOL0     H16228   0.578  10.879   2.592 -0.7080  0.5818 -0.2799
  881MOL0     H16229   0.385  10.697   2.502 -1.3318 -1.4903 -0.4520
  881MOL0     H16230   0.371  10.870   2.531  0.4450 -0.2022 -2.9915
  881MOL0     H16231   0.145  10.688   2.622 -0.3100 -1.1294 -1.6817
  881MOL0     H16232   0.170  10.708   2.448 -1.4562  0.9400 -1.2120
  881MOL0     H16233   0.104  10.941   2.623  3.0555  0.1568  0.1387
  881MOL0     H16234  -0.010  10.836   2.541 -0.1627  2.0280 -0.8551
  881MOL0     H16235   0.216  10.979   2.390  0.9015  1.5676  5.5917
  881MOL0     H16236   0.054  10.900   2.333 -0.3218 -1.8873  0.6998
  881MOL0     H16237  -0.047  11.109   2.440  0.3012  2.0565  1.9444
  881MOL0     H16238   0.089  11.170   2.336  1.3556  2.6138  2.6919
  881MOL0     H16239   0.240  11.175   2.521  0.4057  1.3010 -1.7087
  881MOL0     H16240   0.094  11.153   2.628 -1.0389  0.0243 -0.6215
  881MOL0     H16241   0.179  11.395   2.617 -0.6736 -0.6193  0.1187
  881MOL0     H16242   0.165  11.389   2.439  0.1724 -0.4817 -1.0464
  881MOL0     H16243  -0.066  11.357   2.451  2.2503 -1.9523 -0.7666
  881MOL0     H16244  -0.025  11.506   2.539  4.1284  0.5114 -2.4055
  881MOL0     H16245   0.011  11.472   2.794  3.4003 -2.1101 -3.4539
  881MOL0     H16246  -0.036  11.375   3.052  0.0130 -1.0800  0.8635
  881MOL0     H16247  -0.170  11.274   3.083  0.6192 -0.7719 -0.2604
  881MOL0     H16248  -0.333  11.464   3.061  0.3105 -0.4382 -0.0811
  881MOL0     H16249  -0.200  11.570   3.006 -0.7669  0.3393  0.2156
  881MOL0     H16250  -0.235  11.428   3.291  1.0779 -0.8147 -1.2510
  881MOL0     H16251  -0.107  11.529   3.241 -0.3544 -1.2443  2.7935
  881MOL0     H16252  -0.410  11.603   3.233  0.8196  2.0270 -1.0503
  881MOL0     H16253  -0.283  11.721   3.194 -1.3866  1.9610  1.1895
  881MOL0     H16254  -0.474  11.847   3.271 -1.1805  1.2627 -0.3829
  881MOL0     H16255  -0.625  11.982   3.395  0.3859  0.7371  0.3744
  881MOL0     H16256  -0.913  11.900   3.791  1.6705 -1.6534  1.3992
  881MOL0     H16257  -1.109  12.035   3.872  0.3689 -1.1228 -2.4924
  881MOL0     H16258  -1.133  12.184   4.216  0.0385  0.1424 -0.5702
  881MOL0     H16259  -1.197  12.098   4.082  1.7530 -0.7451 -1.1817
  881MOL0     H16260  -1.354  12.321   4.045 -1.7473  2.0184  2.0203
  881MOL0     H16261  -1.260  12.379   4.192  4.0438 -2.3611  1.0065
  881MOL0     H16262  -1.371  12.193   4.320  0.6283  0.8065 -0.2348
  881MOL0     H16263  -1.458  12.148   4.184  0.1781  0.0375  0.9612
  881MOL0     H16264  -1.547  12.385   4.146 -1.6632  0.1564  0.6014
  881MOL0     H16265  -1.616  12.281   4.271 -0.6436  1.3525  1.6922
  881MOL0     H16266  -1.444  12.523   4.304  1.3145 -0.8711 -0.4262
  881MOL0     H16267  -1.433  12.412   4.435 -1.1891  1.6588  1.0958
  881MOL0     H16268  -1.695  12.405   4.442  0.1689  1.2697 -0.1155
  881MOL0     H16269  -1.687  12.519   4.312  1.9913  3.3839  0.5488
  881MOL0     H16270  -1.553  12.558   4.572 -0.7281 -1.7101 -0.9061
  881MOL0     H16271  -1.585  12.690   4.449 -1.1335 -0.3807 -1.2002
  881MOL0     H16272  -1.735  12.717   4.645 -0.1197 -0.6350  1.1782
  881MOL0     H16273  -1.832  12.576   4.584 -3.0506  2.1917 -2.5932
  881MOL0     H16274  -0.823  12.315   4.050 -1.5696 -0.6100  0.2959
  881MOL0     H16275  -0.648  12.194   3.947  0.5117 -1.2986 -1.8603
  881MOL0     H16276  -0.446  11.866   3.767 -2.6015  1.6596 -0.8822
  881MOL0     H16277  -0.293  11.709   3.636  1.8175  0.5691 -2.2922
  881MOL0     H16278   0.419  10.646   2.913  2.3016 -3.9883  0.0188
  881MOL0     H16279   0.637  10.633   3.013  0.8394  3.8389  0.9706
  881MOL0     H16280   1.083  10.599   3.206  1.6066 -2.1859  0.2086
  881MOL0     H16281   1.326  10.584   3.213  1.7955  2.1306 -0.7958
  881MOL0     H16282   1.576  10.564   3.210 -1.0376  0.6558  0.1176
  881MOL0     H16283   1.525  10.731   3.195 -0.9631 -0.2715  0.0654
  881MOL0     H16284   1.713  10.783   3.055 -2.9072 -1.9809 -4.3079
  881MOL0     H16285   1.781  10.716   3.196 -1.6298  0.5043  0.9425
  881MOL0     H16286   1.739  10.555   2.929 -0.2461 -0.2875  0.1089
  881MOL0     H16287   1.800  10.482   3.073  1.4224  0.6650  0.0186
  881MOL0     H16288   2.003  10.614   3.086 -2.1190  1.5443  1.8682
  881MOL0     H16289   1.990  10.565   2.920  3.3011  0.5046  1.5832
  881MOL0     H16290   1.911  10.968   2.836  0.5103 -0.8125 -1.0730
  881MOL0     H16291   1.354  10.707   2.802  3.4834 -2.3958  1.4417
  881MOL0     H16292   1.106  10.725   2.798  1.5478  0.1223 -1.1329
  882MOL0     O16293   9.987   8.209   4.992 -0.4364 -0.5215  0.6907
  882MOL0     C16294  10.016   8.119   5.072  0.2122  0.6798 -0.7711
  882MOL0     O16295   9.926   8.031   5.120 -0.1889 -0.5986  0.5566
  882MOL0     C16296   9.802   8.020   5.059  0.2912 -0.5032 -0.3099
  882MOL0     C16297   9.764   7.909   4.990 -0.5425  0.2600  0.0224
  882MOL0     C16298   9.642   7.892   4.931 -0.7056  0.3875  0.0989
  882MOL0     C16299   9.552   7.996   4.928  0.5265  0.4733 -0.0107
  882MOL0     O16300   9.433   7.983   4.861 -0.6754  0.5714 -0.0955
  882MOL0     C16301   9.317   8.027   4.929  0.5720  0.3582 -0.7043
  882MOL0     C16302   9.184   7.970   4.885 -0.8320 -0.7562  0.0849
  882MOL0     C16303   9.155   7.818   4.916 -0.3598 -0.4128  0.0567
  882MOL0     C16304   9.007   7.785   4.863 -0.0689 -0.0072 -0.1645
  882MOL0     C16305   8.964   7.643   4.898  0.0990 -0.2564  0.6555
  882MOL0     C16306   8.818   7.602   4.864  0.0484 -0.5319 -0.1919
  882MOL0     C16307   8.766   7.462   4.920  0.1191 -0.0664 -0.2884
  882MOL0     C16308   8.631   7.474   5.002  0.3873  0.5342 -0.5606
  882MOL0     N16309   8.602   7.342   5.061  0.7669  0.7495  0.6675
  882MOL0     C16310   8.563   7.234   4.990  0.1461  0.4217  0.8734
  882MOL0     C16311   8.544   7.147   5.090 -0.2200 -0.2559  0.4981
  882MOL0     C16312   8.499   7.010   5.064  1.0664  0.3949  0.3399
  882MOL0     C16313   8.355   7.019   5.089  0.7222 -0.2493  0.0364
  882MOL0     C16314   8.297   6.881   5.090 -1.0572 -0.3184  0.0082
  882MOL0     C16315   8.144   6.881   5.087  0.1533  0.1354 -0.3014
  882MOL0     O16316   8.114   6.910   5.225 -0.4702 -0.0343  0.0249
  882MOL0     C16317   7.981   6.921   5.252 -0.3706  0.7437  0.1993
  882MOL0     C16318   7.865   6.877   5.182 -0.7295 -0.7450 -0.0321
  882MOL0     C16319   7.734   6.880   5.232 -0.7540  0.3527  0.4653
  882MOL0     C16320   7.716   6.925   5.364  0.4055  0.7414 -0.1795
  882MOL0     C16321   7.584   6.917   5.420  0.3272 -0.2248  0.7520
  882MOL0     O16322   7.490   6.890   5.333  0.5740 -0.2054  0.0924
  882MOL0     C16323   7.357   6.910   5.347  0.4671  0.6059  0.1187
  882MOL0     C16324   7.307   7.011   5.435 -0.6745  0.4739 -0.0376
  882MOL0     C16325   7.170   7.031   5.437 -0.3586  0.3756  0.1514
  882MOL0     C16326   7.077   6.944   5.372 -0.3762 -0.5044 -0.0495
  882MOL0     O16327   6.943   6.957   5.390  0.1973 -0.4293 -0.4017
  882MOL0     C16328   6.884   7.090   5.402 -0.3885  0.2240  0.5467
  882MOL0     C16329   6.735   7.089   5.365 -0.5882 -0.3944 -0.4243
  882MOL0     C16330   6.660   6.985   5.451 -0.7043  1.0144 -0.3203
  882MOL0     C16331   6.512   7.002   5.452  0.6055  0.2638 -0.3776
  882MOL0     C16332   6.442   6.879   5.500  0.8170 -0.3746  0.6783
  882MOL0     C16333   6.296   6.875   5.455  0.0935  0.6572  0.1285
  882MOL0     C16334   6.228   6.742   5.509  0.0851  0.5435  0.0268
  882MOL0     C16335   6.081   6.751   5.497  0.0470  0.0989 -0.0110
  882MOL0    Cl16336   5.999   6.859   5.609 -0.1505  0.0698  0.1183
  882MOL0     C16337   7.135   6.842   5.293 -0.8011  0.0869  0.4114
  882MOL0     C16338   7.275   6.827   5.276 -0.0262 -0.9276  0.3024
  882MOL0     O16339   7.568   6.951   5.539 -0.7641 -0.0253 -0.0678
  882MOL0     C16340   7.822   6.998   5.429  0.4844  0.3464 -0.1307
  882MOL0     C16341   7.948   6.985   5.379  0.2031 -0.8225  0.1778
  882MOL0     N16342   8.580   7.199   5.212 -0.1423 -0.0607  0.5725
  882MOL0     N16343   8.611   7.319   5.197  0.0340  0.3173  0.5376
  882MOL0     C16344   9.575   8.117   4.995  0.2562  0.0609 -0.1063
  882MOL0     C16345   9.698   8.118   5.069 -0.3589 -0.4273  0.0417
  882MOL0     C16346  10.157   8.119   5.125 -0.1013  0.4728  0.5729
  882MOL0     C16347  10.251   8.214   5.085 -0.5470  0.1246 -0.0968
  882MOL0     C16348  10.378   8.218   5.139  0.1038  0.4777  0.2338
  882MOL0     C16349  10.428   8.119   5.222  0.3945  0.0432 -0.7854
  882MOL0     O16350  10.549   8.132   5.283 -0.4440  0.1794  0.1010
  882MOL0     C16351  10.582   8.048   5.392  0.4453 -0.5320 -0.5419
  882MOL0     C16352  10.721   8.072   5.442  0.1243  0.2804 -0.2010
  882MOL0     C16353  10.817   8.027   5.333  0.1253 -0.8047  0.2725
  882MOL0     C16354  10.942   7.988   5.404 -0.1137  0.3949 -0.8202
  882MOL0     C16355  11.018   8.101   5.455  0.3945  1.3919 -0.5659
  882MOL0     C16356  11.085   8.198   5.470  0.2315  0.2713 -0.0311
  882MOL0     C16357  10.340   8.014   5.244  0.6025 -0.1654 -0.5338
  882MOL0     C16358  10.209   8.014   5.199  0.2325  0.0015  0.9743
  882MOL0     H16359   9.838   7.830   4.994  0.6439  1.3257 -0.3626
  882MOL0     H16360   9.611   7.803   4.877 -0.4208  1.1114 -1.2938
  882MOL0     H16361   9.315   8.135   4.910  0.0194 -0.0150 -3.0997
  882MOL0     H16362   9.319   7.999   5.034 -2.0456  0.1348 -0.6613
  882MOL0     H16363   9.178   8.002   4.780 -1.1769 -3.4744 -0.7992
  882MOL0     H16364   9.109   8.028   4.939 -2.0500  1.5562 -3.6520
  882MOL0     H16365   9.167   7.808   5.024 -0.1798 -2.8204 -0.1298
  882MOL0     H16366   9.228   7.761   4.858 -1.3687 -2.1085  0.3584
  882MOL0     H16367   8.934   7.845   4.918 -0.8901  0.3304 -1.5976
  882MOL0     H16368   8.999   7.793   4.755  3.2423 -1.3042 -0.6391
  882MOL0     H16369   8.975   7.623   5.006  0.9104 -1.1946  0.4167
  882MOL0     H16370   9.028   7.574   4.842 -0.3011 -1.3064  1.4363
  882MOL0     H16371   8.803   7.617   4.757 -0.3677  1.7671  0.1471
  882MOL0     H16372   8.765   7.685   4.911 -1.1108 -1.0859 -0.4786
  882MOL0     H16373   8.773   7.402   4.829  1.1618  0.3062 -0.4671
  882MOL0     H16374   8.838   7.427   4.994 -1.6458  0.3865  1.7390
  882MOL0     H16375   8.547   7.507   4.940 -0.4954  0.7793  0.7249
  882MOL0     H16376   8.645   7.549   5.080 -1.7896 -1.1316  1.5666
  882MOL0     H16377   8.552   7.208   4.885  1.5489 -3.3206  1.4896
  882MOL0     H16378   8.540   6.933   5.129 -2.9515 -2.5585 -0.2048
  882MOL0     H16379   8.528   6.977   4.964  2.6592 -0.4421  1.0554
  882MOL0     H16380   8.309   7.076   5.008  1.4086 -0.4672 -0.5150
  882MOL0     H16381   8.337   7.064   5.187  0.1128  1.1550 -0.7033
  882MOL0     H16382   8.329   6.822   5.004 -0.8046 -0.7952  0.4221
  882MOL0     H16383   8.341   6.835   5.179 -1.4199 -1.5746 -0.4436
  882MOL0     H16384   8.094   6.785   5.070 -0.6137  0.4063  0.3511
  882MOL0     H16385   8.115   6.955   5.011 -1.2648  0.9128  0.9343
  882MOL0     H16386   7.875   6.816   5.094 -0.0022  1.1422 -1.3204
  882MOL0     H16387   7.653   6.843   5.170 -0.8384  1.2644  0.0283
  882MOL0     H16388   7.377   7.071   5.492  1.1994  0.0433 -1.7244
  882MOL0     H16389   7.125   7.107   5.500  1.3523 -0.0612  2.0031
  882MOL0     H16390   6.932   7.152   5.327 -1.8755 -0.3309 -0.9265
  882MOL0     H16391   6.907   7.131   5.501  1.5344 -2.0978  1.1806
  882MOL0     H16392   6.727   7.060   5.260 -0.6899 -0.7766 -0.3113
  882MOL0     H16393   6.690   7.186   5.389  1.1075  0.0330  1.2716
  882MOL0     H16394   6.682   6.989   5.558  0.8873  1.6720 -0.6404
  882MOL0     H16395   6.684   6.880   5.429  0.7927  0.9857  1.2567
  882MOL0     H16396   6.485   7.080   5.524  0.0667 -0.8648  0.6925
  882MOL0     H16397   6.483   7.037   5.352  3.3149  1.0041 -0.9651
  882MOL0     H16398   6.447   6.869   5.609  2.0244 -0.3713  0.6398
  882MOL0     H16399   6.485   6.786   5.462 -0.9245 -1.0190  0.2209
  882MOL0     H16400   6.299   6.880   5.346 -0.9903 -2.6872 -0.1624
  882MOL0     H16401   6.249   6.965   5.497  0.2102  0.0843  1.5563
  882MOL0     H16402   6.273   6.661   5.451 -0.1318 -0.5632  1.3631
  882MOL0     H16403   6.253   6.726   5.615 -2.8760  0.5359  0.8329
  882MOL0     H16404   6.034   6.652   5.510 -0.3302  0.5372  2.6012
  882MOL0     H16405   6.057   6.799   5.402  1.7316  1.6538  0.2910
  882MOL0     H16406   7.066   6.769   5.252 -0.0817  0.5549 -1.7611
  882MOL0     H16407   7.321   6.755   5.209  1.8486 -0.7665  1.3333
  882MOL0     H16408   7.808   7.047   5.526  2.1750 -2.8611  1.9150
  882MOL0     H16409   8.024   7.035   5.438 -1.9116  1.0117  1.5072
  882MOL0     H16410   9.510   8.203   5.006  0.7010  0.1681  2.4614
  882MOL0     H16411   9.725   8.212   5.117 -4.1772  0.3173  1.0484
  882MOL0     H16412  10.220   8.303   5.031 -1.1776 -1.0984 -1.8375
  882MOL0     H16413  10.440   8.302   5.109  0.7499 -0.3138 -0.7430
  882MOL0     H16414  10.563   7.941   5.382  0.9367 -0.6626 -0.1002
  882MOL0     H16415  10.515   8.088   5.468  0.8459 -0.4869 -0.2088
  882MOL0     H16416  10.747   8.175   5.470  0.3191  0.8690 -2.3836
  882MOL0     H16417  10.739   8.018   5.536  3.1511  1.3214 -0.0737
  882MOL0     H16418  10.821   8.102   5.254 -0.0052 -1.0217  0.0578
  882MOL0     H16419  10.773   7.939   5.284 -1.2823  1.2565 -2.4437
  882MOL0     H16420  10.924   7.916   5.484 -0.8194  0.2937 -1.0666
  882MOL0     H16421  11.019   7.946   5.338  2.2628 -0.6051  2.3423
  882MOL0     H16422  11.141   8.288   5.486 -0.0854  0.2789  1.1267
  882MOL0     H16423  10.355   7.921   5.296 -0.8862  0.0244  0.3092
  882MOL0     H16424  10.147   7.929   5.227  1.6155 -1.8444 -1.2236
  883MOL0     O16425   9.473   8.713   7.705  0.1579 -0.3744  0.4765
  883MOL0     C16426   9.530   8.802   7.767  0.3040  0.5383 -0.5835
  883MOL0     O16427   9.473   8.879   7.860  0.4102 -0.2709  0.1338
  883MOL0     C16428   9.342   8.884   7.877 -0.5648 -0.1257  0.1721
  883MOL0     C16429   9.252   8.897   7.770 -0.4253 -0.4961 -0.6547
  883MOL0     C16430   9.123   8.919   7.804  0.7423 -0.1044  0.6963
  883MOL0     C16431   9.070   8.900   7.930 -0.3241  0.1076 -0.3031
  883MOL0     O16432   8.935   8.921   7.958 -0.0823 -0.2427 -0.2238
  883MOL0     C16433   8.911   9.008   8.065 -0.1830  0.8928 -0.2349
  883MOL0     C16434   8.800   9.100   8.026 -0.2249 -0.7020 -0.4486
  883MOL0     C16435   8.676   9.020   7.962 -0.2167 -0.3748  0.1679
  883MOL0     C16436   8.553   9.100   7.930 -0.7384  0.3510  0.8775
  883MOL0     C16437   8.439   9.069   8.030  0.1002 -0.0864 -0.0802
  883MOL0     C16438   8.302   9.103   7.964 -0.6946 -0.8581 -0.3659
  883MOL0     C16439   8.187   9.073   8.054  0.6657 -0.1913  0.2937
  883MOL0     C16440   8.048   9.068   7.982  0.3304 -0.0465  0.2939
  883MOL0     N16441   7.952   9.004   8.071 -0.1367  0.0428 -0.0439
  883MOL0     C16442   7.889   9.063   8.184 -0.1163  0.5205  0.6492
  883MOL0     C16443   7.819   8.964   8.235  1.1080  0.3962  0.5160
  883MOL0     C16444   7.727   8.974   8.357 -0.3629  0.4977 -0.1593
  883MOL0     C16445   7.577   8.942   8.320  0.0888  0.7535 -0.6225
  883MOL0     C16446   7.506   8.924   8.456 -0.3076  0.1815  1.0222
  883MOL0     C16447   7.352   8.941   8.430 -0.4531  0.8687  0.3197
  883MOL0     O16448   7.277   8.911   8.554  0.0280  0.2240  0.8074
  883MOL0     C16449   7.143   8.943   8.548 -0.2165  0.1503  0.0464
  883MOL0     C16450   7.067   8.917   8.663  0.4578  0.4836 -0.3320
  883MOL0     C16451   6.928   8.929   8.670 -0.4405  0.4359  0.1235
  883MOL0     C16452   6.861   8.984   8.571  0.2916 -0.7171 -0.8632
  883MOL0     C16453   6.720   9.017   8.595 -0.7290  0.5336  0.2838
  883MOL0     O16454   6.672   9.117   8.512  0.1826  0.3204  0.3095
  883MOL0     C16455   6.546   9.172   8.538  0.0484  0.1327  0.2095
  883MOL0     C16456   6.440   9.142   8.454 -0.7222  0.5066 -0.6729
  883MOL0     C16457   6.309   9.193   8.482  0.4856 -0.6027 -0.1579
  883MOL0     C16458   6.292   9.283   8.591 -0.4458  0.1297 -0.0647
  883MOL0     O16459   6.168   9.340   8.589 -0.4586  0.3367  1.0312
  883MOL0     C16460   6.119   9.425   8.689  0.2470 -0.3200  0.1144
  883MOL0     C16461   5.992   9.482   8.635  0.0291 -0.7878  1.0161
  883MOL0     C16462   5.878   9.380   8.641 -0.0762 -0.2127 -0.6640
  883MOL0     C16463   5.753   9.462   8.603  0.5610  0.0294  0.2706
  883MOL0     C16464   5.628   9.385   8.629  0.3346  0.4034  0.5000
  883MOL0     C16465   5.500   9.449   8.577 -0.0917 -0.0290  0.1921
  883MOL0     C16466   5.375   9.357   8.602 -0.0216  0.3314 -0.1254
  883MOL0     C16467   5.255   9.389   8.506 -0.7892 -0.4292 -0.2659
  883MOL0    Cl16468   5.141   9.251   8.467  0.3236  0.4004  0.0811
  883MOL0     C16469   6.400   9.327   8.667 -0.2333  0.2309  0.4358
  883MOL0     C16470   6.521   9.269   8.644 -0.4233  0.3752  0.0243
  883MOL0     O16471   6.655   8.959   8.685  0.0069 -0.3002 -0.3322
  883MOL0     C16472   6.930   9.019   8.453 -0.1730 -0.3901 -0.6018
  883MOL0     C16473   7.071   8.999   8.439  0.5301  0.4800  0.0683
  883MOL0     N16474   7.842   8.854   8.167 -0.6748  0.7104  0.4757
  883MOL0     N16475   7.919   8.869   8.062  0.0804  0.4278  0.2406
  883MOL0     C16476   9.155   8.844   8.028 -0.7153  0.5015  0.5786
  883MOL0     C16477   9.290   8.840   7.999 -1.0759  0.3022  0.5047
  883MOL0     C16478   9.675   8.812   7.758  0.4817  0.3033  0.1047
  883MOL0     C16479   9.730   8.746   7.636  0.6964 -0.3881  0.0692
  883MOL0     C16480   9.874   8.742   7.618  0.0172 -0.5933  0.0205
  883MOL0     C16481   9.960   8.813   7.709 -0.8456 -0.2346 -0.2674
  883MOL0     O16482  10.097   8.802   7.716  0.0405  0.0200 -0.1389
  883MOL0     C16483  10.164   8.768   7.595 -0.0716 -0.7138 -0.1452
  883MOL0     C16484  10.318   8.774   7.616 -0.4242 -0.1482 -0.2440
  883MOL0     C16485  10.369   8.669   7.716 -0.2674  0.4771  0.1107
  883MOL0     C16486  10.377   8.701   7.861 -0.3016 -0.1057 -0.3514
  883MOL0     C16487  10.510   8.778   7.889  0.7308  0.1548 -0.8254
  883MOL0     C16488  10.618   8.823   7.900  0.2849 -0.1888 -0.6430
  883MOL0     C16489   9.899   8.881   7.821  0.0997 -0.9579 -0.0696
  883MOL0     C16490   9.760   8.885   7.846 -0.3564 -0.5043 -0.3881
  883MOL0     H16491   9.294   8.914   7.671  0.3534  1.3901 -0.0617
  883MOL0     H16492   9.058   8.962   7.729 -0.2595 -0.7643  1.1653
  883MOL0     H16493   9.001   9.057   8.106 -0.8258  0.6530  1.5516
  883MOL0     H16494   8.881   8.947   8.151  1.3339  1.8955  1.0855
  883MOL0     H16495   8.832   9.167   7.945 -7.2243  0.7450 -2.7426
  883MOL0     H16496   8.765   9.153   8.115 -1.6063  0.2985 -1.5479
  883MOL0     H16497   8.657   8.926   8.014 -1.1882 -0.6453 -0.6436
  883MOL0     H16498   8.716   8.985   7.867 -2.6953  1.3334 -1.6387
  883MOL0     H16499   8.572   9.208   7.921  0.2992  0.2389  1.4861
  883MOL0     H16500   8.523   9.066   7.831  3.1133 -0.4676 -0.1593
  883MOL0     H16501   8.451   9.146   8.107 -2.3804  0.4147 -0.1204
  883MOL0     H16502   8.432   8.968   8.071 -0.2952 -0.5521 -1.2399
  883MOL0     H16503   8.279   9.053   7.869 -0.1990  1.7524 -1.9596
  883MOL0     H16504   8.302   9.209   7.938 -1.0997 -0.2256  1.9695
  883MOL0     H16505   8.200   8.973   8.097 -1.3303  0.1230  1.8014
  883MOL0     H16506   8.175   9.142   8.138 -0.1804 -0.5488  0.4767
  883MOL0     H16507   8.051   9.002   7.895 -2.5377  1.0613 -0.7667
  883MOL0     H16508   8.023   9.172   7.958 -2.6783 -0.8774 -0.5922
  883MOL0     H16509   7.884   9.168   8.212 -0.4117  0.3914  1.0949
  883MOL0     H16510   7.738   9.081   8.375 -0.1405  1.1840 -3.6824
  883MOL0     H16511   7.759   8.920   8.446 -1.7383 -0.1622 -0.0215
  883MOL0     H16512   7.576   8.849   8.263 -0.1872  0.0607  0.4779
  883MOL0     H16513   7.536   9.024   8.261 -1.4040  0.6283  0.1983
  883MOL0     H16514   7.532   8.826   8.496  4.1391 -1.0130 -3.6412
  883MOL0     H16515   7.535   9.008   8.519  1.6482  0.5623 -0.2821
  883MOL0     H16516   7.330   8.863   8.357  0.9366 -0.1560  0.9438
  883MOL0     H16517   7.333   9.041   8.389 -0.3033  0.7860  0.0522
  883MOL0     H16518   7.110   8.876   8.754  3.1252  2.3983 -0.6358
  883MOL0     H16519   6.890   8.896   8.766  1.3513 -1.0318  0.3892
  883MOL0     H16520   6.453   9.073   8.371  0.1980  1.5760 -1.4484
  883MOL0     H16521   6.232   9.153   8.417  1.8525  1.4105 -3.2370
  883MOL0     H16522   6.195   9.501   8.711  0.8994 -0.7720 -0.5056
  883MOL0     H16523   6.107   9.363   8.778  1.6759 -1.8792 -0.7006
  883MOL0     H16524   6.011   9.503   8.529  0.8235 -2.9118  0.6935
  883MOL0     H16525   5.963   9.569   8.694  1.1734 -1.7210  3.0632
  883MOL0     H16526   5.861   9.346   8.744 -0.8027 -3.7163 -1.8040
  883MOL0     H16527   5.899   9.292   8.581 -0.7840 -2.6994  2.4509
  883MOL0     H16528   5.756   9.553   8.663 -2.3241  0.3442  0.0922
  883MOL0     H16529   5.750   9.483   8.496  3.3906 -0.2466  0.0664
  883MOL0     H16530   5.616   9.349   8.731  1.0560 -3.1929 -0.5500
  883MOL0     H16531   5.640   9.290   8.575 -1.2910 -0.5654  1.7649
  883MOL0     H16532   5.498   9.467   8.469  0.7697 -0.6684  0.0552
  883MOL0     H16533   5.485   9.547   8.622  0.3098  1.4462 -2.6084
  883MOL0     H16534   5.406   9.253   8.590 -0.9105  0.2761 -2.3614
  883MOL0     H16535   5.342   9.363   8.706 -1.5318  1.2286 -0.6234
  883MOL0     H16536   5.282   9.428   8.408  0.7611  1.7079  0.9282
  883MOL0     H16537   5.206   9.469   8.562  1.7241 -0.5918  2.4128
  883MOL0     H16538   6.385   9.397   8.748 -1.5331 -0.3306  0.7191
  883MOL0     H16539   6.611   9.298   8.699 -0.2787 -1.2351  0.7105
  883MOL0     H16540   6.881   9.062   8.366  0.2712  1.6874  0.1142
  883MOL0     H16541   7.123   9.018   8.346 -1.9890 -1.2607 -1.8527
  883MOL0     H16542   9.134   8.824   8.132  0.0020 -1.1000  0.4381
  883MOL0     H16543   9.353   8.805   8.080 -0.9680 -1.4278 -0.2613
  883MOL0     H16544   9.673   8.688   7.565 -0.1329 -1.4666  1.5709
  883MOL0     H16545   9.920   8.687   7.536  0.6546  0.3263 -0.2491
  883MOL0     H16546  10.138   8.841   7.517  2.2116  0.6313  0.2355
  883MOL0     H16547  10.128   8.670   7.564  0.2623 -0.9568  0.2160
  883MOL0     H16548  10.363   8.744   7.520  0.7919  1.3337 -0.1758
  883MOL0     H16549  10.364   8.867   7.650 -0.5532 -0.1081 -0.1794
  883MOL0     H16550  10.472   8.636   7.698 -0.3713 -0.8663  1.7794
  883MOL0     H16551  10.310   8.578   7.700  2.0834 -1.2006  0.5559
  883MOL0     H16552  10.285   8.752   7.891  0.7628  1.7278 -0.0449
  883MOL0     H16553  10.393   8.608   7.916  0.4451  1.6544  2.6029
  883MOL0     H16554  10.710   8.878   7.908  0.6243 -0.8870  0.4119
  883MOL0     H16555   9.963   8.925   7.896  0.5850 -0.3327 -0.8468
  883MOL0     H16556   9.735   8.942   7.935  1.0337 -0.8450  0.2654
  884MOL0     O16557   9.168  10.426   5.141  0.2054 -0.1596  0.5507
  884MOL0     C16558   9.183  10.305   5.169 -0.2752  0.0120  0.3485
  884MOL0     O16559   9.081  10.222   5.196 -1.0622 -0.7918  0.1057
  884MOL0     C16560   8.964  10.264   5.256 -0.5546 -0.3301  1.0497
  884MOL0     C16561   8.966  10.376   5.346 -0.0547  0.6259 -0.5494
  884MOL0     C16562   8.851  10.417   5.407 -0.2172 -0.4685 -0.2256
  884MOL0     C16563   8.732  10.348   5.379 -0.1264 -0.1677 -0.0687
  884MOL0     O16564   8.620  10.393   5.446  0.0507 -0.1075  0.0715
  884MOL0     C16565   8.532  10.292   5.509  0.1812 -0.0427  0.2249
  884MOL0     C16566   8.434  10.366   5.600 -0.2707  0.3638 -0.2402
  884MOL0     C16567   8.500  10.462   5.703 -0.0505 -0.4229  0.1001
  884MOL0     C16568   8.399  10.488   5.811 -0.5928 -0.4567  0.7133
  884MOL0     C16569   8.260  10.527   5.765 -0.1295 -0.1439 -1.1069
  884MOL0     C16570   8.247  10.653   5.677 -0.1159 -0.4473 -0.3619
  884MOL0     C16571   8.093  10.672   5.630  0.7615 -0.4607 -0.3449
  884MOL0     C16572   8.073  10.615   5.494  0.0809  0.2441  0.5459
  884MOL0     N16573   7.928  10.617   5.471 -0.0247 -0.1308 -0.4335
  884MOL0     C16574   7.838  10.723   5.479  0.2301  0.1647 -0.3822
  884MOL0     C16575   7.716  10.663   5.481 -0.0278 -0.1356 -0.0957
  884MOL0     C16576   7.588  10.744   5.476 -0.2704  0.7738  0.7639
  884MOL0     C16577   7.551  10.781   5.338 -0.6390 -1.1428  0.9901
  884MOL0     C16578   7.486  10.685   5.252  0.4396  0.6182  0.3260
  884MOL0     C16579   7.397  10.727   5.130  0.3695  0.0937  0.2731
  884MOL0     O16580   7.287  10.806   5.178 -0.1517 -0.5735 -0.8783
  884MOL0     C16581   7.164  10.798   5.127 -0.1411  0.1433  0.6245
  884MOL0     C16582   7.142  10.766   4.995  0.1432 -0.0553 -0.0223
  884MOL0     C16583   7.005  10.755   4.950 -0.5134 -0.4378 -0.2575
  884MOL0     C16584   6.895  10.796   5.037  0.1288  0.6500  0.4026
  884MOL0     C16585   6.764  10.814   4.982  0.1180 -0.0019 -0.2442
  884MOL0     O16586   6.658  10.799   5.063  0.7783  0.1737  0.1870
  884MOL0     C16587   6.528  10.802   5.011 -0.3810  0.7551  0.4762
  884MOL0     C16588   6.493  10.708   4.912  0.3544  0.3781  0.6517
  884MOL0     C16589   6.362  10.697   4.875  0.1311 -0.3346 -0.3996
  884MOL0     C16590   6.262  10.772   4.934  0.5041 -0.0949  0.7533
  884MOL0     O16591   6.133  10.761   4.875  0.5654  0.7187 -0.0810
  884MOL0     C16592   6.062  10.633   4.901 -0.2654  0.1365  0.1902
  884MOL0     C16593   5.915  10.656   4.886 -0.0984  0.0544 -0.2142
  884MOL0     C16594   5.843  10.706   5.011  0.1210  0.0729 -0.4090
  884MOL0     C16595   5.910  10.814   5.108 -0.2439 -0.4780  0.9050
  884MOL0     C16596   5.825  10.858   5.224  0.3483 -0.3689 -0.5578
  884MOL0     C16597   5.690  10.917   5.164  0.0108  0.1926  0.7671
  884MOL0     C16598   5.616  10.999   5.278 -0.8294 -0.1525  0.0361
  884MOL0     C16599   5.504  11.077   5.207  0.1621 -0.5963 -0.3239
  884MOL0    Cl16600   5.375  10.954   5.152 -0.2989  0.1120 -0.1011
  884MOL0     C16601   6.297  10.865   5.031  0.0783 -0.5166 -0.2616
  884MOL0     C16602   6.427  10.874   5.074 -0.2828 -0.1134  0.5520
  884MOL0     O16603   6.764  10.842   4.863  0.4192  0.1764 -0.0120
  884MOL0     C16604   6.922  10.814   5.169  0.4259  0.9137  0.5320
  884MOL0     C16605   7.054  10.821   5.213  0.2251 -0.6089 -0.3265
  884MOL0     N16606   7.737  10.525   5.471 -0.5788  0.0110 -0.9174
  884MOL0     N16607   7.857  10.496   5.469 -0.1905  0.0779 -0.2634
  884MOL0     C16608   8.732  10.233   5.296 -0.1078  0.2969 -0.1105
  884MOL0     C16609   8.848  10.190   5.238 -0.1014 -0.2995  0.3902
  884MOL0     C16610   9.318  10.242   5.156 -0.4604 -0.3506  0.1972
  884MOL0     C16611   9.430  10.321   5.117 -0.4781 -0.7085  0.1416
  884MOL0     C16612   9.559  10.267   5.105  0.2951 -0.0955  0.0735
  884MOL0     C16613   9.586  10.134   5.128  0.4611  0.5502 -0.0018
  884MOL0     O16614   9.718  10.095   5.117  1.2481  0.0545  0.4480
  884MOL0     C16615   9.753   9.950   5.133 -0.0958 -0.2348 -0.1766
  884MOL0     C16616   9.891   9.943   5.092 -0.5381 -0.4572 -0.0354
  884MOL0     C16617   9.923   9.974   4.942  0.1665  0.0484  0.3105
  884MOL0     C16618  10.077   9.960   4.908  0.9514  1.9025  0.2803
  884MOL0     C16619  10.170  10.010   5.006 -0.2349 -0.1609  0.5725
  884MOL0     C16620  10.257  10.046   5.087  1.0406 -0.1599 -0.6731
  884MOL0     C16621   9.476  10.056   5.169  0.8489 -0.1702  0.1797
  884MOL0     C16622   9.344  10.106   5.180  0.0361 -0.6162  0.4655
  884MOL0     H16623   9.057  10.433   5.364 -0.6917  1.6604 -0.5535
  884MOL0     H16624   8.853  10.503   5.474  0.1823 -1.9807  1.8134
  884MOL0     H16625   8.582  10.213   5.565  0.4795  0.1227  0.1924
  884MOL0     H16626   8.474  10.243   5.430 -0.6192 -0.9722  1.3482
  884MOL0     H16627   8.380  10.301   5.669 -1.0097  2.0253  0.8391
  884MOL0     H16628   8.366  10.425   5.539  0.7298  2.0987  0.2333
  884MOL0     H16629   8.533  10.555   5.656  0.2184 -0.8390 -0.5578
  884MOL0     H16630   8.588  10.422   5.753  0.3208  0.5847  0.2693
  884MOL0     H16631   8.393  10.403   5.879  1.5960 -0.7791  0.5900
  884MOL0     H16632   8.452  10.568   5.865  1.5192 -0.8913 -0.5950
  884MOL0     H16633   8.200  10.545   5.855 -2.2456  0.1918 -2.5217
  884MOL0     H16634   8.209  10.444   5.717 -1.0303 -0.6644  0.6597
  884MOL0     H16635   8.316  10.650   5.592 -1.2546 -0.2498 -1.3092
  884MOL0     H16636   8.279  10.741   5.734  1.1445 -1.1091  0.0082
  884MOL0     H16637   8.026  10.625   5.702 -0.8048  0.3036 -1.2507
  884MOL0     H16638   8.073  10.779   5.619  0.5840 -0.1289  2.4130
  884MOL0     H16639   8.113  10.514   5.484  0.5522  0.4650  0.1536
  884MOL0     H16640   8.129  10.680   5.426 -1.6195  0.8993 -0.2896
  884MOL0     H16641   7.866  10.828   5.481  2.1462 -0.2012 -2.6708
  884MOL0     H16642   7.599  10.826   5.548 -0.9314  0.4294  1.2765
  884MOL0     H16643   7.503  10.687   5.516 -0.4667  0.3325 -0.2556
  884MOL0     H16644   7.647  10.799   5.288 -0.4525 -1.6857  1.1436
  884MOL0     H16645   7.480  10.864   5.339 -0.5787 -1.0957  1.2285
  884MOL0     H16646   7.570  10.621   5.221 -1.1761 -0.4705 -2.0809
  884MOL0     H16647   7.419  10.620   5.309 -1.0203  2.3764  0.6876
  884MOL0     H16648   7.362  10.634   5.084 -2.2023  1.3422 -0.4665
  884MOL0     H16649   7.464  10.773   5.057  1.5286 -3.8449 -1.3721
  884MOL0     H16650   7.219  10.746   4.921 -0.0264 -2.4841  0.3676
  884MOL0     H16651   6.988  10.723   4.847 -2.8926  0.0149 -0.0806
  884MOL0     H16652   6.579  10.652   4.877  2.0000  1.6265  2.4757
  884MOL0     H16653   6.350  10.632   4.789  0.9348 -1.6896  0.4631
  884MOL0     H16654   6.083  10.604   5.004  1.0609  1.0100  0.1852
  884MOL0     H16655   6.099  10.563   4.825 -1.5864 -1.1721  0.6931
  884MOL0     H16656   5.869  10.558   4.870 -1.7131  0.5783  0.9748
  884MOL0     H16657   5.898  10.724   4.802 -0.6694 -2.0546 -1.8893
  884MOL0     H16658   5.810  10.622   5.073 -2.2518  0.1476 -1.4557
  884MOL0     H16659   5.745  10.732   4.970 -0.5657  0.4344  1.3800
  884MOL0     H16660   6.008  10.780   5.143 -1.1355 -0.4639  3.6886
  884MOL0     H16661   5.917  10.893   5.034  0.6388 -1.4989 -0.1367
  884MOL0     H16662   5.883  10.933   5.278  1.4886 -0.4550 -1.6098
  884MOL0     H16663   5.800  10.772   5.287  1.4283 -2.2799 -2.5772
  884MOL0     H16664   5.621  10.838   5.132 -0.5257  0.9498  0.0138
  884MOL0     H16665   5.710  10.977   5.075 -1.4674 -1.3181 -0.6686
  884MOL0     H16666   5.576  10.935   5.357 -2.1447  1.4332  0.7181
  884MOL0     H16667   5.681  11.068   5.334  0.0458  0.1549 -1.3171
  884MOL0     H16668   5.547  11.142   5.131  0.2895  1.4338  1.3683
  884MOL0     H16669   5.463  11.150   5.278  0.7447  0.1738 -0.7573
  884MOL0     H16670   6.215  10.912   5.083  0.1249 -0.8788  0.1425
  884MOL0     H16671   6.451  10.940   5.157 -1.2002  0.3539  0.4508
  884MOL0     H16672   6.847  10.843   5.243 -0.1207  1.2088 -0.1324
  884MOL0     H16673   7.077  10.851   5.314 -2.7628  2.1870 -0.3273
  884MOL0     H16674   8.643  10.172   5.279 -0.3969  0.7149 -0.1191
  884MOL0     H16675   8.853  10.106   5.169  0.3011 -1.4019  1.7207
  884MOL0     H16676   9.422  10.429   5.111  2.1760 -0.2928  2.0633
  884MOL0     H16677   9.644  10.328   5.075  0.5729  0.2547  1.4856
  884MOL0     H16678   9.692   9.882   5.073  0.5302 -1.8930  0.9916
  884MOL0     H16679   9.739   9.909   5.234  1.9358  1.0300  0.6932
  884MOL0     H16680   9.946  10.020   5.148  0.8510 -0.8091 -0.8801
  884MOL0     H16681   9.931   9.844   5.116 -1.7559 -1.5297 -2.1970
  884MOL0     H16682   9.902  10.076   4.908 -0.2131 -0.2745 -0.4402
  884MOL0     H16683   9.874   9.904   4.875 -1.5558  0.2312  1.3171
  884MOL0     H16684  10.094   9.852   4.917 -1.0310  1.6081  1.0311
  884MOL0     H16685  10.104   9.992   4.807  1.8707  0.3544 -0.0045
  884MOL0     H16686  10.326  10.059   5.168 -2.1641  1.5625  2.0211
  884MOL0     H16687   9.488   9.952   5.198  0.4807 -0.1512  0.4088
  884MOL0     H16688   9.265  10.040   5.213 -0.9941  1.4763  2.3862
  885MOL0     O16689   0.554  10.781   7.803  0.1171  0.2840  0.4025
  885MOL0     C16690   0.586  10.904   7.808  0.0983  0.0484  0.5149
  885MOL0     O16691   0.493  10.999   7.776 -0.7018 -0.4842  0.1360
  885MOL0     C16692   0.362  10.968   7.753  0.6619  0.2350  0.0719
  885MOL0     C16693   0.321  10.932   7.623 -0.8338  0.5236  0.5239
  885MOL0     C16694   0.189  10.896   7.600 -0.5639 -0.8585  0.8181
  885MOL0     C16695   0.099  10.869   7.696 -0.4671 -0.1677  0.3608
  885MOL0     O16696  -0.023  10.815   7.676 -0.2099  0.0779 -0.9062
  885MOL0     C16697  -0.030  10.680   7.637  0.0286 -0.2760 -0.3693
  885MOL0     C16698  -0.165  10.628   7.670 -0.1098 -0.1184  0.0038
  885MOL0     C16699  -0.199  10.492   7.591 -0.4753  0.7176 -0.1901
  885MOL0     C16700  -0.326  10.428   7.650 -0.7802  0.0118 -0.1307
  885MOL0     C16701  -0.353  10.304   7.571 -0.4621  0.2414 -0.1790
  885MOL0     C16702  -0.462  10.230   7.654  0.5212  0.2137  0.0681
  885MOL0     C16703  -0.515  10.094   7.600 -0.5891 -0.2534  0.6283
  885MOL0     C16704  -0.555  10.108   7.459 -0.1828  0.9456  0.3044
  885MOL0     N16705  -0.604   9.977   7.409  0.2700  0.1218 -0.0151
  885MOL0     C16706  -0.733   9.944   7.369 -0.2591 -0.6647 -0.2364
  885MOL0     C16707  -0.720   9.813   7.339 -0.7891 -0.7693 -0.7424
  885MOL0     C16708  -0.829   9.724   7.283  0.7041  0.1550  0.2830
  885MOL0     C16709  -0.787   9.577   7.243  0.4645  1.0512 -0.0701
  885MOL0     C16710  -0.905   9.490   7.189 -0.7902  0.1617  0.2363
  885MOL0     C16711  -0.889   9.342   7.215 -0.4915 -0.6145  0.2274
  885MOL0     O16712  -0.963   9.255   7.129  0.1352 -0.0671 -0.2823
  885MOL0     C16713  -1.098   9.248   7.138 -0.1594  0.7696  0.1844
  885MOL0     C16714  -1.174   9.212   7.017 -0.4288  0.6807 -1.2441
  885MOL0     C16715  -1.313   9.191   7.028 -0.4418  0.0515  0.7588
  885MOL0     C16716  -1.397   9.225   7.141 -0.4999 -0.0637  0.8374
  885MOL0     C16717  -1.545   9.226   7.136 -0.1790 -0.1456  0.3844
  885MOL0     O16718  -1.599   9.166   7.026 -0.3581  1.0050  0.2928
  885MOL0     C16719  -1.731   9.208   7.011  1.0715 -0.2933 -1.3789
  885MOL0     C16720  -1.774   9.342   6.984 -1.2962  0.1183 -0.0597
  885MOL0     C16721  -1.909   9.381   6.975 -0.5876  0.3130  0.3565
  885MOL0     C16722  -2.008   9.288   7.001  0.0701  0.7382  0.6001
  885MOL0     O16723  -2.139   9.323   7.021 -0.1542 -0.2268 -0.7617
  885MOL0     C16724  -2.158   9.412   7.132 -0.2095 -0.0230  0.3522
  885MOL0     C16725  -2.289   9.473   7.146  0.4126  0.3183 -0.2153
  885MOL0     C16726  -2.399   9.374   7.161  0.3445 -0.2091  0.0828
  885MOL0     C16727  -2.537   9.432   7.140 -0.3023  0.1913 -1.0559
  885MOL0     C16728  -2.632   9.319   7.172 -1.0232  0.1910 -0.2174
  885MOL0     C16729  -2.771   9.359   7.156 -0.6047 -0.7813  0.8550
  885MOL0     C16730  -2.867   9.241   7.176 -0.5075 -0.1984  0.8052
  885MOL0     C16731  -2.950   9.209   7.057  0.5078 -0.7025 -0.0547
  885MOL0    Cl16732  -3.075   9.344   7.036 -0.0896  0.3369  0.1102
  885MOL0     C16733  -1.969   9.154   7.015  0.3757  0.2791 -0.4680
  885MOL0     C16734  -1.835   9.118   7.021 -0.0027  0.1793 -0.6454
  885MOL0     O16735  -1.612   9.284   7.222  0.1871 -0.2223 -0.1173
  885MOL0     C16736  -1.323   9.263   7.252  0.4932  0.0794 -1.0357
  885MOL0     C16737  -1.179   9.274   7.249 -0.3130  0.1007 -0.4523
  885MOL0     N16738  -0.597   9.761   7.361 -0.5159 -0.1573 -0.1027
  885MOL0     N16739  -0.528   9.865   7.397  0.4619 -0.2298 -0.0654
  885MOL0     C16740   0.143  10.900   7.828  0.9408  0.0223  0.3961
  885MOL0     C16741   0.271  10.953   7.858  0.2795  0.2328  0.4009
  885MOL0     C16742   0.716  10.948   7.848  0.0333 -0.2911 -0.1949
  885MOL0     C16743   0.751  11.080   7.851  0.4147  0.0040  0.9422
  885MOL0     C16744   0.883  11.124   7.876 -0.0185  0.1469  0.1543
  885MOL0     C16745   0.985  11.027   7.903 -0.3403 -0.3590  0.3763
  885MOL0     O16746   1.111  11.075   7.924  0.7377  0.1585  0.2683
  885MOL0     C16747   1.219  10.975   7.932  0.2219  0.6168  0.6654
  885MOL0     C16748   1.258  10.913   7.796 -0.2521  0.6703  0.1847
  885MOL0     C16749   1.302  11.010   7.683 -0.4271  0.0154 -0.0591
  885MOL0     C16750   1.424  11.100   7.719  1.5498 -0.0113  0.7783
  885MOL0     C16751   1.537  11.014   7.742 -0.3884  0.3573  0.5995
  885MOL0     C16752   1.636  10.940   7.759 -0.1182 -0.0941 -0.4119
  885MOL0     C16753   0.949  10.889   7.895 -0.2404  0.3298  0.3965
  885MOL0     C16754   0.814  10.854   7.856 -0.2436 -1.3296  0.8154
  885MOL0     H16755   0.393  10.927   7.541  1.1154 -0.0150  2.1839
  885MOL0     H16756   0.152  10.870   7.501 -2.7059  1.2433  0.9885
  885MOL0     H16757   0.043  10.619   7.691 -1.8843 -0.0442  2.7492
  885MOL0     H16758  -0.020  10.678   7.528 -0.9298 -0.6122 -0.4670
  885MOL0     H16759  -0.246  10.698   7.650 -0.6601 -1.5215 -3.2887
  885MOL0     H16760  -0.169  10.606   7.777 -1.8559  0.1330  0.0104
  885MOL0     H16761  -0.115  10.423   7.596 -0.0750  1.1778 -0.5141
  885MOL0     H16762  -0.219  10.511   7.485 -1.9235  2.0764  0.2870
  885MOL0     H16763  -0.313  10.411   7.757  0.5096 -1.0844 -0.4463
  885MOL0     H16764  -0.409  10.499   7.643 -1.5465 -0.4747  2.7403
  885MOL0     H16765  -0.266  10.237   7.576 -1.7613 -1.4505  2.0431
  885MOL0     H16766  -0.380  10.333   7.469 -2.9984  1.5521  0.7594
  885MOL0     H16767  -0.552  10.291   7.666  0.0432 -0.6718  1.0909
  885MOL0     H16768  -0.423  10.217   7.756  2.2093  1.8374 -0.3126
  885MOL0     H16769  -0.434  10.021   7.598 -0.4523 -0.1236 -1.8508
  885MOL0     H16770  -0.591  10.057   7.669 -1.5950  4.3427  2.3420
  885MOL0     H16771  -0.466  10.132   7.400  1.0628  2.6784  2.7475
  885MOL0     H16772  -0.617  10.198   7.450  1.4351  2.3346  2.2217
  885MOL0     H16773  -0.818  10.011   7.357  0.2267  0.1339  0.6317
  885MOL0     H16774  -0.862   9.764   7.187 -0.5925  1.2293  1.1454
  885MOL0     H16775  -0.913   9.723   7.354  0.6742 -2.5838  0.3209
  885MOL0     H16776  -0.755   9.525   7.334 -0.6148 -1.1068 -0.8749
  885MOL0     H16777  -0.709   9.575   7.165 -1.3787  3.6806 -2.1744
  885MOL0     H16778  -1.000   9.521   7.232  0.2214  3.7840  0.1646
  885MOL0     H16779  -0.920   9.518   7.085 -0.2376  2.6375  0.7572
  885MOL0     H16780  -0.915   9.320   7.318  0.5975  0.7553  0.8350
  885MOL0     H16781  -0.783   9.318   7.202 -1.3417 -3.7470 -2.1295
  885MOL0     H16782  -1.116   9.191   6.928  0.9495 -1.3169  0.0401
  885MOL0     H16783  -1.368   9.165   6.937 -1.6012  0.2696  1.3703
  885MOL0     H16784  -1.699   9.418   6.968 -2.8549  2.0273  1.1380
  885MOL0     H16785  -1.935   9.486   6.959  1.0927  0.8072  0.6714
  885MOL0     H16786  -2.093   9.499   7.121  1.3128 -1.1916 -0.3180
  885MOL0     H16787  -2.128   9.361   7.224 -1.6967  0.8355  1.3546
  885MOL0     H16788  -2.324   9.544   7.070 -0.0203  1.0065  0.5997
  885MOL0     H16789  -2.281   9.535   7.236  3.7727  2.3326 -1.6963
  885MOL0     H16790  -2.384   9.347   7.266 -2.3338 -1.0555  0.3242
  885MOL0     H16791  -2.389   9.281   7.105 -2.7152 -1.1628  0.9277
  885MOL0     H16792  -2.546   9.511   7.215  0.2534 -1.6114  1.0109
  885MOL0     H16793  -2.548   9.465   7.036  2.0949 -1.3266 -1.8710
  885MOL0     H16794  -2.622   9.295   7.278  0.1498  0.8083 -0.1722
  885MOL0     H16795  -2.608   9.231   7.112 -0.7041  2.4648 -3.7513
  885MOL0     H16796  -2.799   9.408   7.063 -0.7339 -0.1269  1.2293
  885MOL0     H16797  -2.792   9.429   7.238  0.7330  0.9972 -0.2361
  885MOL0     H16798  -2.813   9.151   7.205 -1.2340 -1.5181 -1.6693
  885MOL0     H16799  -2.929   9.265   7.263  0.0054 -3.0543  2.0485
  885MOL0     H16800  -2.998   9.112   7.071 -1.6090  0.2986 -0.0538
  885MOL0     H16801  -2.886   9.203   6.969  1.6709 -0.6311  0.7595
  885MOL0     H16802  -2.047   9.080   7.032 -0.8833  1.1893 -2.0286
  885MOL0     H16803  -1.812   9.022   7.066  0.8146  0.6268 -0.0876
  885MOL0     H16804  -1.373   9.305   7.339 -1.7275  0.1946 -2.2940
  885MOL0     H16805  -1.140   9.305   7.346 -2.0068 -1.9087  0.9725
  885MOL0     H16806   0.085  10.851   7.906 -0.0322 -2.1681 -1.5682
  885MOL0     H16807   0.298  10.962   7.963  1.2522 -0.0441  0.1885
  885MOL0     H16808   0.671  11.152   7.844  0.7777  0.3771  0.5173
  885MOL0     H16809   0.922  11.225   7.884  0.8367 -0.1292 -0.3833
  885MOL0     H16810   1.201  10.895   8.004  1.2367 -0.5928 -0.3834
  885MOL0     H16811   1.309  11.022   7.973  1.2664 -0.5207 -0.2597
  885MOL0     H16812   1.340  10.844   7.818  0.2683  1.7376  1.8212
  885MOL0     H16813   1.169  10.854   7.769 -0.3944 -0.0654  2.0601
  885MOL0     H16814   1.214  11.070   7.658  0.2155  0.9835 -0.0527
  885MOL0     H16815   1.324  10.947   7.597 -3.5372 -1.4222  0.0663
  885MOL0     H16816   1.437  11.167   7.633 -0.1566  1.2605  1.4529
  885MOL0     H16817   1.400  11.169   7.800  1.6838  0.9187  0.0482
  885MOL0     H16818   1.725  10.885   7.781  0.4920  0.6202 -1.0418
  885MOL0     H16819   1.020  10.814   7.931  0.4603  1.9865  2.6754
  885MOL0     H16820   0.776  10.753   7.850 -3.6656 -0.1698  1.2673
  886MOL0     O16821   7.811   9.013   0.856 -0.2519 -0.4567 -0.4769
  886MOL0     C16822   7.848   9.134   0.861  0.1750  0.1043 -0.1654
  886MOL0     O16823   7.768   9.247   0.859  0.4569 -0.2099  0.8155
  886MOL0     C16824   7.633   9.239   0.843  0.1589  0.8498 -0.0906
  886MOL0     C16825   7.571   9.339   0.773  0.5032  0.1378 -0.6767
  886MOL0     C16826   7.433   9.344   0.754  0.7763  0.1639  0.4620
  886MOL0     C16827   7.346   9.244   0.806 -0.2348  0.5640 -0.0457
  886MOL0     O16828   7.207   9.238   0.795 -0.1830 -0.1095  0.8568
  886MOL0     C16829   7.134   9.351   0.741 -0.5389  0.9833  0.3831
  886MOL0     C16830   6.986   9.335   0.760  0.3450 -0.4917 -0.0293
  886MOL0     C16831   6.937   9.428   0.867  0.7003 -1.2384 -0.1285
  886MOL0     C16832   6.780   9.440   0.880 -0.8887 -0.7159  0.3471
  886MOL0     C16833   6.737   9.581   0.920  0.7234  0.4163 -0.0831
  886MOL0     C16834   6.745   9.609   1.075 -0.6432  0.5706 -0.1990
  886MOL0     C16835   6.662   9.728   1.117 -0.4022  0.0974 -0.4999
  886MOL0     C16836   6.682   9.769   1.265  0.0187  0.3996 -0.1941
  886MOL0     N16837   6.568   9.852   1.316 -0.4895  0.2469  0.2983
  886MOL0     C16838   6.539   9.981   1.276  0.7023 -0.3719 -0.7665
  886MOL0     C16839   6.430  10.010   1.356 -0.3577  0.1212 -0.1397
  886MOL0     C16840   6.344  10.138   1.346  0.9122  0.1622  0.0497
  886MOL0     C16841   6.198  10.109   1.303  0.5109  0.1728 -0.3014
  886MOL0     C16842   6.101  10.042   1.404  0.6054 -0.3937 -0.9271
  886MOL0     C16843   5.969  10.016   1.326 -0.8802  0.0890 -0.2354
  886MOL0     O16844   5.984   9.890   1.261  0.2210 -0.3695  0.0581
  886MOL0     C16845   5.877   9.852   1.179  0.3809 -0.8021  0.4694
  886MOL0     C16846   5.741   9.857   1.208 -0.6082 -0.1195 -0.4920
  886MOL0     C16847   5.648   9.823   1.115  0.5109  0.6614  0.7116
  886MOL0     C16848   5.676   9.769   0.984 -0.3261  0.7788 -0.8813
  886MOL0     C16849   5.567   9.728   0.896  0.0742 -0.0613  0.3384
  886MOL0     O16850   5.445   9.714   0.959 -0.8203 -0.0449  0.4821
  886MOL0     C16851   5.335   9.672   0.892 -0.6341  0.2916  0.0231
  886MOL0     C16852   5.322   9.530   0.867 -0.1428 -0.0908 -0.2130
  886MOL0     C16853   5.198   9.481   0.819 -0.5313  0.3929  0.1097
  886MOL0     C16854   5.093   9.565   0.791  0.8126 -0.1582 -0.6109
  886MOL0     O16855   4.973   9.501   0.743 -0.4094 -0.7044 -0.2086
  886MOL0     C16856   4.857   9.581   0.701  0.1008 -0.6934 -0.7431
  886MOL0     C16857   4.736   9.488   0.703  0.4731  0.3135 -0.2204
  886MOL0     C16858   4.605   9.570   0.701 -0.3177 -0.3379  0.3673
  886MOL0     C16859   4.483   9.499   0.659 -0.5243  0.4639 -0.8223
  886MOL0     C16860   4.461   9.367   0.737 -1.1412 -0.2515  0.5129
  886MOL0     C16861   4.446   9.400   0.890 -0.2702  0.1056  0.5427
  886MOL0     C16862   4.424   9.272   0.976  0.9675 -0.2486 -0.6867
  886MOL0     C16863   4.551   9.188   1.001  0.5847  1.2740  0.0296
  886MOL0    Cl16864   4.520   9.030   1.073 -0.2179  0.4311 -0.1850
  886MOL0     C16865   5.105   9.701   0.822 -0.1074  0.2096  0.1128
  886MOL0     C16866   5.228   9.751   0.874  0.3005  0.2681  0.2248
  886MOL0     O16867   5.589   9.695   0.780 -0.3412 -0.2246  0.4250
  886MOL0     C16868   5.820   9.765   0.957  0.0737 -0.1820  0.6108
  886MOL0     C16869   5.910   9.803   1.052 -0.2296  0.0307  0.0140
  886MOL0     N16870   6.396   9.910   1.438  0.3840 -0.2449  0.0887
  886MOL0     N16871   6.487   9.813   1.421  0.8567 -1.0472  0.0224
  886MOL0     C16872   7.410   9.153   0.894  0.0612 -0.1016  0.7326
  886MOL0     C16873   7.550   9.144   0.900  0.2342 -0.7175 -0.7188
  886MOL0     C16874   7.990   9.152   0.851  0.0998  0.4827 -0.0010
  886MOL0     C16875   8.051   9.279   0.858 -0.5778  0.5171 -0.1317
  886MOL0     C16876   8.183   9.285   0.832 -0.5367 -0.0422 -0.6567
  886MOL0     C16877   8.266   9.178   0.813  0.0507  0.1373  0.0571
  886MOL0     O16878   8.388   9.216   0.785 -0.6603 -0.7850  0.0229
  886MOL0     C16879   8.487   9.117   0.756  0.1738  0.9641 -0.2073
  886MOL0     C16880   8.632   9.166   0.743 -0.1410 -0.5516 -0.2822
  886MOL0     C16881   8.669   9.208   0.595 -0.1444  0.0395 -0.1083
  886MOL0     C16882   8.681   9.091   0.512  0.2862 -0.7035  0.2090
  886MOL0     C16883   8.812   9.028   0.526 -0.0296 -1.2856  0.9195
  886MOL0     C16884   8.931   8.986   0.519  0.6615 -0.0979  0.1349
  886MOL0     C16885   8.216   9.047   0.827  0.1940 -0.7541 -0.1905
  886MOL0     C16886   8.075   9.041   0.851 -0.7459  0.7095  1.3665
  886MOL0     H16887   7.626   9.416   0.719 -1.5332  2.3688  0.2499
  886MOL0     H16888   7.391   9.416   0.684  0.0767 -0.0934  0.6119
  886MOL0     H16889   7.153   9.342   0.633 -2.7381 -1.8581  0.1100
  886MOL0     H16890   7.167   9.448   0.777  0.0847  1.2179 -0.7581
  886MOL0     H16891   6.965   9.236   0.801 -0.6855  0.3651  1.6248
  886MOL0     H16892   6.932   9.354   0.667 -0.7192 -2.6591  0.0826
  886MOL0     H16893   6.974   9.529   0.848  0.0696 -0.4089  2.5431
  886MOL0     H16894   6.980   9.407   0.966 -0.9777  2.5537  1.6206
  886MOL0     H16895   6.732   9.421   0.784 -1.6068 -2.0486  0.9471
  886MOL0     H16896   6.752   9.365   0.954  2.0931  0.1258  2.5474
  886MOL0     H16897   6.630   9.581   0.897  0.9883 -0.2198 -1.3838
  886MOL0     H16898   6.789   9.656   0.860  0.8648 -0.5185 -1.1527
  886MOL0     H16899   6.846   9.618   1.116 -1.2866  1.5251  1.2575
  886MOL0     H16900   6.697   9.525   1.126  1.4019  0.6080  1.9704
  886MOL0     H16901   6.689   9.818   1.061  2.0183 -0.1353  0.1833
  886MOL0     H16902   6.558   9.701   1.094 -1.3252  1.8721  1.2435
  886MOL0     H16903   6.771   9.831   1.275 -0.2683  0.9318 -0.8212
  886MOL0     H16904   6.690   9.680   1.328  2.1713  3.1796  3.9063
  886MOL0     H16905   6.590  10.039   1.200  1.4106  0.6973  0.5009
  886MOL0     H16906   6.378  10.213   1.274  0.3790  0.9533  0.6103
  886MOL0     H16907   6.340  10.185   1.444 -2.1120  3.1566 -1.3273
  886MOL0     H16908   6.207  10.059   1.206  1.2689  0.5943 -0.4572
  886MOL0     H16909   6.156  10.207   1.282 -2.2728 -1.1024 -1.1352
  886MOL0     H16910   6.151   9.952   1.441 -0.6407 -0.7126  0.0574
  886MOL0     H16911   6.089  10.111   1.488  0.0604 -1.1040 -0.4073
  886MOL0     H16912   5.956  10.097   1.254  0.8394  0.9267  0.3403
  886MOL0     H16913   5.881  10.011   1.391 -1.7791 -2.2887 -1.5168
  886MOL0     H16914   5.715   9.889   1.308 -1.4052  2.8914 -1.5738
  886MOL0     H16915   5.542   9.836   1.134  0.3248  1.3180 -0.6354
  886MOL0     H16916   5.409   9.474   0.899  0.5239  0.4584 -1.0266
  886MOL0     H16917   5.188   9.373   0.812  3.2754 -0.1081 -0.0460
  886MOL0     H16918   4.876   9.623   0.601  1.2075  0.4036 -0.0956
  886MOL0     H16919   4.834   9.671   0.760 -0.0179 -1.2045 -0.0026
  886MOL0     H16920   4.748   9.418   0.787  0.6996 -1.6354 -1.8073
  886MOL0     H16921   4.742   9.436   0.607  0.1837 -1.0646  0.4891
  886MOL0     H16922   4.623   9.660   0.641  0.0693  0.5275  1.7268
  886MOL0     H16923   4.588   9.609   0.802  2.0670 -0.3878  0.8450
  886MOL0     H16924   4.405   9.568   0.690  0.0438  1.0337 -0.6311
  886MOL0     H16925   4.488   9.485   0.551  2.7646 -1.2585 -0.5882
  886MOL0     H16926   4.548   9.304   0.713  0.8366  2.5964 -0.2342
  886MOL0     H16927   4.371   9.321   0.695 -0.9626  0.4201 -0.6571
  886MOL0     H16928   4.370   9.476   0.910  0.4107  1.1801 -0.7638
  886MOL0     H16929   4.544   9.446   0.906 -0.4767  3.3652 -4.8934
  886MOL0     H16930   4.388   9.307   1.074  3.2357  1.4884 -0.4078
  886MOL0     H16931   4.351   9.207   0.926  3.8113 -4.2093 -0.1789
  886MOL0     H16932   4.630   9.246   1.051  0.3773  3.1821 -1.7152
  886MOL0     H16933   4.597   9.165   0.904  1.0137  2.2634 -0.0179
  886MOL0     H16934   5.025   9.773   0.807  2.6049  3.1650 -1.2647
  886MOL0     H16935   5.227   9.857   0.894  0.4839  0.6471 -1.6175
  886MOL0     H16936   5.845   9.739   0.855  0.7463  1.6691  0.2663
  886MOL0     H16937   6.018   9.793   1.043 -0.3271 -0.2797 -0.8892
  886MOL0     H16938   7.347   9.073   0.931  1.0267 -0.0527  2.5620
  886MOL0     H16939   7.595   9.065   0.960 -0.6260 -0.6228  0.0758
  886MOL0     H16940   8.002   9.373   0.883  1.8849  1.9183 -0.1969
  886MOL0     H16941   8.230   9.382   0.822  0.0042 -0.4516 -2.4398
  886MOL0     H16942   8.455   9.057   0.671  0.9028 -2.3685  1.6679
  886MOL0     H16943   8.495   9.051   0.844  1.3216  0.2902 -0.7905
  886MOL0     H16944   8.639   9.260   0.799 -0.0795 -0.2551 -0.7821
  886MOL0     H16945   8.704   9.104   0.796  1.7078  2.5539  1.1306
  886MOL0     H16946   8.760   9.267   0.604 -1.4823  2.0502  1.0924
  886MOL0     H16947   8.596   9.282   0.558  0.4944 -0.6059 -2.9213
  886MOL0     H16948   8.601   9.026   0.548 -1.2655  0.6167 -0.7264
  886MOL0     H16949   8.662   9.110   0.406  3.9563  1.0633 -0.3019
  886MOL0     H16950   9.027   8.948   0.489  0.2571 -0.0368 -1.3069
  886MOL0     H16951   8.281   8.960   0.825 -1.2350 -1.8480 -0.2018
  886MOL0     H16952   8.032   8.942   0.864  0.7727 -0.2751 -0.5330
  887MOL0     O16953   2.879   4.583   2.468  0.1538 -0.4871  0.3068
  887MOL0     C16954   2.946   4.680   2.498 -0.7151 -0.6532  1.3868
  887MOL0     O16955   2.911   4.789   2.565  0.3723  0.4684 -0.0749
  887MOL0     C16956   2.778   4.800   2.600  0.4978  0.0587  0.4060
  887MOL0     C16957   2.719   4.912   2.551  0.6109  1.4339  0.8517
  887MOL0     C16958   2.582   4.937   2.565  0.3525  0.7389 -0.0184
  887MOL0     C16959   2.507   4.849   2.649 -1.3883 -0.5493  0.1795
  887MOL0     O16960   2.375   4.871   2.672  0.9693  0.1305 -0.1219
  887MOL0     C16961   2.287   4.771   2.718  0.3224  0.5531 -0.5099
  887MOL0     C16962   2.291   4.738   2.875  0.4415  0.3905 -0.2780
  887MOL0     C16963   2.145   4.729   2.933 -0.2776  0.5538  0.2846
  887MOL0     C16964   2.075   4.599   2.904 -0.7219 -0.1209 -1.1399
  887MOL0     C16965   1.929   4.596   2.939 -0.1907  0.1435  0.4899
  887MOL0     C16966   1.876   4.609   3.090 -0.1957 -0.4004 -0.8418
  887MOL0     C16967   1.732   4.558   3.112 -0.3352  0.4176 -0.1900
  887MOL0     C16968   1.627   4.659   3.049 -0.5644 -0.1389 -0.3074
  887MOL0     N16969   1.509   4.654   3.133  0.4269  0.0758 -0.2754
  887MOL0     C16970   1.419   4.544   3.153  1.1221 -0.2151 -0.9601
  887MOL0     C16971   1.320   4.587   3.243  0.9200 -0.2564  0.7037
  887MOL0     C16972   1.192   4.522   3.297 -0.0378  0.2702  0.6289
  887MOL0     C16973   1.195   4.371   3.297  0.0517 -0.2137 -0.6136
  887MOL0     C16974   1.270   4.300   3.413  0.3007 -0.3282  0.4283
  887MOL0     C16975   1.239   4.355   3.551 -0.2396  0.6843  0.5142
  887MOL0     O16976   1.295   4.260   3.646 -0.1003  0.0873 -0.1063
  887MOL0     C16977   1.437   4.259   3.652 -0.1084 -0.0673 -0.2006
  887MOL0     C16978   1.500   4.134   3.658 -0.3734 -0.7961 -0.2482
  887MOL0     C16979   1.639   4.127   3.654 -1.1537  0.2775  0.1467
  887MOL0     C16980   1.720   4.244   3.648  0.1334  1.0083  0.1833
  887MOL0     C16981   1.867   4.224   3.632 -0.1449  0.4675 -0.0639
  887MOL0     O16982   1.923   4.097   3.666  0.6020  0.1383  0.3076
  887MOL0     C16983   2.059   4.080   3.656  1.4143 -0.5733  0.0684
  887MOL0     C16984   2.147   4.151   3.739  1.0427  0.5836 -0.2757
  887MOL0     C16985   2.283   4.149   3.720  0.2195 -0.2374 -0.3793
  887MOL0     C16986   2.337   4.060   3.626 -0.4069 -0.4717 -0.1769
  887MOL0     O16987   2.471   4.050   3.607 -0.2130 -0.5237 -0.4357
  887MOL0     C16988   2.565   4.129   3.687  0.3127 -0.0301 -0.0948
  887MOL0     C16989   2.702   4.100   3.644 -0.4903 -0.2183  0.7077
  887MOL0     C16990   2.757   3.958   3.653 -0.6056  0.2867  0.2757
  887MOL0     C16991   2.867   3.931   3.548  0.0723 -0.3581 -0.5802
  887MOL0     C16992   2.994   4.002   3.594  0.6629 -0.5807  0.2091
  887MOL0     C16993   3.110   3.994   3.505 -0.0278  0.3685  0.2469
  887MOL0     C16994   3.242   4.028   3.580 -0.4588  0.1479 -0.4257
  887MOL0     C16995   3.360   3.997   3.484 -0.0611 -0.3272 -0.4707
  887MOL0    Cl16996   3.504   4.070   3.565  0.6314  0.2427 -0.3093
  887MOL0     C16997   2.252   3.990   3.542 -0.3430 -0.0258 -0.7499
  887MOL0     C16998   2.110   4.013   3.549  0.0240  0.4640 -0.7175
  887MOL0     O16999   1.934   4.318   3.597  0.1780  0.2988  0.6283
  887MOL0     C17000   1.655   4.365   3.653 -0.2449  0.2666 -0.0309
  887MOL0     C17001   1.518   4.373   3.665  0.6329 -0.7799  0.2649
  887MOL0     N17002   1.345   4.725   3.260 -0.1896  0.2110 -0.2490
  887MOL0     N17003   1.454   4.763   3.193  0.4429 -0.4815  0.0957
  887MOL0     C17004   2.570   4.736   2.708 -0.7120  0.2257 -0.4739
  887MOL0     C17005   2.710   4.711   2.684  0.4513 -0.0965  0.8526
  887MOL0     C17006   3.088   4.670   2.474  0.3277  0.3415 -0.6366
  887MOL0     C17007   3.164   4.788   2.499  0.0848  0.1020  0.7764
  887MOL0     C17008   3.302   4.771   2.498  0.0845  0.3469 -0.8954
  887MOL0     C17009   3.374   4.650   2.480 -1.1130  0.5069 -0.1812
  887MOL0     O17010   3.510   4.661   2.483 -0.3542 -0.2365  0.0319
  887MOL0     C17011   3.598   4.542   2.485 -0.9949 -0.3680 -0.0572
  887MOL0     C17012   3.745   4.577   2.442  0.9287 -0.4500 -0.3278
  887MOL0     C17013   3.829   4.659   2.543  1.2234  1.0757 -0.4438
  887MOL0     C17014   3.976   4.673   2.496  0.7833 -0.0107 -0.1752
  887MOL0     C17015   4.060   4.554   2.501  0.4114  0.3133 -0.6182
  887MOL0     C17016   4.133   4.457   2.492  0.1731 -0.1759  0.6354
  887MOL0     C17017   3.298   4.545   2.445  0.8734  0.3950 -0.1414
  887MOL0     C17018   3.156   4.554   2.436 -0.6863 -0.2830 -0.8054
  887MOL0     H17019   2.780   4.967   2.480  0.0024  0.1513 -0.7095
  887MOL0     H17020   2.531   5.026   2.530 -1.3436  0.4230  1.4867
  887MOL0     H17021   2.290   4.676   2.665  1.8456  1.8297 -2.8798
  887MOL0     H17022   2.191   4.812   2.686 -0.6187 -1.3559 -0.2702
  887MOL0     H17023   2.343   4.817   2.930 -0.1752 -0.3254  1.4274
  887MOL0     H17024   2.338   4.641   2.893  2.7852  1.0508 -2.3966
  887MOL0     H17025   2.085   4.804   2.881  0.1906 -0.9812 -2.6782
  887MOL0     H17026   2.143   4.755   3.039  2.2798  0.6252  0.3602
  887MOL0     H17027   2.091   4.577   2.798 -0.3905 -1.0446 -0.9083
  887MOL0     H17028   2.135   4.536   2.970 -0.4479  1.9662  0.7279
  887MOL0     H17029   1.896   4.501   2.896 -1.7551  1.3234 -1.0364
  887MOL0     H17030   1.871   4.657   2.870  1.6531 -1.8687 -3.1133
  887MOL0     H17031   1.887   4.712   3.125 -1.0105 -1.1368  1.8488
  887MOL0     H17032   1.933   4.544   3.157 -0.1534 -2.1934 -2.5064
  887MOL0     H17033   1.724   4.460   3.065 -3.6309  0.1543  0.6456
  887MOL0     H17034   1.710   4.546   3.218  1.3089 -0.3719  0.0803
  887MOL0     H17035   1.613   4.646   2.941  1.4724  1.1195 -0.7809
  887MOL0     H17036   1.672   4.759   3.057 -1.7914  0.4849 -0.9150
  887MOL0     H17037   1.417   4.443   3.114  1.9671  0.4579 -2.9094
  887MOL0     H17038   1.107   4.550   3.234 -0.8663 -3.9443 -0.4756
  887MOL0     H17039   1.149   4.561   3.389 -2.7042  0.1755 -0.4737
  887MOL0     H17040   1.236   4.323   3.208  1.2434  1.1881 -0.8468
  887MOL0     H17041   1.093   4.331   3.305 -0.3233  1.0879  2.6170
  887MOL0     H17042   1.226   4.200   3.407 -2.0690  0.5490  1.5810
  887MOL0     H17043   1.378   4.302   3.402  0.4004  3.0092  0.9349
  887MOL0     H17044   1.131   4.355   3.564 -0.5802 -2.3201 -1.1701
  887MOL0     H17045   1.285   4.449   3.580  1.7655 -0.3566  0.9095
  887MOL0     H17046   1.435   4.047   3.663 -0.3840 -0.8061 -0.5153
  887MOL0     H17047   1.684   4.030   3.674 -3.8439 -0.7691  1.7110
  887MOL0     H17048   2.101   4.217   3.812 -0.1334  0.3973 -0.8336
  887MOL0     H17049   2.359   4.206   3.773  3.6204 -4.7676  0.2261
  887MOL0     H17050   2.544   4.099   3.790  2.0164 -2.0189 -0.2574
  887MOL0     H17051   2.552   4.237   3.680 -0.4254 -0.0916  0.3062
  887MOL0     H17052   2.767   4.165   3.704  1.2209 -1.1930  0.0066
  887MOL0     H17053   2.714   4.143   3.544 -0.7802 -0.0127  0.7610
  887MOL0     H17054   2.679   3.884   3.633  0.2166 -0.3231 -0.7668
  887MOL0     H17055   2.804   3.936   3.749  0.7012 -0.3044 -0.4815
  887MOL0     H17056   2.891   3.825   3.550 -0.8842 -0.7026  4.4656
  887MOL0     H17057   2.839   3.970   3.449  0.0744 -1.7413 -1.1492
  887MOL0     H17058   3.022   3.959   3.691  0.0453 -1.6745 -0.0775
  887MOL0     H17059   2.967   4.108   3.599  0.2235 -0.5044 -2.4168
  887MOL0     H17060   3.088   4.050   3.414 -2.8909 -1.1326 -0.0799
  887MOL0     H17061   3.127   3.891   3.473  0.3551  0.8949 -1.3729
  887MOL0     H17062   3.245   4.135   3.605  4.0644 -0.1740  1.3310
  887MOL0     H17063   3.253   3.991   3.682 -3.2434  0.9628  0.2720
  887MOL0     H17064   3.350   4.045   3.386  0.2113  0.2872 -0.2003
  887MOL0     H17065   3.385   3.891   3.471  1.2648 -0.0687 -0.2182
  887MOL0     H17066   2.296   3.916   3.476  3.0090 -0.0010  1.2282
  887MOL0     H17067   2.036   3.970   3.482 -0.9328 -1.4805  1.4665
  887MOL0     H17068   1.714   4.454   3.673  2.3924 -1.6659  1.6538
  887MOL0     H17069   1.472   4.470   3.678 -2.1751 -2.2947  2.8099
  887MOL0     H17070   2.513   4.666   2.767  0.0109 -0.7283 -0.8797
  887MOL0     H17071   2.754   4.617   2.718 -1.9991 -1.3335  0.8344
  887MOL0     H17072   3.126   4.885   2.528 -2.8841 -0.2515 -1.4915
  887MOL0     H17073   3.365   4.854   2.527 -1.2405  0.6983  1.1765
  887MOL0     H17074   3.560   4.459   2.425 -2.8781 -1.2181  2.1757
  887MOL0     H17075   3.611   4.509   2.588  2.1642  0.1388 -0.1989
  887MOL0     H17076   3.791   4.480   2.419 -1.4264 -1.9081  0.7729
  887MOL0     H17077   3.751   4.633   2.348 -0.2415  0.4753  0.1238
  887MOL0     H17078   3.843   4.605   2.637  0.8813 -1.4127 -1.7353
  887MOL0     H17079   3.782   4.754   2.567  1.4882  0.6136  2.2898
  887MOL0     H17080   3.986   4.708   2.393  1.8530 -1.7284 -0.6934
  887MOL0     H17081   4.029   4.743   2.561 -0.1896 -1.5780  2.4985
  887MOL0     H17082   4.191   4.368   2.486  0.3439 -0.1193  1.3622
  887MOL0     H17083   3.346   4.450   2.421 -2.3593 -1.4706  0.2041
  887MOL0     H17084   3.097   4.466   2.412 -0.5590 -0.4624 -0.4551
  888MOL0     O17085   7.971   5.523   5.565 -0.3552  0.0377  0.4898
  888MOL0     C17086   7.975   5.600   5.660  0.7070  0.6605 -0.4042
  888MOL0     O17087   7.866   5.634   5.731  0.1045  0.2677  0.0831
  888MOL0     C17088   7.734   5.584   5.708  0.0836 -0.0184 -0.5477
  888MOL0     C17089   7.707   5.456   5.657 -0.5505 -0.1379  0.4511
  888MOL0     C17090   7.583   5.408   5.671  0.3042  0.2285  0.2666
  888MOL0     C17091   7.479   5.483   5.718  0.6007  0.4730 -1.4262
  888MOL0     O17092   7.346   5.442   5.723 -0.2621  0.3341  0.1207
  888MOL0     C17093   7.317   5.310   5.659  0.2191 -0.3392  0.0086
  888MOL0     C17094   7.165   5.293   5.666 -0.2307  0.1370 -0.2156
  888MOL0     C17095   7.122   5.148   5.668 -0.5516  0.9277 -0.0709
  888MOL0     C17096   6.993   5.124   5.751 -0.4408  0.8806  0.9186
  888MOL0     C17097   6.947   4.983   5.725  0.5396  0.1601 -0.6426
  888MOL0     C17098   7.038   4.869   5.773 -0.0840  0.1179  0.2799
  888MOL0     C17099   6.985   4.741   5.710 -0.3442 -0.5769  0.5067
  888MOL0     C17100   7.087   4.627   5.754 -0.5613  0.0079 -0.0295
  888MOL0     N17101   7.219   4.633   5.688  0.3390 -0.9965 -0.8179
  888MOL0     C17102   7.330   4.570   5.745  0.1312 -0.1488 -0.4310
  888MOL0     C17103   7.433   4.623   5.671 -0.4578 -0.3655  0.8286
  888MOL0     C17104   7.577   4.596   5.678 -1.0849 -0.1465 -0.5739
  888MOL0     C17105   7.652   4.723   5.711  0.0065 -0.6565  0.1227
  888MOL0     C17106   7.802   4.699   5.738  0.2928  0.3051  0.8821
  888MOL0     C17107   7.873   4.828   5.758  0.2799  0.0184 -0.1714
  888MOL0     O17108   8.016   4.804   5.752  0.0610  0.4569  0.2678
  888MOL0     C17109   8.099   4.913   5.724 -0.5972  0.2986  0.0863
  888MOL0     C17110   8.237   4.915   5.764 -1.0191  0.8944  1.1569
  888MOL0     C17111   8.321   5.022   5.721 -0.2940  0.1740  0.0874
  888MOL0     C17112   8.272   5.135   5.646 -0.3272 -0.1668 -0.0679
  888MOL0     C17113   8.355   5.249   5.616 -0.4223 -0.3054  0.4152
  888MOL0     O17114   8.483   5.252   5.668  0.3742 -0.2609 -0.3836
  888MOL0     C17115   8.569   5.354   5.628  0.4043 -0.2995 -0.8749
  888MOL0     C17116   8.644   5.413   5.732 -0.0428 -0.7309 -0.0132
  888MOL0     C17117   8.755   5.507   5.700 -0.0313  0.2364  0.6405
  888MOL0     C17118   8.768   5.546   5.563 -0.3215  0.0864  0.2736
  888MOL0     O17119   8.858   5.640   5.527  0.3062  0.3145  0.1722
  888MOL0     C17120   8.990   5.595   5.477  0.5444 -0.2320 -0.3031
  888MOL0     C17121   9.055   5.711   5.397  0.0477  0.7069 -0.9134
  888MOL0     C17122   8.967   5.734   5.273  0.2057 -0.9217  0.1124
  888MOL0     C17123   9.010   5.849   5.188  0.2306  0.4789  0.8853
  888MOL0     C17124   8.970   5.857   5.040  0.0013 -1.3959 -0.5000
  888MOL0     C17125   9.031   5.980   4.971 -0.9651  0.0334 -0.4462
  888MOL0     C17126   8.988   5.983   4.829 -0.4583  0.0649 -0.4332
  888MOL0     C17127   9.031   6.119   4.774  0.5784  0.2829  0.2833
  888MOL0    Cl17128   8.994   6.145   4.601  0.1104 -0.1740 -0.0915
  888MOL0     C17129   8.688   5.485   5.465  0.4877 -0.1027 -0.0640
  888MOL0     C17130   8.589   5.391   5.492  0.3636 -0.4057  0.6591
  888MOL0     O17131   8.314   5.327   5.531  0.1512 -0.4200 -0.0029
  888MOL0     C17132   8.142   5.133   5.605  0.8794  0.6495 -0.0122
  888MOL0     C17133   8.061   5.016   5.634  0.1216  0.3014 -0.6561
  888MOL0     N17134   7.377   4.702   5.567 -0.1391  0.0561 -0.0793
  888MOL0     N17135   7.249   4.706   5.577  0.2631  0.0541  0.3354
  888MOL0     C17136   7.509   5.606   5.763  0.6417 -0.1657  0.3645
  888MOL0     C17137   7.634   5.664   5.754 -0.0429  0.0642 -0.1998
  888MOL0     C17138   8.102   5.676   5.686 -0.1489  0.0072  1.1334
  888MOL0     C17139   8.229   5.635   5.637 -0.6169 -0.1785  0.0900
  888MOL0     C17140   8.352   5.692   5.674 -0.0094 -0.5261  0.6919
  888MOL0     C17141   8.350   5.808   5.757  0.5994  0.6046 -0.6893
  888MOL0     O17142   8.464   5.877   5.777 -0.0913  0.0225  0.5273
  888MOL0     C17143   8.515   5.962   5.669 -0.8933 -0.5248  0.6109
  888MOL0     C17144   8.656   5.925   5.624 -0.2086  0.8726 -0.6968
  888MOL0     C17145   8.772   6.002   5.686  0.3725  0.1079 -0.2474
  888MOL0     C17146   8.890   6.000   5.593  0.2107 -0.8034  0.5400
  888MOL0     C17147   8.865   6.099   5.478 -1.1040  0.2090 -0.3281
  888MOL0     C17148   8.844   6.170   5.385 -0.0155  0.2163  0.1031
  888MOL0     C17149   8.230   5.856   5.804  0.4173  0.0384 -0.3638
  888MOL0     C17150   8.109   5.794   5.767 -0.2403  0.9542 -0.3910
  888MOL0     H17151   7.772   5.402   5.588 -1.3632 -0.8762  0.2439
  888MOL0     H17152   7.569   5.311   5.624  1.4833  0.1383  0.0625
  888MOL0     H17153   7.370   5.237   5.720 -0.4975  1.0170  2.3994
  888MOL0     H17154   7.345   5.304   5.554  0.2068  0.0878 -0.0218
  888MOL0     H17155   7.127   5.355   5.585 -0.9339  0.8469  0.6407
  888MOL0     H17156   7.128   5.340   5.758 -2.5758 -1.4196 -0.2816
  888MOL0     H17157   7.206   5.091   5.709 -1.8236 -0.6325  0.4879
  888MOL0     H17158   7.110   5.117   5.564 -3.3918  0.3314  0.3530
  888MOL0     H17159   7.014   5.139   5.857  0.8530  0.0943  0.7897
  888MOL0     H17160   6.918   5.196   5.716 -0.6007  0.6697  0.8321
  888MOL0     H17161   6.927   4.974   5.618 -1.4955 -1.9310 -0.1578
  888MOL0     H17162   6.851   4.963   5.773  1.7869 -1.3861  1.3472
  888MOL0     H17163   7.035   4.865   5.882 -1.8087 -0.8166  0.2387
  888MOL0     H17164   7.141   4.889   5.741  0.8537 -0.1012  2.9174
  888MOL0     H17165   6.878   4.735   5.730 -1.3644  2.9346 -2.6424
  888MOL0     H17166   6.993   4.732   5.601  1.8921  0.0307  0.5751
  888MOL0     H17167   7.038   4.531   5.732 -0.6127  0.3276 -1.4291
  888MOL0     H17168   7.099   4.629   5.862 -3.3189  1.8753  0.3278
  888MOL0     H17169   7.334   4.516   5.839 -2.6344 -0.6087 -0.4841
  888MOL0     H17170   7.600   4.563   5.576 -0.4665 -1.0919 -0.1428
  888MOL0     H17171   7.602   4.511   5.743  0.5962  1.0725  0.4348
  888MOL0     H17172   7.613   4.750   5.810  0.0176  0.0698 -0.0642
  888MOL0     H17173   7.632   4.803   5.639  0.3070 -0.2542  0.4787
  888MOL0     H17174   7.821   4.635   5.824 -0.2772 -0.1752  0.6572
  888MOL0     H17175   7.843   4.647   5.650  0.7726 -0.9716  1.8330
  888MOL0     H17176   7.841   4.865   5.855 -0.0341 -2.5424  0.7514
  888MOL0     H17177   7.829   4.899   5.687 -0.8157  0.8158  1.2596
  888MOL0     H17178   8.272   4.830   5.822 -0.7908  1.3347  1.6772
  888MOL0     H17179   8.423   5.026   5.759 -1.0045 -3.2594  2.8900
  888MOL0     H17180   8.645   5.397   5.839 -1.3408  1.3341  0.3693
  888MOL0     H17181   8.832   5.539   5.769  1.5321 -2.0432  0.0643
  888MOL0     H17182   8.973   5.508   5.414 -1.6226  1.7568 -2.7003
  888MOL0     H17183   9.052   5.570   5.564 -1.6980 -2.1776  0.8551
  888MOL0     H17184   9.158   5.692   5.368  0.7094  2.1933  0.3316
  888MOL0     H17185   9.054   5.806   5.452  3.2814 -0.4897  1.5402
  888MOL0     H17186   8.864   5.742   5.309  0.4955 -0.1611  0.7888
  888MOL0     H17187   8.975   5.641   5.216  0.1733 -0.0896 -1.2837
  888MOL0     H17188   8.987   5.944   5.237 -0.1220 -0.1117  1.9111
  888MOL0     H17189   9.119   5.834   5.194  0.2485  0.5625  0.7640
  888MOL0     H17190   8.864   5.882   5.039  0.4677  0.8309 -1.0548
  888MOL0     H17191   8.987   5.768   4.978  1.0259 -0.6717 -1.3038
  888MOL0     H17192   9.140   5.970   4.974 -0.5998  2.9815 -0.7526
  888MOL0     H17193   9.014   6.076   5.021  0.0124 -1.3416  2.8228
  888MOL0     H17194   9.040   5.902   4.777  1.4773  0.0341  1.4241
  888MOL0     H17195   8.882   5.962   4.812 -0.1827 -0.4291 -1.6656
  888MOL0     H17196   9.139   6.132   4.784  0.8142 -0.9406 -0.4746
  888MOL0     H17197   8.983   6.196   4.835  0.4210 -1.4187  2.4027
  888MOL0     H17198   8.704   5.517   5.363  1.4701 -1.3835 -0.3273
  888MOL0     H17199   8.534   5.347   5.409 -0.4066  1.7674 -0.0488
  888MOL0     H17200   8.093   5.213   5.550 -0.4339  1.3015  1.9634
  888MOL0     H17201   7.961   5.009   5.593  0.2751 -0.6401 -0.8914
  888MOL0     H17202   7.426   5.669   5.796  1.3321  1.8422 -1.5159
  888MOL0     H17203   7.650   5.754   5.812 -1.9480 -0.2866  0.9638
  888MOL0     H17204   8.222   5.541   5.584 -1.2341 -1.4762  2.3434
  888MOL0     H17205   8.442   5.646   5.635  0.5629 -1.3625  2.8450
  888MOL0     H17206   8.514   6.064   5.709  0.3896 -0.7003  1.1135
  888MOL0     H17207   8.457   5.946   5.577 -1.4514  0.4704  0.7704
  888MOL0     H17208   8.658   5.826   5.670 -2.1980  1.1018 -0.0233
  888MOL0     H17209   8.671   5.904   5.518  3.9500  3.2372 -0.8108
  888MOL0     H17210   8.796   5.947   5.778 -1.1640 -0.1663  0.0239
  888MOL0     H17211   8.738   6.100   5.721  1.2212  0.3843 -0.1803
  888MOL0     H17212   8.985   6.030   5.640 -0.1925  1.0678  0.2445
  888MOL0     H17213   8.882   5.898   5.556 -0.7309 -0.0368 -1.5220
  888MOL0     H17214   8.844   6.225   5.293  0.6037 -0.0563 -0.0666
  888MOL0     H17215   8.230   5.938   5.876 -1.9733  0.7520 -1.0847
  888MOL0     H17216   8.014   5.834   5.800 -0.9341 -2.7088  2.8303
  889MOL0     O17217   0.361   6.855   9.845 -0.1680 -0.0577  0.5381
  889MOL0     C17218   0.322   6.878   9.960  0.0360  0.0923 -0.3604
  889MOL0     O17219   0.400   6.929  10.068 -0.2132 -0.3389 -0.0694
  889MOL0     C17220   0.524   6.980  10.051  0.4564  1.1933  0.1282
  889MOL0     C17221   0.546   7.105  10.110  0.2263 -0.6306  0.7611
  889MOL0     C17222   0.665   7.178  10.090 -0.8457 -0.0682  0.1636
  889MOL0     C17223   0.768   7.123  10.014  0.2761 -0.3509  0.4061
  889MOL0     O17224   0.876   7.187   9.982 -0.4507  0.2670  0.1087
  889MOL0     C17225   0.921   7.311  10.048 -0.5415 -0.4204 -0.2182
  889MOL0     C17226   1.044   7.356   9.974  0.8298  0.7035 -0.7410
  889MOL0     C17227   1.007   7.436   9.845  0.4101  1.0399 -1.1915
  889MOL0     C17228   1.141   7.483   9.779 -0.1429 -1.0793  0.8538
  889MOL0     C17229   1.119   7.539   9.641 -0.2384  0.4257  0.7843
  889MOL0     C17230   1.051   7.682   9.631  0.6257  0.1468  0.2772
  889MOL0     C17231   1.018   7.725   9.478 -0.3752 -0.6584 -0.4259
  889MOL0     C17232   0.968   7.870   9.460  0.5809 -0.5079 -0.3924
  889MOL0     N17233   0.858   7.905   9.550  0.5417  0.2622  0.5143
  889MOL0     C17234   0.733   7.851   9.541  0.6678  0.4186 -0.0068
  889MOL0     C17235   0.677   7.849   9.668 -1.0841 -0.5540 -0.1117
  889MOL0     C17236   0.542   7.793   9.709 -0.2653 -0.5144  0.3099
  889MOL0     C17237   0.429   7.893   9.683  0.8714  0.3386 -0.4195
  889MOL0     C17238   0.459   8.033   9.752  0.9155 -0.0620 -0.1669
  889MOL0     C17239   0.333   8.115   9.748  0.6817 -1.7078 -0.1798
  889MOL0     O17240   0.235   8.047   9.828 -0.0978  0.4239  0.4334
  889MOL0     C17241   0.103   8.099   9.823  0.0300 -0.5641  0.3930
  889MOL0     C17242   0.062   8.215   9.759  0.3853  0.5129 -1.3021
  889MOL0     C17243  -0.070   8.259   9.766  0.0878 -0.1818  0.4508
  889MOL0     C17244  -0.161   8.184   9.843  0.5411  0.4343  0.9357
  889MOL0     C17245  -0.299   8.227   9.859  0.5158 -0.5512 -0.8553
  889MOL0     O17246  -0.400   8.138   9.881  0.1332  0.0785 -0.0370
  889MOL0     C17247  -0.523   8.187   9.912 -0.6611  1.3024 -0.7382
  889MOL0     C17248  -0.573   8.178  10.041 -0.0849 -0.1375  0.2140
  889MOL0     C17249  -0.709   8.214  10.073  0.3446 -0.0506  0.0743
  889MOL0     C17250  -0.799   8.259   9.974 -0.2907 -0.4967  0.3307
  889MOL0     O17251  -0.918   8.304  10.010 -0.3950  0.3269 -0.1584
  889MOL0     C17252  -1.014   8.351   9.915  0.2236 -0.2791  0.2053
  889MOL0     C17253  -1.138   8.398   9.987  0.3603  0.0168 -0.0312
  889MOL0     C17254  -1.251   8.423   9.881  0.7863  0.3189  0.5963
  889MOL0     C17255  -1.382   8.470   9.945  0.0117  0.0232  0.5290
  889MOL0     C17256  -1.470   8.491   9.820 -0.3283 -0.8340 -0.2341
  889MOL0     C17257  -1.598   8.545   9.879  0.4718 -0.8150 -0.7264
  889MOL0     C17258  -1.716   8.525   9.779 -0.4564 -0.2469 -0.7497
  889MOL0     C17259  -1.843   8.594   9.824  0.5075  0.0116  0.0700
  889MOL0    Cl17260  -1.967   8.595   9.689 -0.0025  0.2336 -0.3739
  889MOL0     C17261  -0.744   8.257   9.834  0.2145  0.2970  0.1531
  889MOL0     C17262  -0.609   8.225   9.809 -0.3208  0.0195  0.3447
  889MOL0     O17263  -0.312   8.350   9.869  0.7557  0.0638 -0.7992
  889MOL0     C17264  -0.130   8.061   9.892 -0.0318  0.6580  0.1222
  889MOL0     C17265  -0.001   8.017   9.877 -0.3116 -0.0108 -0.0911
  889MOL0     N17266   0.774   7.912   9.748  0.5741  0.7189  0.3049
  889MOL0     N17267   0.875   7.945   9.675 -0.3369 -0.5212  0.6530
  889MOL0     C17268   0.750   6.995   9.960 -0.1319  0.8099  0.8370
  889MOL0     C17269   0.630   6.922   9.973 -0.6365 -0.7093  0.5269
  889MOL0     C17270   0.188   6.823   9.991  1.3743 -0.3000  0.9401
  889MOL0     C17271   0.143   6.702   9.927  0.4478  0.1034  0.2038
  889MOL0     C17272   0.015   6.651   9.966 -0.9028 -0.3142 -0.0469
  889MOL0     C17273  -0.069   6.715  10.056  0.9146 -0.1273 -0.5875
  889MOL0     O17274  -0.191   6.665  10.089 -0.2393  0.4961 -0.7425
  889MOL0     C17275  -0.198   6.607  10.224 -0.6687 -0.5649  0.4307
  889MOL0     C17276  -0.329   6.550  10.244  0.8213 -0.1770 -0.5680
  889MOL0     C17277  -0.449   6.654  10.229 -0.1030 -0.8769  0.1083
  889MOL0     C17278  -0.592   6.593  10.225  0.2359 -0.5653  0.3464
  889MOL0     C17279  -0.625   6.534  10.357  0.3674  0.3020  0.3408
  889MOL0     C17280  -0.648   6.497  10.469 -0.3926 -0.8944  0.4883
  889MOL0     C17281  -0.026   6.837  10.109 -0.3158 -0.4907  0.5332
  889MOL0     C17282   0.101   6.887  10.085  0.5770  0.1676  0.4000
  889MOL0     H17283   0.469   7.149  10.173  0.4130  2.0406 -0.7176
  889MOL0     H17284   0.687   7.275  10.132 -1.9571 -1.0431  3.2649
  889MOL0     H17285   0.950   7.287  10.151  2.8450 -0.3031 -1.0311
  889MOL0     H17286   0.844   7.388  10.046 -0.0869  0.0280 -1.3033
  889MOL0     H17287   1.106   7.268   9.959 -1.3421 -1.0396 -0.0592
  889MOL0     H17288   1.085   7.426  10.046 -1.1907 -1.8429  3.2132
  889MOL0     H17289   0.931   7.512   9.864 -0.7164 -0.3923  0.3002
  889MOL0     H17290   0.971   7.362   9.773  2.5390 -2.7062  1.2509
  889MOL0     H17291   1.178   7.561   9.846 -1.8037  1.0435 -0.5465
  889MOL0     H17292   1.209   7.399   9.766  0.7694 -0.1028 -1.3415
  889MOL0     H17293   1.054   7.472   9.584  0.1474 -1.7169  2.7721
  889MOL0     H17294   1.221   7.544   9.603  0.2615 -0.6366  1.9444
  889MOL0     H17295   1.100   7.766   9.679 -2.2946  3.5369 -2.1387
  889MOL0     H17296   0.957   7.671   9.687  1.9693  1.8365  3.0415
  889MOL0     H17297   1.103   7.705   9.411  0.2705 -0.3668  0.2894
  889MOL0     H17298   0.936   7.659   9.449 -0.7790 -0.7146  0.8147
  889MOL0     H17299   0.922   7.876   9.361  0.0873  0.4766 -0.1104
  889MOL0     H17300   1.050   7.942   9.469 -0.6321  0.7842  0.7191
  889MOL0     H17301   0.681   7.813   9.453  0.8555  2.0050 -0.8288
  889MOL0     H17302   0.530   7.755   9.810 -1.0270  1.8477  1.1945
  889MOL0     H17303   0.514   7.706   9.649  0.1166  0.4399 -1.3188
  889MOL0     H17304   0.339   7.842   9.719  1.5713  0.0441  0.9555
  889MOL0     H17305   0.414   7.909   9.575  5.2228 -0.3917 -1.3084
  889MOL0     H17306   0.485   8.015   9.857  1.6365  0.9956 -0.1576
  889MOL0     H17307   0.538   8.092   9.704 -1.2993  2.8159 -0.5515
  889MOL0     H17308   0.293   8.120   9.646 -3.4186  0.9101  1.3019
  889MOL0     H17309   0.350   8.214   9.789 -2.1864 -1.0809 -0.3109
  889MOL0     H17310   0.143   8.274   9.717  0.6331  1.4136  0.3376
  889MOL0     H17311  -0.107   8.355   9.731 -0.0444 -0.2083  0.5149
  889MOL0     H17312  -0.500   8.148  10.116  1.0275 -2.4571 -1.6711
  889MOL0     H17313  -0.756   8.203  10.171  0.0581  1.2106  0.0971
  889MOL0     H17314  -1.034   8.271   9.842 -0.4794 -1.3269  1.4977
  889MOL0     H17315  -0.963   8.433   9.863 -1.0771  1.0163  0.9358
  889MOL0     H17316  -1.117   8.485  10.049  0.6767  2.0674 -2.8095
  889MOL0     H17317  -1.166   8.318  10.056  1.0223  0.1872  0.4506
  889MOL0     H17318  -1.265   8.338   9.813  1.2858  1.6388 -1.2222
  889MOL0     H17319  -1.207   8.495   9.811  1.0648 -1.3553 -1.0381
  889MOL0     H17320  -1.424   8.401  10.018 -0.1311 -1.3851 -0.8390
  889MOL0     H17321  -1.355   8.564   9.993  1.9397 -1.3429  2.3260
  889MOL0     H17322  -1.489   8.396   9.769 -0.4788 -1.3363  0.7214
  889MOL0     H17323  -1.426   8.563   9.751 -1.3370 -1.0772 -1.1534
  889MOL0     H17324  -1.581   8.653   9.889  0.6492 -0.7952 -1.2445
  889MOL0     H17325  -1.634   8.505   9.974 -0.1924  0.9581 -0.1731
  889MOL0     H17326  -1.682   8.572   9.686  0.2290  1.1866  0.1860
  889MOL0     H17327  -1.728   8.418   9.760 -1.4325 -0.5963  1.4553
  889MOL0     H17328  -1.813   8.696   9.850  2.1549 -0.8100  1.6651
  889MOL0     H17329  -1.898   8.554   9.910  2.0954  0.1574  1.2084
  889MOL0     H17330  -0.815   8.260   9.752  0.5187  2.0654 -0.0960
  889MOL0     H17331  -0.570   8.223   9.708  0.5094  0.2652  0.6527
  889MOL0     H17332  -0.196   7.991   9.942  0.5682 -0.5053 -0.6690
  889MOL0     H17333   0.036   7.919   9.906  0.1361  0.1188 -0.2178
  889MOL0     H17334   0.836   6.954   9.908 -1.2452 -1.2745  0.5512
  889MOL0     H17335   0.625   6.838   9.905  2.3976  0.9923 -2.0361
  889MOL0     H17336   0.206   6.638   9.866 -1.1119 -1.4218  0.1082
  889MOL0     H17337  -0.025   6.561   9.919 -0.4451 -0.5462  0.0072
  889MOL0     H17338  -0.181   6.687  10.297  4.0842 -0.0760 -0.8274
  889MOL0     H17339  -0.130   6.524  10.246 -0.3087 -0.6164 -0.7748
  889MOL0     H17340  -0.341   6.470  10.171  1.2284 -1.2711  0.5159
  889MOL0     H17341  -0.336   6.509  10.345 -0.1524 -2.9167 -1.6616
  889MOL0     H17342  -0.438   6.718  10.142  1.1253 -1.3431 -0.1011
  889MOL0     H17343  -0.441   6.714  10.320 -1.1664 -1.4186  0.5703
  889MOL0     H17344  -0.666   6.670  10.201  3.1125  1.0675 -4.8539
  889MOL0     H17345  -0.595   6.522  10.141  0.6515  1.6090 -1.5937
  889MOL0     H17346  -0.650   6.459  10.569  1.5249  2.7018  2.0461
  889MOL0     H17347  -0.083   6.906  10.170  1.3397  0.6306  0.8960
  889MOL0     H17348   0.135   6.980  10.130 -0.1166  0.8960 -0.5468
  890MOL0     O17349   0.663   2.900   5.988  0.1427 -0.6391  0.6988
  890MOL0     C17350   0.640   2.833   5.884  0.5477 -0.6004 -0.1288
  890MOL0     O17351   0.517   2.808   5.835  0.5492  0.1500  0.4044
  890MOL0     C17352   0.402   2.878   5.888 -0.5365 -0.6818 -0.4019
  890MOL0     C17353   0.288   2.808   5.904 -0.8228  0.9026 -1.2976
  890MOL0     C17354   0.171   2.873   5.945 -0.5847  0.7840 -0.0284
  890MOL0     C17355   0.164   3.010   5.966 -0.2752 -0.1881  0.5660
  890MOL0     O17356   0.049   3.075   6.004 -0.1785 -0.8326  0.4104
  890MOL0     C17357  -0.068   3.008   6.035 -0.1661 -0.2929  0.4568
  890MOL0     C17358  -0.170   3.110   6.083  0.0656 -0.6650 -0.3398
  890MOL0     C17359  -0.300   3.046   6.102  0.0465 -0.7849  0.2632
  890MOL0     C17360  -0.402   3.144   6.163 -0.5737  0.0629  1.2209
  890MOL0     C17361  -0.543   3.090   6.176  0.8118  0.5606  0.0073
  890MOL0     C17362  -0.583   3.074   6.328  0.6351  0.1121  0.3809
  890MOL0     C17363  -0.724   2.999   6.346  0.8710 -0.3664  0.6766
  890MOL0     C17364  -0.748   2.978   6.492  0.2815  0.2207  0.4982
  890MOL0     N17365  -0.887   2.946   6.528 -0.3261  0.0015 -0.3015
  890MOL0     C17366  -0.948   2.829   6.507  0.6728  0.4960 -0.2220
  890MOL0     C17367  -1.067   2.852   6.570  0.3755  0.6719  0.3444
  890MOL0     C17368  -1.166   2.743   6.589  0.3134  0.1835  0.6682
  890MOL0     C17369  -1.273   2.787   6.677  0.1430 -0.9979 -0.0703
  890MOL0     C17370  -1.373   2.690   6.730  0.2591 -0.1457  0.8981
  890MOL0     C17371  -1.309   2.593   6.838  0.2666  0.2841  0.8695
  890MOL0     O17372  -1.399   2.557   6.945 -0.4430 -0.1320 -0.0919
  890MOL0     C17373  -1.528   2.513   6.918 -0.5772  0.5554 -0.4799
  890MOL0     C17374  -1.635   2.575   6.978 -0.7736 -0.5168 -0.5659
  890MOL0     C17375  -1.767   2.536   6.954 -0.8412  0.3435  0.3122
  890MOL0     C17376  -1.792   2.429   6.866 -0.6873  0.3487 -0.1236
  890MOL0     C17377  -1.935   2.396   6.831  0.5230  0.0645 -0.0724
  890MOL0     O17378  -2.025   2.453   6.912 -0.1225 -0.0293 -0.4202
  890MOL0     C17379  -2.150   2.404   6.898 -0.3549 -0.1747  1.0498
  890MOL0     C17380  -2.207   2.278   6.929 -1.1582  0.0634 -0.7242
  890MOL0     C17381  -2.340   2.235   6.904 -0.3655 -0.2701  0.9262
  890MOL0     C17382  -2.427   2.325   6.851  0.3063 -0.4139 -0.3190
  890MOL0     O17383  -2.561   2.300   6.816 -0.0597 -0.5170  0.1405
  890MOL0     C17384  -2.630   2.192   6.883 -0.4286  0.2017 -0.1881
  890MOL0     C17385  -2.772   2.189   6.826  0.0422 -0.1734 -0.2609
  890MOL0     C17386  -2.838   2.310   6.762  0.2019 -0.1884  0.0283
  890MOL0     C17387  -2.963   2.268   6.680  0.2105 -0.0221 -0.5960
  890MOL0     C17388  -3.090   2.263   6.770  0.7577 -0.1487 -0.2497
  890MOL0     C17389  -3.227   2.268   6.691  0.1002  0.1292 -0.4444
  890MOL0     C17390  -3.237   2.348   6.550  0.2811 -0.0520 -0.0545
  890MOL0     C17391  -3.387   2.335   6.485 -0.0513  0.6779 -0.3815
  890MOL0    Cl17392  -3.501   2.460   6.546 -0.5115  0.3154  0.0533
  890MOL0     C17393  -2.376   2.450   6.816 -0.4021 -0.4681  0.4209
  890MOL0     C17394  -2.249   2.495   6.851 -0.3160  0.2621  0.1404
  890MOL0     O17395  -1.958   2.312   6.739 -0.4684 -0.2586 -0.2983
  890MOL0     C17396  -1.681   2.366   6.811 -0.2751  0.1929  0.8993
  890MOL0     C17397  -1.548   2.398   6.837 -0.2097 -0.4072  0.7636
  890MOL0     N17398  -1.076   2.982   6.620  0.0888 -1.4698 -0.2919
  890MOL0     N17399  -0.956   3.033   6.601  1.1009  0.4244 -0.0951
  890MOL0     C17400   0.282   3.092   5.947 -0.7349 -0.4674  0.2436
  890MOL0     C17401   0.406   3.023   5.911  0.8336  0.0400  0.8409
  890MOL0     C17402   0.749   2.768   5.816  0.1164  0.4352 -0.3224
  890MOL0     C17403   0.881   2.770   5.873  0.4706 -0.7569  0.6693
  890MOL0     C17404   0.992   2.729   5.803 -1.1018 -0.3547 -0.3183
  890MOL0     C17405   0.976   2.667   5.679  0.3700  0.9087  1.1897
  890MOL0     O17406   1.087   2.626   5.607 -0.0482  0.0631  0.0823
  890MOL0     C17407   1.080   2.645   5.462 -0.2132  0.7895 -0.2108
  890MOL0     C17408   1.200   2.731   5.410 -0.5576 -0.4294 -0.4347
  890MOL0     C17409   1.217   2.869   5.491  0.2097  0.5233 -0.0814
  890MOL0     C17410   1.126   2.979   5.429 -0.1661 -0.1521  0.1697
  890MOL0     C17411   1.138   3.105   5.503  0.2129  0.0880  0.4303
  890MOL0     C17412   1.158   3.195   5.578 -0.4182 -0.2180 -0.4763
  890MOL0     C17413   0.845   2.640   5.631  0.0161 -0.7103  0.2823
  890MOL0     C17414   0.733   2.703   5.693 -0.3841  0.2393  0.0366
  890MOL0     H17415   0.306   2.701   5.895  1.4098  0.6018  3.4047
  890MOL0     H17416   0.092   2.801   5.965 -0.0012 -0.7983 -2.8770
  890MOL0     H17417  -0.045   2.932   6.110 -0.8736 -2.7403 -1.6797
  890MOL0     H17418  -0.109   2.954   5.950 -0.5397 -1.0990  1.1335
  890MOL0     H17419  -0.179   3.191   6.011  1.9321  0.6853  0.8512
  890MOL0     H17420  -0.136   3.161   6.175  0.1615  2.7967 -2.1231
  890MOL0     H17421  -0.292   2.964   6.175  1.3570 -0.2451  0.7653
  890MOL0     H17422  -0.327   2.990   6.012 -1.7246  0.0880  0.2076
  890MOL0     H17423  -0.369   3.183   6.260 -0.2408 -0.8331  1.4749
  890MOL0     H17424  -0.406   3.222   6.086 -3.9718  0.1738  1.3460
  890MOL0     H17425  -0.560   2.992   6.130  0.4936  0.1261  1.0207
  890MOL0     H17426  -0.619   3.157   6.135 -0.9355 -0.1556  1.8853
  890MOL0     H17427  -0.579   3.171   6.377  1.4306  0.3344 -0.1027
  890MOL0     H17428  -0.504   3.009   6.368  3.4404  1.1866 -2.8450
  890MOL0     H17429  -0.803   3.064   6.308 -0.0718  1.5930  5.2867
  890MOL0     H17430  -0.725   2.900   6.300 -0.5981  0.3864 -1.0380
  890MOL0     H17431  -0.728   3.073   6.542 -1.7467  2.2259 -2.2159
  890MOL0     H17432  -0.676   2.905   6.530 -2.3589 -2.8278  0.1056
  890MOL0     H17433  -0.924   2.742   6.448 -1.2005 -0.2319  0.0201
  890MOL0     H17434  -1.115   2.655   6.629 -1.2620 -2.2323 -2.2426
  890MOL0     H17435  -1.196   2.699   6.494 -1.2023 -0.8151  1.5770
  890MOL0     H17436  -1.323   2.859   6.612 -0.6577 -1.4473  0.0369
  890MOL0     H17437  -1.243   2.838   6.769 -0.3771 -0.9928  0.0964
  890MOL0     H17438  -1.457   2.741   6.779  2.1200  2.5998  1.5095
  890MOL0     H17439  -1.412   2.630   6.647  0.4691 -0.2538  0.8773
  890MOL0     H17440  -1.226   2.654   6.874  0.9233  0.6769 -1.1886
  890MOL0     H17441  -1.270   2.511   6.776 -0.5728  1.4510 -1.2872
  890MOL0     H17442  -1.606   2.656   7.044  0.0492 -1.0970 -0.2014
  890MOL0     H17443  -1.848   2.594   6.997 -2.1320 -0.6616 -0.6746
  890MOL0     H17444  -2.136   2.216   6.983 -0.0766 -0.8874 -3.0927
  890MOL0     H17445  -2.372   2.136   6.935 -1.4686  0.0516  0.8895
  890MOL0     H17446  -2.623   2.216   6.990 -0.4969  2.4990 -0.6347
  890MOL0     H17447  -2.568   2.104   6.862  1.3255  1.6408 -1.4009
  890MOL0     H17448  -2.843   2.157   6.903  1.0640 -0.1650  0.7117
  890MOL0     H17449  -2.774   2.110   6.751  3.1214  0.6154 -1.3279
  890MOL0     H17450  -2.769   2.360   6.694  1.4417 -0.7000  0.8919
  890MOL0     H17451  -2.868   2.377   6.843  0.3745  0.9413 -0.8273
  890MOL0     H17452  -2.981   2.344   6.604  1.3214  1.4525  0.5549
  890MOL0     H17453  -2.952   2.174   6.625  1.2197 -1.4068  1.8234
  890MOL0     H17454  -3.094   2.346   6.841 -0.8024  1.0301 -1.6560
  890MOL0     H17455  -3.088   2.166   6.821 -1.5880 -1.3022 -2.1782
  890MOL0     H17456  -3.314   2.290   6.754 -0.8301 -0.9235 -1.3232
  890MOL0     H17457  -3.247   2.165   6.660  0.0024  0.5281 -1.7802
  890MOL0     H17458  -3.203   2.451   6.564 -0.5534  0.0588  1.4590
  890MOL0     H17459  -3.165   2.305   6.480  5.0169  0.0077  4.1888
  890MOL0     H17460  -3.421   2.234   6.509  1.4740 -0.2114 -1.7924
  890MOL0     H17461  -3.388   2.343   6.376  0.0055 -0.6912 -0.4924
  890MOL0     H17462  -2.433   2.524   6.761  3.4281  2.6141  0.2290
  890MOL0     H17463  -2.225   2.595   6.816  2.5128 -1.1064 -2.2802
  890MOL0     H17464  -1.701   2.299   6.728 -0.0955  1.5373 -0.2789
  890MOL0     H17465  -1.459   2.364   6.785  0.0144  0.0779  0.8199
  890MOL0     H17466   0.294   3.199   5.957 -1.7603 -0.0716 -2.1390
  890MOL0     H17467   0.490   3.087   5.886  0.1734  0.8094  0.5256
  890MOL0     H17468   0.894   2.812   5.973  0.0377  0.2802  0.2985
  890MOL0     H17469   1.090   2.750   5.845 -0.4349  0.0957 -2.0009
  890MOL0     H17470   0.993   2.707   5.440 -1.1494  1.2286  3.9206
  890MOL0     H17471   1.083   2.554   5.402  0.2690  1.4126 -1.1667
  890MOL0     H17472   1.288   2.669   5.430 -0.8855 -0.3449  1.4441
  890MOL0     H17473   1.181   2.747   5.304 -0.5914  0.6732 -0.2697
  890MOL0     H17474   1.321   2.899   5.475  0.3258  0.3548  0.3333
  890MOL0     H17475   1.207   2.851   5.599  0.4550 -0.2970 -0.1835
  890MOL0     H17476   1.162   2.998   5.327  0.3866 -0.8110  0.2374
  890MOL0     H17477   1.020   2.952   5.430  0.3060 -2.1585  1.2463
  890MOL0     H17478   1.180   3.273   5.647  2.3565 -0.4522 -0.9529
  890MOL0     H17479   0.840   2.582   5.540  2.6135 -3.1011  1.4931
  890MOL0     H17480   0.636   2.680   5.650 -0.6510  0.1024  0.7043
  891MOL0     O17481   5.093  10.212  10.574  0.0909  0.0016 -0.1179
  891MOL0     C17482   5.169  10.248  10.661  0.7200  0.6912 -0.1965
  891MOL0     O17483   5.128  10.302  10.783 -0.3673  0.6076 -0.1723
  891MOL0     C17484   4.997  10.318  10.814 -0.1788 -0.5111 -0.5790
  891MOL0     C17485   4.894  10.221  10.787 -1.0111  0.1763  0.5200
  891MOL0     C17486   4.762  10.245  10.831  0.0139  0.0394  0.0952
  891MOL0     C17487   4.725  10.359  10.911  0.4666  0.1093  0.0705
  891MOL0     O17488   4.590  10.356  10.951 -0.2011 -0.7256 -0.2012
  891MOL0     C17489   4.546  10.473  11.022  0.3080 -0.0360 -0.0738
  891MOL0     C17490   4.394  10.468  11.036  0.4233 -0.5871  0.4318
  891MOL0     C17491   4.339  10.397  11.160 -0.4579 -0.7361 -0.1439
  891MOL0     C17492   4.183  10.416  11.151  0.0951  0.2350  0.5386
  891MOL0     C17493   4.126  10.379  11.296 -0.9852  0.4881 -0.0514
  891MOL0     C17494   3.975  10.399  11.304 -0.2220  0.7432  0.2081
  891MOL0     C17495   3.927  10.389  11.446 -0.0120  0.7899 -0.4209
  891MOL0     C17496   3.788  10.319  11.457  0.2582  0.1935 -1.1011
  891MOL0     N17497   3.683  10.417  11.415  0.1810  0.1818  0.1774
  891MOL0     C17498   3.642  10.442  11.292  0.1310  0.0878  0.0642
  891MOL0     C17499   3.552  10.541  11.291  0.1091 -0.4209 -0.4127
  891MOL0     C17500   3.493  10.606  11.167  0.7199 -0.6805 -0.5491
  891MOL0     C17501   3.346  10.645  11.186  0.2619 -0.0235 -0.4873
  891MOL0     C17502   3.272  10.671  11.053 -0.2190 -0.3875  0.0038
  891MOL0     C17503   3.119  10.652  11.073  0.3997  0.1292  0.5033
  891MOL0     O17504   3.048  10.695  10.948 -0.0634 -0.2690 -0.0651
  891MOL0     C17505   2.916  10.700  10.935 -0.0668  0.0763 -0.0274
  891MOL0     C17506   2.822  10.657  11.033 -0.3589 -0.2203  0.7870
  891MOL0     C17507   2.686  10.665  11.007  0.2858  0.3740 -0.1155
  891MOL0     C17508   2.633  10.710  10.883  0.0627 -0.1942  0.1179
  891MOL0     C17509   2.484  10.713  10.865 -1.1029 -0.2836 -0.0739
  891MOL0     O17510   2.404  10.686  10.971 -0.1740  0.0093 -0.0992
  891MOL0     C17511   2.275  10.727  10.967  0.9585  0.4742 -0.4136
  891MOL0     C17512   2.227  10.802  11.078 -0.2459 -0.2934 -0.4128
  891MOL0     C17513   2.099  10.864  11.075 -0.4125  0.0977  0.1039
  891MOL0     C17514   2.009  10.833  10.981  0.2037 -0.5190  0.1982
  891MOL0     O17515   1.884  10.882  10.968  0.6002  0.1896 -0.2376
  891MOL0     C17516   1.801  10.907  11.090  0.0159  0.5149 -1.1185
  891MOL0     C17517   1.659  10.924  11.063 -0.0876  0.6287 -0.1746
  891MOL0     C17518   1.587  10.804  10.987 -0.9233 -0.1545  0.2364
  891MOL0     C17519   1.598  10.666  11.057 -0.9754  0.7182  0.1627
  891MOL0     C17520   1.536  10.555  10.965 -0.3914 -0.2555  0.4394
  891MOL0     C17521   1.547  10.412  11.028 -0.2102 -0.5862 -0.3658
  891MOL0     C17522   1.512  10.306  10.932 -0.3070  0.3571 -0.3298
  891MOL0     C17523   1.522  10.179  11.003 -0.0979  0.4267  1.3156
  891MOL0    Cl17524   1.692  10.145  11.061  0.4708  0.1010  0.0743
  891MOL0     C17525   2.048  10.752  10.874  0.5506  0.1149  0.0709
  891MOL0     C17526   2.179  10.699  10.869  0.3200 -0.4670  0.1522
  891MOL0     O17527   2.449  10.768  10.762 -0.5940 -0.2426  0.0845
  891MOL0     C17528   2.720  10.742  10.779 -0.5424  0.6978  0.0004
  891MOL0     C17529   2.862  10.744  10.807  0.2114  0.2911  0.6272
  891MOL0     N17530   3.540  10.575  11.419 -0.1546  0.2656 -1.0638
  891MOL0     N17531   3.620  10.509  11.491 -0.1180  0.4945 -0.6773
  891MOL0     C17532   4.829  10.453  10.930 -0.4396  0.0826 -0.5865
  891MOL0     C17533   4.963  10.439  10.882  0.2310  0.6908 -0.7084
  891MOL0     C17534   5.316  10.249  10.635  0.4256  0.2294  0.6029
  891MOL0     C17535   5.375  10.227  10.503  1.1415  0.2710 -0.1831
  891MOL0     C17536   5.514  10.231  10.483 -0.1826 -0.4251  0.3054
  891MOL0     C17537   5.600  10.272  10.586  0.7183 -0.6885 -0.2226
  891MOL0     O17538   5.729  10.275  10.561 -0.3158  0.2089 -0.3877
  891MOL0     C17539   5.802  10.377  10.630  0.7102 -0.6397 -0.8940
  891MOL0     C17540   5.923  10.413  10.560  0.0146  0.0666  0.2988
  891MOL0     C17541   5.895  10.483  10.427  0.5553  0.3387 -0.3458
  891MOL0     C17542   6.021  10.522  10.374 -0.1485 -0.4737  0.5575
  891MOL0     C17543   6.015  10.536  10.228 -0.2175  0.5946 -0.3143
  891MOL0     C17544   6.014  10.544  10.106  0.6426  0.2916 -0.0921
  891MOL0     C17545   5.542  10.290  10.713  0.0078  0.4433  0.2902
  891MOL0     C17546   5.399  10.282  10.739 -0.1133 -1.0683  0.3981
  891MOL0     H17547   4.919  10.134  10.728  0.7067  2.6955 -2.8268
  891MOL0     H17548   4.672  10.186  10.817 -0.5259  0.4713  1.5170
  891MOL0     H17549   4.572  10.563  10.965 -0.3449 -0.0105 -0.3437
  891MOL0     H17550   4.592  10.484  11.121 -1.9664  2.1779  0.8633
  891MOL0     H17551   4.362  10.407  10.951  0.6363 -0.1196  0.0176
  891MOL0     H17552   4.350  10.568  11.046  2.0229  0.3261 -1.2486
  891MOL0     H17553   4.382  10.431  11.254  0.1493 -0.5729 -0.4779
  891MOL0     H17554   4.370  10.293  11.152 -0.7390 -0.7126 -2.3172
  891MOL0     H17555   4.167  10.524  11.142 -0.0741  0.0562 -2.0086
  891MOL0     H17556   4.139  10.380  11.058  1.4295  1.2806 -0.5472
  891MOL0     H17557   4.185  10.449  11.356  0.4393  1.3299 -2.3014
  891MOL0     H17558   4.153  10.281  11.337 -3.4064  0.2240  1.0281
  891MOL0     H17559   3.937  10.318  11.241  1.6911  1.1143 -1.5183
  891MOL0     H17560   3.947  10.502  11.280  2.7655  1.8774  1.1130
  891MOL0     H17561   3.995  10.329  11.507 -0.4399  1.1188  0.3931
  891MOL0     H17562   3.919  10.491  11.486  0.0859  0.2941  0.9004
  891MOL0     H17563   3.772  10.298  11.564 -0.1000  2.1036 -0.7437
  891MOL0     H17564   3.777  10.226  11.400 -0.3834 -1.7955  2.0126
  891MOL0     H17565   3.681  10.398  11.202  0.2926 -0.0146  0.1836
  891MOL0     H17566   3.489  10.540  11.080 -0.4994 -1.6291  0.2027
  891MOL0     H17567   3.554  10.693  11.140 -2.8075  3.3803  2.9457
  891MOL0     H17568   3.328  10.722  11.262 -0.7455  0.5300 -1.2652
  891MOL0     H17569   3.301  10.551  11.219  0.4470 -0.7402 -2.1813
  891MOL0     H17570   3.291  10.775  11.023 -0.1309 -1.1089 -2.6223
  891MOL0     H17571   3.304  10.611  10.968 -2.8075 -1.9547  0.0228
  891MOL0     H17572   3.080  10.698  11.164  0.2308 -1.9537  1.5450
  891MOL0     H17573   3.104  10.545  11.091 -1.6098  0.2191 -0.3488
  891MOL0     H17574   2.855  10.622  11.130  0.4098  0.0409  0.6297
  891MOL0     H17575   2.620  10.637  11.089 -0.7622 -0.2421 -1.1533
  891MOL0     H17576   2.295  10.826  11.160  1.5948  0.7504 -2.1708
  891MOL0     H17577   2.076  10.932  11.156 -0.1554 -0.1032  0.3498
  891MOL0     H17578   1.834  11.002  11.134 -1.8585  0.8251 -0.2847
  891MOL0     H17579   1.816  10.817  11.151 -3.1486 -1.0084 -2.3870
  891MOL0     H17580   1.633  11.015  11.008 -0.7846  2.0784  2.4184
  891MOL0     H17581   1.616  10.950  11.160 -0.4745  1.3688 -0.5347
  891MOL0     H17582   1.648  10.805  10.896 -1.4775 -4.2041 -0.3452
  891MOL0     H17583   1.490  10.843  10.957 -0.7670 -1.6083 -2.4721
  891MOL0     H17584   1.700  10.634  11.080 -1.0665 -0.3332 -0.7857
  891MOL0     H17585   1.547  10.678  11.153 -1.1161 -1.5731  0.4339
  891MOL0     H17586   1.591  10.561  10.871 -1.0693  1.5705  0.1233
  891MOL0     H17587   1.430  10.571  10.943  0.1099 -0.5270 -2.5475
  891MOL0     H17588   1.480  10.411  11.115 -2.4770  0.4429 -1.9805
  891MOL0     H17589   1.649  10.397  11.065  0.0335 -1.6157 -1.3977
  891MOL0     H17590   1.413  10.324  10.889 -0.4855  1.9174  0.6485
  891MOL0     H17591   1.586  10.309  10.851  2.2015  0.3548  1.8176
  891MOL0     H17592   1.485  10.106  10.929 -0.9166  1.1564  0.9902
  891MOL0     H17593   1.445  10.164  11.078 -1.5780  2.3108  0.2483
  891MOL0     H17594   1.972  10.737  10.798 -1.9343  1.7842  2.0417
  891MOL0     H17595   2.195  10.626  10.790 -2.3145 -1.2598  0.2378
  891MOL0     H17596   2.688  10.765  10.678  3.1730  1.1628 -1.2122
  891MOL0     H17597   2.937  10.768  10.733  0.9963 -0.7996  1.0386
  891MOL0     H17598   4.797  10.541  10.985 -1.8714 -0.3440 -0.6826
  891MOL0     H17599   5.035  10.519  10.901  0.2564  0.7393 -1.0081
  891MOL0     H17600   5.307  10.202  10.422  1.4686  1.1242 -0.7379
  891MOL0     H17601   5.553  10.215  10.383 -3.1660 -1.9237 -0.7335
  891MOL0     H17602   5.831  10.342  10.729  0.8467  1.3446 -0.1974
  891MOL0     H17603   5.748  10.471  10.648 -0.6862 -1.4806 -0.5450
  891MOL0     H17604   5.976  10.479  10.629  1.0906  1.1480 -1.4853
  891MOL0     H17605   5.987  10.327  10.535  3.1918  2.7697 -1.6898
  891MOL0     H17606   5.827  10.566  10.447  0.3937  0.0604  0.2772
  891MOL0     H17607   5.854  10.409  10.358  0.2614 -0.7890  0.9762
  891MOL0     H17608   6.059  10.618  10.411  1.4233 -1.1868  0.8699
  891MOL0     H17609   6.097  10.445  10.390 -0.9917 -1.3418  0.4592
  891MOL0     H17610   6.026  10.547   9.999 -3.0316  1.3049 -0.6363
  891MOL0     H17611   5.603  10.333  10.791 -0.6101  4.8795 -1.4056
  891MOL0     H17612   5.363  10.323  10.832  1.1241  0.7533  0.1184
  892MOL0     O17613   1.948   9.606   0.930  0.4677 -0.0875  0.0472
  892MOL0     C17614   2.047   9.655   0.986  0.7830  0.1453 -0.1518
  892MOL0     O17615   2.042   9.753   1.082  0.0494  0.0027 -0.2859
  892MOL0     C17616   1.927   9.826   1.115 -0.3593 -0.2813  0.1451
  892MOL0     C17617   1.807   9.848   1.041 -0.0763 -0.1899 -0.3409
  892MOL0     C17618   1.704   9.922   1.102 -0.3393 -0.0464  0.2833
  892MOL0     C17619   1.713   9.989   1.231  0.0855  0.1264 -0.7239
  892MOL0     O17620   1.591  10.037   1.283  0.2875  0.4012 -0.1829
  892MOL0     C17621   1.608  10.151   1.374  0.3049  0.4956  0.6826
  892MOL0     C17622   1.488  10.248   1.375  0.4147 -0.6685  0.0504
  892MOL0     C17623   1.366  10.190   1.437 -0.2211 -0.6775  0.7779
  892MOL0     C17624   1.252  10.287   1.459  0.0897  0.3314 -0.1225
  892MOL0     C17625   1.129  10.243   1.529  0.1751  0.5145  0.4188
  892MOL0     C17626   1.081  10.100   1.487  0.3090 -0.4291 -0.2623
  892MOL0     C17627   0.939  10.067   1.547 -0.2941  0.2837  0.1231
  892MOL0     C17628   0.898   9.924   1.525 -0.1299  0.9477  0.3187
  892MOL0     N17629   0.751   9.922   1.553 -0.0219  0.6133  0.4251
  892MOL0     C17630   0.693   9.975   1.659  1.4068 -0.2263  0.1072
  892MOL0     C17631   0.560   9.954   1.639 -0.2499 -1.0682  0.1804
  892MOL0     C17632   0.454  10.011   1.723  0.1371  0.8355  0.6107
  892MOL0     C17633   0.337   9.915   1.728  0.4279 -0.7736 -0.1582
  892MOL0     C17634   0.214   9.988   1.783  0.6757 -0.2553 -0.4931
  892MOL0     C17635   0.103   9.885   1.816 -0.1771  0.3534  0.6266
  892MOL0     O17636  -0.019   9.950   1.845  0.8097 -0.1523  0.7719
  892MOL0     C17637  -0.137   9.884   1.813  0.0573  0.0726  0.5645
  892MOL0     C17638  -0.145   9.761   1.755  0.5529 -0.9379 -0.3539
  892MOL0     C17639  -0.272   9.702   1.744  0.7196  0.1414  0.0518
  892MOL0     C17640  -0.388   9.772   1.786  0.0229  1.1158 -0.3424
  892MOL0     C17641  -0.526   9.703   1.799  0.1257  0.7884  0.3848
  892MOL0     O17642  -0.573   9.625   1.693 -0.7823  0.1454  0.5704
  892MOL0     C17643  -0.688   9.552   1.710 -0.3249  0.5005  0.7760
  892MOL0     C17644  -0.677   9.420   1.684  0.5179  0.2874 -0.4723
  892MOL0     C17645  -0.792   9.339   1.683  0.2120 -1.1416 -0.3573
  892MOL0     C17646  -0.923   9.390   1.709  0.3548  0.4085 -0.5376
  892MOL0     O17647  -1.039   9.313   1.716 -0.1600  0.3707  1.0910
  892MOL0     C17648  -1.030   9.170   1.677 -0.6509 -0.2877  0.6871
  892MOL0     C17649  -1.170   9.121   1.682  0.5864 -0.8756 -0.8280
  892MOL0     C17650  -1.280   9.191   1.603  0.0914  0.1638  0.1959
  892MOL0     C17651  -1.413   9.116   1.622  0.2002 -0.4614 -0.6248
  892MOL0     C17652  -1.511   9.148   1.513 -0.0639  0.4470  0.2517
  892MOL0     C17653  -1.641   9.064   1.510 -0.4811  0.0518 -0.3752
  892MOL0     C17654  -1.747   9.092   1.405 -0.2078 -0.1738 -0.3054
  892MOL0     C17655  -1.860   8.984   1.414 -0.4144  0.3090  0.0508
  892MOL0    Cl17656  -2.020   9.068   1.358 -0.5347  0.2551 -0.4925
  892MOL0     C17657  -0.928   9.528   1.733  0.0488 -0.2057 -0.3275
  892MOL0     C17658  -0.814   9.615   1.731  0.9590 -0.1624 -0.5858
  892MOL0     O17659  -0.591   9.721   1.901 -0.4064 -0.5822  0.3678
  892MOL0     C17660  -0.382   9.903   1.828 -0.5871  0.3138 -0.3282
  892MOL0     C17661  -0.255   9.958   1.839  0.1314 -0.2070 -0.0852
  892MOL0     N17662   0.532   9.889   1.516 -0.6549  0.4381  1.2085
  892MOL0     N17663   0.655   9.868   1.464 -0.0542 -0.4593 -0.6511
  892MOL0     C17664   1.837   9.972   1.296  0.2412 -0.3761 -0.2741
  892MOL0     C17665   1.942   9.895   1.245 -0.3690  0.4428  0.4406
  892MOL0     C17666   2.188   9.617   0.942  0.2624  1.0343  0.3507
  892MOL0     C17667   2.203   9.525   0.825  0.0465  0.4822  1.1954
  892MOL0     C17668   2.331   9.508   0.771 -0.0682 -0.5272  0.2321
  892MOL0     C17669   2.448   9.568   0.834  0.5127  1.0310  0.4542
  892MOL0     O17670   2.572   9.542   0.791 -0.5631 -0.1172 -0.2154
  892MOL0     C17671   2.613   9.406   0.796  0.2014 -0.6198 -0.5399
  892MOL0     C17672   2.762   9.404   0.837  0.0059 -0.7431 -0.0396
  892MOL0     C17673   2.827   9.261   0.869 -0.5021 -0.0849 -0.0800
  892MOL0     C17674   2.979   9.282   0.906 -0.3170 -0.4608 -1.0743
  892MOL0     C17675   3.042   9.163   0.960  0.1196  0.0138  0.8246
  892MOL0     C17676   3.108   9.074   1.008 -0.6060 -0.1044  0.1424
  892MOL0     C17677   2.428   9.653   0.940  0.2473  0.3849  0.0782
  892MOL0     C17678   2.298   9.676   0.993 -1.0422  0.2439 -0.9045
  892MOL0     H17679   1.777   9.807   0.945 -0.8198  0.5460 -0.4389
  892MOL0     H17680   1.607   9.929   1.055  1.2273  3.3585 -2.9103
  892MOL0     H17681   1.693  10.211   1.342 -0.3248  0.4685 -1.1058
  892MOL0     H17682   1.617  10.104   1.473 -2.4052 -1.0007  0.3286
  892MOL0     H17683   1.480  10.283   1.271  1.3581  0.9468  0.4849
  892MOL0     H17684   1.523  10.328   1.440  2.2951 -0.8038 -0.7020
  892MOL0     H17685   1.394  10.157   1.537 -1.2898 -0.2607  1.2305
  892MOL0     H17686   1.341  10.099   1.381  0.7510  0.4461 -1.6318
  892MOL0     H17687   1.295  10.370   1.515 -0.6151  2.0757 -2.0566
  892MOL0     H17688   1.230  10.325   1.359  2.7782 -1.7904 -1.6667
  892MOL0     H17689   1.054  10.318   1.504  2.3677  2.3564 -0.9600
  892MOL0     H17690   1.146  10.251   1.637  4.0651  0.2708 -0.0158
  892MOL0     H17691   1.152  10.020   1.513 -0.0471 -1.5337 -2.4403
  892MOL0     H17692   1.066  10.093   1.379  1.5238 -2.1765 -0.3605
  892MOL0     H17693   0.944  10.094   1.653  0.8162  4.3862 -0.7661
  892MOL0     H17694   0.863  10.130   1.500  0.8164  0.1851 -1.9487
  892MOL0     H17695   0.955   9.871   1.602 -1.1589  0.4807  0.7762
  892MOL0     H17696   0.924   9.877   1.430  2.0729  3.0702 -0.2171
  892MOL0     H17697   0.745  10.021   1.743 -0.6454  0.2582  1.1771
  892MOL0     H17698   0.416  10.105   1.683 -1.0316  0.0654 -0.1541
  892MOL0     H17699   0.489  10.031   1.825 -1.2886  0.7575  1.1466
  892MOL0     H17700   0.353   9.831   1.796 -0.5446  0.9474  2.3466
  892MOL0     H17701   0.299   9.879   1.631 -2.7615 -1.2552  1.1459
  892MOL0     H17702   0.233  10.047   1.874 -2.0494 -0.2697  0.1502
  892MOL0     H17703   0.174  10.050   1.702 -1.5147 -1.0012 -0.0401
  892MOL0     H17704   0.136   9.827   1.903  2.9809  1.5819  0.4042
  892MOL0     H17705   0.104   9.814   1.733 -2.0317  0.9851  0.0321
  892MOL0     H17706  -0.056   9.725   1.706  1.7208  2.3064 -0.8845
  892MOL0     H17707  -0.280   9.609   1.688 -0.3508  1.0626 -1.3860
  892MOL0     H17708  -0.579   9.382   1.655  0.1958  0.1968 -1.4604
  892MOL0     H17709  -0.781   9.231   1.676 -0.1560 -1.0944 -1.8231
  892MOL0     H17710  -0.968   9.109   1.742  1.2120 -0.3295 -1.0333
  892MOL0     H17711  -1.004   9.161   1.571 -1.4195 -5.3657  0.7031
  892MOL0     H17712  -1.190   9.138   1.788  1.1666 -1.1581 -0.6676
  892MOL0     H17713  -1.186   9.013   1.670 -0.7905 -0.8868  0.7310
  892MOL0     H17714  -1.244   9.192   1.499  0.2392  0.5280  0.2481
  892MOL0     H17715  -1.289   9.293   1.640 -2.7165 -0.0231  0.1739
  892MOL0     H17716  -1.394   9.008   1.616 -1.3366 -0.7089 -2.3726
  892MOL0     H17717  -1.459   9.142   1.717 -0.8944  1.5179 -1.6329
  892MOL0     H17718  -1.457   9.128   1.420 -1.5601 -1.3135 -0.2805
  892MOL0     H17719  -1.530   9.255   1.523 -1.9988 -0.0698  4.5454
  892MOL0     H17720  -1.696   9.075   1.605 -0.0590 -1.9801  0.1577
  892MOL0     H17721  -1.617   8.959   1.493  1.7865  0.5992 -0.8149
  892MOL0     H17722  -1.792   9.183   1.444  1.2982  1.1260 -1.4843
  892MOL0     H17723  -1.714   9.097   1.300 -0.4091 -1.5637 -0.4539
  892MOL0     H17724  -1.868   8.940   1.513  3.0001  0.0490  0.3327
  892MOL0     H17725  -1.831   8.905   1.344 -2.3667  0.5881 -1.1527
  892MOL0     H17726  -1.024   9.574   1.754  0.1289 -0.8322  1.5572
  892MOL0     H17727  -0.813   9.722   1.750  1.1754 -0.1290 -0.7865
  892MOL0     H17728  -0.473   9.954   1.857 -2.0557 -2.6959  0.7279
  892MOL0     H17729  -0.246  10.060   1.873 -0.0940 -0.5491  1.0137
  892MOL0     H17730   1.850  10.017   1.394 -3.3675  2.0756 -0.7057
  892MOL0     H17731   2.035   9.870   1.295 -0.0931 -1.4932 -0.9363
  892MOL0     H17732   2.115   9.480   0.780  0.0978 -2.1089  3.4406
  892MOL0     H17733   2.330   9.443   0.685  0.3250 -2.7213  1.8144
  892MOL0     H17734   2.594   9.349   0.705  0.7111 -0.6304 -0.6435
  892MOL0     H17735   2.561   9.346   0.871 -2.3655  0.3785 -1.4238
  892MOL0     H17736   2.810   9.445   0.748  0.2022 -1.4427 -0.2611
  892MOL0     H17737   2.775   9.474   0.920  1.7047  0.0871 -0.9571
  892MOL0     H17738   2.810   9.200   0.780 -2.3314  1.2716 -0.7293
  892MOL0     H17739   2.763   9.219   0.947  0.5187  1.5834  1.7504
  892MOL0     H17740   3.033   9.331   0.824  1.6988 -1.4462 -0.3914
  892MOL0     H17741   2.984   9.359   0.985  1.5327 -0.1891 -1.4099
  892MOL0     H17742   3.151   9.000   1.072 -2.2402  0.0186  1.4558
  892MOL0     H17743   2.515   9.695   0.989 -0.0088  2.8631 -1.4347
  892MOL0     H17744   2.290   9.742   1.078  1.6265  1.1804 -1.2978
  893MOL0     O17745   5.154   8.386   9.887 -1.0061  0.2000  0.2598
  893MOL0     C17746   5.146   8.265   9.861  0.2808 -0.1428 -0.1429
  893MOL0     O17747   5.043   8.182   9.877  0.0227 -0.5568 -0.2166
  893MOL0     C17748   4.921   8.225   9.924 -0.4659 -0.3893  0.0081
  893MOL0     C17749   4.844   8.323   9.856 -0.4105 -0.1511 -0.4152
  893MOL0     C17750   4.712   8.349   9.900  0.0196 -0.7198  0.0472
  893MOL0     C17751   4.657   8.291  10.013 -0.1285 -0.8774 -0.5866
  893MOL0     O17752   4.537   8.339  10.059 -0.5859 -0.3290 -0.3053
  893MOL0     C17753   4.476   8.271  10.170 -0.1187  0.3617  0.2302
  893MOL0     C17754   4.329   8.316  10.185  0.7699  0.7081  0.5938
  893MOL0     C17755   4.241   8.297  10.060  0.8229  0.4108  0.0163
  893MOL0     C17756   4.089   8.309  10.085 -0.0143 -0.5824 -0.6245
  893MOL0     C17757   3.998   8.278   9.969 -0.3746 -0.1859  1.1075
  893MOL0     C17758   3.849   8.296   9.989  0.8344 -0.0556 -0.3371
  893MOL0     C17759   3.767   8.212   9.898 -0.2221  0.6017  0.4879
  893MOL0     C17760   3.762   8.063   9.937  0.5878  0.0751  0.2718
  893MOL0     N17761   3.640   7.999   9.877  0.0958  0.3633 -0.2029
  893MOL0     C17762   3.528   7.955   9.935 -0.0326 -0.0209 -0.6215
  893MOL0     C17763   3.455   7.897   9.845  0.0757 -0.7193 -0.1756
  893MOL0     C17764   3.318   7.835   9.865 -0.1715  0.5356 -0.5873
  893MOL0     C17765   3.207   7.935   9.830 -0.3590 -0.9050  0.1046
  893MOL0     C17766   3.074   7.857   9.794  0.6923  0.0259 -0.2513
  893MOL0     C17767   2.968   7.948   9.734  0.4641  0.5187  0.4835
  893MOL0     O17768   2.953   8.074   9.806 -0.3455 -0.8411 -0.4513
  893MOL0     C17769   2.857   8.175   9.770  0.9724  0.7496  0.7690
  893MOL0     C17770   2.767   8.159   9.664  0.2476  0.4849  0.5640
  893MOL0     C17771   2.670   8.258   9.630 -1.2777  0.3356 -0.3254
  893MOL0     C17772   2.665   8.377   9.698 -0.2444 -0.8057  0.7766
  893MOL0     C17773   2.562   8.481   9.672  0.1971  0.3131  0.1651
  893MOL0     O17774   2.443   8.447   9.605 -0.1098 -0.7600 -0.6053
  893MOL0     C17775   2.348   8.541   9.590  0.0765 -0.6966  0.2975
  893MOL0     C17776   2.223   8.494   9.579 -0.6052 -0.3710  0.2686
  893MOL0     C17777   2.108   8.574   9.560 -0.3017  0.1225 -0.4834
  893MOL0     C17778   2.124   8.716   9.540  0.1596  0.4194 -0.0042
  893MOL0     O17779   2.013   8.788   9.498 -1.3346 -0.1534  0.2098
  893MOL0     C17780   2.024   8.927   9.486 -1.0995  0.1047 -0.5035
  893MOL0     C17781   1.904   8.982   9.421 -0.8461 -0.2517  0.5300
  893MOL0     C17782   1.776   8.937   9.477  0.4227 -0.1826  0.1128
  893MOL0     C17783   1.647   8.966   9.393 -0.7337  0.5203 -0.1912
  893MOL0     C17784   1.622   9.114   9.370 -0.0154 -0.4397  0.8114
  893MOL0     C17785   1.504   9.149   9.278  0.8287  0.1012 -0.5552
  893MOL0     C17786   1.483   9.063   9.149  0.3117 -0.2549 -0.2635
  893MOL0     C17787   1.356   9.083   9.069 -0.1171  0.4443  0.3226
  893MOL0    Cl17788   1.215   9.051   9.180 -0.1375 -0.1558  0.0787
  893MOL0     C17789   2.246   8.765   9.555 -0.1662  0.2857  0.2925
  893MOL0     C17790   2.358   8.679   9.588 -0.0646 -0.3353 -0.1199
  893MOL0     O17791   2.596   8.589   9.711 -1.0944 -0.9062  0.0248
  893MOL0     C17792   2.768   8.397   9.795  1.0490 -0.0343 -0.0538
  893MOL0     C17793   2.857   8.296   9.831  0.6468  0.6752 -0.5615
  893MOL0     N17794   3.501   7.930   9.720  0.2045 -0.9175 -0.3928
  893MOL0     N17795   3.604   8.005   9.741  0.2584  0.5872  0.7263
  893MOL0     C17796   4.735   8.191  10.079  0.0389 -0.8420  0.3162
  893MOL0     C17797   4.862   8.153  10.032  0.5979  0.6184 -0.2232
  893MOL0     C17798   5.279   8.214   9.828 -1.0656  0.8150  0.2765
  893MOL0     C17799   5.321   8.080   9.869  0.3659 -0.0188 -0.8704
  893MOL0     C17800   5.444   8.022   9.842 -0.9345  0.0790  0.6816
  893MOL0     C17801   5.543   8.102   9.769  0.6428  0.0151  0.2028
  893MOL0     O17802   5.675   8.063   9.756 -0.1128 -0.3868 -0.0234
  893MOL0     C17803   5.722   7.921   9.766  0.1654 -0.8416  0.4437
  893MOL0     C17804   5.873   7.924   9.794  0.0516  0.2953  0.3177
  893MOL0     C17805   5.926   7.787   9.828 -0.3576 -1.1239 -0.7695
  893MOL0     C17806   6.074   7.799   9.869  0.0265 -0.4395 -0.1601
  893MOL0     C17807   6.115   7.667   9.927  1.0527 -0.4946 -0.0951
  893MOL0     C17808   6.158   7.577   9.986  0.0169 -0.4916 -0.1821
  893MOL0     C17809   5.498   8.224   9.724 -0.1947  0.0219 -0.1409
  893MOL0     C17810   5.372   8.274   9.739  0.2909  0.2692  0.0582
  893MOL0     H17811   4.886   8.382   9.774 -1.9140  1.2181 -0.2488
  893MOL0     H17812   4.661   8.436   9.861  1.5092 -0.6932 -2.0223
  893MOL0     H17813   4.531   8.291  10.262  2.8179 -1.4241 -1.0034
  893MOL0     H17814   4.480   8.163  10.152 -0.6855  0.2457  0.7580
  893MOL0     H17815   4.317   8.421  10.214 -1.4174  0.7427 -0.2631
  893MOL0     H17816   4.289   8.251  10.264 -2.5149  0.8913 -0.7744
  893MOL0     H17817   4.255   8.195  10.025 -0.0551 -0.1391  1.2018
  893MOL0     H17818   4.278   8.368   9.985  1.8588  0.0713  0.1911
  893MOL0     H17819   4.057   8.263  10.179 -0.1560  2.1107  0.7470
  893MOL0     H17820   4.062   8.413  10.103 -0.0867 -1.1444  3.4207
  893MOL0     H17821   4.013   8.171   9.951  0.0437 -0.3773  2.5038
  893MOL0     H17822   4.022   8.337   9.880 -3.4756 -0.7991 -0.2913
  893MOL0     H17823   3.816   8.398   9.966 -2.5580 -0.6364  1.3893
  893MOL0     H17824   3.823   8.276  10.094 -0.4950 -0.9810 -0.8298
  893MOL0     H17825   3.665   8.251   9.889 -0.1445  0.5884 -0.6532
  893MOL0     H17826   3.811   8.232   9.800 -1.2152 -3.2773 -0.9162
  893MOL0     H17827   3.763   8.047  10.045  0.4164  0.9642  0.4093
  893MOL0     H17828   3.848   8.005   9.903  0.0585 -0.4903 -0.1328
  893MOL0     H17829   3.518   7.961  10.043 -1.2698  4.1053 -0.7847
  893MOL0     H17830   3.301   7.799   9.967 -1.1160  0.2330 -0.8383
  893MOL0     H17831   3.307   7.745   9.804 -0.6767  1.1815 -1.4767
  893MOL0     H17832   3.248   8.008   9.759 -4.4242  1.3339 -0.2517
  893MOL0     H17833   3.178   8.000   9.913  1.8730 -0.9453  0.9758
  893MOL0     H17834   3.104   7.783   9.720  0.2001  0.7268 -1.1862
  893MOL0     H17835   3.042   7.802   9.884  0.7349 -1.7016 -1.2556
  893MOL0     H17836   2.876   7.892   9.715  2.5719 -3.5833  1.0584
  893MOL0     H17837   3.020   7.963   9.639  1.0732 -3.0438  0.1194
  893MOL0     H17838   2.767   8.063   9.613  0.0451  0.3697  0.7806
  893MOL0     H17839   2.594   8.244   9.553 -1.4568  0.3309 -0.1473
  893MOL0     H17840   2.200   8.388   9.575 -1.7801 -0.0913 -0.7947
  893MOL0     H17841   2.012   8.525   9.547  1.0097 -2.0084 -3.2709
  893MOL0     H17842   2.117   8.966   9.443 -0.4911  2.4713  2.5841
  893MOL0     H17843   2.019   8.963   9.589 -1.8127  0.2536 -0.5881
  893MOL0     H17844   1.913   8.940   9.320 -1.4102 -1.0752  0.8151
  893MOL0     H17845   1.920   9.090   9.410  0.4043 -0.3106  1.5037
  893MOL0     H17846   1.772   8.974   9.580 -1.3348 -0.8659  0.3284
  893MOL0     H17847   1.771   8.829   9.494 -0.4352 -0.2170 -0.2769
  893MOL0     H17848   1.659   8.921   9.294  2.9557  0.0814  0.3036
  893MOL0     H17849   1.562   8.926   9.449  0.1530  0.6772  1.3342
  893MOL0     H17850   1.717   9.152   9.330  1.0311 -3.0897  0.5926
  893MOL0     H17851   1.593   9.168   9.460  0.4469  1.3596 -0.0588
  893MOL0     H17852   1.512   9.257   9.266  0.5646  0.4374  1.7377
  893MOL0     H17853   1.416   9.130   9.341  1.4652 -1.0014  0.0303
  893MOL0     H17854   1.559   9.085   9.072 -0.5475  1.4685 -0.6792
  893MOL0     H17855   1.487   8.960   9.183 -2.0961 -0.6350 -0.9715
  893MOL0     H17856   1.356   9.022   8.979 -0.2166 -2.2315  2.0191
  893MOL0     H17857   1.350   9.186   9.033 -0.6906 -0.0002 -0.8855
  893MOL0     H17858   2.264   8.871   9.542 -0.1755 -0.0607 -3.5465
  893MOL0     H17859   2.447   8.739   9.606 -0.0388 -0.5671  0.5685
  893MOL0     H17860   2.783   8.493   9.844  1.2999  0.3287 -0.8239
  893MOL0     H17861   2.932   8.329   9.903 -0.5004 -0.4519  1.2214
  893MOL0     H17862   4.703   8.141  10.170  2.7882 -1.2790  1.1361
  893MOL0     H17863   4.911   8.065  10.072 -2.8105 -1.7459 -0.8787
  893MOL0     H17864   5.245   8.024   9.922  0.6739  1.1950  0.9604
  893MOL0     H17865   5.467   7.922   9.875 -3.2137 -0.0729  2.0400
  893MOL0     H17866   5.707   7.865   9.672  3.1131 -4.1516  1.7212
  893MOL0     H17867   5.669   7.867   9.845 -1.5297  0.8000  0.5087
  893MOL0     H17868   5.931   7.977   9.718 -1.1989 -0.7716 -1.4580
  893MOL0     H17869   5.882   7.991   9.881 -3.2942  2.9647 -1.1521
  893MOL0     H17870   5.906   7.713   9.750 -1.7012 -1.4943 -0.1091
  893MOL0     H17871   5.865   7.761   9.916 -0.5930 -0.8985 -0.8650
  893MOL0     H17872   6.134   7.822   9.780  1.2825  0.7690  0.9397
  893MOL0     H17873   6.081   7.875   9.947 -1.4269  0.7156 -1.1045
  893MOL0     H17874   6.199   7.499  10.047 -2.3381 -1.5102  0.2042
  893MOL0     H17875   5.576   8.279   9.673  1.6527 -1.1526  1.2905
  893MOL0     H17876   5.357   8.368   9.687  3.4792 -1.0399 -3.6549
  894MOL0     O17877   8.807   9.281   4.488  0.3525  0.4769 -0.0563
  894MOL0     C17878   8.874   9.317   4.391  0.0827  0.2043  1.1672
  894MOL0     O17879   8.840   9.396   4.282 -0.0483 -0.5346  0.3020
  894MOL0     C17880   8.717   9.435   4.238 -0.0749  0.2952  0.5026
  894MOL0     C17881   8.597   9.394   4.298  0.4738 -0.9648 -0.7773
  894MOL0     C17882   8.472   9.417   4.240  0.1100  0.0831  0.8276
  894MOL0     C17883   8.466   9.499   4.119  0.5785  0.7569  0.2399
  894MOL0     O17884   8.341   9.533   4.060  0.5084 -0.5468  0.1663
  894MOL0     C17885   8.231   9.507   4.159  0.1583 -0.1751 -0.1351
  894MOL0     C17886   8.105   9.563   4.085 -0.1741 -0.3517  0.0617
  894MOL0     C17887   7.972   9.529   4.170 -0.4547 -0.1299  0.2187
  894MOL0     C17888   7.857   9.604   4.094  0.2194  0.7391  0.4182
  894MOL0     C17889   7.729   9.577   4.169  0.2344 -1.0335  0.1916
  894MOL0     C17890   7.609   9.653   4.101 -0.5329  0.0755  0.4727
  894MOL0     C17891   7.483   9.653   4.181  0.1096 -0.2354  0.0817
  894MOL0     C17892   7.439   9.520   4.244  0.1026  0.1153 -0.4814
  894MOL0     N17893   7.293   9.527   4.290 -0.8205 -0.2965  0.2634
  894MOL0     C17894   7.192   9.438   4.259 -1.1031 -0.6383 -0.1392
  894MOL0     C17895   7.095   9.476   4.340  0.1189  0.1119 -0.0065
  894MOL0     C17896   6.955   9.416   4.338 -1.0728  0.6234  0.3623
  894MOL0     C17897   6.875   9.501   4.237 -0.4152 -0.5491 -0.2308
  894MOL0     C17898   6.813   9.630   4.304 -0.4171 -0.0684  0.0898
  894MOL0     C17899   6.736   9.620   4.431  0.3167 -0.5725  0.2716
  894MOL0     O17900   6.714   9.756   4.467 -0.6466 -0.1355 -0.5055
  894MOL0     C17901   6.652   9.762   4.591 -0.1711  0.3642 -0.0390
  894MOL0     C17902   6.559   9.665   4.633  1.6751 -0.8277 -0.4591
  894MOL0     C17903   6.498   9.687   4.760  0.6322  0.6559 -0.5450
  894MOL0     C17904   6.516   9.801   4.839 -0.6911  0.6975  0.9182
  894MOL0     C17905   6.451   9.817   4.965 -0.4919  0.0099 -0.2740
  894MOL0     O17906   6.361   9.723   5.006  0.2398 -0.0755  0.5405
  894MOL0     C17907   6.276   9.743   5.113  1.1267 -1.2499  0.8759
  894MOL0     C17908   6.308   9.785   5.242 -0.1362 -0.2752  0.0320
  894MOL0     C17909   6.217   9.792   5.344  0.6263 -0.8944  0.8911
  894MOL0     C17910   6.074   9.778   5.315  0.2270 -0.5088 -0.0809
  894MOL0     O17911   5.976   9.793   5.405 -0.0697 -0.3173  0.2715
  894MOL0     C17912   6.013   9.825   5.541  0.4453  0.2904 -0.3246
  894MOL0     C17913   5.882   9.837   5.625 -0.3229 -0.1050  0.4216
  894MOL0     C17914   5.790   9.951   5.585  0.7277 -0.1638 -0.2783
  894MOL0     C17915   5.828  10.088   5.629 -0.5144  0.1172  0.3020
  894MOL0     C17916   5.743  10.178   5.560 -0.0374  0.3308  0.6201
  894MOL0     C17917   5.759  10.316   5.611  0.2008 -0.7057 -1.2227
  894MOL0     C17918   5.687  10.425   5.539 -0.3025 -1.0762  0.2444
  894MOL0     C17919   5.707  10.562   5.610  0.2345 -0.2261 -0.2626
  894MOL0    Cl17920   5.603  10.675   5.515  0.1207  0.2076 -0.3455
  894MOL0     C17921   6.040   9.745   5.182  0.2520 -0.5522  0.5321
  894MOL0     C17922   6.138   9.714   5.087  0.6043 -0.8318 -0.0503
  894MOL0     O17923   6.481   9.922   5.024 -0.1736  0.3695  0.0729
  894MOL0     C17924   6.614   9.893   4.788 -0.1190 -0.6611  0.1101
  894MOL0     C17925   6.676   9.874   4.668  0.8285  0.4324 -1.0169
  894MOL0     N17926   7.130   9.582   4.427  0.3494 -0.3672  0.4435
  894MOL0     N17927   7.254   9.603   4.398 -0.6603 -0.4796  0.6729
  894MOL0     C17928   8.588   9.540   4.060 -1.1192 -1.2656  0.0392
  894MOL0     C17929   8.710   9.509   4.118  0.8949 -0.0938 -0.7002
  894MOL0     C17930   9.019   9.289   4.403 -0.8384 -0.8115  0.5656
  894MOL0     C17931   9.066   9.191   4.493  0.2208  0.6467 -0.0564
  894MOL0     C17932   9.199   9.164   4.504  0.3684 -0.0709  0.0600
  894MOL0     C17933   9.294   9.243   4.437 -0.0098 -0.4375  0.3044
  894MOL0     O17934   9.421   9.218   4.466  0.0747 -0.4924 -0.2892
  894MOL0     C17935   9.529   9.232   4.367 -0.1380 -0.1722 -0.1803
  894MOL0     C17936   9.643   9.136   4.407 -0.3131  0.3587 -0.3489
  894MOL0     C17937   9.768   9.200   4.467 -0.5110  0.1429  0.7484
  894MOL0     C17938   9.894   9.116   4.478 -0.9043 -0.6508 -0.0855
  894MOL0     C17939  10.021   9.190   4.463 -0.3125 -0.3196  0.5091
  894MOL0     C17940  10.130   9.244   4.457 -0.3208  0.5403  0.6021
  894MOL0     C17941   9.248   9.341   4.349  0.0201  0.3946 -0.4587
  894MOL0     C17942   9.112   9.360   4.329 -0.1241  0.0161 -0.2549
  894MOL0     H17943   8.596   9.330   4.386  2.3298  0.6225  0.4741
  894MOL0     H17944   8.392   9.366   4.293  0.4612 -1.8401 -0.4069
  894MOL0     H17945   8.256   9.561   4.251  0.2732  3.7438 -2.2530
  894MOL0     H17946   8.207   9.404   4.187  0.4221 -0.4004 -0.7280
  894MOL0     H17947   8.093   9.518   3.986 -1.0212 -0.7871  0.3501
  894MOL0     H17948   8.123   9.670   4.078  1.0268 -0.6289 -1.6488
  894MOL0     H17949   7.985   9.568   4.272 -0.4850 -2.0604  0.9968
  894MOL0     H17950   7.947   9.423   4.168 -3.4648  0.4856  0.0283
  894MOL0     H17951   7.880   9.711   4.094  2.3521  0.3583  2.0539
  894MOL0     H17952   7.858   9.575   3.988 -1.6399  1.0060  0.2967
  894MOL0     H17953   7.733   9.610   4.273 -1.5795 -1.5463  0.4629
  894MOL0     H17954   7.709   9.470   4.177  2.1329 -1.3169  1.8734
  894MOL0     H17955   7.582   9.608   4.005  0.4839  1.3769 -0.4706
  894MOL0     H17956   7.641   9.757   4.085  0.3439 -0.4190 -1.3493
  894MOL0     H17957   7.500   9.734   4.252  1.1097 -0.7210  0.4120
  894MOL0     H17958   7.401   9.688   4.117 -0.7380  1.7940  2.1451
  894MOL0     H17959   7.501   9.507   4.333 -1.4948  0.0124  0.6591
  894MOL0     H17960   7.460   9.441   4.172  0.9080 -0.7140  0.6154
  894MOL0     H17961   7.183   9.362   4.182 -4.7246 -0.7327  0.2014
  894MOL0     H17962   6.921   9.422   4.441 -3.3795  2.8919 -0.4215
  894MOL0     H17963   6.957   9.312   4.305 -0.3653  0.4553  0.9268
  894MOL0     H17964   6.796   9.434   4.203 -0.5921  0.4634 -1.9315
  894MOL0     H17965   6.954   9.522   4.165 -0.2892 -2.5025 -0.7050
  894MOL0     H17966   6.893   9.705   4.300 -0.7469  0.2768 -4.2610
  894MOL0     H17967   6.741   9.674   4.235 -1.2433  1.2099  1.7091
  894MOL0     H17968   6.801   9.573   4.506  1.3864 -0.2447 -0.4268
  894MOL0     H17969   6.650   9.557   4.411  0.6709 -0.9109 -0.1865
  894MOL0     H17970   6.523   9.582   4.574  0.6066  1.3267 -3.1011
  894MOL0     H17971   6.426   9.610   4.785  1.0466  0.5253  0.2962
  894MOL0     H17972   6.411   9.804   5.268 -0.3018  0.4288  0.1745
  894MOL0     H17973   6.252   9.818   5.443 -0.0183  0.0724  0.8807
  894MOL0     H17974   6.059   9.925   5.545 -2.5526  1.7507  0.8862
  894MOL0     H17975   6.077   9.752   5.590  0.2820  1.2042  1.3222
  894MOL0     H17976   5.911   9.843   5.730  4.0725  2.3481 -0.7099
  894MOL0     H17977   5.813   9.752   5.621  1.4437 -1.5468 -1.3775
  894MOL0     H17978   5.692   9.927   5.627  0.8980 -2.4742 -1.0819
  894MOL0     H17979   5.782   9.953   5.476  0.7879  0.3629 -0.2765
  894MOL0     H17980   5.817  10.097   5.738 -2.3473 -4.0742  0.6503
  894MOL0     H17981   5.933  10.106   5.602 -0.2855 -0.5728  0.7149
  894MOL0     H17982   5.644  10.141   5.588  0.1220 -0.3060  0.3477
  894MOL0     H17983   5.744  10.180   5.451  3.3284  1.6435  0.5512
  894MOL0     H17984   5.864  10.343   5.624  0.3256 -1.5383 -0.3911
  894MOL0     H17985   5.727  10.319   5.716 -0.8637  1.9582 -1.5502
  894MOL0     H17986   5.729  10.430   5.439 -2.3452 -1.8185 -0.7071
  894MOL0     H17987   5.579  10.409   5.539 -0.5902  0.6075  0.6001
  894MOL0     H17988   5.808  10.605   5.613  0.2014 -0.2062  1.2947
  894MOL0     H17989   5.661  10.553   5.709 -0.7172 -1.7697 -0.8121
  894MOL0     H17990   5.939   9.747   5.143  0.8072 -1.9861 -1.1117
  894MOL0     H17991   6.100   9.678   4.992 -0.0518  1.8769 -0.9054
  894MOL0     H17992   6.623   9.986   4.843 -3.7183 -0.3082  0.3576
  894MOL0     H17993   6.732   9.960   4.630  2.7745 -1.6091 -3.1124
  894MOL0     H17994   8.589   9.598   3.969  3.8161  2.3796  1.9886
  894MOL0     H17995   8.800   9.535   4.063  0.2695  1.5509 -0.9757
  894MOL0     H17996   8.994   9.127   4.544  0.6437  0.1208 -0.1068
  894MOL0     H17997   9.225   9.078   4.564  0.4795  0.8937  1.4213
  894MOL0     H17998   9.565   9.334   4.351 -0.2282  0.1114  1.2997
  894MOL0     H17999   9.471   9.212   4.276 -0.0397  3.5025 -1.2270
  894MOL0     H18000   9.600   9.070   4.482 -3.4579 -0.7566 -2.8728
  894MOL0     H18001   9.680   9.066   4.331 -3.1358 -0.8582 -0.7234
  894MOL0     H18002   9.736   9.235   4.566  1.0178 -0.1388  1.3637
  894MOL0     H18003   9.774   9.289   4.403 -0.0182 -0.6021 -0.2693
  894MOL0     H18004   9.898   9.077   4.580 -0.5510  2.1966  1.0837
  894MOL0     H18005   9.891   9.033   4.407 -1.6685 -0.0681 -0.7485
  894MOL0     H18006  10.220   9.298   4.436 -0.4905  0.7648  0.4497
  894MOL0     H18007   9.326   9.402   4.305  0.5012  0.6917  0.7579
  894MOL0     H18008   9.086   9.441   4.261  1.1292 -0.3948 -1.2820
  895MOL0     O18009   3.979   8.400  10.491  0.6099  0.0188  0.2389
  895MOL0     C18010   3.956   8.280  10.474 -0.0707  0.9377 -0.2792
  895MOL0     O18011   4.032   8.170  10.517 -0.6442  0.3016  0.1030
  895MOL0     C18012   4.137   8.211  10.597  0.1881  0.6206  0.2465
  895MOL0     C18013   4.119   8.253  10.733 -0.0807  0.3845 -0.5265
  895MOL0     C18014   4.222   8.281  10.812 -0.5509  0.3652  0.1310
  895MOL0     C18015   4.346   8.272  10.762 -0.4461 -0.1847  0.3724
  895MOL0     O18016   4.460   8.301  10.834 -0.6269 -0.0862  0.3591
  895MOL0     C18017   4.499   8.213  10.941 -0.4214 -0.4199  0.5357
  895MOL0     C18018   4.485   8.262  11.087 -0.2610 -0.2322 -0.3654
  895MOL0     C18019   4.569   8.391  11.131  0.1556  0.0933  0.8370
  895MOL0     C18020   4.523   8.443  11.272  0.0934  0.4638  0.4767
  895MOL0     C18021   4.608   8.567  11.322  0.1399 -0.1196 -0.2788
  895MOL0     C18022   4.578   8.615  11.467 -0.6299  0.4393  0.4866
  895MOL0     C18023   4.656   8.734  11.513  0.2037  0.1042  0.5068
  895MOL0     C18024   4.645   8.767  11.668  0.9234 -1.0989 -0.0047
  895MOL0     N18025   4.509   8.797  11.709  0.4443  0.1368 -0.0263
  895MOL0     C18026   4.479   8.905  11.783  0.3922 -0.3924  0.0733
  895MOL0     C18027   4.355   8.889  11.829  0.5458  0.6645 -0.5700
  895MOL0     C18028   4.281   8.977  11.933 -1.1166 -0.0960  1.1681
  895MOL0     C18029   4.136   8.930  11.938  0.3654  0.2308 -0.0142
  895MOL0     C18030   4.058   9.047  11.996  0.2813  0.0110  0.3346
  895MOL0     C18031   3.908   9.024  12.013 -0.3040 -0.8337  0.0651
  895MOL0     O18032   3.834   9.152  12.026 -0.0989 -0.3087 -0.0909
  895MOL0     C18033   3.715   9.164  11.952  0.5069 -0.0008 -0.5997
  895MOL0     C18034   3.699   9.147  11.819 -0.2815  0.9506  0.1251
  895MOL0     C18035   3.574   9.155  11.758 -0.7431 -0.8708 -0.6732
  895MOL0     C18036   3.465   9.183  11.837 -0.0551 -0.8371 -0.8260
  895MOL0     C18037   3.328   9.192  11.786  0.6119  0.1644 -0.6105
  895MOL0     O18038   3.255   9.305  11.830 -0.5619 -0.1710 -0.3472
  895MOL0     C18039   3.152   9.363  11.767  0.5695  0.8255 -0.4860
  895MOL0     C18040   3.073   9.473  11.825  0.2126 -0.2539 -0.7539
  895MOL0     C18041   2.954   9.532  11.772  0.2031  0.6234  0.1682
  895MOL0     C18042   2.905   9.483  11.652 -0.6733 -0.0528 -0.4785
  895MOL0     O18043   2.803   9.535  11.575  0.3805  0.0797 -0.2822
  895MOL0     C18044   2.698   9.595  11.648  0.5226  0.3420  0.6149
  895MOL0     C18045   2.574   9.597  11.552 -0.0490 -0.2287 -0.5515
  895MOL0     C18046   2.472   9.707  11.597 -0.7187  0.3634  0.0258
  895MOL0     C18047   2.366   9.694  11.484  1.4160 -0.9928  0.4141
  895MOL0     C18048   2.250   9.796  11.497  0.3416 -0.6491 -0.0858
  895MOL0     C18049   2.165   9.781  11.625 -0.0456 -0.0505 -0.6531
  895MOL0     C18050   2.051   9.884  11.622 -0.4021  0.3828 -0.3026
  895MOL0     C18051   1.963   9.871  11.748 -0.4786 -0.1781 -0.1815
  895MOL0    Cl18052   1.896   9.713  11.756  0.3585  0.0583  0.1414
  895MOL0     C18053   2.974   9.373  11.592 -0.5629  0.1125 -0.0064
  895MOL0     C18054   3.097   9.314  11.650  0.1801 -0.1381  0.0231
  895MOL0     O18055   3.284   9.106  11.704  0.3119 -0.0414 -0.6946
  895MOL0     C18056   3.482   9.222  11.972 -0.3408  0.1107  0.6803
  895MOL0     C18057   3.613   9.215  12.029  0.4215  0.2311 -0.6996
  895MOL0     N18058   4.313   8.764  11.775  0.3373  0.1815 -0.0959
  895MOL0     N18059   4.403   8.715  11.707 -0.6303  0.4177  0.1781
  895MOL0     C18060   4.370   8.234  10.629  0.1377 -0.4237  0.2956
  895MOL0     C18061   4.268   8.200  10.545  0.5387 -0.3008 -0.9749
  895MOL0     C18062   3.827   8.254  10.406 -0.7634  0.5243 -0.2437
  895MOL0     C18063   3.723   8.353  10.394 -0.3853 -0.5687  0.0298
  895MOL0     C18064   3.599   8.320  10.347  0.1492  0.2684  0.6379
  895MOL0     C18065   3.570   8.194  10.288  0.0693 -0.1625  0.6192
  895MOL0     O18066   3.443   8.158  10.244  0.0827 -0.0995 -0.2980
  895MOL0     C18067   3.336   8.243  10.239  0.3321 -0.7712 -0.5367
  895MOL0     C18068   3.341   8.353  10.123  0.1407  0.1531  0.4090
  895MOL0     C18069   3.299   8.297   9.992  0.5540  0.5668  0.1319
  895MOL0     C18070   3.321   8.382   9.866 -0.5059 -0.0398  0.2888
  895MOL0     C18071   3.214   8.485   9.845  0.0625 -0.1017  0.6176
  895MOL0     C18072   3.114   8.558   9.839 -0.0632 -0.0403  0.7270
  895MOL0     C18073   3.674   8.096  10.295  0.3955 -0.0884 -0.7612
  895MOL0     C18074   3.802   8.131  10.352 -0.5461 -0.4488 -0.1791
  895MOL0     H18075   4.017   8.260  10.768  0.0701  0.7048 -0.1461
  895MOL0     H18076   4.209   8.325  10.910  0.1474  0.9503 -0.0283
  895MOL0     H18077   4.605   8.189  10.925  0.9260  4.0043  1.4841
  895MOL0     H18078   4.445   8.118  10.938  0.8445 -1.2288  1.7536
  895MOL0     H18079   4.512   8.183  11.158  2.1028  2.8869  2.5953
  895MOL0     H18080   4.379   8.284  11.102  0.2555  0.8210  2.4195
  895MOL0     H18081   4.551   8.473  11.061  0.6399 -1.0051 -0.6510
  895MOL0     H18082   4.676   8.366  11.132  0.4462  1.2755  2.3730
  895MOL0     H18083   4.421   8.480  11.258 -0.3626 -1.5933 -2.8443
  895MOL0     H18084   4.519   8.369  11.353 -0.1056 -0.3055 -0.2158
  895MOL0     H18085   4.598   8.647  11.248  1.5970 -0.1000 -0.4946
  895MOL0     H18086   4.714   8.544  11.308  0.1942  0.7450 -1.4247
  895MOL0     H18087   4.608   8.528  11.526 -0.9201 -1.2629 -1.6904
  895MOL0     H18088   4.470   8.634  11.471 -0.3959  1.5375  1.9614
  895MOL0     H18089   4.761   8.716  11.488  0.5160  2.3047 -0.0440
  895MOL0     H18090   4.631   8.828  11.463  0.8886  0.6009  1.0722
  895MOL0     H18091   4.713   8.847  11.697  1.8932 -0.4868 -3.5948
  895MOL0     H18092   4.676   8.671  11.712  2.5745 -1.5858 -2.0792
  895MOL0     H18093   4.539   8.991  11.811 -2.0283  1.5085 -0.2584
  895MOL0     H18094   4.292   9.082  11.904 -0.5016 -0.1046  1.3618
  895MOL0     H18095   4.327   8.965  12.031 -0.2070 -0.2821  0.7260
  895MOL0     H18096   4.132   8.835  11.992 -3.8605 -1.1970 -2.4016
  895MOL0     H18097   4.103   8.919  11.835 -1.6118  1.9096  0.3675
  895MOL0     H18098   4.101   9.072  12.094  0.5187 -1.0314  0.5134
  895MOL0     H18099   4.069   9.140  11.940 -2.3816 -0.6481 -1.4937
  895MOL0     H18100   3.887   8.966  12.103 -2.1395 -0.8813 -0.3440
  895MOL0     H18101   3.877   8.973  11.921 -0.6465 -0.0830 -0.2454
  895MOL0     H18102   3.776   9.091  11.766  0.8088  2.4503  0.0665
  895MOL0     H18103   3.555   9.123  11.656 -3.8417  1.2368 -0.8978
  895MOL0     H18104   3.119   9.512  11.915 -1.0733 -4.1169  1.8281
  895MOL0     H18105   2.898   9.618  11.806 -0.7831  0.2800 -0.5269
  895MOL0     H18106   2.728   9.693  11.684  0.8699  0.3983  0.1714
  895MOL0     H18107   2.667   9.530  11.730 -1.3586  0.1740 -0.1751
  895MOL0     H18108   2.531   9.496  11.549  1.0038 -0.7045  0.0201
  895MOL0     H18109   2.597   9.617  11.446 -0.9243 -0.7940 -0.8554
  895MOL0     H18110   2.519   9.806  11.595  1.6773 -0.7190 -1.1700
  895MOL0     H18111   2.429   9.688  11.695 -0.8311  0.2227 -0.0508
  895MOL0     H18112   2.409   9.725  11.389  0.9936 -0.2203  0.4664
  895MOL0     H18113   2.332   9.590  11.483  1.5095 -1.0464  1.4787
  895MOL0     H18114   2.183   9.774  11.413 -0.6569  2.4130 -0.1961
  895MOL0     H18115   2.282   9.900  11.488 -3.6244  0.6539 -1.2250
  895MOL0     H18116   2.219   9.805  11.717 -0.8244 -0.1179 -0.1644
  895MOL0     H18117   2.133   9.677  11.622 -0.1555 -0.0308 -3.7262
  895MOL0     H18118   2.093   9.985  11.628 -0.4874  0.3445  1.6219
  895MOL0     H18119   1.988   9.871  11.534  0.8053  1.7080 -1.4072
  895MOL0     H18120   1.885   9.948  11.740 -0.9669 -0.7729 -1.4929
  895MOL0     H18121   2.020   9.879  11.841  0.4171 -1.7050 -0.5626
  895MOL0     H18122   2.934   9.332  11.500  0.5731  0.8091 -0.8314
  895MOL0     H18123   3.136   9.228  11.598 -1.3612 -0.0048 -1.4216
  895MOL0     H18124   3.394   9.262  12.021 -1.5418 -0.8705 -0.6070
  895MOL0     H18125   3.631   9.242  12.133 -2.3111 -1.9073  0.4649
  895MOL0     H18126   4.470   8.231  10.587  0.7306  2.6392  1.2751
  895MOL0     H18127   4.277   8.150  10.448  0.3135 -1.8564 -0.2279
  895MOL0     H18128   3.732   8.452  10.439 -0.3376  0.8666 -2.9498
  895MOL0     H18129   3.522   8.396  10.341 -1.2021 -1.1530 -2.6630
  895MOL0     H18130   3.335   8.299  10.333  0.9360  0.3604 -1.1833
  895MOL0     H18131   3.239   8.192  10.230 -0.7450  1.3111 -1.5852
  895MOL0     H18132   3.269   8.435  10.136  0.5956  0.6049  0.1205
  895MOL0     H18133   3.439   8.401  10.114 -0.8229  2.7938  2.4000
  895MOL0     H18134   3.195   8.261   9.995  0.7332 -0.0812 -0.8296
  895MOL0     H18135   3.356   8.206   9.973  0.5678  0.4824  0.5629
  895MOL0     H18136   3.421   8.427   9.871 -0.5758  0.0689  0.7609
  895MOL0     H18137   3.322   8.309   9.785  1.7443 -0.9749  1.1009
  895MOL0     H18138   3.025   8.616   9.844 -2.0214 -2.8879  1.1390
  895MOL0     H18139   3.651   7.993  10.268  1.0821 -0.4681  0.0682
  895MOL0     H18140   3.873   8.049  10.345 -1.1649 -1.1140  1.0974
  896MOL0     O18141   6.147   4.014  11.024  0.1349 -0.1622 -0.2298
  896MOL0     C18142   6.084   3.920  11.077 -0.2407  0.7386  0.8472
  896MOL0     O18143   6.144   3.805  11.111 -0.0812  0.5839 -0.7466
  896MOL0     C18144   6.278   3.785  11.095 -0.1388 -0.1756 -0.1072
  896MOL0     C18145   6.329   3.716  10.987 -0.3536  1.1709 -0.2811
  896MOL0     C18146   6.468   3.696  10.980  0.6710  0.1708  0.4327
  896MOL0     C18147   6.557   3.744  11.072 -0.0620  0.0262 -0.3920
  896MOL0     O18148   6.689   3.715  11.064  0.3567 -0.1791  0.3923
  896MOL0     C18149   6.765   3.775  10.961  0.3747 -0.5403  0.9557
  896MOL0     C18150   6.832   3.905  11.007  0.2658 -0.7042 -0.0010
  896MOL0     C18151   6.814   4.018  10.908 -0.5683 -0.3810 -0.3551
  896MOL0     C18152   6.674   4.071  10.900  0.1307  0.5253 -0.3523
  896MOL0     C18153   6.664   4.197  10.810  0.3537  0.0840 -0.2642
  896MOL0     C18154   6.539   4.276  10.822 -0.8623 -0.1847 -1.2472
  896MOL0     C18155   6.421   4.210  10.746 -0.0580  0.2861  0.0807
  896MOL0     C18156   6.283   4.281  10.777 -0.8188  0.0605 -0.1108
  896MOL0     N18157   6.165   4.232  10.699  0.5660 -0.3643 -0.1835
  896MOL0     C18158   6.072   4.137  10.742  0.0415 -0.3647  0.3177
  896MOL0     C18159   5.969   4.159  10.657  0.5747  0.0361  0.1441
  896MOL0     C18160   5.837   4.082  10.664 -0.5340 -0.0009  0.4506
  896MOL0     C18161   5.719   4.175  10.681 -0.8097 -0.6951  0.4019
  896MOL0     C18162   5.587   4.087  10.707 -0.1765  0.6190  0.3899
  896MOL0     C18163   5.461   4.175  10.739 -0.7840  0.9706  0.0372
  896MOL0     O18164   5.389   4.202  10.614  0.7145  1.1200  0.0130
  896MOL0     C18165   5.254   4.210  10.635  0.4734 -0.3541 -0.8121
  896MOL0     C18166   5.169   4.111  10.589  0.7812  0.5134  0.4101
  896MOL0     C18167   5.041   4.102  10.635  0.4920  0.6385  0.3426
  896MOL0     C18168   4.990   4.198  10.733 -0.2052  0.4142  0.4370
  896MOL0     C18169   4.857   4.187  10.792 -0.1809 -0.0063 -0.0138
  896MOL0     O18170   4.821   4.280  10.886  0.0615  0.4396  0.3111
  896MOL0     C18171   4.694   4.293  10.929 -0.0424 -0.4346  0.9484
  896MOL0     C18172   4.604   4.394  10.882 -0.6448 -0.1285  0.2465
  896MOL0     C18173   4.476   4.399  10.942  0.1896  0.2982  0.3046
  896MOL0     C18174   4.430   4.301  11.036  0.6557 -0.0634  0.1908
  896MOL0     O18175   4.303   4.320  11.087 -0.3408 -0.1686 -0.2560
  896MOL0     C18176   4.253   4.222  11.188 -0.8413  0.4060  0.5246
  896MOL0     C18177   4.131   4.251  11.263 -0.1255  0.8718 -0.3907
  896MOL0     C18178   4.141   4.387  11.326 -0.1765 -0.9639 -0.0813
  896MOL0     C18179   4.015   4.426  11.404 -0.3862 -0.2431 -0.0536
  896MOL0     C18180   3.998   4.574  11.448 -0.3014  0.2880 -0.4523
  896MOL0     C18181   4.043   4.673  11.343 -0.3219  0.4809  0.3251
  896MOL0     C18182   3.972   4.666  11.210  0.2080 -0.3159 -0.1605
  896MOL0     C18183   4.020   4.779  11.111 -0.3753  0.0142  0.2924
  896MOL0    Cl18184   4.193   4.813  11.085 -0.0609 -0.3949 -0.4593
  896MOL0     C18185   4.526   4.202  11.069  0.4313 -0.0079  0.4467
  896MOL0     C18186   4.650   4.201  11.019 -0.6707 -0.0192  0.3288
  896MOL0     O18187   4.797   4.085  10.767  0.8684  0.2087 -0.6251
  896MOL0     C18188   5.080   4.302  10.767  0.2967 -0.5445 -0.4988
  896MOL0     C18189   5.209   4.307  10.717  0.4686  0.2504 -0.8893
  896MOL0     N18190   6.001   4.255  10.568 -0.4891 -0.5000  0.6062
  896MOL0     N18191   6.121   4.304  10.594 -0.5750  0.7681 -0.0365
  896MOL0     C18192   6.503   3.800  11.179  0.6249  0.1825 -0.0653
  896MOL0     C18193   6.364   3.825  11.195  0.4650 -0.3355 -0.0472
  896MOL0     C18194   5.938   3.948  11.079  0.2162 -0.2125 -0.6542
  896MOL0     C18195   5.846   3.845  11.099 -0.0724 -0.8056 -0.4800
  896MOL0     C18196   5.708   3.874  11.117 -0.0277 -0.1938  1.3280
  896MOL0     C18197   5.656   4.002  11.082 -0.3037 -0.4711 -0.9800
  896MOL0     O18198   5.521   4.040  11.094  0.5595 -0.5600 -0.4840
  896MOL0     C18199   5.426   3.958  11.163 -0.1162  0.5548 -0.4084
  896MOL0     C18200   5.295   3.981  11.104 -0.5675  0.2297 -0.1039
  896MOL0     C18201   5.218   4.097  11.165 -0.3663  0.5609 -0.0885
  896MOL0     C18202   5.083   4.103  11.097  0.7209  0.4064  0.2123
  896MOL0     C18203   4.983   4.012  11.150 -0.1668  0.8344 -0.2747
  896MOL0     C18204   4.887   3.943  11.172 -0.0866  0.7331 -0.0385
  896MOL0     C18205   5.750   4.101  11.061  0.3074 -1.3368 -0.3609
  896MOL0     C18206   5.886   4.078  11.055 -0.3818  0.0072 -1.0322
  896MOL0     H18207   6.268   3.664  10.914  0.0747 -1.1471  0.8957
  896MOL0     H18208   6.499   3.622  10.908  1.6771 -4.8222  5.2997
  896MOL0     H18209   6.696   3.803  10.881 -0.3860  3.5718  2.7914
  896MOL0     H18210   6.843   3.709  10.923 -0.3020  0.2716 -2.1537
  896MOL0     H18211   6.941   3.894  11.004  0.3569  0.2724 -0.9188
  896MOL0     H18212   6.798   3.934  11.107  0.2769 -1.0207  0.0935
  896MOL0     H18213   6.844   3.988  10.807 -1.7963  0.4266 -0.9887
  896MOL0     H18214   6.878   4.103  10.934 -1.3149 -0.2961  1.2894
  896MOL0     H18215   6.607   3.996  10.855  0.7534  0.5548 -1.3654
  896MOL0     H18216   6.637   4.100  10.999  0.0479 -2.2316  0.5145
  896MOL0     H18217   6.667   4.156  10.709 -0.1979 -3.5054  1.0363
  896MOL0     H18218   6.749   4.261  10.835 -0.4555  0.9846  0.2649
  896MOL0     H18219   6.574   4.370  10.778  2.7111 -0.8547 -0.1767
  896MOL0     H18220   6.521   4.295  10.929  0.5597 -1.9824 -0.6513
  896MOL0     H18221   6.437   4.220  10.638 -1.7078 -3.7740 -0.7531
  896MOL0     H18222   6.419   4.103  10.769  1.0683  0.7460  2.6635
  896MOL0     H18223   6.294   4.387  10.752 -0.8692  0.7453  2.4010
  896MOL0     H18224   6.260   4.292  10.884 -3.4742  1.6545 -0.7588
  896MOL0     H18225   6.071   4.070  10.828 -1.7637 -0.9448 -0.1146
  896MOL0     H18226   5.838   4.013  10.748 -0.2757 -0.2258  0.2653
  896MOL0     H18227   5.834   4.021  10.573  2.1851  0.8046 -0.2951
  896MOL0     H18228   5.704   4.236  10.591 -2.2922 -1.8526 -0.1737
  896MOL0     H18229   5.732   4.250  10.759 -2.6322 -1.4429  1.4945
  896MOL0     H18230   5.589   4.024  10.617 -0.9605 -1.0281  1.4777
  896MOL0     H18231   5.607   4.024  10.794 -0.0996 -0.4715 -0.3938
  896MOL0     H18232   5.491   4.274  10.777  0.6273  2.5861 -4.5475
  896MOL0     H18233   5.399   4.133  10.818  0.0979  1.2526  0.8981
  896MOL0     H18234   5.209   4.035  10.523 -2.1838 -0.0229 -0.9373
  896MOL0     H18235   4.972   4.024  10.606 -2.4037  3.1544 -0.1724
  896MOL0     H18236   4.638   4.461  10.805 -1.4621  0.5894  0.4982
  896MOL0     H18237   4.408   4.478  10.909 -1.6459 -0.6202  1.7238
  896MOL0     H18238   4.339   4.209  11.255 -0.3067  1.9840  0.1931
  896MOL0     H18239   4.235   4.129  11.133 -0.4352 -0.5280  1.9133
  896MOL0     H18240   4.110   4.176  11.340 -1.5481  3.4328  1.8796
  896MOL0     H18241   4.055   4.250  11.184 -1.3606 -0.4090  0.7479
  896MOL0     H18242   4.158   4.453  11.241  0.1025 -2.3251 -1.1166
  896MOL0     H18243   4.235   4.390  11.382  1.1870  0.4619 -2.3081
  896MOL0     H18244   3.936   4.401  11.333  0.0230 -0.9925 -0.2525
  896MOL0     H18245   4.000   4.357  11.488 -0.8168  2.4883  2.2626
  896MOL0     H18246   4.060   4.585  11.537 -1.6225  0.6851  0.4443
  896MOL0     H18247   3.896   4.599  11.478  0.1718  1.7411  0.0369
  896MOL0     H18248   4.150   4.656  11.328 -0.6279  0.9427 -3.2499
  896MOL0     H18249   4.028   4.770  11.391  1.9880  0.6285  0.8871
  896MOL0     H18250   3.976   4.564  11.173 -0.3623 -0.9443  1.4292
  896MOL0     H18251   3.864   4.675  11.223  0.2531 -1.9910  1.7325
  896MOL0     H18252   3.984   4.871  11.156  2.5862  2.5428 -2.0417
  896MOL0     H18253   3.976   4.750  11.015  0.5345 -1.9420  0.4138
  896MOL0     H18254   4.509   4.127  11.146  0.4364  1.2558  1.7345
  896MOL0     H18255   4.711   4.119  11.054 -2.1181 -1.6868 -0.9069
  896MOL0     H18256   5.058   4.391  10.826  1.0946  0.0481 -1.0670
  896MOL0     H18257   5.282   4.383  10.744 -0.6480  0.9182  0.3582
  896MOL0     H18258   6.576   3.840  11.248  1.2077  1.0472 -1.1631
  896MOL0     H18259   6.308   3.875  11.273 -1.2647 -2.1177 -0.0672
  896MOL0     H18260   5.893   3.748  11.117  0.6989 -0.7511 -2.0764
  896MOL0     H18261   5.651   3.786  11.142  0.2844 -0.4281  1.2299
  896MOL0     H18262   5.425   3.969  11.272  1.8610 -1.6709 -0.0855
  896MOL0     H18263   5.455   3.854  11.148  1.2086  1.0360 -1.4926
  896MOL0     H18264   5.312   4.004  10.998  2.9444  1.9266  0.6833
  896MOL0     H18265   5.242   3.885  11.096 -0.2712 -0.0183  0.8521
  896MOL0     H18266   5.275   4.188  11.145  3.1191 -1.7931 -1.7614
  896MOL0     H18267   5.209   4.093  11.274  0.4775 -1.3928 -0.0538
  896MOL0     H18268   5.044   4.204  11.111  0.0493  0.1983 -0.1147
  896MOL0     H18269   5.073   4.086  10.989 -1.7643  0.0654  0.4295
  896MOL0     H18270   4.800   3.883  11.190  1.2374 -0.8554  1.4366
  896MOL0     H18271   5.727   4.207  11.057  3.3779 -0.3654  2.8252
  896MOL0     H18272   5.952   4.163  11.047 -1.8434  1.2848 -0.0711
  897MOL0     O18273   5.218   6.217  10.548  0.2066  0.4700  0.5296
  897MOL0     C18274   5.153   6.222  10.647  0.6961 -0.4832  0.2431
  897MOL0     O18275   5.193   6.177  10.768  0.0513 -0.0575  0.4783
  897MOL0     C18276   5.320   6.130  10.782  0.6485 -0.0737  0.1016
  897MOL0     C18277   5.377   6.181  10.897  1.0842  0.2652  0.1833
  897MOL0     C18278   5.509   6.151  10.936  0.7912  0.2342 -0.0009
  897MOL0     C18279   5.586   6.064  10.847  0.3595 -0.0930  0.0571
  897MOL0     O18280   5.709   6.017  10.879  0.4421  0.3803 -0.0979
  897MOL0     C18281   5.737   5.976  11.015 -0.4250  0.2334  0.3559
  897MOL0     C18282   5.866   6.045  11.061 -1.1491 -0.0981 -0.1282
  897MOL0     C18283   5.937   5.968  11.169 -0.2401  0.2503  0.2818
  897MOL0     C18284   6.040   6.041  11.252 -0.0676  0.2805 -0.4493
  897MOL0     C18285   6.124   5.959  11.357  1.0527 -0.3034  0.0813
  897MOL0     C18286   6.203   5.837  11.310 -0.6940  0.1981  0.2875
  897MOL0     C18287   6.248   5.745  11.415  1.2929  0.3742 -0.6810
  897MOL0     C18288   6.342   5.641  11.368 -0.4687 -0.4116  0.0415
  897MOL0     N18289   6.289   5.553  11.256 -0.4652 -0.6174  0.7035
  897MOL0     C18290   6.368   5.516  11.143  0.4649 -0.7188 -0.4513
  897MOL0     C18291   6.290   5.428  11.076 -1.0659 -0.8491  0.6647
  897MOL0     C18292   6.305   5.380  10.932 -0.0068 -0.2253  0.2744
  897MOL0     C18293   6.196   5.425  10.841 -0.0874 -1.1472 -0.4718
  897MOL0     C18294   6.205   5.372  10.697 -0.1894  0.2006  0.1704
  897MOL0     C18295   6.095   5.431  10.608 -1.0876  0.6542 -0.6470
  897MOL0     O18296   6.097   5.401  10.465  0.0489 -0.1405  0.0907
  897MOL0     C18297   5.998   5.471  10.402 -1.0867 -0.0682 -0.5208
  897MOL0     C18298   5.865   5.430  10.431 -0.1564 -0.4067  0.2830
  897MOL0     C18299   5.758   5.491  10.375  0.5239  0.5717 -0.5115
  897MOL0     C18300   5.775   5.603  10.297  0.9414  0.3365 -0.7744
  897MOL0     C18301   5.658   5.689  10.265 -0.2402 -0.1532  0.6944
  897MOL0     O18302   5.535   5.627  10.273  0.0080 -0.1658  0.2853
  897MOL0     C18303   5.417   5.701  10.249  0.7692 -1.2188 -0.1794
  897MOL0     C18304   5.369   5.796  10.344  0.3659 -0.5648 -0.0633
  897MOL0     C18305   5.255   5.877  10.311 -0.1433 -0.5638 -0.4640
  897MOL0     C18306   5.172   5.846  10.209  0.4419  0.1063  0.0880
  897MOL0     O18307   5.054   5.924  10.192 -0.0793 -0.3498  0.4925
  897MOL0     C18308   4.957   5.856  10.103 -0.1704  0.2865 -0.3604
  897MOL0     C18309   4.825   5.926  10.115  0.6131 -0.0212  0.6935
  897MOL0     C18310   4.719   5.824  10.082  0.7111 -0.2145  0.4606
  897MOL0     C18311   4.575   5.885  10.057 -0.7163 -0.3082 -0.2632
  897MOL0     C18312   4.464   5.772  10.064  0.6754 -0.4289 -0.7171
  897MOL0     C18313   4.342   5.839  10.018 -0.7178  0.1053  0.3379
  897MOL0     C18314   4.232   5.730   9.996  0.3952 -0.3300 -0.2219
  897MOL0     C18315   4.101   5.800   9.976 -0.3246  0.2457  0.1854
  897MOL0    Cl18316   4.054   5.891  10.117  0.5831 -0.1713  0.0546
  897MOL0     C18317   5.212   5.742  10.118  0.5618  0.2867 -0.4199
  897MOL0     C18318   5.340   5.670  10.138  0.1381  0.2569  0.1753
  897MOL0     O18319   5.678   5.808  10.235 -0.7343  0.7921 -0.2860
  897MOL0     C18320   5.905   5.650  10.264  0.0927 -0.2923 -0.2856
  897MOL0     C18321   6.016   5.575  10.314  0.9752 -0.1104  0.1741
  897MOL0     N18322   6.184   5.398  11.157 -0.1674  0.3887 -0.6210
  897MOL0     N18323   6.179   5.477  11.253 -0.2041  0.7950 -0.8605
  897MOL0     C18324   5.530   6.014  10.732 -0.9002 -0.1190 -0.2323
  897MOL0     C18325   5.400   6.048  10.698  0.7842  0.6077 -0.4584
  897MOL0     C18326   5.018   6.279  10.636  0.0616 -0.6814  0.6241
  897MOL0     C18327   4.957   6.338  10.748  0.3897  0.3217  0.9014
  897MOL0     C18328   4.823   6.368  10.747  0.3268  0.8711 -1.8488
  897MOL0     C18329   4.747   6.359  10.627 -0.7198 -0.1914  0.3446
  897MOL0     O18330   4.614   6.392  10.620 -0.2444  0.1331  0.5541
  897MOL0     C18331   4.541   6.433  10.738 -0.5289  0.1686  0.6843
  897MOL0     C18332   4.504   6.309  10.830  0.4020  0.6269 -0.2021
  897MOL0     C18333   4.404   6.336  10.953  0.7498  0.2388  0.0981
  897MOL0     C18334   4.392   6.210  11.048  0.3713  0.0846 -0.3852
  897MOL0     C18335   4.327   6.107  10.969 -0.9731  0.6006 -0.2075
  897MOL0     C18336   4.297   6.020  10.890 -1.3422 -0.1458 -0.1987
  897MOL0     C18337   4.804   6.317  10.506 -0.2474 -0.3129 -0.2653
  897MOL0     C18338   4.941   6.277  10.514 -1.1135 -0.4600  0.1945
  897MOL0     H18339   5.328   6.246  10.970 -3.2704 -1.9383 -0.4338
  897MOL0     H18340   5.544   6.182  11.034 -0.6823 -1.1253  1.0190
  897MOL0     H18341   5.758   5.868  11.010 -2.2720 -0.0966 -1.8200
  897MOL0     H18342   5.663   5.997  11.092 -0.3455 -0.0308  0.5041
  897MOL0     H18343   5.844   6.149  11.085  1.9450  0.6941 -0.2444
  897MOL0     H18344   5.922   6.054  10.967 -3.3289  1.0076 -1.3993
  897MOL0     H18345   5.981   5.884  11.114 -0.6981  0.9777 -1.2567
  897MOL0     H18346   5.857   5.925  11.230 -2.2844  2.9319 -0.3506
  897MOL0     H18347   6.120   6.083  11.190  0.7953 -1.3953 -0.5445
  897MOL0     H18348   5.980   6.108  11.314 -0.0168 -0.4493  0.4080
  897MOL0     H18349   6.035   5.922  11.409 -0.3553  1.2552 -1.1112
  897MOL0     H18350   6.178   6.022  11.428  0.6169 -0.7890  0.8711
  897MOL0     H18351   6.293   5.876  11.261  0.8245 -1.5075  1.5876
  897MOL0     H18352   6.144   5.773  11.244  0.1023 -0.4883  0.2209
  897MOL0     H18353   6.306   5.795  11.493  0.8688  0.3494 -0.3513
  897MOL0     H18354   6.166   5.694  11.465 -0.8495  1.7450 -2.6245
  897MOL0     H18355   6.366   5.577  11.453  2.7866  0.0774 -0.4010
  897MOL0     H18356   6.440   5.685  11.350 -0.6531 -0.8191 -2.2160
  897MOL0     H18357   6.469   5.549  11.122  0.3970  1.1066  1.7166
  897MOL0     H18358   6.306   5.271  10.930 -1.8394 -0.2701  0.3827
  897MOL0     H18359   6.398   5.419  10.889 -1.4886  3.2684 -0.0990
  897MOL0     H18360   6.214   5.533  10.835  0.7662 -1.1940  0.8135
  897MOL0     H18361   6.096   5.395  10.873 -1.2228 -0.9449 -3.5723
  897MOL0     H18362   6.303   5.403  10.659 -0.6906  1.2816 -0.2767
  897MOL0     H18363   6.186   5.264  10.701 -1.4024  0.4387  2.1423
  897MOL0     H18364   6.086   5.538  10.625  1.5510  0.6821  1.1620
  897MOL0     H18365   6.001   5.399  10.653  0.9096 -1.9051  2.1158
  897MOL0     H18366   5.849   5.348  10.501  1.3127 -0.5916  0.4477
  897MOL0     H18367   5.661   5.453  10.405 -0.4904  2.6870 -0.9230
  897MOL0     H18368   5.431   5.821  10.429  1.4500 -1.9400 -0.4242
  897MOL0     H18369   5.217   5.955  10.377 -0.0814 -2.2971  1.7435
  897MOL0     H18370   4.945   5.754  10.138  3.1684 -0.5707 -1.3430
  897MOL0     H18371   4.983   5.872   9.998 -0.4273  2.1982 -0.1710
  897MOL0     H18372   4.818   6.014  10.052 -0.7973 -1.0053 -0.6146
  897MOL0     H18373   4.809   5.961  10.218 -1.4229 -0.8021  0.7034
  897MOL0     H18374   4.714   5.754  10.165 -0.5511 -1.6497 -0.7645
  897MOL0     H18375   4.742   5.762   9.994 -0.8305  1.8574 -1.5351
  897MOL0     H18376   4.540   5.962  10.126 -5.3881 -1.4964 -0.9731
  897MOL0     H18377   4.573   5.934   9.960 -0.3502 -1.0231 -0.6393
  897MOL0     H18378   4.466   5.738  10.167  0.3252  2.9778  0.5467
  897MOL0     H18379   4.484   5.688   9.997 -2.3622 -0.9714 -1.0720
  897MOL0     H18380   4.347   5.879   9.916  0.3781 -2.3677 -0.6601
  897MOL0     H18381   4.319   5.923  10.084  2.6794  0.5750  1.1179
  897MOL0     H18382   4.255   5.668   9.909  2.8296 -0.9043  0.7715
  897MOL0     H18383   4.229   5.661  10.081  0.4387  1.0143  0.9085
  897MOL0     H18384   4.030   5.719   9.955 -0.9508  1.3954 -2.6300
  897MOL0     H18385   4.102   5.861   9.886 -0.5864 -1.0190 -0.7051
  897MOL0     H18386   5.156   5.719  10.028  1.4119  2.2180 -1.5089
  897MOL0     H18387   5.369   5.595  10.064  2.2508  1.9599 -0.8251
  897MOL0     H18388   5.927   5.737  10.203  0.4052 -1.2976 -1.6565
  897MOL0     H18389   6.117   5.611  10.299 -0.3949  3.4451 -1.5180
  897MOL0     H18390   5.586   5.950  10.665 -2.1143  0.0928 -1.4876
  897MOL0     H18391   5.367   6.002  10.605  0.6279  0.1146 -0.1568
  897MOL0     H18392   5.012   6.352  10.841  1.5040 -2.6294  0.7914
  897MOL0     H18393   4.776   6.402  10.839 -0.2525 -2.4002 -0.8015
  897MOL0     H18394   4.443   6.464  10.701 -0.0279  1.1651  0.1559
  897MOL0     H18395   4.590   6.520  10.783  1.0001 -0.4918  0.3500
  897MOL0     H18396   4.470   6.226  10.768 -1.6173  0.4493  1.0517
  897MOL0     H18397   4.597   6.276  10.877 -0.7518 -0.7019  1.2813
  897MOL0     H18398   4.312   6.372  10.906  2.0451  1.5288 -1.5916
  897MOL0     H18399   4.445   6.425  11.002  0.1002  1.7525 -1.9606
  897MOL0     H18400   4.485   6.171  11.088 -0.7269 -1.8210  0.4473
  897MOL0     H18401   4.327   6.222  11.136  0.5820 -2.4547  0.1727
  897MOL0     H18402   4.281   5.931  10.833  0.6318 -2.0143  1.9418
  897MOL0     H18403   4.759   6.330  10.408 -1.6392 -0.4736  0.3188
  897MOL0     H18404   4.987   6.237  10.424  0.5180  2.4978 -0.4278
  898MOL0     O18405   3.356   7.993   9.068 -0.6475 -0.3569 -0.0449
  898MOL0     C18406   3.305   7.893   9.115  0.2001 -0.3769 -0.3917
  898MOL0     O18407   3.368   7.810   9.212  0.7058 -1.0513 -0.1045
  898MOL0     C18408   3.478   7.859   9.263  0.6577  0.5498  0.0868
  898MOL0     C18409   3.604   7.829   9.201  0.2232  0.2839 -0.4570
  898MOL0     C18410   3.717   7.884   9.250  0.1840  0.4007 -0.3855
  898MOL0     C18411   3.714   7.972   9.367 -0.0253 -0.4148 -0.8436
  898MOL0     O18412   3.828   8.022   9.428 -0.1504  0.0488  0.1543
  898MOL0     C18413   3.932   7.923   9.443 -0.8756 -0.0421 -0.5152
  898MOL0     C18414   4.018   7.959   9.572 -0.2283 -0.2842  0.4458
  898MOL0     C18415   4.142   8.046   9.540  0.1829 -0.6677 -0.5259
  898MOL0     C18416   4.218   8.111   9.660 -0.0084  0.0614 -0.2046
  898MOL0     C18417   4.353   8.178   9.634  0.6283  0.6327 -0.0613
  898MOL0     C18418   4.326   8.301   9.550 -0.4157  0.6282 -0.4249
  898MOL0     C18419   4.430   8.403   9.564 -0.5776 -0.2083 -0.2820
  898MOL0     C18420   4.534   8.407   9.451  0.1614 -0.1304  0.3355
  898MOL0     N18421   4.490   8.492   9.342 -0.1819  0.1132  0.4132
  898MOL0     C18422   4.386   8.459   9.260  0.4713 -0.5610 -0.1520
  898MOL0     C18423   4.386   8.567   9.175 -0.2096 -0.1820 -1.0092
  898MOL0     C18424   4.282   8.600   9.079  1.0183  0.3758 -0.3273
  898MOL0     C18425   4.155   8.517   9.090 -0.2444  0.0589 -0.0080
  898MOL0     C18426   4.080   8.554   9.224 -0.0036  0.4874 -0.8119
  898MOL0     C18427   3.935   8.590   9.198 -0.4854 -0.0866  0.1005
  898MOL0     O18428   3.875   8.470   9.139 -0.3877 -0.5114  0.2128
  898MOL0     C18429   3.737   8.476   9.109 -0.0698  0.2038  0.3529
  898MOL0     C18430   3.667   8.352   9.123  0.9376 -0.4187  0.3237
  898MOL0     C18431   3.532   8.346   9.101 -0.4784 -0.1889 -0.3478
  898MOL0     C18432   3.462   8.466   9.067 -0.0569  0.2240  0.6159
  898MOL0     C18433   3.318   8.465   9.038 -0.0688  0.0729  0.9964
  898MOL0     O18434   3.268   8.361   8.977  0.3579  1.1474 -0.3350
  898MOL0     C18435   3.138   8.353   8.963  0.1754 -0.3584  0.9816
  898MOL0     C18436   3.061   8.288   9.057  0.1232  0.0492 -0.2069
  898MOL0     C18437   2.918   8.283   9.043  0.2999  0.4792  0.6180
  898MOL0     C18438   2.859   8.350   8.931 -0.0135 -0.3206  0.0297
  898MOL0     O18439   2.726   8.336   8.916 -0.2529 -0.5937  0.2677
  898MOL0     C18440   2.658   8.434   8.833 -0.2099  0.0801 -0.1724
  898MOL0     C18441   2.511   8.405   8.820  0.1708  0.8004 -0.4321
  898MOL0     C18442   2.449   8.508   8.725 -0.5932 -0.1386  0.6469
  898MOL0     C18443   2.303   8.496   8.732 -0.4211 -0.7964  0.1557
  898MOL0     C18444   2.237   8.596   8.630  0.4841 -0.2519  0.2948
  898MOL0     C18445   2.087   8.592   8.622  0.4438  0.3756  0.0367
  898MOL0     C18446   2.020   8.724   8.583 -0.4691  0.4356  0.5773
  898MOL0     C18447   2.059   8.785   8.446 -0.6261  0.1487  0.7439
  898MOL0    Cl18448   2.019   8.714   8.298  0.1778  0.0164  0.2303
  898MOL0     C18449   2.941   8.417   8.837 -0.1455 -0.1632  0.2492
  898MOL0     C18450   3.084   8.408   8.842  0.0455 -0.2261 -0.3630
  898MOL0     O18451   3.256   8.566   9.063 -0.0111 -0.2345 -0.3226
  898MOL0     C18452   3.534   8.589   9.056 -0.5274  0.0312  0.2535
  898MOL0     C18453   3.669   8.596   9.083  0.2590  0.0650  0.0417
  898MOL0     N18454   4.483   8.658   9.207 -0.0962 -0.1909 -0.3669
  898MOL0     N18455   4.550   8.607   9.302 -0.3167  0.0277 -0.0806
  898MOL0     C18456   3.587   8.023   9.414  0.3733 -0.3496  0.4200
  898MOL0     C18457   3.468   7.965   9.358  0.0925  0.4138 -0.5658
  898MOL0     C18458   3.165   7.861   9.069  0.5707  0.7193 -0.0057
  898MOL0     C18459   3.096   7.740   9.105  0.8824 -0.2571 -0.3671
  898MOL0     C18460   2.974   7.706   9.046 -0.3220  0.7227 -0.3068
  898MOL0     C18461   2.911   7.791   8.966 -0.0601  0.3462  0.2634
  898MOL0     O18462   2.793   7.750   8.930 -0.1093 -0.1071  0.3592
  898MOL0     C18463   2.691   7.854   8.909  0.2428  0.4149  0.8862
  898MOL0     C18464   2.548   7.800   8.923 -0.1008  0.4741  0.1537
  898MOL0     C18465   2.439   7.903   8.904  0.4414 -0.3292 -0.3783
  898MOL0     C18466   2.296   7.839   8.925 -0.3420  0.5275  0.9871
  898MOL0     C18467   2.277   7.796   9.064  0.0901  0.3329 -0.4275
  898MOL0     C18468   2.256   7.726   9.158 -1.9441 -0.8398 -0.0184
  898MOL0     C18469   2.973   7.914   8.935  0.6411 -0.8823  0.5029
  898MOL0     C18470   3.093   7.954   8.991  0.1360  0.1238 -0.3591
  898MOL0     H18471   3.620   7.759   9.120  1.5343 -0.2425  0.2258
  898MOL0     H18472   3.812   7.870   9.199  0.9929  3.0277  0.2739
  898MOL0     H18473   4.007   7.923   9.363  0.9378  1.2322  1.0844
  898MOL0     H18474   3.886   7.826   9.465 -3.0863  1.3867  1.7132
  898MOL0     H18475   4.040   7.863   9.622 -1.7753  0.2741  2.3307
  898MOL0     H18476   3.952   8.009   9.643 -0.2981 -0.0212  0.1932
  898MOL0     H18477   4.123   8.126   9.468 -1.1904 -1.2679 -0.8464
  898MOL0     H18478   4.210   7.979   9.485 -1.3863 -1.2334 -1.8489
  898MOL0     H18479   4.152   8.176   9.718  0.0043 -1.3571  1.5099
  898MOL0     H18480   4.240   8.031   9.732 -0.5914 -0.1820 -0.2938
  898MOL0     H18481   4.420   8.110   9.581  1.6606  0.7406  1.0671
  898MOL0     H18482   4.401   8.205   9.729  0.5433  0.9976 -0.1199
  898MOL0     H18483   4.245   8.358   9.597  1.4679  1.9735  1.3784
  898MOL0     H18484   4.311   8.272   9.445  0.3330  0.9661 -0.6275
  898MOL0     H18485   4.386   8.503   9.566  2.0238  1.0233  1.3196
  898MOL0     H18486   4.475   8.390   9.663  0.8037 -1.4946 -1.0380
  898MOL0     H18487   4.561   8.309   9.411  1.3403 -0.3211  1.5273
  898MOL0     H18488   4.623   8.442   9.505 -1.5431  2.6138  1.5665
  898MOL0     H18489   4.316   8.376   9.264  1.3090 -1.2577  0.7621
  898MOL0     H18490   4.321   8.580   8.979  0.5895  1.3122 -0.6956
  898MOL0     H18491   4.265   8.708   9.074  1.3012  0.3655 -2.2279
  898MOL0     H18492   4.187   8.413   9.088  0.7142  0.3386  0.1877
  898MOL0     H18493   4.094   8.537   9.001  1.8896  3.9056 -0.8726
  898MOL0     H18494   4.077   8.470   9.294 -3.2293  4.3136  4.3256
  898MOL0     H18495   4.128   8.636   9.278  0.1131 -0.0933 -0.0198
  898MOL0     H18496   3.946   8.677   9.133  1.5921 -0.6129 -0.3315
  898MOL0     H18497   3.892   8.616   9.296 -2.2098 -0.1558 -0.6142
  898MOL0     H18498   3.726   8.265   9.151  1.2751 -0.1131  0.5811
  898MOL0     H18499   3.483   8.250   9.108  0.2278 -0.7035 -1.9789
  898MOL0     H18500   3.115   8.264   9.148  0.8275  0.4532 -0.5093
  898MOL0     H18501   2.857   8.235   9.119  1.4680 -1.0450  0.6367
  898MOL0     H18502   2.697   8.448   8.732 -1.6269  0.9527 -0.6195
  898MOL0     H18503   2.663   8.530   8.885 -3.1458  1.1372 -1.6431
  898MOL0     H18504   2.461   8.395   8.917 -0.3960 -2.0189 -0.9188
  898MOL0     H18505   2.489   8.308   8.775  1.8782 -0.5725  1.5087
  898MOL0     H18506   2.484   8.505   8.621 -1.7215  2.3379  0.1106
  898MOL0     H18507   2.476   8.610   8.754 -1.5479 -0.5191  3.1055
  898MOL0     H18508   2.274   8.391   8.721 -3.5486  0.1734 -2.0206
  898MOL0     H18509   2.271   8.525   8.833  0.9644  1.2394  0.0810
  898MOL0     H18510   2.272   8.571   8.529 -1.1605  0.6656 -0.5519
  898MOL0     H18511   2.274   8.698   8.645  0.7542 -0.6469  2.6137
  898MOL0     H18512   2.049   8.568   8.722  1.6637  1.1716  0.7113
  898MOL0     H18513   2.054   8.509   8.559  1.0593 -1.0395  1.5137
  898MOL0     H18514   1.911   8.713   8.589 -0.6004  0.7556 -1.0233
  898MOL0     H18515   2.043   8.791   8.667 -2.5715  2.6421 -0.5012
  898MOL0     H18516   2.167   8.790   8.458 -0.9078  1.6257  3.6303
  898MOL0     H18517   2.013   8.885   8.440 -2.3961 -0.6319  0.6147
  898MOL0     H18518   2.895   8.470   8.754  1.4895 -0.0613 -0.6253
  898MOL0     H18519   3.141   8.456   8.764 -0.0923 -0.4404 -0.5946
  898MOL0     H18520   3.479   8.678   9.026  0.3868  0.8570  0.9540
  898MOL0     H18521   3.726   8.688   9.072  2.3039 -1.1094  0.2723
  898MOL0     H18522   3.564   8.100   9.487 -1.4922 -0.7567  0.3120
  898MOL0     H18523   3.375   8.005   9.397  0.4015  0.8081 -0.2291
  898MOL0     H18524   3.147   7.673   9.173  1.4469  0.0101 -0.5251
  898MOL0     H18525   2.927   7.609   9.061  0.8074  0.3189  0.7293
  898MOL0     H18526   2.701   7.897   8.809  0.1528  0.5834  0.9506
  898MOL0     H18527   2.700   7.934   8.982 -0.1521  2.0477 -0.7834
  898MOL0     H18528   2.517   7.720   8.855 -1.2113  1.4887 -0.5696
  898MOL0     H18529   2.534   7.753   9.020 -2.1216 -1.0061 -0.7797
  898MOL0     H18530   2.437   7.928   8.797  2.3097  2.6796  0.1810
  898MOL0     H18531   2.450   7.999   8.954 -1.4347  0.8324 -2.0385
  898MOL0     H18532   2.225   7.918   8.897  1.5283  1.5449 -1.1982
  898MOL0     H18533   2.292   7.750   8.861  0.9076  1.6672 -0.7646
  898MOL0     H18534   2.258   7.661   9.243 -0.9122 -0.6843  0.0991
  898MOL0     H18535   2.934   7.981   8.860  2.1271 -1.7769 -1.1426
  898MOL0     H18536   3.131   8.055   8.974 -2.4201  1.4643  1.3244
  899MOL0     O18537   0.272   2.340   0.235  0.0199  0.7176 -0.0408
  899MOL0     C18538   0.323   2.304   0.345  0.2989  0.7669  0.2507
  899MOL0     O18539   0.273   2.222   0.434  0.0817 -0.2610 -0.0101
  899MOL0     C18540   0.146   2.170   0.417 -0.1355 -0.4189  0.3057
  899MOL0     C18541   0.073   2.184   0.530  1.3398  0.5161 -0.4764
  899MOL0     C18542  -0.064   2.149   0.524  0.0749  0.0727 -0.2168
  899MOL0     C18543  -0.124   2.107   0.404 -0.0153  0.2622 -0.3757
  899MOL0     O18544  -0.261   2.094   0.399  0.1957  0.2481  0.2474
  899MOL0     C18545  -0.322   1.986   0.331  1.1790  0.2355 -0.3426
  899MOL0     C18546  -0.409   1.930   0.442 -0.1482 -0.2932  0.2089
  899MOL0     C18547  -0.503   1.831   0.387  0.8005  0.5662 -0.0141
  899MOL0     C18548  -0.584   1.764   0.508 -0.3158 -0.0412  0.2787
  899MOL0     C18549  -0.687   1.657   0.455  1.0408  0.4018 -0.4311
  899MOL0     C18550  -0.798   1.711   0.360 -0.5210 -0.4816  0.1445
  899MOL0     C18551  -0.889   1.601   0.310  0.4107 -0.8616 -0.4851
  899MOL0     C18552  -0.989   1.655   0.208 -0.1931 -0.1024  0.4740
  899MOL0     N18553  -1.083   1.551   0.181  0.6097 -0.9112 -0.7297
  899MOL0     C18554  -1.075   1.433   0.104 -0.1952  0.0272  0.2175
  899MOL0     C18555  -1.195   1.370   0.108 -0.7125 -0.8353  0.3677
  899MOL0     C18556  -1.219   1.245   0.035  0.3980  0.5456  0.2760
  899MOL0     C18557  -1.349   1.254  -0.059 -0.2678  1.1424  0.5137
  899MOL0     C18558  -1.355   1.131  -0.155 -0.1330 -0.8141 -0.0603
  899MOL0     C18559  -1.484   1.122  -0.234 -0.2331 -0.2405  0.5976
  899MOL0     O18560  -1.596   1.136  -0.149  0.1128 -0.2083  0.2212
  899MOL0     C18561  -1.726   1.141  -0.201 -1.0317  1.0178 -0.0260
  899MOL0     C18562  -1.824   1.199  -0.124  0.2656  0.5711 -0.4245
  899MOL0     C18563  -1.949   1.203  -0.175  0.3605 -0.0676  0.3839
  899MOL0     C18564  -1.996   1.161  -0.299 -0.2046  0.0137 -0.9551
  899MOL0     C18565  -2.134   1.178  -0.349 -0.1186  0.5451 -0.5491
  899MOL0     O18566  -2.229   1.226  -0.259 -0.6064 -0.1593 -0.4653
  899MOL0     C18567  -2.367   1.220  -0.278 -0.5979  0.4013 -0.4205
  899MOL0     C18568  -2.430   1.113  -0.345  0.0617  0.2631  1.3240
  899MOL0     C18569  -2.570   1.112  -0.367 -0.5784 -0.5780  0.5490
  899MOL0     C18570  -2.651   1.197  -0.290 -0.0936 -0.9302 -0.7076
  899MOL0     O18571  -2.788   1.201  -0.288  0.0837 -0.1062 -0.0344
  899MOL0     C18572  -2.849   1.069  -0.302 -0.7071 -0.2173 -0.0829
  899MOL0     C18573  -2.972   1.060  -0.218  0.0130 -0.3404 -0.2479
  899MOL0     C18574  -3.082   1.154  -0.255 -0.2149  0.5896  0.5792
  899MOL0     C18575  -3.199   1.155  -0.163  0.1809 -0.2884 -0.5316
  899MOL0     C18576  -3.278   1.031  -0.199  0.3266  0.2875 -0.3594
  899MOL0     C18577  -3.414   1.034  -0.120  0.4702 -0.4322 -0.3878
  899MOL0     C18578  -3.504   0.918  -0.172 -0.6165 -0.2270  0.0571
  899MOL0     C18579  -3.630   0.912  -0.075  0.4864 -0.1695 -0.0500
  899MOL0    Cl18580  -3.753   1.038  -0.109 -0.3536 -0.3335  0.2442
  899MOL0     C18581  -2.590   1.297  -0.213  0.2102 -0.4094  0.6809
  899MOL0     C18582  -2.448   1.303  -0.210 -0.1311 -0.1434  0.0320
  899MOL0     O18583  -2.155   1.152  -0.461  0.1424  0.8505 -0.2148
  899MOL0     C18584  -1.889   1.121  -0.382  0.3216 -0.1780 -0.0790
  899MOL0     C18585  -1.759   1.103  -0.340  1.0390 -0.6686 -0.7458
  899MOL0     N18586  -1.283   1.446   0.185 -0.8935  0.1814 -0.2133
  899MOL0     N18587  -1.217   1.551   0.227 -0.4977 -0.4351 -1.0206
  899MOL0     C18588  -0.047   2.101   0.289 -0.0360  0.0582  0.6942
  899MOL0     C18589   0.090   2.136   0.293  1.4062  0.2877  0.3396
  899MOL0     C18590   0.451   2.358   0.380  0.4107 -0.1412  0.5362
  899MOL0     C18591   0.490   2.376   0.512 -0.0759 -0.2140 -0.2249
  899MOL0     C18592   0.622   2.405   0.548 -0.3705 -0.0924  0.6814
  899MOL0     C18593   0.720   2.422   0.443  1.5213 -0.5532 -0.2772
  899MOL0     O18594   0.847   2.454   0.467  0.1873 -0.0546 -0.6913
  899MOL0     C18595   0.896   2.454   0.607 -0.2007  0.7668  0.0650
  899MOL0     C18596   1.046   2.482   0.600 -0.2391  0.2570 -0.5296
  899MOL0     C18597   1.137   2.369   0.537  0.1795  0.0853 -0.3285
  899MOL0     C18598   1.276   2.435   0.505  0.3794  0.3369 -0.0517
  899MOL0     C18599   1.379   2.351   0.434  0.4229  0.2426 -0.0534
  899MOL0     C18600   1.463   2.273   0.384  1.0028  0.0192 -0.1557
  899MOL0     C18601   0.673   2.420   0.311  0.4153  0.6581 -0.0109
  899MOL0     C18602   0.543   2.380   0.279  0.9831 -0.4077 -0.2954
  899MOL0     H18603   0.112   2.228   0.620 -0.5880  3.7329 -1.0556
  899MOL0     H18604  -0.110   2.165   0.621 -0.1708  1.7380 -0.5919
  899MOL0     H18605  -0.255   1.909   0.292 -0.7854 -1.5831 -0.3240
  899MOL0     H18606  -0.383   2.029   0.251  1.5067 -2.5252 -2.2069
  899MOL0     H18607  -0.466   2.007   0.494 -2.3023 -1.5097 -0.2259
  899MOL0     H18608  -0.346   1.886   0.520 -1.6042 -0.2848  1.4389
  899MOL0     H18609  -0.447   1.753   0.334 -0.7855  0.0493 -0.9707
  899MOL0     H18610  -0.569   1.883   0.318 -1.4004  0.0051  1.5644
  899MOL0     H18611  -0.508   1.710   0.565 -0.4045  0.2145  0.6402
  899MOL0     H18612  -0.635   1.843   0.564  1.4801  1.0238  0.4814
  899MOL0     H18613  -0.741   1.620   0.543 -0.5529  2.3258 -0.5174
  899MOL0     H18614  -0.636   1.569   0.414  1.1738 -0.9519  2.3815
  899MOL0     H18615  -0.753   1.759   0.273 -0.5464 -0.5180  0.1111
  899MOL0     H18616  -0.865   1.782   0.410  1.7971  1.5864  0.5063
  899MOL0     H18617  -0.816   1.536   0.260  4.6743  1.8352  1.6208
  899MOL0     H18618  -0.945   1.550   0.389  0.6538  1.1269  1.0350
  899MOL0     H18619  -0.938   1.676   0.114 -0.8958 -0.6898 -0.0460
  899MOL0     H18620  -1.045   1.734   0.259  0.4949  0.0657  0.9884
  899MOL0     H18621  -0.990   1.394   0.050 -1.4179 -1.4869 -0.6807
  899MOL0     H18622  -1.228   1.155   0.097 -0.1682 -1.8023 -2.9439
  899MOL0     H18623  -1.134   1.228  -0.030  0.6125 -2.5476  1.2140
  899MOL0     H18624  -1.349   1.351  -0.110 -0.6549  0.6170 -0.5025
  899MOL0     H18625  -1.433   1.266   0.010 -0.6372  1.1264  0.0702
  899MOL0     H18626  -1.274   1.131  -0.228 -0.9686 -2.8081 -1.0882
  899MOL0     H18627  -1.351   1.045  -0.087 -2.7258  0.8865  2.4612
  899MOL0     H18628  -1.485   1.019  -0.273  4.1459 -1.0482  1.9905
  899MOL0     H18629  -1.491   1.202  -0.308  1.0484  1.8153  2.5608
  899MOL0     H18630  -1.810   1.221  -0.019 -0.9310  1.8719 -0.4998
  899MOL0     H18631  -2.031   1.219  -0.105 -0.7392 -0.3304 -0.7945
  899MOL0     H18632  -2.376   1.033  -0.396  0.6248 -0.1572  2.5490
  899MOL0     H18633  -2.620   1.038  -0.428  1.2432 -1.8183  0.4760
  899MOL0     H18634  -2.788   0.984  -0.270 -2.2706 -2.6203 -2.9956
  899MOL0     H18635  -2.867   1.050  -0.408  2.9769 -1.8128 -0.5942
  899MOL0     H18636  -2.951   1.079  -0.112 -3.1435  2.0793  0.0944
  899MOL0     H18637  -3.009   0.957  -0.215 -0.7907 -0.0458  1.4571
  899MOL0     H18638  -3.106   1.124  -0.358 -0.2456 -1.1040  1.0490
  899MOL0     H18639  -3.037   1.253  -0.267 -0.6855  0.5148 -2.8536
  899MOL0     H18640  -3.160   1.138  -0.062  0.2129  0.7579 -0.3586
  899MOL0     H18641  -3.263   1.242  -0.181  2.2439  1.7215  1.2268
  899MOL0     H18642  -3.229   0.936  -0.179 -1.3189  0.1226  4.0674
  899MOL0     H18643  -3.317   1.032  -0.301 -3.0493  2.5434  0.7654
  899MOL0     H18644  -3.458   1.134  -0.122 -0.3378 -0.7725 -3.0562
  899MOL0     H18645  -3.400   1.012  -0.013  1.4198  1.1543 -0.1486
  899MOL0     H18646  -3.540   0.933  -0.274 -0.2525  2.9453  0.2913
  899MOL0     H18647  -3.452   0.823  -0.157  0.3791  0.2041 -0.5827
  899MOL0     H18648  -3.609   0.910   0.032 -2.4139 -1.7842  0.5678
  899MOL0     H18649  -3.679   0.816  -0.091  2.2731 -0.8547 -1.8253
  899MOL0     H18650  -2.661   1.359  -0.159  0.4091  0.1145  0.3542
  899MOL0     H18651  -2.402   1.383  -0.153 -1.2159  1.2430 -0.9642
  899MOL0     H18652  -1.916   1.106  -0.486 -0.3113 -0.9429  0.1835
  899MOL0     H18653  -1.686   1.092  -0.419 -0.8187 -1.9732 -2.3765
  899MOL0     H18654  -0.104   2.085   0.197 -0.4014  1.1327  0.7268
  899MOL0     H18655   0.151   2.131   0.204  1.3767  5.3580 -0.2460
  899MOL0     H18656   0.405   2.367   0.579 -2.1229  0.8739 -2.5230
  899MOL0     H18657   0.645   2.427   0.652 -1.4913  0.1789  0.8908
  899MOL0     H18658   0.870   2.363   0.663 -2.6442  1.5825  0.4016
  899MOL0     H18659   0.846   2.530   0.667  1.0236 -0.2975  2.5924
  899MOL0     H18660   1.062   2.566   0.532 -1.5536 -0.1683 -1.3979
  899MOL0     H18661   1.072   2.497   0.705 -1.0838  0.0436 -0.2882
  899MOL0     H18662   1.091   2.345   0.441  0.6389  1.1365 -0.8341
  899MOL0     H18663   1.133   2.287   0.609  0.4954  0.6757  0.3759
  899MOL0     H18664   1.247   2.510   0.431  0.2918  1.1153  0.7642
  899MOL0     H18665   1.327   2.486   0.586  1.6285 -1.0042  0.0417
  899MOL0     H18666   1.540   2.215   0.338 -1.3699 -2.0903 -1.8004
  899MOL0     H18667   0.752   2.448   0.241  0.3818  5.6988  1.5917
  899MOL0     H18668   0.520   2.378   0.173  1.9935 -1.1548 -0.5027
  900MOL0     O18669   6.189   2.653   7.457  0.8999 -0.1257 -0.8101
  900MOL0     C18670   6.185   2.594   7.563  0.0172  0.2517  0.3424
  900MOL0     O18671   6.067   2.561   7.631 -0.4196 -0.9703 -0.1483
  900MOL0     C18672   5.943   2.591   7.578  0.4870 -0.4696  0.7180
  900MOL0     C18673   5.862   2.694   7.626 -0.2403 -0.1774  0.1682
  900MOL0     C18674   5.740   2.740   7.567 -0.1167 -0.3599  0.2248
  900MOL0     C18675   5.694   2.681   7.442 -0.0989 -1.3331 -0.0170
  900MOL0     O18676   5.571   2.724   7.396  0.7541 -0.8066  0.2062
  900MOL0     C18677   5.527   2.679   7.267 -0.5186  0.1098  0.0921
  900MOL0     C18678   5.408   2.747   7.213 -0.1239 -0.0333  0.4554
  900MOL0     C18679   5.297   2.746   7.322 -0.2154 -0.1774  0.0582
  900MOL0     C18680   5.181   2.812   7.253 -0.3977  0.9274  0.4033
  900MOL0     C18681   5.057   2.814   7.338  0.4634 -0.6437 -0.7019
  900MOL0     C18682   4.949   2.903   7.263 -0.1997  0.1921 -0.7118
  900MOL0     C18683   4.900   2.839   7.135 -0.6342 -0.4360  0.4498
  900MOL0     C18684   4.779   2.913   7.082  0.6043 -0.4105 -0.4837
  900MOL0     N18685   4.669   2.897   7.179 -0.5654  0.7756  0.8586
  900MOL0     C18686   4.608   2.781   7.200 -0.7324 -0.5409  0.6193
  900MOL0     C18687   4.511   2.804   7.287  0.5241  0.4300  0.3568
  900MOL0     C18688   4.413   2.704   7.345  0.4709  0.6058 -0.8078
  900MOL0     C18689   4.288   2.687   7.261  0.3233 -0.0538 -0.5466
  900MOL0     C18690   4.229   2.814   7.206 -0.4943  0.3037  0.0628
  900MOL0     C18691   4.094   2.792   7.155  0.3557  0.7006 -0.1058
  900MOL0     O18692   4.015   2.737   7.263 -0.0035  0.3221  0.4028
  900MOL0     C18693   3.889   2.689   7.235  1.2134 -0.6101 -0.6007
  900MOL0     C18694   3.818   2.699   7.114 -0.1443  0.2984 -0.0873
  900MOL0     C18695   3.680   2.675   7.111  0.6584  0.4622  0.2739
  900MOL0     C18696   3.609   2.631   7.221  0.3112 -0.1446  0.2986
  900MOL0     C18697   3.462   2.616   7.212 -0.0738  0.0734  0.0208
  900MOL0     O18698   3.408   2.601   7.078  0.9247 -0.8774 -0.1588
  900MOL0     C18699   3.271   2.599   7.061 -0.1065 -0.6108  0.2203
  900MOL0     C18700   3.177   2.687   7.116  0.9537 -0.9010 -0.1484
  900MOL0     C18701   3.040   2.671   7.079  0.1250 -0.1368 -0.2166
  900MOL0     C18702   2.995   2.572   6.997 -0.2936  0.1711  0.0807
  900MOL0     O18703   2.869   2.552   6.954  0.1521  0.3940  0.0296
  900MOL0     C18704   2.804   2.467   7.046 -0.6561 -0.0854  0.2033
  900MOL0     C18705   2.703   2.383   6.964 -0.2937 -0.7283  0.1806
  900MOL0     C18706   2.571   2.457   6.964  0.0081 -0.8407  0.4601
  900MOL0     C18707   2.472   2.386   6.872 -0.1106 -0.1039 -0.2275
  900MOL0     C18708   2.355   2.471   6.828 -0.3829 -0.1839 -0.0777
  900MOL0     C18709   2.264   2.414   6.718 -0.3178  1.2719 -0.1456
  900MOL0     C18710   2.168   2.533   6.684 -0.1293  0.6304  0.5782
  900MOL0     C18711   2.049   2.492   6.598  0.2838  0.0730  0.4713
  900MOL0    Cl18712   1.918   2.610   6.609  0.4469 -0.3527  0.3328
  900MOL0     C18713   3.096   2.490   6.938 -1.1276 -0.6536 -0.1138
  900MOL0     C18714   3.236   2.508   6.965 -0.3603 -0.3689 -0.3828
  900MOL0     O18715   3.408   2.611   7.318  0.3420 -0.1151 -0.0733
  900MOL0     C18716   3.681   2.606   7.339 -0.3882 -0.4743  0.4986
  900MOL0     C18717   3.819   2.629   7.344  0.1955 -0.8441 -0.2701
  900MOL0     N18718   4.511   2.939   7.321  0.0005 -0.3792 -0.7058
  900MOL0     N18719   4.611   2.993   7.265  0.1344  0.0332 -0.1454
  900MOL0     C18720   5.780   2.583   7.387 -0.3183 -0.2010 -0.4921
  900MOL0     C18721   5.900   2.538   7.458  0.0879 -0.1075  1.2714
  900MOL0     C18722   6.319   2.576   7.619 -0.0213  0.2982  0.3065
  900MOL0     C18723   6.435   2.603   7.548  0.0698  0.2647  0.1472
  900MOL0     C18724   6.561   2.570   7.592  0.2232  0.7793 -0.0711
  900MOL0     C18725   6.573   2.510   7.716 -0.1543 -0.5360 -0.0431
  900MOL0     O18726   6.697   2.466   7.766  0.3643 -0.7312 -0.5171
  900MOL0     C18727   6.807   2.472   7.680 -0.1427  0.3914  0.2892
  900MOL0     C18728   6.929   2.412   7.744 -0.1846 -0.8919  0.2568
  900MOL0     C18729   6.908   2.273   7.805 -0.3556  0.1146 -0.3048
  900MOL0     C18730   7.043   2.203   7.816  0.4195 -0.6625  0.7214
  900MOL0     C18731   7.124   2.271   7.919 -0.4545  0.3145 -0.5237
  900MOL0     C18732   7.189   2.346   7.995  1.2681 -0.4969 -1.5529
  900MOL0     C18733   6.455   2.486   7.798 -0.5604  0.1085  0.5801
  900MOL0     C18734   6.332   2.510   7.745 -0.0379 -0.6052  1.3031
  900MOL0     H18735   5.885   2.735   7.724 -0.8298 -0.7464  0.5534
  900MOL0     H18736   5.692   2.822   7.620 -1.0021 -0.1161 -0.9273
  900MOL0     H18737   5.491   2.577   7.277  0.4241 -0.1260  1.3492
  900MOL0     H18738   5.612   2.673   7.198 -0.7551 -2.3839 -0.0774
  900MOL0     H18739   5.383   2.688   7.124  1.0085  0.5478 -0.2739
  900MOL0     H18740   5.418   2.849   7.174 -0.7920 -0.5021 -0.9904
  900MOL0     H18741   5.320   2.806   7.412 -0.0080 -0.5698  0.2678
  900MOL0     H18742   5.274   2.644   7.352 -2.5389 -0.1444 -1.3598
  900MOL0     H18743   5.205   2.914   7.220  0.0411 -0.3159 -3.6130
  900MOL0     H18744   5.160   2.756   7.161 -2.4484 -0.8582  1.8486
  900MOL0     H18745   5.071   2.865   7.434 -0.9700 -0.3659 -0.6263
  900MOL0     H18746   5.021   2.713   7.360  2.2391 -2.1166 -3.9321
  900MOL0     H18747   4.991   3.001   7.237  0.9999 -0.4104 -1.1090
  900MOL0     H18748   4.860   2.924   7.323 -0.0213 -1.9980  0.4117
  900MOL0     H18749   4.979   2.851   7.061  0.0890 -0.6330  1.1743
  900MOL0     H18750   4.873   2.733   7.146 -0.4700 -0.2314  3.7997
  900MOL0     H18751   4.739   2.869   6.990 -3.1641 -1.9634  1.6768
  900MOL0     H18752   4.812   3.017   7.073 -2.3994  0.6176 -0.5453
  900MOL0     H18753   4.624   2.683   7.155 -2.4764 -0.4256 -0.3432
  900MOL0     H18754   4.375   2.735   7.442  1.0151 -0.0743 -0.3700
  900MOL0     H18755   4.458   2.605   7.350 -4.0814 -1.6787 -0.0305
  900MOL0     H18756   4.222   2.632   7.328  0.7339  0.4225  0.2680
  900MOL0     H18757   4.310   2.626   7.174 -1.1981  1.7077 -2.2535
  900MOL0     H18758   4.221   2.895   7.279 -2.7909 -0.9691  1.3365
  900MOL0     H18759   4.287   2.843   7.117 -1.5571 -2.9462 -1.8896
  900MOL0     H18760   4.104   2.721   7.072  0.6602  0.2202  0.3361
  900MOL0     H18761   4.046   2.879   7.109 -0.4089 -0.4487 -1.5643
  900MOL0     H18762   3.876   2.732   7.028  0.2340  0.3808  0.1998
  900MOL0     H18763   3.620   2.709   7.027  0.1771  1.2559  0.9278
  900MOL0     H18764   3.208   2.769   7.181  1.2290 -0.2215 -1.1172
  900MOL0     H18765   2.968   2.738   7.124 -1.8684  0.1593 -3.5322
  900MOL0     H18766   2.761   2.515   7.134 -3.8190  0.7658 -1.6274
  900MOL0     H18767   2.871   2.394   7.092  0.5174  0.3236 -0.7982
  900MOL0     H18768   2.698   2.287   7.015 -0.7335 -0.7256  0.1485
  900MOL0     H18769   2.740   2.371   6.862 -0.1461  0.0765  0.1333
  900MOL0     H18770   2.591   2.560   6.933 -0.4608 -1.0021 -0.4255
  900MOL0     H18771   2.528   2.447   7.064  2.3525 -0.3957  1.5650
  900MOL0     H18772   2.518   2.349   6.780  0.2220 -0.7068  0.1763
  900MOL0     H18773   2.426   2.303   6.927 -0.6631  0.5845  0.3879
  900MOL0     H18774   2.404   2.564   6.795 -0.0561 -0.4458 -0.3357
  900MOL0     H18775   2.305   2.487   6.924  0.0313 -0.1399  0.1321
  900MOL0     H18776   2.225   2.314   6.740  0.4690  0.4450 -2.2588
  900MOL0     H18777   2.335   2.387   6.639  1.2411 -1.0456  1.8825
  900MOL0     H18778   2.129   2.561   6.782 -1.4214 -0.4673  0.4095
  900MOL0     H18779   2.223   2.618   6.643 -2.5651  1.3733 -1.4022
  900MOL0     H18780   2.019   2.393   6.636  0.2496 -1.0134 -2.1908
  900MOL0     H18781   2.073   2.472   6.493 -0.1065  2.0933 -0.0418
  900MOL0     H18782   3.057   2.416   6.869 -2.5434  0.3278 -0.4093
  900MOL0     H18783   3.308   2.443   6.918 -1.1080 -0.1451 -1.9020
  900MOL0     H18784   3.626   2.583   7.430 -0.5991  0.9049  0.7397
  900MOL0     H18785   3.864   2.638   7.442 -2.2472  0.8237  0.8164
  900MOL0     H18786   5.763   2.554   7.284  2.4782 -1.1661 -0.7625
  900MOL0     H18787   5.969   2.474   7.404 -1.0377 -0.7031  0.5012
  900MOL0     H18788   6.424   2.642   7.447 -1.3602 -0.3686  0.0339
  900MOL0     H18789   6.646   2.603   7.533 -0.4787  1.0032 -0.9640
  900MOL0     H18790   6.836   2.573   7.649  0.5731  1.2592  3.4805
  900MOL0     H18791   6.785   2.418   7.587  3.4531 -0.5231 -0.1722
  900MOL0     H18792   7.001   2.402   7.662 -1.0103  1.3342 -0.8216
  900MOL0     H18793   6.972   2.476   7.821 -0.0953  0.3631 -0.7942
  900MOL0     H18794   6.836   2.222   7.741 -0.6611 -0.9749  0.8686
  900MOL0     H18795   6.857   2.282   7.902 -1.2917 -0.7809 -0.6975
  900MOL0     H18796   7.032   2.099   7.848 -0.8496 -0.1539  2.0487
  900MOL0     H18797   7.099   2.212   7.722 -0.7474  0.0614  0.0720
  900MOL0     H18798   7.238   2.416   8.060 -0.9854 -0.5445  0.3325
  900MOL0     H18799   6.450   2.424   7.888 -1.6226 -1.4572 -0.4978
  900MOL0     H18800   6.246   2.481   7.804 -1.2359  0.1481 -0.0246
  901MOL0     O18801   0.981   4.152   7.012 -0.4747  0.3056 -0.5512
  901MOL0     C18802   1.004   4.154   7.130 -0.2047 -0.1705 -0.1755
  901MOL0     O18803   0.914   4.189   7.227  0.0917  0.2657 -0.4890
  901MOL0     C18804   0.798   4.247   7.205  0.0363  0.2057  0.1480
  901MOL0     C18805   0.772   4.338   7.102  0.4094  0.1581  0.2258
  901MOL0     C18806   0.644   4.396   7.088  0.2789  0.3487 -0.7779
  901MOL0     C18807   0.537   4.370   7.183  0.6966  0.4197  1.0725
  901MOL0     O18808   0.402   4.422   7.173  0.1810 -0.0914  0.9926
  901MOL0     C18809   0.385   4.512   7.065 -0.2578 -0.2840 -0.0416
  901MOL0     C18810   0.264   4.597   7.090  0.7109  0.8220  0.4694
  901MOL0     C18811   0.126   4.528   7.078  0.2258  0.5854  0.1338
  901MOL0     C18812   0.031   4.583   7.177 -0.1499 -0.1105  0.9157
  901MOL0     C18813  -0.089   4.491   7.224 -0.4366 -0.1510 -0.2225
  901MOL0     C18814  -0.032   4.372   7.301 -0.6111 -0.0456  0.2744
  901MOL0     C18815  -0.141   4.308   7.396  0.3372  0.3185 -0.7744
  901MOL0     C18816  -0.080   4.210   7.503 -0.5021  0.7959  0.2782
  901MOL0     N18817  -0.175   4.214   7.617  0.6151  0.4104  0.1489
  901MOL0     C18818  -0.297   4.156   7.629 -0.3138  0.5068 -0.2907
  901MOL0     C18819  -0.347   4.203   7.747 -0.2799 -0.5029  0.0183
  901MOL0     C18820  -0.462   4.153   7.829  0.4422 -0.7625 -0.5366
  901MOL0     C18821  -0.589   4.101   7.753 -0.3773 -0.7317 -0.1511
  901MOL0     C18822  -0.644   4.208   7.658 -0.5975  0.5854 -0.1939
  901MOL0     C18823  -0.785   4.163   7.616 -0.4946  0.6638  0.3912
  901MOL0     O18824  -0.878   4.145   7.723  0.5129  0.0118  0.3577
  901MOL0     C18825  -0.998   4.092   7.694  1.3191  0.2589  0.0154
  901MOL0     C18826  -1.069   4.102   7.578 -0.1468  0.3673 -0.2532
  901MOL0     C18827  -1.195   4.056   7.572 -0.3589  0.7380 -0.0968
  901MOL0     C18828  -1.255   3.981   7.679 -0.0883 -0.0005 -0.2405
  901MOL0     C18829  -1.396   3.943   7.676  0.6876 -0.6014  0.1480
  901MOL0     O18830  -1.472   3.976   7.566 -0.3803 -0.5006 -0.1920
  901MOL0     C18831  -1.607   3.957   7.560 -0.8644 -0.2648  0.0468
  901MOL0     C18832  -1.663   3.827   7.545  0.4108  0.0834  0.0595
  901MOL0     C18833  -1.799   3.793   7.524 -0.4122 -0.3508 -0.0361
  901MOL0     C18834  -1.886   3.896   7.529 -0.4585 -0.2573 -0.6413
  901MOL0     O18835  -2.024   3.886   7.516 -0.3263 -0.2531 -0.3729
  901MOL0     C18836  -2.090   3.759   7.512 -0.6118 -0.2157 -0.5877
  901MOL0     C18837  -2.233   3.764   7.463  0.1811  1.1362 -1.1854
  901MOL0     C18838  -2.334   3.856   7.544 -0.1790  0.3621 -0.6920
  901MOL0     C18839  -2.480   3.829   7.490  0.8402 -1.8419  0.1562
  901MOL0     C18840  -2.578   3.942   7.535 -0.3952  0.6578  0.2512
  901MOL0     C18841  -2.619   3.907   7.681  0.6820  0.8380  0.2639
  901MOL0     C18842  -2.717   4.005   7.757 -0.7713 -0.3206 -0.8367
  901MOL0     C18843  -2.654   4.144   7.798 -0.0117  0.1872  0.5793
  901MOL0    Cl18844  -2.778   4.239   7.870  0.1780  0.1574  0.4366
  901MOL0     C18845  -1.829   4.027   7.526  0.6692 -0.7341 -0.3548
  901MOL0     C18846  -1.697   4.063   7.543  0.2505 -0.4504 -0.4158
  901MOL0     O18847  -1.443   3.899   7.783 -0.2039 -0.0052 -0.0830
  901MOL0     C18848  -1.173   3.956   7.788 -0.8987  0.2955 -0.6033
  901MOL0     C18849  -1.052   4.016   7.798  0.3534 -0.8220 -0.2663
  901MOL0     N18850  -0.254   4.292   7.797 -0.1946 -0.2100  0.6570
  901MOL0     N18851  -0.164   4.300   7.716 -0.7005 -0.4702 -0.0852
  901MOL0     C18852   0.567   4.279   7.285  0.0798 -0.6758  0.5804
  901MOL0     C18853   0.693   4.223   7.301 -0.6692 -0.4256  1.0770
  901MOL0     C18854   1.137   4.111   7.178 -0.1615 -0.0244 -0.3951
  901MOL0     C18855   1.177   4.132   7.312 -0.4915  0.5210  0.1991
  901MOL0     C18856   1.293   4.072   7.355  0.1612 -0.4140  0.5138
  901MOL0     C18857   1.380   4.005   7.272  0.2713  0.0070  0.1244
  901MOL0     O18858   1.500   3.960   7.330  0.4609 -0.2213  0.4416
  901MOL0     C18859   1.599   3.904   7.248  0.4759  0.2560  0.1755
  901MOL0     C18860   1.682   4.023   7.202 -0.5374 -0.5944 -1.1387
  901MOL0     C18861   1.807   3.976   7.129  0.6800  0.1991  0.3770
  901MOL0     C18862   1.872   4.082   7.038 -0.6018 -0.1986  0.6556
  901MOL0     C18863   1.800   4.117   6.911 -0.1427  0.3808 -0.1768
  901MOL0     C18864   1.742   4.151   6.807  0.6828  0.0654  0.2583
  901MOL0     C18865   1.342   3.995   7.138  0.7114  0.3464 -0.1790
  901MOL0     C18866   1.224   4.046   7.092  0.6049 -0.0497 -0.4714
  901MOL0     H18867   0.839   4.360   7.020 -0.4436  0.5907 -0.3608
  901MOL0     H18868   0.623   4.457   7.001 -0.2641 -2.0980 -2.4639
  901MOL0     H18869   0.378   4.462   6.968 -1.4666  1.7827 -1.0765
  901MOL0     H18870   0.468   4.583   7.062  0.5726 -1.2487 -2.2944
  901MOL0     H18871   0.252   4.685   7.027  0.3490  0.8015  0.5084
  901MOL0     H18872   0.278   4.626   7.195 -1.5516 -3.7285  2.3307
  901MOL0     H18873   0.154   4.425   7.101  2.8995  1.2751  0.2566
  901MOL0     H18874   0.074   4.531   6.981 -2.4146  3.1170  1.4915
  901MOL0     H18875   0.087   4.609   7.268  1.4456  0.0237 -0.0662
  901MOL0     H18876  -0.011   4.670   7.126  3.6272 -0.7964 -4.0596
  901MOL0     H18877  -0.135   4.447   7.135 -0.1809 -2.8060  0.8791
  901MOL0     H18878  -0.160   4.557   7.274 -0.1645  1.1402 -1.4688
  901MOL0     H18879   0.055   4.406   7.357  0.6410 -3.8837  0.9240
  901MOL0     H18880   0.010   4.301   7.228 -0.0502  2.0325 -1.5329
  901MOL0     H18881  -0.201   4.388   7.441 -2.2086 -2.3020  0.8400
  901MOL0     H18882  -0.205   4.250   7.329  0.0797  0.4116 -0.6096
  901MOL0     H18883   0.018   4.249   7.533  0.1258  0.4258 -1.1966
  901MOL0     H18884  -0.070   4.115   7.450 -0.5322  1.8338 -1.6739
  901MOL0     H18885  -0.338   4.083   7.560  2.6882 -0.7985 -0.8154
  901MOL0     H18886  -0.500   4.236   7.889  0.8141  0.4457 -1.9226
  901MOL0     H18887  -0.417   4.072   7.888 -0.9076 -0.7695  0.5418
  901MOL0     H18888  -0.663   4.097   7.833  1.5620  1.0412  1.8728
  901MOL0     H18889  -0.560   4.010   7.699 -0.4581 -1.1494  0.5035
  901MOL0     H18890  -0.654   4.296   7.723  1.2059 -0.5976  1.8000
  901MOL0     H18891  -0.575   4.222   7.575 -0.9042  0.5449 -0.4582
  901MOL0     H18892  -0.775   4.078   7.548  2.5330  0.5198  0.8734
  901MOL0     H18893  -0.816   4.251   7.559  0.9451  0.3941 -0.9057
  901MOL0     H18894  -1.029   4.149   7.489 -1.2796  2.4201  0.2770
  901MOL0     H18895  -1.255   4.086   7.487 -0.7149  0.8228  0.1800
  901MOL0     H18896  -1.593   3.744   7.536 -1.1098 -1.2071 -0.3692
  901MOL0     H18897  -1.835   3.694   7.501 -1.8574  0.0326  0.4858
  901MOL0     H18898  -2.091   3.707   7.608 -0.8807 -0.6605 -0.8274
  901MOL0     H18899  -2.039   3.696   7.439  0.6229 -1.9046  1.6096
  901MOL0     H18900  -2.273   3.663   7.475 -1.6871  2.0832  1.6226
  901MOL0     H18901  -2.227   3.792   7.357 -1.0744 -0.5218 -1.7289
  901MOL0     H18902  -2.305   3.961   7.534  1.1008  0.2030  0.8700
  901MOL0     H18903  -2.337   3.824   7.649 -0.4770 -1.0057 -1.1070
  901MOL0     H18904  -2.478   3.837   7.381  0.8109 -3.4767  0.0230
  901MOL0     H18905  -2.530   3.734   7.509 -0.4564 -0.9515  1.3452
  901MOL0     H18906  -2.657   3.947   7.459 -0.6611  0.1328  0.4820
  901MOL0     H18907  -2.534   4.041   7.529  2.5043 -0.5381 -5.1615
  901MOL0     H18908  -2.526   3.910   7.738  1.2408  0.3094 -0.5989
  901MOL0     H18909  -2.668   3.809   7.686 -0.0731  1.1253 -0.8698
  901MOL0     H18910  -2.805   4.018   7.693 -0.1547 -2.6239 -2.2686
  901MOL0     H18911  -2.748   3.955   7.849  3.2458 -1.8672 -0.1158
  901MOL0     H18912  -2.628   4.193   7.704 -1.1539 -0.7285 -0.2496
  901MOL0     H18913  -2.562   4.126   7.855  0.6292 -0.8734 -0.7351
  901MOL0     H18914  -1.901   4.108   7.533  0.9320 -0.4134 -1.3682
  901MOL0     H18915  -1.649   4.160   7.550 -1.7137  0.4518  2.0424
  901MOL0     H18916  -1.211   3.891   7.866 -0.3656 -1.6329 -1.8781
  901MOL0     H18917  -1.000   4.028   7.893 -2.0462 -0.3414  1.0844
  901MOL0     H18918   0.490   4.247   7.354 -0.0160 -0.1483  0.7199
  901MOL0     H18919   0.710   4.157   7.386  0.5109  0.2825  1.4135
  901MOL0     H18920   1.121   4.202   7.374 -1.1705  1.1467 -1.0696
  901MOL0     H18921   1.318   4.091   7.459  1.2187  0.0877  0.1760
  901MOL0     H18922   1.544   3.843   7.176 -2.0588  0.2546  1.9804
  901MOL0     H18923   1.660   3.830   7.300  1.1223  0.8641  0.3060
  901MOL0     H18924   1.618   4.086   7.139 -1.3029  0.8726  1.0038
  901MOL0     H18925   1.702   4.086   7.289 -1.5926  0.3785 -1.5810
  901MOL0     H18926   1.777   3.888   7.072 -0.0700 -0.5454  1.8643
  901MOL0     H18927   1.888   3.938   7.192 -1.0236  0.1544  2.6797
  901MOL0     H18928   1.890   4.178   7.088 -4.3105  0.8161  0.3149
  901MOL0     H18929   1.964   4.038   7.000  0.3617  1.6134  0.7569
  901MOL0     H18930   1.715   4.198   6.714  0.5928  1.1062  0.7886
  901MOL0     H18931   1.400   3.933   7.072  1.7758  0.9055  0.2072
  901MOL0     H18932   1.186   4.032   6.991  1.4268 -2.1167 -0.5359
  902MOL0     O18933   5.665   6.827   7.329 -0.1599 -0.6383 -0.1319
  902MOL0     C18934   5.705   6.943   7.356  0.6564  0.0909 -0.0057
  902MOL0     O18935   5.623   7.041   7.411 -0.4632  0.8126  0.4352
  902MOL0     C18936   5.505   7.020   7.478  0.1202  0.3787  0.0359
  902MOL0     C18937   5.482   6.899   7.551  0.4325 -0.1583  0.2330
  902MOL0     C18938   5.377   6.889   7.637 -0.4222  0.4325  0.5285
  902MOL0     C18939   5.288   6.984   7.653 -0.0943 -0.0539  0.0541
  902MOL0     O18940   5.178   6.956   7.727 -0.0463 -0.0077 -0.1064
  902MOL0     C18941   5.091   7.067   7.744  0.4516  0.6448 -0.7252
  902MOL0     C18942   4.999   7.097   7.629 -0.7328 -0.5349  0.9379
  902MOL0     C18943   4.867   7.158   7.673  0.5418 -0.8385  1.2898
  902MOL0     C18944   4.798   7.231   7.547  0.1289  0.0748 -1.0038
  902MOL0     C18945   4.651   7.273   7.561  0.1934 -0.2770 -0.1947
  902MOL0     C18946   4.630   7.396   7.660  0.5697  0.5249 -1.0832
  902MOL0     C18947   4.489   7.456   7.686  0.0406 -0.4191  0.1050
  902MOL0     C18948   4.400   7.350   7.746 -0.4854  0.8286  0.3139
  902MOL0     N18949   4.258   7.389   7.746 -0.6638  0.5284  0.2944
  902MOL0     C18950   4.193   7.466   7.835 -0.1014  0.4955  0.1108
  902MOL0     C18951   4.057   7.445   7.821 -0.1261 -0.2009  0.0852
  902MOL0     C18952   3.957   7.518   7.909 -0.0984 -0.0990 -0.9192
  902MOL0     C18953   3.880   7.423   7.999  0.3015  0.1743  0.1464
  902MOL0     C18954   3.760   7.354   7.941 -0.1796  1.1921 -0.0924
  902MOL0     C18955   3.679   7.269   8.032  0.7156 -0.7775 -0.1750
  902MOL0     O18956   3.632   7.156   7.955 -0.3813 -0.1334  0.0814
  902MOL0     C18957   3.505   7.156   7.899 -0.1866  0.2729  0.1689
  902MOL0     C18958   3.435   7.267   7.886 -0.2662 -0.7456 -0.9471
  902MOL0     C18959   3.301   7.245   7.843  0.0211 -0.6451  0.1503
  902MOL0     C18960   3.239   7.118   7.816  0.1316 -0.3333 -0.7810
  902MOL0     C18961   3.103   7.107   7.773 -0.2572 -0.0414  0.0842
  902MOL0     O18962   3.012   7.217   7.762  0.5052 -1.1057  0.4650
  902MOL0     C18963   2.880   7.192   7.755  0.5634 -0.2318 -0.1535
  902MOL0     C18964   2.812   7.216   7.636 -0.0204 -0.0420 -0.9785
  902MOL0     C18965   2.672   7.178   7.628  0.2477 -0.7797  0.0413
  902MOL0     C18966   2.603   7.136   7.738  0.3295  1.0000  0.2194
  902MOL0     O18967   2.473   7.097   7.719 -0.0277  0.3515  0.5507
  902MOL0     C18968   2.418   7.004   7.813  0.7136  0.6135 -0.3057
  902MOL0     C18969   2.280   6.958   7.757  0.0365 -0.0013  0.1194
  902MOL0     C18970   2.275   6.805   7.775 -0.2058  0.6478 -0.5791
  902MOL0     C18971   2.269   6.758   7.920 -0.1613  0.4862 -0.5744
  902MOL0     C18972   2.248   6.604   7.927  0.1026 -0.2574  0.4203
  902MOL0     C18973   2.287   6.536   8.061 -0.1508  0.4072  0.6320
  902MOL0     C18974   2.239   6.384   8.073 -0.3161 -0.6704  0.7125
  902MOL0     C18975   2.098   6.364   8.142 -0.2793  0.1520  0.3602
  902MOL0    Cl18976   2.089   6.429   8.308  0.3786 -0.7012  0.5579
  902MOL0     C18977   2.676   7.124   7.865 -0.3961  0.1039  0.5737
  902MOL0     C18978   2.809   7.164   7.871 -0.5190  0.3194 -0.1399
  902MOL0     O18979   3.070   6.993   7.743  0.1604 -0.2360 -0.4720
  902MOL0     C18980   3.330   7.009   7.822  0.3560  0.5738 -1.0797
  902MOL0     C18981   3.464   7.036   7.862  0.0965  0.2227  0.9205
  902MOL0     N18982   4.044   7.357   7.708 -0.5152 -0.5941  0.0170
  902MOL0     N18983   4.169   7.331   7.666 -0.9708 -0.2461  0.8865
  902MOL0     C18984   5.318   7.114   7.598  0.6137  0.7241  0.0577
  902MOL0     C18985   5.423   7.125   7.510  0.3024  0.0129  0.0077
  902MOL0     C18986   5.839   6.980   7.309  0.1631  0.3655 -0.0503
  902MOL0     C18987   5.917   6.893   7.227 -0.5373  0.9231 -0.3406
  902MOL0     C18988   6.054   6.918   7.200 -0.5471  0.7388  1.0070
  902MOL0     C18989   6.121   7.018   7.270  0.6858  0.1098  0.6970
  902MOL0     O18990   6.253   7.054   7.256  0.3682 -0.2128  0.2077
  902MOL0     C18991   6.337   6.986   7.171  0.4763  0.2334  0.2443
  902MOL0     C18992   6.474   7.037   7.180  0.4977  0.1146  0.3522
  902MOL0     C18993   6.557   6.940   7.113 -0.5820  0.6223 -0.3170
  902MOL0     C18994   6.705   6.973   7.134 -0.0044  0.0139  0.4783
  902MOL0     C18995   6.797   6.858   7.096  0.1002  0.4603 -0.6312
  902MOL0     C18996   6.862   6.759   7.073 -0.2415  0.1475  0.0538
  902MOL0     C18997   6.037   7.116   7.335  0.5193  0.3381 -0.2963
  902MOL0     C18998   5.895   7.097   7.355 -0.3154  0.3447 -0.2942
  902MOL0     H18999   5.545   6.810   7.556  0.6451 -0.2201 -2.2237
  902MOL0     H19000   5.353   6.796   7.687 -1.5246 -0.4334 -1.4773
  902MOL0     H19001   5.135   7.158   7.786 -0.4734  1.3301 -1.2049
  902MOL0     H19002   5.021   7.041   7.825  2.0941  0.0787  0.5804
  902MOL0     H19003   4.980   7.007   7.570  0.7588 -0.3173  0.0699
  902MOL0     H19004   5.045   7.169   7.560 -3.7077  1.3904  0.7753
  902MOL0     H19005   4.880   7.231   7.754  1.8828 -1.2821  1.4930
  902MOL0     H19006   4.799   7.079   7.705 -1.5107  0.9254  1.5488
  902MOL0     H19007   4.858   7.320   7.522 -0.4761  0.3034 -1.6795
  902MOL0     H19008   4.797   7.156   7.468  1.2607 -1.0044 -0.0425
  902MOL0     H19009   4.585   7.196   7.602 -1.4383  1.0435 -0.2106
  902MOL0     H19010   4.606   7.300   7.465  0.9687  0.4414 -0.3648
  902MOL0     H19011   4.697   7.480   7.642  2.2685 -0.7418 -0.9354
  902MOL0     H19012   4.654   7.350   7.756 -0.0166  2.5204  0.0712
  902MOL0     H19013   4.501   7.537   7.758 -0.4853 -1.5306  1.4721
  902MOL0     H19014   4.436   7.495   7.599 -0.0268  0.7147  0.6438
  902MOL0     H19015   4.423   7.329   7.851  1.7888 -1.4757 -0.5603
  902MOL0     H19016   4.413   7.263   7.681 -0.0202  1.2714 -0.1852
  902MOL0     H19017   4.239   7.534   7.906  1.1380 -1.0591  0.8554
  902MOL0     H19018   3.890   7.578   7.847  0.4946  0.0675 -1.4133
  902MOL0     H19019   4.005   7.589   7.977 -2.9962  0.0385  1.1661
  902MOL0     H19020   3.846   7.485   8.083 -0.9973 -0.0787 -0.1648
  902MOL0     H19021   3.951   7.351   8.040 -1.5625 -2.5051 -1.0298
  902MOL0     H19022   3.698   7.433   7.896  1.3814  2.0506 -0.8087
  902MOL0     H19023   3.799   7.291   7.861  0.7976 -1.6391  2.4601
  902MOL0     H19024   3.613   7.325   8.100  3.3020  0.2242  1.6857
  902MOL0     H19025   3.742   7.232   8.114  0.0549  0.3610  0.8888
  902MOL0     H19026   3.467   7.368   7.910  0.2982 -0.6265 -2.1196
  902MOL0     H19027   3.240   7.334   7.854  0.9954  0.5861 -3.3278
  902MOL0     H19028   2.876   7.254   7.557 -1.1855  0.3944 -1.7358
  902MOL0     H19029   2.616   7.198   7.538 -0.5126 -0.2713  0.6154
  902MOL0     H19030   2.396   7.041   7.914 -1.7202  1.9050 -1.2339
  902MOL0     H19031   2.492   6.929   7.840  0.5824  1.1520  1.7362
  902MOL0     H19032   2.271   6.986   7.651 -0.2657  1.4178  0.4893
  902MOL0     H19033   2.196   7.007   7.807  1.4198 -0.5411  3.2016
  902MOL0     H19034   2.354   6.759   7.715  1.0755  1.1117  0.6925
  902MOL0     H19035   2.189   6.767   7.718 -0.1823 -0.7451  0.2643
  902MOL0     H19036   2.363   6.770   7.974 -1.0887 -1.3752  1.6405
  902MOL0     H19037   2.194   6.804   7.985 -0.2069 -0.4306  0.0389
  902MOL0     H19038   2.324   6.568   7.857 -2.1689 -0.1996 -2.2959
  902MOL0     H19039   2.150   6.574   7.888 -0.4059 -0.2995  1.7055
  902MOL0     H19040   2.242   6.583   8.150  1.8285  0.4220  1.6939
  902MOL0     H19041   2.394   6.539   8.086 -0.7558  0.6552  3.6775
  902MOL0     H19042   2.244   6.333   7.976  0.7116  0.5718  0.0812
  902MOL0     H19043   2.317   6.326   8.123  0.4295 -1.5595 -1.3925
  902MOL0     H19044   2.077   6.257   8.137  1.8217 -0.2923  0.1612
  902MOL0     H19045   2.025   6.408   8.073 -0.3689 -3.4333 -2.1442
  902MOL0     H19046   2.626   7.081   7.951  0.1554 -1.9223 -0.0796
  902MOL0     H19047   2.863   7.139   7.962  1.6177 -1.8577 -1.8597
  902MOL0     H19048   3.301   6.904   7.820 -0.8328  0.8495  0.1061
  902MOL0     H19049   3.536   6.955   7.868  0.8285  0.4971 -2.3302
  902MOL0     H19050   5.251   7.198   7.611  0.1216 -0.0159  3.0458
  902MOL0     H19051   5.432   7.223   7.465 -0.6862  0.0632 -0.0916
  902MOL0     H19052   5.872   6.800   7.194  1.9572  0.4064 -2.6606
  902MOL0     H19053   6.105   6.866   7.120 -0.8227  2.0472 -0.0497
  902MOL0     H19054   6.298   6.990   7.069  0.2863 -1.8318  0.1873
  902MOL0     H19055   6.334   6.883   7.207  0.4654  0.0974 -0.1389
  902MOL0     H19056   6.479   7.140   7.144 -4.8713  1.3585  2.2662
  902MOL0     H19057   6.505   7.047   7.284 -2.4021  1.1703  1.1945
  902MOL0     H19058   6.530   6.935   7.007  0.3775  0.3465 -0.5558
  902MOL0     H19059   6.549   6.838   7.153  0.7759  0.0930 -1.3064
  902MOL0     H19060   6.719   7.057   7.064 -0.1645 -0.0867  0.3257
  902MOL0     H19061   6.736   7.003   7.234  0.4801  0.2014  0.2759
  902MOL0     H19062   6.936   6.683   7.058  0.6929  0.6402  1.9385
  902MOL0     H19063   6.077   7.203   7.384 -1.1507  0.2460  1.3250
  902MOL0     H19064   5.841   7.158   7.427 -0.6787 -1.4398  1.0111
  903MOL0     O19065   5.322   0.104   0.043 -0.5819 -1.0524  0.6298
  903MOL0     C19066   5.398   0.016   0.081  1.0053 -0.1758 -0.8462
  903MOL0     O19067   5.360  -0.112   0.100  0.3188 -0.0872 -0.8872
  903MOL0     C19068   5.227  -0.151   0.088 -0.6623 -0.5297  0.1117
  903MOL0     C19069   5.174  -0.246   0.170 -0.1950 -0.5114 -0.5382
  903MOL0     C19070   5.060  -0.313   0.157  0.3635  0.3036  0.2131
  903MOL0     C19071   4.987  -0.294   0.036  0.1813 -0.8518 -0.1089
  903MOL0     O19072   4.875  -0.370   0.007 -0.4203  0.7376 -0.5358
  903MOL0     C19073   4.782  -0.362   0.117  0.0663 -0.7589 -0.1942
  903MOL0     C19074   4.660  -0.422   0.056  0.3034 -0.1856  0.1098
  903MOL0     C19075   4.536  -0.393   0.139 -0.6942 -0.6100 -0.7493
  903MOL0     C19076   4.399  -0.464   0.096 -0.2918  0.3141  0.0194
  903MOL0     C19077   4.284  -0.372   0.121 -0.0862  0.1320 -0.0608
  903MOL0     C19078   4.156  -0.458   0.132  0.0412 -0.7380 -0.1390
  903MOL0     C19079   4.032  -0.370   0.173 -0.2379  0.4060  0.1482
  903MOL0     C19080   3.973  -0.282   0.067  0.0774 -0.1636 -0.0840
  903MOL0     N19081   3.958  -0.358  -0.060 -0.4599 -0.3515 -0.0406
  903MOL0     C19082   3.854  -0.452  -0.081 -1.3255  0.1829 -0.8200
  903MOL0     C19083   3.866  -0.475  -0.211  0.7417  0.4523  0.1581
  903MOL0     C19084   3.779  -0.566  -0.288 -0.2439  0.8247 -0.3345
  903MOL0     C19085   3.818  -0.712  -0.292 -0.2353 -0.1601  0.8520
  903MOL0     C19086   3.927  -0.743  -0.393  0.3866 -0.0319 -0.6813
  903MOL0     C19087   3.888  -0.727  -0.537 -1.3749 -0.5732  0.3404
  903MOL0     O19088   3.757  -0.768  -0.558 -0.3601 -0.3302 -0.6325
  903MOL0     C19089   3.683  -0.724  -0.658  0.1705  0.0100 -0.4353
  903MOL0     C19090   3.725  -0.634  -0.762  0.0288  0.1217 -0.4930
  903MOL0     C19091   3.651  -0.611  -0.871  0.1795  0.1202  0.0302
  903MOL0     C19092   3.530  -0.681  -0.888  0.2025 -0.0077  0.3644
  903MOL0     C19093   3.455  -0.655  -1.012  0.2450 -1.2040  0.3696
  903MOL0     O19094   3.506  -0.558  -1.093 -0.6213  0.4485 -0.0858
  903MOL0     C19095   3.419  -0.498  -1.184 -0.7983 -0.1991 -0.0256
  903MOL0     C19096   3.469  -0.476  -1.314 -0.7694 -1.6507 -0.0519
  903MOL0     C19097   3.393  -0.405  -1.414 -0.9609  0.2302  1.1281
  903MOL0     C19098   3.267  -0.356  -1.379 -0.1233  0.7574  0.0297
  903MOL0     O19099   3.178  -0.294  -1.463  0.2775  0.5820 -0.8332
  903MOL0     C19100   3.230  -0.238  -1.576 -0.0254 -1.2312 -0.2116
  903MOL0     C19101   3.138  -0.120  -1.627 -0.7692  0.3218 -0.0486
  903MOL0     C19102   3.002  -0.184  -1.655  0.1725 -1.2081  0.1958
  903MOL0     C19103   2.997  -0.272  -1.780 -0.4927 -0.4191 -0.7201
  903MOL0     C19104   3.026  -0.205  -1.913  0.3689 -0.0675  0.1002
  903MOL0     C19105   2.932  -0.086  -1.934 -0.9183 -0.1223  0.3606
  903MOL0     C19106   2.790  -0.136  -1.974 -0.0399  0.0846 -0.1503
  903MOL0     C19107   2.700  -0.013  -2.003  0.4722  0.0411 -0.5069
  903MOL0    Cl19108   2.531  -0.062  -1.998  0.1250 -0.4842  0.2706
  903MOL0     C19109   3.216  -0.386  -1.254 -0.2845  0.1551  0.4659
  903MOL0     C19110   3.281  -0.467  -1.157 -0.0779 -0.3136  0.4803
  903MOL0     O19111   3.358  -0.725  -1.038 -0.7183  0.1065  0.5175
  903MOL0     C19112   3.475  -0.761  -0.784  0.0865  0.6224  0.0814
  903MOL0     C19113   3.554  -0.784  -0.672 -0.3392  0.3390 -0.6951
  903MOL0     N19114   3.965  -0.400  -0.270 -0.8558  0.3122 -0.0979
  903MOL0     N19115   4.020  -0.328  -0.177  0.2804 -0.4982  0.3467
  903MOL0     C19116   5.029  -0.190  -0.046  0.2114 -0.0870  0.0084
  903MOL0     C19117   5.148  -0.127  -0.032  0.0512 -0.3985 -0.5493
  903MOL0     C19118   5.544   0.051   0.099  0.0048 -0.2825  0.7296
  903MOL0     C19119   5.628  -0.028   0.170  0.1879  0.0325 -0.4174
  903MOL0     C19120   5.760   0.009   0.196  0.7398  0.4535 -0.0722
  903MOL0     C19121   5.814   0.130   0.146 -0.4457 -0.1016  0.1058
  903MOL0     O19122   5.946   0.178   0.153  0.7247 -0.5575  0.4968
  903MOL0     C19123   6.053   0.105   0.216  0.1881 -1.8886  0.5501
  903MOL0     C19124   6.178   0.196   0.207 -0.3803 -0.3491 -0.1387
  903MOL0     C19125   6.303   0.129   0.282  0.5187 -0.4004 -0.2235
  903MOL0     C19126   6.428   0.216   0.252 -0.6148 -0.1112  0.3124
  903MOL0     C19127   6.554   0.145   0.287  0.3736 -0.1491  1.0507
  903MOL0     C19128   6.639   0.072   0.334 -0.0430  0.5638  0.7856
  903MOL0     C19129   5.727   0.214   0.079  0.1766  0.1555  0.1739
  903MOL0     C19130   5.590   0.176   0.052 -0.6776  0.0988 -0.0050
  903MOL0     H19131   5.236  -0.274   0.255  0.7559 -0.0001 -1.0492
  903MOL0     H19132   5.040  -0.392   0.229  3.5703 -0.7415  0.1324
  903MOL0     H19133   4.762  -0.255   0.130 -0.2079 -0.7957 -0.3083
  903MOL0     H19134   4.812  -0.410   0.210 -2.7114 -2.0279  0.1500
  903MOL0     H19135   4.675  -0.530   0.051  0.0673 -0.2469  0.6575
  903MOL0     H19136   4.635  -0.385  -0.044  1.5402 -1.0967 -0.5590
  903MOL0     H19137   4.517  -0.286   0.127  0.8909 -0.1786  0.1598
  903MOL0     H19138   4.553  -0.403   0.247  0.7754  4.0921 -0.3232
  903MOL0     H19139   4.403  -0.483  -0.012  1.7198  0.2066  0.0873
  903MOL0     H19140   4.393  -0.563   0.143  1.4802  0.4816  0.6725
  903MOL0     H19141   4.271  -0.289   0.050 -0.9937 -0.0346 -0.0971
  903MOL0     H19142   4.311  -0.318   0.212 -0.8180  1.6514 -0.7020
  903MOL0     H19143   4.179  -0.534   0.208  0.0198 -1.2577 -0.6429
  903MOL0     H19144   4.142  -0.501   0.032  1.3188  1.2278 -1.2311
  903MOL0     H19145   3.956  -0.435   0.217  0.5174 -0.2473  0.5214
  903MOL0     H19146   4.058  -0.307   0.259 -1.4451  0.9539  0.1251
  903MOL0     H19147   4.041  -0.197   0.055 -3.2556  2.8477  0.6752
  903MOL0     H19148   3.877  -0.244   0.100  1.6012  0.9593  3.5324
  903MOL0     H19149   3.773  -0.472  -0.012 -0.4187  1.7037  0.7767
  903MOL0     H19150   3.795  -0.531  -0.390 -1.7207 -1.4118 -1.4282
  903MOL0     H19151   3.675  -0.545  -0.260 -0.6595  0.8205 -1.8039
  903MOL0     H19152   3.724  -0.756  -0.327 -1.4777  2.1256  1.0728
  903MOL0     H19153   3.839  -0.738  -0.188 -0.0968  0.2261  0.9234
  903MOL0     H19154   4.023  -0.706  -0.355  0.3438 -2.0307  1.5626
  903MOL0     H19155   3.945  -0.851  -0.393 -0.5890 -0.2508 -2.8375
  903MOL0     H19156   3.962  -0.761  -0.610 -2.3936 -0.5669 -0.7457
  903MOL0     H19157   3.903  -0.619  -0.544 -0.0600 -0.4877  3.1593
  903MOL0     H19158   3.831  -0.611  -0.756  0.0435 -0.0542 -0.0154
  903MOL0     H19159   3.694  -0.556  -0.955 -3.8675  2.3540 -0.8913
  903MOL0     H19160   3.571  -0.503  -1.336 -0.1387 -1.3639  2.2416
  903MOL0     H19161   3.443  -0.385  -1.508 -0.1890  1.6026  1.7989
  903MOL0     H19162   3.238  -0.322  -1.647 -2.9887  0.1107 -2.3194
  903MOL0     H19163   3.329  -0.197  -1.555 -0.3357 -0.3278 -0.4939
  903MOL0     H19164   3.173  -0.060  -1.711 -1.4275  0.9542  0.1168
  903MOL0     H19165   3.127  -0.046  -1.547 -0.4122  0.6680 -0.3175
  903MOL0     H19166   2.932  -0.103  -1.674  1.9074 -0.1696 -2.2292
  903MOL0     H19167   2.973  -0.235  -1.562  0.2089  2.3239  2.3280
  903MOL0     H19168   3.071  -0.352  -1.769  0.4238  0.6460  1.2912
  903MOL0     H19169   2.900  -0.322  -1.781 -0.7318 -0.1062  1.6400
  903MOL0     H19170   3.020  -0.284  -1.989  1.0378  0.5661 -0.6218
  903MOL0     H19171   3.130  -0.173  -1.916  1.0217 -1.9061  1.1119
  903MOL0     H19172   2.972  -0.035  -2.021  2.7469 -0.6061  1.6113
  903MOL0     H19173   2.945  -0.013  -1.853 -2.0322 -0.9364  1.3237
  903MOL0     H19174   2.806  -0.201  -2.061  3.8715 -0.5029  0.8147
  903MOL0     H19175   2.756  -0.210  -1.902  2.6301 -2.3743 -1.2292
  903MOL0     H19176   2.725   0.023  -2.103 -1.3057  1.7408 -0.4012
  903MOL0     H19177   2.727   0.062  -1.927  0.6764 -0.6035  0.0720
  903MOL0     H19178   3.117  -0.346  -1.239  0.0779  2.1383 -1.8732
  903MOL0     H19179   3.240  -0.474  -1.057 -0.4441 -0.4665  0.3220
  903MOL0     H19180   3.374  -0.801  -0.793  0.5954 -0.8451  0.5317
  903MOL0     H19181   3.521  -0.863  -0.605  0.3153 -0.6377 -1.4971
  903MOL0     H19182   4.960  -0.154  -0.121  1.3358  2.4697  0.1199
  903MOL0     H19183   5.180  -0.045  -0.096  0.8765  1.2415  1.8339
  903MOL0     H19184   5.585  -0.123   0.202 -0.6022  1.0246  1.6619
  903MOL0     H19185   5.828  -0.063   0.240  0.1475 -0.5636 -0.7509
  903MOL0     H19186   6.064   0.020   0.147  0.8134  0.1537 -2.0485
  903MOL0     H19187   6.041   0.063   0.316  0.5304 -1.6734  0.6859
  903MOL0     H19188   6.202   0.226   0.105 -0.2653 -2.2396 -0.7134
  903MOL0     H19189   6.156   0.288   0.262  0.9288  0.0824 -0.3049
  903MOL0     H19190   6.313   0.027   0.245  0.0546 -0.2848 -0.6783
  903MOL0     H19191   6.285   0.140   0.389 -1.2927  2.3422 -0.7104
  903MOL0     H19192   6.432   0.238   0.145 -0.4052 -2.1323 -0.1320
  903MOL0     H19193   6.431   0.313   0.302  0.7626  0.1563 -0.2358
  903MOL0     H19194   6.723   0.013   0.365 -0.3308  0.7489  1.9848
  903MOL0     H19195   5.758   0.312   0.044 -2.4915  1.3878  1.0309
  903MOL0     H19196   5.528   0.242  -0.009 -1.6067  1.4250  2.2248
  904MOL0     O19197   8.930   8.245   5.054  0.4418  0.1055 -0.1422
  904MOL0     C19198   8.934   8.192   5.165 -0.3789  0.1993  0.6106
  904MOL0     O19199   8.828   8.135   5.232  0.2911  0.3820  0.5467
  904MOL0     C19200   8.698   8.157   5.179  0.4357  0.0603 -0.2739
  904MOL0     C19201   8.655   8.257   5.088  0.1073 -0.4798  0.1173
  904MOL0     C19202   8.519   8.248   5.043 -0.4730  1.4060  0.3522
  904MOL0     C19203   8.431   8.155   5.091 -0.5444 -0.1146  0.9836
  904MOL0     O19204   8.301   8.157   5.045 -0.4381 -0.1412 -0.6443
  904MOL0     C19205   8.204   8.072   5.110 -0.0290 -0.1064  0.2351
  904MOL0     C19206   8.067   8.071   5.040 -0.5806  0.2976  0.6437
  904MOL0     C19207   8.067   8.032   4.896  0.8776 -0.2651 -0.0058
  904MOL0     C19208   8.148   7.913   4.848 -0.4421  0.8225 -1.3678
  904MOL0     C19209   8.126   7.865   4.704  0.7839  0.7600 -0.5781
  904MOL0     C19210   8.143   7.717   4.667 -0.6144 -0.1449 -0.2519
  904MOL0     C19211   8.284   7.661   4.677  0.6506 -0.9725 -0.2999
  904MOL0     C19212   8.284   7.520   4.623  0.0432  0.3231 -0.3353
  904MOL0     N19213   8.417   7.469   4.609  0.4677  0.0723  0.5295
  904MOL0     C19214   8.496   7.504   4.502  0.0998 -0.8690 -0.0546
  904MOL0     C19215   8.615   7.444   4.521  0.8706  0.7205 -0.0966
  904MOL0     C19216   8.738   7.464   4.439 -1.0066  0.5201 -0.1201
  904MOL0     C19217   8.855   7.376   4.493 -1.0150 -0.4316 -0.1775
  904MOL0     C19218   8.847   7.235   4.450 -0.2991  0.1562 -0.8350
  904MOL0     C19219   8.852   7.212   4.305  0.2097  0.0533  0.0064
  904MOL0     O19220   8.944   7.291   4.242 -0.0846 -0.4834 -0.3741
  904MOL0     C19221   9.073   7.243   4.218  0.0187  0.1156  0.8409
  904MOL0     C19222   9.171   7.337   4.199  0.4139 -1.0541  0.2380
  904MOL0     C19223   9.306   7.305   4.179 -0.8979  0.3528  0.0548
  904MOL0     C19224   9.350   7.169   4.194  0.5088 -0.0546 -0.3517
  904MOL0     C19225   9.492   7.131   4.184  1.0141  0.2656 -0.3606
  904MOL0     O19226   9.517   6.998   4.164 -0.5383 -0.6188 -0.1349
  904MOL0     C19227   9.635   6.954   4.112 -0.4739  0.0311 -0.1229
  904MOL0     C19228   9.687   7.006   3.992  0.4044 -0.0407 -0.3474
  904MOL0     C19229   9.817   6.981   3.948 -0.2370  0.5021  0.5077
  904MOL0     C19230   9.904   6.890   4.020 -0.4779 -0.0265  0.1409
  904MOL0     O19231  10.032   6.849   3.983 -0.5387 -0.3507  0.6543
  904MOL0     C19232  10.107   6.943   3.902 -0.3591  0.3631 -0.0295
  904MOL0     C19233  10.246   6.963   3.945  0.0824 -0.7627 -0.2685
  904MOL0     C19234  10.354   6.924   3.836 -0.6186  0.1518 -0.6006
  904MOL0     C19235  10.503   6.947   3.892 -0.0735  0.2126 -0.2390
  904MOL0     C19236  10.607   6.954   3.772 -0.2352  0.0197 -0.1359
  904MOL0     C19237  10.747   6.943   3.829 -0.6892 -0.0325  0.0137
  904MOL0     C19238  10.850   7.000   3.728  0.4312  0.1657 -0.0623
  904MOL0     C19239  10.993   6.990   3.775  0.8863 -0.5734 -0.6668
  904MOL0    Cl19240  11.032   6.832   3.840 -0.6397 -0.4797 -0.0991
  904MOL0     C19241   9.850   6.835   4.139  1.0165 -0.4239 -0.9776
  904MOL0     C19242   9.725   6.875   4.195  0.1850 -0.0352 -0.3070
  904MOL0     O19243   9.576   7.217   4.196  0.8528  0.4013 -0.2327
  904MOL0     C19244   9.244   7.071   4.205  0.0915 -0.0624 -0.5124
  904MOL0     C19245   9.107   7.109   4.224  0.3130  0.2166 -0.2199
  904MOL0     N19246   8.599   7.353   4.624  0.0301 -0.2125 -0.1568
  904MOL0     N19247   8.486   7.375   4.678  0.4498 -0.2945 -0.1095
  904MOL0     C19248   8.482   8.060   5.189  0.1358  0.1795 -0.4734
  904MOL0     C19249   8.609   8.064   5.226  0.2121 -0.4171 -0.9338
  904MOL0     C19250   9.064   8.177   5.232  0.4401 -0.6910 -0.2475
  904MOL0     C19251   9.185   8.241   5.189  0.7390 -0.0858 -1.4899
  904MOL0     C19252   9.304   8.226   5.263  0.0059  0.3089  0.6514
  904MOL0     C19253   9.314   8.148   5.379  0.4292 -0.0584 -0.9532
  904MOL0     O19254   9.418   8.118   5.461 -0.5431 -0.9466 -0.2644
  904MOL0     C19255   9.549   8.152   5.422 -0.0371  0.1962  0.5911
  904MOL0     C19256   9.657   8.081   5.503 -0.2008  0.5606 -0.1515
  904MOL0     C19257   9.790   8.154   5.485 -0.0937  0.7061  0.3594
  904MOL0     C19258   9.907   8.070   5.535  0.5665  0.2204 -0.0162
  904MOL0     C19259  10.037   8.149   5.534  0.7431  0.6771 -0.6773
  904MOL0     C19260  10.153   8.196   5.557 -0.0902  0.0586  0.9986
  904MOL0     C19261   9.193   8.088   5.414  0.8827 -0.0590  0.2500
  904MOL0     C19262   9.074   8.095   5.343  0.6693 -0.1193 -0.6811
  904MOL0     H19263   8.714   8.335   5.043 -0.5334  0.7577  1.3423
  904MOL0     H19264   8.500   8.325   4.969  1.3464  1.6742  0.1096
  904MOL0     H19265   8.184   8.093   5.215  0.3336 -0.7852  0.4493
  904MOL0     H19266   8.235   7.967   5.100  0.1463  0.0852 -1.5663
  904MOL0     H19267   8.009   8.163   5.053 -0.6319  0.0968  1.9840
  904MOL0     H19268   8.011   7.997   5.097 -1.0593  0.1611  0.0111
  904MOL0     H19269   8.107   8.116   4.839  2.4380 -1.9294 -1.4871
  904MOL0     H19270   7.962   8.016   4.868  1.4976 -2.1320 -1.4463
  904MOL0     H19271   8.251   7.942   4.866 -0.1771 -0.5408 -0.5897
  904MOL0     H19272   8.140   7.828   4.916  2.5933  1.2353 -0.3770
  904MOL0     H19273   8.190   7.928   4.641  1.1475 -1.3518 -2.4498
  904MOL0     H19274   8.020   7.882   4.686 -0.0216 -1.5056  1.4796
  904MOL0     H19275   8.109   7.696   4.565  0.2370 -0.1358 -0.5392
  904MOL0     H19276   8.071   7.656   4.723 -1.1422  2.1990  1.7881
  904MOL0     H19277   8.345   7.721   4.609 -0.1701 -0.7818 -0.8724
  904MOL0     H19278   8.326   7.664   4.779  1.7694 -3.3958 -0.6044
  904MOL0     H19279   8.232   7.516   4.527 -1.5625 -2.3710  0.5311
  904MOL0     H19280   8.219   7.457   4.684 -0.9534  1.2300 -0.4283
  904MOL0     H19281   8.471   7.577   4.426 -3.2042  1.0709  2.5953
  904MOL0     H19282   8.775   7.567   4.438 -0.3918  0.3054 -1.4687
  904MOL0     H19283   8.724   7.447   4.332 -1.6078 -0.3556  0.0878
  904MOL0     H19284   8.853   7.383   4.603  1.8609  1.7550 -0.1196
  904MOL0     H19285   8.949   7.421   4.459 -0.7079 -0.6214  0.4061
  904MOL0     H19286   8.941   7.189   4.482 -1.1872 -0.2927  1.3146
  904MOL0     H19287   8.769   7.180   4.503  0.2565 -0.7253 -0.9121
  904MOL0     H19288   8.754   7.241   4.265 -0.0019  0.6945  0.9584
  904MOL0     H19289   8.870   7.105   4.287  0.5140  0.3671 -1.8466
  904MOL0     H19290   9.140   7.441   4.199 -3.2773 -2.0005 -0.5628
  904MOL0     H19291   9.376   7.385   4.158 -0.2037 -0.7088 -1.9552
  904MOL0     H19292   9.619   7.066   3.933  0.4746  0.9476  0.5577
  904MOL0     H19293   9.848   7.041   3.862  0.5703  2.3935  2.0511
  904MOL0     H19294  10.063   7.043   3.890  0.9628  0.8264 -1.2434
  904MOL0     H19295  10.101   6.917   3.796 -3.1006  2.4239 -0.4925
  904MOL0     H19296  10.267   6.894   4.027  1.4819 -1.1978 -0.9627
  904MOL0     H19297  10.262   7.065   3.981 -1.9128 -0.5006  0.0081
  904MOL0     H19298  10.338   6.984   3.746  1.0127  1.8297  0.1617
  904MOL0     H19299  10.352   6.816   3.817  3.2316 -0.4815  1.4401
  904MOL0     H19300  10.511   7.046   3.938  0.5499  1.4325 -2.8038
  904MOL0     H19301  10.531   6.875   3.970 -1.8269  0.7907  0.9784
  904MOL0     H19302  10.598   7.044   3.711 -0.7588 -1.1687 -1.8797
  904MOL0     H19303  10.601   6.870   3.702  1.3068 -0.9427  0.8220
  904MOL0     H19304  10.772   6.844   3.866 -1.0091  0.1097  0.6412
  904MOL0     H19305  10.751   7.011   3.916 -1.1168 -0.6309  0.5123
  904MOL0     H19306  10.841   6.955   3.629  2.8637 -2.1217  0.6468
  904MOL0     H19307  10.823   7.106   3.723  1.6504  0.4350 -1.7299
  904MOL0     H19308  11.010   7.053   3.863  0.6114 -1.5296  0.0825
  904MOL0     H19309  11.061   7.027   3.697  0.3996  0.9547 -0.3988
  904MOL0     H19310   9.893   6.765   4.210 -0.4497 -0.4664 -0.0754
  904MOL0     H19311   9.698   6.831   4.291  1.0235  3.6958  1.8636
  904MOL0     H19312   9.271   6.968   4.223  1.6674  0.6046  1.4658
  904MOL0     H19313   9.037   7.026   4.229  2.1987 -1.3892  0.8854
  904MOL0     H19314   8.431   7.980   5.241  0.8640 -0.0809 -0.1440
  904MOL0     H19315   8.646   8.003   5.308 -0.8028 -0.5525 -0.5592
  904MOL0     H19316   9.186   8.301   5.099  0.4906  1.2119 -0.6578
  904MOL0     H19317   9.394   8.275   5.228  0.2931 -0.7249 -0.1176
  904MOL0     H19318   9.566   8.260   5.420  1.2256  0.0421  1.7978
  904MOL0     H19319   9.561   8.111   5.321  2.5158  0.0422  0.8995
  904MOL0     H19320   9.633   8.075   5.609  2.5120 -3.5143  0.4423
  904MOL0     H19321   9.669   7.978   5.468  3.2585  1.3961 -1.8008
  904MOL0     H19322   9.791   8.255   5.526 -0.5247  0.1484  1.8300
  904MOL0     H19323   9.810   8.172   5.379  0.1459  0.2410  0.3257
  904MOL0     H19324   9.890   8.027   5.634  0.8036  1.8102  0.7458
  904MOL0     H19325   9.918   7.991   5.461  3.0377  0.4246  0.0475
  904MOL0     H19326  10.255   8.229   5.556  1.3820 -3.8812  0.3971
  904MOL0     H19327   9.193   8.024   5.502 -0.8932 -1.1514 -0.4868
  904MOL0     H19328   8.992   8.039   5.387 -0.9641  0.0370 -3.3348
  905MOL0     O19329  10.310   0.284   8.204 -0.4005  0.4434 -0.2687
  905MOL0     C19330  10.410   0.259   8.143 -1.0448  0.7672  0.3790
  905MOL0     O19331  10.422   0.173   8.033 -0.1723  0.1612 -0.9639
  905MOL0     C19332  10.308   0.126   7.976 -0.0308  0.1321  0.3386
  905MOL0     C19333  10.236   0.203   7.883  0.7613  0.0536  0.3626
  905MOL0     C19334  10.118   0.151   7.837 -0.5895  0.1225 -0.0607
  905MOL0     C19335  10.081   0.019   7.868 -0.0321 -1.1751  0.3793
  905MOL0     O19336   9.972  -0.032   7.804  0.2588  0.0991 -0.1983
  905MOL0     C19337   9.872  -0.088   7.897  0.0750  0.4638 -0.2139
  905MOL0     C19338   9.753  -0.141   7.807 -0.3450 -0.0333 -0.3980
  905MOL0     C19339   9.788  -0.274   7.733  0.3925 -0.9322  0.6966
  905MOL0     C19340   9.814  -0.397   7.820 -1.0673 -0.0871 -0.0480
  905MOL0     C19341   9.793  -0.530   7.751 -0.1781 -0.1355  0.6487
  905MOL0     C19342   9.869  -0.548   7.619  0.1330  0.7938 -0.3305
  905MOL0     C19343   9.815  -0.678   7.553 -0.9050 -0.5918 -0.1833
  905MOL0     C19344   9.824  -0.812   7.622  0.1454  0.2290  0.4429
  905MOL0     N19345   9.734  -0.917   7.570 -0.3318 -0.8159  0.2654
  905MOL0     C19346   9.732  -0.962   7.448  0.8658  0.1676  1.2321
  905MOL0     C19347   9.638  -1.057   7.453 -0.3011 -0.0615  0.0234
  905MOL0     C19348   9.597  -1.148   7.343  0.1271 -0.5199 -0.0309
  905MOL0     C19349   9.531  -1.065   7.234  0.6799 -0.3781 -0.2303
  905MOL0     C19350   9.376  -1.086   7.229  0.4049  0.3697  0.8511
  905MOL0     C19351   9.307  -1.044   7.364 -0.4048  0.9639  0.2036
  905MOL0     O19352   9.175  -1.012   7.327  0.3754 -0.3369 -0.7753
  905MOL0     C19353   9.082  -0.992   7.433 -0.1063  0.5937 -0.0852
  905MOL0     C19354   9.114  -0.964   7.574 -0.0116 -1.2446 -0.3379
  905MOL0     C19355   9.008  -0.945   7.659  0.2657 -0.1131  0.1701
  905MOL0     C19356   8.874  -0.949   7.614  0.6682  0.2820 -0.8205
  905MOL0     C19357   8.766  -0.929   7.712 -0.3689  0.2450 -0.3288
  905MOL0     O19358   8.651  -0.923   7.663 -0.2461  1.0272 -0.5705
  905MOL0     C19359   8.534  -0.892   7.732  0.0262  0.4511 -0.2217
  905MOL0     C19360   8.439  -0.828   7.659  0.6190 -0.4328 -0.6632
  905MOL0     C19361   8.312  -0.786   7.712  0.2037 -0.1185  0.6333
  905MOL0     C19362   8.284  -0.806   7.851  0.1777 -0.1699 -0.1735
  905MOL0     O19363   8.157  -0.794   7.910  0.2282 -0.2548 -0.8381
  905MOL0     C19364   8.154  -0.670   7.990 -0.7064  0.6709  0.0307
  905MOL0     C19365   8.019  -0.592   7.974  0.1963 -0.8599  0.4166
  905MOL0     C19366   7.893  -0.653   8.038 -0.0606  0.1737  0.4842
  905MOL0     C19367   7.758  -0.590   7.995  1.1979 -0.0024  0.4748
  905MOL0     C19368   7.654  -0.649   8.095 -0.8445  0.5203  0.1333
  905MOL0     C19369   7.512  -0.581   8.097  0.0397  0.1589  0.1986
  905MOL0     C19370   7.429  -0.608   7.977  0.1824  0.4692  0.3270
  905MOL0     C19371   7.287  -0.568   8.005 -0.8952 -0.5573 -0.4002
  905MOL0    Cl19372   7.199  -0.673   8.125  0.0315 -0.4443  0.5977
  905MOL0     C19373   8.379  -0.885   7.925  0.5856 -0.5365  0.5236
  905MOL0     C19374   8.500  -0.916   7.865  0.4465  0.0777  0.0507
  905MOL0     O19375   8.800  -0.906   7.829 -0.5825  0.2296 -0.1877
  905MOL0     C19376   8.841  -0.972   7.483 -0.5308 -0.8558 -0.2964
  905MOL0     C19377   8.947  -1.002   7.398  0.4653  1.2515  0.7494
  905MOL0     N19378   9.584  -1.056   7.580 -0.7514 -0.4236 -0.0983
  905MOL0     N19379   9.649  -0.973   7.653  0.5222  0.0983  0.2603
  905MOL0     C19380  10.156  -0.060   7.949  0.1313 -0.3889 -0.4247
  905MOL0     C19381  10.265  -0.006   8.015  0.9499 -1.2205 -0.2208
  905MOL0     C19382  10.533   0.333   8.192  0.9947 -0.5868 -0.2496
  905MOL0     C19383  10.517   0.431   8.293  0.3257 -0.1634 -0.1768
  905MOL0     C19384  10.618   0.509   8.342  0.3608 -0.4591  0.6659
  905MOL0     C19385  10.744   0.501   8.274  0.4268 -0.7217 -0.5948
  905MOL0     O19386  10.850   0.577   8.313  0.2004 -0.7534  0.3217
  905MOL0     C19387  10.869   0.593   8.458 -0.0297  0.7318 -0.3196
  905MOL0     C19388  10.978   0.703   8.467 -0.7330  0.1100 -0.0985
  905MOL0     C19389  11.114   0.648   8.424 -0.0299  0.4721 -0.3255
  905MOL0     C19390  11.228   0.734   8.473  0.3194  0.5780  0.1075
  905MOL0     C19391  11.214   0.871   8.426 -0.1496 -0.1014  0.3000
  905MOL0     C19392  11.205   0.986   8.382 -0.4200  0.2041 -0.7659
  905MOL0     C19393  10.762   0.416   8.167  0.6332  0.0285 -0.4633
  905MOL0     C19394  10.653   0.326   8.126 -0.2223 -0.4666 -0.6704
  905MOL0     H19395  10.256   0.309   7.871  2.6734  0.0150  2.5727
  905MOL0     H19396  10.049   0.213   7.781 -1.3875 -1.7448 -1.2233
  905MOL0     H19397   9.842  -0.002   7.956  0.5002 -0.6114  1.6294
  905MOL0     H19398   9.907  -0.172   7.958 -2.2093  0.0876  0.6837
  905MOL0     H19399   9.726  -0.063   7.735  0.5592  1.7939  1.1539
  905MOL0     H19400   9.668  -0.144   7.877  0.9344  0.6842  1.2521
  905MOL0     H19401   9.864  -0.250   7.658 -0.2421 -0.4242  0.2074
  905MOL0     H19402   9.698  -0.306   7.679 -1.6665  0.4151  3.1189
  905MOL0     H19403   9.918  -0.389   7.852  0.7205 -1.3640 -4.7821
  905MOL0     H19404   9.741  -0.395   7.901 -0.9630 -3.0676  0.2419
  905MOL0     H19405   9.686  -0.540   7.732 -0.2255  0.6869  0.4770
  905MOL0     H19406   9.821  -0.598   7.832 -0.7818 -0.3473  0.6834
  905MOL0     H19407   9.974  -0.558   7.646  0.6002 -2.1664 -2.7534
  905MOL0     H19408   9.858  -0.461   7.553  1.9452  0.1392 -1.5438
  905MOL0     H19409   9.708  -0.660   7.536 -0.5274  1.8353 -0.2965
  905MOL0     H19410   9.866  -0.685   7.457  2.4849  2.2192  1.1890
  905MOL0     H19411   9.791  -0.798   7.726  0.8784  0.9015  0.5969
  905MOL0     H19412   9.928  -0.845   7.610 -0.4252 -0.5738 -3.4359
  905MOL0     H19413   9.796  -0.945   7.362  0.4009 -1.8285  0.4546
  905MOL0     H19414   9.532  -1.228   7.379 -0.9641  0.9176  1.3325
  905MOL0     H19415   9.679  -1.203   7.296  1.6131 -0.3585  2.1899
  905MOL0     H19416   9.571  -1.103   7.140  0.2117 -0.4569 -0.4025
  905MOL0     H19417   9.546  -0.957   7.233 -2.5393  0.2723  2.4179
  905MOL0     H19418   9.337  -1.021   7.151 -0.8181 -1.7135 -0.3855
  905MOL0     H19419   9.355  -1.191   7.206 -0.1175  1.0251 -2.0329
  905MOL0     H19420   9.352  -0.966   7.426  1.2136 -0.0208  0.3216
  905MOL0     H19421   9.299  -1.136   7.421 -0.1291  0.6551 -0.2486
  905MOL0     H19422   9.217  -0.956   7.608 -0.2392 -4.0626  1.3695
  905MOL0     H19423   9.029  -0.926   7.764  1.7211  1.3008 -0.3295
  905MOL0     H19424   8.465  -0.826   7.553  0.5008  0.4542 -0.6860
  905MOL0     H19425   8.234  -0.751   7.645  0.0412 -3.9315 -1.4082
  905MOL0     H19426   8.233  -0.605   7.950  1.1027 -2.5755 -2.1405
  905MOL0     H19427   8.174  -0.693   8.095  0.1225  2.7119  0.3756
  905MOL0     H19428   7.990  -0.568   7.872 -0.6341  2.6340  1.3339
  905MOL0     H19429   8.039  -0.497   8.026  1.0569 -1.1895  0.7067
  905MOL0     H19430   7.896  -0.648   8.147  1.1604 -4.1244  0.8178
  905MOL0     H19431   7.898  -0.761   8.022  1.1145  0.2530  0.2219
  905MOL0     H19432   7.755  -0.481   8.009  0.3581 -0.0693  0.8872
  905MOL0     H19433   7.737  -0.626   7.894 -2.9891  1.0596  0.7539
  905MOL0     H19434   7.698  -0.649   8.195 -0.4652  1.6517 -0.0106
  905MOL0     H19435   7.639  -0.755   8.072 -0.0025  0.4635 -0.1551
  905MOL0     H19436   7.517  -0.472   8.105 -0.6604  0.1495  0.8333
  905MOL0     H19437   7.462  -0.618   8.187 -1.6834  1.4200 -0.1867
  905MOL0     H19438   7.471  -0.560   7.888 -1.3908 -2.9283 -2.5024
  905MOL0     H19439   7.428  -0.715   7.955 -0.5472 -0.4781  4.2425
  905MOL0     H19440   7.234  -0.573   7.909  0.7760  0.8366 -1.4691
  905MOL0     H19441   7.278  -0.464   8.039 -1.1449 -0.6798 -0.0881
  905MOL0     H19442   8.367  -0.908   8.030 -0.5808 -0.0454  0.5198
  905MOL0     H19443   8.576  -0.981   7.908  0.0005 -2.3752 -2.5551
  905MOL0     H19444   8.739  -0.954   7.452 -0.1140  1.5362 -0.4494
  905MOL0     H19445   8.931  -1.040   7.298 -1.9460 -0.1499  1.5821
  905MOL0     H19446  10.119  -0.162   7.955 -0.2760 -0.2468 -0.5098
  905MOL0     H19447  10.325  -0.064   8.085 -0.9925 -1.2109  1.5418
  905MOL0     H19448  10.422   0.434   8.345  0.5922 -0.3032  0.3238
  905MOL0     H19449  10.611   0.582   8.423  0.4045  2.5117 -1.7958
  905MOL0     H19450  10.910   0.500   8.499  3.6294  1.6415 -1.5760
  905MOL0     H19451  10.789   0.633   8.521  1.4239  1.8879  0.8627
  905MOL0     H19452  10.955   0.783   8.397  3.9673  1.0181 -0.9483
  905MOL0     H19453  10.990   0.735   8.571 -2.3512 -0.0841  0.1670
  905MOL0     H19454  11.128   0.636   8.316  4.2742 -0.1319  0.1038
  905MOL0     H19455  11.136   0.553   8.472  0.3129  0.7142  0.0034
  905MOL0     H19456  11.235   0.735   8.582  0.3950 -0.5881  0.1226
  905MOL0     H19457  11.320   0.691   8.434 -0.4682 -0.2693 -0.8874
  905MOL0     H19458  11.175   1.086   8.357 -0.3616  0.0508 -1.4617
  905MOL0     H19459  10.849   0.402   8.104  0.7228  1.1593 -0.6090
  905MOL0     H19460  10.669   0.267   8.036 -0.3133 -1.0788 -0.2862
  906MOL0     O19461   2.704   5.884   0.985  0.4361 -0.4163  0.5580
  906MOL0     C19462   2.704   5.960   1.085  0.1386  0.7563 -0.5662
  906MOL0     O19463   2.811   6.010   1.147  0.1008 -0.7690 -0.2406
  906MOL0     C19464   2.942   6.009   1.092  0.1737 -0.1931  0.2636
  906MOL0     C19465   2.983   5.970   0.964  0.4602 -0.2376 -0.0936
  906MOL0     C19466   3.111   6.001   0.924 -0.1771  0.6875 -0.8808
  906MOL0     C19467   3.209   6.060   1.013 -0.7108 -0.7866  0.1480
  906MOL0     O19468   3.329   6.088   0.956  0.0740  0.0133 -0.1215
  906MOL0     C19469   3.433   6.138   1.041  0.1998  0.3889 -0.2460
  906MOL0     C19470   3.416   6.291   1.056 -0.1590  0.3649  0.8453
  906MOL0     C19471   3.417   6.360   0.910  0.1763  0.4227 -0.1923
  906MOL0     C19472   3.401   6.509   0.922 -0.1161 -0.7201 -0.4621
  906MOL0     C19473   3.374   6.577   0.789 -0.2907 -1.4574  0.1842
  906MOL0     C19474   3.233   6.574   0.750 -0.0638 -0.0262  1.0565
  906MOL0     C19475   3.197   6.669   0.628  0.2213 -0.5652 -0.0116
  906MOL0     C19476   3.059   6.621   0.566  0.5637 -0.3781  0.0102
  906MOL0     N19477   3.033   6.712   0.451 -0.2675 -0.4600 -0.4989
  906MOL0     C19478   2.985   6.841   0.456 -0.4012 -0.6120  0.0920
  906MOL0     C19479   2.990   6.881   0.331 -0.2429 -0.8117  0.3264
  906MOL0     C19480   2.965   7.028   0.295  0.0498 -0.2291 -0.3632
  906MOL0     C19481   2.840   7.049   0.200 -0.1483  0.0161  0.2506
  906MOL0     C19482   2.826   7.198   0.161 -0.0106  0.1966  1.0837
  906MOL0     C19483   2.692   7.220   0.081  0.8358  0.4110 -0.9595
  906MOL0     O19484   2.683   7.361   0.039  0.3617 -0.7320 -0.9157
  906MOL0     C19485   2.563   7.410   0.006 -0.4730 -0.2598  0.2928
  906MOL0     C19486   2.542   7.546   0.049  0.3238 -0.3401  0.4768
  906MOL0     C19487   2.421   7.606   0.018  0.1166 -0.6395 -0.0513
  906MOL0     C19488   2.331   7.540  -0.072  1.0878  0.1032 -0.8036
  906MOL0     C19489   2.207   7.605  -0.100  0.2478 -0.2082 -0.1431
  906MOL0     O19490   2.112   7.524  -0.151  0.0040 -0.7200  0.9507
  906MOL0     C19491   1.988   7.575  -0.145  0.1767 -0.2809  0.2926
  906MOL0     C19492   1.916   7.548  -0.030 -0.5885  0.7275  0.1231
  906MOL0     C19493   1.779   7.594  -0.028  0.4265  0.3439  0.9803
  906MOL0     C19494   1.722   7.666  -0.136  0.5832 -0.6007  0.2518
  906MOL0     O19495   1.584   7.698  -0.133  0.5724  0.1749 -0.0722
  906MOL0     C19496   1.553   7.835  -0.170 -0.1656  0.7854 -0.2204
  906MOL0     C19497   1.399   7.861  -0.176 -0.3982 -0.3066  0.1508
  906MOL0     C19498   1.340   7.886  -0.038  0.4300 -0.2012 -0.9284
  906MOL0     C19499   1.195   7.901  -0.033  0.0189  0.5137 -0.6900
  906MOL0     C19500   1.113   8.005  -0.113 -0.6001 -1.1537 -0.3883
  906MOL0     C19501   0.967   8.019  -0.056 -1.5415 -0.1052  0.3813
  906MOL0     C19502   0.887   8.104  -0.154  0.1695 -0.2013  0.0445
  906MOL0     C19503   0.745   8.138  -0.111  0.4121 -0.1860  0.2088
  906MOL0    Cl19504   0.732   8.202   0.054  0.1012 -0.3020  0.6601
  906MOL0     C19505   1.807   7.691  -0.249 -0.0069  0.0559  0.0460
  906MOL0     C19506   1.939   7.640  -0.254 -0.5530 -0.5161 -0.7045
  906MOL0     O19507   2.199   7.727  -0.075  0.6537 -0.5606  0.1127
  906MOL0     C19508   2.357   7.411  -0.126 -1.6082  0.1749  0.1712
  906MOL0     C19509   2.479   7.347  -0.084 -0.4590  0.5840  0.5794
  906MOL0     N19510   3.043   6.783   0.247 -0.2494 -0.1562 -0.3220
  906MOL0     N19511   3.069   6.687   0.323  0.2069 -0.5151  1.3835
  906MOL0     C19512   3.165   6.090   1.142  0.1824  0.3117 -0.3129
  906MOL0     C19513   3.035   6.059   1.178 -0.4109 -0.4406 -0.3542
  906MOL0     C19514   2.581   5.995   1.150  0.1243 -0.0759 -0.6250
  906MOL0     C19515   2.584   6.082   1.268 -0.1527 -0.0115  0.0665
  906MOL0     C19516   2.468   6.110   1.338 -0.3033  1.1231 -0.3467
  906MOL0     C19517   2.346   6.060   1.296  0.1126  0.9780 -0.3556
  906MOL0     O19518   2.230   6.096   1.363  0.5379 -0.3102  0.2582
  906MOL0     C19519   2.105   6.101   1.284  0.6746 -0.6332  0.1243
  906MOL0     C19520   2.014   6.215   1.337 -0.3327  0.9379  0.0911
  906MOL0     C19521   1.900   6.273   1.254 -0.2489 -0.7492 -0.5467
  906MOL0     C19522   1.794   6.169   1.215  0.4193 -0.2538 -0.5279
  906MOL0     C19523   1.727   6.129   1.349  0.1415  0.6610 -0.0328
  906MOL0     C19524   1.696   6.100   1.459 -0.8768  0.8678 -1.1130
  906MOL0     C19525   2.342   5.982   1.179 -0.1742 -0.5088  0.0049
  906MOL0     C19526   2.456   5.951   1.104  0.9506 -0.4925  0.8467
  906MOL0     H19527   2.916   5.929   0.890 -1.3316  0.8576  0.8350
  906MOL0     H19528   3.154   5.963   0.832  0.4744  1.6418 -0.9792
  906MOL0     H19529   3.525   6.101   0.995  0.1511 -1.7296  1.1946
  906MOL0     H19530   3.428   6.085   1.137 -0.5636 -1.0026 -1.0197
  906MOL0     H19531   3.501   6.328   1.114 -0.1496 -0.7737  1.5836
  906MOL0     H19532   3.314   6.307   1.091 -1.4631 -2.8108 -1.0815
  906MOL0     H19533   3.353   6.319   0.832 -2.4071 -2.2729  3.0114
  906MOL0     H19534   3.520   6.351   0.872  1.1332  1.3339  1.9941
  906MOL0     H19535   3.318   6.530   0.989  0.1826  1.9729 -0.8470
  906MOL0     H19536   3.488   6.559   0.966 -1.5651  0.8272  0.7788
  906MOL0     H19537   3.429   6.527   0.709  1.5204 -0.1535  0.5307
  906MOL0     H19538   3.413   6.680   0.789 -0.3115 -1.4360  1.2798
  906MOL0     H19539   3.166   6.599   0.833 -2.5063  2.0024 -1.3422
  906MOL0     H19540   3.219   6.472   0.713  1.6488 -0.7598  2.2880
  906MOL0     H19541   3.195   6.776   0.650  0.1719 -0.7985  1.1447
  906MOL0     H19542   3.278   6.668   0.554  0.9688  1.4485  0.6984
  906MOL0     H19543   2.989   6.632   0.649 -0.0328  0.2215 -0.5605
  906MOL0     H19544   3.062   6.517   0.533  3.4006 -0.0299 -1.1514
  906MOL0     H19545   2.977   6.912   0.538 -0.6461  1.5062 -1.6741
  906MOL0     H19546   3.056   7.064   0.247  1.0754 -0.1411  1.5599
  906MOL0     H19547   2.957   7.083   0.389 -0.6170  0.4311 -0.7860
  906MOL0     H19548   2.755   7.014   0.258  1.5824 -1.9738  1.7615
  906MOL0     H19549   2.859   6.993   0.107 -0.2334 -0.8668  0.7531
  906MOL0     H19550   2.818   7.260   0.251 -0.9535  1.7544 -0.0414
  906MOL0     H19551   2.912   7.236   0.105 -0.6400  1.4247  0.9184
  906MOL0     H19552   2.612   7.189   0.149  0.1854  1.5515 -1.1684
  906MOL0     H19553   2.693   7.146  -0.000  3.3112 -2.5531  1.5387
  906MOL0     H19554   2.621   7.593   0.107 -0.1939  0.6504  0.4027
  906MOL0     H19555   2.398   7.710   0.041  2.3546  0.1644 -1.1504
  906MOL0     H19556   1.963   7.492   0.050  2.3229  0.2451 -1.7513
  906MOL0     H19557   1.712   7.571   0.055 -2.1544  0.6175 -0.9161
  906MOL0     H19558   1.599   7.855  -0.268  1.1131  1.7285  0.5367
  906MOL0     H19559   1.604   7.893  -0.092  0.4982  1.0442 -0.8260
  906MOL0     H19560   1.336   7.788  -0.228 -3.4391  1.7039  0.6908
  906MOL0     H19561   1.384   7.955  -0.230  0.5068  0.5635  1.3792
  906MOL0     H19562   1.382   7.970   0.018  0.2302  0.5301 -1.8515
  906MOL0     H19563   1.366   7.801   0.026  0.9663  2.7824  3.2650
  906MOL0     H19564   1.157   7.806  -0.072  0.7654 -1.1385  2.2963
  906MOL0     H19565   1.161   7.899   0.071  0.9152 -2.1699 -0.3590
  906MOL0     H19566   1.118   7.990  -0.221  1.1034  3.3604 -1.1597
  906MOL0     H19567   1.152   8.106  -0.095 -1.1649 -0.8626 -0.7723
  906MOL0     H19568   0.970   8.063   0.044 -1.3295  0.1249  0.2745
  906MOL0     H19569   0.930   7.916  -0.054  0.5632 -0.9796 -1.3521
  906MOL0     H19570   0.944   8.197  -0.166  1.1973 -0.9090 -0.6887
  906MOL0     H19571   0.875   8.060  -0.254 -1.4827  0.3637 -0.0293
  906MOL0     H19572   0.684   8.048  -0.119  0.5987 -0.3091  0.1643
  906MOL0     H19573   0.702   8.207  -0.184  0.2246 -0.9445 -0.4209
  906MOL0     H19574   1.769   7.743  -0.337  0.4801  2.1577  1.0127
  906MOL0     H19575   2.005   7.645  -0.340  3.7169 -2.7062  2.0598
  906MOL0     H19576   2.290   7.360  -0.194 -2.8906 -0.0530  1.5470
  906MOL0     H19577   2.510   7.246  -0.109  0.8217  0.8345  1.0692
  906MOL0     H19578   3.232   6.140   1.212  1.9121 -0.2259 -1.5134
  906MOL0     H19579   3.002   6.077   1.280 -0.5475 -3.1980  0.1770
  906MOL0     H19580   2.674   6.128   1.309  0.1573 -2.6760  2.7676
  906MOL0     H19581   2.476   6.168   1.430 -0.7073  2.9799 -1.4530
  906MOL0     H19582   2.048   6.008   1.275 -0.3487  0.0096 -0.2056
  906MOL0     H19583   2.125   6.135   1.182  0.0359 -1.3260 -0.2450
  906MOL0     H19584   1.983   6.194   1.440  0.7580  0.2990  0.2983
  906MOL0     H19585   2.088   6.295   1.344  0.6779  0.0335 -0.0361
  906MOL0     H19586   1.937   6.306   1.157 -1.2605  1.5918 -0.1962
  906MOL0     H19587   1.867   6.362   1.309 -0.1650 -1.0628  0.0235
  906MOL0     H19588   1.722   6.208   1.142  1.1256 -0.2695 -1.2419
  906MOL0     H19589   1.852   6.081   1.185  2.5694  0.7506  0.5101
  906MOL0     H19590   1.676   6.084   1.563  1.1260 -2.4781 -1.0853
  906MOL0     H19591   2.251   5.941   1.135  1.2387 -1.5217 -2.1114
  906MOL0     H19592   2.455   5.894   1.011  0.0444  0.1857  0.4285
  907MOL0     O19593   5.877   4.086   1.212 -0.1287 -0.2796 -0.7496
  907MOL0     C19594   5.858   3.983   1.276  0.6899 -0.0088 -0.7881
  907MOL0     O19595   5.729   3.941   1.325  0.8930  0.0136  0.9156
  907MOL0     C19596   5.622   4.030   1.318 -0.1464 -0.2749  0.2208
  907MOL0     C19597   5.622   4.162   1.354 -0.0743 -0.3604  0.2978
  907MOL0     C19598   5.505   4.241   1.347 -0.2776  0.6771  0.5882
  907MOL0     C19599   5.390   4.184   1.288 -0.7696 -0.5483  0.4509
  907MOL0     O19600   5.278   4.261   1.254 -0.0916  0.6932 -0.4118
  907MOL0     C19601   5.292   4.402   1.249  0.1964 -0.6327  0.2349
  907MOL0     C19602   5.161   4.464   1.199  0.1265 -0.1567  0.0913
  907MOL0     C19603   5.120   4.609   1.265  0.2625 -0.7125  0.0416
  907MOL0     C19604   5.216   4.721   1.211 -0.2115 -0.0570  0.7131
  907MOL0     C19605   5.191   4.862   1.283  1.0357  0.4057 -0.4624
  907MOL0     C19606   5.302   4.959   1.263  0.0377 -0.1123 -0.2803
  907MOL0     C19607   5.419   4.939   1.357  0.9031  0.4537 -0.9367
  907MOL0     C19608   5.535   5.031   1.319 -0.0429 -0.1009 -0.1861
  907MOL0     N19609   5.642   5.030   1.424  0.4112 -0.5082 -0.4630
  907MOL0     C19610   5.660   5.141   1.498  0.3254 -0.8608 -0.5484
  907MOL0     C19611   5.759   5.110   1.582  0.1890 -0.7929 -0.0076
  907MOL0     C19612   5.820   5.183   1.700 -0.1359  0.4636 -0.0563
  907MOL0     C19613   5.723   5.215   1.813 -0.0463 -0.0863 -0.7078
  907MOL0     C19614   5.663   5.358   1.805 -0.0687 -0.6044 -0.6473
  907MOL0     C19615   5.516   5.366   1.849  0.7306  0.0758 -0.3174
  907MOL0     O19616   5.430   5.291   1.758  0.0669  0.4425  0.3103
  907MOL0     C19617   5.298   5.264   1.790  0.2562  0.3458  0.3148
  907MOL0     C19618   5.227   5.338   1.884 -0.2223 -0.0589  0.0934
  907MOL0     C19619   5.095   5.289   1.909 -0.0581 -0.0086  0.5626
  907MOL0     C19620   5.035   5.189   1.830  0.5369  0.2680 -0.1547
  907MOL0     C19621   4.894   5.159   1.860  0.6187 -0.3356  0.2249
  907MOL0     O19622   4.818   5.103   1.755  0.7734 -0.7582 -0.2337
  907MOL0     C19623   4.681   5.078   1.769 -0.2669 -1.2067 -0.2128
  907MOL0     C19624   4.634   4.950   1.754 -0.1111  0.0125  0.2602
  907MOL0     C19625   4.490   4.929   1.768 -0.3290  0.1295 -0.5042
  907MOL0     C19626   4.397   5.036   1.777 -0.0409  0.1236 -1.0115
  907MOL0     O19627   4.264   5.016   1.769  0.4022  0.5149  0.4800
  907MOL0     C19628   4.210   4.921   1.856 -0.0249  0.3479 -0.5590
  907MOL0     C19629   4.061   4.959   1.856 -1.0141  1.1245 -0.9167
  907MOL0     C19630   3.962   4.864   1.937  0.3153 -0.4513 -0.9906
  907MOL0     C19631   3.818   4.917   1.947 -0.3053 -0.5662  0.2898
  907MOL0     C19632   3.732   4.818   2.032 -0.7287 -0.1488 -0.1572
  907MOL0     C19633   3.577   4.820   2.017 -0.2814 -1.1571 -0.8498
  907MOL0     C19634   3.518   4.710   2.101 -0.0494  0.6323  0.0220
  907MOL0     C19635   3.366   4.713   2.128 -0.1592 -0.5551  0.2790
  907MOL0    Cl19636   3.301   4.554   2.105  0.1364  0.2185 -0.3336
  907MOL0     C19637   4.450   5.163   1.787  0.8909 -0.0611 -0.9714
  907MOL0     C19638   4.592   5.185   1.787 -0.6154 -0.0073  0.7272
  907MOL0     O19639   4.851   5.174   1.977  0.3556  0.2970  0.3362
  907MOL0     C19640   5.105   5.142   1.723 -0.1261  0.4187 -0.0324
  907MOL0     C19641   5.237   5.173   1.707  0.8812 -0.7680 -0.5168
  907MOL0     N19642   5.807   4.984   1.539  1.4107 -0.3198  0.0266
  907MOL0     N19643   5.728   4.932   1.456 -0.6599  0.2042  0.2330
  907MOL0     C19644   5.395   4.042   1.265  0.8958  0.2490  0.5061
  907MOL0     C19645   5.504   3.965   1.280 -0.3669 -0.3116  0.6329
  907MOL0     C19646   5.964   3.882   1.287  0.4689  0.3357 -0.7249
  907MOL0     C19647   6.095   3.909   1.237  0.1367  0.3550 -0.2789
  907MOL0     C19648   6.194   3.810   1.264 -0.0271 -0.6639 -0.2111
  907MOL0     C19649   6.171   3.695   1.342 -0.0780  0.3245  0.6067
  907MOL0     O19650   6.263   3.592   1.360 -0.3062  0.2502  0.3668
  907MOL0     C19651   6.305   3.529   1.230  0.5594  0.8331 -0.0648
  907MOL0     C19652   6.444   3.554   1.183 -0.4755  0.3838 -0.2414
  907MOL0     C19653   6.567   3.486   1.240  0.1020  0.2182  0.0500
  907MOL0     C19654   6.690   3.504   1.162 -0.5022  0.0114  0.0719
  907MOL0     C19655   6.815   3.458   1.220  0.6154  0.5716 -0.3871
  907MOL0     C19656   6.922   3.413   1.254  0.2934  0.1797  0.0350
  907MOL0     C19657   6.043   3.676   1.386 -0.3063 -0.1590 -1.1548
  907MOL0     C19658   5.940   3.770   1.372 -0.4984  0.2633  0.4896
  907MOL0     H19659   5.720   4.205   1.375  0.7414  0.0088 -3.5727
  907MOL0     H19660   5.519   4.346   1.370 -1.0984  0.8210  0.4284
  907MOL0     H19661   5.370   4.426   1.176 -2.5930  0.3652 -2.6683
  907MOL0     H19662   5.312   4.433   1.352 -1.1908 -0.9081  0.6035
  907MOL0     H19663   5.082   4.389   1.213  0.8440 -0.7859  0.8675
  907MOL0     H19664   5.170   4.484   1.092 -1.6223  2.1686  0.3139
  907MOL0     H19665   5.125   4.614   1.374  0.1545 -4.6717  0.3888
  907MOL0     H19666   5.020   4.635   1.228 -0.6040 -0.3259  2.4286
  907MOL0     H19667   5.322   4.700   1.224  1.1826  2.7746 -3.7870
  907MOL0     H19668   5.203   4.729   1.103 -2.8467 -2.4020  0.7284
  907MOL0     H19669   5.174   4.853   1.390  0.2081  1.4162 -0.4904
  907MOL0     H19670   5.101   4.912   1.246  0.3684  0.1796  0.8191
  907MOL0     H19671   5.258   5.058   1.278  0.5071  0.2690 -1.3147
  907MOL0     H19672   5.333   4.949   1.158 -2.1643 -0.0818 -0.9989
  907MOL0     H19673   5.373   4.963   1.453 -1.7478 -0.4242 -1.8955
  907MOL0     H19674   5.446   4.833   1.354  0.4646  0.3588 -1.8147
  907MOL0     H19675   5.487   5.128   1.312 -0.6078 -0.3091  0.5885
  907MOL0     H19676   5.570   5.001   1.220 -1.1424  1.3813 -1.0541
  907MOL0     H19677   5.602   5.232   1.492  1.8227  0.2576  1.0332
  907MOL0     H19678   5.845   5.278   1.652  0.0981  0.5475  0.2299
  907MOL0     H19679   5.906   5.128   1.738 -0.3441  1.6717  2.4072
  907MOL0     H19680   5.780   5.207   1.906  0.8832  1.1688 -1.1513
  907MOL0     H19681   5.643   5.140   1.817  0.9872 -1.1620  1.4677
  907MOL0     H19682   5.716   5.428   1.871  1.2824 -1.5011 -0.7370
  907MOL0     H19683   5.671   5.401   1.705  1.1046  0.4598 -0.1336
  907MOL0     H19684   5.476   5.467   1.859 -2.2850 -1.2254  4.7019
  907MOL0     H19685   5.508   5.325   1.951  1.8979  0.1220 -0.1942
  907MOL0     H19686   5.269   5.414   1.948 -0.6136 -0.0727  0.3719
  907MOL0     H19687   5.038   5.330   1.992 -1.0862  0.4301 -0.3412
  907MOL0     H19688   4.707   4.870   1.763 -0.7559 -0.3558  2.8576
  907MOL0     H19689   4.453   4.827   1.760  1.8387 -0.5643 -3.2570
  907MOL0     H19690   4.248   4.922   1.959 -0.8263  1.1791 -0.2503
  907MOL0     H19691   4.227   4.816   1.833 -0.1591 -0.4417  2.4291
  907MOL0     H19692   4.020   4.959   1.754  0.6822 -1.9007 -1.7579
  907MOL0     H19693   4.047   5.060   1.895  1.1252  1.1232 -0.0011
  907MOL0     H19694   3.986   4.842   2.042  1.1065 -1.3642 -1.3440
  907MOL0     H19695   3.964   4.767   1.887  0.9096 -0.2231 -1.4218
  907MOL0     H19696   3.807   5.014   1.995 -1.7576  0.1286 -1.3561
  907MOL0     H19697   3.773   4.923   1.848 -0.2236 -3.3411 -0.0160
  907MOL0     H19698   3.757   4.820   2.138  0.0915  0.5802 -0.3540
  907MOL0     H19699   3.760   4.717   2.003 -1.2408 -0.7290  1.2664
  907MOL0     H19700   3.549   4.810   1.912  4.4390 -2.9201 -2.2202
  907MOL0     H19701   3.536   4.912   2.061  2.5545 -0.6600  1.0053
  907MOL0     H19702   3.548   4.611   2.063 -2.1107 -0.0074 -0.0559
  907MOL0     H19703   3.552   4.718   2.205 -1.3894  1.6185  0.4081
  907MOL0     H19704   3.318   4.768   2.046 -1.2936 -2.5515 -0.4693
  907MOL0     H19705   3.349   4.759   2.226  0.8684  0.9213 -0.1967
  907MOL0     H19706   4.380   5.246   1.785  1.2631  0.3335  0.5614
  907MOL0     H19707   4.639   5.281   1.803  1.3930 -0.8483  0.2869
  907MOL0     H19708   5.069   5.057   1.666  1.5835 -1.4527  1.5395
  907MOL0     H19709   5.294   5.137   1.622  0.8183  0.6723 -1.1976
  907MOL0     H19710   5.310   3.979   1.238  1.8939 -2.2793  2.7634
  907MOL0     H19711   5.508   3.863   1.244 -1.0244  0.0321 -0.4803
  907MOL0     H19712   6.121   3.992   1.171  2.2216  0.5478  0.6955
  907MOL0     H19713   6.294   3.829   1.226 -0.9227  4.5470 -0.5812
  907MOL0     H19714   6.226   3.558   1.160  0.6856  0.0668 -0.5434
  907MOL0     H19715   6.304   3.420   1.244  0.9020  0.7399 -0.7186
  907MOL0     H19716   6.435   3.515   1.081 -0.5279  0.0514 -0.1092
  907MOL0     H19717   6.450   3.663   1.173 -1.7793  0.3206 -2.4512
  907MOL0     H19718   6.553   3.378   1.246  1.2290  0.1140  1.2956
  907MOL0     H19719   6.585   3.530   1.339  0.3624  1.3140 -0.4655
  907MOL0     H19720   6.683   3.441   1.073 -1.2084 -0.0872  0.1893
  907MOL0     H19721   6.689   3.608   1.129 -2.2911  1.7014  4.6126
  907MOL0     H19722   7.018   3.365   1.260  0.1385 -0.1302  0.0371
  907MOL0     H19723   6.020   3.587   1.443  1.9733  0.3004  0.6159
  907MOL0     H19724   5.849   3.752   1.429 -1.3195  3.5494  0.4462
  908MOL0     O19725   7.155   4.095  11.065 -0.4579 -0.0754 -0.5461
  908MOL0     C19726   7.262   4.089  11.121 -0.2885 -0.7887 -0.1882
  908MOL0     O19727   7.314   3.980  11.170  0.0624  0.4746  0.4914
  908MOL0     C19728   7.262   3.866  11.129 -1.3885  0.6501 -0.9202
  908MOL0     C19729   7.330   3.794  11.032 -0.2343  0.0039 -0.0854
  908MOL0     C19730   7.286   3.666  11.001  0.3273  0.1470 -0.0650
  908MOL0     C19731   7.170   3.612  11.053 -0.0908  0.0357  0.2315
  908MOL0     O19732   7.125   3.492  11.012 -0.0232  0.0577 -0.2938
  908MOL0     C19733   7.010   3.498  10.914 -1.3624  0.8445  0.3679
  908MOL0     C19734   7.009   3.357  10.858  1.0216  0.8124  0.0226
  908MOL0     C19735   6.891   3.323  10.764  0.7376  1.0965  0.1979
  908MOL0     C19736   6.898   3.402  10.639 -0.6421 -0.4523  0.7779
  908MOL0     C19737   6.765   3.412  10.565  0.8169  0.3343  0.1447
  908MOL0     C19738   6.773   3.483  10.422  0.1324 -0.1128 -0.3096
  908MOL0     C19739   6.644   3.452  10.346 -0.2158  0.1665 -1.2260
  908MOL0     C19740   6.650   3.516  10.213 -0.2519 -0.3979 -0.0643
  908MOL0     N19741   6.522   3.490  10.147 -0.3591 -0.1898  0.0785
  908MOL0     C19742   6.401   3.530  10.193  0.2153  0.1316 -0.2774
  908MOL0     C19743   6.309   3.456  10.131  0.7191 -0.9839  0.3704
  908MOL0     C19744   6.161   3.467  10.137  0.7898 -0.3136  0.4048
  908MOL0     C19745   6.112   3.606  10.099 -1.2247  0.4812  0.5908
  908MOL0     C19746   6.039   3.613   9.961 -0.7039 -0.1387  0.3288
  908MOL0     C19747   5.969   3.747   9.947  0.1692 -0.3005  0.1304
  908MOL0     O19748   5.846   3.753  10.022  0.5429  0.1459 -0.3807
  908MOL0     C19749   5.729   3.702   9.972 -0.2041 -0.8745 -0.2060
  908MOL0     C19750   5.716   3.652   9.837  0.2156 -0.1223 -0.1899
  908MOL0     C19751   5.588   3.625   9.784 -0.3757  1.2429 -0.3743
  908MOL0     C19752   5.475   3.624   9.866  0.7782 -0.6393 -1.1142
  908MOL0     C19753   5.336   3.599   9.813 -0.2309 -1.0801  0.9591
  908MOL0     O19754   5.229   3.659   9.878  0.0239  0.4597 -0.1220
  908MOL0     C19755   5.100   3.649   9.837 -0.2984 -0.4904 -0.1468
  908MOL0     C19756   5.006   3.665   9.944 -0.8174  1.1442  0.5260
  908MOL0     C19757   4.866   3.669   9.923  0.7066  0.6117 -0.3904
  908MOL0     C19758   4.819   3.650   9.792  0.3008  0.1156 -0.1742
  908MOL0     O19759   4.682   3.644   9.771 -0.1486  0.3214  0.6384
  908MOL0     C19760   4.617   3.546   9.853 -0.0310  0.2210  0.1430
  908MOL0     C19761   4.466   3.582   9.836  0.5888 -0.9472  0.1707
  908MOL0     C19762   4.383   3.489   9.927 -0.2911 -0.3045 -0.3128
  908MOL0     C19763   4.240   3.532   9.889  0.0490  0.0233  0.3524
  908MOL0     C19764   4.133   3.549  10.007  0.0257  0.1488 -0.0852
  908MOL0     C19765   4.084   3.423  10.067  0.0300  0.6661  0.1042
  908MOL0     C19766   3.970   3.365   9.977  1.1450  0.1839  0.3265
  908MOL0     C19767   3.929   3.221  10.016 -0.0039  0.0701  0.0215
  908MOL0    Cl19768   3.945   3.189  10.190 -0.2383 -0.1154 -0.0607
  908MOL0     C19769   4.909   3.645   9.687 -0.1272  0.4001 -0.5387
  908MOL0     C19770   5.044   3.655   9.709  0.1803  0.4344 -0.1027
  908MOL0     O19771   5.320   3.530   9.704 -0.2785  0.0902 -0.3648
  908MOL0     C19772   5.492   3.656  10.004 -0.6080 -0.0491  0.4240
  908MOL0     C19773   5.613   3.695  10.052 -0.3955 -0.2638  0.1326
  908MOL0     N19774   6.373   3.375  10.038 -0.0943  0.3960 -0.1344
  908MOL0     N19775   6.500   3.404  10.039  0.4034 -0.1955 -0.0700
  908MOL0     C19776   7.105   3.693  11.140 -0.2588  0.3139  0.0727
  908MOL0     C19777   7.145   3.814  11.178  0.0289 -0.4524 -0.4415
  908MOL0     C19778   7.337   4.223  11.131 -0.0753 -0.4105 -0.0728
  908MOL0     C19779   7.274   4.344  11.099 -0.3265  0.2340  0.8356
  908MOL0     C19780   7.334   4.470  11.119 -0.6969  0.8296  0.2129
  908MOL0     C19781   7.450   4.476  11.187 -0.0269 -0.1380  0.7768
  908MOL0     O19782   7.500   4.601  11.221 -0.5298  0.5510  0.0248
  908MOL0     C19783   7.628   4.592  11.290 -0.7834  0.3386 -0.8063
  908MOL0     C19784   7.663   4.729  11.353  0.7345  0.0051 -0.2513
  908MOL0     C19785   7.560   4.751  11.465 -0.2642  0.2034 -0.6193
  908MOL0     C19786   7.589   4.879  11.546  0.6999  0.2387 -0.5437
  908MOL0     C19787   7.490   4.894  11.651 -0.0063  0.4584 -0.2716
  908MOL0     C19788   7.436   4.912  11.756 -0.6738  0.0730 -0.2037
  908MOL0     C19789   7.513   4.355  11.221  1.0812 -1.1779  0.1984
  908MOL0     C19790   7.458   4.234  11.201  0.5823 -0.2459 -0.3623
  908MOL0     H19791   7.422   3.832  10.991 -1.6077  1.8225 -1.6423
  908MOL0     H19792   7.338   3.607  10.926 -1.2903  0.0309 -1.1476
  908MOL0     H19793   7.018   3.574  10.837 -1.4921 -2.7185 -3.5053
  908MOL0     H19794   6.915   3.509  10.967  0.3892  1.8497  3.6066
  908MOL0     H19795   7.004   3.288  10.943  0.6376  1.9037  0.9042
  908MOL0     H19796   7.107   3.353  10.810  0.0960  0.4056 -1.9264
  908MOL0     H19797   6.799   3.335  10.822  0.0546 -1.7776 -0.1352
  908MOL0     H19798   6.895   3.218  10.732  1.0922  1.3277 -0.5302
  908MOL0     H19799   6.927   3.505  10.663  0.2072 -1.0015  2.2445
  908MOL0     H19800   6.983   3.363  10.582 -0.2072  0.3013  0.8913
  908MOL0     H19801   6.680   3.452  10.621 -0.4596 -1.4799 -0.3952
  908MOL0     H19802   6.738   3.307  10.552 -0.3797  0.8062 -1.4923
  908MOL0     H19803   6.864   3.454  10.370  0.3522  1.7412 -1.0402
  908MOL0     H19804   6.783   3.590  10.439 -0.8658  0.0720 -0.7880
  908MOL0     H19805   6.615   3.347  10.338 -1.1725  0.1944  1.0027
  908MOL0     H19806   6.561   3.502  10.397 -0.7388  0.4146 -2.2901
  908MOL0     H19807   6.735   3.484  10.152  0.1334 -3.8943  2.0384
  908MOL0     H19808   6.661   3.625  10.214 -0.2136 -0.3887  1.2160
  908MOL0     H19809   6.383   3.608  10.266 -1.3376 -1.7816  1.5247
  908MOL0     H19810   6.132   3.453  10.241  0.0885  1.8704  0.5397
  908MOL0     H19811   6.127   3.383  10.075  1.2954 -0.1089 -0.1705
  908MOL0     H19812   6.203   3.666  10.092 -0.9982  0.0273 -0.5063
  908MOL0     H19813   6.056   3.649  10.183  0.8115  1.1128  1.7176
  908MOL0     H19814   6.112   3.611   9.879  0.1086 -2.8462  1.0383
  908MOL0     H19815   5.972   3.533   9.929 -0.6447  0.2059 -0.7247
  908MOL0     H19816   5.948   3.767   9.841  1.0567 -0.6724 -0.1269
  908MOL0     H19817   6.046   3.820   9.971  0.3235 -0.1776 -0.6880
  908MOL0     H19818   5.801   3.649   9.770  0.2508 -0.6337 -0.1270
  908MOL0     H19819   5.575   3.599   9.679  1.8931 -0.5894 -0.2815
  908MOL0     H19820   5.045   3.681  10.044 -0.4776 -0.3424  0.6497
  908MOL0     H19821   4.804   3.674  10.012 -0.3754 -3.1237 -0.7809
  908MOL0     H19822   4.643   3.562   9.958 -0.7031  0.3856  0.2873
  908MOL0     H19823   4.634   3.441   9.828 -2.0077  0.0360 -0.6146
  908MOL0     H19824   4.444   3.579   9.729 -5.0663  1.5893  0.8807
  908MOL0     H19825   4.454   3.684   9.875 -1.9027 -1.4893  1.0250
  908MOL0     H19826   4.397   3.512  10.032 -1.4410  0.9547 -0.4075
  908MOL0     H19827   4.403   3.382   9.910 -1.5084 -0.1300 -3.6594
  908MOL0     H19828   4.246   3.627   9.834  4.3848  0.4229  1.1565
  908MOL0     H19829   4.215   3.455   9.816  0.0566  0.3402  0.0138
  908MOL0     H19830   4.053   3.611   9.964  1.4596  1.1395 -1.4520
  908MOL0     H19831   4.188   3.612  10.078  1.9757 -1.9396  0.3578
  908MOL0     H19832   4.045   3.444  10.167  0.9556  3.4037 -0.0268
  908MOL0     H19833   4.166   3.350  10.071 -2.7174 -2.6698  3.2246
  908MOL0     H19834   3.889   3.431  10.009  1.0552  0.4696 -0.4663
  908MOL0     H19835   3.990   3.363   9.869  2.3047 -4.3160  0.4091
  908MOL0     H19836   3.993   3.146   9.969  2.5772  1.2649  1.4428
  908MOL0     H19837   3.824   3.206   9.988 -0.3463  1.5601  0.3982
  908MOL0     H19838   4.863   3.631   9.590  1.5008 -0.3931 -1.2416
  908MOL0     H19839   5.111   3.662   9.624  0.0323 -0.1223 -0.2718
  908MOL0     H19840   5.411   3.656  10.077 -1.4024 -2.7215 -0.3749
  908MOL0     H19841   5.624   3.733  10.153 -0.2826  3.2548 -1.0583
  908MOL0     H19842   7.004   3.665  11.169  0.2728  1.2646  3.3002
  908MOL0     H19843   7.079   3.880  11.233 -0.7510 -1.8848  0.4233
  908MOL0     H19844   7.179   4.329  11.049  0.2723 -0.4942 -0.1379
  908MOL0     H19845   7.274   4.556  11.089 -0.9847  1.1499  1.6587
  908MOL0     H19846   7.703   4.575  11.213 -0.5568 -0.3172 -0.4526
  908MOL0     H19847   7.636   4.512  11.365  2.3615  0.8017 -0.5105
  908MOL0     H19848   7.760   4.743  11.400 -0.2594 -1.9216  2.6254
  908MOL0     H19849   7.663   4.803  11.272  1.7013  0.5858  0.2695
  908MOL0     H19850   7.566   4.666  11.535 -0.7668 -0.0500 -0.8820
  908MOL0     H19851   7.459   4.754  11.425 -0.2647 -1.8069 -0.8848
  908MOL0     H19852   7.686   4.872  11.595  0.0483  1.8775  1.0724
  908MOL0     H19853   7.582   4.976  11.496  1.9718  0.9611  0.6243
  908MOL0     H19854   7.386   4.949  11.843  1.0948  3.3368 -0.3956
  908MOL0     H19855   7.607   4.346  11.274 -1.5646 -0.0348  5.7699
  908MOL0     H19856   7.504   4.146  11.247  3.0572  0.6283 -1.0102
  909MOL0     O19857   0.090   0.497   9.040 -0.7834  0.9979 -0.9830
  909MOL0     C19858   0.133   0.565   8.950  0.1147 -0.5280  0.2707
  909MOL0     O19859   0.063   0.592   8.833 -0.2349 -0.0411 -0.2027
  909MOL0     C19860  -0.065   0.546   8.829 -0.2228 -1.3413 -0.1497
  909MOL0     C19861  -0.094   0.434   8.745  0.2907  0.2092  0.2947
  909MOL0     C19862  -0.216   0.376   8.741  0.3465  0.5156  0.4903
  909MOL0     C19863  -0.324   0.437   8.816 -0.2551  0.4952  0.6714
  909MOL0     O19864  -0.456   0.397   8.809 -0.5321  0.6191  0.2238
  909MOL0     C19865  -0.490   0.311   8.700  0.4308  0.5272  0.2403
  909MOL0     C19866  -0.640   0.316   8.684 -0.2520  0.6275  0.5773
  909MOL0     C19867  -0.693   0.218   8.584  0.2393 -0.3434  0.0748
  909MOL0     C19868  -0.849   0.212   8.595 -0.3056  1.0702  0.3673
  909MOL0     C19869  -0.907   0.087   8.518  0.2108 -0.0949  0.5514
  909MOL0     C19870  -1.058   0.081   8.524  0.0345  0.2412 -0.0101
  909MOL0     C19871  -1.121  -0.051   8.468 -0.4102  0.0425 -0.4479
  909MOL0     C19872  -1.117  -0.054   8.321  0.1067  0.1954  0.1409
  909MOL0     N19873  -1.169  -0.181   8.271  0.0192  0.1356  1.1806
  909MOL0     C19874  -1.302  -0.227   8.291 -0.0920  0.1436 -0.8837
  909MOL0     C19875  -1.314  -0.337   8.214  0.2988  0.0606  0.0929
  909MOL0     C19876  -1.436  -0.427   8.194  0.6721  0.1141  0.0690
  909MOL0     C19877  -1.446  -0.531   8.303 -0.1385 -0.7380  1.1399
  909MOL0     C19878  -1.588  -0.566   8.324 -0.1944 -0.9084 -0.6528
  909MOL0     C19879  -1.599  -0.673   8.434  0.5403  0.1612  0.1063
  909MOL0     O19880  -1.533  -0.642   8.558  0.0349  0.6398  0.2653
  909MOL0     C19881  -1.608  -0.591   8.664 -0.5883  0.0425  0.0050
  909MOL0     C19882  -1.744  -0.552   8.664 -0.1255  1.3831 -0.8853
  909MOL0     C19883  -1.809  -0.509   8.782  0.5039 -0.4187 -0.1100
  909MOL0     C19884  -1.725  -0.485   8.895  0.2753  0.2872 -0.0185
  909MOL0     C19885  -1.791  -0.418   9.009  0.5787  0.5549  0.6301
  909MOL0     O19886  -1.704  -0.334   9.072  0.0974 -0.4154  0.4767
  909MOL0     C19887  -1.738  -0.295   9.194  0.0026 -1.1433 -0.2644
  909MOL0     C19888  -1.800  -0.166   9.218 -0.5215  0.1823 -0.6043
  909MOL0     C19889  -1.809  -0.115   9.355  0.1192  0.1828  0.0276
  909MOL0     C19890  -1.779  -0.204   9.460 -0.3901 -0.1920 -0.4949
  909MOL0     O19891  -1.773  -0.180   9.594 -0.6456  0.3198 -0.4418
  909MOL0     C19892  -1.794  -0.046   9.634  0.4014 -0.0106 -0.0373
  909MOL0     C19893  -1.706  -0.022   9.752 -0.4348  1.1570  0.6073
  909MOL0     C19894  -1.563   0.004   9.709 -0.6658 -0.1816 -0.1475
  909MOL0     C19895  -1.487   0.050   9.843  0.0174  0.0068  0.3965
  909MOL0     C19896  -1.345   0.106   9.812  0.8784 -0.6745  0.9478
  909MOL0     C19897  -1.267   0.154   9.936 -0.3233  0.3411  0.9232
  909MOL0     C19898  -1.124   0.203   9.890  0.3354 -0.2997 -0.3503
  909MOL0     C19899  -1.049   0.273  10.008 -0.1645  0.1600  0.3549
  909MOL0    Cl19900  -1.117   0.417  10.071 -0.3607  0.1802 -0.0396
  909MOL0     C19901  -1.723  -0.330   9.432  0.6465  0.3316  0.2685
  909MOL0     C19902  -1.696  -0.377   9.301  1.2702  0.1374 -0.1619
  909MOL0     O19903  -1.912  -0.426   9.033 -0.1803  0.1298  0.7118
  909MOL0     C19904  -1.593  -0.526   8.900 -0.1565 -0.8812 -0.6965
  909MOL0     C19905  -1.537  -0.583   8.784  0.2009  0.7356  0.2880
  909MOL0     N19906  -1.196  -0.355   8.146 -0.0902  0.3938 -0.7558
  909MOL0     N19907  -1.106  -0.268   8.184 -0.7997  1.2397 -0.0176
  909MOL0     C19908  -0.294   0.548   8.897 -0.5687 -0.7069 -0.1274
  909MOL0     C19909  -0.171   0.605   8.902 -0.3405 -0.2351  0.5478
  909MOL0     C19910   0.249   0.632   8.969 -0.5448 -0.7415 -0.6499
  909MOL0     C19911   0.308   0.699   8.858 -0.3780 -0.5984 -0.6280
  909MOL0     C19912   0.435   0.765   8.877 -0.0441  0.6319 -0.2877
  909MOL0     C19913   0.492   0.762   9.007  0.2079 -0.2889  0.0778
  909MOL0     O19914   0.610   0.825   9.029  0.6994 -0.3500 -0.1334
  909MOL0     C19915   0.611   0.950   9.101  0.5605  0.1018  0.1090
  909MOL0     C19916   0.693   1.056   9.012  0.0984 -0.0218 -0.3313
  909MOL0     C19917   0.844   1.032   9.022  1.2391 -0.0972 -0.2417
  909MOL0     C19918   0.932   1.131   8.938 -0.7564  0.5222  0.2561
  909MOL0     C19919   0.881   1.140   8.802  1.1133  0.4491 -0.2583
  909MOL0     C19920   0.844   1.165   8.691  0.7691  0.6339  0.0456
  909MOL0     C19921   0.443   0.689   9.110 -0.0103  0.0027 -0.2985
  909MOL0     C19922   0.310   0.631   9.096 -0.9190  0.4354 -0.1757
  909MOL0     H19923  -0.020   0.387   8.681  0.3043  0.3422  0.2127
  909MOL0     H19924  -0.232   0.287   8.681 -0.3615  0.8847  0.1107
  909MOL0     H19925  -0.448   0.213   8.726  1.7584  1.6066  2.4341
  909MOL0     H19926  -0.451   0.333   8.600 -1.7230  1.5778 -0.4203
  909MOL0     H19927  -0.671   0.418   8.659  1.0480  0.8746 -0.1062
  909MOL0     H19928  -0.677   0.284   8.782  0.9909  1.5837  1.3845
  909MOL0     H19929  -0.655   0.117   8.602 -0.2515 -0.8639 -1.5949
  909MOL0     H19930  -0.669   0.259   8.486 -0.4610  0.3784  0.1916
  909MOL0     H19931  -0.882   0.201   8.699 -1.5653  2.0353  0.0951
  909MOL0     H19932  -0.893   0.301   8.549  3.3481  2.0046 -1.6920
  909MOL0     H19933  -0.868  -0.001   8.570 -1.3235 -0.4959  1.0633
  909MOL0     H19934  -0.883   0.088   8.411 -1.2998  1.1519  0.2062
  909MOL0     H19935  -1.108   0.158   8.465 -3.3035 -2.9467 -1.7869
  909MOL0     H19936  -1.078   0.091   8.631  2.0824  3.7677  0.1763
  909MOL0     H19937  -1.058  -0.129   8.511 -0.0765  0.9496  0.7584
  909MOL0     H19938  -1.224  -0.055   8.505 -0.0847 -1.4977  0.4044
  909MOL0     H19939  -1.011  -0.046   8.296 -0.0279 -0.6220 -0.7698
  909MOL0     H19940  -1.175   0.031   8.284 -0.5870 -0.5603 -0.5670
  909MOL0     H19941  -1.373  -0.183   8.360  3.5896 -1.2162  4.4130
  909MOL0     H19942  -1.435  -0.472   8.094  0.7910  2.6595 -1.1674
  909MOL0     H19943  -1.526  -0.364   8.191  2.0529  2.1888 -2.7793
  909MOL0     H19944  -1.409  -0.483   8.393  0.0044  2.9252 -0.6795
  909MOL0     H19945  -1.380  -0.616   8.283  2.8635  1.5786  0.4439
  909MOL0     H19946  -1.650  -0.479   8.347  0.1465 -1.0108  0.7314
  909MOL0     H19947  -1.630  -0.604   8.231  0.3123  0.8635 -1.6545
  909MOL0     H19948  -1.561  -0.770   8.400  1.5790  0.4998  0.2689
  909MOL0     H19949  -1.708  -0.685   8.444  0.8081 -1.3132  2.0134
  909MOL0     H19950  -1.819  -0.542   8.586 -1.9299  0.7829  0.6823
  909MOL0     H19951  -1.908  -0.467   8.770 -0.3252 -2.6103 -1.5187
  909MOL0     H19952  -1.831  -0.104   9.134  1.1175  0.4905 -1.0060
  909MOL0     H19953  -1.848  -0.019   9.389 -0.7522  0.0918 -0.7059
  909MOL0     H19954  -1.901  -0.036   9.656  0.0881 -0.2930 -1.3380
  909MOL0     H19955  -1.776   0.028   9.556 -0.3128  0.2006 -0.0105
  909MOL0     H19956  -1.699  -0.117   9.807 -0.2455 -0.0261 -1.3562
  909MOL0     H19957  -1.750   0.061   9.808  3.1916  2.3230  2.0216
  909MOL0     H19958  -1.564   0.095   9.647  1.3417  0.9154  1.3008
  909MOL0     H19959  -1.510  -0.078   9.660  0.7474  0.9171 -0.5433
  909MOL0     H19960  -1.548   0.125   9.894  0.8112  0.6951  0.3673
  909MOL0     H19961  -1.468  -0.035   9.909 -1.3053 -0.2581  0.4688
  909MOL0     H19962  -1.357   0.178   9.730 -0.7897 -1.5655  0.3653
  909MOL0     H19963  -1.289   0.020   9.772 -0.7716 -1.1971 -0.3444
  909MOL0     H19964  -1.272   0.066  10.001  1.7814  0.6694  1.6120
  909MOL0     H19965  -1.316   0.235   9.991 -1.2485 -1.2768  2.6285
  909MOL0     H19966  -1.058   0.125   9.849  1.5699  1.8660 -2.7376
  909MOL0     H19967  -1.132   0.271   9.805  0.6264  1.0099  0.6493
  909MOL0     H19968  -0.952   0.305   9.969 -1.6317  2.1033 -2.0048
  909MOL0     H19969  -1.042   0.189  10.077 -1.0063  0.3208  0.6489
  909MOL0     H19970  -1.675  -0.391   9.509  1.1072  0.3588  0.0106
  909MOL0     H19971  -1.647  -0.473   9.284  3.5566  1.0097  1.0415
  909MOL0     H19972  -1.536  -0.500   8.989 -1.2339  0.0879 -0.2613
  909MOL0     H19973  -1.433  -0.612   8.794 -0.5474 -2.5274 -0.4071
  909MOL0     H19974  -0.370   0.607   8.946 -0.1422  0.7817 -1.1882
  909MOL0     H19975  -0.150   0.688   8.969  0.2194  1.6319 -1.7962
  909MOL0     H19976   0.268   0.699   8.756 -0.3567  1.5221 -0.6688
  909MOL0     H19977   0.494   0.795   8.791  1.8306 -4.0965 -0.9723
  909MOL0     H19978   0.649   0.947   9.203 -1.6169  1.7029  1.0426
  909MOL0     H19979   0.508   0.985   9.113 -0.4844 -3.0344  1.3166
  909MOL0     H19980   0.673   1.053   8.904  0.7802  0.1818 -0.4688
  909MOL0     H19981   0.670   1.154   9.053 -3.2464 -0.2880 -1.3137
  909MOL0     H19982   0.861   0.929   8.989 -0.8088 -1.1363  1.6815
  909MOL0     H19983   0.872   1.047   9.127 -1.8876  1.1683  0.5196
  909MOL0     H19984   0.931   1.230   8.987 -0.1188 -0.0573  1.4924
  909MOL0     H19985   1.034   1.095   8.946 -1.3737 -1.3569  0.0878
  909MOL0     H19986   0.828   1.184   8.587  0.7841 -0.4382 -0.1723
  909MOL0     H19987   0.501   0.677   9.200  0.4621 -0.5536 -0.6649
  909MOL0     H19988   0.268   0.577   9.179 -2.4449  0.4555 -0.8984
  910MOL0     O19989   9.540   4.023   4.856 -0.1674  0.0183 -0.0526
  910MOL0     C19990   9.512   4.144   4.836  0.0881  0.4198  0.5299
  910MOL0     O19991   9.387   4.193   4.830  0.2211  0.1816  0.0916
  910MOL0     C19992   9.287   4.097   4.801 -0.1135  0.7630  0.4429
  910MOL0     C19993   9.187   4.082   4.896  0.0843 -0.3698  0.1531
  910MOL0     C19994   9.074   4.010   4.860 -0.0640  0.9098 -0.1314
  910MOL0     C19995   9.058   3.957   4.724 -0.0510  0.4429 -0.8228
  910MOL0     O19996   8.946   3.891   4.690  0.0383 -1.1413  0.5770
  910MOL0     C19997   8.844   3.869   4.788 -0.0587 -0.6382  0.1322
  910MOL0     C19998   8.729   3.803   4.732  0.4073 -0.2380  0.4408
  910MOL0     C19999   8.612   3.781   4.837  0.0577 -0.0195 -0.6825
  910MOL0     C20000   8.515   3.685   4.765  0.4313  0.3487 -0.0453
  910MOL0     C20001   8.383   3.645   4.841 -0.2699 -0.2195 -0.3329
  910MOL0     C20002   8.287   3.769   4.872  0.9817  0.2300 -0.4391
  910MOL0     C20003   8.180   3.713   4.972  0.4400 -0.0602  0.3835
  910MOL0     C20004   8.085   3.830   5.021 -0.2575 -0.3994  0.6600
  910MOL0     N20005   8.154   3.910   5.126 -0.2650 -0.4476  0.4940
  910MOL0     C20006   8.233   3.862   5.232  1.0739 -0.1556  0.1609
  910MOL0     C20007   8.259   3.968   5.312  0.2196 -0.0068  0.1508
  910MOL0     C20008   8.343   3.973   5.432  0.2469  0.5247  0.1173
  910MOL0     C20009   8.481   4.043   5.413 -0.3715  0.4118  0.9180
  910MOL0     C20010   8.478   4.199   5.410 -0.2391  0.7725  0.2059
  910MOL0     C20011   8.617   4.268   5.409 -0.1583  0.1412 -0.4359
  910MOL0     O20012   8.653   4.295   5.541  0.1848  0.3423  0.0758
  910MOL0     C20013   8.766   4.366   5.548 -0.4361 -0.6551 -0.5249
  910MOL0     C20014   8.839   4.428   5.444  0.8568  0.3215 -0.4025
  910MOL0     C20015   8.961   4.492   5.473 -0.8637 -1.0813  0.2693
  910MOL0     C20016   9.009   4.503   5.602 -0.6804  0.1783  0.1277
  910MOL0     C20017   9.137   4.569   5.627  0.0456 -0.3836 -0.2884
  910MOL0     O20018   9.198   4.637   5.526 -0.6083  0.0117 -0.3876
  910MOL0     C20019   9.320   4.699   5.542 -0.0776  0.3206  0.0785
  910MOL0     C20020   9.356   4.777   5.654  0.7817  0.4792  0.0935
  910MOL0     C20021   9.482   4.841   5.666  0.3449  1.0744 -0.1263
  910MOL0     C20022   9.567   4.839   5.556 -0.2966 -0.4927 -0.2110
  910MOL0     O20023   9.692   4.895   5.562 -0.5334 -0.3739  0.3555
  910MOL0     C20024   9.696   5.033   5.571  0.3001 -0.3276 -0.2384
  910MOL0     C20025   9.823   5.076   5.645  0.3134  1.3605 -0.1048
  910MOL0     C20026   9.950   5.057   5.554  0.3828 -0.0970 -0.5345
  910MOL0     C20027  10.081   5.080   5.625  0.9779  0.0503 -0.9880
  910MOL0     C20028  10.106   4.971   5.731 -0.6532 -0.3091  0.0144
  910MOL0     C20029  10.238   5.007   5.821 -0.9328 -0.2549 -0.6205
  910MOL0     C20030  10.278   4.900   5.922 -0.1341 -0.2468 -0.1178
  910MOL0     C20031  10.165   4.859   6.010 -0.9737 -0.3243  0.2043
  910MOL0    Cl20032  10.093   5.004   6.070  0.0427  0.4924 -0.3433
  910MOL0     C20033   9.532   4.754   5.449  0.3357  0.7046  1.8784
  910MOL0     C20034   9.410   4.682   5.444  0.3976 -0.2556  0.6009
  910MOL0     O20035   9.186   4.560   5.738 -0.5069  0.4405 -0.0638
  910MOL0     C20036   8.941   4.438   5.710  0.3343  0.2328  0.2325
  910MOL0     C20037   8.816   4.375   5.682  0.1915  0.2818 -0.2862
  910MOL0     N20038   8.202   4.086   5.256 -1.2535  0.2166  0.4425
  910MOL0     N20039   8.149   4.048   5.146  0.2830  0.9389 -0.1381
  910MOL0     C20040   9.165   3.959   4.637  0.3328  0.3946  0.3467
  910MOL0     C20041   9.266   4.048   4.668  0.4833  0.1390 -0.1191
  910MOL0     C20042   9.629   4.229   4.797 -0.2166  0.0356  0.7607
  910MOL0     C20043   9.617   4.362   4.741 -0.9153  0.7768 -0.9307
  910MOL0     C20044   9.733   4.435   4.721  0.3232  0.5113 -0.5945
  910MOL0     C20045   9.862   4.388   4.738 -0.6909 -0.5301 -0.5870
  910MOL0     O20046   9.967   4.479   4.709 -0.0651  0.4675 -0.0041
  910MOL0     C20047  10.064   4.435   4.610  0.0654 -0.1781 -0.5494
  910MOL0     C20048  10.196   4.403   4.665  1.2968  0.7417  0.3080
  910MOL0     C20049  10.285   4.356   4.558 -0.4182  0.5096  0.0257
  910MOL0     C20050  10.430   4.350   4.614  0.1351  0.4494 -0.7209
  910MOL0     C20051  10.451   4.253   4.721 -0.4757 -0.1932 -0.5796
  910MOL0     C20052  10.479   4.198   4.829 -0.1130  0.2385 -0.4992
  910MOL0     C20053   9.878   4.260   4.795 -0.3225 -0.5030 -0.0503
  910MOL0     C20054   9.762   4.185   4.822  0.8080  0.3143 -0.2529
  910MOL0     H20055   9.187   4.122   4.997 -2.4689 -0.6285  0.3179
  910MOL0     H20056   8.997   4.006   4.936 -0.7658  2.6143 -0.7012
  910MOL0     H20057   8.806   3.966   4.822  0.1171 -0.1299 -1.0730
  910MOL0     H20058   8.880   3.808   4.871 -0.3019 -2.2492 -0.9029
  910MOL0     H20059   8.769   3.712   4.687 -0.3595 -0.1010 -0.5664
  910MOL0     H20060   8.691   3.857   4.645  2.7852 -1.0829 -1.2197
  910MOL0     H20061   8.571   3.876   4.871 -1.4156 -0.8787  0.0268
  910MOL0     H20062   8.657   3.728   4.921  0.5237  0.8076 -0.3981
  910MOL0     H20063   8.484   3.719   4.666 -0.5358 -0.9948 -0.2329
  910MOL0     H20064   8.567   3.590   4.748 -1.1459 -0.2840 -1.6605
  910MOL0     H20065   8.408   3.613   4.942 -1.7976  2.5910  1.0608
  910MOL0     H20066   8.340   3.565   4.780  0.3265 -0.0152 -1.0435
  910MOL0     H20067   8.237   3.792   4.778  0.7819 -2.4669 -1.0817
  910MOL0     H20068   8.352   3.849   4.909  0.7013  0.1092  0.3487
  910MOL0     H20069   8.105   3.652   4.923  0.1071  0.9011 -0.3463
  910MOL0     H20070   8.222   3.657   5.055  2.9618 -0.7909 -1.2577
  910MOL0     H20071   7.987   3.795   5.055  0.2579 -1.6888  0.8542
  910MOL0     H20072   8.070   3.904   4.942  1.5818  1.8798  2.2688
  910MOL0     H20073   8.270   3.761   5.250 -1.0912 -0.9064  0.7353
  910MOL0     H20074   8.348   3.866   5.456 -1.9078  0.4532  0.4869
  910MOL0     H20075   8.293   4.021   5.516 -1.1727  0.3713 -0.6120
  910MOL0     H20076   8.528   4.008   5.321 -1.1935  1.4365  0.0780
  910MOL0     H20077   8.553   4.013   5.490 -0.5123  2.2780  1.8293
  910MOL0     H20078   8.434   4.227   5.314 -0.3993  1.1844  0.3960
  910MOL0     H20079   8.412   4.235   5.489 -0.0090  2.4575 -0.3201
  910MOL0     H20080   8.598   4.361   5.355 -1.9727 -0.7405 -1.3942
  910MOL0     H20081   8.690   4.205   5.356 -0.2563  0.3142 -0.7816
  910MOL0     H20082   8.803   4.450   5.344  3.2530 -0.8646 -1.5921
  910MOL0     H20083   9.017   4.538   5.391 -1.7988 -1.2983 -0.5047
  910MOL0     H20084   9.283   4.798   5.732 -1.6647 -0.6968 -1.7781
  910MOL0     H20085   9.502   4.893   5.759  2.6211  1.6522 -0.8868
  910MOL0     H20086   9.606   5.069   5.621  0.7666  0.8948 -0.2537
  910MOL0     H20087   9.698   5.079   5.472  3.8922 -2.9119 -1.5853
  910MOL0     H20088   9.833   5.016   5.736 -0.4411 -0.1816 -0.9974
  910MOL0     H20089   9.836   5.178   5.682  5.1445  0.3793  1.7190
  910MOL0     H20090   9.937   5.129   5.473  2.7404 -1.8290 -2.5829
  910MOL0     H20091   9.956   4.961   5.503  2.2076 -0.1968 -0.2132
  910MOL0     H20092  10.161   5.078   5.551  1.5157 -0.0732 -0.4110
  910MOL0     H20093  10.087   5.173   5.683 -2.0925 -0.3825  0.2050
  910MOL0     H20094  10.138   4.881   5.677  0.6615 -0.8639  1.6536
  910MOL0     H20095  10.016   4.951   5.790  1.0065 -0.1293  2.7761
  910MOL0     H20096  10.250   5.103   5.874  2.6268  0.6220 -2.6801
  910MOL0     H20097  10.324   5.001   5.753  0.1540 -1.0392  0.7672
  910MOL0     H20098  10.325   4.810   5.881 -0.5624 -1.7326  2.4352
  910MOL0     H20099  10.357   4.957   5.972  1.1584  1.5767 -3.8332
  910MOL0     H20100  10.203   4.800   6.094 -1.1884 -1.1835 -0.2987
  910MOL0     H20101  10.088   4.807   5.954 -0.1223  1.1175 -2.4998
  910MOL0     H20102   9.595   4.737   5.362 -4.1881 -1.2053 -1.4354
  910MOL0     H20103   9.381   4.618   5.362  0.7561 -0.0197  0.2854
  910MOL0     H20104   8.966   4.449   5.815  0.9363  0.3356  0.0832
  910MOL0     H20105   8.753   4.329   5.757 -2.5806  3.0744 -0.7208
  910MOL0     H20106   9.155   3.912   4.539 -1.0303 -2.4181  1.7035
  910MOL0     H20107   9.340   4.081   4.596  0.0578 -1.0975 -1.1662
  910MOL0     H20108   9.525   4.418   4.731 -0.2650  2.3485  1.0471
  910MOL0     H20109   9.725   4.533   4.675  1.2057 -0.2989 -2.5809
  910MOL0     H20110  10.071   4.506   4.527 -1.3318 -2.1153 -2.4547
  910MOL0     H20111  10.022   4.350   4.555 -1.1586 -0.4005  0.6697
  910MOL0     H20112  10.233   4.491   4.719  1.2228  0.0723  1.4777
  910MOL0     H20113  10.177   4.320   4.735 -0.9754 -0.7548 -1.9127
  910MOL0     H20114  10.286   4.424   4.473 -1.4785  2.3108  1.3763
  910MOL0     H20115  10.258   4.256   4.523 -1.3137  0.6529  0.2945
  910MOL0     H20116  10.494   4.321   4.530  2.6240  3.2484  0.0229
  910MOL0     H20117  10.470   4.447   4.645  1.7797  0.8526 -3.7242
  910MOL0     H20118  10.491   4.144   4.921 -1.3441  0.2130 -0.3417
  910MOL0     H20119   9.976   4.221   4.819  0.4962  1.2543 -0.3893
  910MOL0     H20120   9.787   4.086   4.859  3.0507  1.1747  0.7090
  911MOL0     O20121   5.964   7.377   4.857  0.2304 -0.4644 -0.3979
  911MOL0     C20122   5.995   7.492   4.898  0.8283  0.6373  0.1684
  911MOL0     O20123   5.911   7.575   4.965  0.1121 -0.1363 -0.0129
  911MOL0     C20124   5.791   7.527   5.000  0.7333 -1.2357  0.2579
  911MOL0     C20125   5.760   7.483   5.129 -0.3455 -0.4819  0.3530
  911MOL0     C20126   5.630   7.436   5.161 -0.0707  0.0997  0.2815
  911MOL0     C20127   5.528   7.445   5.073  0.1956  0.0283 -0.7056
  911MOL0     O20128   5.416   7.382   5.113  0.1856  0.1601 -0.0975
  911MOL0     C20129   5.309   7.348   5.013  0.2264 -0.6443  0.1849
  911MOL0     C20130   5.212   7.235   5.049 -0.0405  0.3420 -0.1172
  911MOL0     C20131   5.096   7.239   4.949  0.1379 -0.0077  0.1925
  911MOL0     C20132   4.975   7.161   4.999 -0.0618  0.3969 -0.0260
  911MOL0     C20133   4.869   7.152   4.893  0.2980  0.1198 -0.4578
  911MOL0     C20134   4.799   7.278   4.861  0.0630 -0.0829  0.2525
  911MOL0     C20135   4.666   7.258   4.792 -1.3212 -0.0141 -0.0336
  911MOL0     C20136   4.563   7.225   4.911  0.5412  0.2219 -0.5396
  911MOL0     N20137   4.419   7.237   4.870 -0.9713 -0.7580  0.0279
  911MOL0     C20138   4.355   7.160   4.779 -0.3007  0.2763 -0.7833
  911MOL0     C20139   4.228   7.209   4.777 -0.2134 -0.6718 -0.3783
  911MOL0     C20140   4.121   7.156   4.686 -0.1249  0.4458 -0.0078
  911MOL0     C20141   4.019   7.252   4.627  0.7940 -0.2460 -0.2621
  911MOL0     C20142   3.912   7.185   4.539  0.1900 -1.3723 -0.2242
  911MOL0     C20143   3.850   7.283   4.447 -0.1700 -0.7113  0.1541
  911MOL0     O20144   3.777   7.391   4.505  0.2286  0.3909  0.3137
  911MOL0     C20145   3.643   7.376   4.536 -0.0692 -0.5449 -0.7951
  911MOL0     C20146   3.562   7.277   4.497  0.1152  0.1352 -0.0227
  911MOL0     C20147   3.429   7.278   4.534  0.0669 -0.0325 -1.1604
  911MOL0     C20148   3.379   7.372   4.636  1.1646  1.1220 -0.4849
  911MOL0     C20149   3.244   7.359   4.685 -0.4161  0.5307  0.6213
  911MOL0     O20150   3.228   7.391   4.813 -0.3227 -0.2661 -0.3423
  911MOL0     C20151   3.110   7.381   4.875  0.3942 -0.3079 -0.3996
  911MOL0     C20152   3.097   7.282   4.974 -0.2133 -0.0299 -0.6547
  911MOL0     C20153   2.974   7.259   5.039  0.8436 -0.2088 -0.2849
  911MOL0     C20154   2.862   7.335   5.006 -0.3254  0.6854 -0.4668
  911MOL0     O20155   2.752   7.305   5.081 -0.0323  0.5222 -1.0673
  911MOL0     C20156   2.630   7.372   5.045  0.3161  0.0045 -0.2809
  911MOL0     C20157   2.523   7.276   5.098 -0.0749  0.8274 -0.0128
  911MOL0     C20158   2.491   7.276   5.249 -0.2807 -0.4008  0.2576
  911MOL0     C20159   2.382   7.179   5.291 -0.3776 -0.2298  0.0039
  911MOL0     C20160   2.345   7.188   5.440 -0.4865 -0.4148 -0.0573
  911MOL0     C20161   2.228   7.097   5.489 -1.3631  0.4033  0.2549
  911MOL0     C20162   2.092   7.115   5.417 -0.5654  0.2746  0.4562
  911MOL0     C20163   1.993   7.014   5.458  0.5073  0.8616 -0.1566
  911MOL0    Cl20164   1.836   7.037   5.375 -0.1075  0.3509  0.2784
  911MOL0     C20165   2.875   7.438   4.913  0.0865  1.1842 -0.0716
  911MOL0     C20166   2.996   7.463   4.848 -0.0517 -0.3916 -0.6390
  911MOL0     O20167   3.153   7.309   4.620 -0.4706  0.2934  0.4456
  911MOL0     C20168   3.470   7.457   4.687  0.0070 -0.7302  0.5122
  911MOL0     C20169   3.600   7.461   4.639  0.6823 -0.0476 -0.8156
  911MOL0     N20170   4.220   7.306   4.878  0.2068  0.1585  0.3044
  911MOL0     N20171   4.339   7.325   4.931  0.5027  0.1826 -0.1431
  911MOL0     C20172   5.555   7.501   4.945  0.4528 -0.9473  1.5816
  911MOL0     C20173   5.682   7.544   4.911  0.4940  0.5953  0.7409
  911MOL0     C20174   6.119   7.555   4.848  0.4200  0.0481  0.6563
  911MOL0     C20175   6.141   7.691   4.861  0.8211 -0.1976  0.6438
  911MOL0     C20176   6.254   7.754   4.817 -0.5005  0.4229  0.0321
  911MOL0     C20177   6.357   7.682   4.763 -0.1754  0.4708  1.0349
  911MOL0     O20178   6.460   7.746   4.710  0.6198 -0.6462 -0.4429
  911MOL0     C20179   6.454   7.740   4.565 -0.8107 -0.3529 -0.3901
  911MOL0     C20180   6.575   7.816   4.509  0.6108 -0.0510  0.7919
  911MOL0     C20181   6.719   7.790   4.567 -0.5184  0.1460  0.0236
  911MOL0     C20182   6.775   7.658   4.525  0.1950 -0.6017  0.2477
  911MOL0     C20183   6.825   7.659   4.387  0.5491 -0.5642 -0.4258
  911MOL0     C20184   6.863   7.663   4.272  0.6557 -0.4611 -0.1546
  911MOL0     C20185   6.347   7.539   4.756  0.3280 -0.3445 -0.2539
  911MOL0     C20186   6.223   7.478   4.796 -0.6006  0.2363  0.3856
  911MOL0     H20187   5.833   7.492   5.209  0.1648 -2.2383  0.1249
  911MOL0     H20188   5.612   7.394   5.260  0.5757 -0.3030  0.2318
  911MOL0     H20189   5.347   7.323   4.914 -2.3238  0.1162 -1.0771
  911MOL0     H20190   5.248   7.436   4.991 -3.5915 -2.5997  1.9321
  911MOL0     H20191   5.171   7.256   5.148 -0.9464  1.4971 -0.7003
  911MOL0     H20192   5.264   7.140   5.055 -2.2903 -0.8953  1.0591
  911MOL0     H20193   5.120   7.190   4.854  0.7953  0.0171  0.3372
  911MOL0     H20194   5.077   7.342   4.919 -2.1465 -0.0652  1.2412
  911MOL0     H20195   5.006   7.059   5.025  0.0804  0.2234 -0.8321
  911MOL0     H20196   4.930   7.206   5.088 -2.4012 -0.1412 -0.8542
  911MOL0     H20197   4.793   7.087   4.936 -2.2400  1.7556 -2.1500
  911MOL0     H20198   4.908   7.101   4.805  1.1738 -1.8519  1.0035
  911MOL0     H20199   4.864   7.340   4.798 -1.8696  0.5859 -1.1881
  911MOL0     H20200   4.793   7.335   4.954  3.3679 -0.5855  0.9001
  911MOL0     H20201   4.633   7.346   4.737 -3.2496  0.2214  1.3749
  911MOL0     H20202   4.659   7.171   4.725 -2.7132 -1.2383  1.5896
  911MOL0     H20203   4.580   7.291   4.996 -0.7523  1.0668 -0.9053
  911MOL0     H20204   4.579   7.128   4.958  1.3409 -0.3446 -1.9335
  911MOL0     H20205   4.397   7.080   4.719 -0.3992 -1.8529  1.8175
  911MOL0     H20206   4.070   7.094   4.760 -1.0076 -0.7547 -1.5510
  911MOL0     H20207   4.172   7.102   4.605  1.6119 -1.6928  2.3732
  911MOL0     H20208   4.069   7.336   4.578  1.5938 -0.1945  0.6152
  911MOL0     H20209   3.968   7.301   4.710  1.3605  1.6661 -0.9823
  911MOL0     H20210   3.973   7.119   4.477  0.7619 -0.3326 -0.7711
  911MOL0     H20211   3.833   7.133   4.595  0.3726  0.4790  1.8820
  911MOL0     H20212   3.800   7.232   4.364  0.4027 -0.3377 -0.4252
  911MOL0     H20213   3.936   7.334   4.403  2.1104  1.1550  5.7901
  911MOL0     H20214   3.593   7.197   4.431 -0.9774 -1.0754  0.8566
  911MOL0     H20215   3.358   7.208   4.491  0.5569 -1.1557 -0.1948
  911MOL0     H20216   3.187   7.225   4.995  2.1766  1.9324 -4.4428
  911MOL0     H20217   2.964   7.183   5.115  3.0305  1.0895  1.4009
  911MOL0     H20218   2.620   7.389   4.937  1.8657 -0.1024 -0.4612
  911MOL0     H20219   2.614   7.467   5.096 -2.7201 -0.2221 -0.6579
  911MOL0     H20220   2.553   7.174   5.073 -0.5721  0.4031  1.0246
  911MOL0     H20221   2.431   7.298   5.043 -0.6278  0.8701  0.9092
  911MOL0     H20222   2.459   7.376   5.278 -1.7198 -1.4561  2.5652
  911MOL0     H20223   2.580   7.252   5.307 -2.2874 -2.7428  2.6480
  911MOL0     H20224   2.293   7.202   5.232  0.4209  1.2691 -0.6801
  911MOL0     H20225   2.412   7.076   5.271  3.4806  0.6964  0.0920
  911MOL0     H20226   2.322   7.291   5.469 -0.6924 -1.2946  3.3362
  911MOL0     H20227   2.437   7.164   5.495  0.6936 -0.2565 -1.9031
  911MOL0     H20228   2.218   7.117   5.596 -1.4293  0.2079  0.2863
  911MOL0     H20229   2.247   6.990   5.476  1.9075  0.6235  2.3478
  911MOL0     H20230   2.062   7.220   5.423  0.4121  0.5867  0.1940
  911MOL0     H20231   2.109   7.116   5.309 -1.4843 -0.2682  0.3027
  911MOL0     H20232   1.972   7.033   5.563  0.4954  1.3340 -0.2381
  911MOL0     H20233   2.038   6.916   5.443  1.9127  1.9636 -4.7403
  911MOL0     H20234   2.786   7.501   4.909 -0.8142 -0.0874 -0.7753
  911MOL0     H20235   3.008   7.546   4.779 -1.0425 -0.1863 -0.5776
  911MOL0     H20236   3.435   7.524   4.765  2.1358  0.5979  0.3931
  911MOL0     H20237   3.666   7.533   4.687  0.6159 -0.5608  0.0802
  911MOL0     H20238   5.482   7.512   4.865  1.0670 -0.8054  1.0331
  911MOL0     H20239   5.697   7.587   4.812  0.6513  1.7810  1.2607
  911MOL0     H20240   6.071   7.761   4.906  1.4734  2.5618 -2.2296
  911MOL0     H20241   6.243   7.862   4.819 -1.1221  0.3865 -0.6563
  911MOL0     H20242   6.362   7.793   4.538 -0.2153  0.2018 -1.4126
  911MOL0     H20243   6.454   7.639   4.524  1.3993  0.0520 -1.5513
  911MOL0     H20244   6.580   7.804   4.400 -3.2327 -1.2912  0.5681
  911MOL0     H20245   6.559   7.922   4.530  0.6106  0.2779 -0.7317
  911MOL0     H20246   6.707   7.798   4.675  0.2103  1.8618  0.0043
  911MOL0     H20247   6.782   7.872   4.532 -0.1653 -0.8215 -1.7482
  911MOL0     H20248   6.861   7.621   4.583  1.3598  1.3575 -0.1282
  911MOL0     H20249   6.694   7.585   4.532  0.8269 -1.3616 -0.1587
  911MOL0     H20250   6.909   7.683   4.177  1.0243  0.2173  0.1606
  911MOL0     H20251   6.411   7.473   4.698  0.6603  0.4899 -0.8410
  911MOL0     H20252   6.201   7.371   4.792  1.3230 -0.1825 -0.7301
  912MOL0     O20253   4.140   2.237   4.333 -0.7250 -0.1655 -0.0365
  912MOL0     C20254   4.189   2.123   4.353  0.4588  0.0589 -0.0448
  912MOL0     O20255   4.146   2.007   4.299 -0.3072  0.1891  0.1127
  912MOL0     C20256   4.019   1.992   4.250 -0.7172 -0.1836 -0.2586
  912MOL0     C20257   3.907   2.029   4.316  1.2912  1.0128  0.9553
  912MOL0     C20258   3.781   1.996   4.256 -0.4939  0.4087 -0.0782
  912MOL0     C20259   3.774   1.922   4.135  0.8083 -0.0515  0.1278
  912MOL0     O20260   3.651   1.890   4.082 -0.3169  0.2564 -0.3086
  912MOL0     C20261   3.544   1.876   4.181  0.0437  0.1153 -0.1420
  912MOL0     C20262   3.414   1.854   4.101  0.7324 -0.1488 -1.1004
  912MOL0     C20263   3.307   1.774   4.181  0.1272  0.4995  0.4795
  912MOL0     C20264   3.188   1.778   4.093  0.0870  0.6300 -0.0512
  912MOL0     C20265   3.074   1.692   4.141 -0.2205  0.0068  0.8584
  912MOL0     C20266   2.974   1.688   4.023  0.1300 -0.6831  0.4783
  912MOL0     C20267   2.846   1.607   4.052 -0.8597  0.4326 -0.1218
  912MOL0     C20268   2.873   1.454   4.041  0.7267 -0.4537 -0.0435
  912MOL0     N20269   2.747   1.378   4.041  0.4179 -0.3104 -0.0430
  912MOL0     C20270   2.645   1.396   3.958 -0.1478 -0.2839  0.2353
  912MOL0     C20271   2.584   1.277   3.957 -0.3953  0.3454  0.8620
  912MOL0     C20272   2.456   1.252   3.878 -0.1662 -0.8616 -0.7595
  912MOL0     C20273   2.420   1.103   3.861  0.3309 -0.5447  0.1431
  912MOL0     C20274   2.335   1.085   3.738  0.4664  0.3227  0.3284
  912MOL0     C20275   2.311   0.934   3.718  0.4304 -0.5125 -0.6160
  912MOL0     O20276   2.227   0.895   3.826 -0.8647 -0.4201  0.6476
  912MOL0     C20277   2.092   0.928   3.807 -0.1870 -0.2075 -1.1374
  912MOL0     C20278   2.017   0.928   3.927  0.3049 -0.1876 -0.1632
  912MOL0     C20279   1.882   0.975   3.928 -0.5732 -0.8723 -0.5356
  912MOL0     C20280   1.822   1.013   3.804  0.8619  0.3825 -0.6600
  912MOL0     C20281   1.681   1.052   3.811 -0.7515 -0.5715 -0.4109
  912MOL0     O20282   1.614   1.085   3.694  0.5898 -0.3329  0.5051
  912MOL0     C20283   1.484   1.150   3.703 -0.5429  0.7561 -0.0537
  912MOL0     C20284   1.369   1.074   3.714  0.2181 -0.0423  0.3930
  912MOL0     C20285   1.250   1.134   3.739  0.0284 -0.7196 -1.0661
  912MOL0     C20286   1.228   1.270   3.727 -0.3443 -0.1729  0.2384
  912MOL0     O20287   1.095   1.307   3.740 -0.1479  0.4921  0.0827
  912MOL0     C20288   1.047   1.440   3.721  0.1938  0.1422 -0.0039
  912MOL0     C20289   1.055   1.519   3.851 -0.6120  0.1800  0.0962
  912MOL0     C20290   1.074   1.672   3.822 -0.2657 -0.2667 -0.3882
  912MOL0     C20291   0.951   1.728   3.745 -1.0403 -0.2261  0.4402
  912MOL0     C20292   0.969   1.879   3.723  0.4583 -0.2108 -0.4580
  912MOL0     C20293   1.075   1.917   3.618  0.0839 -1.0380  0.4498
  912MOL0     C20294   1.050   2.064   3.560 -0.1407 -0.2869  0.2954
  912MOL0     C20295   1.174   2.122   3.490 -0.0845  0.1270  0.3249
  912MOL0    Cl20296   1.252   2.001   3.368  0.0635  0.2234 -0.0419
  912MOL0     C20297   1.349   1.349   3.713  0.3955 -0.1449  0.3059
  912MOL0     C20298   1.472   1.290   3.700  0.4125 -0.4279  0.1442
  912MOL0     O20299   1.628   1.045   3.919 -0.0277 -0.0567 -0.7581
  912MOL0     C20300   1.892   1.016   3.684 -0.3865  0.0988  0.4368
  912MOL0     C20301   2.023   0.972   3.685 -0.1431  0.0449  0.1087
  912MOL0     N20302   2.644   1.192   4.050  0.3920 -0.1875  0.2952
  912MOL0     N20303   2.749   1.256   4.098  0.0770 -0.4438 -0.3026
  912MOL0     C20304   3.891   1.895   4.064  0.3158 -0.0038  0.6097
  912MOL0     C20305   4.013   1.921   4.128 -0.2480  0.9110 -0.7270
  912MOL0     C20306   4.321   2.126   4.418 -1.1970 -0.3082  0.0697
  912MOL0     C20307   4.392   2.012   4.461  0.0172  0.4594 -0.0293
  912MOL0     C20308   4.526   2.018   4.502  0.2323  0.0822  1.0176
  912MOL0     C20309   4.590   2.142   4.517 -0.3269  0.1045 -0.3474
  912MOL0     O20310   4.712   2.168   4.568  0.4550 -0.2918 -0.0747
  912MOL0     C20311   4.809   2.073   4.590  0.1525 -0.5995  0.1144
  912MOL0     C20312   4.931   2.152   4.656  0.6238 -0.2352  0.3183
  912MOL0     C20313   5.055   2.061   4.682 -0.7696  1.1551  0.6317
  912MOL0     C20314   5.027   1.928   4.742  0.0487 -0.2375  1.3135
  912MOL0     C20315   4.975   1.934   4.880  0.2700  0.0232  0.3920
  912MOL0     C20316   4.921   1.946   4.984  0.1866  0.0142 -0.4435
  912MOL0     C20317   4.518   2.252   4.485  0.0331  0.1926 -0.0655
  912MOL0     C20318   4.390   2.250   4.430 -0.3270  0.0841  0.5246
  912MOL0     H20319   3.914   2.073   4.415 -1.7888  2.3599  0.7022
  912MOL0     H20320   3.702   2.035   4.319 -0.6056  0.1564 -0.0578
  912MOL0     H20321   3.525   1.966   4.240 -2.1290  1.0671 -2.1080
  912MOL0     H20322   3.570   1.794   4.248  0.3862 -0.3385 -0.8194
  912MOL0     H20323   3.438   1.804   4.007 -0.1145 -0.2807 -1.2566
  912MOL0     H20324   3.370   1.953   4.088 -1.1423 -0.5396  1.4487
  912MOL0     H20325   3.284   1.817   4.279 -0.6529 -4.2017  2.6380
  912MOL0     H20326   3.350   1.677   4.207  0.5384  0.5529  0.0225
  912MOL0     H20327   3.163   1.884   4.083  3.8788  1.8834  1.8865
  912MOL0     H20328   3.212   1.733   3.996 -0.4064 -0.0316  0.1306
  912MOL0     H20329   3.026   1.728   4.232 -0.2817 -0.8245  1.1665
  912MOL0     H20330   3.119   1.593   4.158 -0.1784  0.1421  1.5582
  912MOL0     H20331   3.014   1.647   3.930  1.2877  1.3098  0.0431
  912MOL0     H20332   2.945   1.791   4.003 -0.8543 -1.1285 -0.4988
  912MOL0     H20333   2.820   1.638   4.154  1.4279  0.3679  0.5441
  912MOL0     H20334   2.769   1.645   3.986 -0.8769  1.0758  0.2602
  912MOL0     H20335   2.934   1.426   4.127  0.4809  1.1209  0.6849
  912MOL0     H20336   2.924   1.443   3.945  2.0137  0.5168  0.4985
  912MOL0     H20337   2.621   1.484   3.899  0.8265 -1.1664 -1.5444
  912MOL0     H20338   2.458   1.309   3.785 -3.1412  0.4566 -0.1338
  912MOL0     H20339   2.376   1.299   3.935  0.9033  1.1268 -0.7849
  912MOL0     H20340   2.359   1.076   3.948 -0.1824 -0.2887 -0.1334
  912MOL0     H20341   2.502   1.030   3.857  0.3031 -0.5145 -2.2066
  912MOL0     H20342   2.239   1.137   3.740  1.0165  1.3740  0.0155
  912MOL0     H20343   2.390   1.121   3.650  1.1264  1.0379  1.0187
  912MOL0     H20344   2.404   0.877   3.723  0.5871 -0.3419 -1.5280
  912MOL0     H20345   2.273   0.906   3.620 -0.0180 -1.1854 -0.2640
  912MOL0     H20346   2.057   0.915   4.027 -0.8383  1.3630  0.5366
  912MOL0     H20347   1.824   0.978   4.020 -0.5568  0.2159 -0.5455
  912MOL0     H20348   1.375   0.966   3.706 -0.8215 -0.1862  1.3311
  912MOL0     H20349   1.160   1.077   3.757 -0.7201  1.2105  1.9611
  912MOL0     H20350   0.941   1.435   3.697  0.3039 -0.0016 -0.4649
  912MOL0     H20351   1.093   1.492   3.637 -0.0289  2.1817  1.0620
  912MOL0     H20352   1.136   1.484   3.916 -0.3866  2.5246  1.1749
  912MOL0     H20353   0.964   1.502   3.911 -2.3951  1.6599 -2.0504
  912MOL0     H20354   1.163   1.676   3.757  0.5767 -2.5891  0.5205
  912MOL0     H20355   1.095   1.731   3.911 -0.7355  2.0340 -1.7164
  912MOL0     H20356   0.938   1.680   3.647  0.9615 -1.9788  0.9684
  912MOL0     H20357   0.859   1.716   3.803  0.1543  0.3153  2.5619
  912MOL0     H20358   1.000   1.931   3.814 -1.1793  0.4547 -0.2361
  912MOL0     H20359   0.870   1.916   3.693 -0.2150  0.5470  2.3515
  912MOL0     H20360   1.063   1.851   3.531 -1.4232  2.3072 -2.1349
  912MOL0     H20361   1.175   1.913   3.663  0.5046  3.3032  0.3272
  912MOL0     H20362   0.969   2.062   3.486  0.6029 -6.0499 -0.8387
  912MOL0     H20363   1.005   2.127   3.637  1.4234  0.4870  0.6073
  912MOL0     H20364   1.252   2.150   3.562  0.6603  0.3947 -0.5708
  912MOL0     H20365   1.146   2.217   3.445  0.1960 -0.2551 -0.6989
  912MOL0     H20366   1.343   1.457   3.701 -0.3980 -0.3401 -1.3925
  912MOL0     H20367   1.560   1.353   3.705 -1.3389  2.1026  2.8511
  912MOL0     H20368   1.852   1.045   3.588 -0.2491 -1.6941 -0.2021
  912MOL0     H20369   2.064   0.961   3.585 -1.0163 -2.1651 -0.0661
  912MOL0     H20370   3.888   1.842   3.970  1.1466 -0.3689  0.7800
  912MOL0     H20371   4.107   1.887   4.088 -1.0326 -3.0071  0.4042
  912MOL0     H20372   4.344   1.916   4.444  1.5008 -0.1396 -0.9686
  912MOL0     H20373   4.573   1.921   4.514 -1.5190 -0.6325  2.6309
  912MOL0     H20374   4.826   2.023   4.495 -2.0546 -1.6318  0.2152
  912MOL0     H20375   4.762   2.006   4.663 -3.3528  1.1907 -0.3019
  912MOL0     H20376   4.969   2.236   4.598 -1.8220  1.3507  0.8688
  912MOL0     H20377   4.904   2.193   4.754  2.4923  1.3834  0.2125
  912MOL0     H20378   5.130   2.106   4.748 -1.2829  2.1434  0.5697
  912MOL0     H20379   5.114   2.048   4.591 -2.9280  1.0844 -0.8323
  912MOL0     H20380   4.968   1.872   4.669  1.2922 -2.1372  1.6961
  912MOL0     H20381   5.129   1.887   4.744  0.1734 -0.5203 -2.7398
  912MOL0     H20382   4.866   1.959   5.075  0.8556  3.6781 -0.4137
  912MOL0     H20383   4.562   2.350   4.501 -0.5211  0.4744 -0.2450
  912MOL0     H20384   4.350   2.347   4.401  0.2381 -0.0114 -0.6322
  913MOL0     O20385   7.322   8.561   2.055 -0.5526 -0.0968  0.0650
  913MOL0     C20386   7.435   8.597   2.081 -1.0056  0.0823 -0.3120
  913MOL0     O20387   7.476   8.665   2.196  0.1849  0.7405  0.2393
  913MOL0     C20388   7.382   8.718   2.279  0.3520  0.7995  0.4076
  913MOL0     C20389   7.388   8.685   2.410 -0.1495 -0.4143  1.1120
  913MOL0     C20390   7.295   8.743   2.500  0.4155  1.0458 -0.0361
  913MOL0     C20391   7.190   8.826   2.458 -0.0955  0.2781  0.2910
  913MOL0     O20392   7.094   8.884   2.543 -0.9947  0.0724 -0.1115
  913MOL0     C20393   7.100   8.847   2.684  1.6687 -0.7747 -1.1454
  913MOL0     C20394   7.003   8.942   2.766  0.2893 -0.4299  0.2912
  913MOL0     C20395   6.855   8.924   2.721  0.4610 -0.1347 -0.5532
  913MOL0     C20396   6.768   9.009   2.821 -0.4894 -0.6211  1.2531
  913MOL0     C20397   6.618   8.966   2.835 -0.3844  0.0653  0.0576
  913MOL0     C20398   6.555   8.955   2.698 -0.2635  1.4267  0.0428
  913MOL0     C20399   6.408   8.992   2.695 -0.2984  0.9487 -0.3218
  913MOL0     C20400   6.323   8.909   2.798  0.3406  0.3489  0.5123
  913MOL0     N20401   6.177   8.923   2.787 -0.1525 -0.2662  0.0350
  913MOL0     C20402   6.096   8.938   2.676 -0.2008  0.0429  0.4255
  913MOL0     C20403   5.968   8.955   2.721  0.5892 -0.7113  0.1827
  913MOL0     C20404   5.843   8.984   2.636 -0.2732 -0.4860 -0.2291
  913MOL0     C20405   5.779   9.112   2.679  0.4396 -0.4779  0.3289
  913MOL0     C20406   5.877   9.236   2.648  0.4209  0.1268  0.2622
  913MOL0     C20407   5.895   9.258   2.500 -0.2292 -0.3004 -0.6876
  913MOL0     O20408   5.940   9.394   2.475  0.3620 -0.7662 -0.6407
  913MOL0     C20409   6.073   9.408   2.496 -0.0430 -0.6019  0.2714
  913MOL0     C20410   6.120   9.456   2.620 -0.1204 -0.0725 -0.2060
  913MOL0     C20411   6.257   9.468   2.649  0.6709  0.2912 -1.2540
  913MOL0     C20412   6.352   9.422   2.556  0.4855  0.0832 -0.0241
  913MOL0     C20413   6.498   9.415   2.584 -0.6809 -0.1882 -0.4717
  913MOL0     O20414   6.571   9.389   2.477 -0.5447 -0.5277  0.4424
  913MOL0     C20415   6.709   9.376   2.495  0.0801 -0.5290 -0.0173
  913MOL0     C20416   6.782   9.494   2.511 -0.3359 -0.1751  0.5320
  913MOL0     C20417   6.920   9.490   2.510 -0.4348 -1.2501  0.8100
  913MOL0     C20418   6.992   9.370   2.495  0.8108 -0.6037  0.7137
  913MOL0     O20419   7.127   9.386   2.493 -0.0083 -0.3911 -0.5422
  913MOL0     C20420   7.211   9.268   2.500  0.1408  0.4389  0.7630
  913MOL0     C20421   7.356   9.316   2.512 -0.6467 -0.8428  0.2240
  913MOL0     C20422   7.404   9.326   2.656 -0.5059  0.2568 -0.1581
  913MOL0     C20423   7.479   9.203   2.710 -0.0348  0.7292 -0.2395
  913MOL0     C20424   7.395   9.104   2.795  0.4700  1.1904  0.5436
  913MOL0     C20425   7.461   8.964   2.790  0.5490  0.6708  0.2452
  913MOL0     C20426   7.575   8.948   2.892  0.3315 -0.0991  0.2983
  913MOL0     C20427   7.605   8.800   2.885 -0.3019  0.3782  0.0640
  913MOL0    Cl20428   7.739   8.767   2.996 -0.4895 -0.0930  0.7019
  913MOL0     C20429   6.925   9.248   2.480 -0.1267  0.3216 -0.8657
  913MOL0     C20430   6.784   9.258   2.479  0.9114  1.0711 -0.9608
  913MOL0     O20431   6.540   9.442   2.695  0.1787  0.1446 -0.2848
  913MOL0     C20432   6.303   9.383   2.429  0.1613 -0.9063 -0.5830
  913MOL0     C20433   6.167   9.368   2.404 -0.1051 -0.4583  0.5228
  913MOL0     N20434   5.969   8.927   2.856  0.5535  0.4330  1.2755
  913MOL0     N20435   6.094   8.914   2.896 -0.2592 -0.7140  0.5350
  913MOL0     C20436   7.185   8.850   2.315 -0.5648  0.5667  0.2951
  913MOL0     C20437   7.277   8.800   2.232 -0.3956  0.3583 -0.3505
  913MOL0     C20438   7.546   8.574   1.980  0.7347  0.4642 -0.2243
  913MOL0     C20439   7.674   8.642   1.985  0.4373 -0.0192 -0.0361
  913MOL0     C20440   7.759   8.629   1.872 -0.8503  0.0139 -0.8536
  913MOL0     C20441   7.731   8.540   1.766 -0.1290  0.4188 -0.4966
  913MOL0     O20442   7.832   8.520   1.675  0.6772 -0.5983 -0.1732
  913MOL0     C20443   7.815   8.422   1.568 -0.5841  0.5732  0.4145
  913MOL0     C20444   7.928   8.424   1.471 -0.5201 -0.5898 -0.1727
  913MOL0     C20445   7.906   8.334   1.357  0.2813  0.7031 -0.2613
  913MOL0     C20446   7.988   8.202   1.376  0.2682  1.2140 -0.0303
  913MOL0     C20447   7.908   8.108   1.467  0.2625 -0.4967 -0.1595
  913MOL0     C20448   7.841   8.042   1.545 -0.6356 -0.1667 -0.0091
  913MOL0     C20449   7.612   8.459   1.769  0.2742 -1.3233 -0.2080
  913MOL0     C20450   7.511   8.484   1.867  0.4356 -0.6001  0.0341
  913MOL0     H20451   7.470   8.625   2.446 -0.4672 -1.8648 -0.4694
  913MOL0     H20452   7.303   8.726   2.607  0.5749 -1.6478 -0.4189
  913MOL0     H20453   7.203   8.871   2.714  1.9582  0.5347 -3.0065
  913MOL0     H20454   7.067   8.745   2.702  0.2865 -0.5243 -2.1422
  913MOL0     H20455   7.037   9.045   2.759 -2.1301  0.4889  0.8979
  913MOL0     H20456   7.013   8.893   2.864 -0.7066 -3.0087 -0.8021
  913MOL0     H20457   6.833   8.818   2.739 -1.6983  0.3195 -0.1564
  913MOL0     H20458   6.851   8.957   2.617  2.0648  1.3427 -0.1796
  913MOL0     H20459   6.822   9.020   2.915  2.3023  3.4199 -0.5258
  913MOL0     H20460   6.775   9.111   2.783  1.6090 -1.9576 -2.5458
  913MOL0     H20461   6.566   9.045   2.890  0.4940 -1.1043  2.7254
  913MOL0     H20462   6.598   8.874   2.891 -0.6533  0.9755  1.5199
  913MOL0     H20463   6.569   8.851   2.669 -1.0216  1.2651  0.2476
  913MOL0     H20464   6.609   9.024   2.632  1.5003  0.7354  0.7126
  913MOL0     H20465   6.404   9.098   2.720  2.2365  0.0766  5.2012
  913MOL0     H20466   6.372   8.963   2.596 -0.4276 -1.6686  0.4204
  913MOL0     H20467   6.359   8.921   2.901  0.6999  0.0932  0.4209
  913MOL0     H20468   6.340   8.801   2.789  0.9649  0.3577  1.4044
  913MOL0     H20469   6.120   8.949   2.570 -0.4900  0.5704  0.4100
  913MOL0     H20470   5.774   8.900   2.646  0.2185 -1.2114 -2.3670
  913MOL0     H20471   5.859   8.986   2.528 -2.0960  0.9303 -0.5450
  913MOL0     H20472   5.749   9.116   2.784 -0.4165 -0.7985  0.1055
  913MOL0     H20473   5.692   9.130   2.614  0.2326 -0.7541  0.5317
  913MOL0     H20474   5.832   9.330   2.680 -1.0420  0.6014 -2.7791
  913MOL0     H20475   5.971   9.225   2.703  2.3037  0.0443 -2.7176
  913MOL0     H20476   5.800   9.244   2.449  0.6175 -0.0929 -2.4132
  913MOL0     H20477   5.966   9.188   2.453  0.5435  1.2668 -1.9499
  913MOL0     H20478   6.058   9.477   2.707  0.1402  2.1786 -0.4938
  913MOL0     H20479   6.276   9.506   2.748 -0.6900 -2.4689  0.1906
  913MOL0     H20480   6.728   9.588   2.509  0.3564  0.2258  0.4899
  913MOL0     H20481   6.974   9.585   2.506  0.0804 -1.3622  3.3990
  913MOL0     H20482   7.206   9.213   2.406  1.4111  2.4570 -0.5368
  913MOL0     H20483   7.199   9.200   2.586  0.0040  1.1515  1.3215
  913MOL0     H20484   7.365   9.420   2.478 -1.1671 -1.1902 -1.0476
  913MOL0     H20485   7.417   9.249   2.451  0.4226 -0.9430  1.3608
  913MOL0     H20486   7.320   9.332   2.726  0.8279 -1.7447  1.7349
  913MOL0     H20487   7.479   9.405   2.658 -0.8820  0.6601  2.5400
  913MOL0     H20488   7.514   9.151   2.620 -2.1853 -0.3381 -0.5274
  913MOL0     H20489   7.573   9.236   2.753  0.3814 -2.1451  1.2643
  913MOL0     H20490   7.296   9.105   2.748  0.6393  3.1655  0.1313
  913MOL0     H20491   7.373   9.128   2.900 -2.2288 -1.0196  0.5927
  913MOL0     H20492   7.483   8.936   2.686  1.7291 -0.1068  0.6959
  913MOL0     H20493   7.378   8.896   2.815  0.6192  0.3512 -0.3528
  913MOL0     H20494   7.665   9.001   2.859 -0.1509 -0.0185 -0.9271
  913MOL0     H20495   7.536   8.983   2.988 -0.8383 -0.6372  0.0449
  913MOL0     H20496   7.631   8.754   2.790  0.2645 -0.8694  0.7916
  913MOL0     H20497   7.519   8.747   2.928 -0.1040 -0.0603 -0.0800
  913MOL0     H20498   6.977   9.153   2.472 -0.6924 -0.0666 -0.0785
  913MOL0     H20499   6.729   9.164   2.474  0.4809  1.0128  2.4600
  913MOL0     H20500   6.369   9.362   2.346 -0.6889  1.0568 -1.8364
  913MOL0     H20501   6.131   9.320   2.313 -0.3928 -0.8116  0.8188
  913MOL0     H20502   7.103   8.910   2.277  0.8375  2.6381  0.4060
  913MOL0     H20503   7.263   8.825   2.127 -0.1694 -0.4623 -0.5828
  913MOL0     H20504   7.708   8.717   2.056  0.3258  2.4587 -2.4724
  913MOL0     H20505   7.851   8.686   1.870  0.6791 -2.1599  1.3841
  913MOL0     H20506   7.720   8.446   1.519 -0.5708 -0.0615  0.0774
  913MOL0     H20507   7.805   8.321   1.609  0.0964 -0.7571 -2.5081
  913MOL0     H20508   7.944   8.521   1.424 -0.2983 -0.2895  0.5016
  913MOL0     H20509   8.018   8.403   1.529 -1.6897 -2.3343  1.1629
  913MOL0     H20510   7.950   8.381   1.268 -0.7431  0.1329 -1.0937
  913MOL0     H20511   7.799   8.315   1.348  0.6258 -2.9101  1.6015
  913MOL0     H20512   7.997   8.151   1.279 -0.1156  0.4096  0.3522
  913MOL0     H20513   8.085   8.221   1.422  0.3432 -0.1497  0.4083
  913MOL0     H20514   7.771   7.987   1.605 -1.8131  1.0977 -0.1728
  913MOL0     H20515   7.601   8.397   1.680 -0.6858  1.9265 -2.5451
  913MOL0     H20516   7.420   8.426   1.869  0.3186 -0.3977  2.0983
  914MOL0     O20517   9.844   5.843   8.048 -0.3001  0.5258 -0.7276
  914MOL0     C20518   9.893   5.744   8.107  0.0403  0.4531 -0.0937
  914MOL0     O20519   9.829   5.647   8.169  0.5877  0.0441 -0.3773
  914MOL0     C20520   9.688   5.633   8.170  0.1914 -0.3947  0.0934
  914MOL0     C20521   9.619   5.514   8.174  1.1230  0.6503 -0.6659
  914MOL0     C20522   9.481   5.508   8.206  1.1214  0.3351  0.8131
  914MOL0     C20523   9.411   5.621   8.238  0.3949  1.2009 -0.6446
  914MOL0     O20524   9.279   5.604   8.261  0.1644 -0.3086  0.0560
  914MOL0     C20525   9.202   5.650   8.149  0.5631  0.6834  0.5957
  914MOL0     C20526   9.109   5.759   8.207 -0.4395 -0.2139  0.3521
  914MOL0     C20527   9.021   5.701   8.316  0.0066  0.2664 -0.7298
  914MOL0     C20528   8.919   5.804   8.355  0.1353  0.2934 -0.1213
  914MOL0     C20529   8.830   5.746   8.472 -0.3991 -0.9498 -0.0726
  914MOL0     C20530   8.717   5.847   8.503  0.4240  0.0034 -0.3493
  914MOL0     C20531   8.647   5.786   8.629 -0.8136 -1.1166  0.8878
  914MOL0     C20532   8.554   5.880   8.694 -0.6697 -0.1540  0.2443
  914MOL0     N20533   8.503   5.815   8.814  0.5119  0.3290  0.0256
  914MOL0     C20534   8.375   5.743   8.814  0.1428  0.3738 -0.8941
  914MOL0     C20535   8.349   5.706   8.938  0.2316  0.1734  0.3532
  914MOL0     C20536   8.247   5.609   8.989  0.5971  0.2970  0.1730
  914MOL0     C20537   8.098   5.657   8.974 -0.2844  0.2508  0.5615
  914MOL0     C20538   8.075   5.809   8.975 -0.1223  0.4445 -0.2803
  914MOL0     C20539   7.934   5.850   8.960 -0.1510  0.1934 -0.0706
  914MOL0     O20540   7.851   5.802   9.069 -0.2884  0.2688 -0.1354
  914MOL0     C20541   7.717   5.843   9.067  0.4898 -0.7190  0.1016
  914MOL0     C20542   7.657   5.937   8.983 -0.3613  0.6345  0.2094
  914MOL0     C20543   7.518   5.972   8.985 -0.7119 -0.1082  0.9582
  914MOL0     C20544   7.433   5.910   9.079  0.3354  0.4076  0.8728
  914MOL0     C20545   7.292   5.924   9.095 -1.0707  0.4599 -0.2025
  914MOL0     O20546   7.232   5.862   9.198 -0.0998 -0.5945 -0.6850
  914MOL0     C20547   7.094   5.866   9.222  0.0738 -0.5139 -0.2408
  914MOL0     C20548   7.028   5.744   9.242 -0.8909 -0.1023 -0.4622
  914MOL0     C20549   6.892   5.740   9.271 -1.1880 -0.1601  0.0821
  914MOL0     C20550   6.817   5.859   9.285  0.1006 -0.4801 -0.1515
  914MOL0     O20551   6.688   5.862   9.333  0.6099  0.2304 -0.1999
  914MOL0     C20552   6.603   5.750   9.302  0.0250  0.0301 -0.7055
  914MOL0     C20553   6.460   5.789   9.301 -0.4327 -0.1285 -0.1460
  914MOL0     C20554   6.423   5.859   9.166 -0.8107 -0.7657  0.2374
  914MOL0     C20555   6.271   5.906   9.172  0.8651 -0.1048 -0.0324
  914MOL0     C20556   6.222   5.950   9.038 -0.4711 -0.3602 -0.3376
  914MOL0     C20557   6.086   6.017   9.025  0.6449 -0.6028  0.1841
  914MOL0     C20558   6.074   6.067   8.885  0.6092 -0.5269  0.2715
  914MOL0     C20559   5.940   6.142   8.882  0.0763  0.2753 -0.3293
  914MOL0    Cl20560   5.790   6.048   8.906 -0.6147 -0.1845 -0.0929
  914MOL0     C20561   6.884   5.983   9.253 -0.4877  0.5518 -0.3884
  914MOL0     C20562   7.022   5.990   9.220  0.3472  0.6022  0.8548
  914MOL0     O20563   7.241   5.992   9.010  1.0575  0.2770  0.0939
  914MOL0     C20564   7.500   5.815   9.168  0.5699 -1.4466 -0.3534
  914MOL0     C20565   7.636   5.788   9.164  0.4520 -0.1358 -0.0664
  914MOL0     N20566   8.458   5.743   9.014 -0.4108  0.1863 -0.0673
  914MOL0     N20567   8.549   5.797   8.938 -0.4548 -0.1173 -0.2030
  914MOL0     C20568   9.470   5.741   8.235 -0.5834  0.3354  0.3893
  914MOL0     C20569   9.604   5.748   8.200 -0.9011 -0.0117  0.3129
  914MOL0     C20570  10.049   5.757   8.108 -0.1424  0.0967 -0.3294
  914MOL0     C20571  10.116   5.851   8.024 -1.0690 -0.4513  0.1297
  914MOL0     C20572  10.254   5.851   8.009  0.9841  0.5180  0.5398
  914MOL0     C20573  10.331   5.757   8.088  0.2222  0.7005 -0.0765
  914MOL0     O20574  10.468   5.755   8.079  0.3820  0.1380  0.5119
  914MOL0     C20575  10.545   5.636   8.114  1.0415  0.1162  0.0541
  914MOL0     C20576  10.691   5.644   8.087  0.4791 -0.0384 -0.9699
  914MOL0     C20577  10.730   5.664   7.945  0.6586 -0.0340  0.2312
  914MOL0     C20578  10.878   5.669   7.934 -0.9835 -0.3121 -1.2950
  914MOL0     C20579  10.935   5.787   7.991  0.0153  0.5897  0.1302
  914MOL0     C20580  10.990   5.876   8.051  0.3091  0.5319 -0.9414
  914MOL0     C20581  10.266   5.664   8.165  0.5280 -0.1347 -0.3401
  914MOL0     C20582  10.128   5.666   8.184  0.8863  0.4735  0.6437
  914MOL0     H20583   9.668   5.422   8.144  2.5075  2.0607 -3.0617
  914MOL0     H20584   9.422   5.417   8.211  2.0567 -0.4018 -0.7711
  914MOL0     H20585   9.160   5.570   8.088  2.5334  1.2555 -1.6620
  914MOL0     H20586   9.252   5.692   8.061 -2.7539  0.5163 -1.5158
  914MOL0     H20587   9.046   5.787   8.122 -0.9495 -1.2558  0.3711
  914MOL0     H20588   9.182   5.836   8.233  2.6326 -2.4834 -1.0794
  914MOL0     H20589   9.082   5.670   8.401  0.6008  0.1189 -1.2053
  914MOL0     H20590   8.964   5.615   8.278  0.0800  0.4185 -1.1874
  914MOL0     H20591   8.978   5.884   8.399 -2.8575  2.7297 -0.2312
  914MOL0     H20592   8.865   5.835   8.265 -2.3355 -1.2627  0.7240
  914MOL0     H20593   8.892   5.731   8.562 -1.0353 -2.4855  0.1388
  914MOL0     H20594   8.783   5.649   8.455 -0.6623 -0.9357  0.5343
  914MOL0     H20595   8.656   5.866   8.414 -2.6318  1.5121  1.8986
  914MOL0     H20596   8.762   5.941   8.538  2.3803 -1.4255  1.1975
  914MOL0     H20597   8.594   5.693   8.608 -2.7403 -0.2756  1.6808
  914MOL0     H20598   8.719   5.752   8.704 -0.5943 -2.8174 -0.0612
  914MOL0     H20599   8.477   5.913   8.622  1.2717  0.8954 -1.4683
  914MOL0     H20600   8.611   5.965   8.731  0.0082 -0.3906 -0.2408
  914MOL0     H20601   8.314   5.715   8.729 -0.3145 -1.6117  0.0322
  914MOL0     H20602   8.252   5.594   9.097 -3.1209 -3.5547  0.0593
  914MOL0     H20603   8.265   5.508   8.951 -0.7831  0.6587 -1.6032
  914MOL0     H20604   8.043   5.604   9.052 -2.0505 -1.4977 -1.7187
  914MOL0     H20605   8.052   5.616   8.883 -2.4175 -0.3913  1.8434
  914MOL0     H20606   8.118   5.848   9.068 -0.7028 -2.0793  1.1273
  914MOL0     H20607   8.140   5.832   8.889 -1.3509 -0.0627 -1.3746
  914MOL0     H20608   7.894   5.821   8.863  0.1451 -1.9678  0.3917
  914MOL0     H20609   7.926   5.959   8.963 -1.8085  0.0989 -0.5661
  914MOL0     H20610   7.709   5.996   8.909  1.0298 -1.7938 -0.8951
  914MOL0     H20611   7.495   6.050   8.914  0.8416 -1.2478 -0.8988
  914MOL0     H20612   7.090   5.655   9.226  1.3721  1.5192 -1.2722
  914MOL0     H20613   6.843   5.645   9.291 -2.9899 -0.3037 -3.9259
  914MOL0     H20614   6.611   5.683   9.388  0.0515 -1.7989 -2.0826
  914MOL0     H20615   6.632   5.703   9.208  2.3053  1.1787 -0.6458
  914MOL0     H20616   6.429   5.851   9.385  1.9269 -0.1044  0.7541
  914MOL0     H20617   6.410   5.692   9.308 -0.8748 -0.2178 -3.0691
  914MOL0     H20618   6.426   5.788   9.084 -1.0586 -2.9630  2.0301
  914MOL0     H20619   6.483   5.948   9.143 -1.6455 -0.3040 -0.1983
  914MOL0     H20620   6.213   5.822   9.213 -0.3797  0.4860 -0.5410
  914MOL0     H20621   6.262   5.986   9.246  1.6907  0.5259 -0.5993
  914MOL0     H20622   6.219   5.859   8.977 -2.8214 -0.2958 -0.4079
  914MOL0     H20623   6.305   6.008   8.997  0.0880 -2.3729 -2.2253
  914MOL0     H20624   6.083   6.102   9.094 -0.8502  1.2849 -2.0415
  914MOL0     H20625   6.011   5.939   9.041  0.4155 -1.1557 -2.9882
  914MOL0     H20626   6.152   6.142   8.868  1.7617 -1.4880  1.1554
  914MOL0     H20627   6.084   5.993   8.806  0.4200 -2.2236  1.7812
  914MOL0     H20628   5.930   6.198   8.788  2.2218  2.0079  0.3793
  914MOL0     H20629   5.939   6.214   8.964 -1.7002 -0.1395  0.0495
  914MOL0     H20630   6.833   6.078   9.268 -2.5170 -0.5478  0.0931
  914MOL0     H20631   7.074   6.085   9.210  2.0357 -0.3520  0.1487
  914MOL0     H20632   7.447   5.764   9.247 -0.4441 -0.1959 -0.1950
  914MOL0     H20633   7.682   5.718   9.233 -1.7509 -1.1030  0.5115
  914MOL0     H20634   9.405   5.824   8.264 -1.0526 -0.6910  2.4714
  914MOL0     H20635   9.644   5.849   8.196 -2.2826  0.5158 -0.7362
  914MOL0     H20636  10.061   5.926   7.968 -0.9709  0.8921  1.7563
  914MOL0     H20637  10.290   5.933   7.948 -0.1149 -0.0479 -0.9394
  914MOL0     H20638  10.500   5.555   8.056  0.6733  1.5494 -1.7571
  914MOL0     H20639  10.530   5.621   8.221 -2.2518  1.7806 -0.0687
  914MOL0     H20640  10.746   5.723   8.138  0.0513  0.8209 -1.8069
  914MOL0     H20641  10.726   5.545   8.117 -0.0969  0.3152  0.9635
  914MOL0     H20642  10.689   5.757   7.906  4.8448  2.3291  0.8000
  914MOL0     H20643  10.697   5.578   7.886 -0.6585 -0.7526  1.9260
  914MOL0     H20644  10.923   5.576   7.970 -0.6489 -0.7552 -2.8161
  914MOL0     H20645  10.898   5.682   7.828 -1.2022  2.4129 -1.0859
  914MOL0     H20646  11.047   5.945   8.110  1.9958 -1.3039 -0.3130
  914MOL0     H20647  10.318   5.599   8.235 -0.6935 -0.6285  0.1391
  914MOL0     H20648  10.078   5.579   8.225  1.0976 -0.6256 -1.2803
  915MOL0     O20649   1.985   8.448   4.659 -0.0249 -0.0617 -1.3554
  915MOL0     C20650   1.959   8.467   4.542  0.8041  0.6930 -0.6027
  915MOL0     O20651   2.042   8.521   4.444 -0.2729 -0.2371  0.5313
  915MOL0     C20652   2.172   8.560   4.470  0.7145 -0.2249 -0.7073
  915MOL0     C20653   2.220   8.631   4.585  0.5506  0.2943  1.0493
  915MOL0     C20654   2.354   8.669   4.594  0.5375  0.6994  0.4374
  915MOL0     C20655   2.447   8.634   4.488  0.5020 -0.8099 -0.6190
  915MOL0     O20656   2.580   8.678   4.476  0.1764  0.3651 -0.9351
  915MOL0     C20657   2.633   8.747   4.587  1.0085  0.5858 -0.5533
  915MOL0     C20658   2.773   8.786   4.543  0.0269  0.5809 -0.1365
  915MOL0     C20659   2.832   8.882   4.648  0.0591 -0.1619  0.3677
  915MOL0     C20660   2.985   8.915   4.641 -0.0729 -0.1479  0.9149
  915MOL0     C20661   3.038   9.002   4.760  0.2524  0.6298 -0.4027
  915MOL0     C20662   3.028   9.152   4.736 -0.5914  0.2382  0.4707
  915MOL0     C20663   2.892   9.211   4.799  0.6960 -0.0802 -0.4026
  915MOL0     C20664   2.884   9.357   4.753  1.3541  0.3127  0.0909
  915MOL0     N20665   2.754   9.405   4.804  0.3833  0.7283 -0.4540
  915MOL0     C20666   2.736   9.486   4.909  0.1830 -0.3400 -0.8035
  915MOL0     C20667   2.604   9.520   4.899  0.5496 -0.0078  0.5023
  915MOL0     C20668   2.542   9.637   4.971 -0.5300  0.2360 -0.5013
  915MOL0     C20669   2.555   9.620   5.125  0.8940 -0.2350  1.0388
  915MOL0     C20670   2.529   9.482   5.190  1.0068 -0.2424 -0.5183
  915MOL0     C20671   2.387   9.432   5.173  0.6573  0.4607  0.2058
  915MOL0     O20672   2.381   9.293   5.191 -1.0032  0.0690  0.4427
  915MOL0     C20673   2.258   9.238   5.190 -0.8267 -0.9928  1.0441
  915MOL0     C20674   2.237   9.132   5.109 -0.5714 -0.3824  0.0101
  915MOL0     C20675   2.115   9.072   5.091  0.3040  0.7329  0.4286
  915MOL0     C20676   2.003   9.128   5.158  0.6079  0.4054 -0.2524
  915MOL0     C20677   1.860   9.073   5.148 -0.7866 -0.2678 -0.7783
  915MOL0     O20678   1.778   9.114   5.243  0.5260 -1.1173  0.5351
  915MOL0     C20679   1.647   9.063   5.256  0.5112 -0.0862  0.3857
  915MOL0     C20680   1.547   9.157   5.293  0.1369  0.1857  0.7458
  915MOL0     C20681   1.416   9.114   5.306  0.7071 -0.0202  0.5165
  915MOL0     C20682   1.373   8.987   5.286  0.4100 -0.2329  0.2751
  915MOL0     O20683   1.248   8.947   5.301 -0.0207 -0.3276  0.3122
  915MOL0     C20684   1.134   9.028   5.277 -0.5807 -0.3792  0.8337
  915MOL0     C20685   1.005   8.970   5.322 -0.4034 -0.7466  0.4908
  915MOL0     C20686   0.982   8.824   5.304 -0.2106  0.6758 -0.0431
  915MOL0     C20687   0.835   8.795   5.293  1.1574  0.5388 -0.1434
  915MOL0     C20688   0.741   8.860   5.404 -0.4369 -1.0162 -0.3102
  915MOL0     C20689   0.594   8.840   5.371 -1.0496  0.1973 -0.5978
  915MOL0     C20690   0.537   8.912   5.237  1.0060  0.9365 -0.5265
  915MOL0     C20691   0.385   8.897   5.230 -0.1779  0.0537  0.0082
  915MOL0    Cl20692   0.365   8.723   5.181 -0.0471 -0.4810 -0.7457
  915MOL0     C20693   1.472   8.891   5.259  0.0364 -0.2081  0.9214
  915MOL0     C20694   1.609   8.920   5.245  0.5731 -0.3460  0.8425
  915MOL0     O20695   1.838   8.989   5.063  0.0394 -0.4412 -0.7148
  915MOL0     C20696   2.024   9.235   5.252  0.1344 -0.6215  0.7970
  915MOL0     C20697   2.148   9.292   5.265  0.4932  0.4551  0.1556
  915MOL0     N20698   2.550   9.455   4.796  0.0146  1.1331 -0.2442
  915MOL0     N20699   2.637   9.378   4.741  0.9567  0.5283  0.7059
  915MOL0     C20700   2.398   8.552   4.383  0.2150  1.2887  0.6454
  915MOL0     C20701   2.260   8.522   4.371 -0.4290  0.7154 -0.2877
  915MOL0     C20702   1.814   8.442   4.514 -0.1899 -0.6685 -0.3668
  915MOL0     C20703   1.740   8.369   4.611  1.0963 -0.1575  0.1363
  915MOL0     C20704   1.606   8.362   4.591  0.1371 -0.6540 -0.3181
  915MOL0     C20705   1.540   8.420   4.482  0.6172  0.6533 -0.5769
  915MOL0     O20706   1.403   8.402   4.467 -0.4400 -0.7154 -0.4367
  915MOL0     C20707   1.335   8.477   4.571  0.1506 -0.5848 -0.6643
  915MOL0     C20708   1.195   8.493   4.526  0.2136  0.1508 -0.3792
  915MOL0     C20709   1.113   8.580   4.626 -0.4664 -0.6429  0.0996
  915MOL0     C20710   1.175   8.709   4.692 -0.1728  0.2669 -0.0272
  915MOL0     C20711   1.234   8.803   4.599 -0.0003  0.1239 -0.0205
  915MOL0     C20712   1.274   8.880   4.517 -0.2792 -0.7836 -0.1894
  915MOL0     C20713   1.615   8.498   4.400 -0.2873 -0.5590  1.7971
  915MOL0     C20714   1.755   8.507   4.409  0.9832 -1.0477  0.4619
  915MOL0     H20715   2.148   8.644   4.666 -0.8563 -0.4115 -0.0396
  915MOL0     H20716   2.382   8.722   4.684 -0.3472 -0.0415  1.1748
  915MOL0     H20717   2.634   8.695   4.683  3.4068  0.7044 -0.4665
  915MOL0     H20718   2.571   8.837   4.598  1.1205  0.5686  0.2972
  915MOL0     H20719   2.774   8.849   4.454  1.0853 -0.2463 -0.7339
  915MOL0     H20720   2.834   8.697   4.526 -0.2336  0.8260 -2.7732
  915MOL0     H20721   2.811   8.828   4.741  2.3035  0.7819  1.4741
  915MOL0     H20722   2.788   8.982   4.654  3.4616  1.5164 -0.2660
  915MOL0     H20723   3.034   8.818   4.648 -1.1250 -0.6251  1.8506
  915MOL0     H20724   3.011   8.962   4.545 -0.3990  1.9579  1.8077
  915MOL0     H20725   3.141   8.971   4.782 -0.1034 -2.2739 -2.2159
  915MOL0     H20726   2.985   8.982   4.854  1.8989  1.4787  0.7614
  915MOL0     H20727   3.028   9.172   4.629  2.8241 -2.3158 -0.1903
  915MOL0     H20728   3.112   9.203   4.784 -0.6399  0.6836  0.0815
  915MOL0     H20729   2.805   9.155   4.765  0.1120 -0.4206  1.5476
  915MOL0     H20730   2.885   9.204   4.908  0.0078  0.4716 -0.4033
  915MOL0     H20731   2.905   9.365   4.646 -0.0626  0.7374 -0.1734
  915MOL0     H20732   2.962   9.415   4.803  1.0455 -0.5689  1.6682
  915MOL0     H20733   2.815   9.531   4.968 -1.3633 -0.2886  1.3371
  915MOL0     H20734   2.436   9.643   4.947 -1.0420  0.0522  1.4797
  915MOL0     H20735   2.601   9.726   4.949  1.0597 -0.4855  0.5991
  915MOL0     H20736   2.495   9.697   5.174  2.4137  0.0396  2.5801
  915MOL0     H20737   2.661   9.637   5.146  1.5612 -2.4042 -0.2362
  915MOL0     H20738   2.590   9.409   5.137 -0.4531 -1.3237 -0.7423
  915MOL0     H20739   2.550   9.480   5.297  2.0671  2.9833 -0.5451
  915MOL0     H20740   2.340   9.454   5.076  0.1267  0.3686  0.4366
  915MOL0     H20741   2.324   9.487   5.243  1.0684  1.6572 -0.3423
  915MOL0     H20742   2.335   9.094   5.080  0.4640  0.1229  2.5084
  915MOL0     H20743   2.109   8.980   5.035 -1.2621  0.6396  0.6981
  915MOL0     H20744   1.580   9.261   5.297 -1.0955  0.5598  1.9157
  915MOL0     H20745   1.343   9.182   5.348 -0.8089 -0.8875 -0.6063
  915MOL0     H20746   1.128   9.044   5.169 -1.1454 -0.1667  0.8938
  915MOL0     H20747   1.152   9.127   5.320  0.8820 -0.8101  1.2767
  915MOL0     H20748   0.929   9.029   5.271  0.6435  0.6694  0.4901
  915MOL0     H20749   1.004   8.988   5.430  4.4586  2.2444  0.3418
  915MOL0     H20750   1.024   8.772   5.391 -0.3833  0.5393 -0.0405
  915MOL0     H20751   1.038   8.778   5.223  1.6227  2.5428  0.0817
  915MOL0     H20752   0.801   8.836   5.197 -0.3725  0.4202  0.3225
  915MOL0     H20753   0.819   8.688   5.276  1.8904  0.4657 -0.4334
  915MOL0     H20754   0.767   8.966   5.411 -0.9336 -0.8782 -0.4881
  915MOL0     H20755   0.762   8.812   5.500 -2.1324  0.6788  0.9905
  915MOL0     H20756   0.537   8.873   5.458  2.2352  4.0191  0.4303
  915MOL0     H20757   0.582   8.732   5.357 -2.7800  0.1382  0.9600
  915MOL0     H20758   0.570   9.015   5.249  1.5293  0.7279 -0.1108
  915MOL0     H20759   0.587   8.859   5.155 -1.8386 -0.6022 -1.3808
  915MOL0     H20760   0.340   8.959   5.152 -1.2651 -1.4790 -0.6186
  915MOL0     H20761   0.347   8.911   5.332  4.1150  2.6867  1.5453
  915MOL0     H20762   1.434   8.792   5.240 -0.1945 -0.1366  1.0100
  915MOL0     H20763   1.684   8.842   5.229 -0.4716 -1.3419  0.6943
  915MOL0     H20764   1.948   9.265   5.323 -0.7216 -2.2760  0.6221
  915MOL0     H20765   2.156   9.370   5.340  0.8659 -1.0650  1.7582
  915MOL0     H20766   2.470   8.514   4.312 -0.9673  2.1643 -1.0826
  915MOL0     H20767   2.237   8.455   4.288 -1.4877 -0.2836  0.7724
  915MOL0     H20768   1.788   8.326   4.698  5.6972  0.1829 -1.9023
  915MOL0     H20769   1.551   8.302   4.663  0.5300 -1.6947 -0.8531
  915MOL0     H20770   1.375   8.577   4.589  1.0655 -1.0000 -0.3503
  915MOL0     H20771   1.334   8.419   4.664 -2.4343  0.4837  0.0646
  915MOL0     H20772   1.184   8.549   4.433 -1.0679 -2.2768 -1.7787
  915MOL0     H20773   1.160   8.390   4.515  2.3190 -0.5052 -1.4396
  915MOL0     H20774   1.077   8.512   4.704 -0.9806 -1.7069 -1.0450
  915MOL0     H20775   1.024   8.619   4.576 -0.5517 -0.0607  0.6920
  915MOL0     H20776   1.092   8.745   4.754  0.8619  0.4405  1.3053
  915MOL0     H20777   1.261   8.682   4.754 -1.4710  0.2941  1.8898
  915MOL0     H20778   1.327   8.948   4.455 -0.8288  0.7496  0.9455
  915MOL0     H20779   1.564   8.559   4.326  0.1082 -0.6903  1.4075
  915MOL0     H20780   1.816   8.559   4.336 -0.4745  1.9841  1.2761
  916MOL0     O20781   3.413   4.768   1.672  0.4937 -0.2606 -0.0466
  916MOL0     C20782   3.431   4.752   1.550  0.4355 -0.0393 -0.4049
  916MOL0     O20783   3.339   4.705   1.459 -0.7639 -0.1801 -0.0863
  916MOL0     C20784   3.220   4.688   1.514 -0.5310 -0.0941 -0.0454
  916MOL0     C20785   3.135   4.792   1.504  1.3051 -0.1653 -0.6388
  916MOL0     C20786   3.000   4.787   1.549 -0.1589  0.5277 -0.1187
  916MOL0     C20787   2.955   4.664   1.602  0.4763  0.3043 -0.5165
  916MOL0     O20788   2.829   4.642   1.655  0.0206  0.1247 -0.3334
  916MOL0     C20789   2.732   4.751   1.628 -1.0325  0.4826  0.2148
  916MOL0     C20790   2.598   4.736   1.700 -0.7141 -0.7519  0.0709
  916MOL0     C20791   2.595   4.815   1.829  0.0649 -0.5691  0.2579
  916MOL0     C20792   2.489   4.764   1.927 -0.0144  1.2205  0.7210
  916MOL0     C20793   2.466   4.874   2.032  0.7062  1.1685 -0.0302
  916MOL0     C20794   2.370   4.834   2.141 -0.4115 -0.2364 -0.0563
  916MOL0     C20795   2.357   4.935   2.259  0.4592 -0.1090 -0.6924
  916MOL0     C20796   2.251   5.045   2.243  0.8195 -0.0417  0.4669
  916MOL0     N20797   2.112   5.022   2.285  0.1919  0.3509  0.9363
  916MOL0     C20798   2.073   4.949   2.390 -0.2825  0.0113  0.6124
  916MOL0     C20799   1.940   4.975   2.405 -0.0579 -0.5945 -0.6722
  916MOL0     C20800   1.851   4.917   2.512  0.8805  0.5546  0.3051
  916MOL0     C20801   1.806   5.012   2.621 -1.0124 -0.8104  0.3197
  916MOL0     C20802   1.729   4.947   2.731 -0.6311 -0.2740 -0.7877
  916MOL0     C20803   1.594   4.899   2.689  0.9881  0.5450 -0.6075
  916MOL0     O20804   1.492   4.929   2.788 -0.5791  0.4063  0.2236
  916MOL0     C20805   1.356   4.890   2.781  0.2107  0.3075 -0.2280
  916MOL0     C20806   1.282   4.875   2.903 -0.5220  0.3491  0.3283
  916MOL0     C20807   1.146   4.845   2.906 -0.6245  0.1876 -0.1130
  916MOL0     C20808   1.075   4.835   2.787  0.0526  0.4638 -0.3263
  916MOL0     C20809   0.926   4.820   2.790  0.0283 -0.4637  0.2315
  916MOL0     O20810   0.876   4.754   2.686  0.8063  0.1275  0.5158
  916MOL0     C20811   0.749   4.714   2.689  0.2424  0.1553  0.0449
  916MOL0     C20812   0.708   4.635   2.794  0.2069  0.0648  0.3288
  916MOL0     C20813   0.593   4.555   2.778 -0.2182  0.1635 -0.4234
  916MOL0     C20814   0.504   4.581   2.676 -0.0797 -0.9285 -0.1575
  916MOL0     O20815   0.383   4.524   2.645  0.4721 -0.4918 -0.0613
  916MOL0     C20816   0.322   4.432   2.731  0.0173  0.1512 -0.4547
  916MOL0     C20817   0.168   4.433   2.715  0.3186  0.1271  0.2618
  916MOL0     C20818   0.098   4.333   2.815 -0.1148 -0.2696 -0.3772
  916MOL0     C20819  -0.054   4.358   2.820 -0.8087 -0.3778  0.7733
  916MOL0     C20820  -0.123   4.329   2.682 -0.3047 -0.1378  0.0299
  916MOL0     C20821  -0.279   4.341   2.689  0.1344  0.1264 -0.2462
  916MOL0     C20822  -0.354   4.225   2.759  0.0968  0.6201 -0.3333
  916MOL0     C20823  -0.335   4.087   2.698  0.2030 -0.7606 -0.0446
  916MOL0    Cl20824  -0.460   3.973   2.771  0.7750  0.1211 -0.2116
  916MOL0     C20825   0.543   4.679   2.580  0.1542  0.7612 -0.0639
  916MOL0     C20826   0.665   4.741   2.583 -0.1592 -0.4316 -0.4480
  916MOL0     O20827   0.872   4.864   2.889  0.0771  0.4025 -0.2483
  916MOL0     C20828   1.143   4.849   2.670  0.0161  0.2858  0.8729
  916MOL0     C20829   1.280   4.880   2.661 -0.6809 -0.2710 -0.7800
  916MOL0     N20830   1.909   5.067   2.312  0.4448  0.2053  0.1033
  916MOL0     N20831   2.009   5.098   2.239  0.4347 -0.2512  0.0977
  916MOL0     C20832   3.047   4.550   1.611 -0.1630 -0.3447  0.4573
  916MOL0     C20833   3.179   4.561   1.558 -0.0455 -0.2897 -0.7638
  916MOL0     C20834   3.562   4.787   1.497  0.6412 -1.2124 -0.2595
  916MOL0     C20835   3.662   4.847   1.574  0.1457 -0.1584  0.3714
  916MOL0     C20836   3.786   4.878   1.524 -0.7876  0.3182 -0.3348
  916MOL0     C20837   3.809   4.870   1.387 -0.3992 -0.5030 -0.0903
  916MOL0     O20838   3.926   4.894   1.321 -0.2167  0.2162  0.5133
  916MOL0     C20839   3.991   5.016   1.340 -0.5297 -0.6872  0.4224
  916MOL0     C20840   4.121   4.998   1.420  0.0757 -0.0323  0.1292
  916MOL0     C20841   4.218   4.905   1.342 -0.0037  0.4353 -0.2061
  916MOL0     C20842   4.338   4.876   1.436 -0.6112  0.2618 -0.1365
  916MOL0     C20843   4.403   4.759   1.384 -0.5098  0.2585 -0.6765
  916MOL0     C20844   4.440   4.653   1.337  0.5794  0.7486  0.0534
  916MOL0     C20845   3.704   4.841   1.305  0.2839 -0.5509 -0.5456
  916MOL0     C20846   3.590   4.785   1.359 -0.5954 -0.3378  0.4930
  916MOL0     H20847   3.160   4.890   1.465 -0.2391  0.0831 -1.0911
  916MOL0     H20848   2.949   4.881   1.535  1.4223  1.7536  1.7675
  916MOL0     H20849   2.715   4.772   1.522 -0.2389  3.2081  0.5464
  916MOL0     H20850   2.781   4.842   1.666  0.4231 -0.8100  1.5508
  916MOL0     H20851   2.573   4.632   1.721 -0.2694 -1.5882 -3.0810
  916MOL0     H20852   2.513   4.771   1.640 -0.8413  2.1190  1.7177
  916MOL0     H20853   2.587   4.921   1.802  1.8073  0.0658  2.0305
  916MOL0     H20854   2.689   4.800   1.882  0.1702 -1.4335 -0.1605
  916MOL0     H20855   2.393   4.752   1.876  0.6933  0.8187 -0.5503
  916MOL0     H20856   2.534   4.675   1.972  2.2480  2.3808  0.9183
  916MOL0     H20857   2.413   4.955   1.981 -2.1212 -1.9050 -2.3756
  916MOL0     H20858   2.558   4.905   2.082  0.7027  0.0491  0.7012
  916MOL0     H20859   2.411   4.738   2.176 -2.1290 -0.7376  0.6605
  916MOL0     H20860   2.274   4.811   2.095 -0.6044 -0.6340  0.5327
  916MOL0     H20861   2.336   4.876   2.349  4.7438  2.2825  2.2600
  916MOL0     H20862   2.449   4.991   2.279 -0.4157  1.2565 -0.3378
  916MOL0     H20863   2.260   5.083   2.141  0.1385  2.4221  1.2623
  916MOL0     H20864   2.288   5.126   2.306  1.4608  0.1737 -0.1745
  916MOL0     H20865   2.127   4.888   2.461  0.6688 -0.7205 -0.7138
  916MOL0     H20866   1.907   4.838   2.562 -1.9399 -0.6291  1.8078
  916MOL0     H20867   1.767   4.868   2.462  3.0431 -1.9098 -1.1463
  916MOL0     H20868   1.743   5.092   2.580  1.4236  1.5897  0.9921
  916MOL0     H20869   1.891   5.066   2.664 -0.7209 -1.3818  0.4583
  916MOL0     H20870   1.784   4.860   2.769 -0.4241  0.4355  0.5631
  916MOL0     H20871   1.723   5.029   2.803  2.3643  2.2373 -3.1271
  916MOL0     H20872   1.582   4.793   2.669  1.9346  0.2054  0.5165
  916MOL0     H20873   1.559   4.941   2.594 -1.3523  0.7315  0.2623
  916MOL0     H20874   1.332   4.894   2.998 -1.9193  1.8523  0.8192
  916MOL0     H20875   1.084   4.837   2.995 -3.5008 -0.1901 -1.9974
  916MOL0     H20876   0.772   4.606   2.877 -1.2451 -0.3737  1.3488
  916MOL0     H20877   0.571   4.482   2.855 -1.3421  2.8017  1.9008
  916MOL0     H20878   0.348   4.464   2.833 -1.1734  2.5722 -0.8369
  916MOL0     H20879   0.349   4.327   2.716  1.3654  0.4147  0.0182
  916MOL0     H20880   0.147   4.395   2.615  0.4002  0.5326  0.0875
  916MOL0     H20881   0.129   4.535   2.722 -0.6991  0.4075 -5.0943
  916MOL0     H20882   0.134   4.355   2.915  1.2031 -0.7082 -0.7339
  916MOL0     H20883   0.121   4.229   2.790  0.1839  0.2972 -2.7835
  916MOL0     H20884  -0.112   4.301   2.892 -1.2098  1.0598  1.6310
  916MOL0     H20885  -0.076   4.460   2.854 -0.7109 -0.3674  0.8047
  916MOL0     H20886  -0.088   4.235   2.638  1.8656  0.9333 -0.7408
  916MOL0     H20887  -0.079   4.401   2.612  1.2314 -0.5107  0.5694
  916MOL0     H20888  -0.312   4.343   2.584  0.9795 -3.0091 -0.6790
  916MOL0     H20889  -0.295   4.432   2.746  0.3422 -0.6396  1.0740
  916MOL0     H20890  -0.334   4.223   2.866 -2.9290  0.6506  0.3209
  916MOL0     H20891  -0.460   4.246   2.739  0.8181  3.0431 -2.0837
  916MOL0     H20892  -0.233   4.050   2.714  0.0816 -0.9104  0.4254
  916MOL0     H20893  -0.352   4.095   2.590  0.8789  1.7995 -0.0265
  916MOL0     H20894   0.475   4.696   2.497  1.2768 -0.8568 -1.3751
  916MOL0     H20895   0.708   4.799   2.502 -2.0227  2.7231  0.6302
  916MOL0     H20896   1.093   4.839   2.574 -0.0886 -2.3716  1.1307
  916MOL0     H20897   1.333   4.910   2.572 -0.7123 -0.9936 -1.0511
  916MOL0     H20898   3.020   4.456   1.658  0.1176 -0.4994  0.3136
  916MOL0     H20899   3.252   4.482   1.574  3.2069  2.3565 -1.4338
  916MOL0     H20900   3.651   4.873   1.679  0.6375  2.3363 -0.1270
  916MOL0     H20901   3.864   4.923   1.584 -0.8059 -0.6382  0.4267
  916MOL0     H20902   3.925   5.085   1.393  0.3100  1.3894 -1.0815
  916MOL0     H20903   4.013   5.063   1.244  0.4405  0.5976  1.2387
  916MOL0     H20904   4.169   5.096   1.431 -0.2023  0.3190 -1.6466
  916MOL0     H20905   4.105   4.954   1.519 -0.5042 -0.3513 -0.1004
  916MOL0     H20906   4.258   4.941   1.246 -2.4329  2.0504 -0.7059
  916MOL0     H20907   4.159   4.815   1.323 -0.4299  1.0148 -1.8234
  916MOL0     H20908   4.404   4.963   1.441 -1.2137  0.6541  2.4672
  916MOL0     H20909   4.299   4.860   1.537  1.6382 -2.2899  0.4597
  916MOL0     H20910   4.483   4.566   1.291 -0.4603  0.7465 -0.9479
  916MOL0     H20911   3.714   4.861   1.198  0.8521  4.8690  0.2393
  916MOL0     H20912   3.530   4.733   1.284  0.9968 -0.9526 -0.3995
  917MOL0     O20913   7.923   9.206   9.293  0.2799  0.0009  0.4362
  917MOL0     C20914   7.936   9.085   9.298  0.0345  0.1735  0.1675
  917MOL0     O20915   7.834   8.998   9.310 -0.2963  0.1183 -0.0015
  917MOL0     C20916   7.706   9.042   9.299  0.7827 -0.2033 -0.3332
  917MOL0     C20917   7.663   9.102   9.186 -1.0703  0.5851 -0.4714
  917MOL0     C20918   7.537   9.145   9.177  0.5009  0.7597  0.2553
  917MOL0     C20919   7.440   9.140   9.282 -0.5790  0.2419  0.5405
  917MOL0     O20920   7.308   9.189   9.256 -0.0851  0.7220  0.1796
  917MOL0     C20921   7.232   9.211   9.371  0.5071  0.4069 -0.0508
  917MOL0     C20922   7.109   9.284   9.320 -0.0650 -0.3786  0.7685
  917MOL0     C20923   7.010   9.344   9.416 -0.0686 -0.0234  0.7609
  917MOL0     C20924   7.080   9.413   9.540 -0.0660  0.6039 -0.7004
  917MOL0     C20925   7.170   9.532   9.518  0.2266 -0.0349 -0.0853
  917MOL0     C20926   7.096   9.661   9.469  0.4542  0.2171 -0.5076
  917MOL0     C20927   6.988   9.717   9.557  0.0468 -0.5239  0.4376
  917MOL0     C20928   6.848   9.674   9.527 -0.1063  0.1639 -0.0981
  917MOL0     N20929   6.793   9.754   9.419 -0.0422  0.1155  0.3861
  917MOL0     C20930   6.735   9.883   9.430  0.5677 -0.0475 -0.2361
  917MOL0     C20931   6.691   9.925   9.309 -0.7336 -0.3393 -0.4772
  917MOL0     C20932   6.623  10.053   9.280  0.1717  0.3239  0.6493
  917MOL0     C20933   6.486  10.024   9.222  0.2762 -0.8807 -0.1083
  917MOL0     C20934   6.442  10.151   9.155  0.5450  0.2921 -0.4189
  917MOL0     C20935   6.370  10.253   9.252 -0.2534 -0.4015 -0.3533
  917MOL0     O20936   6.260  10.194   9.327 -0.5266  0.0936 -0.6055
  917MOL0     C20937   6.136  10.177   9.262 -0.3968 -0.3846 -0.9018
  917MOL0     C20938   6.041  10.088   9.316  0.0274 -0.3453  0.0395
  917MOL0     C20939   5.912  10.066   9.261  0.6702 -0.1466  0.3689
  917MOL0     C20940   5.869  10.137   9.154  0.2850 -0.3607  0.4954
  917MOL0     C20941   5.729  10.151   9.105  1.2305 -0.3861  0.3396
  917MOL0     O20942   5.631  10.097   9.196  0.2182 -0.3415 -1.0480
  917MOL0     C20943   5.494  10.085   9.159 -0.0154 -1.3607  0.4420
  917MOL0     C20944   5.452  10.088   9.033  0.2278  0.0174  0.2227
  917MOL0     C20945   5.308  10.064   9.002 -0.1545  0.0256 -0.4094
  917MOL0     C20946   5.217  10.025   9.101 -0.9768  0.7602 -0.0201
  917MOL0     O20947   5.082   9.995   9.079  0.2388  0.2444 -0.0033
  917MOL0     C20948   5.027  10.028   8.950  0.8139  0.2422  0.0255
  917MOL0     C20949   4.880   9.994   8.957  0.1767 -0.0935 -0.1528
  917MOL0     C20950   4.803  10.013   8.824  0.2534 -0.4394  0.3508
  917MOL0     C20951   4.663   9.952   8.836 -0.5348  0.3615  0.0021
  917MOL0     C20952   4.606   9.918   8.700  0.6962 -0.0067 -0.0829
  917MOL0     C20953   4.455   9.874   8.702  0.1967 -0.2668  0.3710
  917MOL0     C20954   4.434   9.735   8.778 -1.0889  0.8862 -0.7130
  917MOL0     C20955   4.294   9.678   8.780 -0.0087 -0.3543 -0.5464
  917MOL0    Cl20956   4.212   9.648   8.616 -0.3693 -0.1724 -0.3917
  917MOL0     C20957   5.273  10.012   9.228  0.7012  0.8332  0.3904
  917MOL0     C20958   5.408  10.044   9.254 -0.2883 -0.0901  0.3477
  917MOL0     O20959   5.702  10.212   8.997 -0.3770  0.0855 -0.1455
  917MOL0     C20960   5.968  10.218   9.086 -0.4185  0.0093  0.0565
  917MOL0     C20961   6.099  10.232   9.133 -0.5659  0.1818  0.7067
  917MOL0     N20962   6.716   9.817   9.225 -0.4621  0.4534 -0.2019
  917MOL0     N20963   6.777   9.719   9.286 -0.9420 -0.1669  0.1888
  917MOL0     C20964   7.485   9.074   9.399 -0.2355  0.8730  0.0183
  917MOL0     C20965   7.610   9.018   9.403 -0.0469  0.0147  0.1950
  917MOL0     C20966   8.064   9.023   9.298  0.2035  0.5096  0.5406
  917MOL0     C20967   8.185   9.096   9.304  0.0676  0.4646 -0.4363
  917MOL0     C20968   8.309   9.030   9.287 -0.0356 -1.0255 -0.9438
  917MOL0     C20969   8.313   8.892   9.265 -0.5114  0.2255 -0.1239
  917MOL0     O20970   8.435   8.837   9.236 -0.5365  0.6538  0.4815
  917MOL0     C20971   8.429   8.693   9.194  0.0359  0.1460 -0.0378
  917MOL0     C20972   8.562   8.625   9.172 -0.1575 -0.0976  0.1996
  917MOL0     C20973   8.640   8.604   9.303 -0.2344  0.2778  0.1730
  917MOL0     C20974   8.719   8.468   9.297  1.0842  0.2893  0.0559
  917MOL0     C20975   8.803   8.453   9.424 -0.0594  0.1990  0.5965
  917MOL0     C20976   8.892   8.439   9.505 -0.5066 -0.4141  0.0050
  917MOL0     C20977   8.191   8.816   9.273 -0.6493 -0.3301 -0.2690
  917MOL0     C20978   8.071   8.885   9.287  0.1953 -0.2761  0.8664
  917MOL0     H20979   7.737   9.102   9.106  0.4408 -2.5926  0.7743
  917MOL0     H20980   7.508   9.200   9.089 -2.6968 -0.4436  0.4003
  917MOL0     H20981   7.293   9.268   9.441  0.7669  1.5567 -1.1830
  917MOL0     H20982   7.197   9.114   9.409  0.2275  1.2920  2.0737
  917MOL0     H20983   7.060   9.227   9.241  1.1169 -1.0160  0.4688
  917MOL0     H20984   7.154   9.373   9.275  0.4499 -0.2811  1.4503
  917MOL0     H20985   6.944   9.260   9.435  1.4060 -1.1276  1.1950
  917MOL0     H20986   6.953   9.423   9.366  1.2310  1.0067  0.8405
  917MOL0     H20987   7.006   9.448   9.613  1.7715 -0.7049  1.9642
  917MOL0     H20988   7.116   9.326   9.595  0.1287  0.8797 -0.3847
  917MOL0     H20989   7.243   9.507   9.440 -1.1650 -3.1639 -0.5014
  917MOL0     H20990   7.222   9.565   9.608 -2.6793  2.2958  0.8777
  917MOL0     H20991   7.052   9.655   9.369  0.1170  2.5384 -0.5549
  917MOL0     H20992   7.179   9.731   9.461  2.1245 -1.6226 -0.1248
  917MOL0     H20993   7.007   9.685   9.660  0.2145 -1.0143  0.2552
  917MOL0     H20994   7.001   9.825   9.566  0.0373 -0.3837 -1.0264
  917MOL0     H20995   6.785   9.692   9.614 -0.1839 -2.2895  0.4209
  917MOL0     H20996   6.846   9.566   9.509  0.2196 -0.5672  3.5280
  917MOL0     H20997   6.719   9.943   9.519  0.7481  0.6251 -0.6574
  917MOL0     H20998   6.682  10.104   9.203 -2.7270  0.1109 -1.9314
  917MOL0     H20999   6.618  10.110   9.373 -1.7672 -0.2616  0.9474
  917MOL0     H21000   6.423  10.004   9.309  1.7752 -0.9428  1.0047
  917MOL0     H21001   6.490   9.942   9.149 -0.0666 -0.9307 -0.0708
  917MOL0     H21002   6.532  10.190   9.108  0.4877 -0.0637 -0.8320
  917MOL0     H21003   6.376  10.120   9.074  2.4995 -0.4331 -1.7933
  917MOL0     H21004   6.336  10.338   9.192  0.9481  0.7743  0.5824
  917MOL0     H21005   6.450  10.296   9.313 -0.1913  1.4055 -1.6511
  917MOL0     H21006   6.063  10.035   9.408 -1.3947 -0.9713  0.0415
  917MOL0     H21007   5.840  10.022   9.330 -0.2150  0.8689  0.1244
  917MOL0     H21008   5.514  10.102   8.945  0.6448 -0.1974  0.4791
  917MOL0     H21009   5.279  10.076   8.898 -0.2293  0.7653 -0.3088
  917MOL0     H21010   5.062   9.958   8.872 -0.0413 -1.2815  0.9538
  917MOL0     H21011   5.043  10.130   8.915  2.8152 -0.0937 -0.1726
  917MOL0     H21012   4.849  10.050   9.045 -1.1313  0.1361 -0.7400
  917MOL0     H21013   4.875   9.889   8.986 -0.2346 -0.4485 -1.4225
  917MOL0     H21014   4.865   9.970   8.745  1.1115  1.8162 -0.2650
  917MOL0     H21015   4.794  10.120   8.801  3.8298 -0.0475  0.1459
  917MOL0     H21016   4.678   9.866   8.902 -0.9754  1.1858  1.2397
  917MOL0     H21017   4.609  10.027   8.895 -0.4906 -0.5361  1.2453
  917MOL0     H21018   4.667   9.836   8.660  0.4850  0.5377 -1.5720
  917MOL0     H21019   4.609  10.004   8.632  2.1876 -0.2045 -0.3109
  917MOL0     H21020   4.415   9.875   8.600 -1.3167 -0.6091  0.9366
  917MOL0     H21021   4.396   9.953   8.749  1.5407  1.5991 -0.9016
  917MOL0     H21022   4.509   9.675   8.725 -0.4029  1.1296 -0.0419
  917MOL0     H21023   4.460   9.742   8.884 -0.9485  3.4933 -0.8547
  917MOL0     H21024   4.231   9.742   8.842  1.3173  1.1729 -0.7251
  917MOL0     H21025   4.279   9.577   8.818  3.1365 -0.8925 -0.5059
  917MOL0     H21026   5.213   9.964   9.305 -1.0569  0.8545 -0.9064
  917MOL0     H21027   5.448  10.038   9.355 -0.3658  2.0003  0.5486
  917MOL0     H21028   5.938  10.278   9.001  0.0679  2.8863  1.7941
  917MOL0     H21029   6.157  10.300   9.072 -3.2490  0.6047 -1.5643
  917MOL0     H21030   7.422   9.052   9.484 -0.7608  1.9008 -0.0897
  917MOL0     H21031   7.653   8.971   9.490 -1.0308  2.5404  2.1842
  917MOL0     H21032   8.187   9.204   9.313  0.0551  0.5553 -1.4901
  917MOL0     H21033   8.409   9.071   9.282  1.1528 -3.3275  1.5086
  917MOL0     H21034   8.359   8.681   9.111 -0.1313 -1.7344  0.3211
  917MOL0     H21035   8.379   8.635   9.272 -2.3519  0.9492 -0.8724
  917MOL0     H21036   8.538   8.536   9.114 -1.3115 -0.3319  0.9964
  917MOL0     H21037   8.620   8.692   9.108  2.7839  0.1516  2.8777
  917MOL0     H21038   8.561   8.602   9.379 -0.1817  0.7797  0.2426
  917MOL0     H21039   8.703   8.692   9.313 -1.2945  1.8809 -4.5643
  917MOL0     H21040   8.643   8.390   9.289  0.1906  0.6812  3.3272
  917MOL0     H21041   8.782   8.477   9.208  1.9602 -0.7476  0.5478
  917MOL0     H21042   8.968   8.428   9.580  1.9601  1.5225 -2.0651
  917MOL0     H21043   8.193   8.708   9.267 -1.7203 -0.3659 -0.2024
  917MOL0     H21044   7.983   8.822   9.278 -0.0193 -0.0999  1.7173
  918MOL0     O21045   9.140   9.192  10.053  0.3113 -0.0995 -0.2863
  918MOL0     C21046   9.166   9.140   9.949 -0.0834 -0.0372  0.3369
  918MOL0     O21047   9.084   9.106   9.848  0.0320  0.2235  0.2393
  918MOL0     C21048   8.944   9.122   9.854 -1.3020  0.8440  1.1155
  918MOL0     C21049   8.887   9.048   9.746  0.1711 -0.4688 -0.6883
  918MOL0     C21050   8.750   9.043   9.733  0.3277 -0.1091  0.1259
  918MOL0     C21051   8.666   9.111   9.817  0.7974 -0.5853 -0.2163
  918MOL0     O21052   8.530   9.094   9.799  0.6149 -0.6444  0.1195
  918MOL0     C21053   8.453   9.042   9.905 -0.4145 -0.0471  0.3608
  918MOL0     C21054   8.332   9.127   9.913  0.1475 -0.5907 -0.1139
  918MOL0     C21055   8.318   9.202  10.046 -0.2156 -0.7305 -0.4399
  918MOL0     C21056   8.188   9.276  10.067 -0.3409 -0.5195 -0.0035
  918MOL0     C21057   8.183   9.384  10.180  0.7141 -0.0992 -0.3418
  918MOL0     C21058   8.041   9.435  10.206 -0.2900 -0.1851 -0.6662
  918MOL0     C21059   8.050   9.559  10.306 -0.3086  0.6576 -0.3657
  918MOL0     C21060   7.909   9.612  10.330  0.0082 -0.4142  0.8283
  918MOL0     N21061   7.914   9.728  10.417  0.3189  0.1400  0.7087
  918MOL0     C21062   7.864   9.855  10.373 -0.2429 -0.1968  0.2023
  918MOL0     C21063   7.862   9.918  10.487 -0.2958 -0.0064 -0.0027
  918MOL0     C21064   7.806  10.053  10.502 -0.0555  0.3113  0.5773
  918MOL0     C21065   7.658  10.044  10.548 -0.6230 -1.1041 -0.3778
  918MOL0     C21066   7.560  10.000  10.439  0.6453  0.3002 -0.2512
  918MOL0     C21067   7.428   9.955  10.489  0.2005  0.0630  0.0220
  918MOL0     O21068   7.371  10.072  10.550  0.2452  0.0693  0.0437
  918MOL0     C21069   7.249  10.078  10.614 -0.2760  1.4203 -0.1853
  918MOL0     C21070   7.198  10.203  10.619 -0.8963 -0.3064 -0.3380
  918MOL0     C21071   7.074  10.229  10.679  0.7956  0.6977 -0.6591
  918MOL0     C21072   6.997  10.134  10.741 -0.1162  0.8166 -0.8754
  918MOL0     C21073   6.876  10.158  10.809 -0.0326  0.3006 -0.3480
  918MOL0     O21074   6.789  10.054  10.812 -0.3987 -0.5456 -0.4103
  918MOL0     C21075   6.695  10.039  10.920 -0.4256  0.5396 -0.1764
  918MOL0     C21076   6.592   9.957  10.892 -0.0840  1.5944  0.1232
  918MOL0     C21077   6.474   9.947  10.973  0.4613 -0.2929 -0.0334
  918MOL0     C21078   6.472  10.031  11.087 -0.3783  0.5917 -0.6166
  918MOL0     O21079   6.368  10.034  11.180  1.0551 -0.0055  0.2720
  918MOL0     C21080   6.275   9.924  11.185 -0.5579 -0.4310 -0.2210
  918MOL0     C21081   6.183   9.956  11.294  0.7563 -0.4410 -0.5311
  918MOL0     C21082   6.077   9.847  11.322  0.3150 -0.3648 -0.3740
  918MOL0     C21083   6.025   9.877  11.462 -0.3586  0.3228  0.8554
  918MOL0     C21084   5.924   9.766  11.500  0.5933 -0.6189 -0.0599
  918MOL0     C21085   5.984   9.638  11.563 -0.1342  0.9110 -0.0920
  918MOL0     C21086   5.883   9.546  11.638  0.4026 -0.0486  0.2052
  918MOL0     C21087   5.864   9.592  11.787  0.1476 -0.1389 -0.0112
  918MOL0    Cl21088   6.019   9.600  11.883  0.1590  0.0102 -0.1521
  918MOL0     C21089   6.575  10.122  11.118 -0.2771 -0.2387  0.5324
  918MOL0     C21090   6.686  10.133  11.029 -0.4712  0.7758 -0.3101
  918MOL0     O21091   6.852  10.276  10.843 -0.3970  0.1918 -0.2957
  918MOL0     C21092   7.053  10.007  10.735 -0.9191  0.6410 -0.0805
  918MOL0     C21093   7.175   9.973  10.671 -0.7659 -0.5254  0.3213
  918MOL0     N21094   7.908   9.843  10.597 -0.1716 -0.0744  0.1567
  918MOL0     N21095   7.943   9.730  10.546  0.3884  0.6520 -0.6271
  918MOL0     C21096   8.711   9.179   9.924 -0.3519  0.3534 -0.5263
  918MOL0     C21097   8.856   9.193   9.942  0.2247 -1.1809 -0.0532
  918MOL0     C21098   9.306   9.112   9.920  0.1577  0.4114 -0.2471
  918MOL0     C21099   9.333   9.041   9.803  0.2800  0.3969  0.0402
  918MOL0     C21100   9.463   8.997   9.781 -0.0146 -0.0426  0.4371
  918MOL0     C21101   9.564   9.023   9.871 -0.0102  0.4444 -0.2488
  918MOL0     O21102   9.689   8.980   9.884  0.2217  0.0354 -0.1019
  918MOL0     C21103   9.762   8.925   9.772 -0.1414  0.3816  0.4540
  918MOL0     C21104   9.888   8.876   9.833  0.1315 -0.1534 -0.1338
  918MOL0     C21105   9.997   8.864   9.717  0.9847 -0.8441 -0.2565
  918MOL0     C21106  10.091   8.753   9.753 -0.0325 -0.0010  0.0930
  918MOL0     C21107  10.225   8.794   9.719  0.5300 -0.7565  0.6891
  918MOL0     C21108  10.341   8.812   9.679 -0.0470 -0.9298 -0.5343
  918MOL0     C21109   9.531   9.106   9.982  0.6764  0.0034  0.5331
  918MOL0     C21110   9.402   9.153  10.009 -0.0738 -0.2677  0.3056
  918MOL0     H21111   8.960   9.008   9.676 -0.4631 -2.4460 -0.2892
  918MOL0     H21112   8.700   9.004   9.644 -1.0016 -1.1113  1.2674
  918MOL0     H21113   8.504   9.047  10.001 -0.9621 -0.2429  0.6689
  918MOL0     H21114   8.416   8.944   9.875  0.0496 -0.1011 -0.0509
  918MOL0     H21115   8.240   9.069   9.897 -2.4213  3.2875 -0.8531
  918MOL0     H21116   8.318   9.199   9.832 -0.8448  1.2532  1.5946
  918MOL0     H21117   8.401   9.272  10.037 -0.8053 -0.2213 -2.2915
  918MOL0     H21118   8.326   9.142  10.137 -3.4460  1.3612  1.3771
  918MOL0     H21119   8.166   9.316   9.967 -3.8496  0.0390  0.8294
  918MOL0     H21120   8.109   9.204  10.093  0.4096 -2.3407 -2.3942
  918MOL0     H21121   8.259   9.460  10.162  1.4402  0.0604  2.8673
  918MOL0     H21122   8.215   9.326  10.267 -1.7012 -1.4530 -0.2633
  918MOL0     H21123   7.985   9.356  10.256  1.5667 -0.9314  0.3216
  918MOL0     H21124   7.989   9.466  10.115 -2.5515 -1.1514  0.2282
  918MOL0     H21125   8.095   9.526  10.400 -0.1289 -0.9780 -0.9932
  918MOL0     H21126   8.109   9.640  10.263  0.6891  0.6584  0.9533
  918MOL0     H21127   7.858   9.537  10.391 -0.6118 -1.7393 -1.2109
  918MOL0     H21128   7.855   9.638  10.238  1.1212  2.3244  0.8609
  918MOL0     H21129   7.839   9.888  10.272 -0.1992 -3.7456 -1.1444
  918MOL0     H21130   7.804  10.097  10.402  1.7423 -1.6602 -0.4189
  918MOL0     H21131   7.874  10.113  10.564 -0.3834  1.9919 -0.6002
  918MOL0     H21132   7.646  10.148  10.582  0.1040 -1.0621 -0.2439
  918MOL0     H21133   7.636   9.979  10.633 -0.7371 -0.4285  0.1210
  918MOL0     H21134   7.532  10.083  10.373  0.6569 -0.5168 -1.3232
  918MOL0     H21135   7.611   9.921  10.381 -2.4463 -1.6901 -0.4942
  918MOL0     H21136   7.434   9.881  10.569  1.8630  0.5229  0.3513
  918MOL0     H21137   7.353   9.916  10.419 -0.0256  0.9791 -0.2663
  918MOL0     H21138   7.264  10.287  10.598  0.0818 -0.3437  2.2080
  918MOL0     H21139   7.043  10.333  10.668  0.1096  0.4743 -0.8415
  918MOL0     H21140   6.597   9.893  10.804 -0.3489 -2.6574  2.9174
  918MOL0     H21141   6.393   9.883  10.939  2.6142 -2.7547 -0.8470
  918MOL0     H21142   6.322   9.829  11.213  0.3438  0.4904  1.5621
  918MOL0     H21143   6.229   9.911  11.086  2.3047  0.0052 -1.7016
  918MOL0     H21144   6.126  10.045  11.264  0.9145 -1.1894 -3.4066
  918MOL0     H21145   6.242   9.980  11.382 -2.1969  1.0376  1.2246
  918MOL0     H21146   6.121   9.747  11.316 -2.0549 -1.5052  0.2955
  918MOL0     H21147   5.996   9.852  11.249  2.1048  1.2059 -2.4115
  918MOL0     H21148   6.101   9.864  11.539 -2.3183 -2.4526  2.5217
  918MOL0     H21149   5.975   9.974  11.463  1.5594  1.3553  0.6684
  918MOL0     H21150   5.867   9.741  11.409  1.2671 -0.2335 -0.6011
  918MOL0     H21151   5.861   9.818  11.572  3.8483 -1.2473  3.5378
  918MOL0     H21152   6.069   9.652  11.632  0.9322  2.1606 -1.5861
  918MOL0     H21153   6.028   9.577  11.484  1.5441 -0.4602  1.7855
  918MOL0     H21154   5.780   9.541  11.601  0.9919 -1.2723 -1.4271
  918MOL0     H21155   5.917   9.442  11.629 -0.6993 -0.2350 -2.7552
  918MOL0     H21156   5.801   9.519  11.838  0.3659  0.7910  1.6547
  918MOL0     H21157   5.808   9.686  11.794 -0.7881 -0.8026  2.2532
  918MOL0     H21158   6.568  10.191  11.202 -0.3501 -0.4415  0.6930
  918MOL0     H21159   6.765  10.201  11.062 -0.8432  0.0093  2.3829
  918MOL0     H21160   6.999   9.924  10.780  1.7552 -2.2415 -1.7894
  918MOL0     H21161   7.206   9.869  10.665  1.4144  0.0747  0.1523
  918MOL0     H21162   8.644   9.234   9.988 -0.3831 -0.5632  0.2347
  918MOL0     H21163   8.905   9.248  10.022 -0.1494  0.1992 -0.7334
  918MOL0     H21164   9.255   9.030   9.729 -1.0765 -0.8897  1.5832
  918MOL0     H21165   9.475   8.935   9.693  2.0133  0.4118  0.3442
  918MOL0     H21166   9.786   8.998   9.694 -2.4380 -0.0506 -0.7359
  918MOL0     H21167   9.705   8.847   9.720  1.6773 -0.4966 -0.3163
  918MOL0     H21168   9.924   8.943   9.912 -1.6141 -1.6927  2.0832
  918MOL0     H21169   9.852   8.780   9.870 -1.8485  0.0130 -1.4617
  918MOL0     H21170  10.045   8.957   9.686 -3.1386  0.8846 -2.2837
  918MOL0     H21171   9.956   8.828   9.623 -2.8834 -1.7814  1.5723
  918MOL0     H21172  10.098   8.714   9.854 -1.7639 -1.9280 -0.4844
  918MOL0     H21173  10.056   8.667   9.696  1.6037 -1.3290  0.9779
  918MOL0     H21174  10.445   8.819   9.653  0.1285 -4.0291 -1.1043
  918MOL0     H21175   9.608   9.130  10.054  0.5932 -1.4913  1.1402
  918MOL0     H21176   9.377   9.207  10.100 -0.0874 -2.4481  1.6645
  919MOL0     O21177   0.410   1.138  10.033  0.3291  0.5933  0.4424
  919MOL0     C21178   0.420   1.183   9.920  0.0247  0.1352 -0.1265
  919MOL0     O21179   0.341   1.169   9.816 -0.0561  0.1692 -0.1816
  919MOL0     C21180   0.253   1.061   9.829 -0.4673 -0.2049 -0.7620
  919MOL0     C21181   0.115   1.074   9.886 -0.0549 -0.4915 -0.5770
  919MOL0     C21182   0.018   0.982   9.860  0.8762  0.3643  0.0361
  919MOL0     C21183   0.055   0.871   9.786  0.7488  0.1255 -0.2173
  919MOL0     O21184  -0.048   0.783   9.760 -0.6427  0.1134 -0.3195
  919MOL0     C21185  -0.024   0.678   9.663  0.7055  0.6974 -0.0349
  919MOL0     C21186  -0.159   0.610   9.627  0.2120 -0.7891  0.7723
  919MOL0     C21187  -0.231   0.552   9.746 -0.1304 -0.3849  0.1783
  919MOL0     C21188  -0.370   0.498   9.694 -0.5108  0.9357 -0.4481
  919MOL0     C21189  -0.430   0.423   9.812  0.1290  1.1124 -0.0218
  919MOL0     C21190  -0.558   0.350   9.769  0.5767 -0.0790 -0.0309
  919MOL0     C21191  -0.616   0.262   9.876 -0.2464  1.1269 -0.4507
  919MOL0     C21192  -0.740   0.196   9.811 -1.0727 -0.8470  0.8950
  919MOL0     N21193  -0.779   0.093   9.903  0.2099  0.0828 -0.2426
  919MOL0     C21194  -0.825  -0.032   9.866 -0.4910 -0.9008  0.1545
  919MOL0     C21195  -0.852  -0.091   9.987 -0.9475 -0.0102  0.5887
  919MOL0     C21196  -0.906  -0.224  10.010 -1.3037  0.4883  0.3750
  919MOL0     C21197  -1.059  -0.242  10.008  0.0413 -0.0860 -0.0703
  919MOL0     C21198  -1.097  -0.215   9.863  1.0245 -0.5515  0.4678
  919MOL0     C21199  -1.250  -0.243   9.850 -0.4113 -0.3362  0.4546
  919MOL0     O21200  -1.265  -0.388   9.852  0.0564 -0.9591  0.2660
  919MOL0     C21201  -1.389  -0.445   9.858  0.1275  0.0418 -0.3736
  919MOL0     C21202  -1.401  -0.579   9.850 -0.5988  0.5110 -0.1930
  919MOL0     C21203  -1.521  -0.643   9.821  0.4565 -0.2216  0.1963
  919MOL0     C21204  -1.641  -0.570   9.803 -0.0646 -0.5919 -0.2632
  919MOL0     C21205  -1.769  -0.632   9.764  0.4124  0.5104 -0.0627
  919MOL0     O21206  -1.881  -0.560   9.790  0.2162 -0.4620  0.6509
  919MOL0     C21207  -2.006  -0.614   9.760 -0.1300 -0.0189  0.0077
  919MOL0     C21208  -2.078  -0.665   9.867  0.3189 -0.1943 -0.3553
  919MOL0     C21209  -2.209  -0.709   9.841  0.2637  0.9365  0.1405
  919MOL0     C21210  -2.255  -0.720   9.708  0.1442  0.8149  0.4533
  919MOL0     O21211  -2.371  -0.786   9.666  0.4311 -0.4829  0.1165
  919MOL0     C21212  -2.490  -0.769   9.743  0.0195 -0.2212  0.5529
  919MOL0     C21213  -2.603  -0.802   9.652  0.1968 -0.7766  0.2142
  919MOL0     C21214  -2.744  -0.776   9.697  0.4100  0.2500 -0.2034
  919MOL0     C21215  -2.850  -0.823   9.601  0.5246  0.0753  0.3082
  919MOL0     C21216  -2.991  -0.796   9.636  0.3270  0.3942  0.6008
  919MOL0     C21217  -3.080  -0.852   9.525 -1.1834 -0.5617  0.5464
  919MOL0     C21218  -3.226  -0.822   9.546 -0.1697  0.0427 -0.1654
  919MOL0     C21219  -3.319  -0.863   9.435 -1.0902 -0.9832 -0.1329
  919MOL0    Cl21220  -3.324  -0.733   9.310 -0.5558 -0.2145 -0.2391
  919MOL0     C21221  -2.178  -0.672   9.605 -0.6505  1.0705  0.1904
  919MOL0     C21222  -2.052  -0.614   9.630  0.7433  0.8076  0.5884
  919MOL0     O21223  -1.765  -0.742   9.709  0.7309  0.5825  0.1076
  919MOL0     C21224  -1.628  -0.433   9.826  0.7130 -0.3263 -0.3013
  919MOL0     C21225  -1.508  -0.367   9.865  0.1351  0.7859  0.2642
  919MOL0     N21226  -0.824   0.002  10.086  0.2505 -0.0415 -0.5688
  919MOL0     N21227  -0.775   0.110  10.038 -0.2246 -0.3761 -0.0920
  919MOL0     C21228   0.191   0.847   9.752  0.6688 -0.0520  0.4275
  919MOL0     C21229   0.284   0.938   9.766  0.2551 -0.4080  0.7542
  919MOL0     C21230   0.527   1.281   9.883  0.7730 -0.8761 -0.5752
  919MOL0     C21231   0.584   1.363   9.976 -0.0010 -0.5352 -0.0654
  919MOL0     C21232   0.680   1.456   9.949  0.0290  0.0931  0.0676
  919MOL0     C21233   0.736   1.466   9.819 -0.3730 -0.4108 -0.3101
  919MOL0     O21234   0.827   1.566   9.803 -0.3940  0.3329 -0.4092
  919MOL0     C21235   0.887   1.581   9.674  0.3247 -0.1970  0.3512
  919MOL0     C21236   1.019   1.657   9.688 -0.6366  0.5828 -0.0809
  919MOL0     C21237   1.017   1.788   9.766  0.2808  0.1976 -0.3980
  919MOL0     C21238   1.147   1.852   9.738 -0.1400 -0.6144 -0.3271
  919MOL0     C21239   1.126   1.997   9.775  0.3931 -0.0639  0.1784
  919MOL0     C21240   1.125   2.119   9.805 -0.8322 -0.8636  0.5094
  919MOL0     C21241   0.680   1.389   9.721  0.5197  0.5909 -0.3844
  919MOL0     C21242   0.581   1.294   9.753  0.7841  0.2959  0.4485
  919MOL0     H21243   0.086   1.177   9.906  2.1996  0.7224 -2.8953
  919MOL0     H21244  -0.087   0.989   9.887  1.2626 -2.2866  2.7340
  919MOL0     H21245   0.038   0.600   9.709 -2.5544 -2.3733 -0.3914
  919MOL0     H21246   0.012   0.725   9.572 -1.7299  1.2535 -0.8034
  919MOL0     H21247  -0.130   0.534   9.554 -1.8088  0.9024 -1.9979
  919MOL0     H21248  -0.236   0.670   9.578 -1.1648 -2.6378  0.5424
  919MOL0     H21249  -0.257   0.636   9.811  1.4510  1.8141 -1.8623
  919MOL0     H21250  -0.176   0.472   9.797 -1.7036 -1.0333  0.9414
  919MOL0     H21251  -0.442   0.573   9.661 -0.2959  0.1476 -2.9534
  919MOL0     H21252  -0.355   0.426   9.613 -2.0397  0.9899 -0.8027
  919MOL0     H21253  -0.459   0.492   9.892 -1.8938  0.4724 -0.1578
  919MOL0     H21254  -0.365   0.350   9.861 -1.6897 -0.5102  0.0787
  919MOL0     H21255  -0.536   0.295   9.677  0.1966  1.4593 -1.0748
  919MOL0     H21256  -0.637   0.423   9.744 -0.0366 -0.3718  0.9890
  919MOL0     H21257  -0.539   0.192   9.910 -1.7312  0.1062  0.9572
  919MOL0     H21258  -0.646   0.326   9.960  2.0540 -0.0370  1.3559
  919MOL0     H21259  -0.703   0.140   9.725  5.6725  2.3115  1.1564
  919MOL0     H21260  -0.809   0.274   9.778  0.8658  0.3219 -0.5670
  919MOL0     H21261  -0.840  -0.080   9.770  2.3702 -1.0907 -0.2767
  919MOL0     H21262  -0.868  -0.252  10.109  4.1800  0.3302 -1.4145
  919MOL0     H21263  -0.854  -0.286   9.936  1.0438 -0.0163  2.3083
  919MOL0     H21264  -1.110  -0.168  10.071  0.1669 -1.5123  1.8116
  919MOL0     H21265  -1.090  -0.343  10.035 -0.9162  0.2958  0.3141
  919MOL0     H21266  -1.084  -0.110   9.832 -1.1109  0.4085  2.5012
  919MOL0     H21267  -1.049  -0.285   9.794  0.5553  0.2856 -0.7395
  919MOL0     H21268  -1.286  -0.195   9.758  2.5475 -0.5212 -0.9190
  919MOL0     H21269  -1.304  -0.193   9.931  1.3863  1.1771  0.7972
  919MOL0     H21270  -1.307  -0.633   9.852 -0.2787  0.9410 -1.9382
  919MOL0     H21271  -1.521  -0.748   9.794 -2.3369  0.0948 -1.3960
  919MOL0     H21272  -2.044  -0.661   9.970  1.8917 -0.3747 -0.8268
  919MOL0     H21273  -2.268  -0.757   9.919 -0.0984 -0.8856 -1.1920
  919MOL0     H21274  -2.510  -0.669   9.783 -2.5711  0.9787 -3.1946
  919MOL0     H21275  -2.500  -0.845   9.822  2.2577 -0.6774  0.4722
  919MOL0     H21276  -2.595  -0.908   9.624  1.2077 -0.6677  0.0594
  919MOL0     H21277  -2.574  -0.740   9.567  1.8766  0.2169  1.4603
  919MOL0     H21278  -2.770  -0.670   9.712 -2.5806 -0.2607 -1.0731
  919MOL0     H21279  -2.768  -0.826   9.791  2.3356  0.2040  0.3107
  919MOL0     H21280  -2.844  -0.775   9.503  0.7272 -0.2765  0.1484
  919MOL0     H21281  -2.841  -0.932   9.594 -0.6992  0.0445 -1.4091
  919MOL0     H21282  -3.014  -0.690   9.649 -1.4466  0.0489  0.5107
  919MOL0     H21283  -3.003  -0.848   9.731  4.7623 -0.3305  0.9716
  919MOL0     H21284  -3.057  -0.959   9.520  0.0504 -0.3548  1.5610
  919MOL0     H21285  -3.060  -0.807   9.427  2.7366 -0.6167  1.1601
  919MOL0     H21286  -3.261  -0.861   9.643  2.1411 -2.3677 -0.1984
  919MOL0     H21287  -3.226  -0.713   9.551  1.7806  0.2291 -2.7472
  919MOL0     H21288  -3.417  -0.881   9.481 -0.1710 -0.9894  1.9482
  919MOL0     H21289  -3.276  -0.955   9.395  2.0288 -0.3848  1.5648
  919MOL0     H21290  -2.213  -0.700   9.506 -1.4249  1.9127  0.2106
  919MOL0     H21291  -1.993  -0.577   9.547 -2.0598  1.6656 -1.1607
  919MOL0     H21292  -1.723  -0.385   9.809  0.2183 -1.2698 -0.2584
  919MOL0     H21293  -1.506  -0.259   9.868 -4.5041  1.2023 -2.0149
  919MOL0     H21294   0.216   0.755   9.702 -0.0841  0.8069 -1.6611
  919MOL0     H21295   0.381   0.924   9.718 -0.8455 -1.3455 -1.3186
  919MOL0     H21296   0.538   1.348  10.073 -0.0230 -0.8895 -0.1295
  919MOL0     H21297   0.725   1.514  10.029  0.8959  0.7250 -0.8592
  919MOL0     H21298   0.822   1.646   9.614  1.3772  2.7201  2.1834
  919MOL0     H21299   0.900   1.488   9.616  2.3453  1.5042 -2.1390
  919MOL0     H21300   1.097   1.596   9.732 -0.7537  0.7160  0.3161
  919MOL0     H21301   1.051   1.678   9.586 -2.9157 -0.6679 -1.1220
  919MOL0     H21302   0.994   1.765   9.870  0.7142 -0.1091 -0.3691
  919MOL0     H21303   0.934   1.843   9.719  0.6276  0.5780 -0.5626
  919MOL0     H21304   1.220   1.800   9.801 -1.0047 -2.3449 -0.6764
  919MOL0     H21305   1.178   1.853   9.633  2.8896  0.9690  0.4499
  919MOL0     H21306   1.144   2.220   9.837  2.1573 -1.4446  0.7903
  919MOL0     H21307   0.692   1.407   9.615 -1.0126  0.6317 -0.5756
  919MOL0     H21308   0.539   1.221   9.684  3.0577 -0.5001 -0.1897
  920MOL0     O21309  10.938   4.614   6.294  0.4914 -0.1806 -0.0141
  920MOL0     C21310  10.988   4.718   6.316  0.7459 -0.1671  0.5201
  920MOL0     O21311  10.920   4.821   6.374 -0.0801  0.1554 -0.9328
  920MOL0     C21312  10.778   4.834   6.375  0.6033  0.3749 -0.4068
  920MOL0     C21313  10.680   4.761   6.300 -0.1137 -0.5439  0.2215
  920MOL0     C21314  10.542   4.796   6.317  0.0873  0.3171 -0.5334
  920MOL0     C21315  10.497   4.895   6.406 -0.9062  0.6363  0.4609
  920MOL0     O21316  10.369   4.920   6.420  0.4711  0.4427 -0.3274
  920MOL0     C21317  10.315   4.953   6.549 -0.1737  1.1800  0.0021
  920MOL0     C21318  10.169   5.003   6.529  0.0127  0.2016  0.0573
  920MOL0     C21319  10.082   4.887   6.513 -0.0278 -0.0731 -0.3979
  920MOL0     C21320   9.933   4.929   6.513 -0.6433  0.2092  0.4324
  920MOL0     C21321   9.846   4.802   6.521 -0.3110  0.1314 -0.0164
  920MOL0     C21322   9.884   4.686   6.427  0.1829  0.6532  0.0628
  920MOL0     C21323   9.804   4.549   6.435 -0.3099 -0.3827  0.6284
  920MOL0     C21324   9.667   4.558   6.363  0.8083 -0.6568 -0.3864
  920MOL0     N21325   9.581   4.640   6.442  1.3918 -0.2188 -0.0667
  920MOL0     C21326   9.527   4.604   6.568 -0.3423 -0.8403  0.0020
  920MOL0     C21327   9.451   4.707   6.601  0.8825 -0.0757 -0.0420
  920MOL0     C21328   9.359   4.698   6.715  0.4135  0.0780  0.3889
  920MOL0     C21329   9.210   4.700   6.680  0.8843  0.2994 -0.3744
  920MOL0     C21330   9.124   4.679   6.797 -0.1661  0.8414  0.1704
  920MOL0     C21331   8.976   4.691   6.767  0.0664 -0.4860 -0.6028
  920MOL0     O21332   8.903   4.670   6.888 -0.1485 -0.2490  0.0621
  920MOL0     C21333   8.768   4.644   6.898 -0.3320  0.1304  0.3257
  920MOL0     C21334   8.691   4.611   6.787 -0.1650  0.1399 -0.3468
  920MOL0     C21335   8.552   4.574   6.802 -0.6411  0.1222 -0.8775
  920MOL0     C21336   8.497   4.561   6.937 -0.1674  0.6605 -0.9314
  920MOL0     C21337   8.357   4.524   6.955 -0.2729  1.0105 -0.1073
  920MOL0     O21338   8.312   4.536   7.077 -0.3244 -0.6286 -0.8660
  920MOL0     C21339   8.174   4.518   7.090  0.3556  0.5639 -0.4322
  920MOL0     C21340   8.132   4.408   7.167  0.1417  0.7719  1.0224
  920MOL0     C21341   7.995   4.379   7.181  0.5679 -0.5404 -0.0373
  920MOL0     C21342   7.902   4.461   7.112 -0.4822  0.1446 -0.3547
  920MOL0     O21343   7.773   4.423   7.109 -0.4671 -0.3700 -0.2157
  920MOL0     C21344   7.706   4.436   7.232 -0.2815  0.8599  0.4550
  920MOL0     C21345   7.585   4.347   7.226 -0.8798 -0.2037  0.0859
  920MOL0     C21346   7.484   4.390   7.335 -1.2253  0.5274 -0.0860
  920MOL0     C21347   7.402   4.517   7.304  0.4820 -0.8264 -0.8019
  920MOL0     C21348   7.269   4.537   7.380  0.4460  0.2893  0.0945
  920MOL0     C21349   7.293   4.522   7.537  0.3400  0.1546  0.2208
  920MOL0     C21350   7.239   4.384   7.590 -0.3389 -0.7173 -0.9335
  920MOL0     C21351   7.258   4.359   7.746  0.1001  0.0089 -0.1782
  920MOL0    Cl21352   7.149   4.468   7.829  0.2324 -0.1806  0.2891
  920MOL0     C21353   7.944   4.562   7.035  0.8180 -0.2264 -0.2500
  920MOL0     C21354   8.076   4.601   7.037 -0.0249  0.0037  0.3462
  920MOL0     O21355   8.299   4.496   6.856  0.4559  0.5970  0.8020
  920MOL0     C21356   8.590   4.576   7.040 -0.7518  0.2066 -1.0089
  920MOL0     C21357   8.721   4.616   7.028 -0.0590 -0.2247  0.1527
  920MOL0     N21358   9.451   4.802   6.504  0.1139 -0.5382  0.2003
  920MOL0     N21359   9.530   4.764   6.411 -0.0082 -0.1589 -0.4265
  920MOL0     C21360  10.591   4.956   6.487 -0.6623  0.2722 -0.2241
  920MOL0     C21361  10.731   4.928   6.463  0.5258  0.5210 -0.1154
  920MOL0     C21362  11.126   4.721   6.277 -0.2744  0.0472  0.3518
  920MOL0     C21363  11.207   4.609   6.282 -0.6372 -0.0922  0.1312
  920MOL0     C21364  11.339   4.601   6.246 -0.8641 -0.3411  0.0482
  920MOL0     C21365  11.393   4.728   6.194 -0.0768  1.0513 -0.2235
  920MOL0     O21366  11.525   4.747   6.154 -0.1556 -0.8524 -0.0204
  920MOL0     C21367  11.612   4.632   6.157  0.0960  0.6144 -0.4803
  920MOL0     C21368  11.753   4.675   6.118  0.8736  0.6291 -0.2996
  920MOL0     C21369  11.863   4.566   6.137  0.1696 -1.0384  0.3535
  920MOL0     C21370  11.813   4.429   6.080 -0.1612  1.0613 -0.0291
  920MOL0     C21371  11.926   4.335   6.102  0.4343 -0.2040  0.6126
  920MOL0     C21372  12.021   4.263   6.113  0.1804  0.8800  0.0308
  920MOL0     C21373  11.316   4.844   6.189  0.5541  0.2753  0.1401
  920MOL0     C21374  11.181   4.840   6.232 -0.3014  0.2795  0.1505
  920MOL0     H21375  10.707   4.679   6.235  1.5303  0.7068 -0.7585
  920MOL0     H21376  10.478   4.744   6.246 -3.2764 -0.9420  3.0121
  920MOL0     H21377  10.362   5.032   6.609 -0.1523 -1.5914  3.9975
  920MOL0     H21378  10.318   4.860   6.607  2.1922  0.6447 -0.8855
  920MOL0     H21379  10.174   5.068   6.441  0.0647 -1.5460 -1.2859
  920MOL0     H21380  10.134   5.047   6.622  2.4631  1.6626  0.3605
  920MOL0     H21381  10.093   4.810   6.590 -4.1462 -1.4593 -0.9556
  920MOL0     H21382  10.109   4.843   6.417  2.8968 -0.6142  0.5615
  920MOL0     H21383   9.908   4.999   6.593  0.2775  1.4265 -0.3084
  920MOL0     H21384   9.915   4.993   6.425 -0.7451 -1.7455 -1.0343
  920MOL0     H21385   9.748   4.835   6.485 -0.4019  0.9587  0.9573
  920MOL0     H21386   9.831   4.767   6.623 -1.7565  1.3617  0.2403
  920MOL0     H21387   9.986   4.660   6.456  1.0765  1.9095 -1.7666
  920MOL0     H21388   9.887   4.705   6.319 -1.6438 -0.8843 -0.3285
  920MOL0     H21389   9.848   4.466   6.379 -2.0181 -1.7475  1.2028
  920MOL0     H21390   9.796   4.505   6.535  1.6737  0.2410  1.0978
  920MOL0     H21391   9.618   4.460   6.358  0.3830 -0.3891 -4.0241
  920MOL0     H21392   9.677   4.590   6.260  0.9829  0.3932 -0.0493
  920MOL0     H21393   9.543   4.519   6.633 -0.1932 -1.4653 -0.8419
  920MOL0     H21394   9.380   4.782   6.782 -2.6258  0.5232  0.9104
  920MOL0     H21395   9.382   4.601   6.761 -2.0514 -1.5560 -1.5528
  920MOL0     H21396   9.185   4.619   6.612 -0.1992 -2.3491  2.8903
  920MOL0     H21397   9.190   4.795   6.629 -1.1213  0.3398  0.3875
  920MOL0     H21398   9.146   4.582   6.843 -1.4593  0.8188  0.8148
  920MOL0     H21399   9.147   4.756   6.871 -2.0406 -0.4338  2.2055
  920MOL0     H21400   8.953   4.603   6.705  1.8075 -1.9574  0.7230
  920MOL0     H21401   8.943   4.776   6.707 -4.0233 -2.3664 -1.3920
  920MOL0     H21402   8.733   4.618   6.687  0.3325  1.9566 -0.0290
  920MOL0     H21403   8.505   4.560   6.706  4.4411  0.4789 -3.7629
  920MOL0     H21404   8.214   4.345   7.201  0.8954  0.6545 -0.8537
  920MOL0     H21405   7.977   4.285   7.233  0.0165  0.7655  2.2518
  920MOL0     H21406   7.678   4.542   7.238 -0.9764  0.8354 -1.4591
  920MOL0     H21407   7.763   4.400   7.318  1.7155 -1.6254 -1.7362
  920MOL0     H21408   7.613   4.243   7.244 -0.0133  0.2947  1.8400
  920MOL0     H21409   7.536   4.347   7.128 -1.2345 -0.2859  0.2600
  920MOL0     H21410   7.541   4.400   7.427  1.3444  1.3467 -1.6613
  920MOL0     H21411   7.417   4.303   7.339 -3.2819  1.9639 -1.4547
  920MOL0     H21412   7.458   4.611   7.314 -2.6341  1.0079  0.8134
  920MOL0     H21413   7.368   4.509   7.200  1.0210 -0.7177 -0.9901
  920MOL0     H21414   7.186   4.476   7.342 -0.5750  0.0754  2.4543
  920MOL0     H21415   7.223   4.635   7.372 -1.5449 -0.4503  1.6185
  920MOL0     H21416   7.239   4.607   7.579  1.0723  1.0169 -0.5087
  920MOL0     H21417   7.400   4.540   7.557  0.2861  0.6322  0.1092
  920MOL0     H21418   7.135   4.361   7.566 -0.2094 -1.1726 -1.0653
  920MOL0     H21419   7.300   4.312   7.535 -1.1673 -2.9509  0.8545
  920MOL0     H21420   7.359   4.383   7.779  0.0583 -0.1143  0.0422
  920MOL0     H21421   7.240   4.253   7.771  0.7934 -0.5631 -1.9346
  920MOL0     H21422   7.881   4.623   6.970 -0.0198  0.0199  0.7631
  920MOL0     H21423   8.107   4.688   6.981  1.6312 -0.7344  0.0504
  920MOL0     H21424   8.563   4.569   7.145  1.3863  1.6665 -0.3047
  920MOL0     H21425   8.778   4.632   7.119  0.1241  2.9069 -0.3919
  920MOL0     H21426  10.559   5.031   6.559  0.8142  2.3343 -1.6083
  920MOL0     H21427  10.793   4.998   6.517 -1.3951  1.6114  0.7866
  920MOL0     H21428  11.157   4.522   6.325 -1.1540  1.1580  2.1868
  920MOL0     H21429  11.394   4.507   6.246  1.2165  0.8174 -0.7840
  920MOL0     H21430  11.574   4.558   6.085 -1.7299 -0.2267  1.2579
  920MOL0     H21431  11.609   4.580   6.253  2.1466  0.1655 -0.6164
  920MOL0     H21432  11.752   4.695   6.011 -0.6050  0.3575 -0.3527
  920MOL0     H21433  11.782   4.765   6.173  1.4482 -0.6066  1.5285
  920MOL0     H21434  11.866   4.556   6.246 -0.4087 -2.8619  0.2402
  920MOL0     H21435  11.959   4.588   6.088 -0.7756 -1.6372 -1.8923
  920MOL0     H21436  11.735   4.376   6.136  0.5312  0.1658  0.1087
  920MOL0     H21437  11.797   4.429   5.972  1.7747 -1.8587 -0.4486
  920MOL0     H21438  12.116   4.215   6.127  0.1165  0.2638 -1.5272
  920MOL0     H21439  11.367   4.920   6.132  1.6846 -0.7815 -0.3057
  920MOL0     H21440  11.137   4.937   6.215 -0.1366  0.1512 -1.1141
  921MOL0     O21441   0.910   1.950   0.892  0.0896  0.1648 -0.0588
  921MOL0     C21442   0.934   1.829   0.892  0.6731  0.2176  0.1563
  921MOL0     O21443   0.846   1.733   0.932 -0.5202  0.7331  0.7598
  921MOL0     C21444   0.722   1.773   0.981 -0.6952  0.0244 -0.5410
  921MOL0     C21445   0.614   1.822   0.900 -0.1171  0.1307  0.3019
  921MOL0     C21446   0.494   1.857   0.947  0.8318  0.4019  0.6883
  921MOL0     C21447   0.471   1.850   1.089 -0.0371  0.7750 -0.2737
  921MOL0     O21448   0.356   1.875   1.158 -0.1108  0.2023 -0.1126
  921MOL0     C21449   0.236   1.846   1.095  0.2227  0.7344  0.2306
  921MOL0     C21450   0.140   1.770   1.190  0.4966 -0.0469  0.8361
  921MOL0     C21451   0.005   1.769   1.122 -0.4631  0.1907  0.1181
  921MOL0     C21452  -0.103   1.710   1.213 -0.4499 -0.2717  0.7249
  921MOL0     C21453  -0.098   1.551   1.215  0.1603 -0.3363 -1.0064
  921MOL0     C21454  -0.191   1.518   1.336  0.9581  0.6751  1.0933
  921MOL0     C21455  -0.216   1.356   1.338  0.1360  0.2921 -0.9567
  921MOL0     C21456  -0.293   1.310   1.474 -1.0824  0.8091 -0.1966
  921MOL0     N21457  -0.427   1.353   1.465  0.5729  0.0788 -0.3413
  921MOL0     C21458  -0.525   1.281   1.395 -0.0992 -0.0680  1.0830
  921MOL0     C21459  -0.641   1.351   1.411  0.0551 -0.1614  0.6621
  921MOL0     C21460  -0.770   1.306   1.338 -0.3043  0.1545  0.4674
  921MOL0     C21461  -0.867   1.426   1.306 -0.7745 -0.2250  0.3867
  921MOL0     C21462  -0.974   1.378   1.204  0.0384  0.9785  0.7978
  921MOL0     C21463  -1.071   1.489   1.183 -0.0109 -0.1402 -0.4329
  921MOL0     O21464  -1.190   1.452   1.100 -0.5164  0.7952 -0.0707
  921MOL0     C21465  -1.302   1.403   1.157  0.7640 -0.3579  0.6821
  921MOL0     C21466  -1.418   1.416   1.077 -0.3629  0.0969 -1.3773
  921MOL0     C21467  -1.536   1.373   1.130 -0.3581 -0.0022 -0.0476
  921MOL0     C21468  -1.550   1.328   1.261 -0.9122  0.2863  1.1343
  921MOL0     C21469  -1.680   1.296   1.313  0.2830  0.0118  0.8002
  921MOL0     O21470  -1.790   1.310   1.234  0.2558 -0.1417  0.1820
  921MOL0     C21471  -1.914   1.286   1.281 -0.2855  0.0096  0.5606
  921MOL0     C21472  -1.961   1.153   1.281 -0.3508  0.3115 -0.4414
  921MOL0     C21473  -2.101   1.127   1.302 -0.6684  0.5646 -0.0311
  921MOL0     C21474  -2.187   1.228   1.344 -0.0211 -0.0182 -0.7648
  921MOL0     O21475  -2.319   1.209   1.381  0.1114 -0.1357 -0.8819
  921MOL0     C21476  -2.399   1.105   1.314 -0.1121 -0.3189 -0.2603
  921MOL0     C21477  -2.544   1.135   1.288 -0.4208 -0.3771  0.4177
  921MOL0     C21478  -2.624   1.158   1.409  0.1585 -0.4244  0.2161
  921MOL0     C21479  -2.772   1.158   1.377  0.3506 -0.0637  0.4877
  921MOL0     C21480  -2.857   1.182   1.500  0.1274  0.6526 -0.4128
  921MOL0     C21481  -2.998   1.223   1.464  0.5592  0.2597  0.4534
  921MOL0     C21482  -3.075   1.112   1.379  0.1482 -0.1180  0.3133
  921MOL0     C21483  -3.226   1.148   1.390  0.0938 -0.5676 -0.3085
  921MOL0    Cl21484  -3.322   1.032   1.295 -0.0460  0.1898 -0.1076
  921MOL0     C21485  -2.135   1.357   1.358 -0.1941  0.1810 -0.5396
  921MOL0     C21486  -2.007   1.377   1.317 -0.3939 -0.5525 -0.2970
  921MOL0     O21487  -1.686   1.279   1.435 -0.1059 -0.2526  0.0522
  921MOL0     C21488  -1.435   1.306   1.335 -0.6512 -0.5525  0.4152
  921MOL0     C21489  -1.309   1.352   1.286  0.0384  0.2715  0.0817
  921MOL0     N21490  -0.614   1.467   1.490 -0.8781  0.6073  0.1030
  921MOL0     N21491  -0.488   1.472   1.511  0.2958 -0.8398 -0.2617
  921MOL0     C21492   0.585   1.821   1.169 -0.1584  0.8407 -0.3350
  921MOL0     C21493   0.710   1.775   1.123  0.7821  0.6999  0.3004
  921MOL0     C21494   1.070   1.794   0.850  0.1015 -0.3509  0.0189
  921MOL0     C21495   1.178   1.891   0.866 -0.4664  0.1177  0.4001
  921MOL0     C21496   1.308   1.847   0.833  0.2977  0.2183 -0.3136
  921MOL0     C21497   1.339   1.721   0.772  0.7685  0.3427  0.6905
  921MOL0     O21498   1.465   1.708   0.715 -0.2483  0.0673 -0.5735
  921MOL0     C21499   1.500   1.571   0.700 -0.6584 -0.8797  0.8110
  921MOL0     C21500   1.629   1.547   0.756 -0.9313 -0.0128  0.2271
  921MOL0     C21501   1.736   1.598   0.656 -0.5509 -0.6968  0.3864
  921MOL0     C21502   1.877   1.555   0.687  0.4293  0.0662  0.3020
  921MOL0     C21503   1.980   1.633   0.611 -0.2453 -0.0732  0.0714
  921MOL0     C21504   2.058   1.689   0.532 -0.3463 -0.8031  0.2114
  921MOL0     C21505   1.225   1.632   0.764 -0.4182  0.3489 -0.3271
  921MOL0     C21506   1.096   1.667   0.799  0.3668 -0.1135 -0.5642
  921MOL0     H21507   0.647   1.838   0.798  3.2452  3.2133  1.6231
  921MOL0     H21508   0.418   1.884   0.875  0.2928 -0.9548  0.7233
  921MOL0     H21509   0.253   1.784   1.007  0.3933 -0.3174  0.9860
  921MOL0     H21510   0.195   1.945   1.073  0.5806  0.8697  0.1570
  921MOL0     H21511   0.141   1.837   1.276 -0.5410  0.4430  0.4822
  921MOL0     H21512   0.172   1.670   1.223 -2.3520 -1.9363 -1.6109
  921MOL0     H21513   0.016   1.717   1.027  2.6908 -1.7081  1.3723
  921MOL0     H21514  -0.013   1.873   1.095  4.6796  0.6824 -2.5879
  921MOL0     H21515  -0.103   1.749   1.315 -1.7304 -0.6823  0.9039
  921MOL0     H21516  -0.199   1.736   1.168 -0.7224 -1.3879  0.6328
  921MOL0     H21517  -0.000   1.522   1.254 -0.9600 -0.4050  2.0131
  921MOL0     H21518  -0.128   1.507   1.120 -0.5730  0.5186 -1.1829
  921MOL0     H21519  -0.288   1.566   1.324  1.9069  1.9356 -3.4890
  921MOL0     H21520  -0.145   1.561   1.425  1.8306  1.8232  0.1326
  921MOL0     H21521  -0.282   1.353   1.251  1.1322  2.4186 -1.8438
  921MOL0     H21522  -0.124   1.297   1.335  0.6696  0.1861  5.1670
  921MOL0     H21523  -0.240   1.349   1.562  0.1167 -1.2291  0.0658
  921MOL0     H21524  -0.288   1.202   1.487  2.0364  0.6613 -1.5532
  921MOL0     H21525  -0.511   1.188   1.340 -2.1494  0.8812 -1.2297
  921MOL0     H21526  -0.826   1.238   1.403  1.1574  1.4156  3.2567
  921MOL0     H21527  -0.740   1.264   1.242  1.7375  3.7196 -0.6492
  921MOL0     H21528  -0.819   1.512   1.260 -0.9582 -0.7508 -0.8554
  921MOL0     H21529  -0.917   1.448   1.400  1.0502 -2.0495  1.8651
  921MOL0     H21530  -0.921   1.369   1.110  1.2302  2.7364  1.2518
  921MOL0     H21531  -1.026   1.287   1.239  0.5790 -0.1573 -1.2157
  921MOL0     H21532  -1.023   1.572   1.131  0.2323  0.5145  0.8097
  921MOL0     H21533  -1.101   1.519   1.284 -2.1702 -2.3388 -0.3372
  921MOL0     H21534  -1.418   1.467   0.981  2.0890 -0.4176 -1.7206
  921MOL0     H21535  -1.619   1.368   1.060 -0.5117  0.2388  0.1136
  921MOL0     H21536  -1.886   1.076   1.270  0.0078  0.4123  0.9755
  921MOL0     H21537  -2.135   1.024   1.300  0.1114  0.3157 -1.6702
  921MOL0     H21538  -2.386   1.005   1.356  1.8378 -0.8641 -1.9939
  921MOL0     H21539  -2.355   1.092   1.215  2.4661  0.4341  0.7211
  921MOL0     H21540  -2.592   1.055   1.230  0.4184 -1.3157  0.9877
  921MOL0     H21541  -2.546   1.226   1.227  0.7659 -0.6140 -0.0090
  921MOL0     H21542  -2.593   1.252   1.457  0.0347  0.2307 -0.9434
  921MOL0     H21543  -2.599   1.081   1.482  2.0588  0.3293  0.4219
  921MOL0     H21544  -2.788   1.241   1.308  0.6911  0.0061  0.4923
  921MOL0     H21545  -2.806   1.072   1.318  0.1529  0.6278 -0.4276
  921MOL0     H21546  -2.814   1.266   1.556  0.7169  1.5428 -2.1261
  921MOL0     H21547  -2.873   1.092   1.559 -0.3524  0.7779 -0.3501
  921MOL0     H21548  -2.992   1.314   1.404 -2.2100 -0.6998 -1.4906
  921MOL0     H21549  -3.057   1.245   1.554  0.3174 -1.2676  0.6931
  921MOL0     H21550  -3.047   1.103   1.274  0.8356  1.1309  0.3679
  921MOL0     H21551  -3.062   1.018   1.434 -0.8669 -0.0544  0.6883
  921MOL0     H21552  -3.258   1.249   1.364  1.4049  1.0055  3.5994
  921MOL0     H21553  -3.250   1.148   1.496  0.8372  0.6063 -0.1275
  921MOL0     H21554  -2.204   1.432   1.397 -0.0288  0.4226 -0.7114
  921MOL0     H21555  -1.983   1.482   1.300 -1.4486  0.1144  1.9254
  921MOL0     H21556  -1.460   1.271   1.434 -2.9560 -0.5927 -0.1205
  921MOL0     H21557  -1.222   1.337   1.351 -0.2194  0.8442  0.5698
  921MOL0     H21558   0.584   1.830   1.277  3.3535  1.5331 -0.2492
  921MOL0     H21559   0.792   1.736   1.183  1.6033 -1.8074 -2.2070
  921MOL0     H21560   1.170   1.990   0.909  1.0361  1.4622 -2.1508
  921MOL0     H21561   1.403   1.899   0.837  0.2461  0.2487  0.7734
  921MOL0     H21562   1.504   1.537   0.596 -0.0927 -0.0078  0.5302
  921MOL0     H21563   1.431   1.503   0.750 -0.0531 -2.8119 -0.8609
  921MOL0     H21564   1.639   1.606   0.848  0.5787 -0.2547  0.2477
  921MOL0     H21565   1.639   1.441   0.782 -0.1111  0.0239  0.1021
  921MOL0     H21566   1.734   1.708   0.655 -0.5929 -0.6893 -1.1602
  921MOL0     H21567   1.715   1.559   0.556  0.5826  0.6340 -0.4029
  921MOL0     H21568   1.904   1.564   0.792  0.4830  3.1644  0.1098
  921MOL0     H21569   1.881   1.447   0.668  2.4071 -0.0045  0.9334
  921MOL0     H21570   2.113   1.746   0.460 -2.7558  0.9994 -0.3545
  921MOL0     H21571   1.241   1.537   0.713 -1.0888  0.0121  0.0774
  921MOL0     H21572   1.016   1.594   0.787  0.7233 -0.2501 -2.3623
  922MOL0     O21573   7.088   5.632   0.093  0.4982  1.0457 -0.5562
  922MOL0     C21574   7.205   5.642   0.070  0.2924  0.0757 -0.0697
  922MOL0     O21575   7.284   5.758   0.085 -0.5953 -0.1568  0.1383
  922MOL0     C21576   7.226   5.873   0.126 -0.3242 -0.1537  0.1008
  922MOL0     C21577   7.255   5.993   0.056 -0.0594  0.5364 -0.3132
  922MOL0     C21578   7.191   6.109   0.083  0.0519  0.0667  0.0537
  922MOL0     C21579   7.106   6.112   0.198  0.5749  0.4577 -0.6348
  922MOL0     O21580   7.045   6.229   0.252  0.9173 -0.0361 -0.1542
  922MOL0     C21581   7.019   6.344   0.167  0.4926  0.7099 -0.5080
  922MOL0     C21582   6.914   6.424   0.235 -0.2360 -0.2653 -0.4765
  922MOL0     C21583   6.875   6.536   0.139  0.7043 -0.1154 -0.2326
  922MOL0     C21584   6.806   6.652   0.210 -0.6117  1.0066 -0.2268
  922MOL0     C21585   6.753   6.755   0.114 -1.1905 -0.2392  0.1277
  922MOL0     C21586   6.669   6.850   0.196  0.9038  0.2248 -0.7453
  922MOL0     C21587   6.670   6.985   0.129  0.4702 -0.7851 -0.1590
  922MOL0     C21588   6.576   7.079   0.211 -0.1477 -1.0662  0.1531
  922MOL0     N21589   6.432   7.054   0.175 -0.4181  0.2329  0.8233
  922MOL0     C21590   6.368   7.115   0.065 -0.1400  0.1772  0.3416
  922MOL0     C21591   6.245   7.055   0.061 -0.2225 -0.7167  0.0022
  922MOL0     C21592   6.145   7.074  -0.048  0.5151 -0.1493 -0.4620
  922MOL0     C21593   6.025   7.161  -0.008  0.1652  0.3242  0.3557
  922MOL0     C21594   5.912   7.091   0.069 -0.4863  0.0535 -0.3079
  922MOL0     C21595   5.811   7.201   0.107 -0.4074  0.5646 -0.2739
  922MOL0     O21596   5.701   7.140   0.180  0.3291 -0.2905 -0.3346
  922MOL0     C21597   5.570   7.182   0.185  1.2931  0.9743  0.3153
  922MOL0     C21598   5.520   7.296   0.119  0.3391  0.7336  0.4036
  922MOL0     C21599   5.384   7.340   0.134 -0.9563  0.7466  0.3077
  922MOL0     C21600   5.293   7.258   0.201 -0.2961 -0.9256 -0.5147
  922MOL0     C21601   5.153   7.286   0.202 -0.4809 -0.2364  0.4513
  922MOL0     O21602   5.083   7.230   0.310  0.7278  0.1453 -0.4514
  922MOL0     C21603   4.954   7.265   0.333  0.4144  0.7166  0.7743
  922MOL0     C21604   4.913   7.349   0.439 -0.1375 -0.3764 -0.5428
  922MOL0     C21605   4.779   7.364   0.469  0.1397  0.9738 -0.2915
  922MOL0     C21606   4.681   7.284   0.409  0.4039  0.0565 -0.5005
  922MOL0     O21607   4.553   7.309   0.458  0.8622  0.0808 -0.1143
  922MOL0     C21608   4.437   7.237   0.404 -0.2697  0.7689  0.2181
  922MOL0     C21609   4.308   7.300   0.458 -0.1328 -0.6245 -0.3697
  922MOL0     C21610   4.183   7.249   0.385 -0.8342  0.7871  0.0422
  922MOL0     C21611   4.066   7.292   0.468  1.1386 -0.0135 -0.5808
  922MOL0     C21612   3.925   7.255   0.402 -0.1021 -0.5162 -0.2471
  922MOL0     C21613   3.908   7.107   0.376 -0.3775  0.8824  0.2746
  922MOL0     C21614   3.949   7.072   0.231  0.5908  0.0322  0.3577
  922MOL0     C21615   3.972   6.925   0.210  0.2967  0.0613  0.6518
  922MOL0    Cl21616   3.891   6.875   0.062  0.4053  0.1531 -0.2196
  922MOL0     C21617   4.716   7.206   0.301  0.9717  0.1010  0.7752
  922MOL0     C21618   4.850   7.195   0.259  0.3502  0.2289 -0.9408
  922MOL0     O21619   5.104   7.363   0.126  0.4108  0.3898  0.9649
  922MOL0     C21620   5.348   7.157   0.285  0.5791 -0.0227  0.6537
  922MOL0     C21621   5.476   7.116   0.268  0.1032  0.3065 -0.1600
  922MOL0     N21622   6.242   6.965   0.164  0.3570  0.3357  0.3681
  922MOL0     N21623   6.353   6.960   0.229 -0.4414 -0.1154 -0.6868
  922MOL0     C21624   7.099   5.999   0.279 -0.3276  0.2325  0.4068
  922MOL0     C21625   7.152   5.880   0.245 -0.2907 -0.2495 -0.6377
  922MOL0     C21626   7.272   5.517   0.009  0.9947  0.3856 -0.2505
  922MOL0     C21627   7.203   5.395  -0.006 -0.2635 -0.6423 -0.3117
  922MOL0     C21628   7.260   5.289  -0.072 -0.5329  0.0886  0.4835
  922MOL0     C21629   7.391   5.299  -0.126  0.4732 -0.2763  0.0506
  922MOL0     O21630   7.439   5.188  -0.190  0.2343  0.1616  1.1411
  922MOL0     C21631   7.577   5.178  -0.216  0.1116 -0.4043  0.0119
  922MOL0     C21632   7.658   5.135  -0.096 -0.7093 -0.3623  0.5927
  922MOL0     C21633   7.803   5.167  -0.109 -0.0812  0.0800 -0.6286
  922MOL0     C21634   7.882   5.093  -0.006 -0.0863 -0.3540 -0.4681
  922MOL0     C21635   7.892   5.167   0.123  0.4601  0.6075  0.5595
  922MOL0     C21636   7.916   5.241   0.217  0.4376 -0.1451  1.0089
  922MOL0     C21637   7.468   5.424  -0.103  0.8159 -0.5869 -0.8362
  922MOL0     C21638   7.399   5.531  -0.040 -0.3981 -0.4286 -0.7942
  922MOL0     H21639   7.323   5.995  -0.028  3.4407  2.0275  2.2842
  922MOL0     H21640   7.202   6.206   0.034 -0.5864  0.1641  0.0888
  922MOL0     H21641   6.978   6.310   0.072  1.2538  2.3359 -1.4534
  922MOL0     H21642   7.113   6.399   0.157 -1.4079  4.7368  1.2338
  922MOL0     H21643   6.964   6.461   0.325 -0.6150  2.3915 -1.2754
  922MOL0     H21644   6.828   6.362   0.261  1.4178 -3.7861 -2.6830
  922MOL0     H21645   6.818   6.484   0.061  2.5914 -1.3549 -0.8460
  922MOL0     H21646   6.962   6.574   0.084 -0.0658  1.0519 -0.6659
  922MOL0     H21647   6.731   6.607   0.276  0.1955 -1.0810 -0.6516
  922MOL0     H21648   6.882   6.692   0.277  1.6319 -0.8100 -1.5461
  922MOL0     H21649   6.692   6.698   0.044  1.1127 -1.5449 -0.9394
  922MOL0     H21650   6.832   6.809   0.061 -1.7717  0.4764 -0.0112
  922MOL0     H21651   6.706   6.849   0.299  1.8664 -2.3829 -1.0392
  922MOL0     H21652   6.572   6.799   0.203 -0.2235  2.4358  1.0269
  922MOL0     H21653   6.770   7.029   0.127  0.9126 -1.7878 -0.2106
  922MOL0     H21654   6.628   6.976   0.028 -4.5035 -0.2469  1.5651
  922MOL0     H21655   6.590   7.183   0.181 -4.5897 -0.7371 -1.6642
  922MOL0     H21656   6.579   7.066   0.319 -2.3573  0.6688  0.4938
  922MOL0     H21657   6.414   7.173  -0.014  0.7525  2.1964  2.2340
  922MOL0     H21658   6.105   6.978  -0.081 -1.5033  0.0100  1.3073
  922MOL0     H21659   6.196   7.122  -0.132 -0.0129 -0.7947 -1.1649
  922MOL0     H21660   5.979   7.194  -0.102 -1.0942 -1.0488  0.4619
  922MOL0     H21661   6.061   7.245   0.052 -1.0706 -1.0447  3.2417
  922MOL0     H21662   5.868   7.019  -0.001  1.3377  1.5090 -3.1215
  922MOL0     H21663   5.957   7.038   0.154  3.5597 -0.4981 -2.5202
  922MOL0     H21664   5.759   7.240   0.019 -0.7875  0.2565 -0.1875
  922MOL0     H21665   5.868   7.277   0.161  3.0991 -1.6528 -0.5402
  922MOL0     H21666   5.587   7.362   0.065 -0.9341 -1.3450 -4.1917
  922MOL0     H21667   5.356   7.428   0.076 -0.9927 -2.0713 -4.5476
  922MOL0     H21668   4.984   7.413   0.492 -0.2685 -0.2708 -0.4963
  922MOL0     H21669   4.748   7.436   0.545  3.1338  0.6972  1.3507
  922MOL0     H21670   4.450   7.131   0.428  3.2228  0.9892 -0.2213
  922MOL0     H21671   4.426   7.234   0.295 -1.8432 -3.2555  0.3182
  922MOL0     H21672   4.315   7.409   0.454  2.0489 -0.7185 -0.4860
  922MOL0     H21673   4.302   7.274   0.564  0.5809 -1.8316 -0.6019
  922MOL0     H21674   4.187   7.141   0.376 -1.1470  0.1206  5.0448
  922MOL0     H21675   4.180   7.303   0.289  1.4934 -1.1029 -1.2004
  922MOL0     H21676   4.081   7.218   0.547 -0.0051 -0.9303 -1.2020
  922MOL0     H21677   4.072   7.394   0.507 -0.5078  0.6054 -1.8594
  922MOL0     H21678   3.902   7.323   0.320  0.1257  0.8575  0.7917
  922MOL0     H21679   3.844   7.279   0.472 -0.5925 -0.6075 -0.7769
  922MOL0     H21680   3.803   7.077   0.388  0.1542 -1.2674 -0.1438
  922MOL0     H21681   3.961   7.043   0.446 -1.1614  1.0250  1.0221
  922MOL0     H21682   3.871   7.112   0.165 -0.1939 -1.0266  0.6096
  922MOL0     H21683   4.043   7.119   0.203  0.9421  0.1864  1.7032
  922MOL0     H21684   3.930   6.875   0.298  3.7286 -2.1204  1.2280
  922MOL0     H21685   4.078   6.898   0.214 -0.2265 -2.0934  0.9956
  922MOL0     H21686   4.646   7.151   0.239  1.7472 -0.9176  0.7752
  922MOL0     H21687   4.883   7.125   0.182  0.9374  1.9527 -2.3205
  922MOL0     H21688   5.279   7.110   0.355  0.9402  0.2309  1.1849
  922MOL0     H21689   5.501   7.030   0.330  1.8200  1.2284  0.4969
  922MOL0     H21690   7.056   6.013   0.378 -0.7589  1.0248  0.1163
  922MOL0     H21691   7.160   5.788   0.302  3.6949 -0.0661 -0.5927
  922MOL0     H21692   7.106   5.387   0.041 -0.2154 -0.4754 -0.1835
  922MOL0     H21693   7.209   5.195  -0.086 -0.9495  0.6319 -2.2186
  922MOL0     H21694   7.620   5.276  -0.236  1.0776 -0.6570  0.7885
  922MOL0     H21695   7.596   5.106  -0.296 -0.3722  0.0864 -0.5561
  922MOL0     H21696   7.617   5.186  -0.009  0.3521  1.0250  0.3278
  922MOL0     H21697   7.639   5.028  -0.088 -1.1834 -0.5179 -1.7792
  922MOL0     H21698   7.822   5.275  -0.108 -1.0581  0.2757 -1.5645
  922MOL0     H21699   7.840   5.131  -0.205 -3.2438 -0.0645 -1.9040
  922MOL0     H21700   7.835   4.996   0.012 -0.3557 -0.3437 -1.0894
  922MOL0     H21701   7.981   5.081  -0.051  0.9152  2.3560  0.7538
  922MOL0     H21702   7.929   5.290   0.311 -0.4586 -0.6792  1.4314
  922MOL0     H21703   7.568   5.436  -0.145  0.7432 -1.0453 -1.1473
  922MOL0     H21704   7.447   5.628  -0.032  1.0410 -1.1540 -0.1178
  923MOL0     O21705   1.714   9.492   8.490 -0.7366  0.5682  0.1199
  923MOL0     C21706   1.686   9.613   8.499  0.1835  0.6266  0.1797
  923MOL0     O21707   1.567   9.673   8.444  0.8020  0.0626 -0.6821
  923MOL0     C21708   1.457   9.600   8.403  0.6942 -0.3412 -0.4894
  923MOL0     C21709   1.436   9.465   8.413 -0.5541  0.7060  0.2847
  923MOL0     C21710   1.315   9.400   8.376 -0.2264  0.4665  0.0689
  923MOL0     C21711   1.207   9.481   8.328  0.0593 -0.8020  0.1208
  923MOL0     O21712   1.082   9.430   8.295  0.1160 -1.1436  0.7874
  923MOL0     C21713   1.034   9.332   8.392 -0.2548 -0.4872 -0.5453
  923MOL0     C21714   1.048   9.198   8.335  0.3454  0.0947  0.2286
  923MOL0     C21715   0.967   9.094   8.412 -0.2762 -0.4153 -0.1200
  923MOL0     C21716   0.966   8.961   8.348  1.0119 -0.3910  0.2184
  923MOL0     C21717   0.879   8.867   8.438 -0.6366 -0.1125 -0.4012
  923MOL0     C21718   0.894   8.726   8.379 -1.1942  0.9091 -0.3089
  923MOL0     C21719   0.828   8.609   8.451  0.1171  0.3839 -0.5894
  923MOL0     C21720   0.844   8.461   8.385 -0.2326  0.0103 -0.2995
  923MOL0     N21721   0.972   8.436   8.317  0.1244  1.3949  0.3625
  923MOL0     C21722   1.009   8.363   8.211 -0.3855 -0.4975  0.1962
  923MOL0     C21723   1.142   8.369   8.205  0.2439  0.0778  0.0797
  923MOL0     C21724   1.222   8.318   8.092 -0.7071 -0.0610 -0.1233
  923MOL0     C21725   1.335   8.234   8.157  0.2026 -0.5056 -0.2130
  923MOL0     C21726   1.314   8.084   8.149  0.8900  0.1243 -0.9779
  923MOL0     C21727   1.194   8.038   8.237  0.4884  0.8754  0.7884
  923MOL0     O21728   1.081   8.036   8.146 -0.1844 -0.0338 -0.0559
  923MOL0     C21729   0.956   8.023   8.202 -0.4380  0.4317 -0.4726
  923MOL0     C21730   0.846   8.080   8.137  0.4400 -0.2138  0.2307
  923MOL0     C21731   0.720   8.092   8.199 -0.8531 -0.6231 -0.4392
  923MOL0     C21732   0.699   8.043   8.335  0.5330  0.2202  1.1036
  923MOL0     C21733   0.565   8.054   8.402  0.1694  0.4947  1.0572
  923MOL0     O21734   0.460   8.102   8.332  0.0634  0.1172  0.2236
  923MOL0     C21735   0.351   8.133   8.409  0.1887 -0.4451  1.0529
  923MOL0     C21736   0.276   8.040   8.472  1.7772  0.2651 -0.3614
  923MOL0     C21737   0.148   8.076   8.528 -1.0976  0.3814 -0.5169
  923MOL0     C21738   0.115   8.218   8.538 -1.0432  0.1652 -0.1079
  923MOL0     O21739   0.006   8.279   8.594 -0.0747 -0.0196  0.0160
  923MOL0     C21740  -0.081   8.199   8.667 -0.0221 -0.2280 -0.7171
  923MOL0     C21741  -0.216   8.198   8.594 -0.7718  0.3748 -0.2413
  923MOL0     C21742  -0.315   8.121   8.680  0.2676 -0.1500  0.0178
  923MOL0     C21743  -0.463   8.119   8.627  0.1323 -0.3094 -0.2364
  923MOL0     C21744  -0.553   8.015   8.695  0.3924 -0.4826  0.0703
  923MOL0     C21745  -0.696   8.027   8.634 -0.0945  0.5020 -0.1443
  923MOL0     C21746  -0.769   8.164   8.649 -0.0202 -0.5566 -0.1591
  923MOL0     C21747  -0.913   8.138   8.607 -0.2964 -0.0202  0.4988
  923MOL0    Cl21748  -0.918   8.110   8.431  0.0970 -0.4425 -0.2145
  923MOL0     C21749   0.207   8.312   8.486 -1.0607  0.0923 -0.0352
  923MOL0     C21750   0.319   8.267   8.414 -0.5118 -0.2384  0.2183
  923MOL0     O21751   0.563   8.017   8.520 -0.9862  0.1077  0.8059
  923MOL0     C21752   0.805   7.979   8.393  0.0010  0.1975  0.4892
  923MOL0     C21753   0.931   7.979   8.338  0.1307 -0.1961  1.0272
  923MOL0     N21754   1.194   8.424   8.316  0.7647  0.1275 -0.2109
  923MOL0     N21755   1.092   8.476   8.377 -0.3210  0.0788 -0.0450
  923MOL0     C21756   1.226   9.621   8.319 -0.8473 -0.5950 -0.0098
  923MOL0     C21757   1.353   9.672   8.351 -1.2647 -0.3399  0.1381
  923MOL0     C21758   1.789   9.706   8.550  0.7337  0.7752  0.5130
  923MOL0     C21759   1.762   9.844   8.557 -0.3669 -0.5822  0.1120
  923MOL0     C21760   1.860   9.930   8.606  0.2765  0.4417  0.2945
  923MOL0     C21761   1.981   9.884   8.643 -0.3078  0.5175 -0.0495
  923MOL0     O21762   2.067   9.988   8.686  0.7157  0.3432 -0.5920
  923MOL0     C21763   2.196   9.952   8.733  0.6434 -0.7514 -0.2025
  923MOL0     C21764   2.274  10.080   8.786 -0.1607  0.6596  0.3834
  923MOL0     C21765   2.415  10.049   8.824  0.5988 -0.1155  0.3238
  923MOL0     C21766   2.493  10.167   8.876 -1.2775  0.3474 -0.8479
  923MOL0     C21767   2.629  10.124   8.905  0.1382  0.3096  0.3876
  923MOL0     C21768   2.734  10.085   8.947  0.2483  0.2142  0.1331
  923MOL0     C21769   2.006   9.748   8.649 -0.1275 -0.0675  0.0809
  923MOL0     C21770   1.910   9.660   8.598  0.7565  0.0834  0.6153
  923MOL0     H21771   1.518   9.405   8.452 -0.3066  0.4037 -0.6632
  923MOL0     H21772   1.308   9.292   8.379  2.7699  0.1901 -0.5400
  923MOL0     H21773   0.929   9.353   8.414  0.0189  4.9917 -2.9281
  923MOL0     H21774   1.092   9.336   8.485 -0.5832  0.5783 -0.3804
  923MOL0     H21775   1.154   9.173   8.336  0.2212 -0.4229  0.7940
  923MOL0     H21776   1.001   9.204   8.236 -0.4310 -0.2078  0.5739
  923MOL0     H21777   0.862   9.124   8.410 -0.3821 -0.5203 -3.6737
  923MOL0     H21778   1.008   9.090   8.513  0.0341 -0.1881 -0.2358
  923MOL0     H21779   0.932   8.966   8.244  3.0294 -2.3690 -0.6255
  923MOL0     H21780   1.067   8.921   8.343  1.2495  0.3136 -0.9515
  923MOL0     H21781   0.776   8.903   8.437 -1.2231 -1.7239 -1.2060
  923MOL0     H21782   0.914   8.858   8.541 -0.8985  3.5309  0.1465
  923MOL0     H21783   1.002   8.705   8.381 -1.1001  1.3857 -0.3578
  923MOL0     H21784   0.850   8.739   8.280 -1.0843  0.2714 -0.4497
  923MOL0     H21785   0.872   8.589   8.549  0.4766 -0.9510 -1.0074
  923MOL0     H21786   0.721   8.630   8.462  0.2234  0.6669 -0.0538
  923MOL0     H21787   0.770   8.449   8.306  0.9925  2.3988 -1.9306
  923MOL0     H21788   0.828   8.384   8.461  1.5746 -3.0008 -2.7223
  923MOL0     H21789   0.936   8.340   8.134 -1.1404  3.5423 -0.5374
  923MOL0     H21790   1.281   8.403   8.055  1.7273 -0.6451  2.1535
  923MOL0     H21791   1.172   8.259   8.015 -1.2072  0.4184 -0.1758
  923MOL0     H21792   1.377   8.280   8.247  0.4601 -0.3066 -0.4339
  923MOL0     H21793   1.415   8.249   8.084  0.2351 -0.5192 -0.1797
  923MOL0     H21794   1.300   8.048   8.047  2.0474  0.7762 -1.3876
  923MOL0     H21795   1.401   8.027   8.182  0.2623  0.2458  1.0055
  923MOL0     H21796   1.172   8.108   8.319  1.1691 -0.5715  2.2542
  923MOL0     H21797   1.224   7.942   8.278 -0.1566 -0.2392 -1.2265
  923MOL0     H21798   0.845   8.127   8.039 -1.3521  0.8834  0.7315
  923MOL0     H21799   0.631   8.128   8.148 -0.7742  0.8603  0.4056
  923MOL0     H21800   0.313   7.939   8.464 -1.9232 -1.1857 -1.1471
  923MOL0     H21801   0.079   7.997   8.553 -0.9617  0.9623  1.9265
  923MOL0     H21802  -0.106   8.255   8.758  0.5550 -0.4575 -0.4078
  923MOL0     H21803  -0.035   8.108   8.708 -0.8441 -0.4048 -0.1543
  923MOL0     H21804  -0.199   8.147   8.499  0.3578 -2.0361  1.1402
  923MOL0     H21805  -0.259   8.297   8.578 -2.7018 -0.1567  1.2258
  923MOL0     H21806  -0.317   8.172   8.777  0.9554  0.2567 -0.1831
  923MOL0     H21807  -0.279   8.019   8.699  1.6583 -0.0075 -1.6714
  923MOL0     H21808  -0.499   8.219   8.654 -0.2452 -0.6541  0.5819
  923MOL0     H21809  -0.457   8.102   8.519 -0.3748 -0.0194 -0.3137
  923MOL0     H21810  -0.556   8.016   8.804 -1.1499  0.4505  0.0694
  923MOL0     H21811  -0.513   7.918   8.665  0.2048 -0.5636  0.0752
  923MOL0     H21812  -0.757   7.948   8.678 -1.8342  2.1921  0.6472
  923MOL0     H21813  -0.686   7.999   8.529  2.2487  1.4915 -0.2416
  923MOL0     H21814  -0.757   8.199   8.752  3.4046  2.8154 -1.4318
  923MOL0     H21815  -0.735   8.247   8.586 -1.4896  0.3058  0.1477
  923MOL0     H21816  -0.962   8.234   8.625 -1.8855 -0.8347  0.6784
  923MOL0     H21817  -0.978   8.072   8.665  0.0784 -0.3680  0.5291
  923MOL0     H21818   0.185   8.418   8.489 -0.2557  0.2612  0.2843
  923MOL0     H21819   0.381   8.335   8.356  1.1557  0.0092  2.1747
  923MOL0     H21820   0.789   7.940   8.493 -1.4348  0.7667  0.5174
  923MOL0     H21821   1.013   7.938   8.396  0.8595  1.1350  0.9835
  923MOL0     H21822   1.152   9.693   8.286 -0.7050  0.1307  1.2341
  923MOL0     H21823   1.369   9.778   8.340  5.7233 -0.7882  1.7765
  923MOL0     H21824   1.662   9.870   8.522 -0.5734  0.6489  1.5198
  923MOL0     H21825   1.831  10.034   8.617 -4.2410 -0.6991  1.6166
  923MOL0     H21826   2.250   9.884   8.666  1.7922 -0.7700  0.7133
  923MOL0     H21827   2.178   9.886   8.819  1.9610 -2.5763 -1.2567
  923MOL0     H21828   2.276  10.157   8.709  0.2473  2.0345  1.7095
  923MOL0     H21829   2.226  10.116   8.878  0.3853 -1.2321  1.4641
  923MOL0     H21830   2.470  10.012   8.737 -2.0422 -2.7311 -0.4072
  923MOL0     H21831   2.419   9.962   8.890  0.5763  0.1885  0.7320
  923MOL0     H21832   2.500  10.253   8.809 -0.8355  0.8336 -0.1944
  923MOL0     H21833   2.443  10.204   8.966  0.6327  1.2107 -0.0901
  923MOL0     H21834   2.831  10.068   8.990 -0.4033  0.2385  1.6651
  923MOL0     H21835   2.104   9.711   8.679  1.4932  2.7058 -1.3822
  923MOL0     H21836   1.928   9.554   8.591 -1.8459 -0.3877  0.3150
  924MOL0     O21837   5.664   0.439  10.186 -0.2411 -0.1481 -0.3357
  924MOL0     C21838   5.614   0.366  10.099  0.7282 -0.0514 -0.6600
  924MOL0     O21839   5.674   0.329   9.981 -0.7137  1.1099 -0.5986
  924MOL0     C21840   5.811   0.351   9.977 -0.4858  0.3789  0.3604
  924MOL0     C21841   5.863   0.453   9.906 -0.3825 -0.1814  0.5699
  924MOL0     C21842   6.002   0.468   9.883 -0.7144  0.7937 -0.2371
  924MOL0     C21843   6.088   0.365   9.922 -1.4634  0.5395 -0.2588
  924MOL0     O21844   6.221   0.359   9.893 -0.2716  0.0721 -0.0865
  924MOL0     C21845   6.267   0.419   9.773 -0.1136  0.4607  0.1564
  924MOL0     C21846   6.401   0.360   9.736 -0.7319 -0.1209 -1.1260
  924MOL0     C21847   6.511   0.449   9.802 -0.1700 -0.5800  0.3420
  924MOL0     C21848   6.653   0.407   9.767  0.8530 -0.7771  0.5904
  924MOL0     C21849   6.693   0.281   9.843  0.9450  0.0142 -0.3762
  924MOL0     C21850   6.833   0.221   9.806  0.0451 -0.4221 -0.0925
  924MOL0     C21851   6.955   0.311   9.844  0.3916 -0.5838 -0.1522
  924MOL0     C21852   6.996   0.421   9.739  0.0300  0.6572  0.3747
  924MOL0     N21853   7.049   0.360   9.612  0.1267  0.3713  0.7978
  924MOL0     C21854   6.971   0.320   9.504 -0.1885 -0.4140 -0.4465
  924MOL0     C21855   7.049   0.238   9.442 -0.8263  0.2504  0.6026
  924MOL0     C21856   7.022   0.171   9.309 -0.3618 -0.5768  0.7451
  924MOL0     C21857   7.003   0.018   9.321 -0.0514  0.4707  0.0522
  924MOL0     C21858   6.933  -0.045   9.201  0.0611  0.1782  0.0073
  924MOL0     C21859   6.925  -0.192   9.212 -0.0632 -0.6682  0.2870
  924MOL0     O21860   6.851  -0.253   9.096 -0.3194  0.1977  0.1564
  924MOL0     C21861   6.716  -0.261   9.092 -0.3273 -0.4996  0.4330
  924MOL0     C21862   6.667  -0.320   8.974  0.0115 -0.4440 -0.0574
  924MOL0     C21863   6.535  -0.332   8.945  0.1119 -0.7139  0.2632
  924MOL0     C21864   6.436  -0.283   9.035 -0.6740  0.3004 -0.0396
  924MOL0     C21865   6.291  -0.287   9.005  0.2392 -0.2029  1.5476
  924MOL0     O21866   6.210  -0.205   9.083  0.3325  0.6000 -0.6737
  924MOL0     C21867   6.076  -0.206   9.055 -0.3480 -0.4117  0.1467
  924MOL0     C21868   5.985  -0.313   9.027  0.3346  0.2368 -0.5180
  924MOL0     C21869   5.850  -0.294   9.014 -0.2976 -0.0824  0.5911
  924MOL0     C21870   5.788  -0.171   9.036  0.3391 -1.0148 -0.3234
  924MOL0     O21871   5.655  -0.146   9.035  0.5060 -0.7960  0.2535
  924MOL0     C21872   5.558  -0.243   8.996 -0.5878  0.7753 -0.5863
  924MOL0     C21873   5.418  -0.177   8.997  0.5230  0.5857 -0.1411
  924MOL0     C21874   5.286  -0.260   8.982 -0.4787 -0.7018 -0.6845
  924MOL0     C21875   5.160  -0.173   8.957  0.7662  0.0588 -0.9721
  924MOL0     C21876   5.123  -0.081   9.074 -0.3460 -0.0987 -0.4189
  924MOL0     C21877   5.005   0.003   9.028 -0.5557 -0.4132 -0.4855
  924MOL0     C21878   4.879  -0.077   9.038  0.5377 -0.1547 -0.4869
  924MOL0     C21879   4.755   0.002   9.012  0.7021 -0.2628  0.8484
  924MOL0    Cl21880   4.739   0.122   9.142  0.4773  0.1883  0.2735
  924MOL0     C21881   5.871  -0.064   9.073 -0.1308 -0.5310  0.5815
  924MOL0     C21882   6.009  -0.082   9.078  0.3609  0.3690  0.7496
  924MOL0     O21883   6.252  -0.363   8.920 -0.2928  0.5705  0.1365
  924MOL0     C21884   6.492  -0.217   9.148  0.0212 -1.0590  0.0096
  924MOL0     C21885   6.626  -0.205   9.180 -0.7293  0.0734 -0.0846
  924MOL0     N21886   7.165   0.218   9.506 -0.3497  0.1115  0.6467
  924MOL0     N21887   7.169   0.300   9.609 -0.3046  0.1711  0.0721
  924MOL0     C21888   6.041   0.253   9.986 -0.1734 -0.1699 -0.2196
  924MOL0     C21889   5.905   0.255  10.023  0.0847  0.4536 -0.3063
  924MOL0     C21890   5.472   0.327  10.122 -0.1229  0.3597  0.0703
  924MOL0     C21891   5.391   0.307  10.007  0.2242  0.4839  0.0132
  924MOL0     C21892   5.252   0.267  10.031 -0.5666  0.2582  0.4637
  924MOL0     C21893   5.206   0.247  10.160  0.3947 -0.2203  0.1582
  924MOL0     O21894   5.077   0.206  10.176  0.0953 -0.7743  0.1123
  924MOL0     C21895   4.972   0.305  10.180 -0.2326  0.4272  0.3487
  924MOL0     C21896   4.848   0.231  10.226  0.0798  0.5612 -0.5317
  924MOL0     C21897   4.721   0.286  10.157  0.2685  0.2215 -0.8569
  924MOL0     C21898   4.602   0.203  10.213  0.7176  0.8247 -0.6612
  924MOL0     C21899   4.473   0.278  10.196 -0.1560  1.4037  0.6676
  924MOL0     C21900   4.374   0.346  10.182  0.1425 -0.0079 -0.3387
  924MOL0     C21901   5.281   0.267  10.270 -0.2626  1.1358  0.8526
  924MOL0     C21902   5.410   0.310  10.251 -1.2271 -0.3072  0.0673
  924MOL0     H21903   5.797   0.520   9.853 -1.9978 -1.6359  0.6328
  924MOL0     H21904   6.039   0.560   9.838  0.4634  1.0676  1.2150
  924MOL0     H21905   6.268   0.528   9.784  1.9293  0.8002 -2.4152
  924MOL0     H21906   6.197   0.402   9.690 -1.8339  2.6728  1.0390
  924MOL0     H21907   6.412   0.358   9.627  0.9314  1.3435 -1.0438
  924MOL0     H21908   6.409   0.256   9.770  0.8836 -0.3198 -2.0230
  924MOL0     H21909   6.504   0.434   9.910  3.8192 -0.8049  0.7366
  924MOL0     H21910   6.489   0.554   9.780 -0.3896 -0.4529  1.1282
  924MOL0     H21911   6.654   0.390   9.659 -2.8482 -1.3672  0.5410
  924MOL0     H21912   6.719   0.493   9.783  1.2117 -0.7479 -0.8697
  924MOL0     H21913   6.616   0.204   9.841  0.7837  0.1252 -3.5747
  924MOL0     H21914   6.700   0.299   9.951 -3.2481  0.4706 -0.0219
  924MOL0     H21915   6.843   0.195   9.700  0.1508 -0.2478 -0.1235
  924MOL0     H21916   6.846   0.134   9.872 -1.5340  1.7417  3.3472
  924MOL0     H21917   6.944   0.355   9.944 -0.3550  0.2502 -0.5906
  924MOL0     H21918   7.037   0.241   9.861  1.4250  0.6362  0.0442
  924MOL0     H21919   7.083   0.481   9.766  0.4960  0.5552 -0.8115
  924MOL0     H21920   6.915   0.489   9.708  0.5974  1.1688 -0.0259
  924MOL0     H21921   6.878   0.368   9.474 -0.1795  0.2258  0.5141
  924MOL0     H21922   7.108   0.190   9.243 -0.3147 -1.8192  0.4199
  924MOL0     H21923   6.936   0.225   9.266  1.1191  2.6326  1.4915
  924MOL0     H21924   6.949   0.002   9.414  0.6701 -0.1086  0.3823
  924MOL0     H21925   7.106  -0.020   9.328  0.8726  2.1143 -2.8311
  924MOL0     H21926   6.830  -0.011   9.185 -1.0605 -2.2274  1.4698
  924MOL0     H21927   6.993  -0.025   9.112  0.4638  1.2681  0.5093
  924MOL0     H21928   6.874  -0.217   9.306  0.7010  0.6976  1.0913
  924MOL0     H21929   7.022  -0.239   9.224  0.4901  0.9027  2.4802
  924MOL0     H21930   6.736  -0.364   8.903  0.2284 -4.0098  2.0759
  924MOL0     H21931   6.509  -0.385   8.854  0.5000 -0.7363  0.1633
  924MOL0     H21932   6.027  -0.409   8.997  0.6201  0.7393 -1.8033
  924MOL0     H21933   5.781  -0.378   9.004 -1.2199  0.6178  1.0005
  924MOL0     H21934   5.556  -0.327   9.066 -3.4510  3.5123  3.0293
  924MOL0     H21935   5.586  -0.285   8.899  1.0087 -0.4999  0.3664
  924MOL0     H21936   5.422  -0.093   8.928 -0.4666 -0.4743 -1.5389
  924MOL0     H21937   5.415  -0.137   9.099 -0.2933 -2.1759  1.0224
  924MOL0     H21938   5.271  -0.318   9.074  0.5097 -2.0132 -1.3114
  924MOL0     H21939   5.289  -0.330   8.899 -1.6790 -2.8188  0.9701
  924MOL0     H21940   5.155  -0.107   8.869 -1.5472 -0.5213 -1.3417
  924MOL0     H21941   5.082  -0.242   8.925 -1.1839  0.8895  1.6513
  924MOL0     H21942   5.210  -0.020   9.102 -0.6461  0.5705 -0.8939
  924MOL0     H21943   5.084  -0.138   9.159 -1.3285  2.4945  0.9990
  924MOL0     H21944   5.010   0.044   8.926 -4.3627  0.1992 -0.5804
  924MOL0     H21945   4.997   0.095   9.087 -1.1782 -0.5767 -0.3073
  924MOL0     H21946   4.889  -0.164   8.973 -0.6982  0.5133 -1.6338
  924MOL0     H21947   4.876  -0.125   9.136 -1.2596 -0.3897 -0.6253
  924MOL0     H21948   4.668  -0.064   9.006  0.7397 -0.1960 -1.1805
  924MOL0     H21949   4.754   0.057   8.917  0.2518  0.3492  1.2040
  924MOL0     H21950   5.831   0.030   9.109  1.6595  0.4507  0.1185
  924MOL0     H21951   6.068   0.007   9.096 -0.6330  1.8747 -2.5900
  924MOL0     H21952   6.421  -0.177   9.220  2.7699  2.5914  0.9750
  924MOL0     H21953   6.659  -0.171   9.277 -2.5695 -1.6116  1.2034
  924MOL0     H21954   6.113   0.173  10.000  0.9028  0.0191 -3.6526
  924MOL0     H21955   5.870   0.175  10.088  3.8126  0.0308  1.3917
  924MOL0     H21956   5.427   0.330   9.907 -3.1097  0.8392 -1.2535
  924MOL0     H21957   5.193   0.255   9.941 -0.9561 -0.5520  0.8171
  924MOL0     H21958   4.952   0.343  10.079 -2.4706  2.4566  1.4623
  924MOL0     H21959   4.996   0.385  10.251  0.4146  0.2975  0.2859
  924MOL0     H21960   4.865   0.128  10.193  1.5184  0.4312  0.4968
  924MOL0     H21961   4.854   0.234  10.335  1.3451  1.7545 -0.6009
  924MOL0     H21962   4.724   0.272  10.048 -1.6807  1.1725 -1.0897
  924MOL0     H21963   4.698   0.389  10.185 -3.1475 -0.1635 -1.7370
  924MOL0     H21964   4.584   0.104  10.171  1.1819  0.1673  0.6348
  924MOL0     H21965   4.602   0.177  10.319  0.7374 -0.0264 -0.8666
  924MOL0     H21966   4.286   0.402  10.159  0.5752  0.6653 -0.3606
  924MOL0     H21967   5.239   0.245  10.368 -2.4033 -4.1515 -0.8660
  924MOL0     H21968   5.461   0.325  10.346 -0.3581  0.6417 -0.5343
  925MOL0     O21969   7.245   3.847   1.448  0.0498  0.4182 -1.1835
  925MOL0     C21970   7.251   3.776   1.553 -0.3410  0.0557  1.1183
  925MOL0     O21971   7.160   3.774   1.644 -0.0107 -0.1553  0.9294
  925MOL0     C21972   7.045   3.854   1.631  0.9593  0.5295  0.2798
  925MOL0     C21973   6.934   3.802   1.559 -0.1359  0.0095  0.0111
  925MOL0     C21974   6.828   3.875   1.526  0.8315 -0.5999  0.2093
  925MOL0     C21975   6.818   4.002   1.592  0.8536 -0.4873  0.3299
  925MOL0     O21976   6.713   4.085   1.568  0.0321  0.3204 -1.0925
  925MOL0     C21977   6.615   4.076   1.464  0.5487  1.0209 -0.4284
  925MOL0     C21978   6.502   4.161   1.510 -0.2221 -0.4412  0.3610
  925MOL0     C21979   6.391   4.188   1.406 -0.2688 -0.7879  0.0813
  925MOL0     C21980   6.312   4.310   1.474  0.6619  0.1468  0.2387
  925MOL0     C21981   6.190   4.329   1.386 -0.1053  0.1332  0.1362
  925MOL0     C21982   6.135   4.474   1.410  0.4004  0.5102  0.7867
  925MOL0     C21983   6.014   4.505   1.314 -0.4249  1.3769 -0.2433
  925MOL0     C21984   5.881   4.436   1.348 -0.1024 -1.0012  0.0979
  925MOL0     N21985   5.761   4.496   1.286 -0.2846  0.2899 -0.3869
  925MOL0     C21986   5.729   4.487   1.153  0.8740 -0.0406  1.0605
  925MOL0     C21987   5.625   4.570   1.128 -0.7526 -0.4223  0.4971
  925MOL0     C21988   5.576   4.616   0.988  0.3975  0.4139 -0.2824
  925MOL0     C21989   5.455   4.535   0.945  0.5652  0.2217 -0.4800
  925MOL0     C21990   5.404   4.576   0.804 -0.2010  0.1294  0.2523
  925MOL0     C21991   5.253   4.568   0.768 -0.7427 -0.1830  1.0995
  925MOL0     O21992   5.174   4.663   0.840 -0.1809  0.5074 -0.1080
  925MOL0     C21993   5.044   4.639   0.836 -0.7851 -0.7158 -0.6368
  925MOL0     C21994   4.977   4.543   0.761  1.1919 -0.7242 -0.6517
  925MOL0     C21995   4.832   4.533   0.768  0.1806 -0.5280 -0.5473
  925MOL0     C21996   4.756   4.617   0.849 -1.1267  0.1908 -1.5190
  925MOL0     C21997   4.608   4.605   0.865 -0.8969  0.2124  0.5583
  925MOL0     O21998   4.557   4.642   0.980  0.2556  0.9345  0.3399
  925MOL0     C21999   4.416   4.614   0.990  0.0060  0.1533 -0.2345
  925MOL0     C22000   4.328   4.718   0.955  0.2898  0.2418 -1.1066
  925MOL0     C22001   4.194   4.714   0.975  0.0813 -0.5168  0.3658
  925MOL0     C22002   4.144   4.588   1.023 -0.0809 -1.3521  0.6598
  925MOL0     O22003   4.009   4.581   1.051 -0.6434  0.1560 -0.2892
  925MOL0     C22004   3.987   4.568   1.196 -0.6001  0.6664  0.2289
  925MOL0     C22005   3.840   4.532   1.221  0.7998  0.4971 -0.3761
  925MOL0     C22006   3.823   4.478   1.369 -0.1240  0.9530 -1.0667
  925MOL0     C22007   3.680   4.429   1.391  0.0325  0.0029 -0.1308
  925MOL0     C22008   3.658   4.286   1.358 -0.1704 -0.1632 -0.4192
  925MOL0     C22009   3.530   4.233   1.414 -0.0544 -0.4714 -0.0352
  925MOL0     C22010   3.411   4.297   1.344  0.3916  0.2991  0.5904
  925MOL0     C22011   3.283   4.234   1.361 -0.3041  0.2196 -0.1459
  925MOL0    Cl22012   3.165   4.358   1.293 -0.2582  0.3112  0.3379
  925MOL0     C22013   4.230   4.485   1.059  0.8105  0.7838  0.0329
  925MOL0     C22014   4.367   4.496   1.043  0.1448 -0.2418 -0.2877
  925MOL0     O22015   4.552   4.549   0.775  0.6969 -0.4431 -0.5044
  925MOL0     C22016   4.832   4.695   0.938  0.5242  0.2503 -0.1783
  925MOL0     C22017   4.965   4.715   0.924 -0.2856  0.7061 -0.3126
  925MOL0     N22018   5.602   4.636   1.245  0.5280  0.3734  0.4492
  925MOL0     N22019   5.677   4.582   1.337  0.5282 -0.0160 -0.1213
  925MOL0     C22020   6.913   4.049   1.675 -0.7517 -0.2889 -0.8943
  925MOL0     C22021   7.033   3.981   1.686 -0.4442 -0.3762  0.2647
  925MOL0     C22022   7.359   3.674   1.561  0.0972  0.2956 -0.0253
  925MOL0     C22023   7.460   3.657   1.462  0.4314 -0.0563 -0.6279
  925MOL0     C22024   7.571   3.577   1.488 -0.3238 -0.0698  1.1222
  925MOL0     C22025   7.569   3.489   1.595  1.2611  0.4069  0.6430
  925MOL0     O22026   7.676   3.414   1.623  0.6949 -0.0947 -0.1641
  925MOL0     C22027   7.677   3.277   1.586  0.8044  0.0808  0.3320
  925MOL0     C22028   7.675   3.250   1.435 -0.4907 -0.0514 -0.1396
  925MOL0     C22029   7.805   3.309   1.368 -0.2315  0.1729 -0.7576
  925MOL0     C22030   7.810   3.304   1.218 -0.3694 -0.2048 -0.5444
  925MOL0     C22031   7.812   3.174   1.162  0.8441  0.6254 -0.3632
  925MOL0     C22032   7.779   3.062   1.126  0.3397 -0.2475 -0.3671
  925MOL0     C22033   7.468   3.501   1.688  0.2676  0.3336 -0.3424
  925MOL0     C22034   7.366   3.594   1.674 -0.3652  0.2970 -0.7986
  925MOL0     H22035   6.930   3.702   1.518 -1.3125  1.1322 -2.8880
  925MOL0     H22036   6.747   3.840   1.463  0.2673 -0.4755  0.8610
  925MOL0     H22037   6.590   3.977   1.424  1.2635  1.2354 -1.4512
  925MOL0     H22038   6.658   4.118   1.373  0.9066 -2.0764 -1.8083
  925MOL0     H22039   6.538   4.259   1.542 -2.0133  0.2959  0.2557
  925MOL0     H22040   6.453   4.111   1.594  2.1922 -2.1667  0.8670
  925MOL0     H22041   6.325   4.103   1.389  0.1258 -0.7476 -1.8275
  925MOL0     H22042   6.436   4.225   1.314  0.9035 -3.6408 -0.6073
  925MOL0     H22043   6.272   4.300   1.575 -2.1598  0.3834 -0.7640
  925MOL0     H22044   6.379   4.397   1.470  2.6292 -1.3324 -0.8719
  925MOL0     H22045   6.107   4.260   1.406 -1.8807  1.1964 -2.8064
  925MOL0     H22046   6.214   4.329   1.280 -0.5573 -0.6419  0.0264
  925MOL0     H22047   6.214   4.544   1.380  1.6291 -0.5486  1.4396
  925MOL0     H22048   6.101   4.496   1.512 -2.0746 -1.9427  0.6092
  925MOL0     H22049   6.000   4.613   1.315 -0.4288  1.4330 -2.2025
  925MOL0     H22050   6.039   4.477   1.211 -2.3295 -3.7984  0.3823
  925MOL0     H22051   5.871   4.418   1.455  1.1112 -2.3133  0.0053
  925MOL0     H22052   5.885   4.335   1.307  2.1752 -1.3364  1.0400
  925MOL0     H22053   5.791   4.438   1.079  2.7636 -0.6352  2.9120
  925MOL0     H22054   5.658   4.606   0.917  1.5134  1.6604  0.7815
  925MOL0     H22055   5.550   4.722   0.997  0.2850  0.2213  3.3481
  925MOL0     H22056   5.373   4.561   1.013 -0.9490  4.5130 -3.4705
  925MOL0     H22057   5.470   4.427   0.941  0.6268  0.0971  1.8165
  925MOL0     H22058   5.428   4.681   0.785 -0.5677  0.1371 -0.1837
  925MOL0     H22059   5.458   4.517   0.729 -0.4086  0.8408 -0.4685
  925MOL0     H22060   5.221   4.464   0.774  0.2276 -1.0461 -4.0946
  925MOL0     H22061   5.236   4.602   0.666 -0.5484 -1.1324  0.7483
  925MOL0     H22062   5.028   4.474   0.694 -0.8960 -1.3747 -1.6505
  925MOL0     H22063   4.798   4.457   0.698 -2.0766  1.5101 -1.8107
  925MOL0     H22064   4.373   4.810   0.921  1.1394 -0.5553 -2.2270
  925MOL0     H22065   4.135   4.805   0.962 -1.2715 -1.6820 -2.5394
  925MOL0     H22066   4.008   4.665   1.244 -1.9850  1.5435 -0.8714
  925MOL0     H22067   4.045   4.487   1.243  0.0807  1.4253  0.7318
  925MOL0     H22068   3.799   4.451   1.160 -1.4221 -0.6173  2.3859
  925MOL0     H22069   3.793   4.630   1.222 -0.4393 -0.0630  0.9562
  925MOL0     H22070   3.848   4.553   1.445  2.7090  0.4878 -1.4526
  925MOL0     H22071   3.896   4.399   1.386 -0.1826  0.8308 -1.3844
  925MOL0     H22072   3.654   4.454   1.495  1.4682  0.3684  0.1682
  925MOL0     H22073   3.613   4.491   1.330  2.4672  0.0074 -3.0029
  925MOL0     H22074   3.737   4.227   1.404 -0.8448  0.7050  2.0058
  925MOL0     H22075   3.664   4.275   1.249  1.6010  0.3344 -0.3936
  925MOL0     H22076   3.528   4.249   1.522  1.4686  1.8023 -0.2751
  925MOL0     H22077   3.522   4.128   1.383 -0.2639  0.0617 -1.9189
  925MOL0     H22078   3.404   4.396   1.391  2.3926  1.3149 -1.0390
  925MOL0     H22079   3.438   4.310   1.239 -0.9079  1.6997  0.3978
  925MOL0     H22080   3.264   4.206   1.466 -0.6636 -0.8799 -0.4838
  925MOL0     H22081   3.270   4.142   1.303 -0.8107  0.0601  0.2065
  925MOL0     H22082   4.189   4.386   1.080  0.4795  0.5681 -1.4867
  925MOL0     H22083   4.434   4.415   1.071  0.4277  1.2392  4.0061
  925MOL0     H22084   4.776   4.765   1.000  0.3563  1.6245 -1.8129
  925MOL0     H22085   5.009   4.798   0.979  0.1183  0.1264  0.2557
  925MOL0     H22086   6.889   4.144   1.722 -0.4630 -1.8484  2.6799
  925MOL0     H22087   7.121   4.014   1.740  0.6699 -2.8752  0.0878
  925MOL0     H22088   7.442   3.708   1.368 -1.3181 -1.3746 -1.0705
  925MOL0     H22089   7.658   3.577   1.423 -0.9567 -1.6026  0.2259
  925MOL0     H22090   7.593   3.227   1.636  0.2491  1.6555  1.0458
  925MOL0     H22091   7.770   3.235   1.623  1.9469  0.3910 -1.9987
  925MOL0     H22092   7.675   3.142   1.421  1.5882 -0.3881  1.9158
  925MOL0     H22093   7.581   3.288   1.394  0.8425  1.1312 -2.3184
  925MOL0     H22094   7.893   3.258   1.408 -0.0512  0.2402 -1.0696
  925MOL0     H22095   7.809   3.412   1.403  2.1110  0.4843 -1.7719
  925MOL0     H22096   7.733   3.362   1.167  2.3743  1.3677 -3.2720
  925MOL0     H22097   7.902   3.359   1.197  0.6887 -0.7413  2.2377
  925MOL0     H22098   7.747   2.960   1.116 -3.6114  0.3043  3.4256
  925MOL0     H22099   7.477   3.436   1.774  1.9632 -0.9701 -1.4470
  925MOL0     H22100   7.277   3.588   1.736 -0.6762  1.0477 -1.1507
  926MOL0     O22101   1.909   0.491   3.454 -0.0960  0.3155 -0.4533
  926MOL0     C22102   1.941   0.610   3.448  0.3366  0.0910  0.3350
  926MOL0     O22103   1.852   0.715   3.439  0.2363  0.1559 -0.2609
  926MOL0     C22104   1.720   0.706   3.438 -0.3786 -0.5134 -1.1785
  926MOL0     C22105   1.637   0.594   3.470  0.1584  0.2432  0.0020
  926MOL0     C22106   1.501   0.597   3.476  0.4353 -0.5703 -0.0766
  926MOL0     C22107   1.440   0.722   3.454  0.4217 -0.4941 -0.3790
  926MOL0     O22108   1.305   0.738   3.444 -0.3765 -0.0647  0.4058
  926MOL0     C22109   1.219   0.647   3.508  0.1679  0.0772  0.0538
  926MOL0     C22110   1.076   0.683   3.482 -1.0853  0.7860  0.0874
  926MOL0     C22111   1.044   0.841   3.483 -0.1471  0.1299  0.4671
  926MOL0     C22112   0.899   0.861   3.506 -0.6318 -0.0370  0.5406
  926MOL0     C22113   0.873   1.001   3.549 -0.0401  0.2810  0.5826
  926MOL0     C22114   0.947   1.107   3.464  0.7929  0.4186 -0.0199
  926MOL0     C22115   0.852   1.235   3.451  0.1347 -0.1886  0.3172
  926MOL0     C22116   0.894   1.340   3.352 -0.3718  0.0965 -0.1839
  926MOL0     N22117   0.819   1.470   3.350  0.2994  0.8795 -0.7546
  926MOL0     C22118   0.738   1.523   3.446  0.3569  0.4056 -0.0224
  926MOL0     C22119   0.705   1.643   3.399 -0.2182  0.1356  0.2483
  926MOL0     C22120   0.643   1.759   3.475 -0.2331 -0.2740 -0.5513
  926MOL0     C22121   0.594   1.714   3.618  0.1275 -0.5791 -0.1352
  926MOL0     C22122   0.524   1.832   3.683 -0.5125  0.0467  1.0051
  926MOL0     C22123   0.511   1.798   3.838  0.2690  0.2011  0.1701
  926MOL0     O22124   0.648   1.801   3.900 -0.0008 -0.2839  0.1539
  926MOL0     C22125   0.660   1.813   4.034 -0.5679  0.1311  0.4997
  926MOL0     C22126   0.787   1.851   4.078  0.0670  1.3942 -0.0337
  926MOL0     C22127   0.812   1.892   4.207 -0.4366  0.1945  0.0218
  926MOL0     C22128   0.711   1.892   4.299 -1.0488  0.3927 -0.0536
  926MOL0     C22129   0.734   1.942   4.440  1.0812  0.6532  0.6637
  926MOL0     O22130   0.838   2.035   4.451 -0.3721  0.2091  0.2080
  926MOL0     C22131   0.896   2.053   4.578  0.0718  0.8503  0.1895
  926MOL0     C22132   0.927   2.180   4.620 -0.1097 -0.4165  0.7023
  926MOL0     C22133   0.986   2.205   4.746 -0.4111 -0.3419  0.1637
  926MOL0     C22134   1.022   2.102   4.826 -0.2477  0.8455  0.5690
  926MOL0     O22135   1.069   2.132   4.952 -0.5425  0.0735  0.2215
  926MOL0     C22136   1.067   2.024   5.062  0.1915 -0.4365  0.5734
  926MOL0     C22137   1.153   2.075   5.176 -0.1266 -0.5861  0.0374
  926MOL0     C22138   1.102   2.211   5.221 -0.4247  0.7196 -0.8002
  926MOL0     C22139   0.956   2.215   5.278 -0.3421  0.0177  0.6942
  926MOL0     C22140   0.917   2.116   5.388  0.1344  0.0126 -0.6261
  926MOL0     C22141   0.775   2.119   5.452  1.1161 -0.7016  0.0511
  926MOL0     C22142   0.739   2.018   5.553  0.3848 -0.2609 -0.5732
  926MOL0     C22143   0.589   1.991   5.564 -0.1148  0.7254 -1.3980
  926MOL0    Cl22144   0.527   1.898   5.421 -0.2084  0.3301 -0.1010
  926MOL0     C22145   1.004   1.969   4.780 -0.6831 -0.9230  0.6850
  926MOL0     C22146   0.949   1.951   4.656 -0.0173 -0.1236 -0.0389
  926MOL0     O22147   0.662   1.890   4.527  0.1264 -0.0528  0.6472
  926MOL0     C22148   0.582   1.842   4.258  0.3873 -0.5717 -0.7033
  926MOL0     C22149   0.558   1.808   4.126 -0.0370 -0.2859 -0.4782
  926MOL0     N22150   0.762   1.654   3.270  0.8211 -0.3879 -1.1881
  926MOL0     N22151   0.825   1.550   3.240  0.8375  0.0376 -0.0405
  926MOL0     C22152   1.517   0.832   3.427 -0.3318  0.0082  0.2469
  926MOL0     C22153   1.654   0.821   3.403 -0.1429  0.0131  0.0943
  926MOL0     C22154   2.080   0.646   3.441 -0.4629 -0.0312 -0.2594
  926MOL0     C22155   2.172   0.567   3.516 -0.3580 -0.4943 -0.3407
  926MOL0     C22156   2.306   0.586   3.509  0.2225  0.0089  0.6427
  926MOL0     C22157   2.358   0.692   3.436 -0.7430 -0.2800  0.2108
  926MOL0     O22158   2.490   0.724   3.428 -0.2897 -0.7522  0.0966
  926MOL0     C22159   2.583   0.623   3.457 -0.4501  0.1403 -0.3932
  926MOL0     C22160   2.731   0.663   3.432 -0.1119 -0.3272 -0.5948
  926MOL0     C22161   2.761   0.803   3.498  0.0495  0.0364  1.3158
  926MOL0     C22162   2.702   0.826   3.644 -0.2070 -0.2452 -0.5116
  926MOL0     C22163   2.784   0.926   3.717  0.5873 -0.0026  0.2963
  926MOL0     C22164   2.863   0.977   3.795 -0.4280 -0.4966  0.0659
  926MOL0     C22165   2.273   0.773   3.361  0.1885  0.9397  0.4241
  926MOL0     C22166   2.132   0.762   3.373  0.7308  0.2022 -0.2115
  926MOL0     H22167   1.690   0.501   3.489  0.3686  0.5080  0.7453
  926MOL0     H22168   1.451   0.502   3.489 -2.9991  1.0236 -0.6447
  926MOL0     H22169   1.238   0.645   3.616 -0.4329  0.9680  0.1887
  926MOL0     H22170   1.235   0.542   3.481  3.2945  0.2852  0.7797
  926MOL0     H22171   1.008   0.625   3.546 -1.7054 -2.5784 -3.2489
  926MOL0     H22172   1.060   0.641   3.382  0.9831 -2.1369  0.8475
  926MOL0     H22173   1.080   0.884   3.389  0.4992 -3.1591 -0.9530
  926MOL0     H22174   1.103   0.880   3.566  0.0443  1.8671 -0.4501
  926MOL0     H22175   0.842   0.842   3.415  1.6228 -1.1740 -0.7066
  926MOL0     H22176   0.855   0.793   3.580  0.7751  0.3890  1.8203
  926MOL0     H22177   0.901   1.013   3.654  0.1573  1.3558  0.4181
  926MOL0     H22178   0.764   1.016   3.547 -0.2615 -1.0951  0.9920
  926MOL0     H22179   0.958   1.072   3.361  1.5211  3.2283 -0.9904
  926MOL0     H22180   1.037   1.145   3.514  0.9475  0.5457 -0.3847
  926MOL0     H22181   0.764   1.184   3.410  0.5334 -1.9471  1.5060
  926MOL0     H22182   0.826   1.275   3.550  1.4113  1.1598  0.1323
  926MOL0     H22183   0.883   1.303   3.250 -1.5891  0.9433 -0.3850
  926MOL0     H22184   0.995   1.373   3.380 -0.9116  1.5254  0.1831
  926MOL0     H22185   0.720   1.474   3.541 -0.1463  0.7530  0.0621
  926MOL0     H22186   0.555   1.794   3.420 -0.7270 -1.1684 -0.3430
  926MOL0     H22187   0.723   1.833   3.485  0.9485 -1.4691 -0.8160
  926MOL0     H22188   0.681   1.682   3.676  0.3760 -1.4938 -0.9793
  926MOL0     H22189   0.528   1.626   3.614 -0.2931 -0.6772  4.1652
  926MOL0     H22190   0.579   1.926   3.677 -1.4428  0.5200 -1.7984
  926MOL0     H22191   0.425   1.846   3.638 -1.2694 -5.5482  0.1701
  926MOL0     H22192   0.470   1.697   3.842 -0.2971  0.4765  2.3437
  926MOL0     H22193   0.439   1.865   3.885 -1.0904 -1.9076  1.2354
  926MOL0     H22194   0.866   1.868   4.006 -1.9909  2.8809 -2.0924
  926MOL0     H22195   0.911   1.924   4.238 -0.5823 -0.1365  0.8733
  926MOL0     H22196   0.903   2.269   4.563 -0.0422 -0.5339  0.4855
  926MOL0     H22197   1.014   2.305   4.779  0.6770 -0.6417  0.1715
  926MOL0     H22198   1.116   1.939   5.014 -2.3061 -1.0252 -1.0864
  926MOL0     H22199   0.968   1.993   5.097 -0.8949 -0.3255 -2.1953
  926MOL0     H22200   1.258   2.096   5.152 -0.5260  0.5757 -0.7766
  926MOL0     H22201   1.160   2.008   5.262 -0.0534 -1.5078 -0.6733
  926MOL0     H22202   1.105   2.278   5.135  0.9314  2.2903  0.3894
  926MOL0     H22203   1.167   2.250   5.300  2.2765 -0.3394 -2.3475
  926MOL0     H22204   0.925   2.316   5.309 -2.6890  0.0992 -1.5739
  926MOL0     H22205   0.891   2.185   5.196  0.1086 -1.8172  0.9695
  926MOL0     H22206   0.986   2.127   5.473 -1.2858  0.2614  0.5303
  926MOL0     H22207   0.930   2.015   5.348 -1.1040 -0.1473 -0.6551
  926MOL0     H22208   0.710   2.110   5.364  0.4240  1.1761  0.3354
  926MOL0     H22209   0.749   2.215   5.496 -4.1530 -0.7594 -2.1542
  926MOL0     H22210   0.780   1.920   5.528 -1.9154 -2.1002  2.1416
  926MOL0     H22211   0.762   2.052   5.655 -0.8492 -1.0720  0.0076
  926MOL0     H22212   0.527   2.082   5.566 -2.7931 -0.9837 -1.4727
  926MOL0     H22213   0.585   1.930   5.655  1.8524  3.3798  0.6547
  926MOL0     H22214   1.041   1.884   4.835 -0.5284 -1.2692  0.0541
  926MOL0     H22215   0.937   1.852   4.614 -2.3020 -0.8275  2.0697
  926MOL0     H22216   0.500   1.840   4.329  0.7298 -2.3710 -0.3081
  926MOL0     H22217   0.454   1.784   4.106 -0.6378 -0.3542  2.3813
  926MOL0     H22218   1.456   0.922   3.417  0.2172  0.5967  1.9545
  926MOL0     H22219   1.691   0.918   3.370 -0.7078  0.7525  1.5428
  926MOL0     H22220   2.134   0.485   3.576  1.0844  0.3073  1.7760
  926MOL0     H22221   2.369   0.514   3.560 -0.7345 -0.4753  1.1676
  926MOL0     H22222   2.562   0.528   3.407 -4.1230  0.8926 -0.5532
  926MOL0     H22223   2.577   0.611   3.566  0.0094  0.6358 -0.3131
  926MOL0     H22224   2.809   0.601   3.477  2.0286  2.3183 -0.4137
  926MOL0     H22225   2.755   0.669   3.326 -1.2146 -1.2851 -0.9272
  926MOL0     H22226   2.715   0.881   3.438  0.2732 -0.6434  0.2404
  926MOL0     H22227   2.866   0.834   3.505 -0.9514  3.5561  6.0105
  926MOL0     H22228   2.597   0.850   3.658 -0.0994  0.2568 -0.5220
  926MOL0     H22229   2.705   0.739   3.709 -0.3731  0.5978  0.6489
  926MOL0     H22230   2.925   1.032   3.862  0.0737 -1.4805  0.4369
  926MOL0     H22231   2.322   0.849   3.301  1.6098  0.0357  0.4056
  926MOL0     H22232   2.071   0.828   3.313  2.1470  2.3020  0.5265
  927MOL0     O22233   3.684   4.375  10.876 -0.4189  0.2831 -0.5502
  927MOL0     C22234   3.788   4.378  10.941  0.4195 -0.3051 -0.7845
  927MOL0     O22235   3.809   4.322  11.058  0.1103  0.0979 -0.3775
  927MOL0     C22236   3.701   4.287  11.135  0.9153 -0.5202 -0.0103
  927MOL0     C22237   3.695   4.161  11.191 -0.2515  0.3200 -1.5938
  927MOL0     C22238   3.604   4.141  11.299  0.0143  1.9257  0.1409
  927MOL0     C22239   3.511   4.236  11.341  0.1361 -0.9946 -0.2547
  927MOL0     O22240   3.433   4.200  11.456 -0.3478 -0.0969  0.3175
  927MOL0     C22241   3.306   4.259  11.488  0.2228 -0.3269  0.4111
  927MOL0     C22242   3.199   4.238  11.374  0.0426 -0.2091  0.1795
  927MOL0     C22243   3.058   4.226  11.431  0.6335 -0.7911  0.7815
  927MOL0     C22244   3.024   4.100  11.508 -0.5718  0.9404  0.6642
  927MOL0     C22245   2.872   4.081  11.542 -0.2695 -0.8056 -0.0637
  927MOL0     C22246   2.817   4.202  11.622  0.1120  0.0228 -0.6228
  927MOL0     C22247   2.664   4.193  11.644 -0.1995 -1.2875  0.5726
  927MOL0     C22248   2.629   4.063  11.714 -0.8488 -0.5819 -0.4570
  927MOL0     N22249   2.507   4.089  11.788  0.9097  0.5029 -0.7844
  927MOL0     C22250   2.380   4.086  11.734 -1.1239  0.5006 -0.3543
  927MOL0     C22251   2.303   4.148  11.827  0.6850 -0.3633  0.1690
  927MOL0     C22252   2.156   4.189  11.830  0.0762  1.4235 -0.5740
  927MOL0     C22253   2.070   4.076  11.898 -0.4426 -0.8709 -0.5388
  927MOL0     C22254   1.926   4.120  11.933  0.1169  0.2999  0.2494
  927MOL0     C22255   1.866   4.031  12.035 -0.0036 -0.1167  0.2453
  927MOL0     O22256   1.733   4.086  12.068 -0.4699 -0.1424 -0.0181
  927MOL0     C22257   1.629   3.999  12.094  0.3972 -0.4481 -0.0681
  927MOL0     C22258   1.501   4.059  12.086  0.1543 -0.3159  0.0366
  927MOL0     C22259   1.387   3.992  12.113  0.0199 -1.1531  1.6117
  927MOL0     C22260   1.384   3.858  12.160  0.4008 -0.2043 -0.2987
  927MOL0     C22261   1.251   3.790  12.195 -0.3513  0.7378  0.8321
  927MOL0     O22262   1.141   3.873  12.223  0.4891 -0.0876 -0.1340
  927MOL0     C22263   1.009   3.823  12.229 -0.7205  0.2495  0.0143
  927MOL0     C22264   0.966   3.716  12.148 -0.2189  0.4351 -0.5575
  927MOL0     C22265   0.833   3.678  12.142  0.1552 -1.0068 -0.6647
  927MOL0     C22266   0.742   3.729  12.234  0.1033  0.7502 -0.0939
  927MOL0     O22267   0.605   3.700  12.233  0.0693  0.9149  0.1743
  927MOL0     C22268   0.579   3.559  12.216  0.4750  0.3029 -0.2012
  927MOL0     C22269   0.434   3.530  12.231 -0.5440  0.3460  0.6234
  927MOL0     C22270   0.343   3.617  12.151 -0.5431 -0.3391 -0.0840
  927MOL0     C22271   0.201   3.564  12.179  0.2322  0.2471  0.2237
  927MOL0     C22272   0.175   3.426  12.110  0.9130  0.2426  0.5921
  927MOL0     C22273   0.031   3.373  12.160 -0.7816  0.0003  1.3153
  927MOL0     C22274  -0.075   3.445  12.096 -0.0435 -0.3147  0.1962
  927MOL0     C22275  -0.204   3.373  12.127 -0.7791 -0.7588  0.9283
  927MOL0    Cl22276  -0.237   3.239  12.015 -0.1710 -0.0394  0.1174
  927MOL0     C22277   0.790   3.821  12.333  0.3989  0.0988 -0.1270
  927MOL0     C22278   0.918   3.860  12.333 -0.8664 -0.7480 -0.7714
  927MOL0     O22279   1.246   3.664  12.193 -0.4726 -0.5985 -0.1504
  927MOL0     C22280   1.510   3.796  12.177 -0.6763 -0.2395  0.2957
  927MOL0     C22281   1.629   3.870  12.144 -0.2073 -0.5758  0.0897
  927MOL0     N22282   2.388   4.182  11.932  1.0970 -0.1984 -0.6253
  927MOL0     N22283   2.501   4.153  11.912 -0.0099  0.2612 -0.0574
  927MOL0     C22284   3.511   4.363  11.280  0.0257  0.6644  0.6629
  927MOL0     C22285   3.616   4.385  11.186  0.1469  0.9587 -0.7177
  927MOL0     C22286   3.894   4.448  10.866  0.1106 -0.0330  0.5068
  927MOL0     C22287   3.865   4.512  10.740 -0.4220  0.8474  0.8492
  927MOL0     C22288   3.969   4.576  10.669  0.8126  0.4213  0.3675
  927MOL0     C22289   4.098   4.583  10.726  1.1415 -0.4517 -0.0402
  927MOL0     O22290   4.184   4.672  10.665  0.1164  0.8265  0.0733
  927MOL0     C22291   4.313   4.608  10.635  0.1940  0.7204 -0.2135
  927MOL0     C22292   4.406   4.725  10.593 -0.6039 -0.8334  0.1851
  927MOL0     C22293   4.438   4.832  10.699  0.8506  0.4614 -0.9369
  927MOL0     C22294   4.534   4.771  10.814  0.3688  0.8281 -0.0234
  927MOL0     C22295   4.669   4.753  10.760 -0.4575  0.3941 -0.3584
  927MOL0     C22296   4.774   4.712  10.735  0.7576 -0.0572 -0.3461
  927MOL0     C22297   4.123   4.524  10.849 -0.3576 -0.0487 -0.3766
  927MOL0     C22298   4.024   4.456  10.920 -0.7345  0.2202  0.2906
  927MOL0     H22299   3.758   4.078  11.162 -2.6118 -2.0473 -0.3500
  927MOL0     H22300   3.589   4.048  11.352 -0.6000  1.6541 -0.5048
  927MOL0     H22301   3.323   4.367  11.493  0.5355 -0.3666  0.2153
  927MOL0     H22302   3.270   4.232  11.587  0.9344 -0.0211  0.7617
  927MOL0     H22303   3.233   4.149  11.321  2.2268  1.5408 -1.5805
  927MOL0     H22304   3.206   4.319  11.301 -0.9845  1.0910  1.4624
  927MOL0     H22305   2.990   4.239  11.347  2.4827  1.4478 -0.4906
  927MOL0     H22306   3.035   4.308  11.499  0.1017 -0.6859  0.4793
  927MOL0     H22307   3.063   4.006  11.468 -0.3180  0.9566  0.8723
  927MOL0     H22308   3.077   4.118  11.602 -0.5608  0.1279  0.8214
  927MOL0     H22309   2.857   3.984  11.591 -0.2943 -1.4795 -1.3655
  927MOL0     H22310   2.815   4.079  11.449 -0.9527 -1.8498  0.3584
  927MOL0     H22311   2.841   4.300  11.579 -0.7647  1.0085  1.0039
  927MOL0     H22312   2.858   4.200  11.724 -0.2233 -0.1507 -0.4910
  927MOL0     H22313   2.629   4.279  11.702  1.2294 -0.1534 -0.1878
  927MOL0     H22314   2.619   4.202  11.545  0.9538  1.0783  0.2115
  927MOL0     H22315   2.698   4.042  11.796 -1.4993  0.3116  0.3455
  927MOL0     H22316   2.615   3.984  11.640  0.9106 -1.6054  0.2458
  927MOL0     H22317   2.356   4.045  11.636 -0.2191 -0.8408 -0.0449
  927MOL0     H22318   2.109   4.204  11.732  0.7194 -1.3867 -1.4171
  927MOL0     H22319   2.145   4.281  11.888  0.0689  2.2566 -1.8770
  927MOL0     H22320   2.117   4.040  11.990  0.8475 -0.0543 -0.8335
  927MOL0     H22321   2.060   3.988  11.834 -0.9453 -0.6320 -0.7937
  927MOL0     H22322   1.929   4.218  11.982 -0.2114  1.7011 -2.3430
  927MOL0     H22323   1.863   4.132  11.845 -0.7806  1.8687  1.0608
  927MOL0     H22324   1.918   4.034  12.132  0.0688 -1.3200  0.2660
  927MOL0     H22325   1.859   3.928  11.997 -2.3525 -0.5722  1.7347
  927MOL0     H22326   1.497   4.163  12.056 -1.0118  0.1805  1.8187
  927MOL0     H22327   1.297   4.048  12.087 -0.2187 -2.1535  0.1412
  927MOL0     H22328   1.029   3.681  12.067  0.5212  1.5821 -0.5031
  927MOL0     H22329   0.803   3.612  12.061  1.4961  0.7290 -2.6708
  927MOL0     H22330   0.626   3.514  12.304  1.6807  1.8461 -0.0288
  927MOL0     H22331   0.602   3.523  12.115 -1.3348  2.2782 -1.3961
  927MOL0     H22332   0.417   3.540  12.339 -2.6888 -2.3559  0.6660
  927MOL0     H22333   0.413   3.424  12.213  1.9192 -0.2272  0.7178
  927MOL0     H22334   0.362   3.607  12.044 -1.3814  0.3137 -0.3039
  927MOL0     H22335   0.355   3.722  12.179 -1.0476 -0.7824  1.9556
  927MOL0     H22336   0.179   3.554  12.285 -1.6596 -2.3727 -0.3322
  927MOL0     H22337   0.133   3.641  12.141 -1.2041  0.3614  2.8036
  927MOL0     H22338   0.245   3.344  12.129 -1.4975 -2.0085  0.2564
  927MOL0     H22339   0.167   3.440  12.002 -1.2541 -3.9916  0.0007
  927MOL0     H22340   0.023   3.380  12.269 -0.6261  1.8248  1.2292
  927MOL0     H22341   0.027   3.264  12.147  0.6215  0.0954 -0.2587
  927MOL0     H22342  -0.094   3.545  12.137 -1.5524 -0.6008  0.2713
  927MOL0     H22343  -0.058   3.461  11.990  2.7182  1.5678  0.8164
  927MOL0     H22344  -0.286   3.445  12.115  0.3409  0.5337  0.8639
  927MOL0     H22345  -0.195   3.335  12.230 -0.5493  2.3034  2.1344
  927MOL0     H22346   0.711   3.857  12.398 -0.1416 -0.8351 -0.2527
  927MOL0     H22347   0.950   3.931  12.409  0.8714 -0.5177 -1.6719
  927MOL0     H22348   1.528   3.697  12.218 -1.0437  0.5511  2.5103
  927MOL0     H22349   1.726   3.823  12.154 -0.3238 -1.1624 -1.2839
  927MOL0     H22350   3.453   4.447  11.316  0.0136  1.1092 -0.3596
  927MOL0     H22351   3.626   4.482  11.137  0.0234  0.6474 -1.3673
  927MOL0     H22352   3.769   4.506  10.690 -0.8885 -0.8415  1.8732
  927MOL0     H22353   3.945   4.621  10.574  0.4133  3.6305  1.8656
  927MOL0     H22354   4.300   4.539  10.552 -1.0116 -0.4181  0.8787
  927MOL0     H22355   4.354   4.554  10.720 -0.0512  0.4438 -0.2708
  927MOL0     H22356   4.499   4.682  10.554 -0.9073 -2.8239  1.4864
  927MOL0     H22357   4.363   4.782  10.511  3.4820 -0.6719 -2.1167
  927MOL0     H22358   4.346   4.871  10.743  1.1220  1.4813 -1.2490
  927MOL0     H22359   4.491   4.913  10.649  2.2476  0.0781 -0.1318
  927MOL0     H22360   4.534   4.851  10.889  2.6585 -0.3529  1.3430
  927MOL0     H22361   4.491   4.676  10.848  0.9450  1.5068  2.8056
  927MOL0     H22362   4.874   4.680  10.715  1.1427  0.5398  0.5398
  927MOL0     H22363   4.220   4.544  10.894 -1.2608  2.4054  0.6346
  927MOL0     H22364   4.052   4.417  11.017 -0.9215 -0.0077  0.2542
  928MOL0     O22365  10.891  10.435   5.154 -0.1306 -0.5788 -0.3834
  928MOL0     C22366  10.947  10.351   5.087  0.2789  0.6447  0.2567
  928MOL0     O22367  10.884  10.290   4.980  0.4845  0.1603 -0.4947
  928MOL0     C22368  10.765  10.343   4.943 -0.1482 -0.0637 -0.3922
  928MOL0     C22369  10.747  10.456   4.871  0.4197  0.6698 -0.1016
  928MOL0     C22370  10.624  10.492   4.827 -0.5414  0.1782  0.0452
  928MOL0     C22371  10.508  10.417   4.868  0.2536 -0.6188  0.3199
  928MOL0     O22372  10.384  10.480   4.842  0.3278  0.3122  0.6182
  928MOL0     C22373  10.264  10.408   4.856 -0.3326 -0.3714 -0.1065
  928MOL0     C22374  10.151  10.464   4.773 -0.3285  0.8258 -0.0762
  928MOL0     C22375  10.030  10.362   4.771 -0.0732 -0.2221 -0.3750
  928MOL0     C22376   9.902  10.437   4.732  0.9499  0.0141  0.6542
  928MOL0     C22377   9.765  10.362   4.744  0.2046 -0.0174  0.8067
  928MOL0     C22378   9.761  10.233   4.660  0.4786  0.4104  1.5130
  928MOL0     C22379   9.628  10.167   4.677  0.0397  0.8130 -1.0640
  928MOL0     C22380   9.496  10.236   4.655 -0.1625  0.9024  0.6874
  928MOL0     N22381   9.387  10.140   4.655  0.4022 -0.2900 -0.3644
  928MOL0     C22382   9.328  10.105   4.772  0.0491 -0.9161 -0.0191
  928MOL0     C22383   9.212  10.044   4.748 -0.1906  0.4374 -0.1718
  928MOL0     C22384   9.132   9.982   4.858  0.9309 -1.1242  0.0036
  928MOL0     C22385   8.989   9.980   4.813 -0.4544  0.8122  0.4385
  928MOL0     C22386   8.932  10.117   4.819  0.0547 -0.9220 -0.2255
  928MOL0     C22387   8.790  10.128   4.767 -0.0532 -0.3429  0.8358
  928MOL0     O22388   8.706  10.085   4.880  0.3795  0.2041  0.9908
  928MOL0     C22389   8.565  10.093   4.861  0.1629 -0.0146  0.4853
  928MOL0     C22390   8.509  10.117   4.736 -0.3855  0.2806  0.6277
  928MOL0     C22391   8.369  10.115   4.726  0.0124  0.5333  1.3299
  928MOL0     C22392   8.284  10.070   4.832 -0.0931  0.0114 -0.2066
  928MOL0     C22393   8.139  10.049   4.812 -0.4594 -0.9875  0.0207
  928MOL0     O22394   8.078   9.976   4.908  0.2029  0.4936  0.0378
  928MOL0     C22395   7.939   9.970   4.916  0.6054  0.8512  0.0802
  928MOL0     C22396   7.875   9.854   4.972  0.4392  0.4843 -0.2284
  928MOL0     C22397   7.736   9.839   4.984 -0.0225 -0.0351 -0.1263
  928MOL0     C22398   7.652   9.942   4.953 -0.2272 -0.1694 -0.1530
  928MOL0     O22399   7.512   9.916   4.959  0.2684  0.5324 -0.1059
  928MOL0     C22400   7.432  10.033   4.949  0.8913  0.2207 -0.0464
  928MOL0     C22401   7.288  10.012   4.954 -0.3054  0.4193  0.5574
  928MOL0     C22402   7.234   9.980   5.098 -0.1292 -0.3688 -0.3538
  928MOL0     C22403   7.096   9.916   5.105 -0.8976 -0.5070  0.1041
  928MOL0     C22404   6.984  10.011   5.060 -0.6988 -1.3434 -0.0774
  928MOL0     C22405   6.856   9.932   5.022 -0.2928  0.4099  0.0081
  928MOL0     C22406   6.811   9.839   5.130  0.9194 -0.3073 -0.2096
  928MOL0     C22407   6.779   9.909   5.264  0.9177  0.3549 -0.7094
  928MOL0    Cl22408   6.660   9.804   5.354 -0.4145 -0.1255  0.0137
  928MOL0     C22409   7.716  10.066   4.912  0.1644 -0.1550 -0.6001
  928MOL0     C22410   7.857  10.084   4.902 -0.4262  1.0729 -0.7292
  928MOL0     O22411   8.085  10.119   4.723 -0.2164  0.1436  0.4343
  928MOL0     C22412   8.341  10.070   4.959 -0.0911 -0.4458 -0.2646
  928MOL0     C22413   8.482  10.072   4.973  0.2872  0.4216  0.5524
  928MOL0     N22414   9.212  10.026   4.609  0.0333 -0.6701 -0.6896
  928MOL0     N22415   9.316  10.084   4.559 -0.4686  0.6819 -0.1010
  928MOL0     C22416  10.524  10.308   4.945 -0.2457  0.7727 -1.0995
  928MOL0     C22417  10.654  10.260   4.973 -0.3022  0.3828  0.2990
  928MOL0     C22418  11.083  10.309   5.118 -0.4704 -0.4479  0.5056
  928MOL0     C22419  11.146  10.216   5.033  0.7055  0.3045 -0.5521
  928MOL0     C22420  11.282  10.172   5.057  0.1269 -0.5886 -0.1486
  928MOL0     C22421  11.358  10.240   5.152 -0.7665 -0.0756  0.1321
  928MOL0     O22422  11.496  10.229   5.168 -0.2821 -0.4561 -0.8962
  928MOL0     C22423  11.545  10.122   5.243 -0.5658  0.0103  0.2434
  928MOL0     C22424  11.591  10.156   5.391 -0.0037 -0.3313  0.1044
  928MOL0     C22425  11.697  10.264   5.391  0.6001  0.1233  0.3151
  928MOL0     C22426  11.841  10.226   5.352 -0.3309  0.4093 -0.1865
  928MOL0     C22427  11.895  10.156   5.467  0.6308  0.5084  0.2643
  928MOL0     C22428  11.932  10.110   5.576  0.6577 -0.9189  0.4463
  928MOL0     C22429  11.297  10.338   5.233  0.0947 -0.6445  0.3028
  928MOL0     C22430  11.156  10.371   5.208 -0.2231 -0.6104  0.3654
  928MOL0     H22431  10.836  10.516   4.851 -1.2572  4.2433  2.1258
  928MOL0     H22432  10.613  10.577   4.760 -1.0041 -0.0367 -0.1579
  928MOL0     H22433  10.229  10.390   4.958 -1.0747 -3.8990 -0.8469
  928MOL0     H22434  10.290  10.313   4.806  1.6379  0.0962 -0.0691
  928MOL0     H22435  10.189  10.481   4.672  0.6680 -3.8003 -0.7261
  928MOL0     H22436  10.116  10.547   4.836 -2.1670 -1.2857  1.9071
  928MOL0     H22437  10.019  10.317   4.870 -1.1369  0.6642 -0.0663
  928MOL0     H22438  10.049  10.278   4.704  3.7501 -1.0525  1.4580
  928MOL0     H22439   9.886  10.517   4.806 -1.0633 -1.7027  2.2038
  928MOL0     H22440   9.913  10.469   4.628 -1.8853 -0.8234  0.0179
  928MOL0     H22441   9.690  10.434   4.709  0.9321  0.3244 -0.1000
  928MOL0     H22442   9.743  10.339   4.848 -1.8139  1.2222  0.7156
  928MOL0     H22443   9.844  10.173   4.697 -0.4793 -1.2218  1.1311
  928MOL0     H22444   9.776  10.256   4.554 -1.7567  1.3481  1.3333
  928MOL0     H22445   9.629  10.080   4.610 -1.8934 -0.6703  0.6963
  928MOL0     H22446   9.621  10.125   4.778  0.9224  0.8505 -0.9764
  928MOL0     H22447   9.495  10.283   4.556 -2.5985 -1.0813 -0.3442
  928MOL0     H22448   9.475  10.314   4.729 -1.3386 -1.0695  2.5403
  928MOL0     H22449   9.354  10.135   4.873 -3.3366  2.0650  0.1613
  928MOL0     H22450   9.128  10.045   4.947 -3.2140  1.8897 -1.9508
  928MOL0     H22451   9.164   9.881   4.885  0.5278 -1.1174  0.5323
  928MOL0     H22452   8.925   9.913   4.872  0.6507 -0.4316  0.2886
  928MOL0     H22453   8.991   9.941   4.711  1.8058 -0.4446  0.9044
  928MOL0     H22454   8.939  10.143   4.925  2.5166 -2.0353 -0.0363
  928MOL0     H22455   9.002  10.189   4.775  1.6976 -0.7639  2.4057
  928MOL0     H22456   8.766  10.068   4.678 -5.8836  0.9493  1.1243
  928MOL0     H22457   8.768  10.233   4.746 -0.8060 -0.7545 -0.5896
  928MOL0     H22458   8.575  10.138   4.652 -0.0772 -0.9124  0.5532
  928MOL0     H22459   8.321  10.128   4.630 -0.8749  2.4900  1.9863
  928MOL0     H22460   7.941   9.772   4.996 -0.5358  0.3234  2.1306
  928MOL0     H22461   7.700   9.740   5.008 -1.0407 -0.0022 -1.4418
  928MOL0     H22462   7.449  10.086   4.855  3.3836 -0.1030  0.1417
  928MOL0     H22463   7.451  10.105   5.029 -0.4611  0.1401  0.3637
  928MOL0     H22464   7.252   9.934   4.885  1.2700 -1.2503  1.5332
  928MOL0     H22465   7.238  10.103   4.918 -1.9158 -0.5270  0.2856
  928MOL0     H22466   7.232  10.073   5.156  0.5633 -0.3249 -0.3864
  928MOL0     H22467   7.300   9.910   5.151 -0.4674  0.3547  1.0898
  928MOL0     H22468   7.102   9.823   5.046 -2.7207  0.1661 -1.2454
  928MOL0     H22469   7.078   9.891   5.210  1.0896 -0.9212  0.3886
  928MOL0     H22470   7.018  10.068   4.973  1.4423  0.4370  1.7911
  928MOL0     H22471   6.958  10.082   5.139  0.4845 -0.0522 -0.8162
  928MOL0     H22472   6.873   9.879   4.928 -0.7341  0.5834 -0.1711
  928MOL0     H22473   6.776  10.006   5.007  0.5171  1.1821 -0.6667
  928MOL0     H22474   6.721   9.794   5.088 -1.1729  3.5072 -0.2621
  928MOL0     H22475   6.884   9.759   5.147  0.4525 -0.0858  3.7340
  928MOL0     H22476   6.723  10.001   5.242 -2.5358 -1.2799  0.4915
  928MOL0     H22477   6.868   9.926   5.325 -0.0563 -1.2915  1.3103
  928MOL0     H22478   7.666  10.162   4.900 -1.3860 -0.7838  0.4382
  928MOL0     H22479   7.886  10.184   4.873 -1.6545  2.1922  1.5877
  928MOL0     H22480   8.279  10.057   5.047  0.6238 -0.3368  0.2589
  928MOL0     H22481   8.519  10.051   5.073  0.6379 -0.1237  0.3153
  928MOL0     H22482  10.440  10.245   4.971  0.2531  1.1779  1.8730
  928MOL0     H22483  10.676  10.171   5.031  2.0506  0.7024  0.0290
  928MOL0     H22484  11.091  10.171   4.951  1.6109 -0.3148 -0.8306
  928MOL0     H22485  11.331  10.095   4.999  0.5659 -0.8899  0.6104
  928MOL0     H22486  11.628  10.086   5.182  1.0074  2.5962  0.7223
  928MOL0     H22487  11.462  10.052   5.261 -1.4209  1.4434  2.3365
  928MOL0     H22488  11.509  10.184   5.457 -0.5568  1.6861 -1.3386
  928MOL0     H22489  11.642  10.067   5.427 -0.2193  0.2043  1.7944
  928MOL0     H22490  11.706  10.322   5.484  2.2334  0.7700 -0.2142
  928MOL0     H22491  11.669  10.346   5.324  4.9309  2.5580  1.0807
  928MOL0     H22492  11.842  10.159   5.265  0.0090 -1.2345  1.0334
  928MOL0     H22493  11.895  10.319   5.330  0.2516 -0.2051 -1.4362
  928MOL0     H22494  11.966  10.067   5.669  2.2417  2.1626  1.4525
  928MOL0     H22495  11.357  10.406   5.293  2.3344 -1.5310 -0.8051
  928MOL0     H22496  11.105  10.440   5.275 -0.4237 -1.4664  1.1093
  929MOL0     O22497   8.717   0.179   0.886  0.2589 -0.3195  0.2355
  929MOL0     C22498   8.752   0.065   0.846  0.2154 -0.5877  0.4434
  929MOL0     O22499   8.671  -0.032   0.790 -0.6081  0.5356 -0.0718
  929MOL0     C22500   8.531  -0.015   0.777  0.1895  0.0120  0.1298
  929MOL0     C22501   8.473  -0.070   0.663 -0.4573 -0.0811 -1.2374
  929MOL0     C22502   8.334  -0.079   0.660 -0.2609 -0.7228  0.0538
  929MOL0     C22503   8.240  -0.036   0.755 -0.9939 -0.4288 -0.6630
  929MOL0     O22504   8.115  -0.061   0.733 -0.0872  0.4169 -0.1594
  929MOL0     C22505   8.025  -0.043   0.842 -0.0963 -0.4143  0.0230
  929MOL0     C22506   7.886  -0.095   0.802  0.3086 -0.0615  0.0024
  929MOL0     C22507   7.784  -0.093   0.915 -0.8380 -0.2143 -0.2633
  929MOL0     C22508   7.636  -0.108   0.859  0.0150 -0.5894 -0.9535
  929MOL0     C22509   7.536  -0.065   0.973  0.4569  0.1824 -0.0478
  929MOL0     C22510   7.395  -0.071   0.908 -0.5048 -0.4800  0.2499
  929MOL0     C22511   7.286  -0.032   1.006  0.2995  0.6433 -0.2114
  929MOL0     C22512   7.148  -0.087   0.959  0.0139  0.3007  0.9544
  929MOL0     N22513   7.036  -0.022   1.024 -0.0795 -0.1003  0.6736
  929MOL0     C22514   6.969  -0.064   1.134 -0.6223 -0.2804  1.2519
  929MOL0     C22515   6.894   0.046   1.172  0.2647  0.3689  0.5183
  929MOL0     C22516   6.793   0.051   1.280  0.1872 -0.4419 -0.0883
  929MOL0     C22517   6.660   0.094   1.227 -0.0218  0.8633  0.1196
  929MOL0     C22518   6.631   0.238   1.236 -0.2125 -0.0712  0.2024
  929MOL0     C22519   6.478   0.259   1.209 -0.1013 -0.3252  0.1235
  929MOL0     O22520   6.403   0.211   1.323 -0.6847  0.0131 -0.0268
  929MOL0     C22521   6.274   0.219   1.307  0.7038 -0.0253 -0.2612
  929MOL0     C22522   6.205   0.329   1.232  0.4460 -0.1146 -1.1818
  929MOL0     C22523   6.062   0.335   1.224  0.1058 -0.4125 -0.4491
  929MOL0     C22524   5.985   0.247   1.309 -1.4378 -0.8100  0.9250
  929MOL0     C22525   5.839   0.257   1.315  0.3321  0.4995 -0.1662
  929MOL0     O22526   5.776   0.140   1.366  0.5273 -0.0900  0.4699
  929MOL0     C22527   5.641   0.127   1.397 -0.5691  0.0307  0.0452
  929MOL0     C22528   5.605   0.042   1.505 -0.7381  0.6313  0.4103
  929MOL0     C22529   5.477   0.002   1.534  0.6780 -0.0347 -0.0299
  929MOL0     C22530   5.376   0.063   1.458 -0.4782  0.6491  0.2726
  929MOL0     O22531   5.251   0.029   1.487  0.2125 -0.6049  0.1044
  929MOL0     C22532   5.138   0.085   1.424  0.5004  0.7310  0.0073
  929MOL0     C22533   5.007   0.019   1.476  0.0772  0.4872 -0.2600
  929MOL0     C22534   4.890   0.097   1.428 -0.6820 -0.7098  0.3303
  929MOL0     C22535   4.754   0.009   1.425 -0.7173  0.8360 -1.1100
  929MOL0     C22536   4.644   0.081   1.342  0.1034 -0.2512  0.2849
  929MOL0     C22537   4.507   0.029   1.373  0.2657  0.0553  0.7719
  929MOL0     C22538   4.406   0.081   1.271 -0.4120 -0.0236  0.0647
  929MOL0     C22539   4.260   0.037   1.314 -0.4702  0.1984 -0.2827
  929MOL0    Cl22540   4.271  -0.138   1.311 -0.1788 -0.0160 -0.0896
  929MOL0     C22541   5.410   0.142   1.359 -0.1721 -0.5638  0.7837
  929MOL0     C22542   5.540   0.181   1.321  0.8513 -0.4898 -0.1000
  929MOL0     O22543   5.776   0.353   1.277 -0.2449  0.4958 -0.2640
  929MOL0     C22544   6.052   0.142   1.388  0.3371 -0.3114  0.1988
  929MOL0     C22545   6.193   0.135   1.394  0.3179  0.3354  0.5423
  929MOL0     N22546   6.924   0.150   1.088  0.0798 -0.5490 -0.2659
  929MOL0     N22547   6.999   0.108   0.996  0.7333  0.0481  0.6096
  929MOL0     C22548   8.306   0.029   0.872  1.1084  0.0257 -0.7609
  929MOL0     C22549   8.447   0.036   0.883  0.7526  0.7497 -0.6079
  929MOL0     C22550   8.892   0.036   0.837 -0.4738 -0.0038 -0.1443
  929MOL0     C22551   8.981   0.112   0.916 -0.9369 -0.3705 -0.2330
  929MOL0     C22552   9.125   0.091   0.907  0.0136 -0.5440 -0.4329
  929MOL0     C22553   9.173  -0.011   0.834  0.2263 -0.1595  0.1759
  929MOL0     O22554   9.307  -0.032   0.842  0.0828 -0.3320 -0.8754
  929MOL0     C22555   9.347  -0.141   0.931  0.2591 -0.0545 -0.5403
  929MOL0     C22556   9.443  -0.092   1.032 -0.2070 -0.2936 -0.6052
  929MOL0     C22557   9.568  -0.015   0.968  0.2860  0.9458  0.1712
  929MOL0     C22558   9.700  -0.046   1.037 -0.6854  0.2290  0.0451
  929MOL0     C22559   9.749  -0.180   0.994  0.3838 -0.5592 -0.6239
  929MOL0     C22560   9.795  -0.286   0.955  1.1344 -0.3435 -0.8762
  929MOL0     C22561   9.079  -0.088   0.765 -0.7068  1.3130  0.3211
  929MOL0     C22562   8.943  -0.072   0.760 -0.1914 -0.4013  0.2519
  929MOL0     H22563   8.531  -0.108   0.580  0.9302  3.1441 -1.8894
  929MOL0     H22564   8.295  -0.139   0.578 -1.4974 -1.2431  0.9852
  929MOL0     H22565   8.026   0.063   0.870 -1.6631 -0.1184 -0.9277
  929MOL0     H22566   8.061  -0.112   0.919  2.9479  1.3829  0.3968
  929MOL0     H22567   7.896  -0.194   0.755  3.1438  0.6001 -1.0279
  929MOL0     H22568   7.851  -0.030   0.721 -1.7160  0.7060  1.4319
  929MOL0     H22569   7.790   0.006   0.961  0.3748  0.1262 -1.1099
  929MOL0     H22570   7.809  -0.160   0.997  0.6826  0.2754 -0.2951
  929MOL0     H22571   7.615  -0.037   0.778 -1.0582  0.5251  0.2519
  929MOL0     H22572   7.616  -0.207   0.817  1.0980 -1.5455  0.7106
  929MOL0     H22573   7.556   0.032   1.019 -2.8533  0.9741 -0.0073
  929MOL0     H22574   7.546  -0.137   1.055 -1.2235 -0.2217 -0.1578
  929MOL0     H22575   7.378  -0.176   0.881 -1.9317 -0.2182  0.0580
  929MOL0     H22576   7.387  -0.008   0.819  2.2244 -2.8130 -1.8453
  929MOL0     H22577   7.301  -0.066   1.109  3.2825  1.5499 -0.2651
  929MOL0     H22578   7.283   0.077   1.018 -1.7210  0.4181  2.3757
  929MOL0     H22579   7.132  -0.193   0.979 -1.4091  0.5637  1.3333
  929MOL0     H22580   7.137  -0.061   0.854 -3.7556 -1.6461  0.6843
  929MOL0     H22581   6.982  -0.162   1.179 -0.8645 -0.6043  0.6264
  929MOL0     H22582   6.831   0.117   1.358  0.0810 -1.0641  0.5072
  929MOL0     H22583   6.790  -0.046   1.331  0.3123 -0.0894  0.6041
  929MOL0     H22584   6.578   0.047   1.282  0.8539  0.1744  0.8789
  929MOL0     H22585   6.650   0.050   1.127 -0.8611  1.8970 -0.2660
  929MOL0     H22586   6.659   0.284   1.332 -2.4506  0.9414  0.4274
  929MOL0     H22587   6.685   0.280   1.151  1.0314 -1.9616 -0.0009
  929MOL0     H22588   6.445   0.209   1.117 -1.5217 -0.1385  0.5052
  929MOL0     H22589   6.467   0.367   1.196  0.2671  0.0567  2.5350
  929MOL0     H22590   6.264   0.404   1.179  0.5447 -0.0210 -0.9420
  929MOL0     H22591   6.015   0.408   1.159 -5.3488 -1.5842  1.5814
  929MOL0     H22592   5.679   0.001   1.573 -0.3893  3.6863  2.0569
  929MOL0     H22593   5.461  -0.063   1.619  0.1604  0.5587  0.3340
  929MOL0     H22594   5.139   0.076   1.315 -0.0340 -0.4907  0.0878
  929MOL0     H22595   5.136   0.193   1.442 -3.0790  0.8420 -0.4145
  929MOL0     H22596   5.005   0.009   1.585  1.7017  2.3665 -0.0191
  929MOL0     H22597   4.993  -0.083   1.438  1.0255  0.2311  0.0568
  929MOL0     H22598   4.900   0.120   1.322 -1.4934 -2.8288 -0.2537
  929MOL0     H22599   4.877   0.188   1.487 -1.5756  1.8281 -3.4501
  929MOL0     H22600   4.780  -0.088   1.383 -1.6107  0.7803 -1.5701
  929MOL0     H22601   4.714  -0.003   1.526 -1.0156 -0.7811 -1.4002
  929MOL0     H22602   4.674   0.071   1.238 -0.4743  1.9558 -0.1394
  929MOL0     H22603   4.641   0.189   1.357 -0.8671 -0.2120 -0.0745
  929MOL0     H22604   4.469   0.061   1.470  0.4746 -0.5403  1.0562
  929MOL0     H22605   4.517  -0.080   1.374  2.1350  0.1876  0.7292
  929MOL0     H22606   4.416   0.189   1.252  3.4277 -0.5060 -1.5683
  929MOL0     H22607   4.428   0.036   1.175 -0.2298  1.2076 -0.4881
  929MOL0     H22608   4.179   0.081   1.255  1.1696  2.6484 -0.8922
  929MOL0     H22609   4.243   0.069   1.417  0.3798  2.4085 -0.7684
  929MOL0     H22610   5.329   0.185   1.300 -0.5633 -2.6830 -0.3218
  929MOL0     H22611   5.552   0.249   1.237  0.9442 -0.7281 -0.2806
  929MOL0     H22612   5.988   0.075   1.444  1.7445 -1.6057  0.3285
  929MOL0     H22613   6.243   0.060   1.453  1.6184  0.5646 -0.2399
  929MOL0     H22614   8.244   0.054   0.957  1.8831  1.0694 -0.4925
  929MOL0     H22615   8.494   0.075   0.972  0.4606 -0.1590 -0.0438
  929MOL0     H22616   8.939   0.191   0.978 -2.5596 -0.9901 -0.5067
  929MOL0     H22617   9.190   0.145   0.974  0.7359  1.0978 -2.3454
  929MOL0     H22618   9.386  -0.226   0.874  1.7341 -0.4033  0.9050
  929MOL0     H22619   9.257  -0.185   0.974 -0.9834  2.3964 -0.4864
  929MOL0     H22620   9.377  -0.024   1.087 -0.2934 -1.3973  0.7078
  929MOL0     H22621   9.469  -0.179   1.092 -0.2996  0.7869  1.0474
  929MOL0     H22622   9.543   0.091   0.979  0.6449  1.1225 -0.6754
  929MOL0     H22623   9.565  -0.038   0.861  1.0505  0.9318  0.1479
  929MOL0     H22624   9.773   0.034   1.021 -1.2285  1.0580  1.4596
  929MOL0     H22625   9.679  -0.048   1.144  2.1117 -1.0882  0.6509
  929MOL0     H22626   9.837  -0.381   0.928 -0.8769 -1.7612  0.6334
  929MOL0     H22627   9.128  -0.170   0.713 -0.4925  1.2410  0.6343
  929MOL0     H22628   8.877  -0.125   0.692  0.0129  1.7329 -1.7445
  930MOL0     O22629   6.268   6.294   5.471 -0.2815 -1.2229  0.0509
  930MOL0     C22630   6.279   6.373   5.565  1.8600 -0.2215 -0.0248
  930MOL0     O22631   6.178   6.405   5.647 -0.3784  0.1470 -0.1677
  930MOL0     C22632   6.049   6.366   5.620  0.9410  1.0025 -0.2907
  930MOL0     C22633   5.961   6.315   5.722 -0.5597 -1.0561  0.3430
  930MOL0     C22634   5.839   6.272   5.691  0.0771 -1.4237 -0.2501
  930MOL0     C22635   5.786   6.272   5.563  0.1810 -0.1238  0.5399
  930MOL0     O22636   5.652   6.238   5.547 -0.1522  0.1528  0.1132
  930MOL0     C22637   5.601   6.212   5.418 -0.0442  0.0617 -0.4721
  930MOL0     C22638   5.465   6.148   5.422 -0.3159 -0.0141 -0.1963
  930MOL0     C22639   5.423   6.073   5.299  0.1864 -0.1358  0.0690
  930MOL0     C22640   5.292   6.000   5.320 -0.8402 -0.3552 -0.7341
  930MOL0     C22641   5.247   5.928   5.197  0.6078 -0.3761  0.5764
  930MOL0     C22642   5.098   5.884   5.217 -0.8303  0.3138  0.0461
  930MOL0     C22643   5.029   5.840   5.091 -0.2911 -0.2152 -0.1818
  930MOL0     C22644   4.881   5.881   5.083  0.4890 -0.8512  0.9841
  930MOL0     N22645   4.817   5.870   4.949 -0.1591 -0.1941  0.7075
  930MOL0     C22646   4.839   5.952   4.840 -0.0209  0.4805  0.6621
  930MOL0     C22647   4.768   5.887   4.741 -1.0336 -0.8004  0.0224
  930MOL0     C22648   4.745   5.940   4.597  0.3894  0.2125 -0.2359
  930MOL0     C22649   4.605   6.002   4.609  0.5253  0.2369 -0.4321
  930MOL0     C22650   4.544   6.061   4.479  0.3067  0.1150 -0.2419
  930MOL0     C22651   4.528   5.960   4.363 -0.2665 -0.2932 -0.3858
  930MOL0     O22652   4.478   6.016   4.245  0.7277  0.0026 -0.1797
  930MOL0     C22653   4.371   5.948   4.205 -0.4215  0.0407  0.8949
  930MOL0     C22654   4.253   5.972   4.270  1.1491 -0.5539 -0.0028
  930MOL0     C22655   4.137   5.900   4.216  0.2619 -0.2109 -0.5071
  930MOL0     C22656   4.142   5.812   4.116 -0.1374 -0.3990 -0.3040
  930MOL0     C22657   4.020   5.736   4.069 -0.5120 -0.4450  0.5192
  930MOL0     O22658   3.907   5.787   4.112 -0.4319 -0.5604  0.6637
  930MOL0     C22659   3.789   5.723   4.084  0.2325  0.0939 -0.2401
  930MOL0     C22660   3.673   5.805   4.079 -0.8838 -0.1559  0.8952
  930MOL0     C22661   3.543   5.756   4.064 -0.0956 -0.7193  0.3504
  930MOL0     C22662   3.516   5.621   4.057 -0.4804 -0.3388  0.3375
  930MOL0     O22663   3.386   5.580   4.046  0.1626 -0.2690  0.2972
  930MOL0     C22664   3.361   5.486   4.151 -0.9942 -0.5493 -0.6814
  930MOL0     C22665   3.225   5.422   4.128 -0.6280  0.0498  0.4981
  930MOL0     C22666   3.114   5.512   4.173  0.0998  0.0563 -0.1321
  930MOL0     C22667   2.981   5.449   4.127  0.6405  0.6645  1.0976
  930MOL0     C22668   2.860   5.541   4.151 -0.1732 -0.0985  0.5779
  930MOL0     C22669   2.738   5.504   4.070 -0.2220  0.5347 -0.8709
  930MOL0     C22670   2.693   5.359   4.097 -0.3377 -0.6258 -0.9511
  930MOL0     C22671   2.570   5.317   4.006 -0.3322  0.3581  0.0438
  930MOL0    Cl22672   2.413   5.413   4.033  0.1161  0.3155 -0.4660
  930MOL0     C22673   3.633   5.538   4.045 -0.1159 -0.3788  0.3308
  930MOL0     C22674   3.764   5.586   4.060  0.2837  0.4053  0.1566
  930MOL0     O22675   4.034   5.639   3.988  0.7169  0.2492 -0.0381
  930MOL0     C22676   4.265   5.786   4.059 -0.2551 -0.9701  0.1982
  930MOL0     C22677   4.383   5.851   4.104 -0.0822  0.1026 -0.1861
  930MOL0     N22678   4.708   5.778   4.794  0.1853 -0.0562 -0.8337
  930MOL0     N22679   4.729   5.768   4.918  0.0732 -0.4645 -0.0267
  930MOL0     C22680   5.865   6.323   5.457 -0.2139  0.3632 -0.0035
  930MOL0     C22681   5.995   6.367   5.484 -0.6428  0.3444 -0.2835
  930MOL0     C22682   6.400   6.440   5.598  0.1883  0.1506  0.6597
  930MOL0     C22683   6.423   6.533   5.703 -0.4424 -0.4114 -0.6383
  930MOL0     C22684   6.549   6.597   5.713  1.5993 -0.0142 -0.0502
  930MOL0     C22685   6.653   6.579   5.618  0.3491  0.4159 -0.1460
  930MOL0     O22686   6.786   6.644   5.634  0.2767  0.7316  0.2184
  930MOL0     C22687   6.895   6.590   5.554 -0.2035  0.0989 -0.0245
  930MOL0     C22688   7.021   6.675   5.567 -0.6070 -0.0685 -0.2265
  930MOL0     C22689   7.101   6.628   5.692 -0.0598  0.3579 -0.1147
  930MOL0     C22690   7.241   6.701   5.683  0.1426 -0.2560  0.1856
  930MOL0     C22691   7.304   6.690   5.808 -0.0993  0.2392 -0.3016
  930MOL0     C22692   7.358   6.676   5.919 -0.2022  0.1765  0.2476
  930MOL0     C22693   6.624   6.493   5.509 -0.8424 -0.0681 -0.0761
  930MOL0     C22694   6.501   6.425   5.497  0.4569 -0.6901  0.0086
  930MOL0     H22695   6.003   6.299   5.821  2.2435 -0.1201 -0.5802
  930MOL0     H22696   5.773   6.233   5.768  2.1349 -1.9202  1.3326
  930MOL0     H22697   5.668   6.140   5.371  0.4651  0.7582 -0.8445
  930MOL0     H22698   5.599   6.305   5.360  0.5592  0.3978  0.0345
  930MOL0     H22699   5.390   6.220   5.457 -1.0973 -1.7195  1.9624
  930MOL0     H22700   5.477   6.067   5.495  0.8776  0.7345  0.4661
  930MOL0     H22701   5.486   5.987   5.273 -0.3037 -0.2214 -0.8501
  930MOL0     H22702   5.409   6.141   5.216  0.6361  1.0164  0.9120
  930MOL0     H22703   5.301   5.929   5.402  2.3582  0.4687 -0.2499
  930MOL0     H22704   5.222   6.075   5.357 -2.9300 -2.0163 -1.1186
  930MOL0     H22705   5.310   5.839   5.182  1.9508  0.5276  0.6183
  930MOL0     H22706   5.258   5.999   5.115  0.0220  0.1337  0.9342
  930MOL0     H22707   5.032   5.960   5.260 -0.6516 -0.4199  1.6804
  930MOL0     H22708   5.091   5.795   5.279 -3.2942  0.1576 -0.3409
  930MOL0     H22709   5.087   5.894   5.015  0.2385  0.8413  0.9463
  930MOL0     H22710   5.041   5.731   5.089 -0.8866 -0.2793 -0.5098
  930MOL0     H22711   4.877   5.984   5.118  1.1368  0.7588 -3.1104
  930MOL0     H22712   4.814   5.826   5.149 -2.7059  1.7852  0.2006
  930MOL0     H22713   4.896   6.043   4.827  0.4195 -0.1014 -2.1353
  930MOL0     H22714   4.727   5.854   4.532  1.2910 -0.3769  0.2791
  930MOL0     H22715   4.820   6.006   4.552 -1.6538  2.2654 -0.8644
  930MOL0     H22716   4.614   6.076   4.689  0.3083  1.4010 -1.4559
  930MOL0     H22717   4.537   5.923   4.642  0.2242  0.4133 -0.6169
  930MOL0     H22718   4.445   6.098   4.507  0.3001 -1.2105  1.7262
  930MOL0     H22719   4.601   6.144   4.436 -1.1575  0.9920 -0.5636
  930MOL0     H22720   4.484   5.872   4.411 -0.1335  0.6749  1.6461
  930MOL0     H22721   4.634   5.939   4.343  0.2811  0.2561  1.6502
  930MOL0     H22722   4.248   6.039   4.356  0.2804  0.4184 -0.7817
  930MOL0     H22723   4.047   5.931   4.267 -0.0808 -1.0419 -0.5924
  930MOL0     H22724   3.693   5.912   4.087  3.0210 -0.6685  0.1909
  930MOL0     H22725   3.452   5.816   4.056  1.8145  2.1422 -1.8513
  930MOL0     H22726   3.349   5.545   4.242  0.0667 -1.5549  0.1461
  930MOL0     H22727   3.446   5.418   4.145 -0.8042 -0.1985 -3.5334
  930MOL0     H22728   3.216   5.332   4.189  4.5004 -0.7690  0.4891
  930MOL0     H22729   3.206   5.397   4.023 -0.3812  1.7823  0.0144
  930MOL0     H22730   3.126   5.609   4.124  1.6784 -1.3837 -2.8241
  930MOL0     H22731   3.109   5.517   4.282  0.9576  0.3817 -0.1079
  930MOL0     H22732   2.991   5.425   4.020  0.8908  3.7209  0.3496
  930MOL0     H22733   2.966   5.359   4.186 -1.1765  0.6252  0.6225
  930MOL0     H22734   2.886   5.643   4.122  0.9801 -0.1675  1.3401
  930MOL0     H22735   2.836   5.537   4.258  0.6417 -2.4710  0.7315
  930MOL0     H22736   2.760   5.520   3.964 -2.7306  2.4197 -1.1904
  930MOL0     H22737   2.654   5.573   4.080 -1.1011 -0.5204 -0.8075
  930MOL0     H22738   2.774   5.290   4.075  1.7366  1.6107 -0.7562
  930MOL0     H22739   2.656   5.362   4.200  0.6792  2.6096 -0.5523
  930MOL0     H22740   2.549   5.212   4.025 -0.9056 -0.4404 -4.0618
  930MOL0     H22741   2.610   5.318   3.904  1.5426  1.3599  0.7301
  930MOL0     H22742   3.621   5.437   4.009 -1.7242  0.3241 -1.2715
  930MOL0     H22743   3.839   5.508   4.049  2.4554  2.6949 -2.8199
  930MOL0     H22744   4.279   5.723   3.971  1.3350  2.1157 -1.9296
  930MOL0     H22745   4.473   5.837   4.045  1.8186 -2.1326  2.9463
  930MOL0     H22746   5.825   6.329   5.357  1.3208  1.5150 -0.5839
  930MOL0     H22747   6.051   6.412   5.403  0.3045 -1.1053 -0.4642
  930MOL0     H22748   6.338   6.539   5.771 -1.5867 -0.5925 -2.0007
  930MOL0     H22749   6.570   6.681   5.778  0.5280  0.2308 -0.0116
  930MOL0     H22750   6.873   6.601   5.448 -0.5196  1.3837  0.1595
  930MOL0     H22751   6.929   6.488   5.574 -0.3643 -0.1508 -0.9766
  930MOL0     H22752   7.086   6.663   5.480  0.3996 -1.7448  0.7033
  930MOL0     H22753   6.996   6.781   5.579  1.9057  0.3314  2.6989
  930MOL0     H22754   7.116   6.520   5.699  1.9852  0.5260 -1.1655
  930MOL0     H22755   7.051   6.676   5.777  0.7393  1.9931 -0.5095
  930MOL0     H22756   7.305   6.664   5.601  0.6664  3.6802 -1.4166
  930MOL0     H22757   7.234   6.809   5.665  0.2385 -0.5001 -1.5508
  930MOL0     H22758   7.405   6.641   6.009 -1.2900  0.0073  0.7591
  930MOL0     H22759   6.705   6.487   5.437 -0.0934  1.2836  0.6306
  930MOL0     H22760   6.480   6.356   5.416  2.4094 -1.8682  0.4386
  931MOL0     O22761   2.006   8.137   6.211  0.1516  0.2274  0.2596
  931MOL0     C22762   2.102   8.109   6.284  0.7138 -0.3366  0.4757
  931MOL0     O22763   2.102   7.997   6.366  0.4318 -0.0705 -0.6793
  931MOL0     C22764   2.009   7.897   6.363 -0.1821  0.1626  0.1813
  931MOL0     C22765   2.054   7.766   6.348  0.5576  0.0012  0.8265
  931MOL0     C22766   1.960   7.659   6.345  0.0297  0.7484  0.4134
  931MOL0     C22767   1.824   7.681   6.348  0.1170  0.4109 -0.9614
  931MOL0     O22768   1.747   7.565   6.327  0.1904  0.4517  0.4986
  931MOL0     C22769   1.608   7.583   6.316 -0.4125 -1.1975  0.4761
  931MOL0     C22770   1.526   7.442   6.321  0.2478 -0.4684 -0.2151
  931MOL0     C22771   1.378   7.463   6.305  0.2099  0.1769  0.3337
  931MOL0     C22772   1.315   7.330   6.345 -0.2862  0.4416  0.1940
  931MOL0     C22773   1.169   7.337   6.381 -0.5559  0.0505  1.0765
  931MOL0     C22774   1.089   7.396   6.260 -0.5366 -0.3236 -0.6477
  931MOL0     C22775   0.953   7.441   6.305  1.0775 -1.0210  0.2959
  931MOL0     C22776   0.938   7.590   6.349  0.4103 -0.0322  0.0244
  931MOL0     N22777   0.822   7.623   6.440  0.2789  0.2709 -0.5265
  931MOL0     C22778   0.710   7.702   6.418 -0.2126  0.2160  0.5814
  931MOL0     C22779   0.643   7.697   6.537  0.4535 -0.0867  0.0347
  931MOL0     C22780   0.526   7.768   6.584 -0.3516  0.0632  0.1381
  931MOL0     C22781   0.398   7.697   6.577 -0.4153  0.6373  0.1552
  931MOL0     C22782   0.386   7.587   6.468 -0.8526  0.5316 -0.8337
  931MOL0     C22783   0.241   7.545   6.437 -0.3451 -0.0138 -0.2643
  931MOL0     O22784   0.133   7.633   6.481 -0.4458 -1.0213 -0.0549
  931MOL0     C22785   0.008   7.619   6.431  0.0909 -0.5478  1.1029
  931MOL0     C22786  -0.037   7.519   6.346  0.0728  0.8248  0.1987
  931MOL0     C22787  -0.173   7.512   6.313 -0.0807  0.4112  0.0297
  931MOL0     C22788  -0.261   7.612   6.348  0.5298  0.0409  0.4087
  931MOL0     C22789  -0.404   7.612   6.321 -0.2025 -0.3436 -0.2570
  931MOL0     O22790  -0.451   7.532   6.224 -0.2234  0.2126  0.4905
  931MOL0     C22791  -0.584   7.534   6.184 -0.4810 -0.8116  0.3167
  931MOL0     C22792  -0.630   7.600   6.067  0.1906  0.5071 -0.1117
  931MOL0     C22793  -0.759   7.588   6.018  0.4309 -0.4960  0.6818
  931MOL0     C22794  -0.853   7.529   6.108  0.7066  0.3294 -0.0904
  931MOL0     O22795  -0.989   7.540   6.086  0.2673  0.0089 -0.3162
  931MOL0     C22796  -1.036   7.615   5.971 -0.3359  0.6381  0.4334
  931MOL0     C22797  -1.184   7.628   5.984  0.3056  0.9098 -0.9449
  931MOL0     C22798  -1.262   7.501   6.027  0.0196  0.4714  0.3920
  931MOL0     C22799  -1.402   7.522   6.088  0.4941  0.0963  0.3808
  931MOL0     C22800  -1.506   7.566   5.978 -0.8792 -0.3548 -1.0795
  931MOL0     C22801  -1.554   7.453   5.889 -0.0866 -0.5057  0.1314
  931MOL0     C22802  -1.645   7.359   5.959  0.3129  0.6770  0.4385
  931MOL0     C22803  -1.742   7.303   5.856  0.0897 -0.5611 -0.5289
  931MOL0    Cl22804  -1.873   7.187   5.920 -0.2110 -0.0939 -0.1413
  931MOL0     C22805  -0.809   7.464   6.224  0.1886  0.4026  1.2230
  931MOL0     C22806  -0.677   7.461   6.258  0.1154 -0.3188  0.4996
  931MOL0     O22807  -0.476   7.684   6.388 -0.5005 -0.5041  0.4164
  931MOL0     C22808  -0.214   7.724   6.416 -0.6652  0.1067 -0.1164
  931MOL0     C22809  -0.080   7.728   6.454  0.8263  0.6152 -0.0881
  931MOL0     N22810   0.708   7.612   6.622 -0.1176  0.1421 -0.5459
  931MOL0     N22811   0.809   7.560   6.562  0.5635 -0.4859 -0.2732
  931MOL0     C22812   1.780   7.810   6.357 -0.7149 -0.8468 -0.7508
  931MOL0     C22813   1.872   7.924   6.374  0.8062  1.2668 -0.8294
  931MOL0     C22814   2.219   8.199   6.279  0.1747 -0.5091 -0.7981
  931MOL0     C22815   2.310   8.185   6.379 -0.5575 -0.0901  0.3679
  931MOL0     C22816   2.428   8.258   6.368 -0.4316 -0.7352 -0.1562
  931MOL0     C22817   2.448   8.351   6.269 -0.6296  0.0059 -0.6158
  931MOL0     O22818   2.572   8.407   6.262 -0.0309  0.2791  1.0302
  931MOL0     C22819   2.585   8.500   6.152  0.0240 -0.3617 -0.0952
  931MOL0     C22820   2.728   8.546   6.161  0.3028 -0.2008  0.4985
  931MOL0     C22821   2.826   8.435   6.142 -0.0976  0.6293  0.1562
  931MOL0     C22822   2.972   8.477   6.142  1.4557  0.6410  0.0511
  931MOL0     C22823   3.017   8.498   6.283 -0.3702 -0.3889  0.1999
  931MOL0     C22824   3.063   8.526   6.390 -0.3875  0.0180  0.2927
  931MOL0     C22825   2.351   8.375   6.169  0.3740 -0.0250 -0.1154
  931MOL0     C22826   2.233   8.302   6.182  0.2557 -0.5704 -0.2464
  931MOL0     H22827   2.159   7.741   6.340  0.5179  0.2467 -0.7323
  931MOL0     H22828   1.986   7.553   6.347  0.1061  0.7711  3.0603
  931MOL0     H22829   1.595   7.633   6.220  0.4243 -2.5497 -0.3756
  931MOL0     H22830   1.575   7.650   6.396 -1.7654  1.6918 -2.2706
  931MOL0     H22831   1.552   7.398   6.418  1.7439 -1.0315 -0.8454
  931MOL0     H22832   1.568   7.366   6.255 -1.7175 -2.0923  0.3317
  931MOL0     H22833   1.348   7.497   6.206 -1.6808 -0.1472  0.7615
  931MOL0     H22834   1.348   7.544   6.372  1.4078 -0.9344  2.3339
  931MOL0     H22835   1.326   7.255   6.266 -1.1091 -0.5592  0.9818
  931MOL0     H22836   1.370   7.284   6.428  1.0862  0.2360 -0.8104
  931MOL0     H22837   1.158   7.411   6.461  0.6270  1.2772  0.1352
  931MOL0     H22838   1.147   7.233   6.409  2.6845 -0.2934  2.8798
  931MOL0     H22839   1.078   7.305   6.199 -1.3565 -1.7084  1.4588
  931MOL0     H22840   1.139   7.479   6.210 -0.4692  0.2970  0.4408
  931MOL0     H22841   0.883   7.435   6.221  2.8719  0.0619 -1.3528
  931MOL0     H22842   0.917   7.376   6.386 -1.6550 -0.4243 -0.3484
  931MOL0     H22843   0.917   7.650   6.260 -0.9936 -2.1855 -1.1890
  931MOL0     H22844   1.036   7.620   6.388  0.5509  0.1609 -0.4742
  931MOL0     H22845   0.700   7.771   6.336 -1.3297 -0.6697 -0.0549
  931MOL0     H22846   0.519   7.860   6.525 -0.8935  0.2062  0.4182
  931MOL0     H22847   0.551   7.799   6.686  2.2794 -1.3960  0.0209
  931MOL0     H22848   0.314   7.765   6.560 -3.0930 -2.4437 -0.0588
  931MOL0     H22849   0.372   7.660   6.676 -0.6018 -3.6111 -1.2833
  931MOL0     H22850   0.431   7.615   6.372 -2.1509 -1.5012 -2.1010
  931MOL0     H22851   0.430   7.494   6.505 -1.6450  0.4034 -0.2005
  931MOL0     H22852   0.213   7.458   6.498  1.2350 -0.7306 -0.5281
  931MOL0     H22853   0.239   7.523   6.330  3.4636 -1.5406 -0.1671
  931MOL0     H22854   0.032   7.444   6.308 -2.4429 -1.0048 -1.0021
  931MOL0     H22855  -0.212   7.431   6.252 -1.9659  1.8420 -0.7597
  931MOL0     H22856  -0.555   7.650   6.007 -1.4700  1.8706 -1.1521
  931MOL0     H22857  -0.778   7.641   5.925  1.5127 -1.3494 -0.0389
  931MOL0     H22858  -1.017   7.575   5.871 -1.7501  0.7243  0.1141
  931MOL0     H22859  -0.981   7.709   5.976  0.5812  0.1242  0.1096
  931MOL0     H22860  -1.230   7.669   5.894 -0.6641  1.1041 -0.3766
  931MOL0     H22861  -1.203   7.703   6.062 -1.9383  0.8402 -1.3595
  931MOL0     H22862  -1.209   7.461   6.114  0.1206  2.0669  1.0900
  931MOL0     H22863  -1.257   7.432   5.942  0.6046 -0.8720  1.4687
  931MOL0     H22864  -1.439   7.427   6.127 -1.0735  0.6478  0.2868
  931MOL0     H22865  -1.385   7.589   6.173  2.1084  0.0593  0.1269
  931MOL0     H22866  -1.448   7.642   5.925 -0.8371 -0.2808 -0.9284
  931MOL0     H22867  -1.587   7.614   6.033  0.5324  2.2831 -1.0826
  931MOL0     H22868  -1.467   7.412   5.835  1.0145  4.8070 -2.7937
  931MOL0     H22869  -1.609   7.504   5.810  0.0680  0.6476  0.7471
  931MOL0     H22870  -1.574   7.293   6.008  1.5467  2.6119  1.4035
  931MOL0     H22871  -1.712   7.421   6.021 -0.0179  0.0626  0.7023
  931MOL0     H22872  -1.684   7.237   5.791 -0.6957 -1.1094 -0.6847
  931MOL0     H22873  -1.791   7.382   5.798 -1.6516 -1.9789 -1.0796
  931MOL0     H22874  -0.884   7.403   6.274 -0.0112 -1.4036 -1.0994
  931MOL0     H22875  -0.648   7.407   6.348 -0.7693  0.2011  1.1055
  931MOL0     H22876  -0.273   7.810   6.445 -0.1110  0.7293 -0.7885
  931MOL0     H22877  -0.046   7.814   6.511  1.6680 -1.1379  2.2075
  931MOL0     H22878   1.678   7.845   6.370 -1.7347 -3.2835 -1.5445
  931MOL0     H22879   1.843   8.028   6.386 -0.6242  0.6232  2.4937
  931MOL0     H22880   2.295   8.108   6.454 -0.9294 -0.5800 -0.1985
  931MOL0     H22881   2.495   8.225   6.447 -2.6948  0.5957  2.5031
  931MOL0     H22882   2.519   8.586   6.165  3.5774  2.1701  3.5915
  931MOL0     H22883   2.571   8.451   6.055 -3.4217 -0.6294  0.3961
  931MOL0     H22884   2.744   8.629   6.092 -1.8083  2.9702  3.4706
  931MOL0     H22885   2.737   8.588   6.261  1.3073 -1.8448  1.1469
  931MOL0     H22886   2.800   8.404   6.041  1.6888 -0.5849  0.0224
  931MOL0     H22887   2.798   8.356   6.213 -0.4248  1.9115  1.5070
  931MOL0     H22888   3.033   8.403   6.089  0.2699 -0.8733  0.7323
  931MOL0     H22889   2.981   8.571   6.086 -3.8844  0.4393 -1.7031
  931MOL0     H22890   3.093   8.541   6.492 -1.6270  0.4795  0.6091
  931MOL0     H22891   2.355   8.429   6.075 -2.0545 -1.1202 -0.9301
  931MOL0     H22892   2.161   8.319   6.103  0.2074  1.6615  0.2099
  932MOL0     O22893   2.399   8.755   0.773 -0.8481 -0.6164 -0.2134
  932MOL0     C22894   2.397   8.751   0.648 -0.0145 -0.9827  0.0185
  932MOL0     O22895   2.464   8.667   0.567 -0.2915 -0.2756 -0.3873
  932MOL0     C22896   2.560   8.590   0.630 -0.2197  0.6851  0.3299
  932MOL0     C22897   2.558   8.454   0.583  0.6351  0.7967 -1.3217
  932MOL0     C22898   2.668   8.366   0.615  0.4178 -0.7574  0.2643
  932MOL0     C22899   2.772   8.409   0.689  0.2290 -0.8379 -0.4307
  932MOL0     O22900   2.883   8.333   0.714  0.1876 -0.4451  0.0658
  932MOL0     C22901   2.904   8.265   0.839  0.0189 -0.3222 -0.8326
  932MOL0     C22902   3.023   8.336   0.910  0.4087 -0.6896  0.2270
  932MOL0     C22903   3.071   8.249   1.036 -0.4667 -0.7502  0.7868
  932MOL0     C22904   3.201   8.307   1.094 -0.0565 -0.4653 -0.0124
  932MOL0     C22905   3.244   8.226   1.209  0.3882 -0.5845  1.2853
  932MOL0     C22906   3.357   8.307   1.280 -0.5734  0.4197 -0.2331
  932MOL0     C22907   3.423   8.220   1.394  0.8448  0.4559 -0.4410
  932MOL0     C22908   3.508   8.102   1.345 -0.0617 -0.5708 -0.3340
  932MOL0     N22909   3.616   8.157   1.249  0.7832  0.3308 -0.0278
  932MOL0     C22910   3.700   8.255   1.294  0.1647  0.2941  0.5113
  932MOL0     C22911   3.777   8.286   1.184  0.0276 -0.0601 -0.2367
  932MOL0     C22912   3.873   8.405   1.182  0.0133  0.3297 -0.5134
  932MOL0     C22913   3.791   8.520   1.125 -0.0223  0.6190 -0.2669
  932MOL0     C22914   3.856   8.654   1.119  0.5784 -0.4094 -0.3668
  932MOL0     C22915   3.741   8.749   1.060  0.4323 -0.2570 -0.1964
  932MOL0     O22916   3.633   8.758   1.150 -0.4818  0.1692 -0.3112
  932MOL0     C22917   3.561   8.873   1.144  0.0590  0.1841 -0.0667
  932MOL0     C22918   3.519   8.948   1.033 -0.5968 -1.0082 -0.2005
  932MOL0     C22919   3.426   9.057   1.046 -0.2128 -0.5621 -0.4392
  932MOL0     C22920   3.381   9.090   1.179 -0.4039  0.5321  0.1523
  932MOL0     C22921   3.309   9.217   1.195 -0.0374  0.6316 -0.8202
  932MOL0     O22922   3.231   9.224   1.306  0.2343 -0.5002  0.0607
  932MOL0     C22923   3.109   9.288   1.303 -0.3794 -0.1698 -0.5122
  932MOL0     C22924   3.097   9.419   1.264  0.2148 -0.9872 -0.9375
  932MOL0     C22925   2.972   9.488   1.276  0.0862 -0.0810 -0.0601
  932MOL0     C22926   2.858   9.417   1.325 -0.6961 -0.6757  0.2034
  932MOL0     O22927   2.738   9.483   1.359 -0.1580 -0.0349  0.4222
  932MOL0     C22928   2.685   9.574   1.265  0.2283 -0.2764 -0.0262
  932MOL0     C22929   2.568   9.647   1.320  0.1069  0.4523  0.1133
  932MOL0     C22930   2.447   9.560   1.339 -0.2404  0.8010  0.5631
  932MOL0     C22931   2.352   9.627   1.432 -0.9627  1.0517  0.4069
  932MOL0     C22932   2.208   9.572   1.430  0.2343  0.0289  0.0848
  932MOL0     C22933   2.120   9.650   1.538 -0.8546  0.1218  0.4917
  932MOL0     C22934   1.977   9.587   1.553 -0.4674 -0.0999  0.1276
  932MOL0     C22935   1.910   9.660   1.664 -0.4898 -0.6096 -0.4287
  932MOL0    Cl22936   1.732   9.621   1.673  0.3630 -0.1472  0.0021
  932MOL0     C22937   2.875   9.284   1.356 -0.0702 -0.3488  0.5190
  932MOL0     C22938   2.993   9.212   1.338  0.6645  0.7306  0.7677
  932MOL0     O22939   3.335   9.305   1.117 -0.4819 -0.1601 -0.9199
  932MOL0     C22940   3.422   9.014   1.294 -0.9248 -0.0652  0.0233
  932MOL0     C22941   3.520   8.909   1.276  0.9635  0.2097  1.0587
  932MOL0     N22942   3.728   8.211   1.077  1.0253 -0.4275  0.3407
  932MOL0     N22943   3.633   8.125   1.120 -0.0829 -0.8852 -0.1580
  932MOL0     C22944   2.773   8.544   0.740 -0.1690  0.7805  1.1913
  932MOL0     C22945   2.667   8.627   0.711  0.0257 -0.3402  1.1068
  932MOL0     C22946   2.286   8.822   0.587  0.3545  0.5353  1.7708
  932MOL0     C22947   2.205   8.916   0.651 -0.5142 -0.2145  0.2325
  932MOL0     C22948   2.092   8.963   0.589 -0.0311 -0.5174 -0.3017
  932MOL0     C22949   2.066   8.948   0.452 -0.6971  0.3574 -0.0459
  932MOL0     O22950   1.970   9.007   0.376  0.5509 -0.2730 -0.6648
  932MOL0     C22951   1.936   9.138   0.414  0.4486 -0.4707 -0.5153
  932MOL0     C22952   1.947   9.232   0.302  0.0840  0.2515  0.3739
  932MOL0     C22953   1.874   9.366   0.318 -0.6276  0.2074  0.1081
  932MOL0     C22954   1.926   9.463   0.211  0.0503  0.2901  0.4819
  932MOL0     C22955   1.855   9.459   0.084 -0.2694 -0.0185 -0.1366
  932MOL0     C22956   1.784   9.467  -0.017 -0.4904 -0.2730  0.1445
  932MOL0     C22957   2.144   8.843   0.387 -0.1977  1.3880 -0.1855
  932MOL0     C22958   2.245   8.777   0.453  0.5029  0.5074 -0.1416
  932MOL0     H22959   2.475   8.431   0.516  0.3538 -3.0648  0.0782
  932MOL0     H22960   2.667   8.270   0.565 -0.6581 -1.2549  1.1817
  932MOL0     H22961   2.923   8.158   0.828 -0.7896 -0.2969 -2.8846
  932MOL0     H22962   2.815   8.263   0.903 -1.1476 -4.2236 -2.2651
  932MOL0     H22963   2.997   8.441   0.928  0.4909 -0.6271 -0.0156
  932MOL0     H22964   3.096   8.346   0.830 -1.1116  1.0839 -1.0432
  932MOL0     H22965   3.081   8.143   1.010 -2.2510 -0.8202  0.1967
  932MOL0     H22966   2.990   8.260   1.109 -2.4433  2.6175 -1.6355
  932MOL0     H22967   3.282   8.310   1.021  0.7479  0.5808  0.8996
  932MOL0     H22968   3.182   8.412   1.117 -0.1915 -0.1728 -1.3928
  932MOL0     H22969   3.292   8.133   1.178 -0.8750 -0.9898  0.4338
  932MOL0     H22970   3.158   8.207   1.273 -0.2724  0.3479  0.7165
  932MOL0     H22971   3.311   8.393   1.329 -0.6738 -0.5703  1.4554
  932MOL0     H22972   3.436   8.341   1.211 -1.5699  0.8310 -1.2002
  932MOL0     H22973   3.486   8.287   1.453 -0.1596 -0.0957  1.3657
  932MOL0     H22974   3.341   8.179   1.454  0.9339  0.7634 -0.1013
  932MOL0     H22975   3.451   8.024   1.294  2.0138 -2.9028  0.6947
  932MOL0     H22976   3.550   8.051   1.433 -0.6948 -2.6335 -1.1729
  932MOL0     H22977   3.720   8.295   1.393  1.7142  0.0663  0.3160
  932MOL0     H22978   3.962   8.382   1.122 -1.6162 -1.8413 -2.2453
  932MOL0     H22979   3.908   8.423   1.284 -3.2964  0.8885  0.6443
  932MOL0     H22980   3.693   8.525   1.172 -0.2043 -2.6384 -0.0752
  932MOL0     H22981   3.777   8.494   1.020 -0.2211  1.6292 -0.5022
  932MOL0     H22982   3.884   8.696   1.216 -2.2133  1.2935 -0.1876
  932MOL0     H22983   3.940   8.648   1.049 -0.3193  2.1580 -1.7859
  932MOL0     H22984   3.696   8.702   0.972  0.2769 -0.1557 -0.1711
  932MOL0     H22985   3.778   8.848   1.034  1.6426 -0.9688 -1.3093
  932MOL0     H22986   3.558   8.914   0.937 -1.7131 -1.9685 -0.3339
  932MOL0     H22987   3.403   9.122   0.963 -0.5699  0.3814  0.3844
  932MOL0     H22988   3.191   9.462   1.229  2.3953 -3.2067  1.7400
  932MOL0     H22989   2.971   9.593   1.248  3.0669 -1.0224 -4.5861
  932MOL0     H22990   2.668   9.524   1.170 -1.5315 -3.8329  1.9583
  932MOL0     H22991   2.757   9.655   1.248 -0.1749 -0.0148 -0.5037
  932MOL0     H22992   2.538   9.726   1.251 -0.3813  0.7771  0.6890
  932MOL0     H22993   2.587   9.686   1.420  0.7024  0.6595 -0.0759
  932MOL0     H22994   2.478   9.463   1.378 -3.0406 -0.7601 -0.8132
  932MOL0     H22995   2.401   9.530   1.245  0.3350 -1.1355  0.8562
  932MOL0     H22996   2.391   9.615   1.534 -0.6530 -2.3416 -0.0132
  932MOL0     H22997   2.349   9.735   1.411  0.4664  0.6407 -2.2162
  932MOL0     H22998   2.214   9.465   1.454  0.3163  0.4596  2.1926
  932MOL0     H22999   2.163   9.567   1.331 -1.2236 -1.7766  0.7564
  932MOL0     H23000   2.105   9.755   1.514  0.5606  0.8809  2.6128
  932MOL0     H23001   2.179   9.653   1.630 -0.0007  0.6447 -0.0597
  932MOL0     H23002   1.903   9.595   1.472 -0.8731  0.0505  0.5039
  932MOL0     H23003   1.995   9.481   1.574  1.2174  0.0830 -0.3381
  932MOL0     H23004   1.924   9.769   1.659  0.5428 -0.7756 -1.6451
  932MOL0     H23005   1.957   9.638   1.760 -1.6284  2.1252  0.8793
  932MOL0     H23006   2.779   9.243   1.384  0.3236 -0.9878  0.9304
  932MOL0     H23007   2.996   9.104   1.350 -0.6490  0.5207 -0.4750
  932MOL0     H23008   3.379   9.038   1.390 -0.2925 -1.8952  0.8088
  932MOL0     H23009   3.563   8.850   1.356 -1.8025 -1.8668  1.1545
  932MOL0     H23010   2.859   8.580   0.796 -0.1263  0.5807  1.2551
  932MOL0     H23011   2.672   8.730   0.745 -1.7666  0.8304 -1.7741
  932MOL0     H23012   2.225   8.940   0.755 -1.7940 -0.1451  0.4748
  932MOL0     H23013   2.018   9.023   0.641 -1.3565 -3.0051  0.8371
  932MOL0     H23014   2.004   9.171   0.492 -1.0417 -3.4430  2.2928
  932MOL0     H23015   1.837   9.137   0.461  1.4828 -0.8775  1.7773
  932MOL0     H23016   2.053   9.254   0.281 -0.1626  0.0134 -1.3086
  932MOL0     H23017   1.913   9.191   0.206  2.5799  2.2645 -1.5448
  932MOL0     H23018   1.904   9.422   0.407 -1.5038  1.7570 -0.5432
  932MOL0     H23019   1.766   9.356   0.310 -0.5095 -0.0894 -1.6163
  932MOL0     H23020   1.914   9.565   0.249 -0.5793 -0.3148  1.9809
  932MOL0     H23021   2.034   9.455   0.198 -0.1451 -2.1584 -0.1151
  932MOL0     H23022   1.731   9.474  -0.110  0.4592 -1.5378 -0.5396
  932MOL0     H23023   2.116   8.812   0.287  0.7626  0.1597 -0.1032
  932MOL0     H23024   2.300   8.701   0.399 -1.0273 -1.0961  0.4238
  933MOL0     O23025   3.801   0.077   6.233 -0.1622  0.0627 -0.7697
  933MOL0     C23026   3.831   0.055   6.112  0.7632  0.6296 -0.2049
  933MOL0     O23027   3.735   0.039   6.014 -0.0915 -0.2072  0.0062
  933MOL0     C23028   3.603   0.044   6.047 -0.2064  0.4701  0.6887
  933MOL0     C23029   3.524  -0.067   6.081  0.0160  0.1516 -0.1481
  933MOL0     C23030   3.386  -0.068   6.129  0.2942  0.1066  0.2111
  933MOL0     C23031   3.334   0.059   6.146  0.3506  0.3271 -1.1095
  933MOL0     O23032   3.209   0.086   6.190 -0.1310  0.5763  0.0061
  933MOL0     C23033   3.118  -0.025   6.202  0.2875  0.0602  0.6777
  933MOL0     C23034   2.976   0.025   6.233 -0.4183 -0.1936  0.2938
  933MOL0     C23035   2.880  -0.090   6.221  0.0384 -1.0259  0.5704
  933MOL0     C23036   2.738  -0.043   6.260 -0.9014 -1.0342 -0.3284
  933MOL0     C23037   2.637  -0.167   6.253 -0.5713 -0.2897  0.5607
  933MOL0     C23038   2.642  -0.252   6.384  0.4709 -0.8455  0.0305
  933MOL0     C23039   2.550  -0.372   6.363 -0.4194  0.2105 -0.6282
  933MOL0     C23040   2.515  -0.432   6.501  1.0525 -0.5308  0.1627
  933MOL0     N23041   2.412  -0.354   6.575 -0.0806  0.1925 -0.2206
  933MOL0     C23042   2.427  -0.247   6.663  0.8961  0.2134  0.0926
  933MOL0     C23043   2.301  -0.235   6.709 -1.3281  0.3629  0.2441
  933MOL0     C23044   2.266  -0.127   6.805  0.4971 -0.7433  0.0937
  933MOL0     C23045   2.115  -0.082   6.805  1.0378 -0.5567 -0.2243
  933MOL0     C23046   2.087   0.010   6.694  0.5294 -1.0247 -0.5289
  933MOL0     C23047   1.937   0.042   6.682 -0.1773  0.4799 -0.4202
  933MOL0     O23048   1.878   0.088   6.804 -0.5210  0.2505 -0.1250
  933MOL0     C23049   1.745   0.114   6.802  1.0799  0.3086 -0.0585
  933MOL0     C23050   1.661   0.116   6.693 -0.4246  0.2142 -0.1806
  933MOL0     C23051   1.521   0.124   6.699 -0.1130  0.1754  0.0151
  933MOL0     C23052   1.457   0.152   6.816  0.0791 -0.0389 -0.2710
  933MOL0     C23053   1.303   0.169   6.820 -0.3541 -0.2956 -0.1122
  933MOL0     O23054   1.248   0.155   6.941  1.0085  0.2763  0.1380
  933MOL0     C23055   1.122   0.191   6.981  0.4141 -0.3091 -0.2738
  933MOL0     C23056   1.053   0.289   6.910  0.4406 -0.3582 -0.4020
  933MOL0     C23057   0.928   0.330   6.956  0.0472  0.0601 -1.1207
  933MOL0     C23058   0.881   0.286   7.077 -0.0581 -0.5754  0.9794
  933MOL0     O23059   0.757   0.330   7.110  0.6380 -0.2528 -0.7731
  933MOL0     C23060   0.705   0.287   7.238  0.3665 -0.3888 -0.6741
  933MOL0     C23061   0.593   0.380   7.288 -0.2581 -0.1412  0.4585
  933MOL0     C23062   0.461   0.379   7.215  0.1430 -0.0627  0.2087
  933MOL0     C23063   0.368   0.505   7.236  0.6103 -0.0138  0.0829
  933MOL0     C23064   0.228   0.468   7.178 -0.2543 -0.2224 -0.0144
  933MOL0     C23065   0.148   0.367   7.267  0.1326  0.6749  0.9051
  933MOL0     C23066   0.017   0.318   7.216 -0.0072 -0.4158  0.1967
  933MOL0     C23067  -0.087   0.421   7.253 -0.3178  0.2791  0.0297
  933MOL0    Cl23068  -0.264   0.362   7.219  0.5454 -0.1104  0.3776
  933MOL0     C23069   0.958   0.193   7.152 -0.0034 -0.4544 -0.4201
  933MOL0     C23070   1.079   0.141   7.104  0.7294  0.4892  0.0224
  933MOL0     O23071   1.250   0.215   6.718 -0.3463  0.1144  0.5086
  933MOL0     C23072   1.542   0.154   6.934 -0.3697 -0.5564  0.6471
  933MOL0     C23073   1.676   0.136   6.929 -0.0650 -0.1803  0.3404
  933MOL0     N23074   2.217  -0.322   6.646 -0.1595  0.2280 -0.1479
  933MOL0     N23075   2.285  -0.394   6.565 -0.7928  0.0510  0.3313
  933MOL0     C23076   3.408   0.169   6.108  0.0516 -0.9349  0.4258
  933MOL0     C23077   3.530   0.163   6.054 -1.0867  0.6405 -0.4426
  933MOL0     C23078   3.969   0.061   6.071 -0.4593 -0.2076 -0.6996
  933MOL0     C23079   4.014   0.023   5.947 -0.2852  0.4818  0.0068
  933MOL0     C23080   4.143   0.040   5.898  0.9582  0.1952  0.2981
  933MOL0     C23081   4.235   0.103   5.976  0.0726 -0.1586 -0.3552
  933MOL0     O23082   4.358   0.122   5.923  0.2840 -0.0400  0.0597
  933MOL0     C23083   4.445   0.225   5.969  0.2378 -0.3227 -0.5860
  933MOL0     C23084   4.553   0.251   5.862  0.6108  0.6826 -0.3433
  933MOL0     C23085   4.646   0.131   5.856 -0.3990 -0.8335  0.3442
  933MOL0     C23086   4.760   0.137   5.750 -0.1428 -0.3861  0.3706
  933MOL0     C23087   4.702   0.127   5.616 -0.7988 -0.0215  0.3462
  933MOL0     C23088   4.637   0.123   5.517 -0.3548  0.5094 -0.5145
  933MOL0     C23089   4.202   0.133   6.108  0.1619 -0.4001  0.0461
  933MOL0     C23090   4.067   0.118   6.153  0.8207  0.2555 -0.3542
  933MOL0     H23091   3.581  -0.159   6.079 -0.1967  0.0320 -0.6899
  933MOL0     H23092   3.339  -0.160   6.162 -1.7732  0.9147 -0.3254
  933MOL0     H23093   3.154  -0.096   6.277  0.8905 -0.0700  0.2651
  933MOL0     H23094   3.124  -0.069   6.103  0.1463  0.9569  0.2571
  933MOL0     H23095   2.941   0.102   6.163  0.4600 -1.0065 -1.1134
  933MOL0     H23096   2.973   0.067   6.333  2.4889  1.3874 -0.1759
  933MOL0     H23097   2.914  -0.171   6.286 -0.8992 -2.2400 -0.4113
  933MOL0     H23098   2.882  -0.119   6.115  0.3734  1.1269 -0.0704
  933MOL0     H23099   2.741  -0.006   6.362 -0.9250  2.0575 -1.3537
  933MOL0     H23100   2.696   0.039   6.201 -0.3902 -1.4896 -1.3708
  933MOL0     H23101   2.660  -0.235   6.170 -1.8440 -0.0895  0.0393
  933MOL0     H23102   2.537  -0.128   6.234  0.8583  2.9210 -1.2449
  933MOL0     H23103   2.622  -0.183   6.466 -0.1758 -1.7707  0.6741
  933MOL0     H23104   2.744  -0.279   6.410  2.0534  3.9678 -0.2140
  933MOL0     H23105   2.457  -0.348   6.310 -1.5447  0.4556  1.3652
  933MOL0     H23106   2.608  -0.451   6.314  0.4769 -0.1321  0.9167
  933MOL0     H23107   2.600  -0.442   6.568  2.0814  1.8288 -0.6788
  933MOL0     H23108   2.479  -0.534   6.486  4.5671 -1.4262 -4.1318
  933MOL0     H23109   2.507  -0.174   6.676 -0.4229  2.5037 -3.3252
  933MOL0     H23110   2.329  -0.038   6.801 -1.1629  0.6199  2.3302
  933MOL0     H23111   2.283  -0.170   6.904 -1.3356  0.9902  1.2275
  933MOL0     H23112   2.092  -0.035   6.901 -0.0278 -0.8109 -0.3388
  933MOL0     H23113   2.063  -0.177   6.791  0.0586 -0.0781  0.0195
  933MOL0     H23114   2.134   0.107   6.710 -0.9411 -0.0965 -1.6431
  933MOL0     H23115   2.124  -0.044   6.606 -0.5496 -1.5697 -0.6601
  933MOL0     H23116   1.883  -0.040   6.635 -2.3145  0.0188  2.5485
  933MOL0     H23117   1.929   0.134   6.623  0.3433  0.2869 -0.7963
  933MOL0     H23118   1.715   0.104   6.600 -0.8757  2.0147 -0.7168
  933MOL0     H23119   1.459   0.107   6.611 -0.2244  1.8293 -0.2592
  933MOL0     H23120   1.081   0.342   6.819  0.8629  1.2117  0.6029
  933MOL0     H23121   0.868   0.385   6.885  0.0027  0.8886 -0.4605
  933MOL0     H23122   0.780   0.290   7.317  0.1728 -1.2965 -0.4472
  933MOL0     H23123   0.663   0.186   7.231  0.1258 -0.6008  2.4521
  933MOL0     H23124   0.637   0.480   7.287 -0.9206  0.1609 -0.8202
  933MOL0     H23125   0.567   0.349   7.389  1.2618  0.3530  1.0263
  933MOL0     H23126   0.416   0.286   7.251  2.4987 -0.7749  1.5034
  933MOL0     H23127   0.490   0.369   7.110 -1.6277 -4.1910 -0.0919
  933MOL0     H23128   0.362   0.518   7.344  0.0748  0.2160  0.0299
  933MOL0     H23129   0.405   0.597   7.190  0.5265  0.4148  0.8623
  933MOL0     H23130   0.257   0.428   7.080  0.4131  0.9923 -0.3460
  933MOL0     H23131   0.169   0.558   7.161 -1.2923 -1.1887 -1.7671
  933MOL0     H23132   0.131   0.415   7.364 -2.0779 -0.5908  1.2180
  933MOL0     H23133   0.204   0.276   7.290  1.8014  0.8902 -1.8604
  933MOL0     H23134   0.035   0.303   7.109 -1.7104 -0.3323 -0.1250
  933MOL0     H23135  -0.027   0.226   7.255 -0.1918  0.1488  1.3402
  933MOL0     H23136  -0.068   0.519   7.207  1.3871 -0.0676 -0.0623
  933MOL0     H23137  -0.083   0.432   7.361  1.7717 -0.0504  0.0101
  933MOL0     H23138   0.920   0.159   7.248 -0.4404  3.1568  0.8048
  933MOL0     H23139   1.137   0.063   7.153  0.4073  0.9984  1.2532
  933MOL0     H23140   1.490   0.157   7.029  0.2845 -0.6714  1.0163
  933MOL0     H23141   1.723   0.153   7.025  0.5596  0.7854 -0.1183
  933MOL0     H23142   3.365   0.268   6.100  3.2405  0.4225 -1.2650
  933MOL0     H23143   3.581   0.258   6.040 -0.8324  0.7148  0.8386
  933MOL0     H23144   3.935  -0.012   5.881 -0.3470  0.1928  0.2356
  933MOL0     H23145   4.179   0.017   5.798 -1.3492 -0.0718 -0.5334
  933MOL0     H23146   4.488   0.198   6.066 -0.4131 -1.2584 -0.5450
  933MOL0     H23147   4.387   0.317   5.986 -2.5193 -1.7370 -1.7789
  933MOL0     H23148   4.509   0.260   5.763  0.7789  0.2532 -0.4616
  933MOL0     H23149   4.602   0.345   5.888 -3.1013  2.2351  1.7693
  933MOL0     H23150   4.589   0.042   5.830 -0.8173 -1.0437  1.8738
  933MOL0     H23151   4.702   0.117   5.949 -0.7545 -1.2306  0.5003
  933MOL0     H23152   4.821   0.227   5.759 -1.0687  0.1708  1.3564
  933MOL0     H23153   4.836   0.060   5.766  0.5140  0.0504 -0.5444
  933MOL0     H23154   4.573   0.117   5.431 -0.0876 -1.7651 -0.6244
  933MOL0     H23155   4.289   0.172   6.159  0.3840  0.7655 -1.1619
  933MOL0     H23156   4.031   0.145   6.251 -1.3183 -3.4395  0.0874
  934MOL0     O23157  10.644   2.901  10.164 -0.5553 -0.2638  0.2756
  934MOL0     C23158  10.721   2.890  10.073  0.1611  0.8735  1.2322
  934MOL0     O23159  10.684   2.885   9.945 -0.0041  0.8473 -0.5129
  934MOL0     C23160  10.552   2.888   9.909  1.2623  0.8234 -1.0130
  934MOL0     C23161  10.480   3.008   9.908  0.4834 -0.5174  0.5623
  934MOL0     C23162  10.342   3.009   9.876  0.2675  0.2772 -1.0327
  934MOL0     C23163  10.270   2.889   9.868  0.1182  0.3909 -0.2056
  934MOL0     O23164  10.129   2.901   9.849  0.2598 -0.0332  0.2221
  934MOL0     C23165  10.053   2.781   9.887 -0.8283  0.3851 -0.4063
  934MOL0     C23166   9.908   2.829   9.886 -0.2649 -0.0600  0.2706
  934MOL0     C23167   9.801   2.714   9.894 -0.2139 -0.2737  0.3696
  934MOL0     C23168   9.660   2.773   9.898  0.1764 -0.2295 -0.4305
  934MOL0     C23169   9.550   2.685   9.846  0.2150 -0.0409  0.5094
  934MOL0     C23170   9.559   2.543   9.892  0.9188 -0.5926  0.3371
  934MOL0     C23171   9.440   2.448   9.850 -1.0555  0.2115  0.5081
  934MOL0     C23172   9.467   2.387   9.710 -0.1655  0.5628 -0.3725
  934MOL0     N23173   9.348   2.313   9.667  0.7183  0.4525 -0.4916
  934MOL0     C23174   9.328   2.189   9.712  0.3153  0.2436 -0.3700
  934MOL0     C23175   9.201   2.160   9.669  0.3062 -0.4932  1.0264
  934MOL0     C23176   9.097   2.051   9.699  0.4869 -0.7706 -1.1190
  934MOL0     C23177   9.086   2.019   9.850 -0.8525 -0.1604  0.3021
  934MOL0     C23178   9.048   1.869   9.877  0.3442 -0.6415 -0.1418
  934MOL0     C23179   8.937   1.813   9.778 -0.8972  0.4359 -0.8177
  934MOL0     O23180   8.821   1.894   9.779 -0.6592  0.0006 -0.1903
  934MOL0     C23181   8.711   1.838   9.728  0.6883  0.8940 -1.0286
  934MOL0     C23182   8.684   1.845   9.594  0.7048  0.1443 -0.0385
  934MOL0     C23183   8.564   1.792   9.545  0.3272 -0.2135  0.1970
  934MOL0     C23184   8.477   1.716   9.623 -0.5951 -0.3970 -0.3308
  934MOL0     C23185   8.367   1.651   9.562 -0.1142  0.0220  0.1161
  934MOL0     O23186   8.326   1.700   9.442  0.2544  0.1243 -0.7485
  934MOL0     C23187   8.205   1.647   9.405  0.0432  0.1991 -0.2294
  934MOL0     C23188   8.219   1.549   9.305 -0.4351 -0.4212 -0.3173
  934MOL0     C23189   8.109   1.504   9.232  1.0235  0.0234  0.0237
  934MOL0     C23190   7.983   1.560   9.257  0.8226 -0.4471 -0.4090
  934MOL0     O23191   7.866   1.553   9.176 -0.2941  0.3822 -0.3615
  934MOL0     C23192   7.870   1.468   9.059  0.1208 -0.7061 -0.2384
  934MOL0     C23193   7.740   1.467   8.981  0.3846 -0.6749  0.0950
  934MOL0     C23194   7.622   1.433   9.066  0.0927  0.1349  0.0150
  934MOL0     C23195   7.481   1.425   9.006  0.8056 -0.7052  0.1011
  934MOL0     C23196   7.370   1.387   9.107 -0.6256  0.2624  0.6436
  934MOL0     C23197   7.357   1.494   9.216  0.0548  0.4425 -0.4553
  934MOL0     C23198   7.228   1.485   9.308  0.0750 -0.5088 -1.0187
  934MOL0     C23199   7.111   1.562   9.251  0.6019 -0.2612 -0.5660
  934MOL0    Cl23200   7.030   1.453   9.126  0.0095  0.1501  0.2997
  934MOL0     C23201   7.970   1.647   9.366  0.3601  0.1234  0.1237
  934MOL0     C23202   8.080   1.701   9.435  0.6729 -0.2383  1.1224
  934MOL0     O23203   8.316   1.558   9.631 -0.9382  0.3794 -0.2747
  934MOL0     C23204   8.503   1.708   9.763 -0.3431  0.1567 -1.0385
  934MOL0     C23205   8.623   1.768   9.812 -0.1846 -0.4460 -0.2588
  934MOL0     N23206   9.156   2.272   9.600  0.6695  0.0062  0.1924
  934MOL0     N23207   9.248   2.360   9.598 -0.8260  0.5423 -0.1259
  934MOL0     C23208  10.347   2.770   9.870  0.0112 -0.3203 -0.0846
  934MOL0     C23209  10.483   2.771   9.897  0.1410  1.3665  0.7960
  934MOL0     C23210  10.867   2.899  10.091  0.2100 -0.8157  0.6328
  934MOL0     C23211  10.919   2.874  10.222 -0.0281 -0.8009  0.2062
  934MOL0     C23212  11.057   2.895  10.240 -0.7468  0.9480  0.3834
  934MOL0     C23213  11.145   2.932  10.134 -0.6619  0.1392 -0.1927
  934MOL0     O23214  11.283   2.950  10.132 -0.1044 -0.1279  0.6680
  934MOL0     C23215  11.336   2.945  10.261 -0.0609  0.4334  0.4824
  934MOL0     C23216  11.488   2.940  10.249  0.0782 -0.1758 -0.1774
  934MOL0     C23217  11.539   2.817  10.165  0.4975 -0.5535 -0.0432
  934MOL0     C23218  11.680   2.796  10.216  0.4286  0.3472 -0.0883
  934MOL0     C23219  11.762   2.898  10.147 -0.2655  0.4129 -0.0258
  934MOL0     C23220  11.848   2.957  10.084  0.4211  0.3023  0.4282
  934MOL0     C23221  11.091   2.963  10.006 -0.4213  0.4557 -0.0302
  934MOL0     C23222  10.954   2.946   9.987  0.9463  0.3062 -0.1466
  934MOL0     H23223  10.541   3.098   9.911 -0.5602  0.3205 -1.0873
  934MOL0     H23224  10.289   3.104   9.881  1.8543  1.1468  0.0736
  934MOL0     H23225  10.092   2.741   9.981  3.3580 -1.6155 -2.7086
  934MOL0     H23226  10.070   2.689   9.829  1.5216  0.1790  0.5170
  934MOL0     H23227   9.886   2.887   9.795  2.2718  1.1988  0.3703
  934MOL0     H23228   9.890   2.894   9.972  1.4547  2.3202 -1.0460
  934MOL0     H23229   9.807   2.654   9.986 -0.2298 -1.4316 -0.3615
  934MOL0     H23230   9.804   2.645   9.809 -2.5152 -0.1848  0.1585
  934MOL0     H23231   9.630   2.797  10.000 -0.9064  1.0031 -1.0178
  934MOL0     H23232   9.660   2.862   9.835 -0.4347  1.6899  2.1525
  934MOL0     H23233   9.548   2.687   9.737  0.4973 -0.6631  0.4913
  934MOL0     H23234   9.458   2.732   9.882 -0.0256  0.0561 -0.2323
  934MOL0     H23235   9.569   2.546  10.001  1.3479  2.2299  0.3096
  934MOL0     H23236   9.655   2.505   9.855  0.6082 -0.3919 -0.7119
  934MOL0     H23237   9.430   2.363   9.919  0.5092 -1.2916 -1.0200
  934MOL0     H23238   9.346   2.503   9.855 -0.1435  1.7485  2.2682
  934MOL0     H23239   9.548   2.317   9.689 -1.1237  0.0787 -2.8354
  934MOL0     H23240   9.489   2.471   9.643  0.1274  0.5755 -0.2601
  934MOL0     H23241   9.395   2.127   9.771 -0.8016  1.3839  2.2263
  934MOL0     H23242   9.136   1.964   9.646  4.6605  0.9645 -1.3137
  934MOL0     H23243   8.995   2.076   9.667 -0.8891 -0.8708  2.6719
  934MOL0     H23244   9.011   2.085   9.896  2.0346  2.5106  1.5947
  934MOL0     H23245   9.180   2.032   9.904 -1.7116 -1.4006  2.1547
  934MOL0     H23246   9.134   1.802   9.875 -0.4712 -1.6948 -1.0558
  934MOL0     H23247   9.009   1.858   9.979  2.5499  0.9162  0.9491
  934MOL0     H23248   8.906   1.714   9.811 -1.6546  0.8273 -0.3175
  934MOL0     H23249   8.980   1.801   9.678 -2.6923  1.3580 -1.7495
  934MOL0     H23250   8.757   1.887   9.526 -1.2087 -0.7855 -2.8216
  934MOL0     H23251   8.553   1.784   9.437 -1.3495 -1.8255  0.4357
  934MOL0     H23252   8.318   1.512   9.281 -0.3145 -0.2049 -0.1611
  934MOL0     H23253   8.122   1.434   9.150 -1.3491 -1.1278  0.5301
  934MOL0     H23254   7.914   1.369   9.075  0.7417 -0.2756  0.8495
  934MOL0     H23255   7.929   1.518   8.982  0.0056  0.5212  0.4397
  934MOL0     H23256   7.755   1.396   8.900  2.7587 -0.0834 -0.0433
  934MOL0     H23257   7.718   1.566   8.939  0.1922 -0.1739  1.3210
  934MOL0     H23258   7.618   1.503   9.150 -0.9992 -1.7159  1.6048
  934MOL0     H23259   7.639   1.336   9.113 -1.1030  0.7321  1.7808
  934MOL0     H23260   7.464   1.522   8.959 -2.7908 -0.5856  1.3396
  934MOL0     H23261   7.482   1.346   8.931  0.6927  0.2019 -0.8780
  934MOL0     H23262   7.402   1.293   9.153  0.7088 -0.5979 -1.8543
  934MOL0     H23263   7.276   1.372   9.052  0.7228  0.3339 -1.8084
  934MOL0     H23264   7.375   1.592   9.172  1.3844 -0.4351 -1.9690
  934MOL0     H23265   7.442   1.489   9.285 -0.8678  2.0421  0.8607
  934MOL0     H23266   7.198   1.387   9.347 -0.8145  0.1956  0.1376
  934MOL0     H23267   7.250   1.549   9.394 -1.1415  1.9419 -2.4392
  934MOL0     H23268   7.157   1.648   9.202 -1.1151  0.9817 -0.1156
  934MOL0     H23269   7.046   1.597   9.332 -2.4589  0.4046 -3.0831
  934MOL0     H23270   7.879   1.691   9.405  1.3147 -0.1441  2.8085
  934MOL0     H23271   8.077   1.781   9.508  1.7230  0.1614  0.7466
  934MOL0     H23272   8.426   1.663   9.825 -1.1888  1.3581 -1.1981
  934MOL0     H23273   8.637   1.781   9.919 -2.4055  1.9531 -0.1566
  934MOL0     H23274  10.302   2.672   9.863 -0.9098  0.1548 -1.1094
  934MOL0     H23275  10.531   2.675   9.881 -0.4197  1.4562 -1.7023
  934MOL0     H23276  10.856   2.856  10.309 -0.7351  1.7726  0.3056
  934MOL0     H23277  11.098   2.888  10.340  4.0938  1.7529 -1.2758
  934MOL0     H23278  11.312   2.846  10.302 -0.1074 -0.3879 -1.4126
  934MOL0     H23279  11.306   3.027  10.327 -1.4555  0.8639 -0.6419
  934MOL0     H23280  11.533   3.030  10.205  2.2392 -0.8713  0.4643
  934MOL0     H23281  11.515   2.938  10.355  1.7317  1.4832 -0.5008
  934MOL0     H23282  11.541   2.849  10.060  0.3375 -1.8590 -0.4532
  934MOL0     H23283  11.468   2.737  10.185  0.0327  0.0038  0.5830
  934MOL0     H23284  11.683   2.810  10.324 -0.3924 -1.0935  0.1571
  934MOL0     H23285  11.714   2.695  10.188 -0.7339 -0.4467  1.2199
  934MOL0     H23286  11.925   3.021  10.047  1.4595 -1.4122 -0.5112
  934MOL0     H23287  11.146   2.995   9.918  0.2117  2.1372  0.9368
  934MOL0     H23288  10.904   2.966   9.893  1.0440  1.1042 -0.0302
  935MOL0     O23289   6.819   2.985   0.570 -0.4593  0.3775 -0.2137
  935MOL0     C23290   6.774   3.066   0.653 -0.0942  1.0414 -0.2109
  935MOL0     O23291   6.646   3.111   0.667 -0.2256 -0.1804  0.3489
  935MOL0     C23292   6.554   3.046   0.593 -0.3541  1.0892  0.1941
  935MOL0     C23293   6.544   3.062   0.454  0.1869 -0.0076 -0.1892
  935MOL0     C23294   6.441   3.000   0.384 -0.5897 -0.2233 -0.2931
  935MOL0     C23295   6.346   2.924   0.442 -0.5448 -0.8077 -0.6461
  935MOL0     O23296   6.256   2.867   0.354 -0.5179 -0.0269  0.3048
  935MOL0     C23297   6.119   2.865   0.396 -0.4624 -0.0891  0.1320
  935MOL0     C23298   6.055   2.726   0.402 -0.8329  0.5813 -1.0809
  935MOL0     C23299   6.049   2.661   0.258 -0.0930 -0.3590  0.2063
  935MOL0     C23300   5.954   2.738   0.167  0.5696  0.7105 -0.6061
  935MOL0     C23301   5.929   2.662   0.030  0.0399  0.6741 -0.4853
  935MOL0     C23302   5.816   2.724  -0.061 -0.4967  0.1617 -0.5811
  935MOL0     C23303   5.815   2.675  -0.206  0.6408 -0.7094  0.0639
  935MOL0     C23304   5.707   2.743  -0.288 -0.8650  0.0720 -0.4518
  935MOL0     N23305   5.576   2.733  -0.228  0.0717  0.0519 -0.0122
  935MOL0     C23306   5.497   2.621  -0.220 -0.6035  0.0043  0.2054
  935MOL0     C23307   5.394   2.666  -0.148  0.2999  0.2577  0.0726
  935MOL0     C23308   5.264   2.597  -0.134  0.8708 -0.2604  0.0076
  935MOL0     C23309   5.204   2.598   0.006  0.2550 -1.2034 -0.6136
  935MOL0     C23310   5.113   2.722   0.040  0.3388  0.4817 -0.2219
  935MOL0     C23311   5.113   2.743   0.194  0.7958  0.3356 -0.0076
  935MOL0     O23312   5.030   2.859   0.213  0.2755  0.2800  0.1167
  935MOL0     C23313   4.895   2.851   0.208  0.6950  0.2185  0.2651
  935MOL0     C23314   4.811   2.739   0.209 -0.4424 -0.7012  0.4507
  935MOL0     C23315   4.673   2.756   0.208 -0.8090 -0.3288 -0.3515
  935MOL0     C23316   4.621   2.884   0.200  0.1865 -0.3302  0.4616
  935MOL0     C23317   4.470   2.884   0.203  0.7453 -0.4440 -0.1603
  935MOL0     O23318   4.411   2.771   0.262 -0.6903  0.5338 -0.4975
  935MOL0     C23319   4.285   2.779   0.302  1.1177 -1.0473  0.4525
  935MOL0     C23320   4.193   2.680   0.260 -0.2266  0.3332  0.2207
  935MOL0     C23321   4.063   2.683   0.317 -0.2966 -0.1861 -0.0369
  935MOL0     C23322   4.028   2.776   0.407 -0.1808 -0.5625  0.4731
  935MOL0     O23323   3.909   2.790   0.469  0.0385  0.2314 -0.7568
  935MOL0     C23324   3.834   2.685   0.508 -0.4115  0.5290 -0.2664
  935MOL0     C23325   3.695   2.732   0.473  0.3095 -0.5986  1.1192
  935MOL0     C23326   3.607   2.601   0.471 -0.4249 -0.4541 -0.0867
  935MOL0     C23327   3.453   2.637   0.465 -0.4456  0.4564 -1.2195
  935MOL0     C23328   3.375   2.519   0.398 -0.7786 -0.2868 -0.4786
  935MOL0     C23329   3.229   2.539   0.415  0.3366  0.0922  0.3138
  935MOL0     C23330   3.143   2.435   0.349  0.2494  0.1742  0.3626
  935MOL0     C23331   2.998   2.459   0.370  1.2731 -0.4019 -0.0586
  935MOL0    Cl23332   2.884   2.350   0.294  0.0952  0.2894  0.0841
  935MOL0     C23333   4.119   2.875   0.447  0.8486 -0.3001 -0.0364
  935MOL0     C23334   4.242   2.880   0.388 -0.2749 -0.2965  0.5316
  935MOL0     O23335   4.410   2.982   0.168  0.0905  0.0884 -0.0030
  935MOL0     C23336   4.703   2.995   0.196 -0.1217 -0.2353  0.0194
  935MOL0     C23337   4.840   2.979   0.196 -0.0789  0.4874 -0.5564
  935MOL0     N23338   5.408   2.786  -0.095  0.0407 -0.2644  0.3812
  935MOL0     N23339   5.523   2.832  -0.150  0.7784  0.6876  0.1228
  935MOL0     C23340   6.353   2.904   0.583 -0.8206 -0.5851 -1.0783
  935MOL0     C23341   6.460   2.965   0.658 -0.4304  0.8457  0.5625
  935MOL0     C23342   6.875   3.138   0.741 -0.4400  1.1460 -1.1158
  935MOL0     C23343   7.010   3.102   0.748 -0.4952  0.2771 -0.2685
  935MOL0     C23344   7.102   3.172   0.819  0.3933 -0.8925  0.8644
  935MOL0     C23345   7.058   3.271   0.911 -0.0302  0.0553  0.1424
  935MOL0     O23346   7.141   3.329   1.001  0.2619  0.1841  0.0179
  935MOL0     C23347   7.281   3.314   0.967 -0.0244  0.4618  0.1363
  935MOL0     C23348   7.379   3.392   1.054  0.7702 -0.4402 -0.9892
  935MOL0     C23349   7.345   3.389   1.214 -0.4427 -0.6726  0.2698
  935MOL0     C23350   7.313   3.247   1.255 -0.2211  0.1099 -0.1637
  935MOL0     C23351   7.271   3.261   1.395 -0.8714  0.4907 -1.3776
  935MOL0     C23352   7.228   3.291   1.511  0.0659 -0.8664 -0.6717
  935MOL0     C23353   6.924   3.302   0.917  0.6470  0.0932  0.5576
  935MOL0     C23354   6.837   3.246   0.828 -0.3353  0.4320 -0.8974
  935MOL0     H23355   6.608   3.129   0.397 -1.1069  1.2339 -0.2323
  935MOL0     H23356   6.433   3.003   0.276 -4.0054 -1.6098 -0.2031
  935MOL0     H23357   6.066   2.921   0.318 -1.6075 -1.4884 -0.1562
  935MOL0     H23358   6.112   2.921   0.490 -2.1670  2.0223 -1.1419
  935MOL0     H23359   5.961   2.728   0.458  0.1802  1.5729  0.6665
  935MOL0     H23360   6.130   2.667   0.455  1.6112  3.1926 -1.4093
  935MOL0     H23361   6.013   2.559   0.249 -0.2748 -0.1267 -2.2598
  935MOL0     H23362   6.150   2.657   0.215  0.3698 -3.7774  1.3373
  935MOL0     H23363   5.857   2.736   0.216 -0.5207 -0.3268 -2.6687
  935MOL0     H23364   5.986   2.841   0.146 -0.4369  1.3729  0.9593
  935MOL0     H23365   5.903   2.556   0.033 -1.4661  0.9891 -1.5102
  935MOL0     H23366   6.028   2.658  -0.017  0.1138  0.2001 -0.2856
  935MOL0     H23367   5.846   2.829  -0.070 -0.4167  0.3038  1.0616
  935MOL0     H23368   5.718   2.718  -0.013 -0.1061 -1.2486  0.0946
  935MOL0     H23369   5.907   2.683  -0.265  0.2227 -2.3488 -0.8459
  935MOL0     H23370   5.787   2.570  -0.213 -0.0196 -0.4166 -3.1206
  935MOL0     H23371   5.703   2.696  -0.386 -0.6428 -2.7146  0.7670
  935MOL0     H23372   5.732   2.846  -0.314 -0.3286  0.6861  2.1413
  935MOL0     H23373   5.514   2.529  -0.276 -0.8578 -1.3115  2.1972
  935MOL0     H23374   5.265   2.494  -0.171  0.7582 -0.3980  0.3911
  935MOL0     H23375   5.194   2.652  -0.199 -1.6916  0.2412  2.9651
  935MOL0     H23376   5.286   2.600   0.078  0.2334  1.5455 -0.5592
  935MOL0     H23377   5.155   2.501   0.012 -0.5059 -0.7708  0.2985
  935MOL0     H23378   5.148   2.814  -0.009 -4.4915  1.0630 -3.3634
  935MOL0     H23379   5.015   2.698  -0.002  0.9884  1.0438 -2.1697
  935MOL0     H23380   5.213   2.765   0.231  1.8879 -3.1206 -0.6173
  935MOL0     H23381   5.064   2.656   0.239 -1.7256  0.7710 -1.6922
  935MOL0     H23382   4.856   2.640   0.214 -0.7264 -0.8155  0.8344
  935MOL0     H23383   4.612   2.666   0.214 -0.5930 -0.3939  1.2232
  935MOL0     H23384   4.230   2.599   0.198  2.1589  1.6647 -0.1926
  935MOL0     H23385   3.990   2.613   0.278 -1.4422 -0.3982  2.3319
  935MOL0     H23386   3.848   2.658   0.613  1.1222  3.2267  0.3079
  935MOL0     H23387   3.859   2.598   0.446  0.9190  1.5227 -1.1857
  935MOL0     H23388   3.692   2.782   0.376 -1.9756 -1.9149  0.4251
  935MOL0     H23389   3.659   2.801   0.549  1.3220 -0.4560  1.4881
  935MOL0     H23390   3.632   2.537   0.556  1.6518  1.0701  0.5356
  935MOL0     H23391   3.636   2.555   0.376  0.3143  0.7035 -0.4375
  935MOL0     H23392   3.425   2.631   0.570  0.6238 -2.2581 -0.9924
  935MOL0     H23393   3.423   2.732   0.419 -3.2111  0.4329  0.3546
  935MOL0     H23394   3.399   2.424   0.447  0.5534 -0.0512 -0.6298
  935MOL0     H23395   3.414   2.512   0.296  0.2213  2.2848 -0.3428
  935MOL0     H23396   3.208   2.635   0.367 -1.1090  0.4307  1.5646
  935MOL0     H23397   3.205   2.533   0.521  0.5479 -1.2722  0.3036
  935MOL0     H23398   3.163   2.444   0.242 -0.3501  2.5537  0.3801
  935MOL0     H23399   3.163   2.329   0.369 -0.4748 -0.8632 -3.5776
  935MOL0     H23400   2.970   2.555   0.324  1.1502  0.1025  1.0482
  935MOL0     H23401   2.971   2.488   0.472  0.3712 -0.0384 -0.3952
  935MOL0     H23402   4.095   2.952   0.520  2.8246  0.2383  0.1029
  935MOL0     H23403   4.316   2.958   0.405  0.8015 -0.5709 -2.2371
  935MOL0     H23404   4.662   3.095   0.184 -0.5628 -0.0267  2.6591
  935MOL0     H23405   4.904   3.066   0.180 -2.6854  2.3358 -1.7254
  935MOL0     H23406   6.275   2.844   0.628 -1.0356 -1.7068 -2.8679
  935MOL0     H23407   6.456   2.948   0.766 -2.3639 -0.3439  0.3469
  935MOL0     H23408   7.051   3.015   0.699  1.9146 -1.9775  4.9941
  935MOL0     H23409   7.204   3.138   0.804  0.5370 -0.0243 -0.2694
  935MOL0     H23410   7.292   3.333   0.860  0.9088  1.4276  0.3948
  935MOL0     H23411   7.309   3.210   0.985 -2.8827 -0.6985 -1.3133
  935MOL0     H23412   7.483   3.359   1.046  1.1497  0.4892 -0.1159
  935MOL0     H23413   7.372   3.496   1.019 -2.4235 -1.3635 -3.6717
  935MOL0     H23414   7.250   3.443   1.221  0.0619  1.0156 -3.3575
  935MOL0     H23415   7.416   3.447   1.274 -1.5987  1.1243 -0.0069
  935MOL0     H23416   7.237   3.195   1.196  0.2725 -0.3481 -0.3945
  935MOL0     H23417   7.409   3.195   1.257 -0.1983  0.1646  0.8859
  935MOL0     H23418   7.201   3.327   1.608  0.4602  1.3059 -1.3133
  935MOL0     H23419   6.909   3.392   0.976  1.6850 -0.5299  1.8143
  935MOL0     H23420   6.736   3.285   0.820 -0.8660 -1.0561 -2.0735
  936MOL0     O23421   6.391   0.728   2.309 -0.4149  0.0373 -0.6315
  936MOL0     C23422   6.505   0.763   2.331 -0.7839  0.5419 -0.1424
  936MOL0     O23423   6.569   0.879   2.280  0.2073 -0.3762 -0.4385
  936MOL0     C23424   6.493   0.987   2.247  0.1346 -0.3616 -0.3030
  936MOL0     C23425   6.365   1.026   2.293  0.4257 -0.0638  0.6347
  936MOL0     C23426   6.304   1.143   2.243  0.5980  0.0611  0.0018
  936MOL0     C23427   6.371   1.223   2.146 -0.1927  0.6973  0.1497
  936MOL0     O23428   6.296   1.323   2.080  0.0462  0.2843  0.5166
  936MOL0     C23429   6.168   1.283   2.019 -0.2117 -0.7099 -0.2396
  936MOL0     C23430   6.066   1.393   2.044 -0.4437  0.3822 -0.6530
  936MOL0     C23431   5.942   1.367   1.962  0.8128  0.4002  0.2645
  936MOL0     C23432   5.839   1.481   1.948 -0.0018  0.3098  0.0551
  936MOL0     C23433   5.762   1.522   2.079 -0.6048 -0.4806 -0.4105
  936MOL0     C23434   5.668   1.410   2.135  0.0305  0.0862 -0.0952
  936MOL0     C23435   5.560   1.362   2.033 -0.0599 -0.5830 -0.4117
  936MOL0     C23436   5.459   1.472   1.993 -0.1072 -0.0992  0.0013
  936MOL0     N23437   5.346   1.435   1.905  0.0623  0.0035 -0.2445
  936MOL0     C23438   5.278   1.503   1.806 -0.9879  0.0313  0.3992
  936MOL0     C23439   5.165   1.445   1.790 -0.1700  0.0587 -0.6877
  936MOL0     C23440   5.057   1.503   1.707 -0.7565 -0.8071  0.0694
  936MOL0     C23441   4.927   1.457   1.747  0.6385  0.1888 -0.0621
  936MOL0     C23442   4.806   1.521   1.688  0.1334 -0.7721  0.3622
  936MOL0     C23443   4.680   1.446   1.716  1.0022 -0.0104 -0.0497
  936MOL0     O23444   4.571   1.516   1.776  0.4576 -0.2997 -1.1034
  936MOL0     C23445   4.450   1.485   1.710 -0.0535  0.2479  0.0865
  936MOL0     C23446   4.439   1.521   1.573  0.2842  0.5062  1.0384
  936MOL0     C23447   4.324   1.489   1.499  0.4217  0.6794 -0.0180
  936MOL0     C23448   4.211   1.426   1.558  0.3167 -0.5817 -0.3471
  936MOL0     C23449   4.085   1.403   1.493 -0.3127  0.3314  1.2679
  936MOL0     O23450   3.976   1.373   1.564 -0.5904  0.0726  0.5308
  936MOL0     C23451   3.862   1.338   1.489 -0.0758 -1.0572  0.0488
  936MOL0     C23452   3.861   1.220   1.423 -0.7676  0.5005  0.0619
  936MOL0     C23453   3.751   1.195   1.345 -0.6337  0.5282 -0.7083
  936MOL0     C23454   3.638   1.278   1.337  0.1284 -0.1094  0.5820
  936MOL0     O23455   3.538   1.240   1.262  0.6362  0.7763  0.1692
  936MOL0     C23456   3.410   1.226   1.335 -0.1616 -1.0671  0.3512
  936MOL0     C23457   3.314   1.139   1.249 -0.1808  0.7722 -0.9615
  936MOL0     C23458   3.181   1.091   1.325 -0.3371  0.7781 -0.0562
  936MOL0     C23459   3.130   0.973   1.242 -0.2069  0.2986 -0.2836
  936MOL0     C23460   3.002   0.920   1.300  0.7376 -0.6465 -0.2089
  936MOL0     C23461   2.878   0.998   1.250 -0.6599 -0.4262  0.5354
  936MOL0     C23462   2.763   0.933   1.320  1.0678  0.0669  0.0836
  936MOL0     C23463   2.643   0.914   1.226 -0.5432 -0.4885  0.1107
  936MOL0    Cl23464   2.528   0.807   1.309 -0.0853 -0.0169 -0.3531
  936MOL0     C23465   3.641   1.402   1.398 -0.2497  0.1342  0.5382
  936MOL0     C23466   3.759   1.432   1.478  0.1593 -0.8049 -0.0283
  936MOL0     O23467   4.082   1.432   1.373  0.4056  0.5011 -0.0231
  936MOL0     C23468   4.221   1.415   1.696  0.4061  0.0787 -0.5014
  936MOL0     C23469   4.336   1.446   1.775 -0.6911 -0.5225  0.1926
  936MOL0     N23470   5.168   1.326   1.863  0.4173 -0.5554  0.0406
  936MOL0     N23471   5.277   1.319   1.926 -0.0757  0.5465 -0.0383
  936MOL0     C23472   6.501   1.194   2.118  1.0602  0.3722  0.2532
  936MOL0     C23473   6.560   1.072   2.161 -0.2994  0.4970  0.3078
  936MOL0     C23474   6.593   0.656   2.383 -0.2559 -0.6426  0.3823
  936MOL0     C23475   6.728   0.656   2.350 -0.0960 -1.2805 -0.1590
  936MOL0     C23476   6.806   0.553   2.409 -0.1773  1.1001  0.2726
  936MOL0     C23477   6.758   0.460   2.503  0.6988 -0.1297  1.2401
  936MOL0     O23478   6.843   0.361   2.554  0.6858 -0.5588  0.8582
  936MOL0     C23479   6.795   0.236   2.611 -0.3015 -0.4071  0.0083
  936MOL0     C23480   6.916   0.146   2.649 -0.1905  0.4522  0.2614
  936MOL0     C23481   7.003   0.209   2.760 -0.0248  0.0028 -0.6615
  936MOL0     C23482   7.141   0.138   2.775  0.0937 -0.3386  0.1294
  936MOL0     C23483   7.127  -0.005   2.811 -0.1743 -0.9767 -0.3247
  936MOL0     C23484   7.110  -0.117   2.853 -0.0035 -0.8364 -0.5820
  936MOL0     C23485   6.622   0.465   2.537 -0.1000  0.3651 -0.2750
  936MOL0     C23486   6.537   0.553   2.469 -0.6280 -0.2387 -0.4499
  936MOL0     H23487   6.316   0.970   2.372 -0.3875  0.2462  0.3643
  936MOL0     H23488   6.204   1.178   2.265  0.4310  0.5393 -1.4176
  936MOL0     H23489   6.146   1.185   2.061 -1.5589 -0.3206 -0.0002
  936MOL0     H23490   6.188   1.272   1.912  0.1063  1.4890 -0.4682
  936MOL0     H23491   6.111   1.489   2.016 -0.1738  1.0787  1.9088
  936MOL0     H23492   6.049   1.403   2.152  0.6670 -2.1185 -0.1679
  936MOL0     H23493   5.898   1.279   2.009  4.4881 -1.7091  0.1201
  936MOL0     H23494   5.974   1.347   1.859 -3.4873  1.3189 -1.4632
  936MOL0     H23495   5.889   1.570   1.910  0.9322 -0.4419 -0.5230
  936MOL0     H23496   5.763   1.459   1.873 -0.6670  2.2400  0.1096
  936MOL0     H23497   5.689   1.603   2.065 -2.0418 -1.9100 -1.5290
  936MOL0     H23498   5.831   1.542   2.162  1.7374  0.2669 -2.4379
  936MOL0     H23499   5.600   1.455   2.208 -0.3597 -0.8448  0.1363
  936MOL0     H23500   5.722   1.332   2.188  0.6225  0.9643  0.6116
  936MOL0     H23501   5.606   1.317   1.944  0.6296 -0.0801 -0.3203
  936MOL0     H23502   5.509   1.283   2.089 -0.6781  1.1321  1.5361
  936MOL0     H23503   5.520   1.552   1.949  1.0244 -0.4603  0.8506
  936MOL0     H23504   5.419   1.510   2.088 -0.9186 -0.0599 -0.3541
  936MOL0     H23505   5.314   1.594   1.760 -0.8577 -1.0027 -1.6712
  936MOL0     H23506   5.079   1.485   1.601 -2.0832  0.2825 -0.4370
  936MOL0     H23507   5.065   1.610   1.726 -1.3807 -1.0890  2.1345
  936MOL0     H23508   4.922   1.484   1.853  1.3990  1.2507 -0.2808
  936MOL0     H23509   4.923   1.348   1.743  1.8248  0.1212  0.0603
  936MOL0     H23510   4.795   1.622   1.728 -1.7054 -1.2649  1.2211
  936MOL0     H23511   4.828   1.526   1.581  1.8380 -1.5482  0.6587
  936MOL0     H23512   4.695   1.367   1.789 -0.4619  0.0138  0.3142
  936MOL0     H23513   4.646   1.403   1.621 -1.4030 -1.8315  1.5208
  936MOL0     H23514   4.520   1.577   1.528 -0.4285  2.0140  1.5848
  936MOL0     H23515   4.297   1.520   1.399 -1.2238  3.5692  1.1794
  936MOL0     H23516   3.945   1.152   1.423  0.5359  2.0296 -0.3235
  936MOL0     H23517   3.753   1.112   1.276 -0.8651  2.6088 -3.3867
  936MOL0     H23518   3.375   1.323   1.372  2.0722 -0.0326 -0.1143
  936MOL0     H23519   3.427   1.178   1.432  1.4914  1.9866  1.6896
  936MOL0     H23520   3.375   1.057   1.211  0.5599  0.3347  1.0675
  936MOL0     H23521   3.285   1.197   1.160  1.7879  2.2997 -0.6731
  936MOL0     H23522   3.100   1.164   1.325 -1.8518 -0.7400 -2.5662
  936MOL0     H23523   3.198   1.080   1.433 -2.7307 -2.2233  0.1701
  936MOL0     H23524   3.122   1.008   1.138  2.1530  0.8355 -0.3503
  936MOL0     H23525   3.210   0.899   1.226 -2.1590 -1.5957 -1.9180
  936MOL0     H23526   2.998   0.926   1.409 -2.7664  0.6773 -0.2915
  936MOL0     H23527   2.990   0.812   1.286 -1.7448 -0.4539  0.0366
  936MOL0     H23528   2.877   0.987   1.142 -1.0720  0.7593  0.4065
  936MOL0     H23529   2.878   1.103   1.282  1.2623 -0.5868  1.1675
  936MOL0     H23530   2.783   0.836   1.366 -0.1694  1.0503  2.9047
  936MOL0     H23531   2.722   1.000   1.396 -2.6769 -1.4881 -0.3723
  936MOL0     H23532   2.678   0.876   1.130  1.1107  3.2276 -0.9384
  936MOL0     H23533   2.603   1.009   1.189 -1.4408 -1.2310 -0.8739
  936MOL0     H23534   3.582   1.490   1.373 -0.3272  0.4894  1.9004
  936MOL0     H23535   3.780   1.527   1.526  2.0197 -1.3359  0.2887
  936MOL0     H23536   4.135   1.375   1.750  1.7838 -0.5059  1.4024
  936MOL0     H23537   4.345   1.427   1.881 -0.8496  1.3255  0.5783
  936MOL0     H23538   6.558   1.267   2.062  1.3890 -0.1606 -0.1258
  936MOL0     H23539   6.666   1.054   2.148  0.3834  1.7781  3.1492
  936MOL0     H23540   6.771   0.729   2.282 -0.7009 -1.3708 -0.6439
  936MOL0     H23541   6.906   0.539   2.367 -1.3170  0.3362 -2.3728
  936MOL0     H23542   6.738   0.192   2.528 -0.5741  1.5152 -0.8818
  936MOL0     H23543   6.738   0.254   2.702  3.2591 -2.2761  2.8834
  936MOL0     H23544   6.869   0.052   2.677 -2.4743  1.0697 -1.2057
  936MOL0     H23545   6.984   0.137   2.563  0.9066 -1.0352  1.2306
  936MOL0     H23546   6.954   0.214   2.858 -0.1808  2.1389 -0.8097
  936MOL0     H23547   7.022   0.310   2.722  0.0170 -0.2865 -1.4185
  936MOL0     H23548   7.185   0.121   2.676  3.1856  4.0130  0.4374
  936MOL0     H23549   7.212   0.189   2.841 -0.0666 -0.8520  0.7099
  936MOL0     H23550   7.101  -0.219   2.885  1.2365 -0.4091  1.2546
  936MOL0     H23551   6.588   0.394   2.612 -0.4990 -0.6912 -1.4324
  936MOL0     H23552   6.429   0.547   2.481 -0.6615  1.0912  0.0950
  937MOL0     O23553   6.111   2.499   7.186 -0.0308 -0.1993  0.2671
  937MOL0     C23554   6.211   2.572   7.168  0.1037 -0.5252  0.4399
  937MOL0     O23555   6.201   2.692   7.090  0.1311 -0.6049 -0.0272
  937MOL0     C23556   6.080   2.758   7.071 -0.3489  0.0471 -0.5691
  937MOL0     C23557   6.040   2.812   6.945 -0.3294  0.7676 -0.5853
  937MOL0     C23558   5.924   2.885   6.935 -1.1292 -1.0354  0.0027
  937MOL0     C23559   5.829   2.903   7.033  0.0835  0.7791 -0.5635
  937MOL0     O23560   5.710   2.974   7.011  0.2556  0.0268  0.3807
  937MOL0     C23561   5.729   3.107   6.952 -0.0416  0.2674 -0.2367
  937MOL0     C23562   5.610   3.140   6.862 -0.9702 -0.5000  0.0600
  937MOL0     C23563   5.491   3.167   6.954 -0.5068  0.6943 -0.8538
  937MOL0     C23564   5.365   3.206   6.875  0.2089  0.5471 -0.2164
  937MOL0     C23565   5.259   3.246   6.977 -0.3039 -0.5374  0.5466
  937MOL0     C23566   5.126   3.290   6.906 -0.1288 -0.5017  0.5655
  937MOL0     C23567   5.034   3.352   7.014  0.6100  0.6561 -0.0261
  937MOL0     C23568   4.895   3.391   6.947 -0.2371  0.1978  0.2826
  937MOL0     N23569   4.805   3.279   6.921  0.0703  0.5446  0.9972
  937MOL0     C23570   4.685   3.257   6.987 -0.3842  0.4985  1.0186
  937MOL0     C23571   4.632   3.144   6.928 -0.1329  0.1601  0.1819
  937MOL0     C23572   4.500   3.091   6.963  0.5617 -1.0796 -0.1326
  937MOL0     C23573   4.386   3.113   6.863  0.8022  0.0362 -0.4834
  937MOL0     C23574   4.257   3.080   6.928 -0.2785 -0.0288 -0.4655
  937MOL0     C23575   4.140   3.119   6.834 -0.2446 -0.1329  0.2545
  937MOL0     O23576   4.024   3.083   6.911 -0.0622  0.3362  0.8385
  937MOL0     C23577   3.897   3.083   6.848 -0.6276 -0.1571 -0.4790
  937MOL0     C23578   3.861   3.142   6.721 -0.4407 -0.0356  0.0022
  937MOL0     C23579   3.731   3.132   6.680  0.3945 -0.3512 -0.5097
  937MOL0     C23580   3.631   3.080   6.764  0.4307  0.3759  0.2101
  937MOL0     C23581   3.488   3.085   6.724 -0.7233  0.1206 -0.2699
  937MOL0     O23582   3.410   3.006   6.801  0.4488 -0.2060 -0.2242
  937MOL0     C23583   3.271   3.001   6.784 -0.8576 -0.1742 -0.5861
  937MOL0     C23584   3.194   2.883   6.792 -0.3552 -0.0048  0.3949
  937MOL0     C23585   3.059   2.891   6.772 -0.7591 -0.3079  0.0188
  937MOL0     C23586   2.992   3.010   6.763  0.5600  0.4747 -0.4586
  937MOL0     O23587   2.853   3.001   6.782 -0.3469  0.6299 -1.0344
  937MOL0     C23588   2.766   3.112   6.784 -0.4895 -0.3330  0.6297
  937MOL0     C23589   2.629   3.068   6.836 -0.0309 -0.3657  0.0685
  937MOL0     C23590   2.551   3.194   6.874  0.5238  0.3838  0.4068
  937MOL0     C23591   2.410   3.159   6.926 -0.2614  0.7871 -0.7997
  937MOL0     C23592   2.319   3.276   6.968  0.5079  0.1559 -0.4250
  937MOL0     C23593   2.177   3.224   7.013 -1.1236 -0.5152 -0.0447
  937MOL0     C23594   2.093   3.342   7.069 -0.3249  0.7493  0.1128
  937MOL0     C23595   1.945   3.283   7.098 -0.5097 -0.0805 -0.0371
  937MOL0    Cl23596   1.941   3.178   7.244  0.0109 -0.4762 -0.3269
  937MOL0     C23597   3.062   3.131   6.759 -0.4646 -0.4240 -0.3310
  937MOL0     C23598   3.201   3.126   6.768  0.5928  0.0591 -0.4827
  937MOL0     O23599   3.457   3.160   6.633 -0.0672 -0.0709 -0.2082
  937MOL0     C23600   3.662   3.023   6.885 -0.9754  0.5023 -0.4527
  937MOL0     C23601   3.797   3.024   6.927 -0.1505  1.4486 -0.2922
  937MOL0     N23602   4.724   3.104   6.828 -0.0779  0.4673 -0.5021
  937MOL0     N23603   4.833   3.179   6.833 -0.8909  0.4309 -0.4142
  937MOL0     C23604   5.867   2.853   7.160  0.4813 -0.9710 -0.4198
  937MOL0     C23605   5.986   2.786   7.178  0.1565  0.0723 -0.2704
  937MOL0     C23606   6.340   2.522   7.207  0.2322  0.4717  0.3445
  937MOL0     C23607   6.465   2.580   7.173 -0.4140 -0.0141  1.1093
  937MOL0     C23608   6.590   2.525   7.223  0.5692 -0.3778  1.0241
  937MOL0     C23609   6.589   2.415   7.306 -0.2707 -0.2214 -0.3231
  937MOL0     O23610   6.718   2.375   7.345  0.4119  0.1874 -0.4098
  937MOL0     C23611   6.733   2.242   7.406  0.8304  0.2172 -0.2228
  937MOL0     C23612   6.877   2.184   7.430 -0.4671 -0.3498  1.4277
  937MOL0     C23613   6.964   2.208   7.314  0.2003 -0.6702 -0.2684
  937MOL0     C23614   6.905   2.148   7.186  0.2639 -0.2210 -0.2250
  937MOL0     C23615   7.005   2.148   7.082 -0.3162  0.5617 -0.6219
  937MOL0     C23616   7.088   2.161   6.996  0.0119  0.7057  0.8773
  937MOL0     C23617   6.466   2.354   7.338  0.4487 -0.1307  0.6053
  937MOL0     C23618   6.345   2.401   7.288  0.0006  0.4984 -0.3236
  937MOL0     H23619   6.100   2.789   6.858 -2.2043  0.9145 -1.9853
  937MOL0     H23620   5.891   2.915   6.836 -3.4726  0.3883  1.1299
  937MOL0     H23621   5.814   3.117   6.884 -0.3676 -1.6524 -0.9700
  937MOL0     H23622   5.738   3.180   7.034  0.1082  0.7720 -0.6962
  937MOL0     H23623   5.603   3.053   6.798  2.7841 -1.3403  0.5286
  937MOL0     H23624   5.643   3.233   6.814  0.1295 -0.4133  0.9272
  937MOL0     H23625   5.518   3.249   7.022  0.1926 -0.7756  0.7130
  937MOL0     H23626   5.471   3.084   7.022 -1.3495 -0.6005 -2.6175
  937MOL0     H23627   5.385   3.279   6.796  1.4137  0.2422 -0.2027
  937MOL0     H23628   5.321   3.121   6.822  0.2085 -0.3500  1.1646
  937MOL0     H23629   5.305   3.327   7.035 -0.1196 -0.6261  0.5243
  937MOL0     H23630   5.232   3.169   7.049  2.3789 -0.5675  1.6130
  937MOL0     H23631   5.074   3.204   6.862 -1.0722  0.4032 -0.1286
  937MOL0     H23632   5.155   3.360   6.827 -3.7716  1.3251  0.6290
  937MOL0     H23633   5.006   3.276   7.087 -2.8448  1.4441 -0.3690
  937MOL0     H23634   5.065   3.442   7.068 -1.9606  1.5296  0.1705
  937MOL0     H23635   4.912   3.448   6.855  0.7633  0.4904  0.6323
  937MOL0     H23636   4.838   3.458   7.011 -2.1752  0.3048 -1.4292
  937MOL0     H23637   4.635   3.291   7.077  0.2232 -1.5489  2.1713
  937MOL0     H23638   4.473   3.113   7.067 -0.2453 -4.2063  0.4229
  937MOL0     H23639   4.519   2.983   6.967 -0.8923 -1.3177  1.4859
  937MOL0     H23640   4.403   3.053   6.774  0.1265  1.6969 -1.7905
  937MOL0     H23641   4.396   3.218   6.835  3.0403 -0.6894 -2.6873
  937MOL0     H23642   4.251   2.974   6.955 -1.0059 -0.0632 -0.7330
  937MOL0     H23643   4.246   3.139   7.020 -0.5394 -0.2269 -0.3683
  937MOL0     H23644   4.146   3.053   6.747 -3.4002 -3.9442  2.5677
  937MOL0     H23645   4.131   3.225   6.807 -1.1776 -0.4579 -0.8265
  937MOL0     H23646   3.943   3.174   6.658  0.4513 -1.4668  0.3925
  937MOL0     H23647   3.705   3.171   6.582 -2.1067  0.7251  0.5111
  937MOL0     H23648   3.248   2.790   6.807 -0.4739 -0.7311 -2.9770
  937MOL0     H23649   3.000   2.801   6.787  0.6475 -1.1923  0.3944
  937MOL0     H23650   2.755   3.148   6.681 -2.3686 -2.8130 -0.1243
  937MOL0     H23651   2.810   3.189   6.849 -1.0529  0.3844  0.1870
  937MOL0     H23652   2.639   3.007   6.926  0.3576 -0.7338 -0.2201
  937MOL0     H23653   2.587   3.008   6.754  0.7603 -0.9155  0.0601
  937MOL0     H23654   2.556   3.271   6.797  0.5023  0.2888  0.3105
  937MOL0     H23655   2.602   3.224   6.966  0.4799 -1.3869  1.0581
  937MOL0     H23656   2.352   3.107   6.850 -1.9388 -1.2585  1.7092
  937MOL0     H23657   2.424   3.097   7.015 -1.5247  1.1394 -0.3283
  937MOL0     H23658   2.304   3.347   6.887 -1.1056 -1.8878 -2.0360
  937MOL0     H23659   2.356   3.333   7.054 -0.9650  2.6731 -1.3463
  937MOL0     H23660   2.192   3.142   7.084 -1.0866 -1.5818 -1.2714
  937MOL0     H23661   2.134   3.175   6.925 -0.3783 -1.2054 -0.0358
  937MOL0     H23662   2.127   3.366   7.170 -0.9068 -0.1934  0.5429
  937MOL0     H23663   2.085   3.427   7.001 -2.7324 -0.9848 -1.9682
  937MOL0     H23664   1.903   3.225   7.016 -1.7442 -0.7188  1.0071
  937MOL0     H23665   1.876   3.366   7.116 -0.5473 -0.5434  2.3645
  937MOL0     H23666   3.012   3.227   6.754 -1.0024 -0.7611 -2.8830
  937MOL0     H23667   3.249   3.223   6.774 -4.1089  2.7419 -1.8382
  937MOL0     H23668   3.595   2.959   6.943  1.7518 -0.1942  2.1660
  937MOL0     H23669   3.819   2.966   7.016 -0.1179 -0.9274 -1.7477
  937MOL0     H23670   5.794   2.875   7.237 -1.4703 -1.8563 -1.9074
  937MOL0     H23671   5.999   2.740   7.276  1.2720  1.2541  0.1648
  937MOL0     H23672   6.463   2.664   7.104  2.4505 -0.0408  0.8828
  937MOL0     H23673   6.687   2.557   7.189  1.4249 -2.4762  1.3166
  937MOL0     H23674   6.675   2.168   7.350 -0.4762 -0.4536  1.8961
  937MOL0     H23675   6.683   2.239   7.504  1.5156  0.2756  0.1388
  937MOL0     H23676   6.916   2.232   7.520 -0.0595  0.5457  0.7892
  937MOL0     H23677   6.873   2.075   7.441 -0.2904 -0.4954  0.2523
  937MOL0     H23678   7.062   2.160   7.319  2.1398  2.1229 -4.8969
  937MOL0     H23679   6.981   2.317   7.317 -1.2709 -0.4290  1.9961
  937MOL0     H23680   6.859   2.053   7.214 -1.5139  0.8650  0.6640
  937MOL0     H23681   6.824   2.208   7.144 -0.9449 -1.1512  0.7005
  937MOL0     H23682   7.160   2.181   6.919 -2.2175  2.4163 -0.9235
  937MOL0     H23683   6.470   2.276   7.414 -0.6944  0.5283  1.3809
  937MOL0     H23684   6.248   2.369   7.323  0.2470  1.0951  0.9735
  938MOL0     O23685   2.164   4.589   6.543 -0.2778  0.4917 -0.4868
  938MOL0     C23686   2.151   4.578   6.416 -0.3109  0.4226  0.3020
  938MOL0     O23687   2.252   4.529   6.334 -0.0261  0.3459 -0.7262
  938MOL0     C23688   2.363   4.489   6.400 -0.6493 -0.5765  0.4495
  938MOL0     C23689   2.462   4.582   6.427  0.0189  0.3823 -0.9340
  938MOL0     C23690   2.594   4.548   6.471 -0.2250 -0.2508 -0.7941
  938MOL0     C23691   2.627   4.413   6.495  0.5119 -1.0898 -0.0504
  938MOL0     O23692   2.749   4.364   6.543  0.1181  0.5275  0.0716
  938MOL0     C23693   2.853   4.463   6.560  0.9257  0.3962  0.2582
  938MOL0     C23694   2.979   4.397   6.606  0.5810 -0.0458  0.0988
  938MOL0     C23695   3.106   4.496   6.589  0.0707 -0.1397 -0.6797
  938MOL0     C23696   3.232   4.429   6.653 -0.4672  0.9337 -0.4179
  938MOL0     C23697   3.354   4.493   6.589  0.3629  0.2484 -0.2300
  938MOL0     C23698   3.476   4.417   6.640  0.1462 -0.1972  0.0645
  938MOL0     C23699   3.602   4.453   6.552 -0.1575  0.0967  0.1174
  938MOL0     C23700   3.738   4.392   6.603 -0.2497  0.4348 -0.4782
  938MOL0     N23701   3.845   4.486   6.572 -0.1061  0.2480  0.1744
  938MOL0     C23702   3.873   4.512   6.443 -0.2263 -0.9142 -0.1152
  938MOL0     C23703   3.956   4.620   6.452 -0.2406  0.2160  0.3500
  938MOL0     C23704   3.998   4.705   6.329  0.2301 -0.1621 -0.7428
  938MOL0     C23705   3.887   4.743   6.238 -0.3131 -0.2761  0.0864
  938MOL0     C23706   3.831   4.873   6.284 -0.2982 -0.1960  0.3299
  938MOL0     C23707   3.687   4.890   6.239  0.1761  0.0687 -0.4486
  938MOL0     O23708   3.610   4.780   6.270  0.1541  0.3310  0.0322
  938MOL0     C23709   3.480   4.783   6.240 -0.8561  0.3101  0.1641
  938MOL0     C23710   3.393   4.898   6.254 -0.0273 -0.0089  0.3051
  938MOL0     C23711   3.254   4.893   6.251  0.2863  0.2016 -0.1100
  938MOL0     C23712   3.189   4.768   6.242 -0.1372  1.1996 -0.7594
  938MOL0     C23713   3.043   4.760   6.240  0.4439 -0.5439  0.2018
  938MOL0     O23714   2.976   4.875   6.213  0.3091  0.1399 -0.1462
  938MOL0     C23715   2.841   4.874   6.196 -0.0867  0.0796  0.7713
  938MOL0     C23716   2.776   4.807   6.085 -0.0988 -0.0686  0.5281
  938MOL0     C23717   2.629   4.806   6.087 -0.5595 -0.3584 -0.6853
  938MOL0     C23718   2.549   4.858   6.189 -0.4564  0.5382 -0.2552
  938MOL0     O23719   2.407   4.845   6.194  0.0271  0.8536 -1.3098
  938MOL0     C23720   2.336   4.834   6.072  0.8504  0.9551 -0.0219
  938MOL0     C23721   2.223   4.933   6.079 -0.3102 -0.7508  0.4260
  938MOL0     C23722   2.124   4.941   5.959  0.5874  0.3118  0.1892
  938MOL0     C23723   2.001   5.038   5.977  0.3026 -0.2937 -0.0967
  938MOL0     C23724   1.886   5.013   5.872 -0.2056  0.7280  0.2184
  938MOL0     C23725   1.777   5.114   5.874 -0.1641  0.1651  0.5561
  938MOL0     C23726   1.711   5.131   5.734 -0.1218  0.9188 -0.3446
  938MOL0     C23727   1.592   5.225   5.753  0.3523 -0.4396  0.0246
  938MOL0    Cl23728   1.439   5.145   5.825 -0.2855 -0.2968 -0.3245
  938MOL0     C23729   2.614   4.911   6.297 -0.5730 -0.5851 -0.0783
  938MOL0     C23730   2.761   4.917   6.306  0.2227 -0.1580  0.3585
  938MOL0     O23731   2.990   4.655   6.274 -0.1526 -0.1151  0.2900
  938MOL0     C23732   3.271   4.653   6.232  0.3885  0.2936 -0.3762
  938MOL0     C23733   3.408   4.666   6.241 -0.1684  0.3638 -0.2099
  938MOL0     N23734   3.973   4.659   6.587 -0.6442  0.1528 -0.3523
  938MOL0     N23735   3.904   4.576   6.657 -0.0427  0.0217 -0.3567
  938MOL0     C23736   2.528   4.323   6.462  0.4905  0.0286  0.2595
  938MOL0     C23737   2.394   4.352   6.422 -0.2616 -0.3794  0.0175
  938MOL0     C23738   2.022   4.624   6.350 -0.5334  0.6470 -0.5705
  938MOL0     C23739   1.910   4.642   6.432 -0.5266 -0.0453 -0.1419
  938MOL0     C23740   1.785   4.680   6.376 -0.0127 -0.3559  0.0655
  938MOL0     C23741   1.769   4.694   6.242  0.1052  0.0613  0.1003
  938MOL0     O23742   1.639   4.724   6.209 -0.2795  0.2090 -0.2797
  938MOL0     C23743   1.598   4.721   6.072 -0.7142  0.1240 -1.0270
  938MOL0     C23744   1.441   4.732   6.068 -0.3966  0.2564 -0.3922
  938MOL0     C23745   1.404   4.754   5.927 -0.1113 -0.2752 -0.7702
  938MOL0     C23746   1.257   4.800   5.917 -0.4319  0.2685  0.2603
  938MOL0     C23747   1.167   4.684   5.943 -0.4171 -0.0095 -0.3927
  938MOL0     C23748   1.116   4.585   5.973  0.3609 -0.7377 -0.7016
  938MOL0     C23749   1.882   4.686   6.159 -0.6153 -0.2911  0.2597
  938MOL0     C23750   2.011   4.653   6.209 -0.7443  0.4969 -0.2047
  938MOL0     H23751   2.450   4.688   6.405  1.3187  1.0622  1.2883
  938MOL0     H23752   2.656   4.634   6.495  0.8307 -0.7002 -1.8432
  938MOL0     H23753   2.815   4.536   6.631  1.6698 -0.6169  1.7698
  938MOL0     H23754   2.886   4.503   6.464  1.1509 -2.1601 -0.8193
  938MOL0     H23755   2.996   4.305   6.549 -0.7808  1.3329 -2.7296
  938MOL0     H23756   2.969   4.372   6.712 -1.6036 -2.7482 -0.6392
  938MOL0     H23757   3.078   4.586   6.644  2.8620 -0.9934  2.4868
  938MOL0     H23758   3.119   4.519   6.483 -0.4751  1.2396 -0.4574
  938MOL0     H23759   3.229   4.447   6.760 -0.6360  1.1854 -0.4632
  938MOL0     H23760   3.229   4.323   6.628  2.5343  1.0234 -1.6683
  938MOL0     H23761   3.350   4.601   6.609 -6.1560  0.7820 -2.2776
  938MOL0     H23762   3.345   4.488   6.480 -4.0956 -1.1911  0.0318
  938MOL0     H23763   3.463   4.309   6.639 -1.3823 -0.0383 -1.3993
  938MOL0     H23764   3.494   4.447   6.744  0.4411  1.3343 -0.4024
  938MOL0     H23765   3.583   4.428   6.448  1.0500  1.0644 -0.3707
  938MOL0     H23766   3.606   4.562   6.563  0.7156  0.2092 -1.1414
  938MOL0     H23767   3.763   4.294   6.561 -1.5123 -0.2314  0.2910
  938MOL0     H23768   3.728   4.380   6.711 -1.5980  1.2376 -0.4943
  938MOL0     H23769   3.846   4.471   6.346  0.3591 -0.2054 -0.5885
  938MOL0     H23770   4.070   4.652   6.266  1.4605  1.5599 -0.8661
  938MOL0     H23771   4.055   4.789   6.371 -3.0716  1.7287  0.3366
  938MOL0     H23772   3.812   4.666   6.220 -1.4162  1.5008 -4.3816
  938MOL0     H23773   3.945   4.758   6.146  2.7342  0.1925  1.9306
  938MOL0     H23774   3.823   4.886   6.392 -1.7532 -0.4273  0.2699
  938MOL0     H23775   3.903   4.946   6.245 -0.2405 -0.7563 -0.6293
  938MOL0     H23776   3.686   4.902   6.130  0.2546  2.2116 -0.2389
  938MOL0     H23777   3.641   4.974   6.290 -1.3368 -0.6280 -0.6189
  938MOL0     H23778   3.439   4.992   6.281  0.1688  0.1733 -0.6226
  938MOL0     H23779   3.199   4.986   6.264 -1.8300 -0.9641 -0.3195
  938MOL0     H23780   2.838   4.776   6.002 -0.1798  2.3756 -0.5254
  938MOL0     H23781   2.575   4.760   6.005  0.5130  2.5878 -3.2326
  938MOL0     H23782   2.289   4.735   6.072  0.3650  1.1694  0.7502
  938MOL0     H23783   2.388   4.854   5.978 -1.1880  0.1094 -1.4036
  938MOL0     H23784   2.269   5.033   6.080 -0.7519 -0.5415  1.3947
  938MOL0     H23785   2.167   4.920   6.172  1.0227  0.3154  1.4278
  938MOL0     H23786   2.084   4.839   5.953 -1.0292  0.7944  1.7565
  938MOL0     H23787   2.176   4.957   5.865 -3.2742 -0.5536 -2.3002
  938MOL0     H23788   1.958   5.030   6.077  2.0505 -1.1984  0.6205
  938MOL0     H23789   2.036   5.139   5.956 -0.4876 -0.2197 -1.1467
  938MOL0     H23790   1.843   4.916   5.898  1.5355  0.4286  2.2317
  938MOL0     H23791   1.918   5.002   5.768 -0.2977  1.8729  0.0588
  938MOL0     H23792   1.820   5.206   5.915 -1.0629  0.5058  0.7811
  938MOL0     H23793   1.698   5.084   5.944 -1.0665  0.8932 -0.1179
  938MOL0     H23794   1.784   5.178   5.668  0.7633  3.0273  1.9537
  938MOL0     H23795   1.681   5.034   5.694  1.4728  1.1714 -2.2706
  938MOL0     H23796   1.572   5.270   5.655  0.2263 -0.3436  0.0949
  938MOL0     H23797   1.631   5.299   5.822  1.4007 -1.3657  0.4666
  938MOL0     H23798   2.563   4.938   6.389  0.8018  2.2896 -0.0292
  938MOL0     H23799   2.805   4.967   6.392 -0.2777  0.8231  0.0605
  938MOL0     H23800   3.224   4.555   6.229  0.7839  0.1254 -1.7110
  938MOL0     H23801   3.468   4.577   6.256 -0.5108  0.1608 -0.0150
  938MOL0     H23802   2.566   4.222   6.447 -1.0851 -0.4724 -0.5876
  938MOL0     H23803   2.318   4.276   6.408 -1.7452  1.3225 -1.9144
  938MOL0     H23804   1.910   4.640   6.540 -2.3840  0.7960 -0.0701
  938MOL0     H23805   1.698   4.694   6.440  1.0757  1.1265  1.3056
  938MOL0     H23806   1.628   4.623   6.035 -3.2729 -1.7158  1.4227
  938MOL0     H23807   1.634   4.798   6.002  0.1737  0.6721  0.0118
  938MOL0     H23808   1.402   4.636   6.106 -2.2735  2.1395  2.9393
  938MOL0     H23809   1.412   4.801   6.147 -2.1029 -0.6303 -0.1952
  938MOL0     H23810   1.411   4.660   5.871 -1.1082 -0.2205 -0.9993
  938MOL0     H23811   1.463   4.835   5.883 -0.8073 -0.2954 -1.7650
  938MOL0     H23812   1.238   4.884   5.984 -0.5144  0.1575  0.3755
  938MOL0     H23813   1.237   4.818   5.811 -2.7641 -2.7174  0.0472
  938MOL0     H23814   1.074   4.494   6.011  4.0082 -0.6932  4.4641
  938MOL0     H23815   1.878   4.699   6.051  2.8301 -0.2086  0.0514
  938MOL0     H23816   2.080   4.636   6.127  0.3168 -0.2811  0.8197
  939MOL0     O23817   1.988   4.128   7.808  0.1974  0.7606 -0.6008
  939MOL0     C23818   2.011   4.105   7.689  0.6928  0.1232 -0.8301
  939MOL0     O23819   1.920   4.046   7.607 -0.9406 -0.3778  0.4181
  939MOL0     C23820   1.784   4.031   7.636  0.1077 -0.2943 -0.5483
  939MOL0     C23821   1.707   4.131   7.685  0.1865 -0.4016 -0.2450
  939MOL0     C23822   1.571   4.103   7.718  0.0493 -0.0618  0.1592
  939MOL0     C23823   1.510   3.982   7.677 -0.4961 -0.2205  0.0072
  939MOL0     O23824   1.375   3.966   7.690 -0.4766  0.6371  0.0514
  939MOL0     C23825   1.303   4.051   7.776 -0.6412  0.2054  0.1274
  939MOL0     C23826   1.173   3.980   7.779 -0.4188 -0.2568 -0.4161
  939MOL0     C23827   1.107   3.974   7.646  0.6918  0.0934 -0.4576
  939MOL0     C23828   0.971   3.888   7.652 -0.4042 -0.5446 -0.5817
  939MOL0     C23829   0.892   3.919   7.522 -0.3693 -0.4806 -0.4035
  939MOL0     C23830   0.784   3.811   7.499  0.0829 -0.2067 -0.3961
  939MOL0     C23831   0.709   3.841   7.366  1.6815  0.4752 -0.0091
  939MOL0     C23832   0.790   3.823   7.242 -0.4758  0.2474 -0.1488
  939MOL0     N23833   0.707   3.841   7.118 -0.8167  0.1800  0.2392
  939MOL0     C23834   0.699   3.949   7.035  0.0708 -0.2424  0.5280
  939MOL0     C23835   0.618   3.917   6.942 -0.2720  0.4577 -0.3444
  939MOL0     C23836   0.576   3.998   6.831  0.6215  0.0069 -0.5539
  939MOL0     C23837   0.469   4.096   6.878 -0.2018 -0.8729 -0.4116
  939MOL0     C23838   0.330   4.033   6.858  0.0005 -0.1815  0.4450
  939MOL0     C23839   0.218   4.138   6.871 -0.5560  0.3488  0.1108
  939MOL0     O23840   0.100   4.051   6.845 -0.5474  0.3281 -0.0866
  939MOL0     C23841  -0.023   4.090   6.886  0.0442  0.0971  0.1278
  939MOL0     C23842  -0.058   4.219   6.907  0.3266 -1.3223  0.1234
  939MOL0     C23843  -0.193   4.252   6.922 -0.1181  0.6752 -0.4712
  939MOL0     C23844  -0.295   4.155   6.914 -0.3002  0.2556  1.5585
  939MOL0     C23845  -0.429   4.193   6.939 -1.1650 -0.0851  0.8469
  939MOL0     O23846  -0.516   4.099   6.981 -1.0225 -0.0236 -0.2782
  939MOL0     C23847  -0.636   4.126   7.047 -0.4737 -1.1718 -0.3853
  939MOL0     C23848  -0.752   4.076   6.981 -0.0220 -0.0472 -0.0653
  939MOL0     C23849  -0.877   4.104   7.044  0.4542  0.6438  1.1310
  939MOL0     C23850  -0.888   4.169   7.165  0.1770 -0.3704  0.5517
  939MOL0     O23851  -1.003   4.203   7.226  0.5062 -0.2009 -0.2627
  939MOL0     C23852  -1.101   4.287   7.160  0.7203  0.0001  0.6615
  939MOL0     C23853  -1.242   4.275   7.220 -0.2443 -0.0801  0.6429
  939MOL0     C23854  -1.331   4.167   7.168 -0.4189 -0.2037 -0.7400
  939MOL0     C23855  -1.459   4.171   7.246  0.4192  0.4596  0.4717
  939MOL0     C23856  -1.548   4.059   7.223  0.5811 -0.1534  0.3799
  939MOL0     C23857  -1.616   4.061   7.085 -0.5824  0.0260 -0.2434
  939MOL0     C23858  -1.731   3.963   7.081 -0.6487 -0.1101  0.7757
  939MOL0     C23859  -1.857   4.030   7.151  0.1627  0.3806  0.8142
  939MOL0    Cl23860  -1.987   3.906   7.168  0.0692 -0.4877 -0.2020
  939MOL0     C23861  -0.768   4.216   7.228  0.0881  0.3990  0.4029
  939MOL0     C23862  -0.646   4.195   7.165 -0.5784 -0.3896 -0.3442
  939MOL0     O23863  -0.452   4.311   6.923  0.0318 -0.4356  0.4670
  939MOL0     C23864  -0.261   4.025   6.889  0.2547  0.9127  0.5667
  939MOL0     C23865  -0.121   3.994   6.873 -0.4800  0.9725  0.3974
  939MOL0     N23866   0.569   3.787   6.962  0.2407 -0.2680 -0.3712
  939MOL0     N23867   0.630   3.740   7.064  0.0474  0.4729  0.1891
  939MOL0     C23868   1.590   3.878   7.629 -0.3242  0.2276  0.0955
  939MOL0     C23869   1.728   3.907   7.609  0.8401  0.6158  0.5320
  939MOL0     C23870   2.144   4.100   7.644 -0.7283  0.4169  0.1087
  939MOL0     C23871   2.182   4.131   7.512  0.8884  0.0067 -0.4091
  939MOL0     C23872   2.315   4.136   7.475 -0.8477 -0.2082  0.0912
  939MOL0     C23873   2.417   4.130   7.571 -0.5617  0.1119  0.0169
  939MOL0     O23874   2.560   4.137   7.548  0.3374  0.5928  0.9499
  939MOL0     C23875   2.612   4.130   7.415  0.3965  0.1007  0.3272
  939MOL0     C23876   2.623   4.261   7.336 -0.2090 -0.5262 -0.6770
  939MOL0     C23877   2.704   4.371   7.412  0.3715 -0.2944 -1.1980
  939MOL0     C23878   2.635   4.506   7.420 -0.4570 -0.5149  0.0362
  939MOL0     C23879   2.711   4.587   7.523 -0.4050  0.1048 -0.0164
  939MOL0     C23880   2.758   4.685   7.587 -0.1788 -0.4185  0.4145
  939MOL0     C23881   2.384   4.102   7.706 -0.6007  0.1721  0.2509
  939MOL0     C23882   2.250   4.074   7.739  0.3164 -0.0376 -0.0630
  939MOL0     H23883   1.769   4.217   7.711  0.1636 -0.8637  1.5077
  939MOL0     H23884   1.513   4.185   7.758  2.8267  2.4918 -0.6956
  939MOL0     H23885   1.304   4.148   7.725 -2.2526  1.6899  2.7445
  939MOL0     H23886   1.347   4.057   7.876  1.1238 -0.3921 -0.5705
  939MOL0     H23887   1.109   4.038   7.846  4.8648  0.9631  4.4227
  939MOL0     H23888   1.194   3.885   7.830 -0.7538  0.0291  0.2692
  939MOL0     H23889   1.168   3.935   7.564 -0.6543 -0.7584 -1.0959
  939MOL0     H23890   1.067   4.074   7.630  0.9918  0.6417  1.9176
  939MOL0     H23891   0.990   3.781   7.659  0.2361 -0.3308  1.2995
  939MOL0     H23892   0.901   3.922   7.729 -1.7637 -1.2536 -1.4692
  939MOL0     H23893   0.965   3.907   7.442 -0.5777 -1.2093 -0.4940
  939MOL0     H23894   0.846   4.018   7.522  0.0335 -0.2915 -0.2313
  939MOL0     H23895   0.713   3.829   7.580 -0.0483 -0.5174 -0.4441
  939MOL0     H23896   0.829   3.712   7.485 -2.1876 -1.1367 -1.5471
  939MOL0     H23897   0.636   3.759   7.358  0.0321  1.8356  0.5293
  939MOL0     H23898   0.657   3.936   7.376  1.4036  0.3700 -0.3970
  939MOL0     H23899   0.839   3.726   7.230 -1.1882 -0.1208 -0.1738
  939MOL0     H23900   0.863   3.905   7.247 -2.1646  1.7769  0.5735
  939MOL0     H23901   0.756   4.040   7.056  1.7576 -1.3187  0.8266
  939MOL0     H23902   0.540   3.938   6.747 -0.6045  1.2984 -0.9931
  939MOL0     H23903   0.664   4.050   6.793 -0.0137  0.4570 -1.4592
  939MOL0     H23904   0.473   4.170   6.798 -0.1895 -1.4883 -0.9899
  939MOL0     H23905   0.488   4.142   6.976  2.3551  1.3270 -1.8025
  939MOL0     H23906   0.333   3.989   6.759  3.2421 -1.0145  0.7947
  939MOL0     H23907   0.293   3.958   6.928 -1.0887  0.7682  0.9341
  939MOL0     H23908   0.227   4.208   6.788 -0.1843 -0.3117 -0.4095
  939MOL0     H23909   0.204   4.181   6.971 -1.1328 -0.8368  0.5481
  939MOL0     H23910   0.014   4.300   6.907 -1.1531  0.1686  3.3858
  939MOL0     H23911  -0.229   4.352   6.942  1.1418  0.6949  1.9504
  939MOL0     H23912  -0.742   4.014   6.892  0.2648 -1.6092  1.0148
  939MOL0     H23913  -0.961   4.050   7.001  1.7993 -0.4161 -0.2654
  939MOL0     H23914  -1.102   4.263   7.054  0.0448  1.2815  0.3556
  939MOL0     H23915  -1.066   4.391   7.165  0.9511  0.1299 -2.2710
  939MOL0     H23916  -1.292   4.372   7.209  2.2211  1.5080  2.3628
  939MOL0     H23917  -1.224   4.258   7.327  1.1890  2.3356  0.8726
  939MOL0     H23918  -1.278   4.072   7.183  1.4223  0.9619  0.6138
  939MOL0     H23919  -1.343   4.169   7.059 -0.0593  0.5824 -0.7720
  939MOL0     H23920  -1.439   4.173   7.353 -2.6429  0.0030  1.1515
  939MOL0     H23921  -1.512   4.262   7.218  1.1441  1.3207  1.7758
  939MOL0     H23922  -1.627   4.079   7.297 -1.0124  2.1301 -1.7794
  939MOL0     H23923  -1.505   3.959   7.235 -0.8166 -0.5736  2.5203
  939MOL0     H23924  -1.535   4.046   7.013  0.6339  1.9644  0.6194
  939MOL0     H23925  -1.639   4.166   7.062  2.7559  0.9764  0.1263
  939MOL0     H23926  -1.755   3.965   6.974 -0.0117  3.0826  0.5731
  939MOL0     H23927  -1.682   3.872   7.117 -0.4324 -0.2239  0.2138
  939MOL0     H23928  -1.891   4.106   7.081  2.2022 -0.1763 -0.9075
  939MOL0     H23929  -1.822   4.085   7.239  2.9566  1.2315 -0.7290
  939MOL0     H23930  -0.780   4.278   7.315 -0.7497  1.9542 -0.7787
  939MOL0     H23931  -0.560   4.241   7.213 -1.1052 -0.6014  0.8324
  939MOL0     H23932  -0.338   3.948   6.883 -0.0804  1.0118  2.7172
  939MOL0     H23933  -0.097   3.895   6.836 -1.2136  1.5295 -1.7323
  939MOL0     H23934   1.559   3.781   7.591 -0.4139  0.4927 -0.5127
  939MOL0     H23935   1.798   3.831   7.575 -1.8691 -1.7545 -0.1553
  939MOL0     H23936   2.109   4.135   7.432 -0.1166 -1.1961  0.3942
  939MOL0     H23937   2.335   4.161   7.372 -0.6020  3.7161  0.9442
  939MOL0     H23938   2.543   4.069   7.355  0.7006  0.2946 -0.2249
  939MOL0     H23939   2.710   4.083   7.409 -1.0184 -2.9575 -1.6467
  939MOL0     H23940   2.675   4.238   7.242  2.1182 -0.4594  0.5039
  939MOL0     H23941   2.523   4.296   7.309  0.9617  2.5858 -1.3258
  939MOL0     H23942   2.797   4.384   7.356  0.3581  0.9607 -0.9592
  939MOL0     H23943   2.713   4.336   7.515  1.6818 -0.3858 -1.3302
  939MOL0     H23944   2.626   4.563   7.327  1.0826  1.3614  0.9683
  939MOL0     H23945   2.535   4.491   7.464 -0.2491 -1.8105  0.0903
  939MOL0     H23946   2.806   4.775   7.619 -2.5779  0.2915  2.3707
  939MOL0     H23947   2.467   4.080   7.773  1.0168  1.7285 -1.1316
  939MOL0     H23948   2.232   4.053   7.844  2.8194 -0.4714  0.3445
  940MOL0     O23949   3.563   8.497   7.290 -0.1607  0.3318 -0.0842
  940MOL0     C23950   3.502   8.411   7.359  0.4968 -0.3147 -0.0093
  940MOL0     O23951   3.389   8.428   7.428 -0.7612  0.3971 -0.5767
  940MOL0     C23952   3.316   8.540   7.399 -0.4868  0.2372  0.7338
  940MOL0     C23953   3.174   8.524   7.361 -1.0814  0.8141  0.1043
  940MOL0     C23954   3.107   8.637   7.329  0.5131 -0.5152 -0.9881
  940MOL0     C23955   3.149   8.764   7.320 -0.4308 -0.1505 -0.9875
  940MOL0     O23956   3.075   8.875   7.281  0.0495 -0.4729  0.0898
  940MOL0     C23957   2.931   8.867   7.264  0.5343  0.7746  0.6839
  940MOL0     C23958   2.872   9.004   7.253 -0.3521 -0.3847  0.4609
  940MOL0     C23959   2.724   9.001   7.218 -0.1300 -0.5723 -0.3511
  940MOL0     C23960   2.667   9.138   7.215 -0.1407 -0.0101  0.9614
  940MOL0     C23961   2.512   9.131   7.200 -0.7563 -0.0231  0.2220
  940MOL0     C23962   2.451   9.256   7.132  0.1356  0.0290  1.1915
  940MOL0     C23963   2.318   9.228   7.066  0.6337  0.1018  0.1413
  940MOL0     C23964   2.211   9.208   7.169 -0.4133  0.5414 -0.5186
  940MOL0     N23965   2.085   9.192   7.097  0.7463 -0.5523 -0.2846
  940MOL0     C23966   2.023   9.298   7.040 -0.2638  0.0496  0.1188
  940MOL0     C23967   1.901   9.249   7.001  0.4486 -0.2918 -0.6794
  940MOL0     C23968   1.795   9.330   6.940 -0.9006  0.1368  0.0602
  940MOL0     C23969   1.662   9.323   7.022  0.4713  0.1731  0.1861
  940MOL0     C23970   1.591   9.189   7.018  0.0751 -0.0058 -0.8285
  940MOL0     C23971   1.466   9.194   7.096  0.0232  0.0798  0.0223
  940MOL0     O23972   1.393   9.073   7.098 -0.0146  0.7321 -0.6296
  940MOL0     C23973   1.255   9.076   7.117  0.0363 -0.9296  0.1459
  940MOL0     C23974   1.174   9.168   7.178 -0.0552  0.6092 -0.6854
  940MOL0     C23975   1.037   9.163   7.185  0.7455 -0.3452  0.0570
  940MOL0     C23976   0.968   9.045   7.134  0.1935 -0.2209  0.3065
  940MOL0     C23977   0.818   9.043   7.142 -0.7609 -0.0372  0.2094
  940MOL0     O23978   0.767   8.924   7.181 -0.0276 -0.8352  0.7017
  940MOL0     C23979   0.643   8.893   7.214  0.4992 -0.4915  1.0204
  940MOL0     C23980   0.627   8.817   7.328  0.7171 -0.3511  0.5018
  940MOL0     C23981   0.499   8.780   7.369 -0.1884  0.6692 -0.4636
  940MOL0     C23982   0.389   8.805   7.289 -0.3433 -0.1362  0.3356
  940MOL0     O23983   0.262   8.760   7.316  0.3000  0.3947 -0.1106
  940MOL0     C23984   0.233   8.636   7.371  0.0945 -0.2138  0.0337
  940MOL0     C23985   0.083   8.613   7.352  0.1026  0.1572  0.2344
  940MOL0     C23986   0.033   8.455   7.323  0.3592 -0.6926  0.0454
  940MOL0     C23987  -0.120   8.461   7.285 -0.6486  0.3327 -0.2632
  940MOL0     C23988  -0.210   8.500   7.401  0.1703  0.3675  0.2910
  940MOL0     C23989  -0.356   8.474   7.362 -0.3448  0.0110  0.2286
  940MOL0     C23990  -0.396   8.331   7.374  0.2038 -0.1965 -0.4018
  940MOL0     C23991  -0.543   8.322   7.345 -1.0156 -0.6145  0.6579
  940MOL0    Cl23992  -0.646   8.439   7.432  0.5153  0.5326  0.0904
  940MOL0     C23993   0.406   8.873   7.169  0.2513 -0.4405 -0.1925
  940MOL0     C23994   0.530   8.927   7.139 -0.2171 -0.4561  0.3093
  940MOL0     O23995   0.763   9.153   7.141 -0.5421  0.2361 -0.3211
  940MOL0     C23996   1.053   8.937   7.091  0.2652 -0.6154 -0.6543
  940MOL0     C23997   1.191   8.961   7.080 -0.1885  0.4524  0.3053
  940MOL0     N23998   1.908   9.111   7.019  1.1633  0.0161 -0.1207
  940MOL0     N23999   2.025   9.074   7.073  0.6863  0.3582 -0.1487
  940MOL0     C24000   3.284   8.780   7.370  0.3039 -0.4881  0.1791
  940MOL0     C24001   3.369   8.674   7.406  0.8246  0.0184 -0.1336
  940MOL0     C24002   3.571   8.277   7.371  0.0037 -0.3297  0.2324
  940MOL0     C24003   3.706   8.270   7.335 -1.3855  0.2340 -0.5630
  940MOL0     C24004   3.770   8.146   7.321  0.0669 -0.3662  0.4553
  940MOL0     C24005   3.709   8.027   7.367 -0.4248 -0.2760 -0.5550
  940MOL0     O24006   3.778   7.908   7.377  0.8419  0.4071  0.3269
  940MOL0     C24007   3.914   7.895   7.331  0.2560  0.3771  0.6718
  940MOL0     C24008   3.927   7.740   7.329 -0.9549 -0.0358  0.2976
  940MOL0     C24009   4.072   7.688   7.277  0.5866 -0.5324  0.6880
  940MOL0     C24010   4.110   7.547   7.334  0.6621 -0.1487  0.6742
  940MOL0     C24011   4.003   7.449   7.293 -0.2398  0.4865 -0.0170
  940MOL0     C24012   3.911   7.359   7.279 -0.2586  0.1188 -0.0860
  940MOL0     C24013   3.579   8.036   7.415  0.7468 -0.4935 -0.3617
  940MOL0     C24014   3.512   8.157   7.412  0.6192 -0.2233 -0.4171
  940MOL0     H24015   3.127   8.428   7.378  0.3587 -0.2898 -1.8125
  940MOL0     H24016   3.001   8.630   7.306 -0.0364  3.4112 -0.2175
  940MOL0     H24017   2.879   8.812   7.343  1.5143  1.4296  1.8153
  940MOL0     H24018   2.915   8.821   7.166  0.4292 -2.9016  2.2489
  940MOL0     H24019   2.932   9.054   7.176 -1.9605 -1.8077 -1.8362
  940MOL0     H24020   2.884   9.055   7.349 -1.4848 -0.4213  0.6273
  940MOL0     H24021   2.683   8.945   7.303  1.1534  0.2173  0.8112
  940MOL0     H24022   2.700   8.950   7.124  0.7856  0.2946 -1.0735
  940MOL0     H24023   2.694   9.192   7.306 -0.5488  0.7270  0.6543
  940MOL0     H24024   2.723   9.190   7.136  1.0364  1.3831  2.6520
  940MOL0     H24025   2.452   9.114   7.290 -1.2902 -0.6007 -0.2342
  940MOL0     H24026   2.484   9.050   7.132  0.0654  0.0495 -0.2044
  940MOL0     H24027   2.518   9.274   7.047  1.3367 -2.4138  1.5209
  940MOL0     H24028   2.440   9.341   7.199  2.4785  2.7547 -1.5621
  940MOL0     H24029   2.288   9.309   7.000 -0.6359 -0.0865  0.4590
  940MOL0     H24030   2.327   9.134   7.010  0.2406  0.3302 -0.3114
  940MOL0     H24031   2.201   9.279   7.251 -1.7006 -1.6756  1.3465
  940MOL0     H24032   2.242   9.117   7.222  0.5142  0.5653 -0.9972
  940MOL0     H24033   2.057   9.400   7.046  0.1452  0.1150 -2.3544
  940MOL0     H24034   1.780   9.281   6.844  0.1625 -2.0861  0.9748
  940MOL0     H24035   1.819   9.434   6.915 -1.6647 -0.3681 -3.3237
  940MOL0     H24036   1.590   9.389   6.975 -0.4868  0.1534  1.5597
  940MOL0     H24037   1.684   9.342   7.128  0.2550  3.1636 -0.2118
  940MOL0     H24038   1.572   9.174   6.911 -6.0080 -0.1093 -0.0905
  940MOL0     H24039   1.655   9.114   7.065 -0.9110 -0.6639 -0.5026
  940MOL0     H24040   1.397   9.272   7.063 -0.8067  0.0564  1.6151
  940MOL0     H24041   1.497   9.223   7.197 -1.3308 -1.1755  0.8288
  940MOL0     H24042   1.224   9.251   7.226  2.1665 -0.1661 -1.5736
  940MOL0     H24043   0.968   9.239   7.220 -1.8603 -2.3789 -0.3732
  940MOL0     H24044   0.717   8.785   7.380  0.4952 -0.9771  0.4963
  940MOL0     H24045   0.490   8.718   7.458  3.2757 -3.1188 -2.3626
  940MOL0     H24046   0.256   8.638   7.478  0.2765  0.7257 -0.0218
  940MOL0     H24047   0.288   8.558   7.317 -3.7422 -0.9535 -3.3142
  940MOL0     H24048   0.062   8.673   7.263  2.0236  0.3897 -0.1083
  940MOL0     H24049   0.023   8.659   7.431  2.0833  2.8975  0.3136
  940MOL0     H24050   0.039   8.399   7.417 -1.0266  0.6595  0.9816
  940MOL0     H24051   0.094   8.413   7.243  1.9661  2.1779 -0.3842
  940MOL0     H24052  -0.118   8.542   7.211 -1.3911 -0.3817 -1.0743
  940MOL0     H24053  -0.154   8.363   7.253 -2.1333 -0.0811  2.3127
  940MOL0     H24054  -0.189   8.606   7.419 -0.0650  0.8216 -1.8777
  940MOL0     H24055  -0.190   8.450   7.497 -1.9165  1.6097  1.4410
  940MOL0     H24056  -0.374   8.507   7.260 -2.3952  0.6684  0.7471
  940MOL0     H24057  -0.408   8.535   7.437  4.2047  2.5714  1.7268
  940MOL0     H24058  -0.341   8.270   7.302  1.6734  2.2673 -1.4823
  940MOL0     H24059  -0.382   8.286   7.473 -1.8639 -0.8164 -0.3438
  940MOL0     H24060  -0.575   8.219   7.360  0.3923 -1.4259 -1.5362
  940MOL0     H24061  -0.545   8.336   7.237  2.0872 -1.7786  0.3428
  940MOL0     H24062   0.314   8.886   7.113  1.8090  2.0650 -2.3777
  940MOL0     H24063   0.546   8.986   7.049  1.8536 -3.3855 -1.4520
  940MOL0     H24064   1.014   8.837   7.079 -3.5709  0.5885  0.3207
  940MOL0     H24065   1.256   8.882   7.042 -2.9781 -1.5567 -0.5609
  940MOL0     H24066   3.323   8.880   7.352 -1.3071  0.1754  0.1841
  940MOL0     H24067   3.472   8.701   7.430  1.1464 -0.5856 -0.8162
  940MOL0     H24068   3.751   8.365   7.305 -0.5264  0.4818  1.3588
  940MOL0     H24069   3.870   8.133   7.281 -0.0162  0.5071 -0.0644
  940MOL0     H24070   3.981   7.940   7.406 -0.5698  0.9677  1.0667
  940MOL0     H24071   3.944   7.947   7.240 -2.0613 -0.2888 -0.5153
  940MOL0     H24072   3.915   7.704   7.432  1.1429  0.4964  0.7735
  940MOL0     H24073   3.847   7.693   7.270  1.2642  1.2964 -4.2041
  940MOL0     H24074   4.149   7.761   7.303 -1.7967  1.7916  1.7572
  940MOL0     H24075   4.066   7.688   7.168 -1.8132  0.7452  0.7433
  940MOL0     H24076   4.209   7.524   7.296 -0.3700 -3.0526 -0.5384
  940MOL0     H24077   4.113   7.567   7.442 -3.5617  1.9639  0.6310
  940MOL0     H24078   3.846   7.277   7.257  0.1756 -0.0659 -0.6908
  940MOL0     H24079   3.532   7.946   7.454 -0.6495  1.3485  2.4900
  940MOL0     H24080   3.407   8.153   7.441  1.3471 -0.1391  2.4649
  941MOL0     O24081   6.624   5.979   4.487  0.4146  0.7983 -0.2026
  941MOL0     C24082   6.715   5.955   4.405 -1.1585  0.7209  0.0293
  941MOL0     O24083   6.707   5.951   4.269 -0.8638  0.0100 -0.1591
  941MOL0     C24084   6.579   5.977   4.208 -0.2481  0.3177 -0.4014
  941MOL0     C24085   6.587   6.038   4.083 -0.1748 -0.8226  0.2900
  941MOL0     C24086   6.465   6.046   4.015 -0.1875 -0.4154 -0.3745
  941MOL0     C24087   6.341   5.993   4.053  0.7396  0.2355 -0.1941
  941MOL0     O24088   6.239   6.002   3.959 -0.3187  0.4947  1.1680
  941MOL0     C24089   6.108   5.951   4.000  0.1593  0.2146  0.2008
  941MOL0     C24090   6.000   5.960   3.892 -0.0577  0.2608  0.9476
  941MOL0     C24091   5.855   5.951   3.952 -0.2261 -0.5175 -0.8072
  941MOL0     C24092   5.750   5.976   3.845  0.1393  0.2949 -0.4054
  941MOL0     C24093   5.609   5.969   3.908 -0.0299  0.1580 -0.2785
  941MOL0     C24094   5.510   5.983   3.795 -0.6356  0.7620 -0.1927
  941MOL0     C24095   5.367   5.956   3.839  0.4170 -0.1050  0.1470
  941MOL0     C24096   5.323   5.817   3.884 -0.8661 -0.6330  0.3118
  941MOL0     N24097   5.183   5.792   3.923  0.7917 -0.1087 -0.1910
  941MOL0     C24098   5.070   5.818   3.854  0.4977 -0.1027  0.6087
  941MOL0     C24099   4.969   5.751   3.912 -0.6159  0.2426 -0.3383
  941MOL0     C24100   4.825   5.743   3.878  0.3141 -0.3007 -0.4377
  941MOL0     C24101   4.806   5.765   3.732 -0.1564  0.3811  0.2780
  941MOL0     C24102   4.659   5.801   3.689 -0.6544 -0.3967  0.1954
  941MOL0     C24103   4.564   5.694   3.711  0.4937 -0.3852  0.3256
  941MOL0     O24104   4.447   5.730   3.636 -0.2174  0.1948  0.9273
  941MOL0     C24105   4.350   5.646   3.600 -0.2554  0.4330  0.0061
  941MOL0     C24106   4.346   5.510   3.647  0.2426  0.2675  0.0626
  941MOL0     C24107   4.232   5.429   3.628  0.8827 -0.2803  0.2490
  941MOL0     C24108   4.113   5.485   3.567  0.7370 -0.2953 -0.9558
  941MOL0     C24109   3.986   5.404   3.564  0.5859 -0.1806  0.0489
  941MOL0     O24110   3.874   5.465   3.500 -0.5316 -0.5863 -0.4557
  941MOL0     C24111   3.748   5.420   3.513  0.3408  0.9950  0.1005
  941MOL0     C24112   3.675   5.341   3.422 -0.4654 -0.5688  0.4022
  941MOL0     C24113   3.535   5.312   3.443 -0.5081  0.7921 -0.1207
  941MOL0     C24114   3.477   5.342   3.564 -0.0601 -0.1931  0.3014
  941MOL0     O24115   3.349   5.314   3.587 -0.0169  0.4015  0.5870
  941MOL0     C24116   3.273   5.433   3.605 -0.1631 -0.2659 -0.2753
  941MOL0     C24117   3.139   5.440   3.542  0.0381  1.1882 -0.6463
  941MOL0     C24118   3.032   5.493   3.641 -0.0080  0.0966 -0.3509
  941MOL0     C24119   2.892   5.463   3.573 -0.3890 -0.4154 -0.1050
  941MOL0     C24120   2.789   5.504   3.678 -0.2609  0.4602  0.0667
  941MOL0     C24121   2.650   5.475   3.622 -0.4513  0.2241 -0.0099
  941MOL0     C24122   2.539   5.533   3.700  0.6884  0.0898 -0.1182
  941MOL0     C24123   2.406   5.478   3.646 -0.8702 -0.0355 -0.1534
  941MOL0    Cl24124   2.260   5.565   3.721 -0.5776 -0.0761 -0.2021
  941MOL0     C24125   3.545   5.412   3.660 -0.4409 -0.1685  0.1581
  941MOL0     C24126   3.679   5.450   3.638 -0.6919  0.8158  0.8191
  941MOL0     O24127   3.985   5.294   3.629  0.7215 -0.2936  1.2238
  941MOL0     C24128   4.120   5.616   3.518 -0.0200  0.5078  0.4943
  941MOL0     C24129   4.230   5.695   3.538 -0.5369  0.5122  0.4653
  941MOL0     N24130   5.018   5.690   4.026 -0.2799 -0.1060  0.5369
  941MOL0     N24131   5.145   5.708   4.023  0.1587 -0.0888 -0.3811
  941MOL0     C24132   6.333   5.940   4.182  0.1962  0.4245  0.0457
  941MOL0     C24133   6.452   5.928   4.262 -0.5447  0.2228  0.2850
  941MOL0     C24134   6.843   5.904   4.457  0.3186 -0.3161  0.2904
  941MOL0     C24135   6.955   5.915   4.378  0.7190 -0.4145  0.1522
  941MOL0     C24136   7.077   5.898   4.425 -0.3997 -0.1602  0.6227
  941MOL0     C24137   7.095   5.849   4.550  0.1317  0.6959  0.5284
  941MOL0     O24138   7.221   5.810   4.597 -0.1007  0.0104 -0.0620
  941MOL0     C24139   7.334   5.865   4.523 -0.1162 -0.5203 -0.2760
  941MOL0     C24140   7.345   6.018   4.569 -1.4808 -0.7615  0.1776
  941MOL0     C24141   7.492   6.070   4.549  0.5947  0.1086 -0.0405
  941MOL0     C24142   7.568   6.038   4.676  0.4919  0.3725  0.2990
  941MOL0     C24143   7.715   6.046   4.664  0.1097  0.0675  0.1742
  941MOL0     C24144   7.834   6.043   4.649  0.8573 -0.1594 -0.2105
  941MOL0     C24145   6.986   5.817   4.633  0.0191 -0.2193 -0.2792
  941MOL0     C24146   6.859   5.850   4.588 -0.2681 -0.4458 -0.5665
  941MOL0     H24147   6.678   6.076   4.036 -2.0117  0.5304 -2.5032
  941MOL0     H24148   6.466   6.084   3.914  2.3395 -3.9450 -1.8889
  941MOL0     H24149   6.078   6.018   4.080  2.0080  0.2753  0.9039
  941MOL0     H24150   6.116   5.849   4.039  1.4016 -0.3510 -1.4042
  941MOL0     H24151   6.018   5.877   3.823 -0.3343  1.4617 -0.6570
  941MOL0     H24152   6.020   6.051   3.834  0.4801 -1.4301 -1.6965
  941MOL0     H24153   5.840   6.013   4.041 -1.9253 -1.0644 -0.6828
  941MOL0     H24154   5.846   5.847   3.985  3.6792 -1.7779 -3.0410
  941MOL0     H24155   5.769   6.070   3.793  3.5358 -0.2788 -0.4836
  941MOL0     H24156   5.761   5.898   3.769  0.1951 -0.1941  0.0953
  941MOL0     H24157   5.585   6.049   3.979 -2.5734 -1.6680  1.0619
  941MOL0     H24158   5.604   5.883   3.976  0.6716  0.3722  0.0644
  941MOL0     H24159   5.531   5.926   3.704  2.9244 -2.3304  2.2404
  941MOL0     H24160   5.510   6.084   3.753 -1.0221  0.1520 -1.7219
  941MOL0     H24161   5.330   6.030   3.911  1.5942  1.2535 -0.5965
  941MOL0     H24162   5.302   5.974   3.752 -0.9880 -0.2688  1.1157
  941MOL0     H24163   5.388   5.784   3.966 -0.1047 -0.7027 -0.3018
  941MOL0     H24164   5.343   5.760   3.793 -2.2882  1.5249 -1.4562
  941MOL0     H24165   5.055   5.888   3.773  2.0814 -2.0363 -1.4790
  941MOL0     H24166   4.773   5.818   3.937 -0.2735 -0.2990 -0.9484
  941MOL0     H24167   4.797   5.642   3.909  0.6734 -0.7208 -1.4264
  941MOL0     H24168   4.834   5.670   3.688 -2.1715  0.5514 -1.5330
  941MOL0     H24169   4.862   5.852   3.698 -0.3808  0.2493 -0.4344
  941MOL0     H24170   4.637   5.891   3.748 -0.0602  0.2157 -0.4992
  941MOL0     H24171   4.665   5.830   3.584 -2.0379  1.7227  0.6200
  941MOL0     H24172   4.538   5.673   3.815 -2.1662 -0.0897 -0.2052
  941MOL0     H24173   4.607   5.603   3.667  0.6136 -0.4027  0.4818
  941MOL0     H24174   4.423   5.467   3.710 -1.3858 -0.6358  1.5019
  941MOL0     H24175   4.233   5.324   3.656 -1.2910 -0.7370 -1.1245
  941MOL0     H24176   3.723   5.298   3.335 -3.1935 -2.1661 -0.4464
  941MOL0     H24177   3.473   5.261   3.370 -1.3551 -0.5273  1.4431
  941MOL0     H24178   3.333   5.511   3.558  3.5206 -1.4353  2.0463
  941MOL0     H24179   3.261   5.456   3.712  0.1079  0.0252 -0.3042
  941MOL0     H24180   3.100   5.348   3.497 -3.2677  3.1448 -2.1486
  941MOL0     H24181   3.147   5.515   3.463 -1.7304  1.0074 -1.0352
  941MOL0     H24182   3.043   5.602   3.649  1.3506  0.2411 -3.1231
  941MOL0     H24183   3.033   5.442   3.738 -1.2141 -1.7909 -1.2877
  941MOL0     H24184   2.882   5.522   3.482  1.1601  0.5594  0.3102
  941MOL0     H24185   2.894   5.356   3.551  1.5863 -0.5192  0.3546
  941MOL0     H24186   2.794   5.612   3.695 -2.3869  0.9913 -2.1459
  941MOL0     H24187   2.806   5.449   3.771 -0.7561  2.3412  1.3201
  941MOL0     H24188   2.635   5.367   3.622  1.9224 -0.1569  0.6275
  941MOL0     H24189   2.646   5.505   3.516  1.4726 -0.3808 -0.3055
  941MOL0     H24190   2.541   5.514   3.807 -1.6095 -0.8859 -0.1972
  941MOL0     H24191   2.543   5.642   3.691  2.1143 -0.0235 -1.2306
  941MOL0     H24192   2.388   5.371   3.664 -2.3684  0.5182  2.1094
  941MOL0     H24193   2.408   5.499   3.538  2.1275  0.8310 -0.0138
  941MOL0     H24194   3.496   5.428   3.755 -0.0098 -4.2440  1.2320
  941MOL0     H24195   3.737   5.497   3.717  1.7158 -0.6875  0.0366
  941MOL0     H24196   4.025   5.655   3.484 -0.4864 -2.2292 -1.5715
  941MOL0     H24197   4.231   5.799   3.508 -2.3662  0.9370  1.6958
  941MOL0     H24198   6.251   5.883   4.222 -0.5229  1.7018  0.4476
  941MOL0     H24199   6.455   5.872   4.354  2.8666 -0.6081 -0.2051
  941MOL0     H24200   6.946   5.967   4.282  1.0463 -2.1770 -0.8705
  941MOL0     H24201   7.158   5.913   4.355 -0.1640  1.7695  1.2614
  941MOL0     H24202   7.338   5.861   4.414 -1.2099 -1.2791 -0.3088
  941MOL0     H24203   7.425   5.810   4.548  0.6710  2.0887  3.5265
  941MOL0     H24204   7.284   6.085   4.508 -2.8326 -1.0065  1.2078
  941MOL0     H24205   7.322   6.042   4.673 -2.8958 -1.5423  0.0707
  941MOL0     H24206   7.495   6.180   4.540  0.5395  0.3255  2.1991
  941MOL0     H24207   7.530   6.018   4.460 -0.9078 -0.1944 -0.5305
  941MOL0     H24208   7.536   6.091   4.766 -0.8318  0.3600 -0.1419
  941MOL0     H24209   7.547   5.933   4.697 -0.5219  0.8630  1.9582
  941MOL0     H24210   7.941   6.045   4.635  0.5833 -0.8960 -3.0196
  941MOL0     H24211   6.992   5.777   4.734  1.9608  1.0197  0.1560
  941MOL0     H24212   6.775   5.827   4.653  1.2129  0.8430  1.9943
  942MOL0     O24213   3.151  10.088   2.343  0.1284  0.5426  0.3849
  942MOL0     C24214   3.253  10.070   2.408  0.3029 -0.3811 -0.0493
  942MOL0     O24215   3.298  10.164   2.500  0.4020  0.2833 -0.5839
  942MOL0     C24216   3.227  10.276   2.534 -0.4272  0.0033 -0.8442
  942MOL0     C24217   3.307  10.357   2.617 -0.3749 -0.1338 -0.0234
  942MOL0     C24218   3.248  10.477   2.661 -0.5832 -0.0618 -0.4877
  942MOL0     C24219   3.117  10.508   2.639 -0.6177 -0.3675 -0.3434
  942MOL0     O24220   3.069  10.619   2.707 -0.2059 -0.0456  0.7781
  942MOL0     C24221   2.938  10.649   2.678 -0.1591  0.0755 -0.9295
  942MOL0     C24222   2.890  10.774   2.753 -0.6626  0.6861 -0.0994
  942MOL0     C24223   2.744  10.821   2.724 -0.0398 -0.4959 -0.1309
  942MOL0     C24224   2.630  10.725   2.752  0.6215 -0.8446  0.9962
  942MOL0     C24225   2.492  10.784   2.757 -0.2901 -0.6972  0.1529
  942MOL0     C24226   2.371  10.688   2.770 -0.2464 -0.1960  0.4329
  942MOL0     C24227   2.352  10.605   2.641 -0.6798  0.4243 -0.3814
  942MOL0     C24228   2.253  10.486   2.670 -0.4112  0.1520 -0.3716
  942MOL0     N24229   2.308  10.365   2.734  0.6347 -0.3386  0.0555
  942MOL0     C24230   2.431  10.299   2.706  0.4727 -1.2189 -0.2642
  942MOL0     C24231   2.419  10.174   2.768  0.8757 -0.2718  0.5792
  942MOL0     C24232   2.504  10.066   2.752 -0.0337 -0.1509  0.6063
  942MOL0     C24233   2.652  10.099   2.737 -1.3125  0.2904 -0.3686
  942MOL0     C24234   2.714  10.164   2.859  0.3778  0.0503  0.8538
  942MOL0     C24235   2.863  10.189   2.834  0.3272  0.9020  0.5768
  942MOL0     O24236   2.929  10.062   2.813  0.0727  0.6672  0.4378
  942MOL0     C24237   3.067  10.052   2.812  0.2233 -0.2127  0.0238
  942MOL0     C24238   3.127   9.930   2.770 -0.0192  0.8282  0.0998
  942MOL0     C24239   3.270   9.912   2.773  1.3672 -0.8258  0.3503
  942MOL0     C24240   3.346  10.024   2.800  0.4739  0.1583  0.5111
  942MOL0     C24241   3.499  10.009   2.794 -0.1677  0.5370 -0.3938
  942MOL0     O24242   3.550   9.884   2.789 -0.5076  0.1053 -0.7317
  942MOL0     C24243   3.681   9.865   2.816  0.1483  0.4237  0.0976
  942MOL0     C24244   3.716   9.762   2.903  0.3161  0.4817 -0.1553
  942MOL0     C24245   3.843   9.763   2.945 -0.1128  1.2846  0.0589
  942MOL0     C24246   3.944   9.841   2.894 -0.4828  1.0192 -0.2147
  942MOL0     O24247   4.071   9.830   2.952 -0.0420 -1.5278 -0.0829
  942MOL0     C24248   4.158   9.730   2.910 -0.3528  0.4146  0.1484
  942MOL0     C24249   4.235   9.767   2.779  0.2788  0.2134 -0.2270
  942MOL0     C24250   4.369   9.840   2.813  0.7072 -0.2061  0.6663
  942MOL0     C24251   4.432   9.876   2.676  0.0195  0.2069  0.4777
  942MOL0     C24252   4.474   9.763   2.581 -0.9167  0.0638  0.1978
  942MOL0     C24253   4.553   9.820   2.467 -0.7036 -1.0882 -0.3243
  942MOL0     C24254   4.610   9.721   2.367 -0.1838  0.3245 -0.4642
  942MOL0     C24255   4.703   9.783   2.254  0.0225 -0.7146  0.6802
  942MOL0    Cl24256   4.800   9.664   2.180 -0.1081  0.4965 -0.0595
  942MOL0     C24257   3.910   9.928   2.792 -0.0276 -0.1028  0.1874
  942MOL0     C24258   3.781   9.939   2.750  0.8364 -0.3430  0.4458
  942MOL0     O24259   3.562  10.115   2.807  0.1669 -0.3890  0.5713
  942MOL0     C24260   3.292  10.140   2.860 -0.6432  0.2809  0.4588
  942MOL0     C24261   3.153  10.155   2.859 -0.0495  0.1850  0.0920
  942MOL0     N24262   2.293  10.176   2.824 -0.0630  0.0081  0.0442
  942MOL0     N24263   2.227  10.275   2.794  0.3844 -0.3207  0.5610
  942MOL0     C24264   3.042  10.422   2.565  0.1851 -0.2348  0.3628
  942MOL0     C24265   3.093  10.301   2.519  0.3760 -0.9635  0.5634
  942MOL0     C24266   3.321   9.944   2.388 -0.9678 -0.6972 -0.5233
  942MOL0     C24267   3.441   9.926   2.450  0.2480 -0.2660  0.1714
  942MOL0     C24268   3.528   9.823   2.424  1.3228  0.4075  0.0631
  942MOL0     C24269   3.478   9.716   2.341 -0.2654  0.4673  0.3522
  942MOL0     O24270   3.568   9.604   2.321  0.4169 -0.4111  0.1204
  942MOL0     C24271   3.515   9.482   2.274  0.2454  0.6482  0.6916
  942MOL0     C24272   3.625   9.374   2.259 -0.2320  0.8026 -0.5800
  942MOL0     C24273   3.770   9.435   2.240  0.3972  1.3703  1.1835
  942MOL0     C24274   3.881   9.319   2.249 -0.4954  0.3798  0.0122
  942MOL0     C24275   3.965   9.322   2.123  0.1366  1.5070  0.6220
  942MOL0     C24276   4.041   9.323   2.025  0.6352  0.0568  0.4275
  942MOL0     C24277   3.356   9.728   2.272  0.7540  0.1387 -1.0325
  942MOL0     C24278   3.283   9.846   2.295 -0.1600  0.3201  0.1593
  942MOL0     H24279   3.412  10.334   2.633 -0.8809 -2.1466  0.7871
  942MOL0     H24280   3.305  10.552   2.716 -2.8335  0.6551  1.0401
  942MOL0     H24281   2.871  10.568   2.711  0.2247  1.0669  2.6356
  942MOL0     H24282   2.927  10.661   2.570  0.6247 -1.6918 -1.2372
  942MOL0     H24283   2.962  10.853   2.730  0.3283 -0.0892  0.2991
  942MOL0     H24284   2.897  10.758   2.861 -0.6155  1.0263 -0.0517
  942MOL0     H24285   2.737  10.848   2.618 -2.3976 -0.1073  0.0726
  942MOL0     H24286   2.729  10.920   2.767  1.5794  0.7388 -2.1983
  942MOL0     H24287   2.640  10.641   2.684  1.7053  0.6507 -0.7555
  942MOL0     H24288   2.652  10.701   2.857  2.9985 -3.0594  0.1020
  942MOL0     H24289   2.457  10.846   2.674 -2.9847 -1.4300  0.6151
  942MOL0     H24290   2.486  10.849   2.845  0.8892 -1.8979  1.1558
  942MOL0     H24291   2.285  10.751   2.791 -0.3001 -0.4490  0.9833
  942MOL0     H24292   2.389  10.623   2.856  0.7859  0.7959  0.9973
  942MOL0     H24293   2.313  10.673   2.564 -0.0179  1.2590  0.0072
  942MOL0     H24294   2.445  10.559   2.604 -1.1809 -0.4837 -0.5371
  942MOL0     H24295   2.206  10.461   2.575  0.6014 -1.2247 -0.5607
  942MOL0     H24296   2.173  10.524   2.734 -2.6452 -0.8978 -2.3892
  942MOL0     H24297   2.508  10.335   2.639  0.1938 -0.1027 -0.0076
  942MOL0     H24298   2.485  10.008   2.661  0.7939  1.2244 -0.4770
  942MOL0     H24299   2.481  10.002   2.838 -2.7479  2.1160  1.7476
  942MOL0     H24300   2.662  10.160   2.646 -2.6971  0.4816 -0.4053
  942MOL0     H24301   2.716  10.013   2.714  1.5019  1.5156  2.1356
  942MOL0     H24302   2.661  10.251   2.899 -4.1515 -2.4146  0.8881
  942MOL0     H24303   2.717  10.091   2.941  0.2673 -2.2899 -1.1195
  942MOL0     H24304   2.895  10.227   2.931 -1.4880 -2.8900  2.9228
  942MOL0     H24305   2.873  10.264   2.755  2.8183 -0.2256 -0.2904
  942MOL0     H24306   3.065   9.845   2.746  1.1493 -0.0223 -0.0093
  942MOL0     H24307   3.318   9.823   2.732  2.0068  0.0941 -0.9773
  942MOL0     H24308   3.635   9.699   2.939  1.9955 -2.2648 -0.8835
  942MOL0     H24309   3.863   9.691   3.024 -0.4437  2.2528  1.0507
  942MOL0     H24310   4.103   9.636   2.900  1.5352 -1.1227  2.9176
  942MOL0     H24311   4.229   9.716   2.992  1.7443  0.4945 -1.5464
  942MOL0     H24312   4.174   9.826   2.709  1.8276  1.4132 -0.6166
  942MOL0     H24313   4.259   9.672   2.731  2.1770 -0.1356  1.2987
  942MOL0     H24314   4.428   9.760   2.860  0.6902  0.0478  1.1226
  942MOL0     H24315   4.354   9.922   2.883 -1.9872  0.2900 -0.3578
  942MOL0     H24316   4.354   9.937   2.630 -0.5426 -1.2319 -0.5617
  942MOL0     H24317   4.524   9.931   2.696  1.1404 -2.1584  2.4373
  942MOL0     H24318   4.388   9.704   2.547  0.7646 -2.3766 -0.0616
  942MOL0     H24319   4.541   9.698   2.639  0.0639  2.5566  2.0111
  942MOL0     H24320   4.633   9.879   2.511 -0.1102 -1.8325 -0.3843
  942MOL0     H24321   4.490   9.891   2.413 -2.4456 -2.0522  0.3524
  942MOL0     H24322   4.668   9.652   2.429 -1.4185  0.0999  0.4960
  942MOL0     H24323   4.524   9.668   2.325 -0.7058  0.3133  0.5790
  942MOL0     H24324   4.779   9.847   2.298  0.2387  0.4402 -1.2542
  942MOL0     H24325   4.639   9.842   2.187 -1.3574 -1.3653  1.3717
  942MOL0     H24326   3.984   9.993   2.747  1.6154 -0.3119  2.3994
  942MOL0     H24327   3.754  10.022   2.686 -0.3725 -1.3074 -0.3497
  942MOL0     H24328   3.365  10.213   2.892 -1.3268  0.8498  0.7361
  942MOL0     H24329   3.113  10.252   2.888 -0.3815 -0.3047  1.3176
  942MOL0     H24330   2.935  10.435   2.554  0.3916  0.9946 -0.2950
  942MOL0     H24331   3.029  10.233   2.464 -1.9299  0.0321  1.8659
  942MOL0     H24332   3.470  10.005   2.519 -1.2847  0.2838  0.2387
  942MOL0     H24333   3.625   9.815   2.471  1.3849  2.4864  0.3598
  942MOL0     H24334   3.463   9.493   2.179  1.0244  0.3540  0.2215
  942MOL0     H24335   3.437   9.448   2.343  0.7166  0.5749  1.1906
  942MOL0     H24336   3.621   9.315   2.351 -2.0728 -1.2851 -1.8878
  942MOL0     H24337   3.614   9.304   2.175 -0.1027 -1.2417  1.0149
  942MOL0     H24338   3.795   9.508   2.318  1.5281  0.2048  1.9475
  942MOL0     H24339   3.772   9.488   2.144  0.0303  0.1522  0.4920
  942MOL0     H24340   3.936   9.339   2.342 -3.0549  1.4393  1.3901
  942MOL0     H24341   3.837   9.222   2.276  1.7361 -0.5958  0.3755
  942MOL0     H24342   4.101   9.332   1.937 -0.7286 -0.7350 -0.6222
  942MOL0     H24343   3.323   9.662   2.192  1.1119 -1.0805 -0.2004
  942MOL0     H24344   3.202   9.869   2.226  0.8295  1.6068 -0.6218
  943MOL0     O24345   7.966   1.048   3.718  0.3055  0.5582 -0.3766
  943MOL0     C24346   7.972   1.100   3.830  0.2904  0.0755  0.0761
  943MOL0     O24347   7.872   1.160   3.896  0.2678  0.2541 -0.1556
  943MOL0     C24348   7.765   1.185   3.821  0.6141 -0.1993 -0.3307
  943MOL0     C24349   7.646   1.118   3.836 -0.4196 -0.2613 -0.0960
  943MOL0     C24350   7.532   1.142   3.758 -0.7264 -0.5559  0.9346
  943MOL0     C24351   7.540   1.252   3.673  0.1055  0.4545  0.7042
  943MOL0     O24352   7.429   1.290   3.602  0.4845  0.2914  0.2671
  943MOL0     C24353   7.394   1.424   3.625 -0.4192  0.6828  1.4140
  943MOL0     C24354   7.240   1.411   3.629 -0.2518 -0.4034 -0.5627
  943MOL0     C24355   7.173   1.481   3.508  0.4749  0.3011 -0.0555
  943MOL0     C24356   7.029   1.440   3.495 -0.1113  0.4300 -0.3608
  943MOL0     C24357   6.967   1.490   3.370  0.8939  0.3125  0.4872
  943MOL0     C24358   6.830   1.416   3.359 -0.5873 -0.3299 -0.1411
  943MOL0     C24359   6.760   1.458   3.232  0.1740 -0.0946  0.1723
  943MOL0     C24360   6.686   1.602   3.247  0.4722  0.3831 -0.3004
  943MOL0     N24361   6.561   1.599   3.335 -0.4165 -0.4532 -0.8597
  943MOL0     C24362   6.441   1.539   3.311 -0.6006  0.9916  0.0516
  943MOL0     C24363   6.358   1.587   3.410 -0.8056 -0.5838  0.3592
  943MOL0     C24364   6.210   1.557   3.432 -0.2966  0.0136  0.1897
  943MOL0     C24365   6.115   1.679   3.417  0.6971  0.2966 -0.1432
  943MOL0     C24366   5.971   1.643   3.426  1.1832  0.5036  0.0642
  943MOL0     C24367   5.888   1.763   3.390 -0.2791 -0.0601  0.3712
  943MOL0     O24368   5.757   1.742   3.440  0.9913  0.2188  0.3150
  943MOL0     C24369   5.643   1.813   3.404 -0.9903 -0.1721  1.0251
  943MOL0     C24370   5.556   1.846   3.509 -0.2541 -1.5039  0.3950
  943MOL0     C24371   5.437   1.904   3.463  0.0418  0.0871 -0.0045
  943MOL0     C24372   5.404   1.940   3.330  0.2375  0.0223  1.1784
  943MOL0     C24373   5.283   2.015   3.288 -0.2560 -1.0894 -0.0492
  943MOL0     O24374   5.207   2.050   3.391  0.2185  0.0696 -0.1392
  943MOL0     C24375   5.097   2.122   3.364  1.2200 -0.3416 -0.0183
  943MOL0     C24376   4.975   2.060   3.327  1.2978 -0.6407 -0.2234
  943MOL0     C24377   4.857   2.138   3.305 -0.4319  0.3608 -1.3382
  943MOL0     C24378   4.863   2.274   3.332 -0.5396 -0.2135  0.1872
  943MOL0     O24379   4.764   2.363   3.309 -0.8361  0.4450 -0.1591
  943MOL0     C24380   4.631   2.312   3.293  0.4189 -0.2515 -0.8012
  943MOL0     C24381   4.527   2.428   3.282 -0.0179 -0.0107  1.3114
  943MOL0     C24382   4.389   2.373   3.301 -0.4859 -0.3942 -0.2943
  943MOL0     C24383   4.288   2.497   3.279 -0.4112  0.8164 -0.1318
  943MOL0     C24384   4.150   2.443   3.259 -0.5998  0.3485  0.1564
  943MOL0     C24385   4.047   2.555   3.249 -0.0348 -0.8755  0.2368
  943MOL0     C24386   4.021   2.645   3.368 -0.7317  0.6006  0.2727
  943MOL0     C24387   3.971   2.568   3.484 -0.1214  0.0377  0.3241
  943MOL0    Cl24388   3.801   2.505   3.464  0.5716 -0.4571 -0.1426
  943MOL0     C24389   4.981   2.335   3.375 -0.6414  0.3127  1.0087
  943MOL0     C24390   5.098   2.261   3.384 -0.4452  0.5796 -0.2673
  943MOL0     O24391   5.257   2.038   3.171  0.0023  0.3329 -0.1946
  943MOL0     C24392   5.500   1.904   3.230 -1.2391 -0.3913  0.1776
  943MOL0     C24393   5.622   1.846   3.271  0.6645 -0.1119  1.2100
  943MOL0     N24394   6.431   1.683   3.484 -0.5667  0.5327 -0.3323
  943MOL0     N24395   6.555   1.685   3.437 -0.5102 -0.3729  1.0177
  943MOL0     C24396   7.657   1.329   3.650  0.2241  0.1277 -0.0452
  943MOL0     C24397   7.768   1.290   3.729  0.3131  0.2374  0.5750
  943MOL0     C24398   8.103   1.103   3.899  0.7018 -0.3123 -0.6028
  943MOL0     C24399   8.132   1.193   4.005 -1.3192 -0.7021  0.3236
  943MOL0     C24400   8.252   1.196   4.070  0.1593 -0.1284  0.5647
  943MOL0     C24401   8.353   1.108   4.031  0.1976  0.0221  0.1357
  943MOL0     O24402   8.458   1.108   4.115 -0.4009  0.5428 -0.1703
  943MOL0     C24403   8.556   1.009   4.098 -0.0185  0.1862 -0.0142
  943MOL0     C24404   8.653   1.010   4.225 -0.4727 -0.5769 -0.3654
  943MOL0     C24405   8.783   0.927   4.208 -0.5363  0.4029 -0.2615
  943MOL0     C24406   8.848   0.875   4.338 -0.5807  0.1559  0.2762
  943MOL0     C24407   8.968   0.789   4.306  0.8537 -0.6743 -0.3600
  943MOL0     C24408   9.064   0.717   4.283 -0.0471 -1.0985  0.1619
  943MOL0     C24409   8.331   1.023   3.917  0.0038 -0.9716 -0.7829
  943MOL0     C24410   8.206   1.018   3.857  0.2727 -0.6230 -0.9618
  943MOL0     H24411   7.638   1.027   3.895 -0.5687  1.1426  2.1457
  943MOL0     H24412   7.444   1.078   3.761  1.0556 -3.1571  1.2487
  943MOL0     H24413   7.427   1.488   3.543 -2.6576  0.4146  0.2405
  943MOL0     H24414   7.425   1.463   3.723  1.0455  0.8274  0.9050
  943MOL0     H24415   7.195   1.453   3.719 -3.4030 -1.8085 -1.3653
  943MOL0     H24416   7.217   1.305   3.641 -1.1296  0.0206  2.1618
  943MOL0     H24417   7.234   1.447   3.423  1.0247 -3.2786  1.5885
  943MOL0     H24418   7.181   1.589   3.521  0.3036  0.1364  1.6701
  943MOL0     H24419   7.017   1.332   3.506 -0.5796  0.6612  1.8471
  943MOL0     H24420   6.983   1.473   3.589  2.6178 -0.6012  1.4897
  943MOL0     H24421   7.027   1.468   3.281 -0.5159 -1.1791 -0.1486
  943MOL0     H24422   6.953   1.598   3.369 -2.2090 -0.0028  0.8434
  943MOL0     H24423   6.767   1.424   3.448  2.7471  2.2269  2.2333
  943MOL0     H24424   6.864   1.312   3.350  0.2364 -0.1780  1.1003
  943MOL0     H24425   6.837   1.463   3.154  0.0353 -0.1491  0.0303
  943MOL0     H24426   6.682   1.384   3.210  1.0717 -0.7737 -0.8544
  943MOL0     H24427   6.657   1.631   3.146 -0.8630 -0.4265 -0.1690
  943MOL0     H24428   6.760   1.672   3.287 -0.2502  0.6218  0.6696
  943MOL0     H24429   6.422   1.464   3.234  1.7612  0.1655  0.1853
  943MOL0     H24430   6.202   1.528   3.537  2.0520  0.1849  0.4733
  943MOL0     H24431   6.173   1.469   3.377 -0.8613 -0.6647  1.6088
  943MOL0     H24432   6.128   1.730   3.322 -0.7431  3.2218  1.1000
  943MOL0     H24433   6.140   1.752   3.495 -0.6801  2.0282 -1.2600
  943MOL0     H24434   5.951   1.560   3.358  0.5110 -0.1023  0.9745
  943MOL0     H24435   5.948   1.608   3.527  3.5098 -1.1276  0.1108
  943MOL0     H24436   5.893   1.779   3.282  0.3151 -2.5382 -0.0181
  943MOL0     H24437   5.940   1.850   3.429  1.8843 -1.1189 -0.0220
  943MOL0     H24438   5.574   1.831   3.615 -1.0687 -2.6171  0.3944
  943MOL0     H24439   5.356   1.920   3.534 -1.6676 -0.0401 -1.8136
  943MOL0     H24440   4.973   1.951   3.333 -5.3389 -0.8699  1.8993
  943MOL0     H24441   4.779   2.075   3.264 -0.3472  1.1182 -2.7286
  943MOL0     H24442   4.609   2.248   3.380 -0.8153  1.3564  0.1292
  943MOL0     H24443   4.630   2.251   3.202  1.3255 -0.3228 -0.7738
  943MOL0     H24444   4.529   2.480   3.185 -0.2106  2.0179  2.3383
  943MOL0     H24445   4.550   2.501   3.360 -0.0558  1.9803 -0.4443
  943MOL0     H24446   4.388   2.324   3.400 -0.8815  0.5316  0.1725
  943MOL0     H24447   4.370   2.288   3.235 -1.8547  0.4002 -0.9825
  943MOL0     H24448   4.294   2.566   3.364  0.2939  1.4803 -0.7005
  943MOL0     H24449   4.319   2.552   3.189 -2.1950 -0.2235 -1.4429
  943MOL0     H24450   4.123   2.370   3.337 -0.9576 -0.4303 -0.6755
  943MOL0     H24451   4.144   2.388   3.165  0.6844 -0.3154  0.4341
  943MOL0     H24452   3.951   2.524   3.207 -0.1768  1.6467 -1.5430
  943MOL0     H24453   4.092   2.629   3.181  0.8568 -0.0303  1.6959
  943MOL0     H24454   4.118   2.694   3.382 -1.3676  2.4872 -1.4275
  943MOL0     H24455   3.951   2.724   3.341 -3.2054 -0.8933  1.8881
  943MOL0     H24456   3.969   2.630   3.574  1.7263 -0.3309  0.6488
  943MOL0     H24457   4.033   2.482   3.509 -0.1198  0.0942  0.5182
  943MOL0     H24458   4.991   2.442   3.389  1.3758  0.2157  0.5909
  943MOL0     H24459   5.192   2.290   3.430 -0.0210 -0.7426 -0.2704
  943MOL0     H24460   5.486   1.937   3.127  1.4626  1.9623  0.4395
  943MOL0     H24461   5.688   1.810   3.193 -0.2389 -0.6573  0.6946
  943MOL0     H24462   7.657   1.411   3.580  2.0590  0.2108 -0.0012
  943MOL0     H24463   7.866   1.328   3.702 -0.1590  2.8591  2.2387
  943MOL0     H24464   8.056   1.260   4.044 -3.5434 -1.1057 -2.9089
  943MOL0     H24465   8.256   1.272   4.147 -1.5008  1.2194 -0.6021
  943MOL0     H24466   8.610   1.032   4.006  2.1489 -3.6056  0.1128
  943MOL0     H24467   8.504   0.913   4.092 -1.2698  0.7163  1.6680
  943MOL0     H24468   8.682   1.112   4.254  2.2580 -1.4396  0.2888
  943MOL0     H24469   8.593   0.969   4.306  1.7961 -3.2484  0.1162
  943MOL0     H24470   8.864   0.979   4.157  0.3090 -1.5828 -1.0359
  943MOL0     H24471   8.754   0.845   4.140 -1.8770 -0.1363  0.9022
  943MOL0     H24472   8.882   0.969   4.383 -2.1842  1.0154 -0.2172
  943MOL0     H24473   8.774   0.831   4.405 -0.8774  0.2300  0.0039
  943MOL0     H24474   9.152   0.663   4.253  0.7277 -0.0398  0.4728
  943MOL0     H24475   8.413   0.961   3.885  0.2640 -1.9763  1.6292
  943MOL0     H24476   8.193   0.936   3.786 -2.1355 -0.4603 -0.7911
  944MOL0     O24477   5.885   3.008   7.811 -0.1549  0.1838 -0.1741
  944MOL0     C24478   5.964   3.038   7.906  0.0589 -0.0776 -0.4700
  944MOL0     O24479   5.935   3.119   8.015  0.8237  0.1653 -0.0136
  944MOL0     C24480   5.801   3.153   8.040  0.7824 -0.7806  1.3646
  944MOL0     C24481   5.754   3.289   8.042 -0.0583  0.0447 -0.0608
  944MOL0     C24482   5.618   3.327   8.072 -0.1009  0.2068  0.2912
  944MOL0     C24483   5.514   3.230   8.086 -0.1354 -0.4705 -0.7832
  944MOL0     O24484   5.377   3.251   8.110  0.7236  0.4826 -0.2983
  944MOL0     C24485   5.339   3.388   8.157 -0.1152  0.3957 -0.1254
  944MOL0     C24486   5.209   3.376   8.234  0.0088  0.9699 -0.5375
  944MOL0     C24487   5.081   3.364   8.149  0.5321 -0.1533 -0.4867
  944MOL0     C24488   4.965   3.378   8.250  0.1793 -0.7829 -0.8631
  944MOL0     C24489   4.834   3.393   8.175 -0.3611  0.4403 -0.5671
  944MOL0     C24490   4.718   3.452   8.262 -0.5175 -0.4281 -0.5909
  944MOL0     C24491   4.591   3.468   8.187 -0.0401  0.3725 -0.4974
  944MOL0     C24492   4.552   3.327   8.153  0.2353 -1.1287  0.5092
  944MOL0     N24493   4.426   3.330   8.079 -0.2407 -0.0716 -0.0616
  944MOL0     C24494   4.422   3.389   7.954  0.1662  0.6332  0.1547
  944MOL0     C24495   4.308   3.338   7.905 -0.0365  0.8696  1.2335
  944MOL0     C24496   4.252   3.372   7.772 -0.0598 -0.4461 -0.4745
  944MOL0     C24497   4.114   3.441   7.800  0.8028 -0.3517  0.0200
  944MOL0     C24498   4.041   3.478   7.669  0.0094  0.6844 -0.1923
  944MOL0     C24499   3.893   3.502   7.671  0.0686 -0.4007 -1.0255
  944MOL0     O24500   3.835   3.515   7.541  0.6927 -0.2750  0.4165
  944MOL0     C24501   3.701   3.544   7.530 -0.4590 -0.1086  0.0648
  944MOL0     C24502   3.617   3.559   7.640 -0.1699  0.5592 -0.6741
  944MOL0     C24503   3.477   3.564   7.626  0.6142 -0.4391  0.3077
  944MOL0     C24504   3.418   3.582   7.503 -0.1593 -0.2999 -0.6839
  944MOL0     C24505   3.268   3.609   7.494  0.4921 -0.1782  0.7785
  944MOL0     O24506   3.201   3.675   7.588 -0.6704 -0.5739 -0.0510
  944MOL0     C24507   3.071   3.700   7.567 -0.0623 -1.5337  0.0211
  944MOL0     C24508   3.031   3.793   7.467 -0.3119  0.0652 -0.2719
  944MOL0     C24509   2.899   3.813   7.445  0.4479  1.6896  0.7951
  944MOL0     C24510   2.796   3.737   7.518  0.1520 -0.0983  0.2476
  944MOL0     O24511   2.662   3.754   7.484  0.2140  0.2717 -0.2829
  944MOL0     C24512   2.562   3.698   7.568 -0.0748 -0.1323 -0.7920
  944MOL0     C24513   2.432   3.738   7.524  0.0572 -0.5407  0.4696
  944MOL0     C24514   2.327   3.634   7.544  0.0885  0.2277 -0.1073
  944MOL0     C24515   2.185   3.681   7.508  1.2061  1.2077  0.4267
  944MOL0     C24516   2.092   3.557   7.490 -0.5790  0.0323 -0.1231
  944MOL0     C24517   1.947   3.603   7.462 -0.3602 -0.3723  0.3188
  944MOL0     C24518   1.871   3.469   7.457 -1.0035 -0.0722 -0.0208
  944MOL0     C24519   1.723   3.503   7.420  0.0458 -0.8684 -0.1941
  944MOL0    Cl24520   1.620   3.369   7.446 -0.0813 -0.2683 -0.1381
  944MOL0     C24521   2.840   3.644   7.614  0.3085 -0.5921 -0.1772
  944MOL0     C24522   2.973   3.638   7.640  0.4742  0.0189  0.3594
  944MOL0     O24523   3.215   3.568   7.388 -0.4320  0.5953  0.1276
  944MOL0     C24524   3.508   3.587   7.397  0.6548  0.4636  0.0048
  944MOL0     C24525   3.647   3.574   7.411 -0.3579  0.1964  0.5607
  944MOL0     N24526   4.244   3.253   8.000 -0.1452  0.2459  0.1239
  944MOL0     N24527   4.321   3.248   8.099  0.8457 -0.5257 -0.2307
  944MOL0     C24528   5.555   3.095   8.060  0.7026  0.7322 -0.3086
  944MOL0     C24529   5.690   3.058   8.041 -0.9988  0.4942 -0.2141
  944MOL0     C24530   6.102   3.009   7.879 -1.0834  0.1615  0.6619
  944MOL0     C24531   6.201   3.045   7.973  0.2624 -0.1134 -0.9198
  944MOL0     C24532   6.335   3.017   7.952 -0.0270 -0.2862 -0.4212
  944MOL0     C24533   6.375   2.941   7.846 -0.3192  1.0170  0.5951
  944MOL0     O24534   6.503   2.895   7.817 -0.2596  0.0918  0.0663
  944MOL0     C24535   6.607   2.953   7.881 -0.4808 -0.6501  0.4624
  944MOL0     C24536   6.731   2.877   7.833  0.3177 -0.3778  0.3232
  944MOL0     C24537   6.859   2.918   7.891 -1.0870 -0.8546 -0.1788
  944MOL0     C24538   6.965   2.797   7.881  0.4326  0.3840 -0.5548
  944MOL0     C24539   7.067   2.813   7.989 -0.6204 -0.0828 -0.2461
  944MOL0     C24540   7.143   2.819   8.083 -0.2262 -0.4946  0.6227
  944MOL0     C24541   6.272   2.893   7.760 -0.2277  0.0384 -0.6328
  944MOL0     C24542   6.146   2.934   7.770 -0.1064  0.2448 -0.3471
  944MOL0     H24543   5.830   3.365   8.028 -0.9207  0.5539 -2.4799
  944MOL0     H24544   5.602   3.434   8.074 -0.0019  0.2378 -0.2629
  944MOL0     H24545   5.306   3.447   8.071  0.2272  0.0613 -0.4900
  944MOL0     H24546   5.419   3.426   8.221 -0.1672 -1.0293  0.8296
  944MOL0     H24547   5.187   3.464   8.296 -3.9903  0.8159 -1.4547
  944MOL0     H24548   5.192   3.292   8.302  0.4784  1.5210  0.2843
  944MOL0     H24549   5.075   3.270   8.093  0.8412 -0.0276 -0.7368
  944MOL0     H24550   5.067   3.455   8.090 -2.3097  0.2927  0.7364
  944MOL0     H24551   4.970   3.291   8.316  3.4890 -1.0133 -1.2462
  944MOL0     H24552   4.975   3.469   8.309  0.0757 -0.3455 -1.5057
  944MOL0     H24553   4.817   3.289   8.144  1.4880 -1.2596  3.3468
  944MOL0     H24554   4.850   3.459   8.090  0.9667 -0.7369 -1.2619
  944MOL0     H24555   4.759   3.548   8.294 -0.6748  0.1350 -2.0302
  944MOL0     H24556   4.703   3.392   8.353 -1.1188  0.9562  0.2478
  944MOL0     H24557   4.516   3.514   8.252 -0.6082 -1.4556  0.2271
  944MOL0     H24558   4.602   3.531   8.099  1.9941 -1.1342 -1.4247
  944MOL0     H24559   4.547   3.258   8.237 -1.2583  0.4568  1.8094
  944MOL0     H24560   4.624   3.284   8.083  1.3114  1.0960  0.1460
  944MOL0     H24561   4.491   3.464   7.916  0.7072 -0.3376 -0.8590
  944MOL0     H24562   4.246   3.283   7.709 -0.0416 -1.4141  0.8401
  944MOL0     H24563   4.307   3.458   7.734 -2.8944  1.9101  0.3565
  944MOL0     H24564   4.131   3.529   7.862  0.7939  0.5175 -1.1767
  944MOL0     H24565   4.050   3.371   7.855  0.5337 -0.8033 -0.8579
  944MOL0     H24566   4.092   3.562   7.623  0.8550  2.9542  4.3762
  944MOL0     H24567   4.055   3.391   7.603  1.1178 -1.2988  2.4626
  944MOL0     H24568   3.875   3.594   7.727  0.1162 -0.9701 -0.0558
  944MOL0     H24569   3.855   3.415   7.726  0.0750 -0.4049 -1.0282
  944MOL0     H24570   3.652   3.547   7.742 -0.3955 -2.8155 -0.8989
  944MOL0     H24571   3.412   3.543   7.710 -0.5271 -4.1765 -1.3127
  944MOL0     H24572   3.100   3.858   7.413 -0.1013 -0.1341 -0.2468
  944MOL0     H24573   2.866   3.879   7.364 -0.4704  0.7091  0.3415
  944MOL0     H24574   2.571   3.741   7.668  0.9830  0.4436 -1.1108
  944MOL0     H24575   2.569   3.589   7.579  5.1183  0.1475  2.4068
  944MOL0     H24576   2.430   3.768   7.419  1.9757 -0.2231  0.4890
  944MOL0     H24577   2.402   3.830   7.576 -0.9415 -0.6265  0.0650
  944MOL0     H24578   2.325   3.594   7.647 -0.2336 -1.1289 -0.6128
  944MOL0     H24579   2.352   3.556   7.471  2.5949  0.8904 -0.0302
  944MOL0     H24580   2.138   3.728   7.595 -1.7557 -0.8190  0.0706
  944MOL0     H24581   2.169   3.747   7.422 -3.1526 -3.1506 -2.6238
  944MOL0     H24582   2.082   3.510   7.588 -0.6358  0.9543  0.3200
  944MOL0     H24583   2.139   3.493   7.415  1.6645  0.4481  0.8780
  944MOL0     H24584   1.942   3.638   7.358 -0.9434 -3.6524 -0.8926
  944MOL0     H24585   1.910   3.672   7.538  0.8065 -2.2321  2.6943
  944MOL0     H24586   1.923   3.399   7.391  3.9851  1.2812  2.0266
  944MOL0     H24587   1.865   3.427   7.558 -1.9690 -2.2589 -0.9148
  944MOL0     H24588   1.719   3.536   7.316 -1.3202 -0.7431 -0.1154
  944MOL0     H24589   1.680   3.581   7.483  0.0513 -0.1775 -1.0252
  944MOL0     H24590   2.756   3.593   7.661 -0.1560 -0.2356 -0.6120
  944MOL0     H24591   3.012   3.564   7.709  0.1054  0.4413  1.0266
  944MOL0     H24592   3.479   3.622   7.298  0.6402  1.0379  0.2118
  944MOL0     H24593   3.712   3.563   7.325 -4.9100 -1.2137 -3.1227
  944MOL0     H24594   5.474   3.024   8.071  1.1879  0.2291  0.0702
  944MOL0     H24595   5.716   2.953   8.049  2.9683  1.3819  0.2146
  944MOL0     H24596   6.182   3.092   8.069  1.3399 -1.5102  0.0220
  944MOL0     H24597   6.403   3.063   8.023 -0.2529  1.9986 -1.5808
  944MOL0     H24598   6.596   2.932   7.988 -0.2139 -3.8035 -0.0321
  944MOL0     H24599   6.612   3.059   7.854  0.5523 -0.9017 -0.3679
  944MOL0     H24600   6.715   2.770   7.850 -2.6592  0.3439  2.8694
  944MOL0     H24601   6.735   2.899   7.726 -2.8883  1.2834  0.4355
  944MOL0     H24602   6.831   2.936   7.995 -3.9077 -1.8970 -0.6760
  944MOL0     H24603   6.893   3.013   7.848 -3.5019 -0.1631 -0.7045
  944MOL0     H24604   6.909   2.705   7.903 -0.9954  1.5477  0.8816
  944MOL0     H24605   7.010   2.788   7.782 -0.0172  0.5034 -0.7683
  944MOL0     H24606   7.216   2.836   8.159 -0.9841  0.3184  1.1903
  944MOL0     H24607   6.295   2.817   7.686 -0.4261 -0.7933  0.1440
  944MOL0     H24608   6.074   2.887   7.705 -0.6504 -2.4309  1.9980
  945MOL0     O24609   4.039   8.873   3.480  0.2144  0.6914  0.0334
  945MOL0     C24610   4.084   8.990   3.472  0.3201  0.1796  0.2775
  945MOL0     O24611   4.018   9.101   3.427 -0.0892  0.0435  0.2395
  945MOL0     C24612   3.906   9.077   3.357 -0.4501  0.2549 -0.6414
  945MOL0     C24613   3.905   8.979   3.247  0.0865 -0.8553  0.1993
  945MOL0     C24614   3.786   8.951   3.180  0.3972  0.2079  0.5812
  945MOL0     C24615   3.671   9.029   3.209 -0.1847  0.7480 -0.1071
  945MOL0     O24616   3.555   9.016   3.142  0.3621 -0.4403 -0.0895
  945MOL0     C24617   3.557   9.075   3.012  0.1503 -0.6931 -0.5306
  945MOL0     C24618   3.497   9.222   3.009  0.7081  0.0024  0.0805
  945MOL0     C24619   3.357   9.230   3.070 -1.0192  0.1046 -0.0168
  945MOL0     C24620   3.261   9.286   2.960  0.6788 -0.0385  0.0815
  945MOL0     C24621   3.127   9.297   3.031  0.4195  0.6263 -0.0194
  945MOL0     C24622   3.024   9.349   2.934 -0.1791  0.1124 -0.5721
  945MOL0     C24623   3.035   9.497   2.901 -0.2709 -0.3996  0.6150
  945MOL0     C24624   3.014   9.600   3.011 -0.3510  0.1709 -0.2671
  945MOL0     N24625   2.864   9.624   3.033 -0.2340  0.2233  1.0825
  945MOL0     C24626   2.784   9.725   2.987  0.6087 -0.7681  0.7481
  945MOL0     C24627   2.668   9.700   3.039  0.2560 -0.1199 -0.3799
  945MOL0     C24628   2.555   9.796   3.019 -0.7927  0.0358 -0.8226
  945MOL0     C24629   2.456   9.788   3.130  0.1101 -0.1972  0.0771
  945MOL0     C24630   2.333   9.881   3.103 -0.0421  1.0179 -0.9134
  945MOL0     C24631   2.199   9.866   3.192 -0.3377  0.9476  0.5468
  945MOL0     O24632   2.152   9.738   3.160  0.3877 -0.2887  0.0869
  945MOL0     C24633   2.018   9.737   3.111 -0.2657  0.3052 -0.8572
  945MOL0     C24634   1.949   9.630   3.162 -0.2485  0.1184  0.0602
  945MOL0     C24635   1.814   9.600   3.128 -0.1561 -0.5402  0.1765
  945MOL0     C24636   1.746   9.683   3.033  0.2233 -1.0992  0.5021
  945MOL0     C24637   1.607   9.652   2.983  0.8272 -1.3337 -0.5641
  945MOL0     O24638   1.534   9.758   2.937 -0.2852 -0.1089 -0.3016
  945MOL0     C24639   1.397   9.730   2.930  0.6461 -0.3295 -0.2051
  945MOL0     C24640   1.309   9.804   3.007 -0.0694  0.1851 -0.4915
  945MOL0     C24641   1.177   9.781   2.991 -0.1425 -0.5255  1.2822
  945MOL0     C24642   1.118   9.687   2.907 -0.5250  0.2823  1.0889
  945MOL0     O24643   0.983   9.658   2.895 -0.0381 -0.2084 -0.2150
  945MOL0     C24644   0.887   9.740   2.965  0.5739 -0.0169 -0.3310
  945MOL0     C24645   0.735   9.697   2.927 -0.6772  0.2470 -0.3894
  945MOL0     C24646   0.631   9.796   2.977  0.1975 -0.8779 -0.4911
  945MOL0     C24647   0.582   9.765   3.121 -0.2162  0.4858 -0.0366
  945MOL0     C24648   0.472   9.858   3.179  0.0629 -0.3238 -0.1823
  945MOL0     C24649   0.338   9.869   3.101 -0.0777 -0.1280  0.5071
  945MOL0     C24650   0.248   9.979   3.166  1.0097 -0.1383  0.0902
  945MOL0     C24651   0.096   9.972   3.121  0.7567  0.3327  0.5551
  945MOL0    Cl24652   0.013   9.813   3.174  0.1624  0.2674 -0.1736
  945MOL0     C24653   1.209   9.606   2.834 -0.7791 -1.2600  0.0971
  945MOL0     C24654   1.347   9.623   2.858  0.8628  0.1808  0.2039
  945MOL0     O24655   1.569   9.537   3.002  0.1145  0.0296 -0.1824
  945MOL0     C24656   1.820   9.798   2.986 -0.1970  0.3966 -0.6505
  945MOL0     C24657   1.948   9.822   3.028 -0.4195 -0.5876  0.5403
  945MOL0     N24658   2.669   9.599   3.127  0.2280  0.5232  0.3320
  945MOL0     N24659   2.794   9.554   3.127 -0.9566 -0.0093 -0.0215
  945MOL0     C24660   3.676   9.124   3.308  1.1988 -0.4900  0.1269
  945MOL0     C24661   3.793   9.149   3.386  0.0105 -0.0804  0.1962
  945MOL0     C24662   4.212   9.029   3.534  0.7064 -0.7934 -0.8592
  945MOL0     C24663   4.280   9.152   3.521  0.3160  0.0292  0.3012
  945MOL0     C24664   4.400   9.180   3.587  0.8832 -0.3114  0.3170
  945MOL0     C24665   4.457   9.088   3.671 -0.3672 -0.0057  0.3575
  945MOL0     O24666   4.582   9.132   3.716 -0.2659 -0.2421  1.3062
  945MOL0     C24667   4.673   9.037   3.769  0.4568 -0.9321  0.7758
  945MOL0     C24668   4.803   9.116   3.781  0.0386  0.1974 -0.6285
  945MOL0     C24669   4.916   9.020   3.821 -1.0160  0.1229 -0.2880
  945MOL0     C24670   5.037   9.113   3.830  0.3300 -1.4083  0.2026
  945MOL0     C24671   5.159   9.045   3.860  0.5387 -0.3056 -0.0429
  945MOL0     C24672   5.268   9.002   3.886 -0.1948  0.4489  0.1046
  945MOL0     C24673   4.392   8.968   3.695 -0.8609  0.6145  0.6149
  945MOL0     C24674   4.271   8.940   3.627 -0.0655 -1.4431  0.1897
  945MOL0     H24675   3.997   8.932   3.215  1.0990  1.1190  0.0397
  945MOL0     H24676   3.775   8.880   3.099  1.3715 -0.2223  0.8123
  945MOL0     H24677   3.494   9.015   2.946 -1.4058  1.5963 -1.2462
  945MOL0     H24678   3.657   9.077   2.967  0.4440  1.6840  0.0815
  945MOL0     H24679   3.495   9.250   2.903  3.2431 -2.0516 -0.6152
  945MOL0     H24680   3.566   9.294   3.054  0.1464  0.6560 -0.0956
  945MOL0     H24681   3.370   9.297   3.155  2.1073  1.2042 -1.2306
  945MOL0     H24682   3.320   9.134   3.108  1.1239 -0.8478 -0.2181
  945MOL0     H24683   3.290   9.387   2.930 -0.5362  0.0566 -0.8196
  945MOL0     H24684   3.254   9.230   2.866 -3.8611  1.4637 -0.6865
  945MOL0     H24685   3.131   9.360   3.121  2.9378  2.2706 -1.1517
  945MOL0     H24686   3.103   9.194   3.056  0.4420  1.2287  2.8156
  945MOL0     H24687   2.925   9.336   2.978 -0.6841  1.4402 -1.2542
  945MOL0     H24688   3.021   9.296   2.838 -0.4413  0.8276 -0.9683
  945MOL0     H24689   3.140   9.508   2.872 -0.4746 -1.2124 -0.5142
  945MOL0     H24690   2.974   9.515   2.812  0.0205  1.2250  0.7102
  945MOL0     H24691   3.051   9.699   2.981 -0.5353  0.4177  0.3108
  945MOL0     H24692   3.060   9.576   3.107 -0.7155 -2.7034 -0.7345
  945MOL0     H24693   2.804   9.791   2.903 -0.8569 -0.1057  0.9016
  945MOL0     H24694   2.510   9.767   2.923  2.9290 -2.1875 -2.0860
  945MOL0     H24695   2.596   9.897   3.019 -0.9725  0.1182  0.3961
  945MOL0     H24696   2.511   9.803   3.223  2.2631 -1.2178 -0.9611
  945MOL0     H24697   2.418   9.687   3.146  1.2156 -0.3900  1.6812
  945MOL0     H24698   2.363   9.985   3.118  1.7087  0.2403  1.7255
  945MOL0     H24699   2.288   9.858   3.006 -1.5427  0.2795 -0.0808
  945MOL0     H24700   2.124   9.944   3.173 -1.5987 -0.0959  1.0954
  945MOL0     H24701   2.223   9.875   3.299  0.6251 -0.4084  0.4585
  945MOL0     H24702   2.003   9.559   3.224 -0.2280 -1.4767 -1.6934
  945MOL0     H24703   1.769   9.511   3.172  0.7714 -1.1127  0.0001
  945MOL0     H24704   1.356   9.875   3.074  0.1199 -0.9372  0.5812
  945MOL0     H24705   1.122   9.850   3.054 -0.2345 -0.4446  1.1156
  945MOL0     H24706   0.902   9.844   2.938 -0.7510  0.3923  0.3899
  945MOL0     H24707   0.904   9.720   3.072 -0.1907  0.7926 -0.0436
  945MOL0     H24708   0.709   9.592   2.945  0.9497  0.2080  2.2654
  945MOL0     H24709   0.734   9.702   2.818  0.7526 -0.7060 -0.4828
  945MOL0     H24710   0.554   9.790   2.900  0.3270 -2.4326 -0.5205
  945MOL0     H24711   0.664   9.900   2.963 -0.0838 -1.0010 -2.3801
  945MOL0     H24712   0.550   9.661   3.114 -1.7103  0.9194 -0.0379
  945MOL0     H24713   0.666   9.776   3.189 -0.8345 -2.2316  1.2800
  945MOL0     H24714   0.526   9.953   3.186 -1.2726  0.3279  2.9123
  945MOL0     H24715   0.439   9.824   3.278 -0.3783 -3.1753 -1.2180
  945MOL0     H24716   0.278   9.778   3.098 -0.7796  0.3275  0.4541
  945MOL0     H24717   0.366   9.888   2.997 -2.4976  0.0647 -0.1713
  945MOL0     H24718   0.249   9.971   3.275 -0.7172  2.7188  0.3952
  945MOL0     H24719   0.292  10.075   3.139  0.8639  1.0362  3.5648
  945MOL0     H24720   0.079   9.988   3.014  0.0863  1.0172  0.7548
  945MOL0     H24721   0.040  10.050   3.173  0.0923 -0.1970  0.6472
  945MOL0     H24722   1.188   9.542   2.748  1.2296 -0.2388 -1.2404
  945MOL0     H24723   1.416   9.551   2.814 -0.2853 -0.7302 -0.1646
  945MOL0     H24724   1.774   9.865   2.914 -2.5816  1.0833  1.3596
  945MOL0     H24725   1.990   9.911   2.983 -1.3265 -0.7157 -0.6085
  945MOL0     H24726   3.592   9.187   3.336  2.2850  0.6984  0.8556
  945MOL0     H24727   3.789   9.231   3.456  1.7354  1.8400 -1.8014
  945MOL0     H24728   4.241   9.225   3.450 -2.2632 -1.6121 -0.0904
  945MOL0     H24729   4.453   9.273   3.574 -0.6002  0.3357 -1.5516
  945MOL0     H24730   4.694   8.951   3.704  0.4705 -0.1544 -0.2828
  945MOL0     H24731   4.628   9.003   3.862 -2.4156  0.9683  0.2261
  945MOL0     H24732   4.816   9.168   3.685 -1.4692  0.3507 -0.7728
  945MOL0     H24733   4.780   9.194   3.854 -1.1424  0.2960 -1.0844
  945MOL0     H24734   4.933   8.943   3.745  0.2081  1.3719 -1.3450
  945MOL0     H24735   4.903   8.984   3.924  1.0633  0.4025  0.1179
  945MOL0     H24736   5.045   9.158   3.730 -0.8659  1.5406  1.3196
  945MOL0     H24737   5.016   9.193   3.901 -0.8418 -1.9589  0.5020
  945MOL0     H24738   5.357   8.948   3.910 -0.8471 -1.8316 -2.1619
  945MOL0     H24739   4.437   8.895   3.762  0.7010  0.8360 -0.1282
  945MOL0     H24740   4.208   8.854   3.646  0.9002 -3.1960 -3.5720
  946MOL0     O24741   9.400   4.939   9.987 -0.1009  0.1461 -0.0967
  946MOL0     C24742   9.367   4.827  10.026  0.4089 -0.0224 -0.5398
  946MOL0     O24743   9.451   4.728  10.053  0.0476  0.1621 -0.5000
  946MOL0     C24744   9.589   4.749  10.047 -0.7619  0.3274  0.2099
  946MOL0     C24745   9.645   4.727   9.918  0.2138 -0.4693 -0.0798
  946MOL0     C24746   9.786   4.729   9.910  0.9393  0.1907 -0.4186
  946MOL0     C24747   9.867   4.756  10.016 -0.4603 -0.1286 -0.3051
  946MOL0     O24748   9.999   4.754   9.995  0.7287 -0.1415 -0.8919
  946MOL0     C24749  10.091   4.748  10.104  1.2231  0.3800  0.3163
  946MOL0     C24750  10.228   4.743  10.043 -0.0009 -0.9645 -0.4266
  946MOL0     C24751  10.347   4.768  10.140 -0.3398  0.0574  0.5912
  946MOL0     C24752  10.483   4.781  10.066 -0.2757  1.5145  0.2292
  946MOL0     C24753  10.600   4.762  10.158  0.4524  1.2993 -0.0927
  946MOL0     C24754  10.730   4.756  10.078 -0.0514  0.1647  0.7963
  946MOL0     C24755  10.853   4.784  10.169  0.2504 -1.3908  0.3958
  946MOL0     C24756  10.974   4.793  10.077  0.4356  0.4581  0.0208
  946MOL0     N24757  11.093   4.802  10.170  0.2441 -0.2563  0.3930
  946MOL0     C24758  11.191   4.886  10.141 -0.7853 -0.7884  0.4713
  946MOL0     C24759  11.288   4.854  10.229 -1.0570 -0.4851 -0.0680
  946MOL0     C24760  11.429   4.911  10.214 -0.0726  0.0201 -0.3827
  946MOL0     C24761  11.488   4.886  10.072  0.4448 -0.0656  0.6308
  946MOL0     C24762  11.500   4.730  10.032  0.6910 -0.6293  1.0513
  946MOL0     C24763  11.562   4.722   9.886 -0.1218  0.1439  0.0110
  946MOL0     O24764  11.490   4.803   9.786 -0.1797 -0.0817  0.3790
  946MOL0     C24765  11.374   4.747   9.742 -0.2264  0.5317  0.2521
  946MOL0     C24766  11.334   4.611   9.749 -0.5787 -0.5637  0.9601
  946MOL0     C24767  11.206   4.560   9.734 -0.1659  0.5262  0.6601
  946MOL0     C24768  11.102   4.641   9.699 -0.1015 -0.1870  0.2728
  946MOL0     C24769  10.963   4.599   9.690  0.3733 -0.2116  0.6954
  946MOL0     O24770  10.874   4.699   9.658  0.2105 -0.3705 -0.2959
  946MOL0     C24771  10.738   4.680   9.655 -0.0466 -0.9532  0.7335
  946MOL0     C24772  10.671   4.566   9.602  0.6487 -0.3001 -0.2557
  946MOL0     C24773  10.526   4.552   9.619  0.1691  0.4001  0.3132
  946MOL0     C24774  10.448   4.651   9.685 -1.1345 -0.8403 -0.2784
  946MOL0     O24775  10.317   4.651   9.714  0.0198 -0.6227  0.3081
  946MOL0     C24776  10.239   4.582   9.617 -0.2132 -0.0707  0.5879
  946MOL0     C24777  10.089   4.590   9.657 -0.0183 -0.0736 -0.7437
  946MOL0     C24778  10.002   4.506   9.570  0.2391  0.5995  0.2623
  946MOL0     C24779   9.851   4.510   9.620  0.5910  0.4646 -0.4698
  946MOL0     C24780   9.761   4.397   9.549  0.4405 -0.2634 -0.6084
  946MOL0     C24781   9.607   4.425   9.573 -0.8087 -0.1163 -0.3398
  946MOL0     C24782   9.562   4.400   9.721  0.4674  0.4830  0.2867
  946MOL0     C24783   9.549   4.253   9.756 -0.2760  0.6634  0.1733
  946MOL0    Cl24784   9.377   4.211   9.716  0.1628 -0.2219  0.3644
  946MOL0     C24785  10.519   4.766   9.729 -0.1964  0.1366 -0.5510
  946MOL0     C24786  10.660   4.774   9.722 -0.0312 -0.2859 -0.2316
  946MOL0     O24787  10.930   4.479   9.710  0.4284 -0.9157 -0.0074
  946MOL0     C24788  11.139   4.776   9.665 -0.0772  0.2718  0.1508
  946MOL0     C24789  11.273   4.827   9.690 -0.8235  0.1415 -0.8222
  946MOL0     N24790  11.236   4.768  10.317 -0.0498  0.4848 -0.4606
  946MOL0     N24791  11.116   4.732  10.280 -0.0767  0.1286 -0.5918
  946MOL0     C24792   9.807   4.775  10.142  0.4202  0.1787 -0.0459
  946MOL0     C24793   9.668   4.766  10.157  0.1984  0.2105 -0.4547
  946MOL0     C24794   9.223   4.791  10.023 -0.3662 -0.6872  0.2609
  946MOL0     C24795   9.130   4.899  10.007 -1.3365  0.0750 -0.3339
  946MOL0     C24796   8.996   4.871  10.003  0.1249 -0.2054 -0.8864
  946MOL0     C24797   8.948   4.739  10.016 -0.2040 -0.9329  0.2858
  946MOL0     O24798   8.813   4.708  10.025  0.5649 -0.1623  0.5734
  946MOL0     C24799   8.713   4.807   9.988  0.2745  0.3268  0.2357
  946MOL0     C24800   8.669   4.886  10.112 -0.6449 -0.8131 -0.0799
  946MOL0     C24801   8.569   5.003  10.078  0.1001 -0.7078 -0.1925
  946MOL0     C24802   8.536   5.083  10.195  0.6379 -0.2687  0.7847
  946MOL0     C24803   8.410   5.154  10.181  0.4089  0.9606 -0.6935
  946MOL0     C24804   8.300   5.206  10.189  0.5743  0.3521 -0.7275
  946MOL0     C24805   9.041   4.637  10.037 -1.5542 -0.2987 -0.3629
  946MOL0     C24806   9.179   4.663  10.043 -0.0543  0.5422  0.3025
  946MOL0     H24807   9.582   4.703   9.833  0.3934  1.8468 -0.9301
  946MOL0     H24808   9.825   4.707   9.811  0.0633 -2.4935 -0.2313
  946MOL0     H24809  10.075   4.660  10.167 -1.4718  0.9842  0.6003
  946MOL0     H24810  10.078   4.835  10.169  0.9755  0.2953  0.3809
  946MOL0     H24811  10.222   4.812   9.958 -1.1328 -1.6689 -0.9490
  946MOL0     H24812  10.247   4.640  10.011  0.0799 -0.4888 -2.0060
  946MOL0     H24813  10.349   4.678  10.201  0.7269 -2.2877 -2.6392
  946MOL0     H24814  10.322   4.858  10.197 -0.4651 -0.2162  0.9683
  946MOL0     H24815  10.491   4.699   9.994  0.7062  0.6185  1.3215
  946MOL0     H24816  10.494   4.878  10.014  0.0136  0.4217 -1.8783
  946MOL0     H24817  10.588   4.667  10.210  2.9301  0.9048 -0.0985
  946MOL0     H24818  10.596   4.844  10.229  2.6023  3.9985 -2.8079
  946MOL0     H24819  10.731   4.834  10.001  2.3298 -0.2911  0.2770
  946MOL0     H24820  10.756   4.657  10.040  0.4369 -0.0009  1.5361
  946MOL0     H24821  10.834   4.876  10.224 -1.5035 -2.6095  1.9836
  946MOL0     H24822  10.868   4.708  10.246  0.2608  0.9749  2.8697
  946MOL0     H24823  10.980   4.884  10.016  3.6176 -1.2433 -2.5187
  946MOL0     H24824  10.978   4.712  10.003  0.5333  0.8571 -0.4162
  946MOL0     H24825  11.198   4.962  10.064 -0.7810 -1.5910 -0.3327
  946MOL0     H24826  11.496   4.869  10.290 -0.5197 -1.9938 -1.0335
  946MOL0     H24827  11.427   5.020  10.222 -0.8419  0.0977 -1.4433
  946MOL0     H24828  11.587   4.932  10.071  0.2876  0.4363  2.9094
  946MOL0     H24829  11.428   4.939   9.998  0.8634 -1.4568 -0.7636
  946MOL0     H24830  11.565   4.667  10.094  2.7158 -0.5948 -0.9079
  946MOL0     H24831  11.399   4.689  10.037 -0.6630  2.1262 -1.1751
  946MOL0     H24832  11.579   4.619   9.855 -0.4689  0.6265 -1.8705
  946MOL0     H24833  11.655   4.778   9.906  0.5912 -1.1887  0.5712
  946MOL0     H24834  11.410   4.541   9.782  0.9916  0.8891  0.6152
  946MOL0     H24835  11.190   4.455   9.757 -0.8551  0.5355  0.2659
  946MOL0     H24836  10.735   4.487   9.565  2.3447  0.7668  0.2797
  946MOL0     H24837  10.476   4.464   9.581  0.5605  0.5950 -0.6895
  946MOL0     H24838  10.265   4.475   9.622 -0.8468 -0.2352  0.4460
  946MOL0     H24839  10.249   4.613   9.512 -1.9892 -0.5252  0.2388
  946MOL0     H24840  10.058   4.695   9.653 -1.4866 -0.2440  2.7349
  946MOL0     H24841  10.064   4.559   9.759 -2.0342  0.9844 -0.8669
  946MOL0     H24842  10.042   4.404   9.565  0.9657  0.9066 -0.2803
  946MOL0     H24843  10.006   4.552   9.471 -1.5823  1.8486  0.7171
  946MOL0     H24844   9.846   4.498   9.728 -2.1496  1.9708 -0.3382
  946MOL0     H24845   9.805   4.607   9.599 -0.5616  1.0666  3.8366
  946MOL0     H24846   9.783   4.296   9.586 -0.9953  0.1203  1.4578
  946MOL0     H24847   9.788   4.396   9.443 -1.6662 -0.4029 -1.1854
  946MOL0     H24848   9.559   4.359   9.499 -0.0214  0.1852 -1.1405
  946MOL0     H24849   9.588   4.527   9.537 -3.2922 -0.5519 -0.4482
  946MOL0     H24850   9.642   4.446   9.780  1.5012 -1.2050  0.2644
  946MOL0     H24851   9.466   4.450   9.740  0.8285  1.0403  0.6928
  946MOL0     H24852   9.580   4.234   9.859  4.6467  0.7087 -1.0709
  946MOL0     H24853   9.618   4.189   9.701  0.0809  1.5897 -0.4909
  946MOL0     H24854  10.473   4.853   9.776 -2.2131 -1.3714  0.4248
  946MOL0     H24855  10.713   4.864   9.752 -1.8994  0.7085  0.2456
  946MOL0     H24856  11.070   4.853   9.632  1.9182  2.8253  1.6237
  946MOL0     H24857  11.307   4.931   9.689  0.6995 -0.2034  2.4690
  946MOL0     H24858   9.874   4.776  10.227  1.0681  0.4649 -0.5459
  946MOL0     H24859   9.614   4.746  10.250  0.4767 -0.1198 -0.3604
  946MOL0     H24860   9.170   5.000   9.998  1.9094 -0.8666  1.7349
  946MOL0     H24861   8.927   4.955   9.998 -1.0239 -1.1443 -1.2536
  946MOL0     H24862   8.631   4.745   9.952 -0.2278  0.9973  0.2124
  946MOL0     H24863   8.744   4.873   9.906  1.6172 -1.4179 -0.7221
  946MOL0     H24864   8.618   4.815  10.178 -0.8676 -2.1843 -1.6660
  946MOL0     H24865   8.753   4.933  10.163 -1.4468 -0.1206  0.6365
  946MOL0     H24866   8.478   4.953  10.042 -1.3740  2.4926 -1.3166
  946MOL0     H24867   8.609   5.062   9.995 -1.5352  1.0248  0.2024
  946MOL0     H24868   8.535   5.014  10.279 -0.3562 -2.4375 -0.9151
  946MOL0     H24869   8.614   5.156  10.218  0.1735  0.9575 -1.2887
  946MOL0     H24870   8.202   5.238  10.216  0.5647 -0.2860  0.0128
  946MOL0     H24871   9.012   4.533  10.046 -0.5068 -0.4582  1.5522
  946MOL0     H24872   9.245   4.578  10.060 -2.5240 -1.7235 -0.7977
  947MOL0     O24873   7.843   2.591  11.185  0.6527 -0.3790 -0.1449
  947MOL0     C24874   7.850   2.478  11.227  0.5522  0.1107  0.1208
  947MOL0     O24875   7.959   2.414  11.263 -0.4124  0.5724  0.5380
  947MOL0     C24876   8.090   2.466  11.230 -0.9026  0.3509 -0.0213
  947MOL0     C24877   8.133   2.459  11.097 -0.3427  0.0835 -0.8731
  947MOL0     C24878   8.262   2.489  11.061 -1.0587  0.2577  0.0468
  947MOL0     C24879   8.358   2.521  11.157 -0.2278 -0.8845 -1.0171
  947MOL0     O24880   8.490   2.552  11.141 -0.1358  0.1652 -0.6001
  947MOL0     C24881   8.545   2.558  11.008  0.7348  0.5835  0.6356
  947MOL0     C24882   8.684   2.618  11.005  0.5745  0.0693 -0.0629
  947MOL0     C24883   8.743   2.591  10.868  0.1473  0.0203 -0.5851
  947MOL0     C24884   8.877   2.654  10.859  0.8720  0.0402 -0.2253
  947MOL0     C24885   8.946   2.639  10.725  0.0599  0.2182 -0.3992
  947MOL0     C24886   8.883   2.728  10.618 -0.5224  0.1559  0.6932
  947MOL0     C24887   8.972   2.743  10.501  0.0532  0.1990 -0.5394
  947MOL0     C24888   8.912   2.854  10.416  0.4219  0.4576  0.1587
  947MOL0     N24889   9.014   2.910  10.325  0.0162  0.1207 -0.3777
  947MOL0     C24890   9.080   2.850  10.217  0.0194  0.0723 -1.4356
  947MOL0     C24891   9.157   2.955  10.178  0.5149 -0.4789  0.3441
  947MOL0     C24892   9.246   2.945  10.057  0.2876 -0.3384  0.2724
  947MOL0     C24893   9.182   2.987   9.921  0.5736  0.3119 -0.1297
  947MOL0     C24894   9.272   2.957   9.797  1.4075  0.5015 -0.5984
  947MOL0     C24895   9.231   3.018   9.671  0.5823  0.0817  0.8228
  947MOL0     O24896   9.125   2.944   9.614  0.1624  0.9527  0.5940
  947MOL0     C24897   9.075   2.977   9.489  0.2330 -0.2752  0.9073
  947MOL0     C24898   9.116   3.092   9.418 -0.8878  0.4867  0.9952
  947MOL0     C24899   9.037   3.132   9.313  0.9372  0.4275 -0.2507
  947MOL0     C24900   8.938   3.054   9.257 -0.4365 -0.0364  0.3441
  947MOL0     C24901   8.858   3.096   9.133 -0.1644  0.5948 -0.3403
  947MOL0     O24902   8.798   2.995   9.068 -0.4440 -0.1818  0.0811
  947MOL0     C24903   8.709   3.028   8.961  0.4502  0.2036 -1.1818
  947MOL0     C24904   8.720   2.946   8.858  0.1244  0.1210 -0.4088
  947MOL0     C24905   8.651   2.971   8.735  0.5389  0.1945  0.7775
  947MOL0     C24906   8.554   3.069   8.732  0.1004  0.2802  0.5420
  947MOL0     O24907   8.481   3.073   8.618 -0.4300  0.0014  0.2361
  947MOL0     C24908   8.414   3.204   8.588  0.2930 -0.0655  0.3101
  947MOL0     C24909   8.366   3.212   8.443 -0.7612 -0.3961 -0.1335
  947MOL0     C24910   8.296   3.344   8.431  0.3849 -0.5455  0.2974
  947MOL0     C24911   8.242   3.351   8.287 -0.4301 -0.8816  0.4724
  947MOL0     C24912   8.185   3.490   8.257  0.2867 -0.5063  0.2649
  947MOL0     C24913   8.088   3.469   8.141 -0.2958 -0.2601 -0.3802
  947MOL0     C24914   8.035   3.598   8.090 -0.1247 -0.5280 -0.3123
  947MOL0     C24915   8.132   3.674   7.997  0.0174 -1.2042 -0.3534
  947MOL0    Cl24916   8.056   3.832   7.943 -0.4738  0.3304  0.6378
  947MOL0     C24917   8.529   3.137   8.852  0.4346 -0.1814 -0.7914
  947MOL0     C24918   8.610   3.129   8.963  0.9100  0.4464 -0.0746
  947MOL0     O24919   8.849   3.218   9.108  0.3851 -0.3121  0.4564
  947MOL0     C24920   8.912   2.931   9.317  0.1652 -0.8391 -0.7076
  947MOL0     C24921   8.974   2.898   9.433 -0.9502  0.2119 -0.4200
  947MOL0     N24922   9.130   3.066  10.262 -0.0914  0.1497  0.6561
  947MOL0     N24923   9.050   3.034  10.343  0.2181 -0.5647  0.4081
  947MOL0     C24924   8.320   2.530  11.292 -0.1082 -0.6267 -0.6950
  947MOL0     C24925   8.190   2.500  11.326  1.4021 -0.2760 -0.2018
  947MOL0     C24926   7.722   2.395  11.243 -0.2759  0.0269 -0.1283
  947MOL0     C24927   7.730   2.259  11.281  0.1314 -0.0780 -0.1200
  947MOL0     C24928   7.616   2.183  11.286  0.0761 -1.0222 -0.8714
  947MOL0     C24929   7.486   2.243  11.266 -0.7681 -0.0352 -0.4792
  947MOL0     O24930   7.377   2.165  11.274  0.7724 -0.2722  0.6267
  947MOL0     C24931   7.323   2.138  11.404 -0.2928 -0.2331  0.0111
  947MOL0     C24932   7.222   2.245  11.442  0.1905  0.2374 -0.1841
  947MOL0     C24933   7.278   2.362  11.528  0.0147 -0.8279  0.6476
  947MOL0     C24934   7.164   2.454  11.587  0.1755  0.2996  0.6362
  947MOL0     C24935   7.230   2.565  11.655 -0.7590  0.5758  0.2244
  947MOL0     C24936   7.270   2.658  11.719 -1.2497  0.1720 -0.4115
  947MOL0     C24937   7.481   2.377  11.231 -0.6181 -0.5056 -0.3457
  947MOL0     C24938   7.598   2.456  11.224  0.5724  0.1754 -0.0025
  947MOL0     H24939   8.068   2.429  11.015 -0.0670  0.5069 -1.2492
  947MOL0     H24940   8.296   2.475  10.958 -2.4780  1.8797 -0.6913
  947MOL0     H24941   8.486   2.621  10.941  0.6312 -2.3047 -2.2110
  947MOL0     H24942   8.554   2.460  10.961 -0.3063  1.7158 -2.1169
  947MOL0     H24943   8.746   2.565  11.078  0.5656 -0.6799 -0.5916
  947MOL0     H24944   8.664   2.719  11.042 -3.6279 -1.4226  2.4813
  947MOL0     H24945   8.674   2.626  10.790 -2.9389 -0.0637  1.9025
  947MOL0     H24946   8.755   2.483  10.858 -0.3559 -0.0627 -0.3458
  947MOL0     H24947   8.866   2.762  10.870 -0.6517 -0.0765 -0.3541
  947MOL0     H24948   8.938   2.612  10.940  0.0241  0.1458  0.4835
  947MOL0     H24949   8.943   2.530  10.713 -1.0587  0.0245  1.2732
  947MOL0     H24950   9.048   2.675  10.743 -0.1721  1.0389 -0.6871
  947MOL0     H24951   8.882   2.831  10.656  0.6807  0.9413 -1.2434
  947MOL0     H24952   8.786   2.690  10.585 -0.5516  0.9275 -0.1724
  947MOL0     H24953   9.075   2.772  10.519 -0.1162 -0.4517  1.9043
  947MOL0     H24954   8.975   2.643  10.457  2.1978 -1.4764  2.9928
  947MOL0     H24955   8.877   2.937  10.478  0.4889  2.9409 -2.9167
  947MOL0     H24956   8.831   2.813  10.355  0.4167 -1.0335  1.1108
  947MOL0     H24957   9.063   2.749  10.182 -1.9037 -0.7291  1.4166
  947MOL0     H24958   9.281   2.845  10.034  0.8069  0.2324 -1.5298
  947MOL0     H24959   9.333   3.008  10.079  0.0428  0.0131  0.2418
  947MOL0     H24960   9.135   3.086   9.913 -3.2268 -1.4615 -3.3221
  947MOL0     H24961   9.092   2.925   9.910  0.8427 -0.2893  0.9162
  947MOL0     H24962   9.371   2.996   9.821  0.9905  0.7092  0.9348
  947MOL0     H24963   9.272   2.848   9.786  0.0487  0.4610 -0.4302
  947MOL0     H24964   9.311   3.026   9.597 -1.8320  0.1024 -1.9580
  947MOL0     H24965   9.195   3.121   9.682 -2.1825 -0.6986 -0.0141
  947MOL0     H24966   9.206   3.147   9.444 -0.5069 -0.6098  2.0569
  947MOL0     H24967   9.078   3.218   9.261  1.5998  0.4585  0.2992
  947MOL0     H24968   8.793   2.865   8.866 -0.4470 -0.2240  2.5021
  947MOL0     H24969   8.665   2.906   8.649 -0.9036 -1.2009  1.5223
  947MOL0     H24970   8.489   3.282   8.599  0.4111  0.1533 -1.7542
  947MOL0     H24971   8.329   3.227   8.653 -0.5294  1.4787 -1.2421
  947MOL0     H24972   8.282   3.145   8.422  0.3713 -2.2665  1.0704
  947MOL0     H24973   8.450   3.208   8.373  1.2271  0.4085  2.0905
  947MOL0     H24974   8.360   3.431   8.450 -0.1904  0.1050 -0.6806
  947MOL0     H24975   8.215   3.339   8.504  0.1470  0.0200  0.0742
  947MOL0     H24976   8.323   3.338   8.214 -0.8308  1.8915 -0.6004
  947MOL0     H24977   8.158   3.283   8.276 -1.3541  0.2668  0.1893
  947MOL0     H24978   8.262   3.562   8.229  0.4381  0.4157  2.8434
  947MOL0     H24979   8.130   3.532   8.341 -0.6110  0.1533 -0.6219
  947MOL0     H24980   8.001   3.414   8.176 -0.2335 -0.0736  0.0721
  947MOL0     H24981   8.134   3.408   8.063  0.9056  1.7846 -1.3694
  947MOL0     H24982   7.944   3.574   8.033 -0.9494 -0.9054  1.1010
  947MOL0     H24983   8.008   3.668   8.169 -3.3057 -2.0522  0.1288
  947MOL0     H24984   8.166   3.604   7.920  0.2149 -1.2795 -0.1976
  947MOL0     H24985   8.224   3.712   8.043  0.4131 -1.6446 -0.7686
  947MOL0     H24986   8.444   3.204   8.857  0.8998  0.8053 -3.9579
  947MOL0     H24987   8.585   3.194   9.046 -0.2576 -0.4003  0.2664
  947MOL0     H24988   8.842   2.866   9.266 -4.1292  1.5389  1.4914
  947MOL0     H24989   8.935   2.807   9.478 -1.5744  1.0646  0.8077
  947MOL0     H24990   8.385   2.559  11.373 -0.1079 -1.8253 -0.2490
  947MOL0     H24991   8.168   2.484  11.431  1.7735 -1.1604 -0.2524
  947MOL0     H24992   7.828   2.214  11.293 -0.2506 -1.5275 -2.0083
  947MOL0     H24993   7.621   2.076  11.305 -0.2868 -1.0966 -1.1917
  947MOL0     H24994   7.395   2.127  11.486 -0.5735  0.2106  0.3206
  947MOL0     H24995   7.264   2.046  11.401 -0.2167 -0.3058  0.5323
  947MOL0     H24996   7.166   2.283  11.356 -0.0171 -2.4027 -1.3188
  947MOL0     H24997   7.146   2.191  11.501  0.2115 -0.3805 -0.7157
  947MOL0     H24998   7.348   2.419  11.467  1.0186 -1.4773  1.1669
  947MOL0     H24999   7.330   2.328  11.618 -3.1193 -2.7608  1.9003
  947MOL0     H25000   7.102   2.505  11.513  1.3719 -0.2401 -0.7931
  947MOL0     H25001   7.101   2.396  11.655 -0.9868  1.8892  0.9626
  947MOL0     H25002   7.281   2.745  11.780 -1.6778 -1.2714  1.8328
  947MOL0     H25003   7.391   2.438  11.227 -0.7669 -0.6129  0.9699
  947MOL0     H25004   7.606   2.559  11.191  0.9951 -0.1990 -1.1287
  948MOL0     O25005   5.770   7.913   7.320  0.0666 -0.1720  0.3586
  948MOL0     C25006   5.700   7.920   7.222  0.4516  0.6118 -0.1247
  948MOL0     O25007   5.741   7.925   7.092  1.2176  0.0934 -0.5490
  948MOL0     C25008   5.871   7.935   7.056  0.0095 -0.1462  0.2455
  948MOL0     C25009   5.979   7.879   7.130  0.4045 -0.9373  0.8749
  948MOL0     C25010   6.102   7.878   7.082  0.3247  0.3531 -0.0846
  948MOL0     C25011   6.135   7.963   6.982 -0.1140  0.8280  0.4263
  948MOL0     O25012   6.266   7.973   6.948 -0.4640 -0.0124  0.2545
  948MOL0     C25013   6.301   8.076   6.848 -0.1886  0.1549 -0.6772
  948MOL0     C25014   6.446   8.123   6.870  0.5004  0.2883 -0.5415
  948MOL0     C25015   6.473   8.152   7.014  0.3252  0.2572  0.4751
  948MOL0     C25016   6.594   8.246   7.035  0.6255  0.4587  0.1888
  948MOL0     C25017   6.647   8.252   7.180 -0.1074  0.2894 -1.1886
  948MOL0     C25018   6.700   8.115   7.234  0.1568  0.7118 -0.2825
  948MOL0     C25019   6.789   8.126   7.361  0.8922  0.1839 -0.4692
  948MOL0     C25020   6.834   7.988   7.414  0.5856 -0.1874 -0.0219
  948MOL0     N25021   6.871   7.995   7.553  0.6584 -0.1990 -0.7453
  948MOL0     C25022   6.992   8.041   7.592  0.4936 -0.6028  0.4161
  948MOL0     C25023   6.987   8.046   7.727  0.2959  0.2503  0.3116
  948MOL0     C25024   7.108   8.098   7.811  1.0213 -0.5747  0.3798
  948MOL0     C25025   7.078   8.241   7.849 -0.9122  0.1828 -0.1050
  948MOL0     C25026   7.007   8.252   7.981  0.4371 -0.4720  0.3560
  948MOL0     C25027   7.020   8.394   8.048  0.6162 -0.5105  0.2138
  948MOL0     O25028   6.952   8.494   7.963 -0.3812  0.0683  0.0092
  948MOL0     C25029   6.812   8.510   7.968  0.1308 -0.9011  0.2495
  948MOL0     C25030   6.723   8.439   8.051  0.0118  0.2582  0.5636
  948MOL0     C25031   6.590   8.477   8.059  0.2110  0.2962  0.2377
  948MOL0     C25032   6.535   8.566   7.962 -0.5750  0.6812  0.6390
  948MOL0     C25033   6.386   8.592   7.956 -0.7275 -0.1406  1.2227
  948MOL0     O25034   6.307   8.510   8.032 -0.3235 -0.0150 -0.4777
  948MOL0     C25035   6.171   8.522   8.019  0.0410 -0.7591 -0.9173
  948MOL0     C25036   6.089   8.517   8.135 -0.6041  0.6656  0.5322
  948MOL0     C25037   5.949   8.520   8.117  0.2127  0.1747  0.8336
  948MOL0     C25038   5.885   8.519   7.990  0.0072 -1.4827 -0.6172
  948MOL0     O25039   5.747   8.517   7.968 -0.1481 -0.0351 -0.7084
  948MOL0     C25040   5.667   8.507   8.086  0.1942  0.2982 -0.0469
  948MOL0     C25041   5.525   8.558   8.051 -0.3296  0.2383  0.7245
  948MOL0     C25042   5.447   8.459   7.955  0.9099  1.1501 -0.0049
  948MOL0     C25043   5.436   8.319   8.019  0.8248 -0.0706 -0.0219
  948MOL0     C25044   5.334   8.233   7.945 -0.4722 -0.0099 -0.7585
  948MOL0     C25045   5.196   8.282   7.993  0.8458  0.1134  0.0945
  948MOL0     C25046   5.089   8.212   7.901 -0.0879 -0.9310 -0.2403
  948MOL0     C25047   4.934   8.239   7.947 -0.4101 -0.9461 -0.5319
  948MOL0    Cl25048   4.846   8.250   7.794  0.0895 -0.0675  0.4344
  948MOL0     C25049   5.968   8.535   7.880  0.5006 -0.9046 -0.5215
  948MOL0     C25050   6.110   8.544   7.897  0.4043  0.3989 -0.1373
  948MOL0     O25051   6.347   8.692   7.901  0.1746  0.1058  0.6783
  948MOL0     C25052   6.622   8.626   7.875  0.8226  0.8463  0.3653
  948MOL0     C25053   6.755   8.602   7.876  0.1452 -0.0336 -0.0208
  948MOL0     N25054   6.856   8.004   7.764 -0.2614 -0.1874 -0.0905
  948MOL0     N25055   6.791   7.967   7.658 -0.1970  0.2158 -0.2206
  948MOL0     C25056   6.027   8.025   6.911 -0.2316  1.4468  0.4063
  948MOL0     C25057   5.898   8.005   6.948 -0.1748 -0.2388  0.0990
  948MOL0     C25058   5.559   7.875   7.234 -0.1159 -0.6429 -0.0300
  948MOL0     C25059   5.512   7.822   7.358  0.6713  0.2018 -0.4818
  948MOL0     C25060   5.375   7.799   7.374  0.5066 -0.3955 -0.5716
  948MOL0     C25061   5.286   7.799   7.268  0.1822  0.2071 -0.5391
  948MOL0     O25062   5.159   7.753   7.292 -0.2046 -0.1445  1.0808
  948MOL0     C25063   5.049   7.804   7.219  0.0217 -0.0839  0.2035
  948MOL0     C25064   5.012   7.949   7.257  0.3127  0.1362  0.3726
  948MOL0     C25065   4.868   7.973   7.201 -0.7955  0.0195 -0.1730
  948MOL0     C25066   4.829   8.118   7.233  0.5184  0.0246 -0.0268
  948MOL0     C25067   4.688   8.132   7.208  0.6851  0.4187  0.1089
  948MOL0     C25068   4.566   8.138   7.216  0.0403  0.0842 -0.0794
  948MOL0     C25069   5.337   7.851   7.147 -0.3672  0.6880  0.5470
  948MOL0     C25070   5.471   7.885   7.123  0.5603  0.3495 -0.1949
  948MOL0     H25071   5.964   7.845   7.232  0.5421 -1.1070  0.8402
  948MOL0     H25072   6.182   7.830   7.136  0.7487 -0.3023 -1.2423
  948MOL0     H25073   6.237   8.165   6.848 -0.3016  0.0739 -0.4996
  948MOL0     H25074   6.295   8.032   6.748  1.2905 -0.9086 -0.3308
  948MOL0     H25075   6.454   8.217   6.814  3.0322 -0.2674 -1.2509
  948MOL0     H25076   6.514   8.050   6.825  0.6771  1.1590 -1.7310
  948MOL0     H25077   6.483   8.062   7.075  2.2389  0.6704  0.8373
  948MOL0     H25078   6.383   8.203   7.050 -1.2389 -0.0755 -2.6138
  948MOL0     H25079   6.681   8.223   6.973 -1.1272 -1.4943 -1.7207
  948MOL0     H25080   6.561   8.344   7.002  0.7169  0.3063 -0.3620
  948MOL0     H25081   6.558   8.280   7.238  0.6908  2.8807 -1.0870
  948MOL0     H25082   6.714   8.335   7.201 -0.2080 -0.5198  3.2570
  948MOL0     H25083   6.747   8.068   7.147 -0.9705  0.6320 -0.8611
  948MOL0     H25084   6.611   8.056   7.257 -1.3071  1.8021 -2.7414
  948MOL0     H25085   6.869   8.199   7.348  0.4395  0.2372 -3.9558
  948MOL0     H25086   6.714   8.169   7.428 -1.3228  1.6515 -3.6284
  948MOL0     H25087   6.915   7.953   7.350 -0.3726 -0.9933 -0.8368
  948MOL0     H25088   6.748   7.920   7.412 -0.0897  0.6346  0.5399
  948MOL0     H25089   7.079   8.066   7.533 -0.5050  2.6395  0.1270
  948MOL0     H25090   7.189   8.107   7.738 -2.2517  3.0479 -3.4028
  948MOL0     H25091   7.136   8.038   7.898 -2.2990 -1.2829  1.1133
  948MOL0     H25092   7.024   8.289   7.767  1.6984  1.2301 -1.3328
  948MOL0     H25093   7.175   8.291   7.858 -2.0905  2.4196  0.7424
  948MOL0     H25094   6.903   8.220   7.967  0.0426  0.5801  0.7748
  948MOL0     H25095   7.043   8.171   8.044 -0.6588 -1.8436 -0.7087
  948MOL0     H25096   7.128   8.412   8.057  0.7790 -0.7487 -1.1060
  948MOL0     H25097   6.988   8.391   8.153  0.4203 -2.0385  0.1323
  948MOL0     H25098   6.766   8.368   8.120  1.4246 -1.1944 -1.6664
  948MOL0     H25099   6.535   8.430   8.139  2.6490 -2.4043  0.5113
  948MOL0     H25100   6.139   8.500   8.230  0.1884 -1.1036 -0.1698
  948MOL0     H25101   5.895   8.525   8.211 -1.7568  0.4155 -0.2642
  948MOL0     H25102   5.708   8.578   8.158 -1.6369 -0.5136  1.8835
  948MOL0     H25103   5.674   8.407   8.129  0.0364  0.0668 -0.5497
  948MOL0     H25104   5.527   8.652   7.995 -3.8171  0.8406  1.3706
  948MOL0     H25105   5.469   8.577   8.143  0.0130  1.7095  0.6491
  948MOL0     H25106   5.497   8.451   7.859  1.1033  3.2108 -0.1285
  948MOL0     H25107   5.350   8.508   7.939  0.3135 -0.1721 -0.5344
  948MOL0     H25108   5.534   8.274   8.005  2.0166  2.0802  0.9124
  948MOL0     H25109   5.412   8.312   8.125 -1.7483  0.5451 -0.4925
  948MOL0     H25110   5.341   8.129   7.978 -2.8391  0.2971  0.9615
  948MOL0     H25111   5.339   8.227   7.836 -0.4297  2.1117 -0.9174
  948MOL0     H25112   5.180   8.390   7.984 -1.9051 -0.2851 -0.6791
  948MOL0     H25113   5.177   8.256   8.097 -1.1274 -1.5953 -0.6381
  948MOL0     H25114   5.105   8.270   7.810  0.7510  2.1253  1.7061
  948MOL0     H25115   5.102   8.107   7.875 -2.0190 -1.6415  1.3568
  948MOL0     H25116   4.933   8.323   8.017 -0.9437 -1.2288 -0.1955
  948MOL0     H25117   4.893   8.157   8.006 -0.7626  0.2588  0.9719
  948MOL0     H25118   5.923   8.544   7.782 -4.0900 -0.0426  1.4298
  948MOL0     H25119   6.164   8.557   7.804  0.8748 -1.9493 -0.2590
  948MOL0     H25120   6.583   8.694   7.799  0.3570 -0.7601 -0.8964
  948MOL0     H25121   6.813   8.653   7.799 -1.1702 -1.3384 -1.9393
  948MOL0     H25122   6.045   8.082   6.820  1.9653  1.7098  0.9513
  948MOL0     H25123   5.822   8.048   6.883  1.6774  2.0891 -0.6351
  948MOL0     H25124   5.574   7.811   7.447  0.4217 -0.3814 -0.3741
  948MOL0     H25125   5.347   7.755   7.469 -3.2037 -0.5023 -1.5777
  948MOL0     H25126   4.958   7.748   7.245 -1.8478  2.3619 -0.6778
  948MOL0     H25127   5.066   7.784   7.113  0.6894 -0.7445  0.4320
  948MOL0     H25128   5.014   7.961   7.365 -0.0245 -2.4497  0.7428
  948MOL0     H25129   5.084   8.020   7.216 -0.3512  1.6120  1.6814
  948MOL0     H25130   4.799   7.904   7.250 -3.3322  2.3021 -0.2665
  948MOL0     H25131   4.860   7.952   7.094 -0.6615  0.3167 -0.2451
  948MOL0     H25132   4.843   8.143   7.339 -1.7768 -0.9820  0.5678
  948MOL0     H25133   4.883   8.192   7.173 -2.2036  1.0934 -1.3233
  948MOL0     H25134   4.459   8.142   7.225  0.0427  0.3610 -0.1641
  948MOL0     H25135   5.269   7.859   7.062 -1.3720  4.5532  1.5210
  948MOL0     H25136   5.494   7.921   7.023 -0.6487 -0.3340 -0.7309
  949MOL0     O25137   2.092   8.132   5.801 -0.2328 -0.2709  0.3877
  949MOL0     C25138   2.098   8.252   5.801 -0.3440 -1.1931 -0.1254
  949MOL0     O25139   1.993   8.349   5.812 -0.3815 -0.8640  0.2229
  949MOL0     C25140   1.865   8.303   5.815  0.4824 -0.7786 -0.3473
  949MOL0     C25141   1.828   8.204   5.914  0.4658 -0.6991 -0.0097
  949MOL0     C25142   1.688   8.177   5.932 -0.4739  0.1632  0.0857
  949MOL0     C25143   1.589   8.237   5.853  0.4383 -0.1443 -0.2589
  949MOL0     O25144   1.459   8.204   5.874 -0.2270 -0.0558 -0.6228
  949MOL0     C25145   1.351   8.289   5.830 -0.4753 -0.0511  0.8274
  949MOL0     C25146   1.214   8.240   5.885 -0.0296  0.4398 -0.8842
  949MOL0     C25147   1.097   8.303   5.815 -0.7810  0.3289  0.6096
  949MOL0     C25148   0.970   8.217   5.852 -0.2611  0.3821  0.2309
  949MOL0     C25149   0.850   8.264   5.776  0.3959 -0.8324  0.6934
  949MOL0     C25150   0.721   8.180   5.801  0.1588  0.2403 -1.0288
  949MOL0     C25151   0.591   8.253   5.743 -0.4967  0.2946 -0.4005
  949MOL0     C25152   0.471   8.155   5.774  0.1628  0.4917  0.3000
  949MOL0     N25153   0.346   8.210   5.725 -0.7311 -0.6074 -0.1085
  949MOL0     C25154   0.316   8.343   5.699  0.2934  0.3336 -0.2520
  949MOL0     C25155   0.227   8.348   5.596  0.0488 -0.3678  0.3931
  949MOL0     C25156   0.176   8.473   5.535  0.0856  0.4474  0.2702
  949MOL0     C25157   0.245   8.521   5.415  0.8263  0.4209 -0.1101
  949MOL0     C25158   0.229   8.423   5.302  0.3686 -0.3639  0.2871
  949MOL0     C25159   0.125   8.456   5.194  0.0803  0.4462 -0.7046
  949MOL0     O25160  -0.006   8.430   5.237  0.1283 -0.1075 -0.4003
  949MOL0     C25161  -0.100   8.426   5.142 -0.2954  0.5339 -0.2685
  949MOL0     C25162  -0.231   8.394   5.183  0.4047 -1.1753  0.1640
  949MOL0     C25163  -0.337   8.394   5.091 -0.3884 -0.2575  0.8466
  949MOL0     C25164  -0.314   8.444   4.952 -0.3142  0.2154 -0.5114
  949MOL0     C25165  -0.426   8.450   4.859  0.6012  0.5049  0.1247
  949MOL0     O25166  -0.547   8.431   4.908 -0.6987  0.3020  0.2501
  949MOL0     C25167  -0.651   8.408   4.822 -0.7855 -0.4149  0.5863
  949MOL0     C25168  -0.723   8.288   4.832 -0.6726  0.8337 -0.5438
  949MOL0     C25169  -0.841   8.271   4.756  0.5982 -0.8883 -0.6108
  949MOL0     C25170  -0.892   8.368   4.661 -0.6782  0.5017 -0.5009
  949MOL0     O25171  -1.002   8.349   4.581 -0.7548  0.7802  0.1674
  949MOL0     C25172  -1.091   8.233   4.617 -1.1428  0.2540 -0.0490
  949MOL0     C25173  -1.222   8.260   4.539 -0.5056 -1.0625  0.3975
  949MOL0     C25174  -1.326   8.159   4.573 -0.0499 -0.3878  0.2740
  949MOL0     C25175  -1.460   8.187   4.511 -0.5125  1.5828 -0.3863
  949MOL0     C25176  -1.579   8.093   4.567 -1.0414  0.7383 -0.2058
  949MOL0     C25177  -1.708   8.135   4.506 -0.2470  0.0217  0.4930
  949MOL0     C25178  -1.819   8.054   4.576 -0.2221  0.3994 -0.2450
  949MOL0     C25179  -1.950   8.074   4.489 -0.6032  0.4066 -0.2676
  949MOL0    Cl25180  -1.914   8.056   4.304  0.1871  0.0235 -0.5272
  949MOL0     C25181  -0.819   8.491   4.657 -0.7722 -0.0249 -0.3094
  949MOL0     C25182  -0.702   8.506   4.735 -0.0237 -0.2404  0.1631
  949MOL0     O25183  -0.402   8.491   4.745 -0.1291 -0.3332 -0.2948
  949MOL0     C25184  -0.183   8.473   4.916  0.3461  1.0784 -0.0005
  949MOL0     C25185  -0.076   8.457   5.007  0.0701 -0.0953 -0.0502
  949MOL0     N25186   0.188   8.221   5.578 -0.2880 -0.2285  0.0110
  949MOL0     N25187   0.268   8.140   5.647  0.1790  0.2758 -0.1797
  949MOL0     C25188   1.629   8.322   5.752 -0.3478 -0.0651  0.9966
  949MOL0     C25189   1.765   8.355   5.736  0.5136 -0.5950 -0.1698
  949MOL0     C25190   2.237   8.307   5.785  1.0134  0.4501  0.2109
  949MOL0     C25191   2.347   8.224   5.799  0.7297 -0.3095  0.2690
  949MOL0     C25192   2.472   8.285   5.786  0.3998  0.4046 -0.6490
  949MOL0     C25193   2.496   8.423   5.780  0.4841 -0.2835  1.0052
  949MOL0     O25194   2.617   8.490   5.766  0.2997  0.2681 -0.4946
  949MOL0     C25195   2.732   8.416   5.733 -0.2256  0.2155  0.2078
  949MOL0     C25196   2.826   8.516   5.677  0.3341 -1.3247 -0.5237
  949MOL0     C25197   2.853   8.617   5.790  0.3095  0.8590 -0.9471
  949MOL0     C25198   2.980   8.697   5.769  0.5180  0.4706  0.5613
  949MOL0     C25199   3.101   8.621   5.773  0.5542  0.2016  1.0703
  949MOL0     C25200   3.200   8.547   5.767 -0.0690 -0.4294 -0.0527
  949MOL0     C25201   2.386   8.500   5.780  1.5791 -0.9081 -0.6584
  949MOL0     C25202   2.251   8.447   5.775 -0.0729 -0.5439  0.3205
  949MOL0     H25203   1.910   8.175   5.979  1.6784 -1.7082 -1.8780
  949MOL0     H25204   1.660   8.093   5.994 -1.2645 -0.0097 -0.4952
  949MOL0     H25205   1.342   8.297   5.721 -2.8212 -0.0126  0.9754
  949MOL0     H25206   1.370   8.389   5.870  4.7149 -0.7523  0.7560
  949MOL0     H25207   1.207   8.261   5.992  1.0083  2.2856 -1.1392
  949MOL0     H25208   1.213   8.131   5.875  2.2561  0.2427  0.2005
  949MOL0     H25209   1.116   8.287   5.708  1.3512  1.7071  0.7134
  949MOL0     H25210   1.092   8.407   5.848  0.9209  0.3215  0.9808
  949MOL0     H25211   0.985   8.110   5.833 -1.8730 -0.0451  1.1618
  949MOL0     H25212   0.946   8.237   5.957 -2.8603 -0.6127 -0.0971
  949MOL0     H25213   0.865   8.249   5.668  2.6429  0.0635  0.8336
  949MOL0     H25214   0.825   8.369   5.792 -1.7262 -1.3938  1.3892
  949MOL0     H25215   0.716   8.169   5.909  1.1787  0.4254 -0.9524
  949MOL0     H25216   0.729   8.081   5.755  1.3083  0.7141 -1.9001
  949MOL0     H25217   0.583   8.351   5.790 -0.8495  0.4623 -0.8082
  949MOL0     H25218   0.606   8.265   5.635  0.1433 -1.9293 -0.6239
  949MOL0     H25219   0.469   8.149   5.883 -1.0379 -0.4878  0.2460
  949MOL0     H25220   0.484   8.052   5.739 -2.9503 -0.3959  1.3885
  949MOL0     H25221   0.363   8.428   5.746  1.5389 -1.2820  1.5723
  949MOL0     H25222   0.192   8.542   5.619 -0.3071 -0.2626  0.9411
  949MOL0     H25223   0.069   8.462   5.514  0.4063 -0.8824 -0.7562
  949MOL0     H25224   0.351   8.544   5.427  0.5636  2.3478 -1.1206
  949MOL0     H25225   0.200   8.612   5.373 -1.6998 -1.5028 -1.8868
  949MOL0     H25226   0.331   8.429   5.263  0.3021  3.0091  0.3155
  949MOL0     H25227   0.213   8.317   5.324  0.9839 -0.9991 -2.0087
  949MOL0     H25228   0.146   8.396   5.105  1.0936  1.5218 -1.2112
  949MOL0     H25229   0.136   8.559   5.160  1.0288 -0.3324 -2.8985
  949MOL0     H25230  -0.248   8.390   5.290  1.9203  3.0021  0.7573
  949MOL0     H25231  -0.437   8.363   5.118 -0.7938  1.4799  1.4608
  949MOL0     H25232  -0.702   8.216   4.911 -1.3525  2.0183  0.7579
  949MOL0     H25233  -0.899   8.186   4.790 -4.1866  1.8077 -1.2653
  949MOL0     H25234  -1.126   8.246   4.720 -0.8743 -1.7771  0.3449
  949MOL0     H25235  -1.054   8.132   4.597  1.3098  1.2816 -0.9846
  949MOL0     H25236  -1.204   8.263   4.431  4.5003  1.2037  1.0509
  949MOL0     H25237  -1.252   8.362   4.564  2.3015  0.6613 -2.4606
  949MOL0     H25238  -1.345   8.153   4.681 -2.3634 -1.4120 -0.1315
  949MOL0     H25239  -1.304   8.056   4.544 -0.7528 -0.1072 -1.3397
  949MOL0     H25240  -1.482   8.295   4.517 -0.5248  1.5372  0.5561
  949MOL0     H25241  -1.444   8.162   4.406  0.4925 -0.1974  0.1623
  949MOL0     H25242  -1.583   8.097   4.676 -1.4175  1.0027 -0.2304
  949MOL0     H25243  -1.558   7.989   4.537 -1.5392  0.9264 -1.2316
  949MOL0     H25244  -1.689   8.110   4.402 -0.5833  0.4354  0.3285
  949MOL0     H25245  -1.726   8.243   4.516  0.5786  0.1166  1.0416
  949MOL0     H25246  -1.795   7.947   4.582 -2.1723 -0.0597  0.0764
  949MOL0     H25247  -1.844   8.085   4.677 -3.4445 -1.9894 -0.1495
  949MOL0     H25248  -1.994   8.173   4.502  2.6575  1.8832  0.8042
  949MOL0     H25249  -2.016   8.002   4.538  1.6410 -0.6238  1.4306
  949MOL0     H25250  -0.849   8.574   4.593  1.0022 -1.3732 -3.1003
  949MOL0     H25251  -0.635   8.592   4.728  1.9696 -1.5273  1.9521
  949MOL0     H25252  -0.154   8.504   4.816  0.1006  2.3006  0.2900
  949MOL0     H25253   0.023   8.476   4.965  0.3798 -2.3118 -0.4112
  949MOL0     H25254   1.565   8.378   5.684  0.2392 -1.1763 -0.5375
  949MOL0     H25255   1.801   8.429   5.666 -1.0317  1.7590  1.3996
  949MOL0     H25256   2.344   8.116   5.800  0.8770 -0.3332 -0.6518
  949MOL0     H25257   2.556   8.217   5.783 -1.4471 -1.9937 -1.2005
  949MOL0     H25258   2.714   8.341   5.655  0.1975 -0.6621  0.9344
  949MOL0     H25259   2.764   8.369   5.826  0.2232 -0.7537 -0.4080
  949MOL0     H25260   2.913   8.472   5.628  1.0882  0.6228 -1.0353
  949MOL0     H25261   2.769   8.564   5.597  1.0236  0.9503  0.2626
  949MOL0     H25262   2.861   8.571   5.888 -2.2490  1.2299 -0.4959
  949MOL0     H25263   2.772   8.691   5.795  1.4431  2.0749  0.1638
  949MOL0     H25264   2.991   8.749   5.673  2.6717 -0.4337  0.2688
  949MOL0     H25265   2.980   8.771   5.849  0.5763  0.2206  0.7936
  949MOL0     H25266   3.290   8.490   5.757  0.1533 -0.0855 -0.0185
  949MOL0     H25267   2.398   8.608   5.782  1.6400 -0.9233  0.0485
  949MOL0     H25268   2.165   8.513   5.769  0.5034  0.5567  2.7634
  950MOL0     O25269   9.373   1.145   4.801  0.3800 -0.3890  0.2947
  950MOL0     C25270   9.345   1.083   4.698  0.9418  0.4036  0.5166
  950MOL0     O25271   9.243   1.108   4.613  0.2934  0.2152 -0.5881
  950MOL0     C25272   9.139   1.197   4.629  0.3754  0.4738 -0.3938
  950MOL0     C25273   9.115   1.299   4.730 -0.0396  0.2093 -0.1809
  950MOL0     C25274   8.997   1.375   4.725  0.3379  0.3225  0.3244
  950MOL0     C25275   8.895   1.350   4.624  0.6985  0.5303  0.0376
  950MOL0     O25276   8.775   1.418   4.629  0.6514  0.4852 -0.0074
  950MOL0     C25277   8.733   1.452   4.756 -0.8088  0.2718  0.6829
  950MOL0     C25278   8.586   1.506   4.767 -0.5408  0.5691  0.1795
  950MOL0     C25279   8.592   1.638   4.696  0.9787 -0.6672  0.1016
  950MOL0     C25280   8.445   1.693   4.711  0.2149 -0.0257  0.8559
  950MOL0     C25281   8.424   1.828   4.636  0.0406  0.0449  0.2034
  950MOL0     C25282   8.358   1.812   4.505  0.1643 -0.7961  0.1819
  950MOL0     C25283   8.332   1.949   4.432  0.0045 -0.1695  0.7594
  950MOL0     C25284   8.259   1.914   4.301  0.3250  0.0709  0.5162
  950MOL0     N25285   8.122   1.887   4.328 -0.4579 -0.0149  0.4011
  950MOL0     C25286   8.075   1.761   4.364  0.3557  0.3973 -0.4083
  950MOL0     C25287   7.944   1.777   4.399  0.1909  0.5646  0.1296
  950MOL0     C25288   7.849   1.664   4.417  0.8134  0.4532 -0.3146
  950MOL0     C25289   7.766   1.622   4.294 -0.8190 -0.0012 -0.9912
  950MOL0     C25290   7.671   1.725   4.239  0.4955 -0.4705 -0.1143
  950MOL0     C25291   7.561   1.761   4.338  0.6546 -0.5622 -0.2475
  950MOL0     O25292   7.444   1.680   4.326 -0.1381  1.2465  0.7758
  950MOL0     C25293   7.333   1.727   4.392  0.2693 -0.4645  0.4147
  950MOL0     C25294   7.289   1.651   4.499  0.0123  0.9329 -0.8591
  950MOL0     C25295   7.177   1.692   4.572 -0.3648  0.1031 -0.2268
  950MOL0     C25296   7.101   1.802   4.532  0.5824  0.2945  0.1524
  950MOL0     C25297   6.970   1.826   4.592  0.2104 -0.5633  0.3064
  950MOL0     O25298   6.941   1.753   4.701 -0.1491 -0.4922  0.4338
  950MOL0     C25299   6.887   1.820   4.807  0.0179 -0.7416  1.1064
  950MOL0     C25300   6.962   1.917   4.873 -0.8839 -0.2773 -0.8065
  950MOL0     C25301   6.910   2.003   4.978  0.5684 -0.2421  0.0321
  950MOL0     C25302   6.789   1.982   5.025 -0.3141  0.8269  0.6314
  950MOL0     O25303   6.762   2.052   5.141  0.1479 -0.0053  0.0775
  950MOL0     C25304   6.640   2.035   5.208  0.6221 -0.3413  0.7501
  950MOL0     C25305   6.637   1.907   5.298 -0.6001 -0.0131  0.4299
  950MOL0     C25306   6.723   1.919   5.417 -0.1275  0.1788  0.1283
  950MOL0     C25307   6.881   1.942   5.398  0.3279  0.2931  0.2095
  950MOL0     C25308   6.940   1.933   5.540 -0.0280  0.5836  0.3889
  950MOL0     C25309   7.092   1.961   5.533  0.5071  0.1931 -0.7267
  950MOL0     C25310   7.143   1.976   5.676  1.0714 -0.5644 -0.3458
  950MOL0     C25311   7.290   1.940   5.681 -0.5147  0.4493  0.1611
  950MOL0    Cl25312   7.362   1.976   5.834 -0.3283 -0.3357  0.2253
  950MOL0     C25313   6.715   1.869   4.972 -0.4064  0.5386  0.3601
  950MOL0     C25314   6.763   1.796   4.860 -1.4329  0.0135  0.3378
  950MOL0     O25315   6.903   1.922   4.548 -0.2459 -0.9420 -0.4247
  950MOL0     C25316   7.150   1.870   4.418 -0.6516 -0.1709 -0.6644
  950MOL0     C25317   7.265   1.837   4.352  0.6768  0.0061  0.4376
  950MOL0     N25318   7.917   1.905   4.385 -0.4065  0.1051 -0.2434
  950MOL0     N25319   8.020   1.976   4.358  0.4169  0.3537 -0.6403
  950MOL0     C25320   8.920   1.253   4.523 -0.1574  0.2623 -0.0682
  950MOL0     C25321   9.032   1.169   4.537 -0.1035  1.2216 -0.0215
  950MOL0     C25322   9.444   0.978   4.644  0.0810 -0.0798 -0.4885
  950MOL0     C25323   9.576   0.968   4.694  0.6121 -0.2720 -0.1444
  950MOL0     C25324   9.674   0.885   4.636 -0.8891  0.4646 -0.3776
  950MOL0     C25325   9.640   0.804   4.533 -1.7409  0.2677  0.1575
  950MOL0     O25326   9.741   0.723   4.487  0.3188 -0.3096  0.6172
  950MOL0     C25327   9.715   0.623   4.390  1.0238  0.3082 -0.6917
  950MOL0     C25328   9.843   0.601   4.318  0.4842  0.5082 -0.2825
  950MOL0     C25329   9.953   0.520   4.398  0.6516 -0.6992  0.2798
  950MOL0     C25330  10.049   0.460   4.300 -0.3956  0.6832  0.2845
  950MOL0     C25331  10.161   0.392   4.369  0.2050 -0.5875 -0.2985
  950MOL0     C25332  10.263   0.334   4.402 -0.1206 -0.5166  0.0416
  950MOL0     C25333   9.505   0.803   4.476 -0.4133  0.5656 -0.3276
  950MOL0     C25334   9.414   0.886   4.538  0.0892 -0.7253  0.2369
  950MOL0     H25335   9.193   1.335   4.796  2.0219 -2.8803 -0.7226
  950MOL0     H25336   8.994   1.459   4.793  1.7769  1.5291 -1.0160
  950MOL0     H25337   8.796   1.530   4.798 -1.7322  0.2177  2.2806
  950MOL0     H25338   8.726   1.363   4.819  0.2705 -0.6945 -0.5127
  950MOL0     H25339   8.570   1.524   4.874  0.4997 -0.8169  0.6002
  950MOL0     H25340   8.515   1.433   4.727  2.6168 -2.4699 -0.3468
  950MOL0     H25341   8.632   1.635   4.594 -1.7039 -1.3532 -1.0069
  950MOL0     H25342   8.651   1.710   4.753  1.9014 -0.3668 -1.1896
  950MOL0     H25343   8.378   1.616   4.673 -0.0478  0.5169  0.1929
  950MOL0     H25344   8.429   1.715   4.817  1.7157  0.5789  0.9867
  950MOL0     H25345   8.523   1.866   4.611  0.0012 -0.8565 -1.4738
  950MOL0     H25346   8.363   1.887   4.704  1.7831 -0.1694  2.0492
  950MOL0     H25347   8.263   1.765   4.534 -1.2316  1.0852 -1.0939
  950MOL0     H25348   8.415   1.746   4.438  0.9217  0.6323 -0.6160
  950MOL0     H25349   8.272   2.018   4.493 -2.9058  0.9309 -2.9495
  950MOL0     H25350   8.418   2.015   4.413 -0.5151  0.8632  1.8499
  950MOL0     H25351   8.309   1.830   4.251 -0.3565 -0.2364  0.3401
  950MOL0     H25352   8.248   2.003   4.238 -0.2357  0.3171  0.9536
  950MOL0     H25353   8.128   1.666   4.363 -0.3920 -0.0567  0.6845
  950MOL0     H25354   7.793   1.690   4.508  1.2639 -1.6564  0.6192
  950MOL0     H25355   7.907   1.579   4.454  0.8424  0.3344 -0.6311
  950MOL0     H25356   7.710   1.530   4.310  2.3816 -2.1955 -1.3409
  950MOL0     H25357   7.841   1.603   4.216  1.8861 -0.3115  1.4828
  950MOL0     H25358   7.738   1.806   4.210  0.7284  0.2088  2.1082
  950MOL0     H25359   7.631   1.689   4.144 -0.4687  1.8217 -0.6421
  950MOL0     H25360   7.531   1.865   4.325  0.9981 -0.4335 -0.0192
  950MOL0     H25361   7.592   1.734   4.439  0.5913 -0.2179 -0.1348
  950MOL0     H25362   7.339   1.556   4.519 -3.3028 -0.7434  0.1899
  950MOL0     H25363   7.134   1.632   4.651 -1.1392 -0.1696 -0.8417
  950MOL0     H25364   7.066   1.929   4.846  0.4426 -1.8709  2.8887
  950MOL0     H25365   6.979   2.074   5.025 -0.4823 -0.1302  1.4838
  950MOL0     H25366   6.561   2.014   5.136  0.1199  0.7720  0.9539
  950MOL0     H25367   6.614   2.117   5.275 -2.0524 -1.2755  0.9793
  950MOL0     H25368   6.675   1.827   5.233 -2.2312  0.9074 -1.8041
  950MOL0     H25369   6.532   1.887   5.321 -0.1504 -3.2652  0.1667
  950MOL0     H25370   6.708   1.825   5.472 -0.8422  0.2055 -0.0124
  950MOL0     H25371   6.690   2.003   5.479  1.4561  1.6234 -0.9014
  950MOL0     H25372   6.917   1.866   5.327 -0.2312  1.7677 -1.7380
  950MOL0     H25373   6.897   2.041   5.355 -1.5840  0.7243  0.3827
  950MOL0     H25374   6.917   1.836   5.585  0.2794 -1.0616 -2.7684
  950MOL0     H25375   6.901   2.008   5.609  1.1784  1.9714 -0.3872
  950MOL0     H25376   7.112   2.059   5.488  0.7237  2.2271  3.2494
  950MOL0     H25377   7.131   1.878   5.475 -0.9549 -0.7233 -0.4496
  950MOL0     H25378   7.130   2.077   5.717  0.0141  0.0559 -2.0989
  950MOL0     H25379   7.089   1.905   5.738 -0.3795 -0.3351 -1.2963
  950MOL0     H25380   7.339   1.986   5.594 -1.6564 -0.0294 -0.7605
  950MOL0     H25381   7.297   1.831   5.672  0.4465  0.5276 -0.0772
  950MOL0     H25382   6.620   1.841   5.016  0.5258 -0.5382  1.7988
  950MOL0     H25383   6.697   1.728   4.807 -3.2714  0.5269  1.8725
  950MOL0     H25384   7.091   1.954   4.381  0.1302  1.3139  1.2764
  950MOL0     H25385   7.301   1.893   4.266 -1.3081 -3.3896 -2.8812
  950MOL0     H25386   8.842   1.230   4.451 -0.1795 -1.4317  0.4540
  950MOL0     H25387   9.049   1.084   4.472 -0.8525 -0.4047  1.7971
  950MOL0     H25388   9.608   1.026   4.780  0.4716 -0.5061  0.0670
  950MOL0     H25389   9.776   0.887   4.672 -1.1099 -0.8346  0.3862
  950MOL0     H25390   9.643   0.652   4.313  1.4688  0.8220 -0.9210
  950MOL0     H25391   9.684   0.526   4.431 -2.3976  2.1486  1.5556
  950MOL0     H25392   9.820   0.539   4.230  0.8697 -1.6190  1.0311
  950MOL0     H25393   9.873   0.700   4.282 -0.1422 -0.6556 -4.4851
  950MOL0     H25394   9.906   0.435   4.448  1.7606 -0.4624  1.7647
  950MOL0     H25395  10.015   0.583   4.463  3.5834  0.8297 -3.5589
  950MOL0     H25396  10.004   0.379   4.240  0.3881  0.0908  0.4805
  950MOL0     H25397  10.089   0.534   4.230  0.1480  0.2652  0.1516
  950MOL0     H25398  10.358   0.302   4.439 -0.8784 -0.5165  2.1709
  950MOL0     H25399   9.461   0.746   4.394 -1.7492  0.2572  0.5718
  950MOL0     H25400   9.309   0.883   4.512 -0.1702  3.0274  0.4369
  951MOL0     O25401   5.594   2.098   7.782  0.3095 -0.1297 -0.3771
  951MOL0     C25402   5.647   2.196   7.831 -0.5276 -0.3295  0.2473
  951MOL0     O25403   5.577   2.314   7.846  0.7482 -0.1152  0.0989
  951MOL0     C25404   5.452   2.326   7.796 -0.9993 -0.6461  0.4141
  951MOL0     C25405   5.351   2.313   7.884  0.3591 -0.1484 -0.2093
  951MOL0     C25406   5.222   2.313   7.826 -0.1174 -0.2774 -0.9061
  951MOL0     C25407   5.199   2.328   7.689 -0.2792  0.1917 -0.0209
  951MOL0     O25408   5.067   2.305   7.642 -0.2174  0.3636 -0.6109
  951MOL0     C25409   5.028   2.329   7.504 -0.5030 -0.3630 -1.0256
  951MOL0     C25410   4.890   2.267   7.481  0.4397  0.2933  0.5034
  951MOL0     C25411   4.790   2.362   7.523  0.0343 -0.1892 -0.0340
  951MOL0     C25412   4.652   2.333   7.469  0.2646 -0.9474 -0.2320
  951MOL0     C25413   4.578   2.207   7.505 -0.3509  0.6139 -0.7687
  951MOL0     C25414   4.555   2.166   7.650 -0.4764 -0.2144  0.0493
  951MOL0     C25415   4.655   2.058   7.694  1.0370  0.9357 -0.6283
  951MOL0     C25416   4.644   2.027   7.848  0.2012  0.5053  1.0216
  951MOL0     N25417   4.663   2.136   7.933  0.3231  0.0701  0.4873
  951MOL0     C25418   4.780   2.200   7.936 -1.3207  0.4882 -0.1872
  951MOL0     C25419   4.752   2.317   8.000 -1.0136  0.0658 -0.0521
  951MOL0     C25420   4.853   2.428   8.015 -0.4594 -0.7202  0.4227
  951MOL0     C25421   4.928   2.407   8.146 -0.1316 -0.0030  0.7109
  951MOL0     C25422   5.020   2.523   8.189 -0.6100 -0.2715 -0.1936
  951MOL0     C25423   5.161   2.466   8.226  1.1766  1.2199  0.5736
  951MOL0     O25424   5.229   2.581   8.274  0.1798  0.5235  0.4252
  951MOL0     C25425   5.353   2.568   8.329  0.7540  0.5901 -0.0321
  951MOL0     C25426   5.391   2.675   8.407 -0.2373  0.1224  0.2469
  951MOL0     C25427   5.508   2.667   8.490  0.2707 -0.1893  0.7273
  951MOL0     C25428   5.590   2.553   8.489  0.4816  0.3061 -0.2161
  951MOL0     C25429   5.705   2.542   8.584 -0.1457  0.6346  0.4219
  951MOL0     O25430   5.813   2.469   8.537 -0.6067  0.0053 -0.3896
  951MOL0     C25431   5.944   2.498   8.576 -0.6523  0.2914 -0.3418
  951MOL0     C25432   6.034   2.395   8.567  0.9176  0.0296 -0.1231
  951MOL0     C25433   6.165   2.408   8.601 -0.4023 -0.3144  0.1946
  951MOL0     C25434   6.217   2.530   8.643  0.8997  0.6639  0.4052
  951MOL0     O25435   6.346   2.535   8.665  0.2639  0.1804  0.1142
  951MOL0     C25436   6.411   2.651   8.724 -0.0853 -0.3355 -0.3809
  951MOL0     C25437   6.554   2.638   8.769  0.0227 -0.2093 -0.3013
  951MOL0     C25438   6.601   2.758   8.859 -0.2927  0.6233  0.0248
  951MOL0     C25439   6.753   2.761   8.894  0.2492 -0.5033 -0.0835
  951MOL0     C25440   6.787   2.874   8.999 -0.0171  0.5168  0.0408
  951MOL0     C25441   6.792   3.016   8.941 -0.0507  0.3220  0.6426
  951MOL0     C25442   6.759   3.132   9.040 -0.4972 -0.1237  1.3957
  951MOL0     C25443   6.878   3.149   9.132 -0.0474 -0.2707 -0.5204
  951MOL0    Cl25444   7.025   3.199   9.043 -0.2396 -0.0522 -0.0944
  951MOL0     C25445   6.131   2.635   8.664  0.6703  0.7984  0.4711
  951MOL0     C25446   5.989   2.616   8.639 -0.4268 -0.4103 -1.3048
  951MOL0     O25447   5.691   2.606   8.692  0.4185  0.5837 -0.3456
  951MOL0     C25448   5.563   2.460   8.387  0.4042  0.3967  0.3663
  951MOL0     C25449   5.442   2.467   8.305 -0.2463 -0.7905  0.7564
  951MOL0     N25450   4.623   2.310   8.041 -0.2497  0.3916  0.2925
  951MOL0     N25451   4.564   2.209   7.991 -0.1487  0.2905  0.1184
  951MOL0     C25452   5.315   2.342   7.603 -1.1271  0.0452 -0.6187
  951MOL0     C25453   5.438   2.343   7.657  0.7909 -0.2402 -0.9223
  951MOL0     C25454   5.783   2.191   7.873 -0.1462  0.3721 -0.1844
  951MOL0     C25455   5.845   2.302   7.930  0.4866 -0.2034 -0.1951
  951MOL0     C25456   5.968   2.299   7.994  0.1213  1.0390 -0.0379
  951MOL0     C25457   6.041   2.177   7.996  0.1013  0.3316 -0.7317
  951MOL0     O25458   6.155   2.186   8.068  0.1856  0.2996 -0.1017
  951MOL0     C25459   6.265   2.096   8.031  0.1341  0.0165 -0.6785
  951MOL0     C25460   6.393   2.189   8.046  0.8679 -0.1512  0.2537
  951MOL0     C25461   6.513   2.100   8.093  0.1887 -0.3568 -0.2172
  951MOL0     C25462   6.626   2.202   8.126  0.2212  0.1845 -0.3043
  951MOL0     C25463   6.757   2.123   8.139  0.4494 -0.4496  1.2869
  951MOL0     C25464   6.864   2.069   8.146  0.0876 -0.4625  0.1901
  951MOL0     C25465   5.983   2.069   7.929 -0.6038  0.0024  0.6798
  951MOL0     C25466   5.855   2.066   7.873  0.4835 -0.1072  0.2148
  951MOL0     H25467   5.360   2.294   7.990  1.5010 -0.7687 -0.4091
  951MOL0     H25468   5.139   2.290   7.892 -0.0772  0.2428 -0.6708
  951MOL0     H25469   5.090   2.280   7.429  0.5723  0.8459 -0.9675
  951MOL0     H25470   5.019   2.436   7.482 -0.5259 -0.8145 -3.4997
  951MOL0     H25471   4.883   2.173   7.537  0.8017  0.7837  1.3851
  951MOL0     H25472   4.890   2.250   7.373  0.1608  0.4837  0.4730
  951MOL0     H25473   4.808   2.465   7.490 -1.2744  0.0072 -0.2007
  951MOL0     H25474   4.796   2.372   7.631 -0.1937 -0.3203 -0.0092
  951MOL0     H25475   4.592   2.423   7.488  1.1920 -0.1565 -0.9605
  951MOL0     H25476   4.674   2.328   7.362  2.2186 -1.0943  0.1445
  951MOL0     H25477   4.628   2.127   7.449 -0.7326 -1.0775  1.2121
  951MOL0     H25478   4.482   2.217   7.453 -0.9959  0.8319  0.4458
  951MOL0     H25479   4.456   2.125   7.671  0.3452 -2.2051  0.3193
  951MOL0     H25480   4.562   2.257   7.710  3.1795  1.0458 -1.9439
  951MOL0     H25481   4.623   1.976   7.630  0.8415  1.1052 -0.7492
  951MOL0     H25482   4.759   2.084   7.671  0.9665  2.2636  0.4374
  951MOL0     H25483   4.722   1.954   7.872  3.7624  3.4416 -0.5777
  951MOL0     H25484   4.540   1.996   7.859 -0.0858  1.0317 -0.1367
  951MOL0     H25485   4.874   2.165   7.894 -1.3007  1.5405 -1.0697
  951MOL0     H25486   4.799   2.523   8.010  0.1080 -0.3996  0.3026
  951MOL0     H25487   4.926   2.432   7.933 -0.2108  2.1897  0.7010
  951MOL0     H25488   4.979   2.311   8.141 -1.3815 -0.6441  0.0211
  951MOL0     H25489   4.851   2.391   8.222  0.4799  0.6913  1.5082
  951MOL0     H25490   5.036   2.591   8.106  2.2769 -0.6259 -0.0428
  951MOL0     H25491   4.984   2.586   8.271  0.3887  0.1920 -0.0919
  951MOL0     H25492   5.203   2.425   8.133 -0.1021 -0.4625  0.6988
  951MOL0     H25493   5.151   2.391   8.305 -3.8920  1.3785  0.4107
  951MOL0     H25494   5.338   2.769   8.421  0.9086  0.6825  0.9193
  951MOL0     H25495   5.532   2.749   8.557 -0.0451 -0.7770  1.5707
  951MOL0     H25496   6.003   2.311   8.506 -1.0765  3.2358 -3.9970
  951MOL0     H25497   6.228   2.321   8.585 -0.0278  0.3830 -2.8891
  951MOL0     H25498   6.353   2.688   8.809  1.0302 -0.5243  0.4925
  951MOL0     H25499   6.404   2.733   8.652  2.4593  0.7938  0.5122
  951MOL0     H25500   6.612   2.620   8.678 -0.5697 -1.5189 -0.4360
  951MOL0     H25501   6.563   2.541   8.819 -0.9778 -1.3670 -2.2211
  951MOL0     H25502   6.537   2.762   8.947 -1.8669  0.0444 -1.0485
  951MOL0     H25503   6.582   2.849   8.801 -3.0877  1.1864  1.6338
  951MOL0     H25504   6.776   2.659   8.926 -2.7155 -1.8871 -1.9289
  951MOL0     H25505   6.809   2.772   8.801  1.9834  0.7808  1.0548
  951MOL0     H25506   6.873   2.844   9.059 -0.0954 -4.1216 -1.7541
  951MOL0     H25507   6.711   2.869   9.078 -0.8297  2.0673 -0.5875
  951MOL0     H25508   6.713   3.025   8.866 -0.8175  3.0690  1.6761
  951MOL0     H25509   6.887   3.035   8.891 -0.5197 -1.5700 -1.1067
  951MOL0     H25510   6.748   3.221   8.978 -0.4094 -1.3431 -0.4357
  951MOL0     H25511   6.666   3.108   9.093 -0.7766 -0.2830  0.8340
  951MOL0     H25512   6.906   3.062   9.192  2.9739  2.3799  2.3901
  951MOL0     H25513   6.859   3.231   9.202 -0.3051  0.6984 -1.6924
  951MOL0     H25514   6.162   2.735   8.694  0.2079  2.2243 -3.3110
  951MOL0     H25515   5.915   2.695   8.646  0.5139  0.6577 -2.8992
  951MOL0     H25516   5.637   2.384   8.363 -0.2648  0.5407 -2.5446
  951MOL0     H25517   5.426   2.384   8.237  0.4156 -1.0679  0.9315
  951MOL0     H25518   5.312   2.359   7.496  1.6840  0.1707 -0.7377
  951MOL0     H25519   5.536   2.353   7.613  1.5561  2.4950  1.1292
  951MOL0     H25520   5.795   2.397   7.913 -1.5957 -1.1630  0.2830
  951MOL0     H25521   5.999   2.389   8.045 -1.9400  0.6085  2.1909
  951MOL0     H25522   6.261   2.051   7.931  2.3137  1.3194 -1.4113
  951MOL0     H25523   6.274   2.011   8.099  1.0703 -0.7717 -1.7490
  951MOL0     H25524   6.413   2.230   7.947 -1.3852 -1.3730 -0.7681
  951MOL0     H25525   6.378   2.270   8.118  2.2152  2.5607 -2.2960
  951MOL0     H25526   6.541   2.024   8.020 -1.2934 -0.9220 -0.2393
  951MOL0     H25527   6.492   2.035   8.179  2.2667 -0.1023  0.5459
  951MOL0     H25528   6.637   2.268   8.039 -1.3273  2.8557  1.3794
  951MOL0     H25529   6.604   2.258   8.217  0.4950 -0.2313  0.0238
  951MOL0     H25530   6.959   2.020   8.157  1.2830  1.8287  0.8004
  951MOL0     H25531   6.036   1.975   7.935 -0.8900 -0.1850  0.3207
  951MOL0     H25532   5.816   1.985   7.813  0.0789  0.5344 -0.4063
  952MOL0     O25533   0.442   5.162   4.294  0.6597 -0.4743 -0.2375
  952MOL0     C25534   0.404   5.261   4.225 -0.0096 -0.3817 -1.4429
  952MOL0     O25535   0.277   5.302   4.196 -0.8643 -0.4213 -0.4009
  952MOL0     C25536   0.172   5.272   4.274 -0.3014  0.5534  0.2560
  952MOL0     C25537   0.057   5.235   4.208  1.3967 -0.5646  0.3477
  952MOL0     C25538  -0.063   5.236   4.282  0.6432 -0.3029  0.2993
  952MOL0     C25539  -0.059   5.250   4.422 -0.2705 -0.2723 -0.3454
  952MOL0     O25540  -0.170   5.245   4.501  0.1672 -0.6679 -0.3640
  952MOL0     C25541  -0.296   5.247   4.442  0.2607 -0.2489  0.6968
  952MOL0     C25542  -0.387   5.286   4.558 -0.1676 -0.1463 -0.1050
  952MOL0     C25543  -0.522   5.326   4.502 -0.4986  0.5366  0.3819
  952MOL0     C25544  -0.620   5.381   4.613  0.5706  0.1781  0.1761
  952MOL0     C25545  -0.748   5.458   4.565 -0.7072 -0.4684  0.2773
  952MOL0     C25546  -0.837   5.357   4.497  1.1035  0.4144 -0.3146
  952MOL0     C25547  -0.985   5.411   4.476 -0.0959 -0.2932 -0.8817
  952MOL0     C25548  -1.067   5.312   4.406  0.0386 -0.9771 -0.7559
  952MOL0     N25549  -1.094   5.191   4.484 -0.5765  0.3989  0.3763
  952MOL0     C25550  -1.088   5.060   4.434  0.0540  0.0250  0.6535
  952MOL0     C25551  -1.144   4.982   4.534  0.5121  0.2921 -0.0542
  952MOL0     C25552  -1.161   4.830   4.534 -0.9407 -0.4103  0.4030
  952MOL0     C25553  -1.297   4.780   4.475 -0.4658  0.2741 -0.3115
  952MOL0     C25554  -1.410   4.810   4.567 -0.2739 -0.2111 -0.1775
  952MOL0     C25555  -1.537   4.739   4.515  0.8911 -0.6134 -0.9073
  952MOL0     O25556  -1.639   4.760   4.614  0.5048  0.4954 -0.0311
  952MOL0     C25557  -1.765   4.714   4.601 -0.0338 -0.0662 -0.8576
  952MOL0     C25558  -1.849   4.722   4.720  0.7664 -0.0799  0.3298
  952MOL0     C25559  -1.974   4.657   4.719 -0.4776 -0.0658  0.3639
  952MOL0     C25560  -2.018   4.591   4.602  0.2081 -0.2203 -1.1914
  952MOL0     C25561  -2.157   4.532   4.592 -0.0704  0.4553 -1.4919
  952MOL0     O25562  -2.188   4.474   4.474 -0.0525 -0.0944 -0.3887
  952MOL0     C25563  -2.310   4.425   4.463  0.0478 -0.4986 -0.0131
  952MOL0     C25564  -2.374   4.451   4.338 -0.2592 -0.2727 -0.4268
  952MOL0     C25565  -2.503   4.395   4.313 -0.1914  0.4271 -0.3786
  952MOL0     C25566  -2.568   4.322   4.410  0.2503  0.1891  0.9142
  952MOL0     O25567  -2.688   4.268   4.395 -0.2831 -0.0744 -0.2908
  952MOL0     C25568  -2.739   4.267   4.271  0.5478 -0.7360  0.0039
  952MOL0     C25569  -2.887   4.209   4.301  0.3860  0.0268  0.5886
  952MOL0     C25570  -2.941   4.150   4.169 -0.7009 -0.4133  0.3105
  952MOL0     C25571  -3.089   4.112   4.180  0.6602  0.6992  0.4807
  952MOL0     C25572  -3.152   4.069   4.053 -0.7895 -0.1805  0.8777
  952MOL0     C25573  -3.302   4.066   4.054  0.4931  0.4753  0.5490
  952MOL0     C25574  -3.344   4.020   3.915 -0.1608 -0.1985 -0.0546
  952MOL0     C25575  -3.478   4.087   3.866  0.0107 -0.2775 -0.6975
  952MOL0    Cl25576  -3.603   4.061   3.998 -0.2787 -0.3640 -0.0021
  952MOL0     C25577  -2.504   4.288   4.530  0.8986  0.0766 -0.5870
  952MOL0     C25578  -2.376   4.338   4.553 -0.0618 -0.3070  0.3515
  952MOL0     O25579  -2.234   4.534   4.688 -0.3951 -0.3038  0.1362
  952MOL0     C25580  -1.935   4.592   4.489  0.0109  0.1278  0.3746
  952MOL0     C25581  -1.807   4.645   4.495 -0.7121  0.0883 -0.4086
  952MOL0     N25582  -1.177   5.063   4.642  0.8222  0.8991  0.8594
  952MOL0     N25583  -1.136   5.180   4.613  0.2257  0.9810 -0.4641
  952MOL0     C25584   0.062   5.262   4.490  0.2608 -0.6879 -0.2904
  952MOL0     C25585   0.180   5.276   4.421 -0.2124  0.2659  0.2610
  952MOL0     C25586   0.506   5.336   4.152 -0.2424  1.2279 -0.9101
  952MOL0     C25587   0.641   5.307   4.174 -0.4585 -0.7550  0.2839
  952MOL0     C25588   0.740   5.373   4.102  0.6207  0.5767 -0.6207
  952MOL0     C25589   0.701   5.473   4.003  0.0497  0.5269  0.1776
  952MOL0     O25590   0.802   5.522   3.927  0.3399 -0.3164 -0.6583
  952MOL0     C25591   0.777   5.645   3.856 -0.5222 -0.2537 -0.1656
  952MOL0     C25592   0.913   5.731   3.868 -0.0527  1.0282  0.1804
  952MOL0     C25593   1.023   5.675   3.782 -0.4478 -0.4576  0.6764
  952MOL0     C25594   1.154   5.761   3.790 -0.2864  0.4545  0.4796
  952MOL0     C25595   1.247   5.727   3.689 -0.2329 -0.5264  0.2096
  952MOL0     C25596   1.323   5.711   3.593 -0.1738  0.7634 -0.3619
  952MOL0     C25597   0.568   5.500   3.990  0.1228 -0.0146 -0.3644
  952MOL0     C25598   0.468   5.433   4.057 -0.1332 -0.3674 -0.1218
  952MOL0     H25599   0.049   5.205   4.104 -3.7394  0.6292  0.1210
  952MOL0     H25600  -0.158   5.210   4.236  1.1032  1.0975 -1.5297
  952MOL0     H25601  -0.328   5.151   4.400 -3.2590  0.8590  0.4868
  952MOL0     H25602  -0.299   5.323   4.363 -0.0329 -0.8958  0.0667
  952MOL0     H25603  -0.339   5.349   4.634  0.9560 -1.3010  0.1888
  952MOL0     H25604  -0.410   5.193   4.613 -1.8163 -1.2915 -2.5636
  952MOL0     H25605  -0.568   5.253   4.434  0.7165  0.4712 -0.4015
  952MOL0     H25606  -0.503   5.414   4.440  0.1999  0.9169  1.1249
  952MOL0     H25607  -0.645   5.309   4.691  0.5027  1.4444  1.3622
  952MOL0     H25608  -0.567   5.464   4.660 -0.5273  1.4167 -0.6885
  952MOL0     H25609  -0.714   5.538   4.499 -1.7789 -0.7066 -0.5832
  952MOL0     H25610  -0.795   5.493   4.657  1.6169  0.3546  1.2276
  952MOL0     H25611  -0.844   5.266   4.557  0.4811  0.5204 -0.2213
  952MOL0     H25612  -0.792   5.320   4.405 -0.2821 -0.1617 -0.7954
  952MOL0     H25613  -1.029   5.443   4.571  2.9964 -1.1062  0.9661
  952MOL0     H25614  -0.991   5.501   4.414  1.8446 -0.8746 -1.9995
  952MOL0     H25615  -1.010   5.290   4.315  0.8048 -0.9493 -0.2882
  952MOL0     H25616  -1.165   5.353   4.377  0.6634 -0.1631 -1.7727
  952MOL0     H25617  -1.040   5.034   4.339 -1.5638 -2.8151  0.4987
  952MOL0     H25618  -1.146   4.784   4.632 -2.0632 -3.7272 -0.8445
  952MOL0     H25619  -1.085   4.795   4.463 -0.8082  1.9887 -0.7523
  952MOL0     H25620  -1.278   4.675   4.451 -1.9629 -0.5303  1.7363
  952MOL0     H25621  -1.306   4.832   4.379  3.3840 -0.0699 -1.0395
  952MOL0     H25622  -1.396   4.777   4.671  2.2643  4.4035  1.1933
  952MOL0     H25623  -1.426   4.917   4.579 -1.2608 -0.4140  0.5613
  952MOL0     H25624  -1.523   4.632   4.497 -0.0503 -0.9227  0.1015
  952MOL0     H25625  -1.573   4.790   4.425  0.2158 -1.3979 -1.0970
  952MOL0     H25626  -1.810   4.755   4.816 -2.6739 -1.8600  2.5580
  952MOL0     H25627  -2.043   4.652   4.803  0.2468  0.8344  1.0363
  952MOL0     H25628  -2.320   4.498   4.256 -1.6612  0.4637 -0.9728
  952MOL0     H25629  -2.532   4.390   4.208  0.3848  1.0836 -0.5777
  952MOL0     H25630  -2.692   4.195   4.203  0.7427 -1.0743  0.4837
  952MOL0     H25631  -2.741   4.357   4.209 -0.7751 -1.1422 -0.5488
  952MOL0     H25632  -2.958   4.289   4.328 -1.1391 -0.3656 -1.8944
  952MOL0     H25633  -2.892   4.132   4.378 -0.3629 -0.8272 -0.2882
  952MOL0     H25634  -2.881   4.062   4.143  3.2694  1.3617  2.5264
  952MOL0     H25635  -2.927   4.225   4.091 -1.9592 -3.1280 -2.8118
  952MOL0     H25636  -3.113   4.036   4.255  0.7048 -0.3085 -0.4994
  952MOL0     H25637  -3.145   4.202   4.204 -3.1353 -2.0265  2.9083
  952MOL0     H25638  -3.113   3.972   4.019 -4.1029 -0.9196 -1.2917
  952MOL0     H25639  -3.119   4.140   3.976 -2.3500  1.0682  1.3166
  952MOL0     H25640  -3.341   4.164   4.082 -0.6601  0.7373 -1.6977
  952MOL0     H25641  -3.337   3.994   4.128 -4.1108  2.3212  0.4558
  952MOL0     H25642  -3.271   4.052   3.840 -0.3087  0.1478 -0.0496
  952MOL0     H25643  -3.345   3.911   3.901  0.2964 -0.0389 -1.4459
  952MOL0     H25644  -3.511   4.039   3.773  0.0808 -1.0529 -0.3313
  952MOL0     H25645  -3.458   4.194   3.857 -1.1710  0.0374  0.1126
  952MOL0     H25646  -2.548   4.215   4.597  2.8062 -1.0889 -0.5140
  952MOL0     H25647  -2.325   4.302   4.642 -1.9185 -1.0830  1.1775
  952MOL0     H25648  -1.973   4.548   4.397 -3.5051  0.5109  1.4733
  952MOL0     H25649  -1.747   4.628   4.406  2.2524 -0.8324  1.5909
  952MOL0     H25650   0.067   5.261   4.598 -1.2667 -0.8321 -0.2079
  952MOL0     H25651   0.277   5.304   4.461 -0.6163  3.2103 -0.6068
  952MOL0     H25652   0.673   5.243   4.256  2.6784  0.2310 -0.0340
  952MOL0     H25653   0.845   5.371   4.129 -0.6482  2.4110  6.3919
  952MOL0     H25654   0.701   5.707   3.905 -0.5834  0.5593 -1.2670
  952MOL0     H25655   0.757   5.625   3.750 -0.6794 -0.1761 -0.1511
  952MOL0     H25656   0.884   5.823   3.816  0.7416  1.2576  0.1266
  952MOL0     H25657   0.939   5.732   3.974  1.7688 -1.3632 -0.1698
  952MOL0     H25658   0.982   5.679   3.681 -0.6029 -2.3955  0.6177
  952MOL0     H25659   1.038   5.567   3.790 -1.7626 -0.6707  0.4749
  952MOL0     H25660   1.140   5.869   3.792 -2.8758  0.3317 -2.7782
  952MOL0     H25661   1.198   5.722   3.883 -0.7854  1.3705  1.1171
  952MOL0     H25662   1.385   5.703   3.505 -0.1109  0.0172 -0.2546
  952MOL0     H25663   0.523   5.576   3.927 -3.0261 -0.7055  0.8786
  952MOL0     H25664   0.368   5.473   4.048  0.3407  0.6564 -1.0792
  953MOL0     O25665   3.899   5.148   6.067  0.4193 -0.2572 -0.5787
  953MOL0     C25666   3.891   5.272   6.071  0.1500 -0.2852  0.4415
  953MOL0     O25667   3.793   5.349   6.018 -0.1644  0.4515  0.1451
  953MOL0     C25668   3.683   5.287   5.961 -0.7998 -0.3404  0.0766
  953MOL0     C25669   3.574   5.297   6.039 -0.3525  0.4567  0.3116
  953MOL0     C25670   3.465   5.216   6.020 -0.2110  0.7695 -0.0138
  953MOL0     C25671   3.464   5.130   5.899  0.3899 -0.4447 -1.3542
  953MOL0     O25672   3.355   5.050   5.865 -0.8936  0.1262  0.3231
  953MOL0     C25673   3.231   5.049   5.937  0.0362 -0.3478  0.0322
  953MOL0     C25674   3.166   5.176   5.883 -0.2919 -0.5145  0.3692
  953MOL0     C25675   3.019   5.171   5.899 -0.0712 -0.6436 -0.5344
  953MOL0     C25676   2.956   5.308   5.927  0.1112  0.0630  0.2104
  953MOL0     C25677   2.807   5.302   5.890 -0.7645 -0.1297  0.3462
  953MOL0     C25678   2.728   5.241   6.005  0.1884  0.3383  0.4510
  953MOL0     C25679   2.577   5.272   5.994  0.3665  0.5073  0.1888
  953MOL0     C25680   2.542   5.415   6.034 -0.8971 -0.3848  0.2424
  953MOL0     N25681   2.409   5.425   6.111 -0.0096 -0.6383 -0.0580
  953MOL0     C25682   2.414   5.375   6.238  0.0476 -0.7397  0.6953
  953MOL0     C25683   2.287   5.368   6.275 -0.1745  0.1921  0.4232
  953MOL0     C25684   2.238   5.344   6.411  0.2781  0.5182 -0.2121
  953MOL0     C25685   2.094   5.277   6.417 -0.4773  0.5518  0.5590
  953MOL0     C25686   2.094   5.135   6.361 -0.2621  0.6320 -0.1690
  953MOL0     C25687   1.957   5.062   6.373 -0.9894  0.1892 -0.2227
  953MOL0     O25688   1.871   5.143   6.292 -0.5328  1.0845 -0.4798
  953MOL0     C25689   1.745   5.105   6.282  0.3534 -0.0136 -0.7966
  953MOL0     C25690   1.688   5.005   6.357  0.9702 -0.6222 -0.0499
  953MOL0     C25691   1.553   4.982   6.359  0.0021  0.1654  0.4697
  953MOL0     C25692   1.467   5.054   6.272  0.4325  0.1758  0.4311
  953MOL0     C25693   1.322   5.024   6.278  0.3064 -0.8609 -0.2444
  953MOL0     O25694   1.284   4.911   6.341  0.0937  0.1439  0.6568
  953MOL0     C25695   1.150   4.895   6.343  0.0701  0.2399 -0.3358
  953MOL0     C25696   1.093   4.794   6.269 -0.4835  0.1492 -0.3492
  953MOL0     C25697   0.957   4.764   6.278 -0.1161 -0.4382 -0.3946
  953MOL0     C25698   0.875   4.834   6.368 -0.6658 -0.0432 -0.0700
  953MOL0     O25699   0.735   4.814   6.378 -0.2761  0.0566  0.3253
  953MOL0     C25700   0.650   4.894   6.465 -0.1812 -0.1859  0.7123
  953MOL0     C25701   0.508   4.862   6.440  0.6142 -0.4788  0.2402
  953MOL0     C25702   0.417   4.932   6.541 -0.8128 -0.0192  0.2824
  953MOL0     C25703   0.268   4.906   6.512  0.3628  0.2682  0.2591
  953MOL0     C25704   0.183   4.938   6.642 -0.0672 -0.6643 -0.0230
  953MOL0     C25705   0.044   4.884   6.620 -0.2108 -0.9575  0.6048
  953MOL0     C25706  -0.056   4.919   6.738 -0.4379 -0.8695 -0.3864
  953MOL0     C25707  -0.018   4.863   6.876 -0.0792 -0.2717  0.6050
  953MOL0    Cl25708  -0.164   4.862   6.978 -0.3259  0.3558  0.0819
  953MOL0     C25709   0.934   4.951   6.427  0.2153 -0.1302 -0.0456
  953MOL0     C25710   1.072   4.977   6.423 -0.1896 -0.1945  0.6033
  953MOL0     O25711   1.240   5.118   6.244 -0.3259  1.1976 -0.6521
  953MOL0     C25712   1.524   5.153   6.189 -0.5630 -0.7742 -0.2298
  953MOL0     C25713   1.658   5.182   6.194  0.6396  1.0753 -0.1503
  953MOL0     N25714   2.213   5.397   6.168  0.3125 -0.3572  0.3362
  953MOL0     N25715   2.283   5.420   6.057 -0.2950 -0.6322 -0.7704
  953MOL0     C25716   3.567   5.137   5.810  0.0757 -0.5474  0.2950
  953MOL0     C25717   3.680   5.210   5.843 -0.1390 -0.1048  0.4287
  953MOL0     C25718   3.993   5.348   6.142 -1.1297  0.5770  0.4280
  953MOL0     C25719   4.089   5.285   6.229  0.5005 -0.6280 -0.0091
  953MOL0     C25720   4.195   5.355   6.289 -1.2243 -0.2819 -0.3654
  953MOL0     C25721   4.219   5.491   6.257 -0.1150  0.1382  0.0409
  953MOL0     O25722   4.305   5.573   6.320 -0.4785 -0.2623 -0.0860
  953MOL0     C25723   4.408   5.532   6.406  0.4030  0.5575 -0.3273
  953MOL0     C25724   4.498   5.652   6.422  0.2823 -0.3751 -0.4479
  953MOL0     C25725   4.565   5.699   6.297 -0.6137 -0.4633 -0.0247
  953MOL0     C25726   4.523   5.838   6.247  0.3271 -0.6452 -0.3969
  953MOL0     C25727   4.637   5.901   6.175 -0.2074 -0.3655 -0.6489
  953MOL0     C25728   4.732   5.939   6.111 -0.1869 -0.3317 -0.1978
  953MOL0     C25729   4.135   5.546   6.156  0.4266  0.2778  0.3661
  953MOL0     C25730   4.023   5.479   6.105  0.3493 -0.0684 -0.1380
  953MOL0     H25731   3.576   5.348   6.135 -2.1332 -0.4291  0.8644
  953MOL0     H25732   3.381   5.227   6.089 -2.4447 -1.4845 -2.1564
  953MOL0     H25733   3.247   5.048   6.045 -0.9587 -0.3391  0.1867
  953MOL0     H25734   3.170   4.961   5.915 -2.9065  1.0985  1.8265
  953MOL0     H25735   3.194   5.184   5.778 -0.9089 -1.3354  0.1348
  953MOL0     H25736   3.214   5.259   5.936 -0.1728  0.8090 -1.7192
  953MOL0     H25737   2.988   5.108   5.983 -2.3903 -0.5819 -1.2749
  953MOL0     H25738   2.977   5.124   5.809 -1.0869 -3.1829  1.1392
  953MOL0     H25739   2.961   5.335   6.033 -2.4438  0.3316  0.3294
  953MOL0     H25740   3.001   5.386   5.866 -0.8258 -0.8704 -1.7409
  953MOL0     H25741   2.794   5.244   5.799 -1.1313  2.3765 -1.3105
  953MOL0     H25742   2.773   5.404   5.871  2.2484  0.8666 -0.2748
  953MOL0     H25743   2.768   5.276   6.101  1.4573 -1.9440  0.8307
  953MOL0     H25744   2.735   5.132   6.006  1.9376  0.3593 -1.6589
  953MOL0     H25745   2.539   5.257   5.893 -1.8696  1.6350  0.7879
  953MOL0     H25746   2.528   5.194   6.053 -0.6958  1.2380  0.3124
  953MOL0     H25747   2.544   5.472   5.940 -0.2638 -1.5074 -0.4496
  953MOL0     H25748   2.614   5.452   6.107 -1.5761 -2.2167  1.9529
  953MOL0     H25749   2.502   5.360   6.301  0.6579 -0.8039 -0.1502
  953MOL0     H25750   2.221   5.444   6.451 -2.6141  0.4624 -1.0484
  953MOL0     H25751   2.312   5.286   6.467  0.7393  0.2068 -1.1216
  953MOL0     H25752   2.022   5.329   6.353  1.1568  1.6790 -0.4349
  953MOL0     H25753   2.075   5.262   6.523 -0.9508 -0.9747  0.2715
  953MOL0     H25754   2.138   5.113   6.264 -2.1583 -4.3149 -0.2290
  953MOL0     H25755   2.161   5.090   6.435 -0.5523  2.9270  1.6264
  953MOL0     H25756   1.935   5.055   6.480  0.4038 -2.7513 -0.0295
  953MOL0     H25757   1.967   4.959   6.336  2.4306  0.5137 -0.4916
  953MOL0     H25758   1.741   4.943   6.428 -2.7166 -0.0288  3.6164
  953MOL0     H25759   1.513   4.899   6.417 -0.8283 -0.3687 -0.8262
  953MOL0     H25760   1.159   4.733   6.207  0.0550  1.0248 -0.6523
  953MOL0     H25761   0.912   4.677   6.232 -0.9277 -1.7688  2.6826
  953MOL0     H25762   0.671   5.001   6.459  0.5635 -0.3128  0.8666
  953MOL0     H25763   0.678   4.853   6.563  2.7672 -2.7415 -1.0049
  953MOL0     H25764   0.482   4.756   6.433  0.8177 -0.5248  0.1568
  953MOL0     H25765   0.487   4.895   6.337 -1.0027  2.7739  1.4586
  953MOL0     H25766   0.447   5.037   6.534  1.1478 -0.1718  3.7554
  953MOL0     H25767   0.435   4.901   6.645 -1.0851  0.6699  0.5436
  953MOL0     H25768   0.226   4.965   6.431  1.0980 -0.3793 -0.6044
  953MOL0     H25769   0.259   4.798   6.494  1.0614  0.0014  1.3846
  953MOL0     H25770   0.177   5.046   6.661 -2.4527 -0.7083 -0.1763
  953MOL0     H25771   0.235   4.894   6.727 -0.6559 -1.2914  0.0195
  953MOL0     H25772   0.041   4.776   6.605 -0.8835 -0.8452 -0.1603
  953MOL0     H25773  -0.005   4.925   6.531 -0.5194  0.8906  1.5529
  953MOL0     H25774  -0.080   5.026   6.746 -1.9918 -1.1143 -1.4461
  953MOL0     H25775  -0.156   4.880   6.718 -0.7248  0.4959 -1.8565
  953MOL0     H25776   0.054   4.929   6.924 -1.8207  0.4444  2.3535
  953MOL0     H25777   0.022   4.761   6.875  1.7474  0.4010  0.5924
  953MOL0     H25778   0.880   5.026   6.485  2.3134  3.2402 -2.1627
  953MOL0     H25779   1.122   5.060   6.472  2.9371 -0.2346 -2.1640
  953MOL0     H25780   1.462   5.208   6.119 -1.0232 -0.1972  0.6184
  953MOL0     H25781   1.702   5.259   6.131  2.0089 -1.9738 -3.2634
  953MOL0     H25782   3.559   5.084   5.716 -0.5419 -2.7452  1.4921
  953MOL0     H25783   3.768   5.205   5.779  0.0625 -1.6515  0.7821
  953MOL0     H25784   4.097   5.182   6.261  0.2571 -1.6853 -3.0218
  953MOL0     H25785   4.263   5.305   6.358 -1.2737 -1.3610 -1.0775
  953MOL0     H25786   4.455   5.441   6.367 -0.8971  0.9444 -2.9573
  953MOL0     H25787   4.355   5.506   6.499  0.1316 -1.0012 -0.8933
  953MOL0     H25788   4.456   5.738   6.475  2.5790 -0.5078  1.7581
  953MOL0     H25789   4.584   5.628   6.485  0.3582 -1.1102 -0.8202
  953MOL0     H25790   4.552   5.630   6.213 -1.7340 -0.3803  0.0725
  953MOL0     H25791   4.673   5.703   6.319 -0.6189 -0.4271 -0.0062
  953MOL0     H25792   4.443   5.832   6.172  0.1583  0.1234 -0.2866
  953MOL0     H25793   4.488   5.901   6.329 -2.0222 -3.5667  1.0093
  953MOL0     H25794   4.821   5.969   6.060 -0.6267  0.3744 -0.5611
  953MOL0     H25795   4.150   5.652   6.136  1.5836 -0.2583 -2.0254
  953MOL0     H25796   3.960   5.529   6.032  0.8612 -0.1739 -0.6684
  954MOL0     O25797  10.933   2.879   6.680 -0.6344  0.3161  0.4317
  954MOL0     C25798  11.004   2.950   6.607  0.1271  0.1531 -0.2588
  954MOL0     O25799  10.973   3.078   6.564  1.4118  0.3287  0.3135
  954MOL0     C25800  10.871   3.162   6.622 -0.4117  0.6980 -0.2618
  954MOL0     C25801  10.808   3.139   6.742 -0.1341  0.4605 -1.0288
  954MOL0     C25802  10.697   3.215   6.776  0.7568  0.3144  0.3899
  954MOL0     C25803  10.654   3.322   6.696  0.6203 -0.0082  0.0725
  954MOL0     O25804  10.548   3.405   6.742  0.2097 -0.5246 -0.4897
  954MOL0     C25805  10.434   3.347   6.793 -0.1697 -0.0264 -0.5881
  954MOL0     C25806  10.316   3.452   6.773  0.1196  0.7653 -0.2554
  954MOL0     C25807  10.223   3.390   6.667  0.3096  0.5639 -0.2579
  954MOL0     C25808  10.280   3.410   6.523 -0.4099 -0.5048  0.3975
  954MOL0     C25809  10.162   3.456   6.434  0.1448  0.5360  0.5898
  954MOL0     C25810  10.048   3.345   6.432 -0.6060 -0.2740  0.8743
  954MOL0     C25811   9.948   3.386   6.323 -0.0311  0.0785  0.3417
  954MOL0     C25812   9.826   3.293   6.328 -0.6315  0.3604 -0.0779
  954MOL0     N25813   9.719   3.346   6.400 -0.3594 -0.7206  0.0194
  954MOL0     C25814   9.682   3.304   6.525  0.6733 -0.1989  0.2097
  954MOL0     C25815   9.579   3.378   6.564  0.2591 -0.7984  0.3800
  954MOL0     C25816   9.523   3.379   6.713 -0.5885 -0.2145  0.0149
  954MOL0     C25817   9.374   3.347   6.728  0.1173 -0.8967  0.4267
  954MOL0     C25818   9.287   3.475   6.707 -0.3580  0.3002  0.3566
  954MOL0     C25819   9.139   3.462   6.739 -0.0657 -0.4318  0.1690
  954MOL0     O25820   9.130   3.377   6.847  0.0819 -0.2589  0.3096
  954MOL0     C25821   9.005   3.341   6.886  0.3148 -0.4022  0.1527
  954MOL0     C25822   8.991   3.233   6.975 -0.5690 -0.2803  0.1223
  954MOL0     C25823   8.867   3.181   7.026  0.2495 -0.6116 -0.0650
  954MOL0     C25824   8.753   3.235   6.963  0.0296 -0.1750  0.4551
  954MOL0     C25825   8.612   3.179   7.005 -0.6937  0.1311 -0.8370
  954MOL0     O25826   8.602   3.073   7.093  0.1510 -0.0068 -0.0839
  954MOL0     C25827   8.481   3.030   7.127 -0.0779 -0.3423 -1.1381
  954MOL0     C25828   8.474   2.900   7.177 -0.0293  0.9583  0.9125
  954MOL0     C25829   8.355   2.829   7.202  0.0003 -0.0569 -0.2716
  954MOL0     C25830   8.230   2.895   7.207 -0.2362  0.4027 -1.1889
  954MOL0     O25831   8.122   2.820   7.218  0.4721 -0.3262  1.0357
  954MOL0     C25832   8.040   2.850   7.331  0.6451 -0.3003  0.1688
  954MOL0     C25833   8.070   2.761   7.454 -1.6487  0.3480  0.8052
  954MOL0     C25834   8.204   2.802   7.526  0.5996  0.2885 -0.8472
  954MOL0     C25835   8.201   2.754   7.671  0.7841  0.0670 -0.1836
  954MOL0     C25836   8.335   2.787   7.745 -0.2979 -0.2578 -0.2904
  954MOL0     C25837   8.441   2.694   7.690 -0.0698  0.3828  0.4515
  954MOL0     C25838   8.570   2.711   7.765  0.0248 -0.3342  0.0035
  954MOL0     C25839   8.668   2.607   7.702 -0.3659  0.2178  0.1931
  954MOL0    Cl25840   8.818   2.621   7.786  0.1784 -0.0522  0.2157
  954MOL0     C25841   8.237   3.034   7.176  0.1061  0.1737  0.5681
  954MOL0     C25842   8.360   3.104   7.137  1.1873  0.2634  0.0081
  954MOL0     O25843   8.521   3.219   6.940 -0.1662  0.0599 -0.0298
  954MOL0     C25844   8.761   3.325   6.858  0.4953 -0.3977 -0.7184
  954MOL0     C25845   8.888   3.389   6.824 -0.4556 -0.0126  0.7228
  954MOL0     N25846   9.560   3.476   6.466 -0.0430 -0.2555 -0.0459
  954MOL0     N25847   9.645   3.462   6.374 -0.1657 -0.7074 -0.1887
  954MOL0     C25848  10.720   3.358   6.582  0.3167 -0.6289  0.9718
  954MOL0     C25849  10.830   3.279   6.551 -0.5716  0.3682  0.5258
  954MOL0     C25850  11.121   2.883   6.536  0.0005 -0.4069 -0.1201
  954MOL0     C25851  11.152   2.755   6.567  0.4103  0.2423 -0.3674
  954MOL0     C25852  11.251   2.685   6.506 -0.6555  0.1583  0.1490
  954MOL0     C25853  11.332   2.753   6.405  0.7236 -0.5810  0.8975
  954MOL0     O25854  11.440   2.673   6.356 -0.4567  0.5452  0.4571
  954MOL0     C25855  11.518   2.750   6.264  0.3051 -0.0497 -0.6874
  954MOL0     C25856  11.633   2.665   6.221 -0.0961 -0.2222 -0.1128
  954MOL0     C25857  11.725   2.633   6.343 -0.2728 -0.4631  0.4228
  954MOL0     C25858  11.838   2.538   6.305  0.6339 -0.1278  0.1586
  954MOL0     C25859  11.778   2.407   6.272 -0.3733 -0.2396 -0.1435
  954MOL0     C25860  11.735   2.296   6.232 -0.1076 -0.9042 -0.2726
  954MOL0     C25861  11.298   2.886   6.373  0.1467  0.6480  0.5203
  954MOL0     C25862  11.191   2.950   6.432  0.8472 -0.1917 -0.1569
  954MOL0     H25863  10.824   3.056   6.810 -3.6115 -0.0984 -0.7005
  954MOL0     H25864  10.652   3.201   6.874  2.3626  0.7434  1.2179
  954MOL0     H25865  10.443   3.334   6.901 -1.7233 -0.6325 -0.5006
  954MOL0     H25866  10.413   3.246   6.757  0.1634 -0.3005 -0.0161
  954MOL0     H25867  10.355   3.551   6.746  1.7167 -0.0440 -1.0562
  954MOL0     H25868  10.257   3.457   6.865  1.1049 -0.6795  0.4973
  954MOL0     H25869  10.124   3.436   6.675 -0.8431 -1.9614  1.8162
  954MOL0     H25870  10.210   3.283   6.690  0.3298  1.2385  3.5534
  954MOL0     H25871  10.350   3.494   6.525 -1.3401  0.4578 -2.4496
  954MOL0     H25872  10.328   3.318   6.489 -1.1689 -0.6899 -0.2164
  954MOL0     H25873  10.204   3.449   6.333  0.7699 -0.5866  0.9166
  954MOL0     H25874  10.133   3.557   6.465  2.8240  1.2537  1.0261
  954MOL0     H25875  10.007   3.346   6.533  2.2704  0.0270  2.1374
  954MOL0     H25876  10.082   3.245   6.405 -0.6686 -0.2705  0.7817
  954MOL0     H25877   9.908   3.487   6.332 -3.2798 -0.5063 -4.1550
  954MOL0     H25878   9.997   3.373   6.225 -0.2955 -2.3045  0.4556
  954MOL0     H25879   9.853   3.193   6.363 -2.4057 -0.3679 -0.6446
  954MOL0     H25880   9.796   3.282   6.223 -1.6043 -1.4720  0.3615
  954MOL0     H25881   9.735   3.240   6.595 -1.0803  2.0448  3.8763
  954MOL0     H25882   9.555   3.477   6.750  0.0824  0.0621 -1.2719
  954MOL0     H25883   9.577   3.301   6.768  2.5747  2.1808  0.6027
  954MOL0     H25884   9.353   3.309   6.828 -2.3575  1.8557  1.1053
  954MOL0     H25885   9.353   3.266   6.658 -0.3403 -0.4377  0.0283
  954MOL0     H25886   9.334   3.551   6.771 -1.1916  1.5581 -0.4585
  954MOL0     H25887   9.292   3.520   6.607 -2.4949  1.4960  0.7338
  954MOL0     H25888   9.095   3.411   6.653 -1.0739 -0.4460  0.6769
  954MOL0     H25889   9.095   3.562   6.755  1.5848  1.0106 -3.2675
  954MOL0     H25890   9.082   3.197   7.021 -0.0868  0.9167  0.1661
  954MOL0     H25891   8.864   3.103   7.101  1.5392 -0.7628 -0.1481
  954MOL0     H25892   8.570   2.851   7.176 -0.4449  0.0876 -0.6814
  954MOL0     H25893   8.373   2.726   7.233  0.5670  0.1474  0.1057
  954MOL0     H25894   7.939   2.814   7.306  1.9557 -2.9958 -1.7297
  954MOL0     H25895   8.032   2.956   7.353  0.7203  0.0894 -1.5342
  954MOL0     H25896   8.090   2.663   7.410 -0.5394  1.4089 -1.1904
  954MOL0     H25897   7.978   2.770   7.513 -1.4055  5.9646  0.9319
  954MOL0     H25898   8.208   2.911   7.534  2.8075  0.1949  0.1778
  954MOL0     H25899   8.287   2.768   7.462  2.2938  1.5623  0.5524
  954MOL0     H25900   8.115   2.789   7.729  0.0166 -2.6416  0.4736
  954MOL0     H25901   8.191   2.645   7.669 -0.8889  0.2003 -2.6586
  954MOL0     H25902   8.317   2.756   7.849 -0.3087 -3.2083 -1.0748
  954MOL0     H25903   8.349   2.893   7.722 -1.1758 -0.5718 -2.5099
  954MOL0     H25904   8.458   2.714   7.584 -0.5092  0.6468  0.4261
  954MOL0     H25905   8.413   2.589   7.703 -0.6235  0.5367  0.5383
  954MOL0     H25906   8.605   2.815   7.767  2.6279 -1.0942 -0.7421
  954MOL0     H25907   8.550   2.683   7.868  0.1529 -0.2115  0.0615
  954MOL0     H25908   8.683   2.627   7.595  0.4544 -1.0558  0.0421
  954MOL0     H25909   8.628   2.506   7.711 -0.3410  0.3473  2.0253
  954MOL0     H25910   8.145   3.090   7.174  0.2823  0.4509 -1.4409
  954MOL0     H25911   8.349   3.210   7.115  0.7803  0.8505  2.7510
  954MOL0     H25912   8.671   3.354   6.806  0.2205 -0.7474 -0.4439
  954MOL0     H25913   8.891   3.463   6.744  2.6999  1.3886  1.9463
  954MOL0     H25914  10.700   3.445   6.522  4.3769 -0.4930 -0.5063
  954MOL0     H25915  10.881   3.290   6.456 -2.4065 -0.2138 -0.5583
  954MOL0     H25916  11.095   2.699   6.640  1.2106  0.0654  0.1456
  954MOL0     H25917  11.273   2.582   6.533  0.9494  0.6033  0.6289
  954MOL0     H25918  11.557   2.839   6.313 -0.6280  1.2824 -2.2760
  954MOL0     H25919  11.459   2.786   6.179 -0.1158  0.9532  0.0085
  954MOL0     H25920  11.601   2.567   6.183  1.2146  0.8148 -4.4145
  954MOL0     H25921  11.686   2.716   6.140 -0.4953 -0.4751 -0.5370
  954MOL0     H25922  11.673   2.600   6.433 -2.0983  1.8061  0.3188
  954MOL0     H25923  11.778   2.725   6.371  1.6611 -1.2919 -0.3583
  954MOL0     H25924  11.893   2.576   6.219  0.9036 -0.0508  0.3664
  954MOL0     H25925  11.911   2.533   6.386  0.6463 -1.8522  0.0768
  954MOL0     H25926  11.708   2.196   6.202  3.3024 -1.6616 -1.2274
  954MOL0     H25927  11.355   2.936   6.295  1.5416 -1.6391 -0.0112
  954MOL0     H25928  11.168   3.048   6.389 -0.4859 -0.6326 -0.5047
  955MOL0     O25929   0.375   3.169   6.225 -0.1055  0.3532 -0.5315
  955MOL0     C25930   0.424   3.274   6.186 -0.0536 -0.3194  0.4823
  955MOL0     O25931   0.358   3.395   6.160  0.2444  0.1516 -0.0783
  955MOL0     C25932   0.216   3.394   6.185 -0.8115 -0.0409 -0.6164
  955MOL0     C25933   0.166   3.382   6.315  0.7110 -0.1644  0.6584
  955MOL0     C25934   0.031   3.371   6.346  0.8671  0.2216  1.1208
  955MOL0     C25935  -0.057   3.394   6.233 -0.5120 -0.3299  0.6853
  955MOL0     O25936  -0.184   3.397   6.267  0.2032 -0.7711  0.4455
  955MOL0     C25937  -0.274   3.475   6.187 -0.0932 -1.0158 -0.3440
  955MOL0     C25938  -0.408   3.487   6.265 -0.7622  0.4815  1.0829
  955MOL0     C25939  -0.523   3.567   6.193 -0.0243 -0.2730  0.1255
  955MOL0     C25940  -0.580   3.491   6.072  0.0420 -0.7634  0.7588
  955MOL0     C25941  -0.699   3.568   6.024 -0.6766  0.7256  0.3405
  955MOL0     C25942  -0.825   3.543   6.106  0.1624 -0.0858 -0.2976
  955MOL0     C25943  -0.950   3.621   6.061 -0.1210 -1.3444 -0.3861
  955MOL0     C25944  -0.934   3.777   6.063  0.2487  0.5431 -0.4058
  955MOL0     N25945  -0.847   3.832   6.170 -0.3756  0.0088  0.1785
  955MOL0     C25946  -0.876   3.828   6.307  0.3355 -0.4121  0.4572
  955MOL0     C25947  -0.801   3.920   6.369  0.1627 -1.0686  0.6061
  955MOL0     C25948  -0.795   3.962   6.515 -0.5732  0.1233 -0.0436
  955MOL0     C25949  -0.760   3.847   6.610  0.2790 -0.8102 -0.0833
  955MOL0     C25950  -0.629   3.779   6.575  0.3023  0.0004 -0.2969
  955MOL0     C25951  -0.500   3.859   6.581 -0.5436  0.7971  0.0510
  955MOL0     O25952  -0.396   3.759   6.551 -0.1354 -0.1622 -0.2555
  955MOL0     C25953  -0.257   3.788   6.541 -0.4342 -0.2300  0.3760
  955MOL0     C25954  -0.165   3.691   6.481 -0.0946  0.2067  0.5296
  955MOL0     C25955  -0.029   3.716   6.459 -0.3553  0.0628 -0.2606
  955MOL0     C25956   0.019   3.842   6.483 -0.0161 -0.4331 -0.4741
  955MOL0     C25957   0.167   3.881   6.448 -0.4796 -0.1728 -0.3188
  955MOL0     O25958   0.228   3.823   6.341  0.0570  0.3452 -0.0200
  955MOL0     C25959   0.362   3.852   6.324  0.0545  0.5261  0.0827
  955MOL0     C25960   0.422   3.981   6.314 -0.1930  0.6055 -0.0549
  955MOL0     C25961   0.561   4.002   6.300  0.1864  0.4710 -0.6697
  955MOL0     C25962   0.647   3.888   6.295 -0.7387  0.6312  0.1862
  955MOL0     O25963   0.778   3.914   6.306  0.1258 -0.1620 -0.1249
  955MOL0     C25964   0.872   3.806   6.277 -1.1019 -0.3319 -0.5144
  955MOL0     C25965   1.021   3.851   6.285 -0.0747 -0.2880  0.0868
  955MOL0     C25966   1.059   3.974   6.200  0.0793  0.4891  0.5551
  955MOL0     C25967   1.210   4.011   6.200 -0.6228  1.2253  0.3583
  955MOL0     C25968   1.235   4.140   6.122  0.2503  0.3334  0.4856
  955MOL0     C25969   1.385   4.180   6.114  0.5191  0.4034 -0.9187
  955MOL0     C25970   1.415   4.309   6.033  0.1961 -0.3178  0.5331
  955MOL0     C25971   1.384   4.322   5.886  0.2884  0.4539 -0.0224
  955MOL0    Cl25972   1.455   4.184   5.794  0.2459  0.1220 -0.1714
  955MOL0     C25973   0.592   3.758   6.299  0.0591  0.0031  0.0770
  955MOL0     C25974   0.452   3.745   6.316 -0.2805 -0.4130  0.6312
  955MOL0     O25975   0.210   3.963   6.529 -0.6040  0.1230  0.3579
  955MOL0     C25976  -0.065   3.940   6.547  0.2065  0.3397  0.0554
  955MOL0     C25977  -0.200   3.904   6.575 -0.0038 -0.2543  0.3462
  955MOL0     N25978  -0.721   3.968   6.271 -0.0107  0.0034  0.3782
  955MOL0     N25979  -0.738   3.908   6.156 -0.1900 -0.0347 -0.3584
  955MOL0     C25980  -0.009   3.414   6.099 -0.2069  0.7552  0.5293
  955MOL0     C25981   0.128   3.401   6.076  0.3262  0.4602  0.9423
  955MOL0     C25982   0.570   3.263   6.151 -0.1392 -0.1169  0.3981
  955MOL0     C25983   0.641   3.145   6.188  0.2800 -0.3864  0.1281
  955MOL0     C25984   0.775   3.124   6.149  0.3220  0.1313 -0.2946
  955MOL0     C25985   0.834   3.228   6.074 -0.2847 -0.2428 -0.4743
  955MOL0     O25986   0.964   3.211   6.025 -0.4019  0.3314  0.1070
  955MOL0     C25987   1.037   3.092   6.060  0.1535 -0.6788 -0.3629
  955MOL0     C25988   1.188   3.103   6.032 -0.4732 -0.1553  0.0660
  955MOL0     C25989   1.233   3.132   5.896 -0.3470 -0.0295  0.3895
  955MOL0     C25990   1.389   3.106   5.873  0.3839 -0.7957 -0.1992
  955MOL0     C25991   1.465   3.227   5.900  0.1798 -1.0697  0.4068
  955MOL0     C25992   1.516   3.330   5.939  0.4333  0.3943 -0.2109
  955MOL0     C25993   0.765   3.350   6.047 -0.6833  0.6353 -1.0595
  955MOL0     C25994   0.637   3.369   6.088  0.6354  0.5529  0.2890
  955MOL0     H25995   0.230   3.364   6.400  0.1043  0.6841  1.3144
  955MOL0     H25996  -0.006   3.357   6.447  0.4293 -0.6932  0.8439
  955MOL0     H25997  -0.299   3.424   6.093  0.1799  1.2886 -1.7548
  955MOL0     H25998  -0.236   3.573   6.156 -2.2028 -0.0932 -0.2067
  955MOL0     H25999  -0.391   3.540   6.359 -0.2987 -0.5952  1.6206
  955MOL0     H26000  -0.436   3.384   6.289  3.7239 -1.6208 -1.5289
  955MOL0     H26001  -0.484   3.667   6.172  0.5437 -0.2423  1.2990
  955MOL0     H26002  -0.606   3.572   6.264  1.5229  2.4020  1.9244
  955MOL0     H26003  -0.511   3.484   5.988 -0.8639  0.2698 -0.0924
  955MOL0     H26004  -0.619   3.394   6.103 -1.4414 -0.9457 -1.5292
  955MOL0     H26005  -0.711   3.539   5.919 -0.3126 -0.2638  0.5614
  955MOL0     H26006  -0.683   3.676   6.019 -2.6877  1.0970  0.9569
  955MOL0     H26007  -0.807   3.558   6.213  1.0581 -2.6395 -0.0202
  955MOL0     H26008  -0.848   3.437   6.091  0.4923 -0.0835 -0.8450
  955MOL0     H26009  -0.983   3.583   5.964 -1.3563  0.6326 -0.7977
  955MOL0     H26010  -1.031   3.602   6.132  0.1404  1.0897  0.6855
  955MOL0     H26011  -1.032   3.823   6.081 -0.7340 -1.0780 -1.3670
  955MOL0     H26012  -0.906   3.806   5.962 -1.2423  1.7612 -0.5139
  955MOL0     H26013  -0.958   3.777   6.356 -0.2040  0.6416  0.7029
  955MOL0     H26014  -0.893   3.992   6.553 -0.1529  2.5508 -0.7048
  955MOL0     H26015  -0.720   4.039   6.532  1.6529 -1.7870 -0.6626
  955MOL0     H26016  -0.841   3.775   6.596  0.6739 -1.6312  1.5931
  955MOL0     H26017  -0.753   3.876   6.715 -0.8635  2.7813 -0.8742
  955MOL0     H26018  -0.615   3.699   6.650 -0.9760  1.3929  1.5042
  955MOL0     H26019  -0.643   3.730   6.479  2.5939 -2.6575  0.5567
  955MOL0     H26020  -0.483   3.902   6.681  3.3932 -1.0845  0.3685
  955MOL0     H26021  -0.498   3.931   6.499 -0.9439 -0.8191 -1.4339
  955MOL0     H26022  -0.202   3.590   6.465  2.3321 -0.9691  1.8160
  955MOL0     H26023   0.040   3.649   6.409  2.6516  0.8614  2.4979
  955MOL0     H26024   0.363   4.071   6.328 -2.6465 -1.2409  3.0055
  955MOL0     H26025   0.614   4.095   6.321  0.4142  0.1370  0.3325
  955MOL0     H26026   0.863   3.771   6.174  0.6855  1.1344 -1.2216
  955MOL0     H26027   0.859   3.733   6.357  0.0069 -1.2234 -1.1168
  955MOL0     H26028   1.080   3.763   6.256  2.9557  0.2053  3.9190
  955MOL0     H26029   1.047   3.858   6.391  1.6561 -1.3159 -0.2251
  955MOL0     H26030   0.999   4.053   6.248 -0.7845 -0.6854  1.4598
  955MOL0     H26031   1.026   3.965   6.096  0.8752  0.1235  0.3261
  955MOL0     H26032   1.237   4.022   6.305 -1.1019 -3.9199  1.2879
  955MOL0     H26033   1.280   3.938   6.158  1.5676  2.0204  2.4186
  955MOL0     H26034   1.179   4.222   6.167 -0.5410 -0.1212  0.3514
  955MOL0     H26035   1.196   4.122   6.021  0.7674  0.8979  0.1716
  955MOL0     H26036   1.440   4.095   6.072 -1.9227 -2.3335  0.9879
  955MOL0     H26037   1.411   4.203   6.218  0.1509 -0.1247 -0.7091
  955MOL0     H26038   1.363   4.391   6.083 -1.6772 -0.4677 -1.0285
  955MOL0     H26039   1.521   4.336   6.036 -0.2697  1.8277 -0.3907
  955MOL0     H26040   1.419   4.422   5.858 -0.2853  0.3339 -1.2290
  955MOL0     H26041   1.277   4.322   5.864  0.1476  0.4801  0.6555
  955MOL0     H26042   0.654   3.668   6.305 -1.5071 -1.0703  0.7665
  955MOL0     H26043   0.406   3.646   6.315 -0.8565 -0.2603 -3.1348
  955MOL0     H26044  -0.040   4.035   6.594 -3.0418  0.0432  2.7150
  955MOL0     H26045  -0.252   3.981   6.633  1.1070 -2.1711  4.2105
  955MOL0     H26046  -0.073   3.440   6.015  1.5035  1.3106 -0.6357
  955MOL0     H26047   0.164   3.412   5.974 -0.7468  0.9200  0.6044
  955MOL0     H26048   0.584   3.073   6.245  0.3801  0.6039  1.5244
  955MOL0     H26049   0.816   3.031   6.185 -0.9875  0.2194  1.5495
  955MOL0     H26050   0.991   3.006   6.009  0.8843 -0.5173 -1.3323
  955MOL0     H26051   1.031   3.058   6.163 -0.4189 -0.3886 -0.3004
  955MOL0     H26052   1.237   3.175   6.098  1.9572 -1.4205 -0.2292
  955MOL0     H26053   1.228   3.003   6.052 -2.1410 -1.3281 -2.0644
  955MOL0     H26054   1.212   3.239   5.884 -0.4616  0.1083  1.6679
  955MOL0     H26055   1.181   3.073   5.820  0.1368  1.7799 -1.4420
  955MOL0     H26056   1.439   3.021   5.920 -0.0306 -1.7904 -1.4819
  955MOL0     H26057   1.413   3.076   5.771 -0.2554  0.0626 -0.6157
  955MOL0     H26058   1.563   3.424   5.959 -1.1987  1.2312 -0.0868
  955MOL0     H26059   0.828   3.420   5.994 -0.3911  1.4027  0.2628
  955MOL0     H26060   0.583   3.462   6.081 -2.7741 -0.9356  3.1769
  956MOL0     O26061  11.041   7.954   4.286 -0.7076 -0.0152 -0.6120
  956MOL0     C26062  11.043   7.940   4.410 -0.1633 -0.0470  0.5240
  956MOL0     O26063  10.948   7.987   4.496  0.1024 -0.2493  0.0560
  956MOL0     C26064  10.827   8.029   4.441 -0.4308  1.1414  0.1810
  956MOL0     C26065  10.771   8.133   4.511  0.1504  0.4814  0.7197
  956MOL0     C26066  10.649   8.185   4.474 -0.2130  0.3341  0.4049
  956MOL0     C26067  10.578   8.133   4.369  0.9776  0.4929 -0.5670
  956MOL0     O26068  10.463   8.187   4.328 -0.0938 -1.0861  0.0153
  956MOL0     C26069  10.348   8.102   4.325 -0.1197 -1.1987  0.1530
  956MOL0     C26070  10.237   8.175   4.251 -0.2782  0.9035 -0.1177
  956MOL0     C26071  10.117   8.073   4.228  0.5958 -0.4208  0.0776
  956MOL0     C26072  10.008   8.144   4.146 -0.0228  0.3950 -0.3861
  956MOL0     C26073   9.894   8.045   4.133 -0.4889  0.9586  0.0519
  956MOL0     C26074   9.766   8.112   4.089 -0.6790 -0.5646 -0.3478
  956MOL0     C26075   9.640   8.030   4.110 -0.0520  0.3488  0.3802
  956MOL0     C26076   9.633   7.900   4.018 -0.0787  0.3781  0.5763
  956MOL0     N26077   9.498   7.835   4.020 -0.7900 -0.4135  0.5706
  956MOL0     C26078   9.431   7.793   4.133  0.5721  0.8628 -0.0930
  956MOL0     C26079   9.301   7.784   4.099 -0.1908  0.4407  0.0245
  956MOL0     C26080   9.197   7.742   4.192  0.7929  0.0923  0.3398
  956MOL0     C26081   9.054   7.768   4.142  0.0933  0.0348 -0.7482
  956MOL0     C26082   8.947   7.771   4.257  0.2095 -0.8483 -0.3748
  956MOL0     C26083   8.808   7.780   4.206  0.3597  1.5210 -0.0771
  956MOL0     O26084   8.789   7.893   4.120  0.1338 -0.0041 -0.3932
  956MOL0     C26085   8.664   7.949   4.129  0.1101  0.8143  0.4572
  956MOL0     C26086   8.549   7.879   4.166  0.6640  0.3156  0.3653
  956MOL0     C26087   8.419   7.937   4.150 -0.0165  0.8207 -0.6289
  956MOL0     C26088   8.408   8.061   4.096 -0.1245 -0.2472  0.5797
  956MOL0     C26089   8.273   8.114   4.072 -0.5312 -1.1369 -0.3779
  956MOL0     O26090   8.259   8.239   4.016 -0.6495  0.3733 -0.1638
  956MOL0     C26091   8.140   8.309   4.007 -0.6549 -0.2088  0.4548
  956MOL0     C26092   8.030   8.253   3.937  0.8706 -0.4290 -0.3861
  956MOL0     C26093   7.908   8.330   3.922 -0.4626  0.4699 -0.2097
  956MOL0     C26094   7.896   8.452   3.981 -0.1554 -0.0134  0.5659
  956MOL0     O26095   7.792   8.539   3.962 -0.1589  0.6750 -0.2929
  956MOL0     C26096   7.677   8.489   3.894  0.5995  0.7615 -0.1998
  956MOL0     C26097   7.549   8.566   3.923  0.5441 -0.7090 -0.5884
  956MOL0     C26098   7.526   8.546   4.080 -0.1229  0.4355  0.5485
  956MOL0     C26099   7.394   8.605   4.108 -0.2157  0.1327  1.4459
  956MOL0     C26100   7.355   8.583   4.251 -0.1351 -0.7470  0.7146
  956MOL0     C26101   7.254   8.678   4.297  0.8918  0.0139 -0.2098
  956MOL0     C26102   7.126   8.665   4.214  0.4599 -0.1294 -0.2037
  956MOL0     C26103   7.028   8.761   4.284  0.3836 -0.2476 -0.0969
  956MOL0    Cl26104   6.876   8.770   4.186 -0.1816  0.3731  0.1409
  956MOL0     C26105   8.006   8.502   4.051  0.0371 -0.0803 -0.3596
  956MOL0     C26106   8.124   8.431   4.068 -0.5980  0.5718 -0.4535
  956MOL0     O26107   8.174   8.044   4.103 -0.0442  0.2324 -0.1893
  956MOL0     C26108   8.523   8.120   4.046  0.2174 -0.5821  0.2456
  956MOL0     C26109   8.651   8.069   4.056  0.3278  0.5268 -0.7893
  956MOL0     N26110   9.295   7.807   3.965 -0.8386 -0.2793  0.1257
  956MOL0     N26111   9.413   7.850   3.921 -0.7724  0.2317 -0.4884
  956MOL0     C26112  10.637   8.026   4.298 -0.5664 -0.4969  0.1310
  956MOL0     C26113  10.761   7.979   4.331  0.2838  0.2009 -1.1983
  956MOL0     C26114  11.161   7.879   4.470 -0.1030 -0.0086 -0.7602
  956MOL0     C26115  11.167   7.840   4.606 -0.0164 -0.2974 -0.1512
  956MOL0     C26116  11.272   7.770   4.662  0.8248  0.4006 -0.6203
  956MOL0     C26117  11.392   7.743   4.584 -0.9425  0.8903  0.3222
  956MOL0     O26118  11.502   7.690   4.651  1.0951  0.6061  0.9750
  956MOL0     C26119  11.633   7.687   4.598 -0.2450 -0.6503  0.3997
  956MOL0     C26120  11.746   7.632   4.690 -0.4472 -0.2419 -0.4637
  956MOL0     C26121  11.710   7.497   4.740 -0.1869  0.9493 -0.2411
  956MOL0     C26122  11.765   7.371   4.664 -0.4540 -0.3629 -1.1236
  956MOL0     C26123  11.920   7.362   4.672 -0.0089 -0.2562 -0.2206
  956MOL0     C26124  12.042   7.356   4.673  0.6883 -0.9806  0.5493
  956MOL0     C26125  11.399   7.788   4.449 -0.2836 -0.5902 -0.3751
  956MOL0     C26126  11.282   7.856   4.397 -0.5377 -0.3270 -0.1846
  956MOL0     H26127  10.828   8.169   4.596 -1.3524 -1.4624  2.6410
  956MOL0     H26128  10.591   8.267   4.515 -1.2078  0.3221 -0.9068
  956MOL0     H26129  10.323   8.071   4.426  0.2915 -0.2918  0.5489
  956MOL0     H26130  10.373   8.011   4.271 -1.0048 -1.2686 -0.1640
  956MOL0     H26131  10.280   8.194   4.152  1.7486 -0.9705  0.3334
  956MOL0     H26132  10.201   8.263   4.306  4.1070  3.7666 -1.3127
  956MOL0     H26133  10.083   8.045   4.329  0.9425 -3.1096 -0.4744
  956MOL0     H26134  10.145   7.986   4.168 -2.8184 -1.6325  0.0001
  956MOL0     H26135   9.974   8.242   4.182 -1.8336 -0.7707  1.2541
  956MOL0     H26136  10.051   8.165   4.047 -0.0154  1.0269 -0.2541
  956MOL0     H26137   9.871   7.996   4.227 -0.2710  1.1031  0.1812
  956MOL0     H26138   9.920   7.977   4.051  1.2180  0.1320  1.2066
  956MOL0     H26139   9.787   8.138   3.985  2.3319  0.1112  0.3356
  956MOL0     H26140   9.745   8.198   4.152  1.0682 -2.0643  2.5022
  956MOL0     H26141   9.645   8.001   4.215  0.0148 -0.1945  0.2299
  956MOL0     H26142   9.556   8.097   4.089 -1.5479 -0.6173  2.9382
  956MOL0     H26143   9.717   7.840   4.055  2.2887  1.6661 -2.3128
  956MOL0     H26144   9.649   7.929   3.914  2.0304  0.0787  0.7815
  956MOL0     H26145   9.479   7.796   4.230  1.7190  0.8128 -0.6389
  956MOL0     H26146   9.219   7.788   4.289  2.7061 -1.7778  0.8666
  956MOL0     H26147   9.217   7.635   4.203  2.0158  0.4973  2.5881
  956MOL0     H26148   9.027   7.698   4.063 -1.2093  0.2793 -0.5461
  956MOL0     H26149   9.056   7.873   4.110  1.0199  1.3067  3.0097
  956MOL0     H26150   8.950   7.679   4.316  1.6143 -0.0464  0.8645
  956MOL0     H26151   8.965   7.854   4.326  2.0753 -1.0942 -0.4967
  956MOL0     H26152   8.745   7.787   4.295  1.2363 -0.2880  0.7350
  956MOL0     H26153   8.787   7.690   4.148  0.5716  1.7125 -0.4555
  956MOL0     H26154   8.562   7.777   4.202  2.9680  0.3547 -0.1460
  956MOL0     H26155   8.332   7.884   4.188 -0.0979  2.7351  2.2194
  956MOL0     H26156   8.035   8.161   3.879 -1.7541  1.7094 -4.4550
  956MOL0     H26157   7.821   8.287   3.874 -3.1659  3.8761  1.1692
  956MOL0     H26158   7.649   8.384   3.908 -1.9086  1.0628 -2.1710
  956MOL0     H26159   7.692   8.504   3.787 -2.2096 -0.0170 -0.7671
  956MOL0     H26160   7.467   8.524   3.864  0.1279 -2.3404  1.0642
  956MOL0     H26161   7.574   8.665   3.884  0.7777 -2.3908 -5.3500
  956MOL0     H26162   7.604   8.602   4.132  1.3217 -0.8272 -0.1871
  956MOL0     H26163   7.529   8.441   4.108  1.3455  0.3825  0.2734
  956MOL0     H26164   7.393   8.711   4.079 -1.3050 -0.5491 -1.2893
  956MOL0     H26165   7.324   8.548   4.047  0.7186  0.3696  0.1312
  956MOL0     H26166   7.444   8.612   4.308  2.1373  1.2548 -3.4073
  956MOL0     H26167   7.315   8.486   4.283 -1.3606 -0.3791  0.3777
  956MOL0     H26168   7.296   8.776   4.271  1.6406 -1.1670 -4.0721
  956MOL0     H26169   7.231   8.649   4.400 -1.2208  3.7018  0.5446
  956MOL0     H26170   7.145   8.699   4.112  1.3956 -0.6814 -0.2292
  956MOL0     H26171   7.078   8.567   4.209  0.3432 -0.1346  0.7627
  956MOL0     H26172   7.060   8.863   4.307 -1.7891  0.1516  1.4069
  956MOL0     H26173   7.008   8.708   4.378  0.2235 -0.0883 -0.0403
  956MOL0     H26174   7.991   8.602   4.093  0.3718  0.1298 -0.7368
  956MOL0     H26175   8.186   8.472   4.147 -0.7998  0.0936 -0.0436
  956MOL0     H26176   8.524   8.217   3.997 -0.4184 -1.5302 -1.7252
  956MOL0     H26177   8.738   8.124   4.020  0.2836  0.3817 -1.1203
  956MOL0     H26178  10.580   7.990   4.214  0.2274 -1.3185 -0.0740
  956MOL0     H26179  10.799   7.891   4.280 -1.2912 -0.1765 -1.7707
  956MOL0     H26180  11.069   7.846   4.653  0.5774 -0.4358  1.1650
  956MOL0     H26181  11.273   7.736   4.765  1.4499  1.6818 -0.1790
  956MOL0     H26182  11.663   7.792   4.589 -0.4527 -0.5112  1.2806
  956MOL0     H26183  11.642   7.637   4.501  2.9494 -0.9505  0.7454
  956MOL0     H26184  11.842   7.627   4.639 -1.2055 -0.8206 -1.8853
  956MOL0     H26185  11.760   7.693   4.780  0.9429 -1.5056  0.2204
  956MOL0     H26186  11.602   7.488   4.752  0.0078 -0.5117  0.7041
  956MOL0     H26187  11.739   7.470   4.842  0.7663 -1.1921 -1.0270
  956MOL0     H26188  11.718   7.280   4.704 -0.3941 -0.7171 -1.8518
  956MOL0     H26189  11.732   7.370   4.560 -0.5086 -0.8625 -1.1035
  956MOL0     H26190  12.147   7.334   4.661  0.4970 -1.3303 -0.5554
  956MOL0     H26191  11.484   7.773   4.384 -0.6493  0.6106 -1.1612
  956MOL0     H26192  11.287   7.894   4.295 -1.9334  0.1684 -0.0831
  957MOL0     O26193   5.282   4.808   6.031  1.1848 -0.3545  0.1195
  957MOL0     C26194   5.252   4.825   5.913 -0.4691 -0.4716 -0.4542
  957MOL0     O26195   5.137   4.867   5.869  0.1864 -0.1504  0.3601
  957MOL0     C26196   5.026   4.848   5.941 -0.3733 -0.2497 -0.4532
  957MOL0     C26197   5.005   4.739   6.028  0.0081 -0.5203 -0.2882
  957MOL0     C26198   4.888   4.724   6.101 -0.3900 -0.4222 -0.2844
  957MOL0     C26199   4.785   4.822   6.087 -0.9647  0.3377 -0.0528
  957MOL0     O26200   4.664   4.796   6.145 -0.3340  0.0781 -0.0870
  957MOL0     C26201   4.583   4.908   6.185 -0.0524  0.3628  0.2227
  957MOL0     C26202   4.459   4.855   6.268  0.0871 -0.2971  0.1570
  957MOL0     C26203   4.495   4.801   6.402  0.1314 -0.3749 -0.5653
  957MOL0     C26204   4.581   4.894   6.491 -0.9823  0.1375 -0.3219
  957MOL0     C26205   4.624   4.823   6.625  0.4276  0.7504  0.4334
  957MOL0     C26206   4.604   4.919   6.745 -0.0326  0.6621 -0.0199
  957MOL0     C26207   4.646   4.853   6.878  0.6175 -0.3098  0.3822
  957MOL0     C26208   4.576   4.925   6.999  0.2961 -0.0558  0.3710
  957MOL0     N26209   4.553   4.817   7.104  0.0909 -1.1538  0.0716
  957MOL0     C26210   4.648   4.759   7.182 -0.4887  0.3057 -1.2434
  957MOL0     C26211   4.594   4.643   7.219 -0.7932  0.4131  0.7692
  957MOL0     C26212   4.645   4.530   7.315  0.3952 -0.1440  0.7040
  957MOL0     C26213   4.661   4.392   7.238 -0.1344 -0.2115 -0.0584
  957MOL0     C26214   4.781   4.391   7.142  0.0171  0.0856 -0.3977
  957MOL0     C26215   4.794   4.252   7.071  0.1491  0.2799 -0.9602
  957MOL0     O26216   4.919   4.213   7.019  0.2744  0.8963  0.2460
  957MOL0     C26217   5.023   4.167   7.096 -0.1226  0.1555  0.6437
  957MOL0     C26218   5.023   4.157   7.235 -0.5397  0.0910 -0.9587
  957MOL0     C26219   5.135   4.107   7.304  0.6322 -0.2323  0.4950
  957MOL0     C26220   5.249   4.061   7.235  0.0169  0.4606  0.5108
  957MOL0     C26221   5.360   3.994   7.303  0.6430 -0.3332 -0.2156
  957MOL0     O26222   5.458   3.912   7.238  0.9300  0.0644  0.3432
  957MOL0     C26223   5.574   3.868   7.297 -0.0088  0.4530 -0.2775
  957MOL0     C26224   5.628   3.894   7.432 -0.1074 -0.8262  0.2718
  957MOL0     C26225   5.758   3.849   7.463  1.0183 -0.8441 -0.8994
  957MOL0     C26226   5.833   3.781   7.374 -0.6411 -0.0922  0.3356
  957MOL0     O26227   5.961   3.748   7.415  0.2683  0.3726  0.6333
  957MOL0     C26228   6.041   3.656   7.331  0.3448 -0.3614  0.6465
  957MOL0     C26229   6.160   3.626   7.416 -0.1085  0.2792  0.3002
  957MOL0     C26230   6.262   3.545   7.335  0.1705 -0.2244 -0.5821
  957MOL0     C26231   6.375   3.508   7.431 -0.0043 -0.1229  0.0994
  957MOL0     C26232   6.467   3.406   7.374 -0.4495 -0.3921 -0.6375
  957MOL0     C26233   6.576   3.384   7.476  0.1548 -0.7182  0.1901
  957MOL0     C26234   6.666   3.276   7.422 -0.1282 -0.7365 -0.1698
  957MOL0     C26235   6.767   3.229   7.521 -0.3389 -0.0807 -0.1463
  957MOL0    Cl26236   6.849   3.113   7.416  0.0059 -0.2081  0.2095
  957MOL0     C26237   5.784   3.761   7.244 -0.0654  0.1261 -0.2282
  957MOL0     C26238   5.654   3.803   7.199  0.8024 -0.6682  0.6104
  957MOL0     O26239   5.367   4.031   7.421 -0.6496 -0.1002  0.1928
  957MOL0     C26240   5.253   4.072   7.094  0.1032  0.9217 -0.2213
  957MOL0     C26241   5.139   4.115   7.027 -0.5000 -0.1721 -0.9518
  957MOL0     N26242   4.465   4.637   7.169 -0.4396  0.6322  0.7300
  957MOL0     N26243   4.442   4.738   7.099 -0.8130 -0.1656 -0.8033
  957MOL0     C26244   4.815   4.926   6.004 -0.6516 -0.1130 -0.0959
  957MOL0     C26245   4.927   4.938   5.923  0.5958  0.3478  0.8700
  957MOL0     C26246   5.367   4.810   5.809 -0.3190 -0.1484  0.9375
  957MOL0     C26247   5.338   4.794   5.667  0.4394 -0.0093 -0.0121
  957MOL0     C26248   5.437   4.758   5.581 -0.6160  0.6506  0.2144
  957MOL0     C26249   5.571   4.748   5.621 -0.7820 -0.3201  0.6823
  957MOL0     O26250   5.661   4.697   5.527  0.0701 -0.9238 -0.0873
  957MOL0     C26251   5.803   4.696   5.542  0.4883  0.1636  0.2781
  957MOL0     C26252   5.848   4.837   5.550 -0.6751  0.1961  0.2972
  957MOL0     C26253   5.994   4.862   5.500 -0.2847 -1.2009  0.4103
  957MOL0     C26254   6.016   5.011   5.457 -0.1021 -0.5109  0.1026
  957MOL0     C26255   6.136   5.017   5.376  0.1980 -0.2665  0.2502
  957MOL0     C26256   6.236   5.029   5.308 -0.0569  1.1398  0.0290
  957MOL0     C26257   5.602   4.776   5.756 -0.3065  0.3342  0.1992
  957MOL0     C26258   5.499   4.813   5.846 -0.1101 -0.3161  0.1741
  957MOL0     H26259   5.089   4.671   6.038  0.4048 -0.2429 -1.4602
  957MOL0     H26260   4.889   4.636   6.164 -2.5754 -0.9315 -0.8651
  957MOL0     H26261   4.547   4.969   6.102 -2.4318  0.1273  0.9988
  957MOL0     H26262   4.636   4.977   6.251  1.3275 -0.0265 -0.4460
  957MOL0     H26263   4.403   4.776   6.216 -0.2658  1.2691 -1.9273
  957MOL0     H26264   4.387   4.935   6.284  1.4332  0.6569  1.8178
  957MOL0     H26265   4.539   4.702   6.389  1.9019  0.2147  0.4524
  957MOL0     H26266   4.399   4.786   6.453 -0.3263  0.4145 -1.1695
  957MOL0     H26267   4.669   4.935   6.442 -0.7522 -0.4790 -0.4325
  957MOL0     H26268   4.521   4.981   6.520  1.1795 -0.0266  6.1204
  957MOL0     H26269   4.730   4.796   6.623 -0.3119 -2.6593 -0.2989
  957MOL0     H26270   4.561   4.734   6.636  0.9976  0.4177  1.0859
  957MOL0     H26271   4.497   4.944   6.738  0.2995  2.4094  0.7559
  957MOL0     H26272   4.662   5.009   6.727 -0.7329  0.7744 -1.8784
  957MOL0     H26273   4.619   4.747   6.877  2.0383 -0.6960 -0.7572
  957MOL0     H26274   4.755   4.849   6.890  0.5398 -0.9971  1.0132
  957MOL0     H26275   4.485   4.979   6.972  0.6713  0.2922 -0.2317
  957MOL0     H26276   4.634   5.013   7.029 -3.2218  1.7336  2.5851
  957MOL0     H26277   4.750   4.792   7.199 -0.2287  0.0809 -2.2896
  957MOL0     H26278   4.569   4.516   7.392 -1.9561  0.6278 -1.3346
  957MOL0     H26279   4.746   4.552   7.351  0.9680 -0.2436 -0.7799
  957MOL0     H26280   4.573   4.365   7.179  0.3568 -0.5543 -0.6436
  957MOL0     H26281   4.680   4.323   7.321  0.2941 -0.1345 -0.0945
  957MOL0     H26282   4.786   4.472   7.069  0.8688 -0.6051 -1.1254
  957MOL0     H26283   4.863   4.405   7.213 -0.5774  1.5392  0.0408
  957MOL0     H26284   4.720   4.237   6.992 -0.3909  1.8458 -0.8049
  957MOL0     H26285   4.777   4.178   7.149 -2.5783 -0.0459 -1.7539
  957MOL0     H26286   4.941   4.184   7.301  0.5793  1.1898  0.0300
  957MOL0     H26287   5.132   4.108   7.412  0.5936  1.1843  0.4896
  957MOL0     H26288   5.583   3.959   7.507  0.0117 -0.1150 -0.2619
  957MOL0     H26289   5.797   3.854   7.564  1.0777  0.7258 -0.9717
  957MOL0     H26290   6.076   3.695   7.235 -1.8735  2.3687  0.8448
  957MOL0     H26291   5.985   3.563   7.319  0.0134 -0.0322 -0.5162
  957MOL0     H26292   6.125   3.567   7.502 -1.3585  0.3639 -0.1385
  957MOL0     H26293   6.213   3.716   7.450 -2.1901  1.4561  0.6091
  957MOL0     H26294   6.303   3.604   7.253 -2.7605 -0.4302 -2.3388
  957MOL0     H26295   6.213   3.456   7.293 -0.4735  1.1084 -2.7982
  957MOL0     H26296   6.431   3.598   7.458  2.1049 -1.3495  0.0936
  957MOL0     H26297   6.333   3.467   7.524 -1.9696  1.3967 -0.0614
  957MOL0     H26298   6.513   3.446   7.284  2.6406 -0.5797  0.7448
  957MOL0     H26299   6.420   3.313   7.341 -0.1600  0.3445 -3.3731
  957MOL0     H26300   6.538   3.357   7.574  1.3679  0.6786  1.0802
  957MOL0     H26301   6.640   3.472   7.486 -0.2397 -0.2941 -0.8798
  957MOL0     H26302   6.601   3.197   7.384  0.7599 -0.3647 -2.6050
  957MOL0     H26303   6.725   3.305   7.335 -0.5738 -2.6854 -1.1666
  957MOL0     H26304   6.730   3.188   7.615 -1.5456  0.4836 -0.3539
  957MOL0     H26305   6.842   3.305   7.547  0.0281 -0.6627  0.5173
  957MOL0     H26306   5.858   3.713   7.181  1.7864  0.4328  1.6069
  957MOL0     H26307   5.628   3.798   7.094  2.7938  0.7197  0.0047
  957MOL0     H26308   5.333   4.037   7.030  0.2216  1.3342 -0.2996
  957MOL0     H26309   5.135   4.103   6.919  1.0936 -0.4661 -0.9931
  957MOL0     H26310   4.742   5.007   6.000  0.0486  0.6437  1.4601
  957MOL0     H26311   4.937   5.026   5.861 -3.0348 -0.5491 -1.2665
  957MOL0     H26312   5.240   4.792   5.622  1.0883 -0.1126 -1.4867
  957MOL0     H26313   5.400   4.730   5.482  0.4264 -2.0718  0.5022
  957MOL0     H26314   5.854   4.655   5.454  0.1625  1.9660 -0.8055
  957MOL0     H26315   5.834   4.636   5.629  1.0479  0.5719  0.3670
  957MOL0     H26316   5.787   4.898   5.483  2.4584  3.1606 -0.1240
  957MOL0     H26317   5.834   4.869   5.654 -3.0784 -1.7340  0.6568
  957MOL0     H26318   6.031   4.800   5.418  1.3217  1.2666 -0.8738
  957MOL0     H26319   6.063   4.835   5.580  2.5006  0.2270 -1.3582
  957MOL0     H26320   5.939   5.032   5.382  0.4717  1.6834  0.0498
  957MOL0     H26321   6.012   5.093   5.529  1.4568 -0.0695 -0.2736
  957MOL0     H26322   6.316   5.037   5.237 -0.8526  1.3803 -0.8638
  957MOL0     H26323   5.702   4.754   5.792 -1.1983 -0.8988  2.0828
  957MOL0     H26324   5.524   4.815   5.952  0.7421 -0.7511 -0.0121
  958MOL0     O26325   9.072   3.839   3.657  0.1589  0.4478  0.0742
  958MOL0     C26326   9.118   3.729   3.628  0.3578  0.2158 -0.1506
  958MOL0     O26327   9.058   3.643   3.545 -0.6798 -0.0525 -0.1498
  958MOL0     C26328   8.939   3.677   3.489  0.8534  0.0591 -0.3965
  958MOL0     C26329   8.827   3.703   3.567  0.5514 -0.4461 -0.1340
  958MOL0     C26330   8.704   3.716   3.507  0.2188 -0.4973  0.3871
  958MOL0     C26331   8.670   3.693   3.371 -0.4149  0.5858 -0.9421
  958MOL0     O26332   8.548   3.713   3.312  0.3007  0.0466  0.7085
  958MOL0     C26333   8.434   3.730   3.399  0.1872  0.5105 -0.1531
  958MOL0     C26334   8.299   3.723   3.311 -1.1134 -0.2119  0.7491
  958MOL0     C26335   8.191   3.803   3.393  1.2258 -0.3069 -0.1173
  958MOL0     C26336   8.056   3.817   3.314  0.5150 -0.2029 -0.3000
  958MOL0     C26337   7.941   3.854   3.419  0.4515 -0.5109  0.1108
  958MOL0     C26338   7.970   3.970   3.520 -0.0868  0.4853 -0.4427
  958MOL0     C26339   8.009   4.103   3.467  0.4876 -0.7522 -0.1086
  958MOL0     C26340   8.000   4.208   3.579 -0.0035  0.6331  0.6791
  958MOL0     N26341   7.992   4.343   3.518 -0.4064  0.4485 -0.2434
  958MOL0     C26342   8.091   4.429   3.476  0.8583 -0.8640  0.1016
  958MOL0     C26343   8.037   4.548   3.439  1.6648 -0.0698 -0.5151
  958MOL0     C26344   8.090   4.669   3.367  0.5906  1.0360  0.6581
  958MOL0     C26345   8.108   4.625   3.218 -0.1089 -0.1045 -0.9311
  958MOL0     C26346   8.178   4.737   3.142  0.3732 -0.3336 -0.2683
  958MOL0     C26347   8.315   4.789   3.193  0.8352 -0.1580  0.4265
  958MOL0     O26348   8.355   4.897   3.105 -0.5106 -1.1934 -1.1724
  958MOL0     C26349   8.481   4.947   3.129  0.5366  0.0096 -0.1061
  958MOL0     C26350   8.580   4.900   3.043 -0.3544  1.1240 -0.1553
  958MOL0     C26351   8.713   4.940   3.062  0.1472  1.2026  0.1684
  958MOL0     C26352   8.734   5.034   3.167 -0.4728 -0.2756 -0.0550
  958MOL0     C26353   8.866   5.096   3.182  0.0870 -0.2480 -0.3544
  958MOL0     O26354   8.961   5.053   3.101  0.1646 -0.0930 -0.3747
  958MOL0     C26355   9.089   5.097   3.083 -0.1054  0.3851 -0.7436
  958MOL0     C26356   9.169   5.028   2.994  0.7637  0.5491 -0.3578
  958MOL0     C26357   9.305   5.075   2.962  0.0915  0.9602 -0.5054
  958MOL0     C26358   9.346   5.198   3.014 -0.0109  0.7663 -0.2326
  958MOL0     O26359   9.472   5.237   2.987 -0.5241 -0.2838  0.1116
  958MOL0     C26360   9.539   5.334   3.065 -0.4482 -0.0077  0.3472
  958MOL0     C26361   9.686   5.348   3.028  0.2255  0.0478  0.0998
  958MOL0     C26362   9.762   5.219   3.068  0.5986  0.3672  0.2668
  958MOL0     C26363   9.912   5.236   3.059  0.1415  0.2707 -0.3913
  958MOL0     C26364   9.959   5.278   3.199  1.2710 -0.6810  0.5705
  958MOL0     C26365  10.113   5.267   3.206  0.1972 -0.1814 -0.0334
  958MOL0     C26366  10.171   5.311   3.336 -0.4304 -0.5218  0.5723
  958MOL0     C26367  10.098   5.265   3.473  0.2415 -0.0338  0.7506
  958MOL0    Cl26368  10.138   5.092   3.502 -0.6792 -0.0223 -0.2734
  958MOL0     C26369   9.256   5.269   3.090 -0.3512 -0.7709 -0.2499
  958MOL0     C26370   9.134   5.223   3.129  0.3416 -0.7378 -0.1300
  958MOL0     O26371   8.882   5.172   3.280 -0.0891  0.2947  0.5465
  958MOL0     C26372   8.628   5.081   3.241  0.5929  0.3504 -0.3001
  958MOL0     C26373   8.497   5.042   3.222  0.1530 -0.1763 -0.2509
  958MOL0     N26374   7.894   4.538   3.454 -0.9529 -0.1169 -0.4682
  958MOL0     N26375   7.873   4.414   3.492  0.2285 -0.5599  0.0522
  958MOL0     C26376   8.783   3.660   3.297 -0.2110 -0.8148 -0.0584
  958MOL0     C26377   8.914   3.643   3.352  0.2991 -0.0840 -0.4565
  958MOL0     C26378   9.244   3.697   3.699  0.3036  0.4786  0.2176
  958MOL0     C26379   9.330   3.786   3.766 -0.0355  0.9822  0.1310
  958MOL0     C26380   9.451   3.747   3.816 -0.1202  0.4878 -0.4432
  958MOL0     C26381   9.488   3.610   3.811  0.1112 -0.5793 -0.0585
  958MOL0     O26382   9.602   3.564   3.868  0.2880  0.2289  0.2968
  958MOL0     C26383   9.718   3.643   3.859 -0.4986  0.3889 -0.4334
  958MOL0     C26384   9.836   3.553   3.827 -0.2579 -0.5644 -0.4476
  958MOL0     C26385   9.969   3.634   3.831 -0.8783  0.4309  0.3910
  958MOL0     C26386   9.971   3.750   3.732 -0.3414  0.5102  0.5250
  958MOL0     C26387  10.098   3.829   3.742  0.6185  1.2164 -0.3151
  958MOL0     C26388  10.202   3.890   3.745 -0.3073 -1.1103  0.9219
  958MOL0     C26389   9.406   3.517   3.758 -0.0505  0.3758  0.1374
  958MOL0     C26390   9.292   3.561   3.691 -0.3096 -0.6616  0.0206
  958MOL0     H26391   8.847   3.735   3.669  1.9488  0.8368 -0.7747
  958MOL0     H26392   8.636   3.746   3.586  1.0729 -0.0443  0.9577
  958MOL0     H26393   8.448   3.826   3.449 -0.2200  1.0520 -1.0675
  958MOL0     H26394   8.435   3.659   3.483 -1.8758 -0.2700 -0.7174
  958MOL0     H26395   8.267   3.619   3.310  0.7271 -0.9108 -2.8625
  958MOL0     H26396   8.300   3.747   3.204 -0.9046 -0.2089  0.7502
  958MOL0     H26397   8.232   3.897   3.431 -1.5904  1.8952 -2.1126
  958MOL0     H26398   8.177   3.747   3.486 -3.4597  0.4329 -0.1713
  958MOL0     H26399   8.067   3.886   3.229  1.5138  1.0327  0.7991
  958MOL0     H26400   8.034   3.719   3.271  1.6031 -1.8254  2.5737
  958MOL0     H26401   7.921   3.767   3.482  0.8606  0.1311  1.1429
  958MOL0     H26402   7.851   3.866   3.357 -0.2911 -1.8004  0.8959
  958MOL0     H26403   8.048   3.936   3.588 -2.2223  2.1767  3.1300
  958MOL0     H26404   7.887   3.973   3.591  1.1125 -1.8441  1.1637
  958MOL0     H26405   8.115   4.102   3.441  0.9936  0.1954  1.7356
  958MOL0     H26406   7.949   4.130   3.380 -0.3341  0.2803  0.7372
  958MOL0     H26407   8.082   4.187   3.649  1.5138 -1.6623 -1.5941
  958MOL0     H26408   7.907   4.195   3.634 -0.4938  2.3572  0.3121
  958MOL0     H26409   8.190   4.391   3.453  0.6025 -0.4671 -1.8940
  958MOL0     H26410   8.187   4.697   3.409  1.7461 -1.0588 -0.4923
  958MOL0     H26411   8.024   4.756   3.373 -1.1035 -0.0671 -0.8348
  958MOL0     H26412   8.004   4.605   3.188 -1.6101  0.0197  3.4461
  958MOL0     H26413   8.174   4.539   3.213 -0.4489 -0.6162  1.8520
  958MOL0     H26414   8.192   4.719   3.035 -2.2916  0.6629 -0.8585
  958MOL0     H26415   8.110   4.821   3.157  0.4866 -0.2423 -0.2678
  958MOL0     H26416   8.385   4.707   3.176 -1.1940 -1.8276 -0.1974
  958MOL0     H26417   8.320   4.821   3.298  4.3638 -1.1999  0.7170
  958MOL0     H26418   8.558   4.828   2.965 -0.2210  0.0019  0.8149
  958MOL0     H26419   8.795   4.906   3.000  0.8289  0.4624  1.4504
  958MOL0     H26420   9.136   4.946   2.931  0.4128 -0.6061  1.2432
  958MOL0     H26421   9.361   5.012   2.894  0.1269 -0.1806  0.5390
  958MOL0     H26422   9.536   5.311   3.172  2.1567  2.7186  1.1404
  958MOL0     H26423   9.489   5.430   3.044 -0.1502  0.1376  0.2932
  958MOL0     H26424   9.732   5.436   3.075  0.6235 -0.3977  0.5512
  958MOL0     H26425   9.687   5.354   2.919 -0.0015 -1.7604 -0.0204
  958MOL0     H26426   9.728   5.150   2.990  0.9122  0.2044  0.2699
  958MOL0     H26427   9.724   5.175   3.160  1.7938 -0.5985  0.3389
  958MOL0     H26428   9.956   5.142   3.027  1.5418 -0.1331  2.4669
  958MOL0     H26429   9.930   5.319   2.990 -0.8367  1.5801  0.8435
  958MOL0     H26430   9.919   5.201   3.266 -0.1648 -1.0689 -0.6835
  958MOL0     H26431   9.920   5.378   3.221  1.2604 -0.1913 -1.4719
  958MOL0     H26432  10.163   5.318   3.123 -2.5400  0.0358 -1.6786
  958MOL0     H26433  10.132   5.162   3.180  2.1196  0.5052 -1.5924
  958MOL0     H26434  10.273   5.271   3.328 -0.4603 -0.3687 -0.8185
  958MOL0     H26435  10.166   5.420   3.346  2.4092  0.0556 -2.5001
  958MOL0     H26436   9.989   5.260   3.462 -0.0362  3.3195  1.0518
  958MOL0     H26437  10.116   5.332   3.557  1.0314  1.2565 -0.4099
  958MOL0     H26438   9.277   5.370   3.122 -1.0518 -0.4433 -0.7980
  958MOL0     H26439   9.079   5.292   3.192  0.5742  0.6495 -1.4013
  958MOL0     H26440   8.639   5.148   3.326  0.8964 -0.3800  0.2511
  958MOL0     H26441   8.413   5.070   3.286  1.2459  1.3782  0.5561
  958MOL0     H26442   8.777   3.650   3.189  0.0418  2.0723 -0.4083
  958MOL0     H26443   8.991   3.611   3.282 -0.1184  1.7597 -1.8187
  958MOL0     H26444   9.294   3.885   3.790  0.0802  0.5499  2.3399
  958MOL0     H26445   9.510   3.827   3.860  0.8392  1.1382 -2.7562
  958MOL0     H26446   9.736   3.687   3.958  0.5598 -1.2550  0.1558
  958MOL0     H26447   9.711   3.714   3.776  0.2426  0.4492 -0.4486
  958MOL0     H26448   9.844   3.473   3.901 -2.2150 -0.1484  0.3027
  958MOL0     H26449   9.830   3.518   3.724  2.8669  1.8221 -1.6144
  958MOL0     H26450  10.056   3.574   3.801 -1.3961 -0.1013 -0.0632
  958MOL0     H26451   9.986   3.667   3.934  2.3750  2.5746 -0.6829
  958MOL0     H26452   9.963   3.711   3.630 -3.0540  0.1994  0.7625
  958MOL0     H26453   9.889   3.823   3.740  0.5841  1.5615  0.5868
  958MOL0     H26454  10.294   3.945   3.752 -1.3202  0.4877  3.0512
  958MOL0     H26455   9.442   3.414   3.757  0.0921  0.4202  0.6688
  958MOL0     H26456   9.222   3.490   3.647 -2.3401  1.2341  0.0107
  959MOL0     O26457   5.281   0.023   4.877 -0.5165 -0.0978 -0.8180
  959MOL0     C26458   5.354  -0.070   4.847  0.8603  0.0491 -0.5095
  959MOL0     O26459   5.305  -0.191   4.790  0.2645  0.9612  0.2126
  959MOL0     C26460   5.166  -0.204   4.792 -0.3467 -0.3065 -0.6389
  959MOL0     C26461   5.093  -0.249   4.900 -0.9414  0.0291 -0.1468
  959MOL0     C26462   4.954  -0.245   4.904 -0.4915  0.3580  0.5347
  959MOL0     C26463   4.879  -0.205   4.806 -0.1063 -0.9523  0.5572
  959MOL0     O26464   4.743  -0.206   4.808 -0.6279 -0.0986 -0.4307
  959MOL0     C26465   4.674  -0.208   4.685  0.2812  0.4244 -0.4615
  959MOL0     C26466   4.512  -0.218   4.702 -0.7424  0.0607 -0.0281
  959MOL0     C26467   4.454  -0.246   4.562  0.8524  0.0141 -0.7160
  959MOL0     C26468   4.298  -0.262   4.559  0.8941  1.0354  0.4489
  959MOL0     C26469   4.238  -0.340   4.439 -0.7497 -0.2228 -0.0064
  959MOL0     C26470   4.097  -0.374   4.450  0.5614 -1.0032  0.5526
  959MOL0     C26471   4.054  -0.477   4.339 -0.1048  0.0997  0.1909
  959MOL0     C26472   3.906  -0.466   4.308 -0.1198  0.2120 -0.5011
  959MOL0     N26473   3.830  -0.571   4.382 -0.1596 -0.0895  0.3707
  959MOL0     C26474   3.840  -0.597   4.518  0.9314  0.5255  0.6613
  959MOL0     C26475   3.769  -0.716   4.529  0.2328 -0.2713  0.1331
  959MOL0     C26476   3.768  -0.802   4.659 -0.6757 -0.2191 -0.2948
  959MOL0     C26477   3.738  -0.726   4.798 -0.1375  0.3984  0.2578
  959MOL0     C26478   3.678  -0.807   4.910 -0.3009 -0.0778  1.4502
  959MOL0     C26479   3.784  -0.899   4.980 -0.2448  1.1551  0.4673
  959MOL0     O26480   3.894  -0.833   5.030 -0.0836  0.7649 -0.4617
  959MOL0     C26481   4.024  -0.893   5.022 -0.4388  0.3010 -0.4562
  959MOL0     C26482   4.089  -0.911   4.903 -0.4287  0.2218  0.1668
  959MOL0     C26483   4.218  -0.975   4.906 -0.5068  0.1929  1.0510
  959MOL0     C26484   4.274  -1.004   5.034  0.1252  0.5900  0.9502
  959MOL0     C26485   4.413  -1.053   5.031  0.5422  0.0281  0.3072
  959MOL0     O26486   4.476  -1.049   4.916  0.1163  0.0647  0.0340
  959MOL0     C26487   4.612  -1.067   4.914  0.7966  0.2898  0.4044
  959MOL0     C26488   4.704  -0.997   4.993 -0.6089 -0.1903  0.0218
  959MOL0     C26489   4.842  -1.009   4.976 -0.5204  0.2900 -0.5842
  959MOL0     C26490   4.891  -1.090   4.872 -0.3596  0.0928 -0.2079
  959MOL0     O26491   5.027  -1.117   4.847  0.1327  0.9883  0.3858
  959MOL0     C26492   5.109  -1.062   4.951  0.8010 -0.4032  0.5439
  959MOL0     C26493   5.233  -1.144   4.968  0.1991 -0.1437 -0.1588
  959MOL0     C26494   5.343  -1.117   4.864  0.0422 -0.2458 -0.1227
  959MOL0     C26495   5.467  -1.206   4.895 -0.2289 -0.2285 -0.0410
  959MOL0     C26496   5.571  -1.197   4.782  0.4481  0.9161 -0.2307
  959MOL0     C26497   5.618  -1.057   4.759  0.3668 -0.6817 -0.9897
  959MOL0     C26498   5.743  -1.064   4.665 -0.4432 -0.3749  0.2199
  959MOL0     C26499   5.774  -0.915   4.628 -0.4004  0.5791  0.1721
  959MOL0    Cl26500   5.926  -0.878   4.716  0.1293 -0.3205 -0.3326
  959MOL0     C26501   4.803  -1.158   4.793  0.2199 -0.3542 -0.5642
  959MOL0     C26502   4.662  -1.151   4.812 -0.1632  0.6559 -0.3775
  959MOL0     O26503   4.459  -1.089   5.144  0.8349  0.4693  0.3097
  959MOL0     C26504   4.211  -0.966   5.146  0.2075  0.7304  0.1875
  959MOL0     C26505   4.079  -0.932   5.145 -0.2978  0.1140 -0.4648
  959MOL0     N26506   3.706  -0.745   4.407 -0.2757 -0.2650 -0.4861
  959MOL0     N26507   3.749  -0.664   4.320 -0.9284 -0.2593 -0.8836
  959MOL0     C26508   4.951  -0.162   4.687  0.0092  0.3158 -0.8788
  959MOL0     C26509   5.091  -0.157   4.686 -0.6934  0.2272 -0.3558
  959MOL0     C26510   5.502  -0.064   4.856 -0.0900 -0.1330  0.4523
  959MOL0     C26511   5.584  -0.175   4.832  0.1561  0.3217  0.5198
  959MOL0     C26512   5.722  -0.160   4.825  0.0948  0.1493 -0.3778
  959MOL0     C26513   5.779  -0.038   4.846  0.3311 -0.5525  0.3339
  959MOL0     O26514   5.914  -0.038   4.836  0.0975 -0.4749  0.2886
  959MOL0     C26515   5.987   0.056   4.921  0.3182 -0.5100 -0.1264
  959MOL0     C26516   6.084  -0.017   5.015  0.1217 -0.4789 -0.3393
  959MOL0     C26517   6.213   0.062   5.024 -0.9954  0.0796 -0.4197
  959MOL0     C26518   6.288   0.077   4.889  0.4473 -1.2118  0.3408
  959MOL0     C26519   6.440   0.065   4.910  0.4935 -0.0908  0.2502
  959MOL0     C26520   6.559   0.056   4.950  0.6876  0.0735  0.2072
  959MOL0     C26521   5.695   0.077   4.874 -0.5685 -0.3174  0.0835
  959MOL0     C26522   5.560   0.058   4.874 -0.5448 -0.5004 -0.2797
  959MOL0     H26523   5.140  -0.273   4.995  0.2009  0.1316 -0.6773
  959MOL0     H26524   4.914  -0.301   4.988  0.9512 -2.0221 -0.2468
  959MOL0     H26525   4.703  -0.291   4.620  1.7606 -0.8359  1.6621
  959MOL0     H26526   4.678  -0.115   4.628 -0.5765  0.1401 -1.0094
  959MOL0     H26527   4.465  -0.134   4.754 -1.0517 -0.4081  0.4543
  959MOL0     H26528   4.485  -0.305   4.763 -2.0034 -0.7936 -1.7191
  959MOL0     H26529   4.493  -0.342   4.526 -2.1584 -0.9318 -1.7815
  959MOL0     H26530   4.478  -0.169   4.488 -0.1662 -2.3325 -3.7205
  959MOL0     H26531   4.258  -0.311   4.649  1.9811 -3.7549 -1.3910
  959MOL0     H26532   4.245  -0.167   4.553 -2.8054 -0.9931 -2.1822
  959MOL0     H26533   4.289  -0.435   4.421 -1.8273 -0.4453 -2.2500
  959MOL0     H26534   4.251  -0.280   4.349 -1.2711  1.0596  0.7465
  959MOL0     H26535   4.047  -0.278   4.431  0.4155 -1.2193 -0.1606
  959MOL0     H26536   4.074  -0.413   4.550  0.6194 -2.2098  0.1097
  959MOL0     H26537   4.111  -0.461   4.247  1.9775  0.8634  1.5334
  959MOL0     H26538   4.074  -0.573   4.386 -1.1503  0.8495  2.2852
  959MOL0     H26539   3.892  -0.480   4.200 -0.1357 -0.0152 -0.4712
  959MOL0     H26540   3.866  -0.367   4.333  0.2493  0.0069  0.9590
  959MOL0     H26541   3.901  -0.546   4.592 -0.1109  0.5870  1.5005
  959MOL0     H26542   3.869  -0.842   4.671 -0.5162 -0.0739 -1.0602
  959MOL0     H26543   3.703  -0.889   4.644 -1.4579 -0.0912  2.0708
  959MOL0     H26544   3.673  -0.644   4.767  2.9381  2.7718 -0.3682
  959MOL0     H26545   3.829  -0.675   4.832  0.2408  0.9003 -1.4457
  959MOL0     H26546   3.647  -0.745   4.995  1.9005  3.1953  0.0654
  959MOL0     H26547   3.602  -0.878   4.876  2.1342 -1.1781 -2.2843
  959MOL0     H26548   3.822  -0.962   4.899 -0.6837 -2.7221  2.9832
  959MOL0     H26549   3.738  -0.962   5.057  0.6700 -0.4125 -0.2091
  959MOL0     H26550   4.039  -0.871   4.815 -3.3758 -2.5287  0.3750
  959MOL0     H26551   4.271  -1.006   4.816  1.6551  0.8250  2.0442
  959MOL0     H26552   4.656  -0.937   5.069  1.0335 -0.3555  1.2267
  959MOL0     H26553   4.908  -0.966   5.050  0.8089 -3.8363  0.8952
  959MOL0     H26554   5.068  -1.067   5.052 -2.7955 -2.4525 -0.8331
  959MOL0     H26555   5.138  -0.959   4.928 -0.3056 -0.3587 -0.7871
  959MOL0     H26556   5.205  -1.249   4.951 -0.0997  0.2664 -2.5505
  959MOL0     H26557   5.276  -1.127   5.067 -1.1029 -0.5472  0.5088
  959MOL0     H26558   5.369  -1.012   4.878 -1.0533  0.0981 -0.6144
  959MOL0     H26559   5.308  -1.144   4.764  1.5627 -0.5045 -0.6133
  959MOL0     H26560   5.519  -1.169   4.984 -0.0216 -0.0280 -0.2442
  959MOL0     H26561   5.436  -1.309   4.916 -1.2752  0.5591  2.7975
  959MOL0     H26562   5.519  -1.227   4.691 -1.5591 -0.1499  1.1753
  959MOL0     H26563   5.646  -1.271   4.809  0.5957  0.1217 -2.5870
  959MOL0     H26564   5.638  -1.003   4.852  1.6592 -0.7844 -1.1960
  959MOL0     H26565   5.541  -0.998   4.708  1.2744  2.6129  1.1196
  959MOL0     H26566   5.826  -1.120   4.707 -0.2800 -2.9345 -3.0831
  959MOL0     H26567   5.700  -1.112   4.577 -1.0452 -1.0238  0.8484
  959MOL0     H26568   5.693  -0.849   4.660 -0.6533  0.8134 -0.9056
  959MOL0     H26569   5.790  -0.909   4.520  0.0249  1.5385  0.2868
  959MOL0     H26570   4.849  -1.224   4.721  2.3876 -0.1668  0.5549
  959MOL0     H26571   4.597  -1.220   4.758 -1.7992  0.3806  1.8365
  959MOL0     H26572   4.273  -0.971   5.236  3.2827  1.8432 -1.7053
  959MOL0     H26573   4.030  -0.910   5.240  1.7681  0.3518  0.6061
  959MOL0     H26574   4.883  -0.121   4.613 -2.3907 -1.9467 -0.0994
  959MOL0     H26575   5.154  -0.118   4.607  0.0500  3.9846  1.8629
  959MOL0     H26576   5.549  -0.272   4.798 -1.1947  0.9126  0.1361
  959MOL0     H26577   5.787  -0.240   4.789  0.9120  0.6365 -0.0095
  959MOL0     H26578   5.914   0.110   4.982  2.6368  0.1299  2.2688
  959MOL0     H26579   6.046   0.126   4.860  1.1877  0.3437  1.6084
  959MOL0     H26580   6.042  -0.013   5.116 -0.0915  1.8914 -0.4593
  959MOL0     H26581   6.100  -0.120   4.984  1.3768 -0.2130 -0.6299
  959MOL0     H26582   6.280   0.017   5.098  0.5930  1.3472 -1.0084
  959MOL0     H26583   6.191   0.156   5.076 -0.3935  0.6229 -1.1260
  959MOL0     H26584   6.251   0.003   4.817  2.6640 -3.2656  1.1804
  959MOL0     H26585   6.259   0.171   4.840 -2.8397 -0.9509  2.4682
  959MOL0     H26586   6.654   0.030   4.993  0.4896  1.4454  1.5383
  959MOL0     H26587   5.732   0.179   4.882  2.3759 -1.3457  0.5948
  959MOL0     H26588   5.500   0.148   4.882  1.4340  0.9017 -0.6954
  960MOL0     O26589   4.750   7.399   4.092 -0.0952 -0.0794  0.3139
  960MOL0     C26590   4.843   7.341   4.141 -0.1019  0.5326 -0.3729
  960MOL0     O26591   4.856   7.206   4.174 -0.1409 -0.0024  0.2765
  960MOL0     C26592   4.744   7.129   4.190  0.8772  0.2156 -0.7298
  960MOL0     C26593   4.632   7.134   4.108  0.2241 -0.0078 -0.8275
  960MOL0     C26594   4.507   7.087   4.145 -0.1152 -0.1181  0.9767
  960MOL0     C26595   4.493   7.003   4.258  0.4745  0.6541  0.5731
  960MOL0     O26596   4.373   6.939   4.303  0.5016 -0.1159 -0.3157
  960MOL0     C26597   4.264   6.981   4.228 -0.2220 -0.2254 -0.2551
  960MOL0     C26598   4.130   6.917   4.274 -0.2356  0.3907  0.5298
  960MOL0     C26599   4.023   6.959   4.170  0.6774 -0.2331 -0.0844
  960MOL0     C26600   3.893   6.938   4.239 -0.3966  0.2156 -0.4521
  960MOL0     C26601   3.796   7.004   4.157  0.7830 -0.3229 -0.0570
  960MOL0     C26602   3.657   6.968   4.209 -0.8719 -0.6586  0.5317
  960MOL0     C26603   3.568   7.021   4.103  0.9000 -0.0469 -0.3403
  960MOL0     C26604   3.428   7.039   4.160  0.4836 -0.5978  0.4944
  960MOL0     N26605   3.312   7.055   4.069  0.2659 -0.2378  0.2111
  960MOL0     C26606   3.268   7.172   4.016  0.0307 -0.5613  0.0976
  960MOL0     C26607   3.167   7.145   3.925 -0.4470 -0.9767 -0.4836
  960MOL0     C26608   3.084   7.243   3.833 -0.4802  0.1834 -0.1427
  960MOL0     C26609   2.999   7.334   3.926  0.4464 -0.7928  0.1602
  960MOL0     C26610   2.892   7.407   3.841  0.3191 -0.0216  0.1528
  960MOL0     C26611   2.765   7.316   3.816 -0.3916 -0.4883 -0.0973
  960MOL0     O26612   2.673   7.311   3.932 -0.1208 -0.5767 -0.4863
  960MOL0     C26613   2.538   7.299   3.918  0.1201  0.0199  0.5157
  960MOL0     C26614   2.476   7.325   4.032  0.5607 -0.2535  0.0192
  960MOL0     C26615   2.333   7.321   4.031 -0.2494  0.8176  0.0246
  960MOL0     C26616   2.266   7.290   3.914  0.2732  0.1817  0.1197
  960MOL0     C26617   2.122   7.326   3.912 -0.2157  0.0483 -0.0628
  960MOL0     O26618   2.088   7.414   4.008  0.0508 -0.6352 -0.5092
  960MOL0     C26619   1.956   7.451   4.012 -0.0961  1.1689  0.1407
  960MOL0     C26620   1.863   7.368   4.077  0.7304  0.1399  0.2475
  960MOL0     C26621   1.721   7.393   4.063 -0.3107 -0.1018 -0.6195
  960MOL0     C26622   1.676   7.504   3.988 -0.7297  0.6422  0.2536
  960MOL0     O26623   1.546   7.535   3.973  0.7172 -0.4976 -0.7137
  960MOL0     C26624   1.446   7.429   3.978 -0.2644 -0.3423 -0.3698
  960MOL0     C26625   1.313   7.500   4.005 -0.3690  0.6198  0.2287
  960MOL0     C26626   1.192   7.400   4.007  0.1593 -1.2675  0.7022
  960MOL0     C26627   1.073   7.467   4.078 -0.8579  0.5131 -1.1073
  960MOL0     C26628   0.961   7.379   4.117  0.1244  0.2647  0.3753
  960MOL0     C26629   0.877   7.330   3.992  0.4906 -1.1997  0.2740
  960MOL0     C26630   0.741   7.291   4.050  0.0862  0.2692  0.6296
  960MOL0     C26631   0.632   7.250   3.956  0.1169  0.3031 -0.0346
  960MOL0    Cl26632   0.682   7.109   3.856  0.5291 -0.0316 -0.0677
  960MOL0     C26633   1.768   7.589   3.936 -0.1380  0.9821  0.1031
  960MOL0     C26634   1.909   7.563   3.947 -0.2532  0.0871  0.0929
  960MOL0     O26635   2.056   7.293   3.812  0.2724  0.2298  0.5930
  960MOL0     C26636   2.339   7.250   3.795  1.2679  0.0407  0.3097
  960MOL0     C26637   2.476   7.255   3.806  0.5572 -0.2127 -0.0733
  960MOL0     N26638   3.156   7.004   3.920  0.6520  0.1227  0.5961
  960MOL0     N26639   3.243   6.960   3.994 -0.6604 -0.3120  0.0293
  960MOL0     C26640   4.605   6.985   4.335  0.2261  0.8511  0.3821
  960MOL0     C26641   4.727   7.046   4.304  0.2574  0.4375 -0.4931
  960MOL0     C26642   4.970   7.408   4.149  0.3868  0.8535 -0.1508
  960MOL0     C26643   4.991   7.533   4.101  0.4574  0.0163 -0.2931
  960MOL0     C26644   5.118   7.593   4.103  0.4973 -0.2473 -0.1920
  960MOL0     C26645   5.230   7.524   4.143 -0.4027  1.2238 -0.5909
  960MOL0     O26646   5.359   7.572   4.128 -0.2073  0.2000  0.4824
  960MOL0     C26647   5.436   7.496   4.040 -0.2821  0.2509  0.3112
  960MOL0     C26648   5.573   7.529   4.073  0.8738 -0.3004  0.7846
  960MOL0     C26649   5.670   7.463   3.982 -0.7711 -0.4734 -0.4484
  960MOL0     C26650   5.813   7.465   4.036  0.3254  0.4480  0.1132
  960MOL0     C26651   5.852   7.609   4.054  0.1846  0.0566 -0.0327
  960MOL0     C26652   5.888   7.727   4.060  0.6720 -0.1884  0.1698
  960MOL0     C26653   5.214   7.395   4.204  0.6962 -0.9010  1.5314
  960MOL0     C26654   5.085   7.338   4.207 -0.5890 -0.0865  0.0533
  960MOL0     H26655   4.650   7.183   4.013  1.0705  0.7992 -0.2745
  960MOL0     H26656   4.415   7.101   4.090 -0.7748  0.4296  2.1707
  960MOL0     H26657   4.284   6.956   4.124  1.0826 -1.9877  0.3647
  960MOL0     H26658   4.245   7.088   4.238 -1.1954 -0.3962 -0.1910
  960MOL0     H26659   4.105   6.959   4.372 -0.0001  1.4884  0.1338
  960MOL0     H26660   4.136   6.809   4.288  0.0639  0.5369  1.6284
  960MOL0     H26661   4.040   6.901   4.079  1.0259  0.8342 -0.7308
  960MOL0     H26662   4.038   7.066   4.148 -1.4839 -0.2836 -2.1640
  960MOL0     H26663   3.887   6.829   4.237 -2.7897  0.2437 -3.5836
  960MOL0     H26664   3.891   6.974   4.342 -4.2765 -1.2913  0.1665
  960MOL0     H26665   3.808   6.971   4.053 -2.3380 -0.2423 -0.5305
  960MOL0     H26666   3.808   7.112   4.167 -0.9003 -0.2063  1.1877
  960MOL0     H26667   3.630   7.006   4.308  1.4774 -2.5950  2.0120
  960MOL0     H26668   3.645   6.860   4.211  1.1327 -0.9142  2.6046
  960MOL0     H26669   3.605   7.112   4.055  1.3360 -1.0110 -1.9417
  960MOL0     H26670   3.566   6.937   4.032  1.7283 -1.7349  1.5402
  960MOL0     H26671   3.438   7.125   4.227 -0.1272  2.2448 -2.8190
  960MOL0     H26672   3.403   6.951   4.220  0.4303 -1.4530 -0.7578
  960MOL0     H26673   3.310   7.271   4.034 -1.8262 -0.2145  3.3957
  960MOL0     H26674   3.032   7.168   3.772  3.2380 -1.9450 -1.0350
  960MOL0     H26675   3.145   7.302   3.765  2.2603  0.0749  2.0434
  960MOL0     H26676   3.062   7.412   3.971 -1.2182  1.1647 -0.7274
  960MOL0     H26677   2.952   7.278   4.007  3.3139 -0.0876  2.4997
  960MOL0     H26678   2.862   7.501   3.888 -1.6137  0.3543 -1.7155
  960MOL0     H26679   2.929   7.432   3.742 -1.1530  1.4959 -0.0483
  960MOL0     H26680   2.787   7.215   3.780 -2.0012 -1.7110  2.0826
  960MOL0     H26681   2.713   7.361   3.731  2.0644  1.8768 -0.4815
  960MOL0     H26682   2.523   7.345   4.128  1.2304  1.2553 -0.5844
  960MOL0     H26683   2.278   7.358   4.117  1.2453  1.1971  0.8560
  960MOL0     H26684   1.905   7.282   4.130  0.4756 -0.6860 -0.8599
  960MOL0     H26685   1.662   7.310   4.100  1.1444 -0.4761  0.9501
  960MOL0     H26686   1.467   7.359   4.059 -2.5150 -1.8582 -1.0106
  960MOL0     H26687   1.447   7.368   3.888  1.6305 -0.9591  0.0247
  960MOL0     H26688   1.284   7.580   3.936 -0.7082  0.6967  0.4624
  960MOL0     H26689   1.322   7.534   4.108  0.0535 -2.2097  1.2171
  960MOL0     H26690   1.217   7.307   4.059 -2.4496 -2.2802  0.2646
  960MOL0     H26691   1.162   7.377   3.905  2.0364  1.8376 -0.7142
  960MOL0     H26692   1.122   7.500   4.170 -0.5954  0.6256 -1.2889
  960MOL0     H26693   1.040   7.551   4.016 -0.0441  1.0122 -0.8818
  960MOL0     H26694   0.893   7.434   4.183 -1.9738 -0.8974 -0.6787
  960MOL0     H26695   1.000   7.291   4.168  0.2161  0.3324  0.4206
  960MOL0     H26696   0.918   7.244   3.938 -1.2090 -0.1738 -2.9054
  960MOL0     H26697   0.867   7.405   3.913  2.3408  0.3400  1.4283
  960MOL0     H26698   0.771   7.202   4.106 -0.5424  0.8326  1.9125
  960MOL0     H26699   0.697   7.368   4.114  1.5042  1.8237 -0.1983
  960MOL0     H26700   0.593   7.330   3.893 -2.1477 -2.4438 -2.3841
  960MOL0     H26701   0.545   7.222   4.015 -1.1679  1.3438 -1.3618
  960MOL0     H26702   1.729   7.673   3.880 -1.8540 -0.9972 -1.8249
  960MOL0     H26703   1.980   7.627   3.897  0.1905  0.7754  1.5444
  960MOL0     H26704   2.288   7.225   3.702  0.3591  2.5941  0.0509
  960MOL0     H26705   2.530   7.232   3.715 -2.6675  1.9583 -2.7818
  960MOL0     H26706   4.608   6.917   4.419  2.7104 -1.7851 -1.6344
  960MOL0     H26707   4.813   7.043   4.370  2.1950 -1.1854 -2.9052
  960MOL0     H26708   4.906   7.581   4.054  0.3393 -0.2813 -0.3862
  960MOL0     H26709   5.121   7.698   4.078 -0.9218 -0.3778 -1.0210
  960MOL0     H26710   5.413   7.514   3.934  0.4136 -0.6427 -0.0012
  960MOL0     H26711   5.424   7.388   4.054  1.4214  0.0936  0.8394
  960MOL0     H26712   5.579   7.638   4.082  0.0048 -0.3795  3.0368
  960MOL0     H26713   5.593   7.498   4.176  1.0384  2.9765  1.8604
  960MOL0     H26714   5.663   7.520   3.889 -1.5269  2.3430  1.2243
  960MOL0     H26715   5.653   7.356   3.966  1.7070 -0.7709 -1.5215
  960MOL0     H26716   5.820   7.418   4.134 -0.9671  0.1953  0.0954
  960MOL0     H26717   5.865   7.413   3.955 -3.3333 -0.6003 -1.7961
  960MOL0     H26718   5.928   7.826   4.067 -1.6470  1.0843 -2.5124
  960MOL0     H26719   5.301   7.337   4.230  2.1144  0.0548 -0.7288
  960MOL0     H26720   5.076   7.241   4.254  0.2495 -1.5113 -2.5505
  961MOL0     O26721   5.241   1.120   0.230  0.2175  0.4096  0.5560
  961MOL0     C26722   5.304   1.158   0.133  0.6664  0.6619 -0.3240
  961MOL0     O26723   5.245   1.197   0.012 -0.0204 -0.3276  0.7668
  961MOL0     C26724   5.118   1.190  -0.024  1.0027  0.2026 -0.0468
  961MOL0     C26725   5.041   1.071  -0.003  0.6347 -0.3710 -0.4033
  961MOL0     C26726   4.912   1.075  -0.061  0.1906  0.0982 -0.6614
  961MOL0     C26727   4.861   1.178  -0.143  0.5080  0.5677 -0.2602
  961MOL0     O26728   4.736   1.158  -0.199  0.8760  0.0623  0.5176
  961MOL0     C26729   4.697   1.225  -0.320 -0.9733 -0.3369  0.2759
  961MOL0     C26730   4.560   1.172  -0.367 -0.4895  0.5339  0.3836
  961MOL0     C26731   4.457   1.164  -0.255  0.2506  0.3124  0.9648
  961MOL0     C26732   4.317   1.118  -0.302  0.5017  0.6581 -0.5774
  961MOL0     C26733   4.206   1.167  -0.202  0.5537  0.2612  0.5050
  961MOL0     C26734   4.067   1.129  -0.258 -0.5898 -0.5030 -0.1603
  961MOL0     C26735   3.942   1.132  -0.161  0.1826 -0.1780 -0.4364
  961MOL0     C26736   3.932   1.007  -0.062 -1.0317 -0.2273  0.3338
  961MOL0     N26737   3.816   1.014   0.037  0.7839  0.0191 -0.1350
  961MOL0     C26738   3.684   0.986   0.002 -0.5421 -0.1600 -0.2884
  961MOL0     C26739   3.614   0.987   0.127 -0.7444 -0.2506 -0.3337
  961MOL0     C26740   3.467   0.967   0.140 -0.1889 -0.1214  0.3062
  961MOL0     C26741   3.429   0.834   0.076  0.9343  0.2788  0.9397
  961MOL0     C26742   3.284   0.796   0.110 -0.0146 -0.8700  0.4822
  961MOL0     C26743   3.270   0.663   0.038  0.2139  0.5744  0.6481
  961MOL0     O26744   3.137   0.609   0.038 -0.7526 -0.3918 -0.1392
  961MOL0     C26745   3.050   0.664  -0.056 -0.2264 -1.0200  0.5699
  961MOL0     C26746   2.920   0.651  -0.029 -0.4073 -0.3779  0.1383
  961MOL0     C26747   2.825   0.694  -0.120 -0.0203 -0.3101  0.0375
  961MOL0     C26748   2.856   0.756  -0.243  0.0956  0.9316 -0.3810
  961MOL0     C26749   2.742   0.804  -0.338 -0.6171 -0.2749  0.3310
  961MOL0     O26750   2.610   0.764  -0.313 -1.0464  0.0526 -0.1307
  961MOL0     C26751   2.512   0.789  -0.404  0.5951  0.2572 -0.1553
  961MOL0     C26752   2.430   0.679  -0.443 -0.1784  0.2046  0.5988
  961MOL0     C26753   2.314   0.695  -0.518 -0.1839 -0.1484  0.7665
  961MOL0     C26754   2.279   0.822  -0.570 -0.6394  0.6995 -0.1157
  961MOL0     O26755   2.162   0.834  -0.635  0.1974  0.4414 -0.1033
  961MOL0     C26756   2.170   0.853  -0.771  0.3834  0.1219  0.2412
  961MOL0     C26757   2.030   0.879  -0.829  0.6254 -0.2136 -0.4190
  961MOL0     C26758   1.953   0.751  -0.850  0.0120  0.4043 -0.5550
  961MOL0     C26759   1.802   0.778  -0.888  0.2382 -0.3155  0.8848
  961MOL0     C26760   1.741   0.639  -0.910 -0.5193  1.1306  0.6136
  961MOL0     C26761   1.590   0.645  -0.927  0.5669  0.0078 -0.5021
  961MOL0     C26762   1.536   0.501  -0.949 -0.8411 -0.1269 -0.9001
  961MOL0     C26763   1.508   0.472  -1.096  0.5848  0.1943 -0.2247
  961MOL0    Cl26764   1.654   0.469  -1.203 -0.1887 -0.1778  0.1840
  961MOL0     C26765   2.352   0.933  -0.541 -0.6419 -0.0360 -0.3861
  961MOL0     C26766   2.470   0.910  -0.463  0.3662 -0.3073 -0.3531
  961MOL0     O26767   2.779   0.864  -0.441 -0.4347  0.3777 -0.4102
  961MOL0     C26768   2.993   0.771  -0.266 -0.3231  0.2224  0.4024
  961MOL0     C26769   3.088   0.728  -0.179 -0.0880  0.0440 -0.2964
  961MOL0     N26770   3.705   1.009   0.230  1.0382 -0.0509  0.0764
  961MOL0     N26771   3.824   1.025   0.175 -0.9250  0.0976  0.0296
  961MOL0     C26772   4.940   1.291  -0.163  0.0908  0.0794  0.3445
  961MOL0     C26773   5.063   1.296  -0.103 -0.6590 -0.6727  0.7284
  961MOL0     C26774   5.443   1.190   0.155 -0.5772 -0.2744 -0.9323
  961MOL0     C26775   5.506   1.288   0.072  0.5595  0.1655 -0.5577
  961MOL0     C26776   5.643   1.312   0.085 -0.4558 -0.1769  0.1710
  961MOL0     C26777   5.728   1.246   0.173  0.0407 -0.0302 -1.4123
  961MOL0     O26778   5.863   1.273   0.179 -0.0090  0.3138  0.2475
  961MOL0     C26779   5.940   1.225   0.293 -0.7059  0.0267  0.0929
  961MOL0     C26780   6.084   1.283   0.293  0.8505 -0.1204 -0.3034
  961MOL0     C26781   6.176   1.228   0.185  0.8835  0.8115  0.0724
  961MOL0     C26782   6.312   1.297   0.187 -0.3304 -0.1032  0.0988
  961MOL0     C26783   6.387   1.283   0.319  0.0413  1.1165 -0.4164
  961MOL0     C26784   6.453   1.262   0.413  0.6352  1.3364 -0.3241
  961MOL0     C26785   5.660   1.152   0.260  0.0771 -0.1274  0.1702
  961MOL0     C26786   5.524   1.124   0.248  0.2822  0.8511  0.2777
  961MOL0     H26787   5.087   0.986   0.045 -0.1788  0.2311  1.5698
  961MOL0     H26788   4.853   0.986  -0.039  0.0302  0.2533 -0.4589
  961MOL0     H26789   4.772   1.203  -0.397 -2.0384 -0.1221 -0.8547
  961MOL0     H26790   4.681   1.331  -0.295 -0.5403 -0.2111  0.0294
  961MOL0     H26791   4.581   1.076  -0.415  0.3790  1.9084 -2.2026
  961MOL0     H26792   4.518   1.233  -0.447 -2.0925 -1.8743 -0.7380
  961MOL0     H26793   4.453   1.258  -0.199  1.4516 -0.3617  2.2481
  961MOL0     H26794   4.479   1.095  -0.172  1.6770 -1.8796 -1.1144
  961MOL0     H26795   4.282   1.157  -0.399 -1.0449 -3.6809 -2.0108
  961MOL0     H26796   4.318   1.009  -0.313  0.7714  0.6740 -0.7379
  961MOL0     H26797   4.207   1.276  -0.210 -3.8622  0.4657  0.4999
  961MOL0     H26798   4.223   1.125  -0.103  0.4404  0.9185  0.8037
  961MOL0     H26799   4.067   1.031  -0.306 -2.0799  0.1473 -1.6259
  961MOL0     H26800   4.045   1.201  -0.338 -1.1913 -0.2009  0.2692
  961MOL0     H26801   3.943   1.230  -0.112 -4.1041  0.7379 -1.7250
  961MOL0     H26802   3.852   1.149  -0.222  1.3833  2.2504 -1.6742
  961MOL0     H26803   4.020   0.995   0.001 -2.6715 -0.8121  2.6469
  961MOL0     H26804   3.920   0.914  -0.120 -1.6986 -0.8630  1.4512
  961MOL0     H26805   3.642   0.975  -0.098 -1.4536  0.3775  0.0177
  961MOL0     H26806   3.414   1.052   0.095 -1.1493 -0.5222  0.6413
  961MOL0     H26807   3.437   0.963   0.245  0.1006  1.3637  0.4703
  961MOL0     H26808   3.499   0.753   0.102  0.9154  0.0070  0.1563
  961MOL0     H26809   3.431   0.856  -0.031 -2.3066  1.7250  1.0606
  961MOL0     H26810   3.269   0.783   0.217 -0.7893  1.1734  0.6620
  961MOL0     H26811   3.215   0.873   0.074  0.4759  0.1917  1.7548
  961MOL0     H26812   3.340   0.598   0.092  0.6232  1.1060  0.7693
  961MOL0     H26813   3.309   0.676  -0.063 -1.6407 -1.8917 -0.4952
  961MOL0     H26814   2.891   0.586   0.053  1.8031 -1.4781  0.1181
  961MOL0     H26815   2.723   0.674  -0.090 -0.1971  0.0149 -0.3498
  961MOL0     H26816   2.456   0.588  -0.389 -0.6744  0.3587  1.1007
  961MOL0     H26817   2.236   0.623  -0.540 -1.0511  1.4063 -1.7642
  961MOL0     H26818   2.210   0.763  -0.818 -0.0330 -0.7735  1.5569
  961MOL0     H26819   2.238   0.934  -0.798 -1.3930  1.0640 -1.6314
  961MOL0     H26820   2.044   0.954  -0.908 -0.3063  2.2248  1.5745
  961MOL0     H26821   1.971   0.934  -0.755  0.7100 -2.0233  1.0769
  961MOL0     H26822   1.954   0.695  -0.757  1.8833  0.8762 -0.2431
  961MOL0     H26823   2.002   0.685  -0.922 -0.8720 -0.7040 -0.1675
  961MOL0     H26824   1.753   0.839  -0.812  0.1307 -2.0954  2.3396
  961MOL0     H26825   1.789   0.834  -0.981 -0.2304 -2.5156 -0.4574
  961MOL0     H26826   1.755   0.583  -0.817  0.1904  0.5688  0.1754
  961MOL0     H26827   1.797   0.583  -0.985 -0.6406  0.5275  0.9714
  961MOL0     H26828   1.560   0.703  -1.015 -1.3202  0.3583  0.3350
  961MOL0     H26829   1.546   0.684  -0.835  0.3178 -2.5168  0.5106
  961MOL0     H26830   1.603   0.430  -0.901 -2.5157 -0.4491  1.0780
  961MOL0     H26831   1.435   0.505  -0.908 -0.5466 -1.0540 -0.0358
  961MOL0     H26832   1.435   0.548  -1.128 -1.0837 -0.5755  1.5117
  961MOL0     H26833   1.446   0.382  -1.092  1.3728 -0.3480 -0.1971
  961MOL0     H26834   2.313   1.029  -0.572 -2.5127 -0.5970  0.0741
  961MOL0     H26835   2.505   1.005  -0.426 -0.7700  0.3283 -0.8626
  961MOL0     H26836   3.018   0.806  -0.366  1.9770  0.5841  1.0452
  961MOL0     H26837   3.194   0.739  -0.199  0.3956 -1.5386  1.2080
  961MOL0     H26838   4.917   1.362  -0.242  0.2466 -1.0707 -0.7603
  961MOL0     H26839   5.133   1.376  -0.124 -0.9603 -0.9547 -1.6547
  961MOL0     H26840   5.440   1.341   0.003 -0.7143 -0.4918  0.1207
  961MOL0     H26841   5.698   1.381   0.022 -0.4927 -0.2508  0.0595
  961MOL0     H26842   5.944   1.116   0.290  1.4369  0.0911 -0.6093
  961MOL0     H26843   5.878   1.253   0.379  0.4581  3.3415  0.0184
  961MOL0     H26844   6.067   1.387   0.262  0.7713  0.4732  1.5593
  961MOL0     H26845   6.132   1.289   0.392  0.0009  2.1732  0.0364
  961MOL0     H26846   6.133   1.241   0.085 -1.7941 -0.2242  1.0006
  961MOL0     H26847   6.188   1.119   0.190  0.1924  0.6521 -1.2646
  961MOL0     H26848   6.372   1.250   0.108 -0.0546 -1.9240  1.3283
  961MOL0     H26849   6.305   1.406   0.175  1.7462  0.6348  3.8846
  961MOL0     H26850   6.519   1.236   0.494 -0.9770 -1.9783  0.1239
  961MOL0     H26851   5.724   1.107   0.335  0.9886  2.5033  1.0767
  961MOL0     H26852   5.481   1.037   0.296 -0.6312  0.1384 -1.7161
  962MOL0     O26853  10.318   0.859  10.846  0.3334 -0.0617 -0.8382
  962MOL0     C26854  10.259   0.850  10.738 -0.0435  0.5202 -0.1661
  962MOL0     O26855  10.325   0.865  10.629 -0.0589 -0.0442  1.0533
  962MOL0     C26856  10.460   0.882  10.632  1.5099 -0.0449  0.8555
  962MOL0     C26857  10.539   0.770  10.614  0.3378 -0.5146 -0.3049
  962MOL0     C26858  10.685   0.782  10.601  0.4919  0.2639 -0.2071
  962MOL0     C26859  10.744   0.905  10.606  0.4612  0.1965 -1.0978
  962MOL0     O26860  10.879   0.911  10.572  0.7354  0.7270  0.0546
  962MOL0     C26861  10.965   0.793  10.602 -0.5782  0.5305 -0.3554
  962MOL0     C26862  11.106   0.840  10.643  0.4159 -0.6503  0.0615
  962MOL0     C26863  11.168   0.944  10.546 -0.1608 -0.4863 -0.3375
  962MOL0     C26864  11.309   0.980  10.599  0.5249  0.7472 -1.2796
  962MOL0     C26865  11.376   1.098  10.525 -0.1639 -0.3462  0.1675
  962MOL0     C26866  11.479   1.160  10.609  0.7067 -0.0461 -0.3280
  962MOL0     C26867  11.548   1.284  10.557  0.0502 -0.6191 -0.0069
  962MOL0     C26868  11.634   1.267  10.422 -0.4102 -0.0521 -0.0254
  962MOL0     N26869  11.703   1.394  10.378  0.8611 -0.7597  0.0705
  962MOL0     C26870  11.824   1.437  10.428 -0.2749  0.0515  0.2373
  962MOL0     C26871  11.861   1.545  10.357 -0.0249  0.2476  0.8876
  962MOL0     C26872  11.980   1.632  10.363 -1.1839  0.2611 -0.4120
  962MOL0     C26873  12.112   1.559  10.377  0.5226  0.4096  0.2375
  962MOL0     C26874  12.130   1.462  10.255  0.2227  0.5102  0.3535
  962MOL0     C26875  12.256   1.375  10.267 -0.1743 -0.5751  0.0121
  962MOL0     O26876  12.238   1.298  10.388 -0.1762  0.6226 -0.5601
  962MOL0     C26877  12.145   1.194  10.402 -0.0051  0.5224 -0.0724
  962MOL0     C26878  12.098   1.158  10.521 -0.8984  0.0680 -0.8353
  962MOL0     C26879  11.997   1.067  10.543 -0.9230  0.3776 -0.0612
  962MOL0     C26880  11.941   1.004  10.432  0.5777 -0.7429 -0.5611
  962MOL0     C26881  11.808   0.939  10.451  0.4199 -0.4146  0.4616
  962MOL0     O26882  11.749   0.888  10.342  0.6821 -0.4053 -0.0876
  962MOL0     C26883  11.621   0.831  10.350  0.1893 -0.2849 -0.1735
  962MOL0     C26884  11.521   0.868  10.269  0.1819  0.3704 -0.0936
  962MOL0     C26885  11.393   0.802  10.279 -0.4286 -0.4531 -0.2263
  962MOL0     C26886  11.371   0.689  10.364  1.8249  0.1046  0.2128
  962MOL0     O26887  11.247   0.628  10.378  0.5201  0.6469  0.3597
  962MOL0     C26888  11.226   0.535  10.264  0.4946  0.2309  0.0202
  962MOL0     C26889  11.079   0.499  10.281  0.2246  1.0041  0.5952
  962MOL0     C26890  10.982   0.599  10.205 -0.1261  0.0026 -0.7819
  962MOL0     C26891  10.841   0.582  10.270 -0.8198 -0.5710 -0.0841
  962MOL0     C26892  10.752   0.469  10.224 -0.1343  0.6735  0.1250
  962MOL0     C26893  10.616   0.476  10.295 -0.9356 -0.9680 -0.3347
  962MOL0     C26894  10.539   0.347  10.272  0.3300 -0.1043 -0.8438
  962MOL0     C26895  10.399   0.375  10.239  0.2340  0.3364 -0.1196
  962MOL0    Cl26896  10.308   0.479  10.362 -0.0218 -0.2427  0.0776
  962MOL0     C26897  11.473   0.650  10.441 -0.8988  0.2812  0.2935
  962MOL0     C26898  11.599   0.716  10.431 -0.4300 -0.3873 -0.5211
  962MOL0     O26899  11.759   0.937  10.560 -0.2622  0.1796 -0.1920
  962MOL0     C26900  11.988   1.033  10.297  1.1393  0.0512  0.1602
  962MOL0     C26901  12.084   1.133  10.289  1.2012 -0.4180  0.4410
  962MOL0     N26902  11.753   1.579  10.271  0.0485 -0.6657  0.0987
  962MOL0     N26903  11.667   1.486  10.274  0.2753  0.3529 -0.6336
  962MOL0     C26904  10.661   1.018  10.626  0.1871  0.0481 -0.1135
  962MOL0     C26905  10.518   1.005  10.631 -0.4285 -0.5027  0.1658
  962MOL0     C26906  10.114   0.815  10.735 -0.8259 -0.3252  0.5943
  962MOL0     C26907  10.055   0.774  10.611 -1.5514  0.2487 -0.8664
  962MOL0     C26908   9.912   0.771  10.596  0.2228 -0.3166 -0.0523
  962MOL0     C26909   9.825   0.787  10.707 -0.4955 -0.4350 -0.4026
  962MOL0     O26910   9.690   0.782  10.721 -0.5516  0.7972 -0.3482
  962MOL0     C26911   9.619   0.790  10.608 -0.7917 -0.0631 -0.9714
  962MOL0     C26912   9.469   0.809  10.635  1.3292  0.1074 -0.5512
  962MOL0     C26913   9.378   0.830  10.518 -0.4978 -0.0936  0.5373
  962MOL0     C26914   9.240   0.831  10.579 -0.0405 -0.7389  0.1653
  962MOL0     C26915   9.140   0.863  10.477  0.5594 -0.7820 -0.0925
  962MOL0     C26916   9.052   0.885  10.392 -1.2730 -0.0820  0.1065
  962MOL0     C26917   9.890   0.814  10.834  0.1842  0.2992  0.7491
  962MOL0     C26918  10.029   0.835  10.847 -0.2998  0.4804  0.0586
  962MOL0     H26919  10.488   0.674  10.609 -4.6615  1.8743 -1.5863
  962MOL0     H26920  10.732   0.687  10.578  0.3152  0.6532 -2.3826
  962MOL0     H26921  10.992   0.731  10.515  1.9638  0.8550  0.1277
  962MOL0     H26922  10.926   0.732  10.683 -1.1696 -1.5891 -2.1191
  962MOL0     H26923  11.169   0.751  10.638 -0.6564 -1.5217  1.4751
  962MOL0     H26924  11.105   0.882  10.744 -0.3566  1.9065 -0.9281
  962MOL0     H26925  11.109   1.036  10.549  0.0553 -0.3400 -0.5371
  962MOL0     H26926  11.172   0.896  10.448 -1.2021 -1.5044  0.1028
  962MOL0     H26927  11.296   1.004  10.705  0.9251 -2.1864 -0.4679
  962MOL0     H26928  11.386   0.903  10.596  1.1021  1.3472 -2.4087
  962MOL0     H26929  11.301   1.175  10.505  0.3677  0.2164  0.3183
  962MOL0     H26930  11.421   1.061  10.433  2.6389  0.4255  1.1429
  962MOL0     H26931  11.558   1.088  10.632 -0.5606 -1.4286 -0.1470
  962MOL0     H26932  11.435   1.197  10.702  1.1950  4.0057 -1.5178
  962MOL0     H26933  11.466   1.353  10.535 -0.3706 -2.1595 -4.2187
  962MOL0     H26934  11.618   1.336  10.623  1.2795 -1.8187 -0.2931
  962MOL0     H26935  11.579   1.217  10.342 -1.2886 -0.6559  0.9407
  962MOL0     H26936  11.706   1.191  10.453 -3.9584 -2.9911  1.7159
  962MOL0     H26937  11.880   1.389  10.507  1.7667  2.4350  0.3582
  962MOL0     H26938  11.967   1.694  10.452 -1.3538  0.5134 -0.6104
  962MOL0     H26939  11.989   1.696  10.275  1.1175  2.4924  1.2969
  962MOL0     H26940  12.121   1.498  10.468  0.6930  0.2942  0.1443
  962MOL0     H26941  12.191   1.634  10.392 -0.4176  1.2059  1.3768
  962MOL0     H26942  12.055   1.383  10.244  1.4973 -0.3818 -3.1649
  962MOL0     H26943  12.136   1.518  10.161 -0.9002  3.2960  1.8173
  962MOL0     H26944  12.347   1.435  10.276 -0.5267 -0.1867  1.1564
  962MOL0     H26945  12.260   1.315  10.175  1.0758 -0.3723 -0.0743
  962MOL0     H26946  12.140   1.205  10.610 -2.9681 -1.1355  0.8706
  962MOL0     H26947  11.953   1.051  10.641 -0.1762  0.9595  0.3794
  962MOL0     H26948  11.534   0.948  10.196  0.1946  0.3451 -0.1190
  962MOL0     H26949  11.314   0.823  10.207 -0.0624 -2.4628 -1.3060
  962MOL0     H26950  11.280   0.441  10.280 -0.2960 -0.4256 -1.1043
  962MOL0     H26951  11.245   0.592  10.172 -4.7677  0.0636 -1.4502
  962MOL0     H26952  11.045   0.474  10.382  0.2822 -1.0783  0.1351
  962MOL0     H26953  11.061   0.405  10.230 -0.9309  0.3920  2.0677
  962MOL0     H26954  10.980   0.570  10.100  0.3494 -1.5853 -0.3848
  962MOL0     H26955  11.015   0.703  10.207  1.1856 -0.3687 -2.0689
  962MOL0     H26956  10.852   0.574  10.379  0.6005  2.3030  0.0673
  962MOL0     H26957  10.785   0.676  10.260  1.2285  1.0318  2.2818
  962MOL0     H26958  10.798   0.373  10.251  2.0399  2.2600  2.6141
  962MOL0     H26959  10.727   0.476  10.118 -1.2533  0.1092  0.3293
  962MOL0     H26960  10.566   0.566  10.260 -1.5075 -0.6258  1.2582
  962MOL0     H26961  10.638   0.492  10.401 -0.0999  1.6591 -0.8540
  962MOL0     H26962  10.585   0.293  10.189  3.6021  1.2023 -0.0535
  962MOL0     H26963  10.547   0.287  10.362 -1.0941  1.9672  0.7754
  962MOL0     H26964  10.343   0.281  10.235  0.7181  0.0148  0.6174
  962MOL0     H26965  10.395   0.417  10.138 -0.0746  0.6334  0.0146
  962MOL0     H26966  11.467   0.558  10.499 -1.7790 -0.9905 -1.6717
  962MOL0     H26967  11.685   0.684  10.489 -1.8300 -0.8771  1.3781
  962MOL0     H26968  11.934   0.990  10.214 -0.8909  0.8471  0.9861
  962MOL0     H26969  12.106   1.161  10.187 -0.8342 -1.4062 -0.3276
  962MOL0     H26970  10.705   1.114  10.604  2.2833 -1.5681 -4.0393
  962MOL0     H26971  10.454   1.093  10.639  0.1954  0.2672 -2.4590
  962MOL0     H26972  10.115   0.774  10.521  0.0331 -0.6559  0.1414
  962MOL0     H26973   9.879   0.754  10.494 -2.6417 -1.5917  0.9705
  962MOL0     H26974   9.633   0.690  10.565 -0.0113 -1.8831  3.1066
  962MOL0     H26975   9.649   0.866  10.534  0.3544 -1.3382 -1.8695
  962MOL0     H26976   9.433   0.728  10.699  2.3039  0.9235  1.0887
  962MOL0     H26977   9.468   0.906  10.686  0.8104 -0.2477  0.1320
  962MOL0     H26978   9.391   0.758  10.437 -1.7564  1.7925 -1.4760
  962MOL0     H26979   9.415   0.928  10.486 -0.7784 -0.1099  0.1517
  962MOL0     H26980   9.208   0.736  10.623 -1.2045 -1.1272 -1.4269
  962MOL0     H26981   9.234   0.904  10.660 -0.7496 -1.1887  0.5290
  962MOL0     H26982   8.988   0.915  10.311  1.2671 -1.5455 -2.6245
  962MOL0     H26983   9.826   0.826  10.921 -1.6463  3.0877 -0.8054
  962MOL0     H26984  10.073   0.847  10.945  2.5230 -3.1176 -0.5619
  963MOL0     O26985   2.928   5.940   2.218  0.4231 -0.1768  0.3553
  963MOL0     C26986   2.975   5.848   2.290  0.1667 -0.0795 -0.3926
  963MOL0     O26987   2.895   5.757   2.364  0.1020 -0.4452 -0.6054
  963MOL0     C26988   2.758   5.777   2.349  0.9099  0.6800 -0.1439
  963MOL0     C26989   2.684   5.835   2.444 -0.1011 -0.1134 -0.2464
  963MOL0     C26990   2.539   5.834   2.432 -0.4127  0.4461 -0.0313
  963MOL0     C26991   2.467   5.793   2.318  0.2549  0.0674  0.3918
  963MOL0     O26992   2.328   5.793   2.315  0.6077 -0.0219  0.3283
  963MOL0     C26993   2.268   5.733   2.201  0.4183 -0.8467  0.5595
  963MOL0     C26994   2.112   5.747   2.207 -1.6186 -0.0005  0.1655
  963MOL0     C26995   2.050   5.655   2.099 -0.2174  0.2389  0.1171
  963MOL0     C26996   1.900   5.634   2.112  0.3108  0.0102 -0.5858
  963MOL0     C26997   1.860   5.499   2.064  0.3254  0.0004 -0.4972
  963MOL0     C26998   1.891   5.478   1.917 -0.0099  0.1891  0.4099
  963MOL0     C26999   1.863   5.326   1.887 -0.4539  0.7472  0.9833
  963MOL0     C27000   1.904   5.274   1.750  0.6674  0.0943  1.0033
  963MOL0     N27001   1.822   5.354   1.648 -0.0156  0.3358 -0.0858
  963MOL0     C27002   1.686   5.366   1.636  0.5554  0.7081  0.5555
  963MOL0     C27003   1.669   5.466   1.541 -0.2268  0.3789  0.5191
  963MOL0     C27004   1.544   5.526   1.491  0.1075 -0.4226 -0.0783
  963MOL0     C27005   1.422   5.457   1.542  0.5857 -0.9687  0.3785
  963MOL0     C27006   1.293   5.519   1.471 -0.4520  0.2531 -0.0189
  963MOL0     C27007   1.165   5.434   1.503 -0.0726 -0.2520 -0.6499
  963MOL0     O27008   1.051   5.520   1.466 -0.7551  0.9252 -0.2498
  963MOL0     C27009   0.917   5.471   1.486  0.7567  0.6354 -0.7781
  963MOL0     C27010   0.875   5.425   1.613  0.5986  0.7132 -0.3412
  963MOL0     C27011   0.744   5.388   1.637  0.7646  0.3893 -0.5823
  963MOL0     C27012   0.641   5.403   1.547 -0.9950  0.4937  0.8930
  963MOL0     C27013   0.503   5.375   1.586 -0.6280 -0.0613 -0.8345
  963MOL0     O27014   0.400   5.422   1.504 -0.0719  0.7707  0.4578
  963MOL0     C27015   0.264   5.416   1.527 -0.9326 -0.0491 -1.0441
  963MOL0     C27016   0.189   5.468   1.426 -0.4266 -0.0594  0.5810
  963MOL0     C27017   0.049   5.467   1.437  0.2047 -0.5849  0.4840
  963MOL0     C27018  -0.022   5.425   1.550  0.0853  0.7955  0.6211
  963MOL0     O27019  -0.159   5.427   1.550 -0.0719 -0.7395 -0.2222
  963MOL0     C27020  -0.235   5.320   1.607 -0.2552  0.1942 -0.1380
  963MOL0     C27021  -0.376   5.318   1.553  0.4711  0.3568  0.1626
  963MOL0     C27022  -0.460   5.219   1.641  0.3206 -0.0644  0.5584
  963MOL0     C27023  -0.613   5.241   1.626 -0.4986 -0.5478  0.1731
  963MOL0     C27024  -0.705   5.127   1.688 -0.1995 -1.2579 -0.6085
  963MOL0     C27025  -0.852   5.177   1.707  0.1328  0.0741  0.3348
  963MOL0     C27026  -0.941   5.084   1.796  0.0046  0.1975  1.1717
  963MOL0     C27027  -1.085   5.121   1.784 -0.3624  0.0387 -0.3927
  963MOL0    Cl27028  -1.193   4.991   1.854 -0.0057  0.1286 -0.0615
  963MOL0     C27029   0.053   5.372   1.660 -0.3550 -0.5172 -0.2554
  963MOL0     C27030   0.195   5.381   1.653 -0.0627 -0.3480 -0.3261
  963MOL0     O27031   0.484   5.318   1.694 -0.6978 -0.3438 -0.0475
  963MOL0     C27032   0.675   5.454   1.418 -0.2820  0.5467  0.5840
  963MOL0     C27033   0.811   5.483   1.392  0.2360  0.9351  0.1875
  963MOL0     N27034   1.790   5.508   1.492 -0.0311  0.1669  0.2292
  963MOL0     N27035   1.876   5.437   1.553 -0.1007  0.5941 -0.5558
  963MOL0     C27036   2.552   5.749   2.211  0.8661  0.5171  0.4270
  963MOL0     C27037   2.689   5.734   2.236 -0.0309 -0.0937 -0.0175
  963MOL0     C27038   3.121   5.824   2.288  0.3901 -0.8132  0.7811
  963MOL0     C27039   3.175   5.706   2.321  0.2227 -0.4354  0.1884
  963MOL0     C27040   3.314   5.687   2.330 -0.7136  0.3365 -0.6357
  963MOL0     C27041   3.405   5.784   2.286  1.1802  0.0345  0.2469
  963MOL0     O27042   3.538   5.762   2.284  0.1876 -0.6327 -0.6315
  963MOL0     C27043   3.584   5.626   2.281 -0.7809  0.3729 -1.0149
  963MOL0     C27044   3.731   5.615   2.240  0.4302  0.6695 -0.2155
  963MOL0     C27045   3.802   5.492   2.291 -0.4076 -0.0235 -0.9335
  963MOL0     C27046   3.735   5.360   2.267  0.6206 -0.3893  0.2626
  963MOL0     C27047   3.729   5.337   2.122 -0.2186 -0.7477  0.3834
  963MOL0     C27048   3.736   5.340   1.997  0.2324 -0.2277  0.3382
  963MOL0     C27049   3.347   5.906   2.249  0.4432 -0.4706 -0.4606
  963MOL0     C27050   3.206   5.931   2.252  0.2889  0.6247 -0.8522
  963MOL0     H27051   2.725   5.870   2.538 -0.7770 -1.3128  0.5164
  963MOL0     H27052   2.482   5.878   2.513 -1.4571  2.6860 -1.8540
  963MOL0     H27053   2.297   5.627   2.210  0.2715 -0.9644 -0.2443
  963MOL0     H27054   2.298   5.770   2.103 -0.1298 -0.7365  0.4302
  963MOL0     H27055   2.091   5.853   2.186 -1.6659 -0.1746 -0.6690
  963MOL0     H27056   2.065   5.730   2.305 -2.4440  3.5858  0.5658
  963MOL0     H27057   2.091   5.557   2.124  2.5590  0.3626 -3.1336
  963MOL0     H27058   2.068   5.684   1.995 -0.0481 -0.0899  0.0525
  963MOL0     H27059   1.881   5.635   2.220  0.1357  0.9382 -0.6158
  963MOL0     H27060   1.849   5.718   2.062  1.0463 -0.3482 -1.9947
  963MOL0     H27061   1.753   5.483   2.076  0.1338  0.5196 -1.3688
  963MOL0     H27062   1.918   5.432   2.128 -1.0250 -0.4408  0.2925
  963MOL0     H27063   1.993   5.502   1.887 -0.6811  2.0066 -0.6192
  963MOL0     H27064   1.831   5.540   1.849  0.3643 -2.2149 -2.3093
  963MOL0     H27065   1.921   5.267   1.959 -0.1010  0.1277  0.2031
  963MOL0     H27066   1.756   5.303   1.892 -0.7443  2.1904  5.1745
  963MOL0     H27067   1.880   5.168   1.741 -2.8873  0.9361 -1.4971
  963MOL0     H27068   2.010   5.299   1.735  0.4397  1.1716  1.1290
  963MOL0     H27069   1.611   5.319   1.697  1.3413  0.3953  1.3019
  963MOL0     H27070   1.553   5.511   1.383  0.3633  1.6175 -0.3748
  963MOL0     H27071   1.540   5.629   1.529  1.3711 -0.7049  0.9131
  963MOL0     H27072   1.413   5.463   1.651 -1.5104  3.6950  0.1710
  963MOL0     H27073   1.430   5.350   1.520  1.4651 -0.2865 -3.3468
  963MOL0     H27074   1.269   5.615   1.519  1.2497  0.4582  0.4857
  963MOL0     H27075   1.306   5.530   1.363 -0.3482 -1.3443 -0.1852
  963MOL0     H27076   1.160   5.428   1.612  0.8384  2.3699 -0.3697
  963MOL0     H27077   1.151   5.342   1.446 -1.8048 -0.8618  0.6635
  963MOL0     H27078   0.952   5.409   1.687  1.3483  3.1247 -0.4959
  963MOL0     H27079   0.720   5.354   1.738  3.4519  0.4032  0.1398
  963MOL0     H27080   0.248   5.503   1.342  0.8172 -0.1777  1.3765
  963MOL0     H27081  -0.009   5.508   1.355 -1.7191  0.1308  2.1225
  963MOL0     H27082  -0.236   5.348   1.713 -0.5799 -3.1431  0.8635
  963MOL0     H27083  -0.186   5.222   1.607  1.0469  0.8125 -0.1768
  963MOL0     H27084  -0.377   5.283   1.449 -1.1755  6.0071 -2.0861
  963MOL0     H27085  -0.424   5.416   1.551 -1.2624 -0.4666 -1.2763
  963MOL0     H27086  -0.436   5.228   1.747  1.6188  0.0319  0.2713
  963MOL0     H27087  -0.444   5.115   1.609 -2.3665 -0.4965  0.3379
  963MOL0     H27088  -0.635   5.332   1.683  3.9560  0.8013  0.0503
  963MOL0     H27089  -0.641   5.256   1.521 -0.1032 -2.8627 -0.3099
  963MOL0     H27090  -0.654   5.104   1.782 -0.1053 -0.5754 -0.4855
  963MOL0     H27091  -0.707   5.038   1.625 -0.4207 -1.0744 -0.8612
  963MOL0     H27092  -0.895   5.182   1.606 -0.6651 -0.9175  0.5995
  963MOL0     H27093  -0.848   5.278   1.748  0.4017  0.7911 -1.3832
  963MOL0     H27094  -0.932   4.981   1.760 -1.5983  0.3051  0.3574
  963MOL0     H27095  -0.914   5.086   1.902 -2.8117 -1.6205  2.0262
  963MOL0     H27096  -1.117   5.125   1.679 -2.3081 -0.5503  0.1317
  963MOL0     H27097  -1.094   5.219   1.830 -0.6180 -0.5598  0.8872
  963MOL0     H27098  -0.006   5.339   1.745  0.4425  0.0593  0.5474
  963MOL0     H27099   0.241   5.352   1.747 -1.1888 -0.0579  0.3348
  963MOL0     H27100   0.597   5.463   1.344  0.8013  1.3751 -0.5036
  963MOL0     H27101   0.829   5.510   1.288  3.1156 -1.7687 -0.1742
  963MOL0     H27102   2.501   5.705   2.126  0.5439  1.9488 -0.1306
  963MOL0     H27103   2.739   5.667   2.168 -0.2303 -1.8433  1.4882
  963MOL0     H27104   3.107   5.627   2.353 -3.7832  2.1670 -1.2868
  963MOL0     H27105   3.359   5.593   2.360  2.8421  2.1737  0.3432
  963MOL0     H27106   3.529   5.582   2.197 -1.3636  0.2571 -0.5847
  963MOL0     H27107   3.562   5.575   2.375 -0.3893  0.4023 -0.9057
  963MOL0     H27108   3.718   5.620   2.132 -0.8684 -0.5813 -0.1386
  963MOL0     H27109   3.787   5.704   2.270  1.5034  0.2253 -0.8180
  963MOL0     H27110   3.814   5.498   2.399  0.1932 -0.1592 -0.9877
  963MOL0     H27111   3.900   5.487   2.242  0.7732  1.2182  1.1698
  963MOL0     H27112   3.793   5.286   2.324 -0.4590 -0.3991  1.4105
  963MOL0     H27113   3.630   5.365   2.299  0.9516  0.1183  1.3168
  963MOL0     H27114   3.737   5.344   1.890 -1.4418  2.0495  0.3405
  963MOL0     H27115   3.412   5.983   2.210 -1.7812  1.5441 -0.4061
  963MOL0     H27116   3.177   6.030   2.218 -4.7322 -0.0064  0.7591
  964MOL0     O27117   2.478   0.769   8.243 -0.4306  0.2621  0.1461
  964MOL0     C27118   2.522   0.672   8.186 -0.0720 -0.0816 -0.9820
  964MOL0     O27119   2.459   0.592   8.098  0.6052 -0.3282  0.6282
  964MOL0     C27120   2.334   0.640   8.067  1.1244 -0.5696  0.8861
  964MOL0     C27121   2.299   0.765   8.007 -0.0363  0.1961 -0.3195
  964MOL0     C27122   2.177   0.785   7.958 -0.3549  0.1531  0.5092
  964MOL0     C27123   2.078   0.691   7.970  0.4337 -0.0365 -0.1772
  964MOL0     O27124   1.960   0.724   7.906  0.2188 -0.2430 -0.1905
  964MOL0     C27125   1.834   0.657   7.926 -0.7011  0.2784 -0.1389
  964MOL0     C27126   1.784   0.675   8.068  0.4381 -0.5909  0.0566
  964MOL0     C27127   1.648   0.597   8.086 -0.1394 -0.0925  0.0373
  964MOL0     C27128   1.592   0.623   8.227  0.4829  1.1961 -0.4847
  964MOL0     C27129   1.496   0.508   8.266  0.5811 -0.4899  0.6343
  964MOL0     C27130   1.437   0.527   8.403  0.2981  0.0781 -0.4331
  964MOL0     C27131   1.346   0.405   8.432  0.2456  0.0238 -0.2242
  964MOL0     C27132   1.240   0.430   8.536  0.9742  0.1083  0.2481
  964MOL0     N27133   1.157   0.306   8.556 -0.8120 -0.2340 -0.1370
  964MOL0     C27134   1.207   0.185   8.586  0.2562  0.4696  1.0191
  964MOL0     C27135   1.101   0.099   8.582  0.4071 -1.1933  0.4174
  964MOL0     C27136   1.102  -0.045   8.607 -0.5093  0.3194  0.2967
  964MOL0     C27137   1.100  -0.076   8.754  0.0409 -0.0559  0.2614
  964MOL0     C27138   1.142  -0.229   8.769  0.8126  0.4511 -0.2111
  964MOL0     C27139   1.112  -0.279   8.914 -0.0054  0.1422 -0.0778
  964MOL0     O27140   1.111  -0.423   8.916  0.7257  0.3468 -0.2905
  964MOL0     C27141   0.992  -0.493   8.916  0.2238 -0.1615 -0.6627
  964MOL0     C27142   0.864  -0.461   8.965  1.3236 -0.0252  0.2364
  964MOL0     C27143   0.754  -0.549   8.967 -0.3873  0.4207 -0.8507
  964MOL0     C27144   0.769  -0.679   8.919 -1.0607  0.0316 -0.2557
  964MOL0     C27145   0.662  -0.784   8.910 -0.0537  0.5459  0.6277
  964MOL0     O27146   0.548  -0.747   8.975  0.5821 -0.5339  0.3773
  964MOL0     C27147   0.450  -0.848   8.957  0.1057 -0.5309  1.0709
  964MOL0     C27148   0.395  -0.869   8.827 -0.0027  0.5278  0.9818
  964MOL0     C27149   0.279  -0.957   8.817 -0.6336  0.4231 -0.6301
  964MOL0     C27150   0.234  -1.027   8.930  0.1260 -0.2234 -0.7753
  964MOL0     O27151   0.143  -1.122   8.913  0.1246 -0.0465  0.5481
  964MOL0     C27152   0.009  -1.078   8.900  0.6482 -0.2871 -0.8463
  964MOL0     C27153  -0.041  -1.053   9.042 -0.3042 -0.8471 -0.1948
  964MOL0     C27154  -0.035  -1.182   9.127 -0.7902 -0.4547  0.1734
  964MOL0     C27155  -0.083  -1.155   9.269 -0.6890 -0.0787 -0.0147
  964MOL0     C27156   0.020  -1.073   9.362 -0.5309  0.7581 -0.6771
  964MOL0     C27157   0.136  -1.152   9.410 -0.2823 -0.5989  0.2518
  964MOL0     C27158   0.201  -1.112   9.543 -0.1946  0.2659 -0.2797
  964MOL0     C27159   0.330  -1.032   9.544 -0.4859  0.8478  0.7050
  964MOL0    Cl27160   0.302  -0.915   9.417 -0.1521 -0.3402  0.1426
  964MOL0     C27161   0.304  -1.006   9.052 -0.2982  0.5097  0.4281
  964MOL0     C27162   0.415  -0.924   9.064  0.2014  0.5787 -0.2435
  964MOL0     O27163   0.688  -0.895   8.874 -0.1658 -0.2839  0.6893
  964MOL0     C27164   0.903  -0.709   8.873 -0.9837 -0.0212 -0.7006
  964MOL0     C27165   1.014  -0.617   8.864  0.0906  0.0056 -0.4572
  964MOL0     N27166   0.987   0.176   8.559 -0.3800  0.4858 -1.3411
  964MOL0     N27167   1.024   0.300   8.548  0.0497 -1.0160 -0.0564
  964MOL0     C27168   2.108   0.565   8.027  0.2732  0.7225  0.8883
  964MOL0     C27169   2.239   0.538   8.073 -0.2628 -0.7588  0.7011
  964MOL0     C27170   2.664   0.630   8.214  0.7296 -1.3944 -0.3118
  964MOL0     C27171   2.712   0.507   8.181  0.6716 -0.8764  0.8481
  964MOL0     C27172   2.841   0.466   8.199 -0.3691 -0.9190  0.5744
  964MOL0     C27173   2.935   0.551   8.259 -0.2386 -0.6362  0.3791
  964MOL0     O27174   3.063   0.495   8.276  1.0847  0.0594  0.1795
  964MOL0     C27175   3.148   0.571   8.361  0.0689  0.6089  0.5414
  964MOL0     C27176   3.280   0.495   8.378 -0.8084  0.0673 -0.0004
  964MOL0     C27177   3.346   0.478   8.243  0.0020  0.6876 -0.5564
  964MOL0     C27178   3.502   0.495   8.244  0.2701  0.6288 -0.3010
  964MOL0     C27179   3.580   0.383   8.307 -0.1135 -0.0249  0.6032
  964MOL0     C27180   3.628   0.280   8.345 -0.1174 -0.0576 -0.9608
  964MOL0     C27181   2.892   0.677   8.306 -0.7857  0.3727 -0.5221
  964MOL0     C27182   2.764   0.718   8.273  1.7064  0.3817  0.3771
  964MOL0     H27183   2.374   0.838   7.980  0.7648  0.2031  1.7795
  964MOL0     H27184   2.162   0.874   7.898 -1.9895 -1.1148 -1.1030
  964MOL0     H27185   1.848   0.548   7.916 -1.8159  0.1086  0.0936
  964MOL0     H27186   1.763   0.699   7.856 -0.5360  1.5859  0.4524
  964MOL0     H27187   1.762   0.781   8.086  2.1177  0.0869 -1.5769
  964MOL0     H27188   1.850   0.630   8.142  0.6378  3.2790  2.4826
  964MOL0     H27189   1.651   0.488   8.078 -0.1804 -0.5018  3.6931
  964MOL0     H27190   1.586   0.628   8.002  0.0817  1.0018  0.2611
  964MOL0     H27191   1.674   0.617   8.299 -0.6407 -0.7486  0.7058
  964MOL0     H27192   1.537   0.718   8.227 -0.2653  0.7810  0.7183
  964MOL0     H27193   1.541   0.408   8.260  0.1716 -0.9253  3.6101
  964MOL0     H27194   1.417   0.500   8.191  0.6099 -0.7080  0.6260
  964MOL0     H27195   1.370   0.613   8.417 -1.9005 -1.7402  0.9940
  964MOL0     H27196   1.512   0.526   8.483  1.9343 -0.2906 -1.9205
  964MOL0     H27197   1.298   0.376   8.338  1.4109  2.1753 -1.5654
  964MOL0     H27198   1.415   0.322   8.446 -1.5843 -1.1478  2.7719
  964MOL0     H27199   1.173   0.509   8.503  0.0573 -0.7669 -0.0010
  964MOL0     H27200   1.283   0.454   8.634 -2.3207 -0.0870  1.8730
  964MOL0     H27201   1.311   0.161   8.606  0.1173 -1.8061 -0.6070
  964MOL0     H27202   1.188  -0.085   8.552 -0.7778  0.2887 -0.1094
  964MOL0     H27203   1.014  -0.091   8.559 -0.1391 -0.3614  0.2575
  964MOL0     H27204   0.999  -0.065   8.793  0.1212 -1.7032  1.0360
  964MOL0     H27205   1.164  -0.019   8.821 -1.4111  3.6541 -1.2470
  964MOL0     H27206   1.080  -0.289   8.701  0.9926  1.4812 -1.3210
  964MOL0     H27207   1.247  -0.243   8.743  1.4336  3.0753  0.5224
  964MOL0     H27208   1.018  -0.233   8.948 -0.3197 -0.8755  0.4452
  964MOL0     H27209   1.195  -0.236   8.970  1.4106  0.0892 -2.0422
  964MOL0     H27210   0.852  -0.362   9.009 -0.0048  0.6893 -1.6043
  964MOL0     H27211   0.664  -0.508   9.011  0.4958  2.3548 -0.7452
  964MOL0     H27212   0.433  -0.810   8.744  0.2134 -2.8206 -1.5019
  964MOL0     H27213   0.234  -0.971   8.719 -1.3931  1.0857 -0.3844
  964MOL0     H27214  -0.049  -1.156   8.851 -0.8747 -0.0059  0.4562
  964MOL0     H27215   0.004  -0.992   8.832 -2.1376 -0.2636 -0.6861
  964MOL0     H27216  -0.139  -1.006   9.039  0.1795  0.2001 -0.0520
  964MOL0     H27217   0.024  -0.977   9.087 -2.6474  2.3664 -1.8188
  964MOL0     H27218   0.064  -1.227   9.126 -0.8946 -0.6814  0.0619
  964MOL0     H27219  -0.107  -1.250   9.082  2.0304 -2.0675 -2.2429
  964MOL0     H27220  -0.171  -1.094   9.246  0.3391  1.3986 -0.1815
  964MOL0     H27221  -0.110  -1.246   9.323 -0.6194  0.7850  1.5633
  964MOL0     H27222  -0.038  -1.045   9.451  0.2170 -2.5540  1.0064
  964MOL0     H27223   0.060  -0.998   9.293  1.7920 -0.5208 -0.7829
  964MOL0     H27224   0.212  -1.163   9.331 -1.5691  1.0819 -1.3064
  964MOL0     H27225   0.100  -1.255   9.423  0.6308 -1.2185 -1.7232
  964MOL0     H27226   0.127  -1.053   9.598 -1.0423 -0.7020 -0.3531
  964MOL0     H27227   0.231  -1.198   9.603  2.5610  0.7807 -0.7783
  964MOL0     H27228   0.405  -1.108   9.519 -2.2574 -1.7488  2.6334
  964MOL0     H27229   0.350  -0.980   9.639 -0.3720  1.3773  0.3931
  964MOL0     H27230   0.266  -1.076   9.126  1.7409 -2.8739 -1.4794
  964MOL0     H27231   0.463  -0.916   9.161  0.6710  0.5555 -0.4752
  964MOL0     H27232   0.921  -0.807   8.829  0.4130  0.4851 -1.3251
  964MOL0     H27233   1.112  -0.624   8.816 -0.3147  0.7021 -1.4315
  964MOL0     H27234   2.043   0.482   8.050 -0.1810  0.4979 -1.0746
  964MOL0     H27235   2.272   0.447   8.121 -0.4860 -0.7854  0.8042
  964MOL0     H27236   2.641   0.431   8.154 -1.1236 -0.3355  3.6382
  964MOL0     H27237   2.863   0.364   8.172 -0.8595 -1.0811  0.7815
  964MOL0     H27238   3.099   0.581   8.458  2.0029 -1.7078  1.8824
  964MOL0     H27239   3.161   0.668   8.314 -3.2313  0.0545 -1.8566
  964MOL0     H27240   3.343   0.550   8.448 -0.9787 -0.2850  0.4366
  964MOL0     H27241   3.257   0.398   8.423  0.3706 -0.2394 -0.0201
  964MOL0     H27242   3.309   0.560   8.182  0.4871  1.3620  0.0394
  964MOL0     H27243   3.312   0.381   8.207 -0.8242 -0.2228  2.3498
  964MOL0     H27244   3.540   0.503   8.141 -0.4963 -0.8610 -0.7244
  964MOL0     H27245   3.522   0.593   8.288  2.2049  0.7385 -1.3366
  964MOL0     H27246   3.667   0.187   8.379 -2.1067 -0.8677 -0.7349
  964MOL0     H27247   2.968   0.739   8.352 -0.3784 -1.2951  1.1595
  964MOL0     H27248   2.719   0.813   8.299  0.2296  0.2326 -1.4204
  965MOL0     O27249   8.048   9.510   0.328 -0.3033  0.6088  0.1486
  965MOL0     C27250   8.062   9.529   0.446  0.0627  0.0945 -0.1286
  965MOL0     O27251   8.181   9.512   0.520 -0.1217  0.4093  0.0002
  965MOL0     C27252   8.293   9.455   0.457  0.5591 -0.4871 -0.6825
  965MOL0     C27253   8.305   9.328   0.396  0.7168 -0.3164 -0.1667
  965MOL0     C27254   8.411   9.285   0.318 -0.2058 -0.6491 -0.7831
  965MOL0     C27255   8.526   9.360   0.316  0.8413 -0.6737 -0.2560
  965MOL0     O27256   8.634   9.312   0.247  0.1967  0.5303 -1.1099
  965MOL0     C27257   8.767   9.355   0.282  0.5624 -0.1857  0.0463
  965MOL0     C27258   8.871   9.307   0.188  0.2294 -0.5142 -0.4185
  965MOL0     C27259   9.015   9.323   0.240  0.6146  0.6478  0.0437
  965MOL0     C27260   9.105   9.260   0.143  0.3149  0.5634  0.2205
  965MOL0     C27261   9.259   9.293   0.163 -0.9132  0.0277  0.1884
  965MOL0     C27262   9.317   9.244   0.292 -0.2094  0.4198 -0.7660
  965MOL0     C27263   9.470   9.272   0.310  1.5053 -0.3272  0.6181
  965MOL0     C27264   9.542   9.180   0.409  0.1647  0.3436 -0.1069
  965MOL0     N27265   9.668   9.240   0.467  0.0921  0.6122  0.3021
  965MOL0     C27266   9.790   9.247   0.404 -0.4555 -0.1955 -0.4251
  965MOL0     C27267   9.882   9.269   0.501  0.3385 -0.6690  0.1853
  965MOL0     C27268  10.034   9.280   0.486  0.5528  0.1168  0.2781
  965MOL0     C27269  10.074   9.398   0.380  0.8224 -1.0562  0.4892
  965MOL0     C27270  10.134   9.519   0.451 -0.4204  0.2556 -1.1249
  965MOL0     C27271  10.166   9.629   0.346  0.6902  0.9405 -0.9324
  965MOL0     O27272  10.046   9.662   0.280  0.3079 -0.2707  0.5586
  965MOL0     C27273   9.964   9.766   0.335  0.0964  0.0585 -0.0416
  965MOL0     C27274   9.963   9.811   0.472  0.1549  0.0054  0.0746
  965MOL0     C27275   9.867   9.903   0.516  0.5206  0.0058  0.5486
  965MOL0     C27276   9.782   9.962   0.423 -0.8352 -0.9701 -0.1597
  965MOL0     C27277   9.689  10.071   0.465 -0.5931 -0.2406 -1.3508
  965MOL0     O27278   9.583  10.078   0.380  0.5102 -0.1227 -0.2262
  965MOL0     C27279   9.475  10.147   0.414 -0.1140  0.5894  0.2137
  965MOL0     C27280   9.353  10.098   0.361  0.3616  1.0366 -0.8478
  965MOL0     C27281   9.237  10.165   0.358  0.6857  0.2618 -0.6043
  965MOL0     C27282   9.231  10.292   0.425 -0.4474  0.9380  0.6771
  965MOL0     O27283   9.112  10.352   0.435  0.2882  0.2494  0.0799
  965MOL0     C27284   9.086  10.415   0.561  0.2164  0.3668 -0.6001
  965MOL0     C27285   8.939  10.388   0.589 -0.3694  0.9604 -0.0079
  965MOL0     C27286   8.847  10.413   0.464  0.3414  0.1938 -0.8990
  965MOL0     C27287   8.702  10.413   0.516  0.3491 -0.1646  0.2065
  965MOL0     C27288   8.609  10.419   0.399  0.1193  0.3410  0.8763
  965MOL0     C27289   8.463  10.432   0.448 -0.1441 -0.8872 -0.1840
  965MOL0     C27290   8.358  10.417   0.325 -0.2403 -0.2351 -0.0431
  965MOL0     C27291   8.229  10.486   0.364  0.8825  0.0538 -1.0638
  965MOL0    Cl27292   8.153  10.410   0.515  0.5880 -0.3978 -0.1351
  965MOL0     C27293   9.350  10.345   0.476 -0.3097 -0.5730 -0.1300
  965MOL0     C27294   9.463  10.266   0.482 -0.3304  0.0043  0.5394
  965MOL0     O27295   9.693  10.117   0.583 -0.2679  0.3373  0.3416
  965MOL0     C27296   9.783   9.925   0.286 -0.2196 -0.1539 -0.1048
  965MOL0     C27297   9.873   9.822   0.244 -1.0899 -0.6386  0.5769
  965MOL0     N27298   9.811   9.270   0.623 -0.5946 -0.5978  0.5440
  965MOL0     N27299   9.688   9.247   0.600 -0.8014  0.2651 -0.3804
  965MOL0     C27300   8.522   9.487   0.389 -0.2371  0.1075  0.0522
  965MOL0     C27301   8.408   9.534   0.455  0.0276  0.7151  0.5162
  965MOL0     C27302   7.948   9.596   0.517  0.3223  0.8270 -0.8217
  965MOL0     C27303   7.833   9.620   0.450  1.3683 -0.0171 -1.0607
  965MOL0     C27304   7.716   9.662   0.521 -0.8464 -0.6372  0.0556
  965MOL0     C27305   7.716   9.686   0.657 -0.1551  0.0124 -0.2795
  965MOL0     O27306   7.618   9.723   0.743  0.2740 -0.5691 -0.4504
  965MOL0     C27307   7.508   9.785   0.677 -0.3716 -0.5790  1.2858
  965MOL0     C27308   7.407   9.806   0.793 -0.7502 -0.1664  0.5394
  965MOL0     C27309   7.302   9.901   0.742  0.2534  0.3621 -0.0575
  965MOL0     C27310   7.227   9.963   0.861  0.0695  0.0642 -1.7331
  965MOL0     C27311   7.159   9.849   0.934 -0.4421 -0.6777  0.1874
  965MOL0     C27312   7.092   9.775   1.003  0.3779  0.3077  0.1951
  965MOL0     C27313   7.832   9.654   0.729  0.3955 -0.0394  0.8833
  965MOL0     C27314   7.948   9.613   0.656 -0.4197 -0.2767 -0.5817
  965MOL0     H27315   8.219   9.262   0.405  1.1086 -0.7165  0.8031
  965MOL0     H27316   8.418   9.187   0.270  1.2032 -0.2404 -1.4544
  965MOL0     H27317   8.788   9.311   0.380 -2.4140 -1.0299  0.4169
  965MOL0     H27318   8.773   9.463   0.297  0.9559 -0.4889  2.4291
  965MOL0     H27319   8.873   9.365   0.095 -1.0777  0.6170  0.2194
  965MOL0     H27320   8.848   9.201   0.171  0.1011 -0.8637  1.7028
  965MOL0     H27321   9.020   9.268   0.334 -1.3369  0.5665  0.1528
  965MOL0     H27322   9.026   9.430   0.261 -1.1837  0.6574  1.1998
  965MOL0     H27323   9.078   9.154   0.143 -0.2983  0.7145 -0.3732
  965MOL0     H27324   9.080   9.280   0.039  0.5399  0.7428  0.2006
  965MOL0     H27325   9.273   9.401   0.155 -1.1197  0.1607  1.3791
  965MOL0     H27326   9.321   9.255   0.082 -0.0794 -1.1368  1.3233
  965MOL0     H27327   9.292   9.137   0.286 -4.0229  1.1851 -0.5507
  965MOL0     H27328   9.271   9.277   0.385  1.8815 -3.5616  1.9617
  965MOL0     H27329   9.531   9.272   0.219  2.7764 -1.0664  1.4301
  965MOL0     H27330   9.481   9.376   0.341  2.0926 -0.4644  0.8955
  965MOL0     H27331   9.570   9.090   0.353  0.0705  0.9695 -1.1870
  965MOL0     H27332   9.479   9.135   0.487  1.0108  1.0361  0.9985
  965MOL0     H27333   9.809   9.236   0.298 -2.8145 -3.8727 -0.6454
  965MOL0     H27334  10.072   9.185   0.448 -0.1931 -0.3497  0.6726
  965MOL0     H27335  10.077   9.297   0.585 -0.8491  1.0716  0.7612
  965MOL0     H27336   9.984   9.428   0.326  2.1461  1.2834 -0.5790
  965MOL0     H27337  10.148   9.355   0.312  1.4164  0.4157  0.1592
  965MOL0     H27338  10.060   9.552   0.525  0.2152 -1.3868  0.3179
  965MOL0     H27339  10.222   9.502   0.513 -0.1857  2.4899 -0.7727
  965MOL0     H27340  10.245   9.598   0.276  1.6078 -0.2702  0.5691
  965MOL0     H27341  10.216   9.706   0.405 -0.7227  1.0532  0.1536
  965MOL0     H27342  10.036   9.764   0.538 -2.4595 -5.0671 -0.1285
  965MOL0     H27343   9.866   9.938   0.618 -0.4400  0.8594  0.2662
  965MOL0     H27344   9.361  10.001   0.312  4.5030  1.6149 -1.7004
  965MOL0     H27345   9.151  10.127   0.304  0.2998 -2.6725  1.8702
  965MOL0     H27346   9.096  10.522   0.540 -3.0331  0.8807 -0.0267
  965MOL0     H27347   9.150  10.377   0.641 -2.0246  0.6969  1.4480
  965MOL0     H27348   8.914  10.449   0.676 -3.5497  0.1028 -0.1959
  965MOL0     H27349   8.920  10.284   0.615 -2.8844  1.7223  1.4887
  965MOL0     H27350   8.858  10.335   0.388 -0.9728 -3.5510  2.3978
  965MOL0     H27351   8.870  10.512   0.426  2.7945 -1.0727 -3.0308
  965MOL0     H27352   8.685  10.323   0.575  2.7130 -1.7965 -1.3895
  965MOL0     H27353   8.683  10.501   0.577 -1.8162 -1.2498  1.1915
  965MOL0     H27354   8.630  10.330   0.338  1.2613  1.6720 -0.7507
  965MOL0     H27355   8.637  10.507   0.341  2.3130 -0.1663  1.0809
  965MOL0     H27356   8.457  10.528   0.501 -0.3268 -0.1570 -1.4822
  965MOL0     H27357   8.448  10.348   0.516  1.7641 -0.6275  0.6182
  965MOL0     H27358   8.390  10.463   0.232 -0.3623  0.0787  0.0708
  965MOL0     H27359   8.336  10.311   0.309  1.4597 -1.2100  3.0565
  965MOL0     H27360   8.159  10.475   0.280 -0.2586 -3.1657  0.1557
  965MOL0     H27361   8.250  10.592   0.382  1.8174  0.0128 -1.8105
  965MOL0     H27362   9.348  10.444   0.520  3.2998 -0.8139  0.9055
  965MOL0     H27363   9.555  10.304   0.524  1.8100 -2.1153 -1.9023
  965MOL0     H27364   9.711   9.963   0.213 -1.4649 -0.9754  0.6523
  965MOL0     H27365   9.876   9.787   0.141  0.3431  1.4899 -0.1903
  965MOL0     H27366   8.605   9.554   0.369  0.8495 -0.4302  2.4818
  965MOL0     H27367   8.400   9.637   0.489 -0.2747  1.2077 -0.9542
  965MOL0     H27368   7.821   9.612   0.342 -0.9290 -0.3128 -0.8198
  965MOL0     H27369   7.627   9.696   0.469 -0.9642 -2.6284 -1.1294
  965MOL0     H27370   7.461   9.722   0.600 -0.4430  2.2358 -1.1276
  965MOL0     H27371   7.546   9.879   0.637 -0.6485 -0.4354  1.3610
  965MOL0     H27372   7.356   9.712   0.812 -0.3144  0.0965  3.5198
  965MOL0     H27373   7.459   9.846   0.880  1.3277 -1.0229 -0.2299
  965MOL0     H27374   7.233   9.840   0.684  0.7488 -2.4327  2.0392
  965MOL0     H27375   7.342   9.982   0.680 -1.4378 -0.0069 -1.7092
  965MOL0     H27376   7.284  10.029   0.926  0.7350 -0.3429 -1.8943
  965MOL0     H27377   7.153  10.029   0.815 -2.2184 -2.2293 -1.5894
  965MOL0     H27378   7.023   9.716   1.059 -1.3634 -0.0371 -2.1391
  965MOL0     H27379   7.818   9.656   0.837  0.2325 -1.0788  0.8845
  965MOL0     H27380   8.030   9.572   0.713  0.1161  1.1617 -0.2741
  966MOL0     O27381   3.746   9.227   6.013  0.5638  0.0995 -0.3402
  966MOL0     C27382   3.866   9.253   6.024 -0.1565 -0.9302  0.4925
  966MOL0     O27383   3.946   9.330   5.942  0.5899 -0.0678 -0.4589
  966MOL0     C27384   3.920   9.355   5.811  0.3942  0.0332 -0.7100
  966MOL0     C27385   3.858   9.267   5.719 -0.3086  0.2080 -0.3369
  966MOL0     C27386   3.838   9.306   5.589 -0.2692 -0.1366  0.5387
  966MOL0     C27387   3.901   9.424   5.538  0.5463 -0.6900 -0.0855
  966MOL0     O27388   3.903   9.463   5.401  0.3825 -0.7753 -0.3078
  966MOL0     C27389   3.824   9.393   5.308  0.3207  0.2130  0.2216
  966MOL0     C27390   3.872   9.419   5.164 -0.6042 -0.0259 -0.2831
  966MOL0     C27391   3.891   9.570   5.135  0.2988  1.1250  0.2593
  966MOL0     C27392   3.762   9.649   5.165 -0.0517 -0.2794  0.0680
  966MOL0     C27393   3.640   9.597   5.093  0.0848 -0.3775  0.3860
  966MOL0     C27394   3.525   9.701   5.074  0.0870 -0.4461  0.1950
  966MOL0     C27395   3.390   9.630   5.079  0.2279  1.0611 -0.1571
  966MOL0     C27396   3.367   9.529   4.970  0.1633  0.2844 -0.1166
  966MOL0     N27397   3.313   9.595   4.853 -0.9741 -0.0341 -0.8571
  966MOL0     C27398   3.183   9.647   4.833 -0.2980  0.3820  0.0863
  966MOL0     C27399   3.199   9.711   4.715  0.0892  0.0718 -0.0949
  966MOL0     C27400   3.105   9.795   4.642  0.1451 -0.2169 -0.8198
  966MOL0     C27401   2.962   9.739   4.660 -0.2435 -0.0926 -0.0023
  966MOL0     C27402   2.863   9.787   4.558  0.6717 -0.1399  0.1503
  966MOL0     C27403   2.728   9.709   4.556  0.7726 -0.4730 -0.6048
  966MOL0     O27404   2.676   9.719   4.423  0.4044 -0.2126 -0.1913
  966MOL0     C27405   2.559   9.666   4.373 -0.3422 -0.3711 -0.0521
  966MOL0     C27406   2.515   9.707   4.245  0.6553 -0.5144  0.3678
  966MOL0     C27407   2.401   9.655   4.183 -0.3179 -0.4657 -0.3668
  966MOL0     C27408   2.318   9.570   4.252  1.1623 -0.4696  0.1949
  966MOL0     C27409   2.186   9.525   4.189  0.4189  0.7319  0.7502
  966MOL0     O27410   2.136   9.596   4.088 -0.0975  0.5265  0.3246
  966MOL0     C27411   2.008   9.578   4.042  0.3532  0.2431 -1.6813
  966MOL0     C27412   1.990   9.589   3.910 -1.0479  0.0813  0.1040
  966MOL0     C27413   1.872   9.554   3.849  0.3113  0.8410  0.0844
  966MOL0     C27414   1.760   9.512   3.916 -0.1197 -0.5000 -0.6252
  966MOL0     O27415   1.650   9.461   3.842 -0.9253 -0.0456 -0.1271
  966MOL0     C27416   1.523   9.508   3.887 -0.0861  0.7942 -0.3975
  966MOL0     C27417   1.416   9.435   3.806  0.2064  0.9658 -0.2060
  966MOL0     C27418   1.274   9.471   3.843 -0.0150  0.2160  0.0048
  966MOL0     C27419   1.173   9.387   3.768 -0.8102  1.0578 -0.1430
  966MOL0     C27420   1.036   9.444   3.760 -1.1359  0.0474  0.0578
  966MOL0     C27421   0.938   9.357   3.693  0.1798  0.5281  0.5811
  966MOL0     C27422   0.883   9.242   3.780 -0.4355 -0.2389  0.5524
  966MOL0     C27423   0.778   9.159   3.709 -0.1571 -0.6353  0.2541
  966MOL0    Cl27424   0.648   9.260   3.662  0.1899 -0.1110 -0.2799
  966MOL0     C27425   1.770   9.505   4.057 -0.0818  0.4593  0.0304
  966MOL0     C27426   1.895   9.543   4.121 -0.2306 -0.0456  0.8605
  966MOL0     O27427   2.142   9.424   4.232  0.3153  0.6729 -0.1475
  966MOL0     C27428   2.354   9.535   4.382 -0.2171  0.2011  1.3998
  966MOL0     C27429   2.475   9.583   4.442 -0.7010 -0.4904  0.1060
  966MOL0     N27430   3.330   9.696   4.668  0.2468 -0.0829  0.7469
  966MOL0     N27431   3.390   9.621   4.743 -0.2318  0.1985  0.7139
  966MOL0     C27432   3.962   9.512   5.623  0.6031 -0.0081 -0.1069
  966MOL0     C27433   3.964   9.480   5.759  0.0633  0.1424  0.2358
  966MOL0     C27434   3.923   9.227   6.162  0.5127 -0.3060  0.6143
  966MOL0     C27435   4.063   9.235   6.174  0.2671 -0.3304  0.0848
  966MOL0     C27436   4.120   9.216   6.297  0.0735 -0.0190  0.0926
  966MOL0     C27437   4.042   9.180   6.406 -0.3751 -0.2609  0.1325
  966MOL0     O27438   4.099   9.137   6.524 -0.1514  0.1315  0.4595
  966MOL0     C27439   4.246   9.120   6.537  0.9446 -0.1238  0.5693
  966MOL0     C27440   4.300   9.258   6.581 -0.1514 -0.2450 -0.5005
  966MOL0     C27441   4.448   9.274   6.549  0.2168 -0.9771 -0.5205
  966MOL0     C27442   4.555   9.201   6.630  0.2540  0.4414 -0.6142
  966MOL0     C27443   4.533   9.064   6.628 -0.0724 -1.4173 -0.1183
  966MOL0     C27444   4.529   8.945   6.644  0.6942 -0.2497  0.0395
  966MOL0     C27445   3.902   9.171   6.391 -0.1209  0.7745 -0.6223
  966MOL0     C27446   3.847   9.195   6.273 -0.1582 -0.1573 -0.0061
  966MOL0     H27447   3.830   9.170   5.759  0.0593 -0.5171 -1.7652
  966MOL0     H27448   3.781   9.244   5.522 -1.4709  0.3982  1.0279
  966MOL0     H27449   3.726   9.435   5.332 -1.4161 -3.5957  0.6480
  966MOL0     H27450   3.813   9.285   5.321  0.3035 -0.0896 -1.9084
  966MOL0     H27451   3.798   9.384   5.091 -1.8764  2.7914 -0.4662
  966MOL0     H27452   3.959   9.365   5.125 -1.2710 -1.0451 -0.4061
  966MOL0     H27453   3.918   9.584   5.030 -1.8123  0.2363 -0.4420
  966MOL0     H27454   3.974   9.611   5.194  2.1663 -2.4793  0.4084
  966MOL0     H27455   3.754   9.645   5.274  1.7623 -2.1566  0.1858
  966MOL0     H27456   3.777   9.754   5.137 -0.0454 -0.1814  0.4406
  966MOL0     H27457   3.598   9.515   5.152 -2.8711  0.8436  0.1702
  966MOL0     H27458   3.663   9.563   4.992  1.2474 -0.2587  0.5954
  966MOL0     H27459   3.537   9.753   4.978 -1.2613 -3.8609 -2.0149
  966MOL0     H27460   3.528   9.778   5.151  0.8114 -0.8275  0.5553
  966MOL0     H27461   3.380   9.568   5.169 -0.6032 -2.0876 -2.2760
  966MOL0     H27462   3.308   9.702   5.071  1.3661  2.1503 -3.7706
  966MOL0     H27463   3.285   9.462   4.998  0.7768 -0.6125 -0.3970
  966MOL0     H27464   3.459   9.476   4.943 -0.4238  0.0674 -1.8116
  966MOL0     H27465   3.094   9.641   4.895 -0.4833 -0.8493 -0.2536
  966MOL0     H27466   3.137   9.799   4.537  0.5398  0.8310 -0.6713
  966MOL0     H27467   3.113   9.897   4.680 -1.4755 -0.8769  1.4844
  966MOL0     H27468   2.917   9.764   4.757 -1.1510  1.5768 -0.8041
  966MOL0     H27469   2.964   9.630   4.655 -0.6808 -0.0321 -2.0536
  966MOL0     H27470   2.836   9.893   4.568  2.2968  0.3326 -0.1662
  966MOL0     H27471   2.913   9.768   4.463  1.6115 -0.7450  0.7525
  966MOL0     H27472   2.653   9.747   4.625 -0.1992 -0.0760 -1.8418
  966MOL0     H27473   2.747   9.604   4.580 -2.0044 -0.8997 -0.0085
  966MOL0     H27474   2.579   9.772   4.186  0.9841 -0.4925  0.7487
  966MOL0     H27475   2.374   9.698   4.087  1.2903 -2.1330 -1.6484
  966MOL0     H27476   2.079   9.611   3.852 -0.8321  1.8301  1.0261
  966MOL0     H27477   1.858   9.553   3.742  3.5106  1.5666 -0.4555
  966MOL0     H27478   1.510   9.616   3.873 -0.9981  0.4377 -2.7114
  966MOL0     H27479   1.519   9.484   3.994 -1.8627  0.7745 -0.4350
  966MOL0     H27480   1.434   9.328   3.820  3.7194  1.4323 -0.4186
  966MOL0     H27481   1.440   9.462   3.703 -0.2814 -0.6064 -0.7513
  966MOL0     H27482   1.245   9.571   3.811  2.2279  0.9779  0.1859
  966MOL0     H27483   1.251   9.466   3.949 -1.7267  0.3252 -0.3391
  966MOL0     H27484   1.207   9.365   3.667 -1.0814 -1.1516  0.1931
  966MOL0     H27485   1.174   9.294   3.826  4.2740  0.9051 -0.0152
  966MOL0     H27486   1.041   9.537   3.702 -0.1965 -0.6425 -1.0028
  966MOL0     H27487   1.003   9.465   3.863 -3.7196  2.1550 -1.0742
  966MOL0     H27488   0.976   9.327   3.596 -0.7870  0.0940  0.3272
  966MOL0     H27489   0.855   9.425   3.669 -0.4943 -0.1691  0.8930
  966MOL0     H27490   0.964   9.176   3.810 -0.7784 -1.9955 -2.0781
  966MOL0     H27491   0.830   9.288   3.864 -2.0352  1.0148 -1.0644
  966MOL0     H27492   0.755   9.088   3.789  2.0251  0.5701  2.0851
  966MOL0     H27493   0.819   9.100   3.627 -3.9434 -0.4564 -2.0087
  966MOL0     H27494   1.693   9.454   4.113  0.6270 -0.4500  0.2088
  966MOL0     H27495   1.897   9.524   4.228 -2.2707  1.6661  1.2582
  966MOL0     H27496   2.293   9.472   4.446  1.0053 -2.6912 -0.1007
  966MOL0     H27497   2.492   9.564   4.547  0.5180  2.1266  0.4814
  966MOL0     H27498   4.004   9.606   5.589 -0.6464  0.0300 -1.6524
  966MOL0     H27499   4.012   9.543   5.833 -0.2951 -1.0035  1.4863
  966MOL0     H27500   4.124   9.261   6.088  0.6582  1.6523  0.8936
  966MOL0     H27501   4.228   9.221   6.306  0.0362 -1.0099  1.4990
  966MOL0     H27502   4.289   9.081   6.444 -0.8438  1.6069 -1.0842
  966MOL0     H27503   4.261   9.041   6.611  3.2890 -0.1110  0.1971
  966MOL0     H27504   4.242   9.339   6.535  0.7948  1.4586  1.1170
  966MOL0     H27505   4.282   9.281   6.687  1.2475  2.2270 -0.7147
  966MOL0     H27506   4.455   9.379   6.576 -0.4230 -1.1219  0.2361
  966MOL0     H27507   4.467   9.263   6.441  2.1652 -1.4631 -0.1606
  966MOL0     H27508   4.654   9.210   6.584  0.3264 -2.1172 -1.1039
  966MOL0     H27509   4.561   9.241   6.731  0.2129  0.1936 -0.5123
  966MOL0     H27510   4.519   8.838   6.653  1.2729 -0.7653 -3.7500
  966MOL0     H27511   3.838   9.134   6.471  0.4889  0.9220 -0.0556
  966MOL0     H27512   3.738   9.191   6.274 -0.1516 -1.3665  1.4108
  967MOL0     O27513   8.167   3.283   9.061  0.5034  0.3045 -0.7348
  967MOL0     C27514   8.225   3.181   9.098  0.1951 -0.4148  0.1049
  967MOL0     O27515   8.205   3.059   9.052 -0.7963  0.0475  0.0726
  967MOL0     C27516   8.119   3.034   8.944 -0.3208  0.0162  0.6315
  967MOL0     C27517   7.996   2.987   8.963  0.0586  0.5420  0.2289
  967MOL0     C27518   7.910   2.950   8.853  0.5338  0.9989  0.2164
  967MOL0     C27519   7.950   2.963   8.724 -0.2670 -0.6865  0.0467
  967MOL0     O27520   7.856   2.929   8.635 -1.1201 -0.4728  1.2705
  967MOL0     C27521   7.877   2.929   8.488 -1.2578 -0.0847 -0.0015
  967MOL0     C27522   7.825   3.063   8.443 -0.2252  0.1186  0.3539
  967MOL0     C27523   7.765   3.065   8.298  0.3559  0.0720  0.7457
  967MOL0     C27524   7.781   3.198   8.236 -0.0492  0.7402  0.8613
  967MOL0     C27525   7.753   3.215   8.084 -0.3450  1.0950 -0.0881
  967MOL0     C27526   7.833   3.113   7.991  0.3954 -0.1636 -0.3088
  967MOL0     C27527   7.799   3.134   7.840 -0.5438 -0.3091 -0.3160
  967MOL0     C27528   7.843   3.031   7.745  0.7269 -0.4657 -0.2334
  967MOL0     N27529   7.826   3.073   7.600 -0.2748 -0.1137 -0.8489
  967MOL0     C27530   7.712   3.054   7.528  1.0153  0.0011  0.4347
  967MOL0     C27531   7.743   3.105   7.404 -0.5583  0.0662  1.2475
  967MOL0     C27532   7.655   3.102   7.273 -0.1116  0.0039 -0.3299
  967MOL0     C27533   7.711   3.178   7.151 -0.2299 -0.1217 -0.4125
  967MOL0     C27534   7.641   3.132   7.022  0.4175  0.4192  0.4773
  967MOL0     C27535   7.709   3.196   6.904 -0.7198  0.1230 -0.1219
  967MOL0     O27536   7.846   3.140   6.901 -0.0158 -0.2568 -0.1390
  967MOL0     C27537   7.942   3.177   6.816 -0.5309  0.6645 -0.5435
  967MOL0     C27538   8.069   3.127   6.839 -0.4033  0.0174  0.1156
  967MOL0     C27539   8.182   3.150   6.756 -0.0117 -1.0169  0.2709
  967MOL0     C27540   8.168   3.238   6.644 -0.1790 -0.0248  0.4928
  967MOL0     C27541   8.287   3.278   6.563  0.3677  0.1493 -0.5718
  967MOL0     O27542   8.407   3.232   6.603  0.4710 -0.1101 -0.5966
  967MOL0     C27543   8.531   3.277   6.558  0.5379  0.1146  0.7421
  967MOL0     C27544   8.561   3.404   6.496 -0.1692  0.9582  1.1231
  967MOL0     C27545   8.693   3.424   6.440  0.5287  0.1491 -0.5209
  967MOL0     C27546   8.790   3.325   6.452 -0.1258  0.0224  0.9472
  967MOL0     O27547   8.918   3.329   6.398  0.1418 -0.7422  0.2185
  967MOL0     C27548   8.962   3.456   6.329 -0.2101 -0.2625 -0.3082
  967MOL0     C27549   9.115   3.447   6.311 -0.3960 -0.0824 -0.1660
  967MOL0     C27550   9.167   3.571   6.233 -0.1000 -1.0169  0.2855
  967MOL0     C27551   9.324   3.575   6.218 -0.2671 -0.1651  0.3974
  967MOL0     C27552   9.364   3.687   6.120  0.3985 -0.1509 -0.4728
  967MOL0     C27553   9.521   3.701   6.102  0.1467  0.9287 -0.4637
  967MOL0     C27554   9.587   3.572   6.036  0.3925 -0.2356  0.7318
  967MOL0     C27555   9.738   3.587   6.037 -0.3344 -0.3275 -0.1122
  967MOL0    Cl27556   9.819   3.465   5.937 -0.3918  0.0218  0.0721
  967MOL0     C27557   8.755   3.213   6.524 -0.0343 -0.2188 -0.0091
  967MOL0     C27558   8.632   3.186   6.569  0.2227  0.3807 -0.5122
  967MOL0     O27559   8.269   3.360   6.473  0.3204  0.7421  0.5151
  967MOL0     C27560   8.047   3.305   6.636 -0.1181  0.1683  0.0518
  967MOL0     C27561   7.939   3.273   6.717 -0.0330 -1.2485 -0.7029
  967MOL0     N27562   7.872   3.153   7.410 -0.3393  0.6853  0.2626
  967MOL0     N27563   7.926   3.129   7.522  1.0043  0.3353 -0.0900
  967MOL0     C27564   8.076   3.020   8.698 -0.7214  0.0746  0.2129
  967MOL0     C27565   8.160   3.049   8.813 -1.0260 -0.2246  1.2520
  967MOL0     C27566   8.319   3.200   9.213  0.0554  0.7369 -0.1407
  967MOL0     C27567   8.285   3.295   9.312 -0.1780  1.1194 -0.9726
  967MOL0     C27568   8.357   3.294   9.434 -0.0987  0.1567 -0.3280
  967MOL0     C27569   8.462   3.208   9.446 -0.0975  0.4935 -0.0679
  967MOL0     O27570   8.539   3.221   9.563 -0.1009  0.4117  0.2001
  967MOL0     C27571   8.601   3.353   9.563 -0.4412  0.1937  0.2224
  967MOL0     C27572   8.691   3.365   9.690  0.9193  0.6435  0.2537
  967MOL0     C27573   8.801   3.260   9.721 -0.5086  0.1238 -0.4349
  967MOL0     C27574   8.889   3.280   9.849 -1.1117 -0.1229 -0.4728
  967MOL0     C27575   8.821   3.249   9.978 -0.9077 -0.0224 -0.2652
  967MOL0     C27576   8.775   3.209  10.084  0.2135  0.2245 -0.8614
  967MOL0     C27577   8.501   3.124   9.346  0.0583 -0.6133  0.2523
  967MOL0     C27578   8.425   3.111   9.234 -0.3152 -0.5692  0.0196
  967MOL0     H27579   7.960   2.965   9.063  0.6097  0.7575  0.4759
  967MOL0     H27580   7.812   2.906   8.870  1.6193 -2.4073 -1.6367
  967MOL0     H27581   7.819   2.847   8.445 -1.7728 -1.1447  2.5122
  967MOL0     H27582   7.980   2.907   8.456 -1.5700 -0.6324 -0.6623
  967MOL0     H27583   7.900   3.142   8.454  2.1845 -1.8681 -0.7916
  967MOL0     H27584   7.742   3.090   8.509 -0.5162  0.6876 -0.2374
  967MOL0     H27585   7.659   3.041   8.298 -0.0465  1.2666 -2.5329
  967MOL0     H27586   7.815   2.987   8.240 -0.1571  1.8182 -2.2373
  967MOL0     H27587   7.718   3.268   8.292  1.5409  2.9210  0.0668
  967MOL0     H27588   7.883   3.236   8.240  1.1984 -2.3543  1.5816
  967MOL0     H27589   7.783   3.317   8.055  1.9607  0.9937  1.5970
  967MOL0     H27590   7.648   3.193   8.063  0.6335 -2.6637 -1.8562
  967MOL0     H27591   7.811   3.010   8.022  1.0876 -0.0422  0.6506
  967MOL0     H27592   7.939   3.127   8.015  0.4411 -0.7922 -0.1255
  967MOL0     H27593   7.691   3.149   7.838 -0.7705 -1.7007  0.0273
  967MOL0     H27594   7.848   3.227   7.811  2.9566 -2.4327 -1.8217
  967MOL0     H27595   7.788   2.941   7.772  1.7626 -0.9889  0.1989
  967MOL0     H27596   7.947   3.001   7.761  0.1420 -2.0035  0.8945
  967MOL0     H27597   7.616   3.014   7.561  1.0881 -2.1756 -1.6861
  967MOL0     H27598   7.557   3.146   7.295 -0.0436 -0.6743  1.5425
  967MOL0     H27599   7.632   2.998   7.250  0.6472 -0.0742 -0.7223
  967MOL0     H27600   7.819   3.167   7.145  0.1007  2.5049 -0.3462
  967MOL0     H27601   7.696   3.284   7.171  0.8461  0.0535 -0.4809
  967MOL0     H27602   7.638   3.024   7.009  1.2068  0.0110  3.0951
  967MOL0     H27603   7.540   3.174   7.033  0.7336  1.2237  0.4301
  967MOL0     H27604   7.727   3.303   6.914 -0.7343 -0.0262  1.9674
  967MOL0     H27605   7.654   3.175   6.812 -1.1855  1.0775 -0.0752
  967MOL0     H27606   8.096   3.059   6.919 -0.3978  1.9745  1.8583
  967MOL0     H27607   8.278   3.100   6.773  2.1672  1.3325 -3.6341
  967MOL0     H27608   8.486   3.482   6.482 -2.0967 -1.1575 -1.2340
  967MOL0     H27609   8.722   3.514   6.387  1.6990  1.0540  1.5073
  967MOL0     H27610   8.933   3.538   6.396  0.9571 -2.0700  2.5905
  967MOL0     H27611   8.916   3.466   6.230  0.2217 -0.8624 -0.5721
  967MOL0     H27612   9.121   3.362   6.243 -0.8620  1.8826 -2.8364
  967MOL0     H27613   9.173   3.445   6.404 -2.0245 -0.1051  0.8781
  967MOL0     H27614   9.142   3.663   6.287  1.7928 -1.3889  1.9426
  967MOL0     H27615   9.112   3.566   6.139 -1.3919  0.3098  0.9272
  967MOL0     H27616   9.364   3.600   6.317 -2.6336 -0.2790  1.4366
  967MOL0     H27617   9.356   3.477   6.182  1.8379  1.0193 -1.1874
  967MOL0     H27618   9.333   3.788   6.147  1.5022  0.0855 -0.0747
  967MOL0     H27619   9.317   3.664   6.024  0.0227 -1.8417  0.0801
  967MOL0     H27620   9.569   3.717   6.199  0.4082 -2.0302 -0.0244
  967MOL0     H27621   9.541   3.784   6.033 -2.5389  0.5057 -1.8868
  967MOL0     H27622   9.557   3.485   6.095 -0.2994  0.0709  0.8369
  967MOL0     H27623   9.544   3.570   5.936  2.3811  1.3254 -0.2268
  967MOL0     H27624   9.777   3.594   6.139  3.0884  2.0415 -1.4094
  967MOL0     H27625   9.758   3.687   5.997 -0.4433 -0.2568  0.0109
  967MOL0     H27626   8.831   3.142   6.557 -0.7435 -1.2588 -0.5364
  967MOL0     H27627   8.612   3.090   6.614  1.3024 -1.6571 -4.0311
  967MOL0     H27628   8.046   3.378   6.556  1.5584 -1.0761 -1.1647
  967MOL0     H27629   7.848   3.331   6.717  0.7379  0.0885  1.2598
  967MOL0     H27630   8.115   3.030   8.598 -3.2472  0.2230 -0.8118
  967MOL0     H27631   8.263   3.079   8.800 -1.0363  1.5755  4.4491
  967MOL0     H27632   8.190   3.347   9.307 -0.4883  0.8967  1.3178
  967MOL0     H27633   8.333   3.356   9.520 -0.8370 -1.6404  0.8194
  967MOL0     H27634   8.536   3.441   9.564  1.4376  1.6815 -1.2529
  967MOL0     H27635   8.663   3.358   9.473 -1.3814  2.0384 -0.3769
  967MOL0     H27636   8.738   3.464   9.693  2.8627 -0.2446  1.8814
  967MOL0     H27637   8.627   3.358   9.778  1.8265 -0.6868  0.8404
  967MOL0     H27638   8.868   3.261   9.635  1.4188  0.5870  1.0255
  967MOL0     H27639   8.748   3.165   9.730  0.6834 -0.3919  1.9935
  967MOL0     H27640   8.985   3.228   9.851  0.3969  2.5091  1.4189
  967MOL0     H27641   8.919   3.385   9.851  0.3161 -0.4800  2.9856
  967MOL0     H27642   8.743   3.169  10.179 -4.0945 -1.0660 -2.6093
  967MOL0     H27643   8.591   3.066   9.361  1.0365  0.6394 -0.5205
  967MOL0     H27644   8.443   3.039   9.155  0.2688  0.3559 -0.7212
  968MOL0     O27645   2.272   4.009   1.904 -0.7370 -0.1022  0.4763
  968MOL0     C27646   2.328   4.031   2.008  0.6555  0.8530 -0.6953
  968MOL0     O27647   2.279   4.002   2.139 -0.6886 -0.2902  0.2505
  968MOL0     C27648   2.145   3.955   2.151 -0.2827  0.1455 -0.6965
  968MOL0     C27649   2.075   4.030   2.242 -0.1921  0.0726  0.3764
  968MOL0     C27650   1.943   4.012   2.272  0.9225  0.0353 -0.2150
  968MOL0     C27651   1.880   3.905   2.209  0.5063  0.1819 -0.3917
  968MOL0     O27652   1.751   3.882   2.256  0.4518  0.1453  0.4196
  968MOL0     C27653   1.693   3.747   2.252 -0.3707  0.4501  0.4607
  968MOL0     C27654   1.561   3.765   2.330  0.4680 -0.0226  0.1864
  968MOL0     C27655   1.442   3.802   2.238 -0.1231 -0.6605  0.1374
  968MOL0     C27656   1.454   3.939   2.169  0.0564 -0.1256  0.1556
  968MOL0     C27657   1.354   3.947   2.056  1.5452 -0.2634 -0.1063
  968MOL0     C27658   1.389   3.876   1.924 -1.1301 -0.0963 -0.6405
  968MOL0     C27659   1.496   3.951   1.834 -0.1153 -0.4910 -0.4914
  968MOL0     C27660   1.442   4.087   1.775  0.2030 -0.0467  0.4237
  968MOL0     N27661   1.324   4.073   1.692  0.1174  0.2360 -0.2684
  968MOL0     C27662   1.197   4.077   1.739  0.8164 -0.2930  0.0990
  968MOL0     C27663   1.126   4.102   1.623 -0.4528  0.7318 -0.2143
  968MOL0     C27664   0.977   4.088   1.616  0.4929 -0.9214 -0.2287
  968MOL0     C27665   0.926   3.954   1.668  0.2818  0.7424 -0.7601
  968MOL0     C27666   0.782   3.915   1.622 -0.2914 -0.0912  0.7569
  968MOL0     C27667   0.759   3.755   1.631 -0.3479 -0.1533  0.4480
  968MOL0     O27668   0.685   3.702   1.516 -0.5251  0.1497 -0.1686
  968MOL0     C27669   0.561   3.749   1.487 -0.6766  0.0015  0.0027
  968MOL0     C27670   0.477   3.810   1.578 -0.9206  0.2710  0.4025
  968MOL0     C27671   0.336   3.827   1.549  0.2543  0.2563 -0.3353
  968MOL0     C27672   0.283   3.794   1.427  1.5011  0.2774  0.6483
  968MOL0     C27673   0.132   3.818   1.394  0.3219  0.7067  0.3907
  968MOL0     O27674   0.101   3.790   1.262 -0.4819  0.0425 -0.8945
  968MOL0     C27675  -0.013   3.849   1.210  0.4549 -0.4123  0.2032
  968MOL0     C27676  -0.058   3.979   1.259 -0.3370  0.0186  0.6883
  968MOL0     C27677  -0.172   4.038   1.201 -0.5123  0.6122 -1.8432
  968MOL0     C27678  -0.249   3.982   1.100  0.7696 -0.6509  0.3932
  968MOL0     O27679  -0.366   4.048   1.065  0.3424 -0.6214  0.1231
  968MOL0     C27680  -0.461   3.998   0.963 -0.7968 -0.6306 -0.6510
  968MOL0     C27681  -0.546   4.119   0.924  1.0208  0.0987  0.0783
  968MOL0     C27682  -0.668   4.080   0.842 -0.1695 -0.3186  0.2068
  968MOL0     C27683  -0.765   4.193   0.805  0.0210  0.2365 -0.0779
  968MOL0     C27684  -0.872   4.144   0.715 -0.3016  0.2943  0.2347
  968MOL0     C27685  -0.833   4.126   0.568 -0.8455  0.5006 -0.8950
  968MOL0     C27686  -0.965   4.129   0.474 -0.0091 -0.4566 -0.3342
  968MOL0     C27687  -0.935   4.086   0.331  0.1358  0.0473  0.1020
  968MOL0    Cl27688  -0.839   3.926   0.330 -0.6823  0.3989 -0.5409
  968MOL0     C27689  -0.211   3.858   1.058  0.2599  0.6921  0.3745
  968MOL0     C27690  -0.099   3.791   1.115  0.6124  0.1316 -0.2468
  968MOL0     O27691   0.059   3.854   1.487  0.7737 -0.1144  0.0904
  968MOL0     C27692   0.374   3.750   1.328  0.0361  0.0307 -0.6912
  968MOL0     C27693   0.506   3.729   1.357  0.4610  0.3251  0.0488
  968MOL0     N27694   1.212   4.112   1.515 -0.9951  0.4423 -0.6707
  968MOL0     N27695   1.331   4.099   1.567  0.5252 -0.4590  0.3378
  968MOL0     C27696   1.952   3.820   2.115 -0.0303  0.0068  0.4880
  968MOL0     C27697   2.078   3.861   2.080 -0.0575  0.1666  0.1712
  968MOL0     C27698   2.458   4.105   1.991  0.3250  0.3851  0.1920
  968MOL0     C27699   2.537   4.129   2.108  0.8068  0.4812  0.5889
  968MOL0     C27700   2.664   4.182   2.104  0.7806 -1.4786 -0.3637
  968MOL0     C27701   2.713   4.234   1.983  0.0895  0.3729 -0.7332
  968MOL0     O27702   2.832   4.295   1.986  0.4837 -0.1141 -0.2968
  968MOL0     C27703   2.833   4.437   1.984 -0.5560  0.8710  0.3690
  968MOL0     C27704   2.984   4.479   1.978 -0.4287  0.5982 -0.6382
  968MOL0     C27705   2.991   4.635   1.974  0.3540 -0.0378  0.0991
  968MOL0     C27706   2.947   4.677   2.122  0.2540  0.1405  1.5096
  968MOL0     C27707   2.972   4.820   2.138  0.5921 -0.3581 -0.8273
  968MOL0     C27708   3.007   4.933   2.149 -0.3164 -0.1579  0.9141
  968MOL0     C27709   2.638   4.213   1.869 -0.7458 -0.0034  0.0731
  968MOL0     C27710   2.515   4.151   1.866  0.2769  0.3896 -0.0809
  968MOL0     H27711   2.136   4.103   2.294  1.9003 -0.5794 -1.0430
  968MOL0     H27712   1.886   4.074   2.339  0.4384  0.8112 -1.3150
  968MOL0     H27713   1.745   3.667   2.306 -0.2392 -0.1464 -0.5302
  968MOL0     H27714   1.686   3.723   2.146  3.0647  1.9702 -0.2436
  968MOL0     H27715   1.571   3.829   2.418  0.5931  0.9581 -0.5336
  968MOL0     H27716   1.540   3.666   2.372  1.6009 -0.3252  0.0513
  968MOL0     H27717   1.349   3.793   2.296 -2.3619  0.2459 -3.0756
  968MOL0     H27718   1.440   3.721   2.164  0.6404  1.0160 -1.8004
  968MOL0     H27719   1.436   4.011   2.249  2.0719  1.5337 -0.8016
  968MOL0     H27720   1.550   3.968   2.126 -1.6115  3.4774 -1.5435
  968MOL0     H27721   1.336   4.052   2.032  3.0528 -0.1208 -0.7008
  968MOL0     H27722   1.258   3.904   2.086  0.9098  0.9132 -0.3867
  968MOL0     H27723   1.294   3.877   1.870 -2.1458  0.0412  1.0839
  968MOL0     H27724   1.421   3.774   1.948 -3.6207 -0.9060 -0.4781
  968MOL0     H27725   1.575   3.968   1.908 -0.8357 -1.2276  0.4835
  968MOL0     H27726   1.530   3.875   1.763  1.7746 -1.5696  1.4041
  968MOL0     H27727   1.523   4.128   1.714  0.7808 -0.6676  0.7627
  968MOL0     H27728   1.421   4.154   1.860  0.8334 -0.1278  0.6488
  968MOL0     H27729   1.168   4.056   1.841  0.0574  0.3216  0.0277
  968MOL0     H27730   0.947   4.112   1.514 -0.6257  2.6559  0.8101
  968MOL0     H27731   0.927   4.174   1.661 -1.1468 -1.4632 -0.9450
  968MOL0     H27732   0.923   3.954   1.778  3.9034 -1.0030 -0.5024
  968MOL0     H27733   0.992   3.869   1.647  0.3250  0.4575  0.4296
  968MOL0     H27734   0.700   3.974   1.664  1.9595  4.3937 -0.4775
  968MOL0     H27735   0.791   3.934   1.515  2.8069 -0.8531  0.7693
  968MOL0     H27736   0.711   3.731   1.726  1.5579  0.4243  1.6146
  968MOL0     H27737   0.861   3.719   1.615 -0.3060  0.9317 -2.4402
  968MOL0     H27738   0.509   3.833   1.679  3.4344  3.3682 -1.4131
  968MOL0     H27739   0.262   3.863   1.620  1.1512 -1.0540  1.3381
  968MOL0     H27740  -0.004   4.035   1.334  1.3465  0.1531 -0.5509
  968MOL0     H27741  -0.203   4.128   1.253 -0.0406  0.6130 -1.5636
  968MOL0     H27742  -0.523   3.918   1.005  0.7552 -2.3385 -1.4809
  968MOL0     H27743  -0.414   3.965   0.870 -1.0382  0.3676 -1.1429
  968MOL0     H27744  -0.488   4.194   0.869  1.8715 -0.8715 -0.3861
  968MOL0     H27745  -0.576   4.161   1.020  0.4451 -2.7808  1.2584
  968MOL0     H27746  -0.728   4.005   0.896 -1.7791  0.5220 -0.3479
  968MOL0     H27747  -0.639   4.038   0.745 -2.6872  1.8130 -1.5840
  968MOL0     H27748  -0.820   4.234   0.891  0.5047 -0.9388  0.8059
  968MOL0     H27749  -0.709   4.277   0.762  0.7518 -0.7118 -1.0346
  968MOL0     H27750  -0.958   4.210   0.724 -2.5507 -2.5157  0.7203
  968MOL0     H27751  -0.897   4.042   0.747  0.3895  0.4480  1.3179
  968MOL0     H27752  -0.778   4.031   0.565 -0.8332  0.4896 -0.4200
  968MOL0     H27753  -0.765   4.205   0.535  0.3337  0.2338  0.7848
  968MOL0     H27754  -1.041   4.058   0.509  0.5866 -1.6664 -1.3959
  968MOL0     H27755  -1.020   4.223   0.478 -3.8639 -2.3272 -2.6991
  968MOL0     H27756  -0.882   4.168   0.282 -0.5742 -0.0360 -0.8162
  968MOL0     H27757  -1.030   4.080   0.277  0.0681 -2.9258  0.3743
  968MOL0     H27758  -0.269   3.807   0.981  0.3500  0.0936  0.6972
  968MOL0     H27759  -0.078   3.693   1.073  2.0894  1.0959 -1.8638
  968MOL0     H27760   0.347   3.744   1.223 -3.4534  3.2046 -0.2177
  968MOL0     H27761   0.569   3.683   1.281 -1.2117 -3.4471  0.7290
  968MOL0     H27762   1.911   3.739   2.056  0.0924  1.3913 -1.6068
  968MOL0     H27763   2.125   3.800   2.004 -0.9958 -0.5904  0.1797
  968MOL0     H27764   2.493   4.092   2.199 -1.9828 -1.0804 -1.2650
  968MOL0     H27765   2.722   4.183   2.196 -1.6298 -0.1035  1.2601
  968MOL0     H27766   2.777   4.487   2.063 -0.9725  1.7535 -0.4554
  968MOL0     H27767   2.783   4.464   1.890  0.0779 -2.7942 -1.1966
  968MOL0     H27768   3.036   4.433   2.063 -1.7436 -0.6883 -0.4826
  968MOL0     H27769   3.030   4.451   1.883  1.6508  0.3525  0.3846
  968MOL0     H27770   2.931   4.679   1.893 -1.0905 -1.6462  0.2262
  968MOL0     H27771   3.093   4.668   1.955 -0.1348  1.7452  0.4380
  968MOL0     H27772   2.838   4.669   2.135 -0.0902  1.7838 -0.0243
  968MOL0     H27773   2.993   4.609   2.195  0.2193 -2.8017 -0.9922
  968MOL0     H27774   3.029   5.038   2.144 -0.7490 -0.1480 -2.4525
  968MOL0     H27775   2.679   4.239   1.772 -2.3566 -1.5075 -1.0763
  968MOL0     H27776   2.462   4.136   1.772 -0.2374 -1.8754  0.5216
  969MOL0     O27777   9.662   9.608  10.052 -0.0308  0.4035 -0.1398
  969MOL0     C27778   9.598   9.692   9.992  1.1821 -0.0973 -0.3027
  969MOL0     O27779   9.645   9.789   9.903 -0.4216 -0.0588 -0.0656
  969MOL0     C27780   9.776   9.776   9.860  0.8153 -0.3151  0.1518
  969MOL0     C27781   9.807   9.748   9.726 -0.6402 -0.0804 -0.4392
  969MOL0     C27782   9.938   9.736   9.687 -0.0919  0.1674 -0.5902
  969MOL0     C27783  10.040   9.758   9.780  0.5103  0.4201  0.6676
  969MOL0     O27784  10.163   9.725   9.724 -0.5017  0.2386  0.5416
  969MOL0     C27785  10.260   9.671   9.819 -0.0261 -0.0639 -0.8371
  969MOL0     C27786  10.375   9.610   9.745  0.2195 -0.8644  1.3295
  969MOL0     C27787  10.522   9.595   9.810  0.5533 -0.8982 -0.0054
  969MOL0     C27788  10.621   9.569   9.702 -0.1057  0.0988  0.2097
  969MOL0     C27789  10.757   9.619   9.747 -0.5288 -0.6519  0.3283
  969MOL0     C27790  10.857   9.608   9.644  0.3798 -0.0008  0.0870
  969MOL0     C27791  10.976   9.708   9.648 -1.8608 -1.0408  0.4059
  969MOL0     C27792  10.959   9.840   9.558  0.6282  0.0403 -0.2555
  969MOL0     N27793  10.850   9.922   9.614  0.5025  0.0351  0.2926
  969MOL0     C27794  10.720   9.929   9.571  0.9859 -1.2840 -0.9243
  969MOL0     C27795  10.663  10.034   9.643 -0.3422 -0.2740 -0.7374
  969MOL0     C27796  10.538  10.107   9.616  0.4924  0.1136  0.1280
  969MOL0     C27797  10.445  10.097   9.736  0.3860 -0.6509  0.6274
  969MOL0     C27798  10.315  10.169   9.696  0.1015  0.2261 -0.3256
  969MOL0     C27799  10.221  10.160   9.809 -0.1703  0.4379  0.3877
  969MOL0     O27800  10.103  10.231   9.790 -0.3257  0.1935 -0.4131
  969MOL0     C27801  10.003  10.196   9.877  0.9768 -1.2348  0.1972
  969MOL0     C27802   9.999  10.150  10.009 -0.3529 -0.6381 -0.1413
  969MOL0     C27803   9.885  10.141  10.086  0.3851 -0.1556 -0.0817
  969MOL0     C27804   9.764  10.161  10.023  0.3755 -0.1846  0.2728
  969MOL0     C27805   9.641  10.125  10.097 -0.3609 -0.0209  0.3628
  969MOL0     O27806   9.529  10.149  10.022  0.7173  0.6548  0.1418
  969MOL0     C27807   9.407  10.111  10.061  0.2600 -0.4301  0.2215
  969MOL0     C27808   9.377  10.000  10.143  0.4154  0.1521 -0.4106
  969MOL0     C27809   9.236   9.987  10.176 -0.4754 -0.2917  0.2979
  969MOL0     C27810   9.142  10.079  10.132  1.1671 -0.3569  0.8518
  969MOL0     O27811   9.011  10.078  10.172 -0.6430 -0.3706 -0.0660
  969MOL0     C27812   8.947   9.956  10.222  0.0644 -0.4825 -0.2739
  969MOL0     C27813   8.809  10.005  10.262  0.9528  0.2738 -0.2739
  969MOL0     C27814   8.685   9.921  10.230 -0.9992  0.6549  0.0866
  969MOL0     C27815   8.552   9.984  10.271  0.2228 -0.5633  0.0423
  969MOL0     C27816   8.434   9.884  10.268  0.4533 -0.3542  0.0242
  969MOL0     C27817   8.311   9.932  10.357  0.3919 -0.1743  0.7642
  969MOL0     C27818   8.341   9.886  10.498  0.2744 -0.4551 -0.4401
  969MOL0     C27819   8.268   9.974  10.603 -0.2107 -0.3390 -0.1502
  969MOL0    Cl27820   8.313   9.936  10.771  0.1926 -0.0103 -0.2119
  969MOL0     C27821   9.177  10.191  10.067  0.0527  0.3096 -0.6402
  969MOL0     C27822   9.302  10.202  10.024 -0.6817 -0.3582 -0.0218
  969MOL0     O27823   9.656  10.060  10.202  0.1563 -0.2222  0.2696
  969MOL0     C27824   9.773  10.217   9.896 -0.5202  0.4644 -0.1393
  969MOL0     C27825   9.887  10.238   9.826 -0.0178 -0.1083  0.5073
  969MOL0     N27826  10.758  10.066   9.739 -0.3523  0.3674  0.6585
  969MOL0     N27827  10.878  10.009   9.707  0.5174  0.4197  0.1881
  969MOL0     C27828  10.011   9.809   9.903  0.1997  0.0705 -0.0190
  969MOL0     C27829   9.880   9.809   9.945  0.6971 -0.7070  0.2968
  969MOL0     C27830   9.443   9.687   9.998 -0.3481 -0.3405  0.1246
  969MOL0     C27831   9.386   9.573  10.061  0.0067  0.2816  0.0870
  969MOL0     C27832   9.250   9.543  10.065  0.0134  0.2878 -0.0652
  969MOL0     C27833   9.165   9.639  10.012  0.8583 -0.1383  0.2546
  969MOL0     O27834   9.024   9.641  10.018 -0.4077 -0.0443 -0.4206
  969MOL0     C27835   8.966   9.552  10.121  1.2290 -0.5515  0.2352
  969MOL0     C27836   8.823   9.584  10.131 -0.2464  0.0659 -0.1365
  969MOL0     C27837   8.748   9.573   9.998 -0.1954  0.0949  0.3218
  969MOL0     C27838   8.598   9.561  10.029 -0.1162 -0.3401  0.6684
  969MOL0     C27839   8.533   9.543   9.899  0.0926  0.4288  0.8678
  969MOL0     C27840   8.499   9.538   9.779  0.2067 -1.3104  0.1771
  969MOL0     C27841   9.222   9.749   9.946 -0.9766 -0.1379  0.3507
  969MOL0     C27842   9.354   9.776   9.944 -0.3711 -0.1856 -0.4651
  969MOL0     H27843   9.729   9.721   9.655 -1.7272  1.5004  0.0820
  969MOL0     H27844   9.975   9.703   9.591 -1.8052 -1.1754 -0.8432
  969MOL0     H27845  10.219   9.599   9.891  1.0634  1.0258  0.9424
  969MOL0     H27846  10.284   9.757   9.881 -3.0006 -2.0819  3.7107
  969MOL0     H27847  10.388   9.681   9.663 -0.9303 -0.4291  1.4945
  969MOL0     H27848  10.339   9.512   9.711 -0.5880 -1.1065  2.7684
  969MOL0     H27849  10.533   9.526   9.894  0.1139  1.5472  2.2028
  969MOL0     H27850  10.525   9.700   9.839 -0.8864 -1.0702  0.8388
  969MOL0     H27851  10.631   9.466   9.666 -0.8977  0.3118 -0.6618
  969MOL0     H27852  10.601   9.623   9.609  0.5618  2.3599  1.2998
  969MOL0     H27853  10.780   9.556   9.833 -2.7854  0.2924  1.7229
  969MOL0     H27854  10.753   9.722   9.785 -1.9698 -1.0544  1.3462
  969MOL0     H27855  10.815   9.617   9.543  1.6601 -3.7587 -0.9858
  969MOL0     H27856  10.893   9.505   9.631  1.6009  0.4625 -0.4630
  969MOL0     H27857  11.005   9.740   9.749 -2.0856  0.6341 -0.0331
  969MOL0     H27858  11.066   9.655   9.615 -2.5620 -1.0445 -1.6797
  969MOL0     H27859  10.935   9.812   9.455 -0.3520  2.5479 -0.7606
  969MOL0     H27860  11.055   9.893   9.557  2.7893 -3.1162  4.0235
  969MOL0     H27861  10.674   9.880   9.486 -3.0722  1.4638 -0.5976
  969MOL0     H27862  10.495  10.069   9.523  3.6824 -1.3732 -0.8778
  969MOL0     H27863  10.568  10.210   9.593 -2.2017  0.8215 -0.6138
  969MOL0     H27864  10.483  10.139   9.830 -0.1591 -2.4529  1.7081
  969MOL0     H27865  10.420   9.993   9.757  0.6435 -0.9631 -0.5739
  969MOL0     H27866  10.322  10.273   9.661  0.6748 -0.1714 -1.4549
  969MOL0     H27867  10.272  10.113   9.612  1.3115 -0.3738 -0.5538
  969MOL0     H27868  10.276  10.200   9.895  0.2906 -1.9873  1.3120
  969MOL0     H27869  10.212  10.052   9.818  2.9589 -0.2720 -2.6490
  969MOL0     H27870  10.088  10.121  10.064  1.3820  0.9914 -1.9399
  969MOL0     H27871   9.892  10.085  10.178  1.5262 -3.8211 -2.1875
  969MOL0     H27872   9.453   9.930  10.177  0.5215 -0.0018 -0.9543
  969MOL0     H27873   9.218   9.905  10.244  0.1196 -1.1811 -0.5941
  969MOL0     H27874   8.997   9.901  10.301 -1.4821 -2.1174 -0.3611
  969MOL0     H27875   8.926   9.887  10.139 -0.5336 -0.7442  0.0898
  969MOL0     H27876   8.791  10.098  10.207  1.1018  0.9126  0.7364
  969MOL0     H27877   8.802  10.022  10.370  0.2482 -2.9503  0.3029
  969MOL0     H27878   8.691   9.829  10.289  1.4655  1.0259  0.5377
  969MOL0     H27879   8.688   9.903  10.122  0.7068  2.3004 -0.1939
  969MOL0     H27880   8.571  10.030  10.368 -0.5531  3.4284 -1.4583
  969MOL0     H27881   8.521  10.069  10.209  0.3997 -0.7302 -0.2742
  969MOL0     H27882   8.470   9.787  10.304  1.8759 -0.3961 -1.4093
  969MOL0     H27883   8.409   9.865  10.164  1.2562 -1.7056  0.0516
  969MOL0     H27884   8.224   9.878  10.318 -1.9541  2.0742  2.4965
  969MOL0     H27885   8.284  10.037  10.338 -1.2807 -0.6771  0.1291
  969MOL0     H27886   8.302   9.784  10.507 -0.8032 -0.4116 -3.3005
  969MOL0     H27887   8.448   9.889  10.520  0.2084  1.1554 -0.2198
  969MOL0     H27888   8.159   9.963  10.595 -0.0337 -2.7406 -0.0042
  969MOL0     H27889   8.295  10.077  10.578 -0.0336 -0.6043 -1.0891
  969MOL0     H27890   9.105  10.265  10.034 -1.2794 -1.1581 -1.1551
  969MOL0     H27891   9.329  10.278   9.951 -0.8555  0.5357  0.8287
  969MOL0     H27892   9.682  10.218   9.836 -1.1011 -2.6740  0.5154
  969MOL0     H27893   9.877  10.270   9.723 -1.8611  0.1585  0.7373
  969MOL0     H27894  10.096   9.837   9.965 -0.7182 -1.3532  2.0192
  969MOL0     H27895   9.852   9.846  10.043  0.4524 -2.7293  1.0402
  969MOL0     H27896   9.449   9.489  10.089 -0.1425 -0.6731 -2.1990
  969MOL0     H27897   9.221   9.455  10.121 -0.6984  0.3741 -0.2944
  969MOL0     H27898   9.015   9.564  10.218 -1.8187 -0.7875  1.9335
  969MOL0     H27899   8.974   9.448  10.089 -0.1108 -0.0918 -1.8106
  969MOL0     H27900   8.781   9.511  10.200  0.2561 -1.5257 -1.4386
  969MOL0     H27901   8.814   9.684  10.173 -0.3483 -0.3241  0.7986
  969MOL0     H27902   8.777   9.482   9.944  0.9079 -2.8548  5.3070
  969MOL0     H27903   8.780   9.658   9.936  2.5936 -1.8306 -1.0631
  969MOL0     H27904   8.578   9.477  10.096 -2.8849  0.0220  0.3882
  969MOL0     H27905   8.557   9.646  10.085  1.1308  1.6819 -1.3098
  969MOL0     H27906   8.461   9.543   9.679 -2.3195 -0.1943  1.1021
  969MOL0     H27907   9.168   9.836   9.909  0.9560  0.6208 -0.8319
  969MOL0     H27908   9.388   9.866   9.894 -1.3775  0.1765 -0.5209
  970MOL0     O27909  10.138   8.323   9.582 -0.2786 -0.1469 -0.7926
  970MOL0     C27910  10.169   8.408   9.495 -0.1164  0.4211  0.4293
  970MOL0     O27911  10.088   8.487   9.419 -0.0067 -0.1995 -0.0780
  970MOL0     C27912   9.946   8.473   9.432  0.2396 -0.5017  0.2045
  970MOL0     C27913   9.881   8.347   9.432 -0.7262  0.4981  0.1607
  970MOL0     C27914   9.746   8.347   9.445 -0.0115 -0.5161  0.1510
  970MOL0     C27915   9.668   8.462   9.457 -0.5103  0.3845  0.3393
  970MOL0     O27916   9.532   8.469   9.469  0.2890 -0.1483 -0.4882
  970MOL0     C27917   9.447   8.348   9.464  0.3062  0.6481 -0.1198
  970MOL0     C27918   9.363   8.357   9.335 -0.9347 -0.2060 -1.1647
  970MOL0     C27919   9.236   8.274   9.337 -0.1225 -0.8415 -0.3236
  970MOL0     C27920   9.145   8.306   9.213  0.2866 -0.8860  0.0348
  970MOL0     C27921   9.063   8.175   9.202  0.1986  0.5562  1.1657
  970MOL0     C27922   8.949   8.186   9.099  0.8351 -0.1746 -0.2731
  970MOL0     C27923   8.905   8.050   9.046  0.1762  0.5968  0.4789
  970MOL0     C27924   8.792   8.050   8.940  0.3827 -0.1046 -0.0289
  970MOL0     N27925   8.682   8.132   8.983 -0.4946  0.4047 -0.4620
  970MOL0     C27926   8.599   8.099   9.090 -0.1421 -0.1616  0.7452
  970MOL0     C27927   8.503   8.199   9.099  0.1599  0.9876 -0.0543
  970MOL0     C27928   8.394   8.203   9.205  0.3522 -0.1027  1.1734
  970MOL0     C27929   8.275   8.279   9.158  0.1467 -0.2605 -0.2336
  970MOL0     C27930   8.170   8.294   9.267 -0.4888 -1.2990  0.4708
  970MOL0     C27931   8.028   8.314   9.208  0.3556 -0.0486  0.1942
  970MOL0     O27932   8.009   8.442   9.155 -0.8138  0.0656  0.4592
  970MOL0     C27933   7.890   8.503   9.133  0.8878  0.0535  0.3075
  970MOL0     C27934   7.892   8.642   9.100  0.0096  0.1982 -0.1279
  970MOL0     C27935   7.774   8.718   9.081 -0.6310 -0.2163 -0.1564
  970MOL0     C27936   7.653   8.653   9.090 -0.0706 -0.4456 -0.6247
  970MOL0     C27937   7.526   8.729   9.068 -0.4374  0.3129 -0.4182
  970MOL0     O27938   7.408   8.679   9.121 -0.5348  0.1376  0.0091
  970MOL0     C27939   7.288   8.737   9.103  1.5181 -0.1614  0.5677
  970MOL0     C27940   7.171   8.662   9.095  0.1057  0.3018 -0.7401
  970MOL0     C27941   7.048   8.721   9.068 -1.2320  0.1010 -0.5767
  970MOL0     C27942   7.042   8.861   9.049  0.1398  0.0160  0.4797
  970MOL0     O27943   6.923   8.923   9.029  0.2714  0.5399 -0.4826
  970MOL0     C27944   6.799   8.851   9.050  0.5147 -0.2482  0.2043
  970MOL0     C27945   6.681   8.954   9.056 -0.1332  0.5820 -1.0135
  970MOL0     C27946   6.556   8.882   9.116  0.3973 -0.0706  0.4578
  970MOL0     C27947   6.435   8.968   9.130  0.9340 -0.1997 -0.0300
  970MOL0     C27948   6.386   9.017   8.986  0.0356  0.3421  0.4097
  970MOL0     C27949   6.259   9.109   8.972  0.2108  0.0764  0.0495
  970MOL0     C27950   6.144   9.057   9.058  0.6208  0.5152  0.3101
  970MOL0     C27951   6.006   9.107   9.004  0.3193  0.0825  0.0614
  970MOL0    Cl27952   6.005   9.289   9.026 -0.2180 -0.3457  0.0243
  970MOL0     C27953   7.145   8.940   9.064  0.2442  0.1462  0.1535
  970MOL0     C27954   7.268   8.873   9.089  0.6522 -0.4401 -0.1381
  970MOL0     O27955   7.535   8.829   8.999 -0.2167 -0.2302 -0.0048
  970MOL0     C27956   7.646   8.514   9.127 -0.4402 -0.7593 -0.9198
  970MOL0     C27957   7.767   8.437   9.149 -0.7502  0.4779  0.8501
  970MOL0     N27958   8.528   8.286   8.990  0.2403 -0.4755 -0.8444
  970MOL0     N27959   8.640   8.247   8.927 -0.3328  0.1411 -0.3319
  970MOL0     C27960   9.734   8.582   9.452 -0.2056  0.5133  0.5310
  970MOL0     C27961   9.872   8.593   9.440  0.0387  0.1608  0.4963
  970MOL0     C27962  10.308   8.448   9.473  0.9341  1.0137 -0.4461
  970MOL0     C27963  10.410   8.358   9.498 -0.2455  0.3902 -0.1118
  970MOL0     C27964  10.545   8.394   9.468  0.2526 -0.8284  0.4566
  970MOL0     C27965  10.569   8.529   9.430 -0.7316  0.0899 -0.3756
  970MOL0     O27966  10.694   8.589   9.410  0.1629  0.1889  0.0570
  970MOL0     C27967  10.818   8.509   9.424  0.5776 -0.3275  0.2869
  970MOL0     C27968  10.862   8.501   9.575  0.2015 -0.0712  0.3521
  970MOL0     C27969  10.874   8.636   9.655  0.0542  0.2842  0.0624
  970MOL0     C27970  10.745   8.663   9.734  0.3899 -0.5017  0.1617
  970MOL0     C27971  10.754   8.791   9.813  0.2685  0.1248 -0.2470
  970MOL0     C27972  10.760   8.896   9.874 -0.6747  0.5955 -0.8011
  970MOL0     C27973  10.469   8.623   9.423  1.4250 -0.4684  0.6002
  970MOL0     C27974  10.336   8.578   9.445  0.4336  0.2529  0.3514
  970MOL0     H27975   9.946   8.261   9.427 -0.0452  1.0872 -1.9723
  970MOL0     H27976   9.686   8.259   9.425 -0.9453  0.3352 -0.9430
  970MOL0     H27977   9.385   8.359   9.554  2.6539  0.6721  1.5900
  970MOL0     H27978   9.495   8.250   9.469  0.2769  0.6419  0.0638
  970MOL0     H27979   9.430   8.322   9.257  1.2125 -2.3585  1.4522
  970MOL0     H27980   9.342   8.465   9.327 -0.1431  0.2049  1.4073
  970MOL0     H27981   9.175   8.289   9.425 -2.4480 -0.2455 -1.9530
  970MOL0     H27982   9.255   8.166   9.337 -1.7788 -1.1546 -0.6207
  970MOL0     H27983   9.097   8.404   9.215  0.4356 -0.8018 -0.4091
  970MOL0     H27984   9.214   8.305   9.128  0.5902 -1.3406  0.2859
  970MOL0     H27985   9.024   8.152   9.301  0.6758  2.2363  1.7900
  970MOL0     H27986   9.141   8.103   9.176  0.1139  0.8640 -0.0076
  970MOL0     H27987   8.988   8.251   9.021  0.9987  0.7339  0.5399
  970MOL0     H27988   8.861   8.233   9.144 -0.4150 -2.6411  0.0733
  970MOL0     H27989   8.984   7.993   8.997  0.1696  1.3269 -0.4060
  970MOL0     H27990   8.872   7.985   9.128  1.2378 -2.9379 -1.6661
  970MOL0     H27991   8.767   7.946   8.919 -0.3730  0.1521 -0.4241
  970MOL0     H27992   8.832   8.096   8.849 -1.1645  2.1241  0.3308
  970MOL0     H27993   8.605   8.012   9.154 -1.0666  0.3735  1.5819
  970MOL0     H27994   8.439   8.252   9.292  1.6632  1.2677 -0.2201
  970MOL0     H27995   8.365   8.100   9.229 -2.0642  0.5388  1.2980
  970MOL0     H27996   8.229   8.239   9.067 -0.1070 -0.7146  0.0877
  970MOL0     H27997   8.299   8.382   9.131 -1.0591 -0.3248 -1.7143
  970MOL0     H27998   8.159   8.208   9.334 -2.4593  0.1227  2.1267
  970MOL0     H27999   8.197   8.378   9.331  0.2463 -1.1957  0.0368
  970MOL0     H28000   7.962   8.300   9.294 -0.0586 -1.2037 -0.2915
  970MOL0     H28001   7.999   8.238   9.135 -0.2893 -0.3821  0.7853
  970MOL0     H28002   7.992   8.684   9.100  0.3256 -0.4841 -1.5785
  970MOL0     H28003   7.781   8.825   9.064 -1.8226  0.1001  1.1595
  970MOL0     H28004   7.187   8.556   9.110 -0.4254  0.3540  0.2432
  970MOL0     H28005   6.962   8.656   9.061 -1.9210  0.8125  0.8461
  970MOL0     H28006   6.813   8.797   9.144  3.6915 -1.2417 -0.7094
  970MOL0     H28007   6.782   8.779   8.970 -0.9544 -0.4101  0.6272
  970MOL0     H28008   6.670   9.009   8.962  1.5448  1.6442 -0.6407
  970MOL0     H28009   6.705   9.044   9.114 -0.9397  0.9555 -1.2391
  970MOL0     H28010   6.583   8.836   9.212 -3.1927 -3.4366  0.0965
  970MOL0     H28011   6.518   8.807   9.046  1.2853  1.3120 -1.5943
  970MOL0     H28012   6.351   8.924   9.185  0.0537 -0.1905 -1.3224
  970MOL0     H28013   6.458   9.062   9.182 -1.7731  2.1173 -2.6286
  970MOL0     H28014   6.384   8.923   8.931  1.0641 -1.7910  3.7044
  970MOL0     H28015   6.466   9.078   8.943 -0.5492  0.7880 -0.0586
  970MOL0     H28016   6.232   9.113   8.866 -1.4170 -0.2972  0.4163
  970MOL0     H28017   6.283   9.210   9.005 -1.7248  1.2039 -1.7500
  970MOL0     H28018   6.141   8.947   9.054  0.4967  0.5365 -0.2604
  970MOL0     H28019   6.148   9.092   9.162  1.9311  0.2149  0.3786
  970MOL0     H28020   5.925   9.073   9.069 -1.2982  0.5381 -1.6440
  970MOL0     H28021   5.981   9.085   8.900  0.7271  0.0035 -0.0215
  970MOL0     H28022   7.127   9.046   9.052  1.0330  0.1458 -1.3345
  970MOL0     H28023   7.357   8.935   9.096  1.2231 -0.8955 -2.4008
  970MOL0     H28024   7.553   8.458   9.138 -1.3333  0.6369 -1.1012
  970MOL0     H28025   7.769   8.333   9.180  2.5855 -0.7651 -2.6238
  970MOL0     H28026   9.676   8.673   9.460 -4.5931 -1.9427 -0.3667
  970MOL0     H28027   9.926   8.687   9.440 -0.5743  0.5138  0.7804
  970MOL0     H28028  10.379   8.259   9.530  0.5391 -0.0452 -0.6651
  970MOL0     H28029  10.626   8.325   9.492  1.8067  0.2482 -1.4848
  970MOL0     H28030  10.887   8.574   9.369 -1.8803  0.5979 -1.9414
  970MOL0     H28031  10.809   8.409   9.380  0.2705  0.0652 -0.5768
  970MOL0     H28032  10.794   8.435   9.630 -2.7705 -0.1680 -3.0355
  970MOL0     H28033  10.959   8.451   9.566 -0.7786 -2.3491  1.4771
  970MOL0     H28034  10.894   8.717   9.585 -0.0767  1.2502  1.1185
  970MOL0     H28035  10.956   8.619   9.725 -0.4405 -0.1979  0.5464
  970MOL0     H28036  10.664   8.672   9.661  2.0924 -0.3203 -1.7996
  970MOL0     H28037  10.723   8.587   9.809 -1.5628 -0.8946 -0.7436
  970MOL0     H28038  10.775   8.982   9.936 -2.6892  0.1261  0.4278
  970MOL0     H28039  10.477   8.730   9.406 -0.7296  0.0808  2.6385
  970MOL0     H28040  10.252   8.646   9.432 -0.1545 -0.1094  2.0536
  971MOL0     O28041   2.059   9.873   9.312  0.0933  0.8689  0.1519
  971MOL0     C28042   2.092   9.755   9.284 -0.6316 -0.1872 -0.3130
  971MOL0     O28043   2.042   9.687   9.185 -0.6295  0.4981  0.4952
  971MOL0     C28044   1.921   9.738   9.124 -0.2693  0.5662  0.0540
  971MOL0     C28045   1.808   9.760   9.214  0.6365  0.4509  0.2278
  971MOL0     C28046   1.691   9.816   9.157  0.8844  0.7202  1.1041
  971MOL0     C28047   1.667   9.818   9.018 -0.0800  0.4007  0.0660
  971MOL0     O28048   1.539   9.852   8.981 -1.0057 -1.0199 -0.2257
  971MOL0     C28049   1.476   9.783   8.875 -0.5684 -0.3409  0.2856
  971MOL0     C28050   1.332   9.833   8.871 -0.1658 -0.8123 -0.6339
  971MOL0     C28051   1.266   9.761   8.750  0.4483 -1.0435 -0.3524
  971MOL0     C28052   1.116   9.764   8.785 -0.7573 -0.9651  0.0252
  971MOL0     C28053   1.026   9.675   8.698  0.4548 -0.4450  0.7242
  971MOL0     C28054   0.879   9.672   8.738 -0.3599 -0.7376 -0.3072
  971MOL0     C28055   0.806   9.594   8.625 -0.2963 -0.5175  0.3145
  971MOL0     C28056   0.715   9.495   8.693 -0.0627 -0.2499 -0.0155
  971MOL0     N28057   0.636   9.406   8.604  0.0828 -0.5407  0.3643
  971MOL0     C28058   0.518   9.442   8.530  0.0558  0.0692  0.1678
  971MOL0     C28059   0.478   9.339   8.458  0.0247  0.2794  0.0459
  971MOL0     C28060   0.357   9.320   8.373 -0.5654  0.4034  1.0756
  971MOL0     C28061   0.234   9.268   8.429 -0.1745  0.3081 -0.3665
  971MOL0     C28062   0.143   9.204   8.315 -0.8586 -0.4007  0.1021
  971MOL0     C28063   0.019   9.151   8.377 -0.9215  0.5841  0.3927
  971MOL0     O28064  -0.065   9.251   8.439 -0.0079  0.3117  0.8908
  971MOL0     C28065  -0.200   9.226   8.460 -0.5997  0.2288  0.0220
  971MOL0     C28066  -0.244   9.089   8.457  0.1587  0.4953 -0.6916
  971MOL0     C28067  -0.374   9.062   8.489 -0.7236  0.7769  1.0566
  971MOL0     C28068  -0.466   9.164   8.506  0.8397 -0.5574 -0.4585
  971MOL0     C28069  -0.614   9.118   8.516 -0.0664 -0.2605  0.0482
  971MOL0     O28070  -0.699   9.221   8.522 -0.1689  0.2053 -0.3618
  971MOL0     C28071  -0.842   9.217   8.522  0.1147 -0.9365  0.3755
  971MOL0     C28072  -0.926   9.114   8.531  0.4813  0.3781 -0.6129
  971MOL0     C28073  -1.059   9.128   8.516  0.4513 -0.4924 -0.2072
  971MOL0     C28074  -1.120   9.251   8.502 -0.2129 -0.1243  0.5185
  971MOL0     O28075  -1.256   9.253   8.493 -0.2682 -0.9183 -0.0363
  971MOL0     C28076  -1.313   9.376   8.446 -0.2420 -0.0898  1.0202
  971MOL0     C28077  -1.464   9.339   8.452  0.6232  0.8869 -0.0228
  971MOL0     C28078  -1.525   9.353   8.592 -0.4047 -0.1746 -0.3369
  971MOL0     C28079  -1.671   9.347   8.586 -0.5030 -0.0381  0.1688
  971MOL0     C28080  -1.743   9.329   8.722  1.1499 -0.0091  0.1056
  971MOL0     C28081  -1.696   9.218   8.811  0.4183  1.0472  0.1764
  971MOL0     C28082  -1.738   9.227   8.958 -0.9039  0.7554  0.3749
  971MOL0     C28083  -1.753   9.092   9.021  0.1479 -0.4618  0.6520
  971MOL0    Cl28084  -1.883   8.994   8.951 -0.1857  0.2591 -0.1110
  971MOL0     C28085  -1.030   9.363   8.507 -0.0131 -0.1500  1.0204
  971MOL0     C28086  -0.895   9.344   8.509  0.0094  0.3314  0.7978
  971MOL0     O28087  -0.642   9.001   8.527 -0.4324 -0.2971 -0.4824
  971MOL0     C28088  -0.418   9.299   8.517  0.5469  1.0142  0.5661
  971MOL0     C28089  -0.287   9.321   8.507 -0.0259 -0.3537 -0.6794
  971MOL0     N28090   0.582   9.249   8.471  0.2210 -0.3081 -0.4482
  971MOL0     N28091   0.685   9.294   8.541  0.0662 -0.7472 -0.1355
  971MOL0     C28092   1.769   9.773   8.932  0.7943 -0.5246 -0.3921
  971MOL0     C28093   1.896   9.743   8.988  0.0229 -0.4649 -0.5448
  971MOL0     C28094   2.208   9.693   9.351  0.3277  0.6483  0.3018
  971MOL0     C28095   2.311   9.768   9.412  0.3974 -0.4562 -0.0234
  971MOL0     C28096   2.428   9.707   9.452  0.6191 -0.1355 -0.5820
  971MOL0     C28097   2.431   9.568   9.484  0.9347  0.9838  0.0329
  971MOL0     O28098   2.538   9.497   9.547  0.2052 -0.4296  0.0768
  971MOL0     C28099   2.624   9.578   9.623 -0.0862 -0.0098 -0.0384
  971MOL0     C28100   2.696   9.488   9.726  0.6188 -1.2392  0.6336
  971MOL0     C28101   2.792   9.401   9.637 -0.6951  0.0288  0.1402
  971MOL0     C28102   2.897   9.334   9.726 -0.2175  0.4857 -0.0053
  971MOL0     C28103   2.984   9.420   9.806  0.1305 -0.8550  0.2846
  971MOL0     C28104   3.064   9.477   9.871 -0.3316  0.2474 -0.4393
  971MOL0     C28105   2.330   9.485   9.425  0.0508 -0.5409 -0.7473
  971MOL0     C28106   2.224   9.545   9.352 -0.2800  0.1597 -0.2128
  971MOL0     H28107   1.820   9.751   9.322 -1.4451  0.1804  0.4817
  971MOL0     H28108   1.607   9.842   9.220  0.0161  1.9466 -0.4682
  971MOL0     H28109   1.468   9.677   8.897 -4.0068  0.0669  1.5781
  971MOL0     H28110   1.519   9.814   8.779  0.8158  1.2084  1.3407
  971MOL0     H28111   1.322   9.941   8.860 -2.7331 -0.9298 -0.0953
  971MOL0     H28112   1.285   9.804   8.966  0.9182 -0.9634 -0.1253
  971MOL0     H28113   1.294   9.655   8.740 -0.1207 -1.2965  0.6225
  971MOL0     H28114   1.274   9.819   8.658 -2.4596  0.1650  0.0396
  971MOL0     H28115   1.118   9.736   8.891  0.4037  1.0663  0.5794
  971MOL0     H28116   1.073   9.864   8.780 -0.6969 -0.9555 -0.2915
  971MOL0     H28117   1.064   9.572   8.691  0.2492 -0.3919 -3.3542
  971MOL0     H28118   1.031   9.715   8.596 -0.5345  0.1548  0.9008
  971MOL0     H28119   0.830   9.769   8.754  2.2520  0.5913  0.0355
  971MOL0     H28120   0.868   9.620   8.833 -0.7629 -0.7183 -0.3399
  971MOL0     H28121   0.754   9.662   8.556  1.1470 -1.1002 -1.4302
  971MOL0     H28122   0.879   9.537   8.567  2.6549 -0.5667  3.7410
  971MOL0     H28123   0.657   9.553   8.765 -0.7591  2.0248 -2.2742
  971MOL0     H28124   0.782   9.425   8.744  0.1247  1.9247  2.9463
  971MOL0     H28125   0.459   9.530   8.552 -0.4967 -0.6105  1.5591
  971MOL0     H28126   0.397   9.260   8.291  1.8920  0.1957  2.3428
  971MOL0     H28127   0.340   9.422   8.338  0.2892 -0.6884 -3.0161
  971MOL0     H28128   0.168   9.350   8.460 -2.5784 -0.9367 -1.8490
  971MOL0     H28129   0.246   9.187   8.502  0.3719 -0.3133 -1.1258
  971MOL0     H28130   0.114   9.274   8.235  0.5827  1.1609  0.8756
  971MOL0     H28131   0.189   9.122   8.259  1.3051 -0.0354  1.2306
  971MOL0     H28132   0.060   9.086   8.456  2.1161  0.5144 -1.1098
  971MOL0     H28133  -0.029   9.085   8.305 -0.8216 -2.8223  3.1633
  971MOL0     H28134  -0.195   8.997   8.429 -0.9310 -0.7003  1.1085
  971MOL0     H28135  -0.407   8.959   8.486 -1.8680  1.1331  0.8808
  971MOL0     H28136  -0.885   9.017   8.561  1.5210  1.4488  1.7642
  971MOL0     H28137  -1.117   9.037   8.529 -1.5686  0.4390 -2.0348
  971MOL0     H28138  -1.280   9.401   8.344 -1.7375  0.4070  0.6355
  971MOL0     H28139  -1.280   9.463   8.504 -0.0421  1.0506 -0.7250
  971MOL0     H28140  -1.488   9.236   8.424 -0.1541  0.4034  2.2016
  971MOL0     H28141  -1.514   9.409   8.384  0.9711 -0.3252 -1.6056
  971MOL0     H28142  -1.484   9.443   8.638  0.3444 -0.7719  0.2057
  971MOL0     H28143  -1.487   9.268   8.650 -0.7461 -2.3563 -3.0658
  971MOL0     H28144  -1.712   9.438   8.542 -0.2726 -1.3072 -2.9309
  971MOL0     H28145  -1.710   9.271   8.517 -2.8762  1.4537 -0.2598
  971MOL0     H28146  -1.847   9.311   8.697  0.1684  1.3203  2.7784
  971MOL0     H28147  -1.727   9.425   8.773  0.5179 -1.4461  3.2417
  971MOL0     H28148  -1.587   9.222   8.808  0.5947 -1.3685 -4.3735
  971MOL0     H28149  -1.731   9.125   8.765 -0.3374  1.2010  0.4235
  971MOL0     H28150  -1.669   9.291   9.013  0.1612  2.1387 -2.4131
  971MOL0     H28151  -1.835   9.277   8.969 -0.3873  2.1672 -1.0629
  971MOL0     H28152  -1.766   9.104   9.129 -0.2731 -0.7636  0.6397
  971MOL0     H28153  -1.659   9.037   9.007 -0.3123 -1.0215 -0.3686
  971MOL0     H28154  -1.063   9.466   8.515  2.6849  0.9785 -0.6803
  971MOL0     H28155  -0.825   9.426   8.515 -0.1831  0.6294 -0.5974
  971MOL0     H28156  -0.499   9.367   8.543  0.2456  0.6996  0.4619
  971MOL0     H28157  -0.251   9.422   8.525  4.2949 -1.4789 -1.7964
  971MOL0     H28158   1.746   9.764   8.826 -1.1086 -2.1354  0.0799
  971MOL0     H28159   1.982   9.709   8.932  1.3760  3.1537 -0.9455
  971MOL0     H28160   2.315   9.876   9.411  0.4175 -0.4553 -0.8075
  971MOL0     H28161   2.497   9.780   9.492  0.6145  0.7398 -2.1106
  971MOL0     H28162   2.572   9.660   9.674  0.4570  1.1666 -1.3184
  971MOL0     H28163   2.692   9.631   9.556 -1.8999 -0.4592 -2.3682
  971MOL0     H28164   2.744   9.549   9.804 -1.8007 -0.7514  1.8387
  971MOL0     H28165   2.628   9.421   9.780 -1.2777 -0.1788 -0.3409
  971MOL0     H28166   2.840   9.462   9.560 -0.1285 -1.6819 -0.9304
  971MOL0     H28167   2.734   9.323   9.587  2.0010 -2.2388  0.2631
  971MOL0     H28168   2.844   9.283   9.807  1.3597  0.9527  1.3939
  971MOL0     H28169   2.964   9.264   9.675  1.2631  2.4448 -0.8975
  971MOL0     H28170   3.138   9.521   9.933 -0.5898 -1.9928  1.5763
  971MOL0     H28171   2.354   9.381   9.443  0.8995 -0.6012 -2.1344
  971MOL0     H28172   2.164   9.470   9.302  0.8133 -0.9748  0.1381
  972MOL0     O28173   5.557   4.572  10.000 -0.0343 -0.5529 -0.2575
  972MOL0     C28174   5.589   4.603  10.112 -0.1896 -0.8100 -0.7614
  972MOL0     O28175   5.505   4.650  10.215 -0.1661 -0.0532 -0.3200
  972MOL0     C28176   5.377   4.610  10.206  0.6735  0.0426  0.5353
  972MOL0     C28177   5.348   4.476  10.225  0.3379  0.1227 -0.1774
  972MOL0     C28178   5.224   4.426  10.198  0.1020  0.3248 -0.1765
  972MOL0     C28179   5.124   4.510  10.138  0.9698 -0.0892  0.5751
  972MOL0     O28180   4.994   4.480  10.114  0.1890 -0.0039 -0.5540
  972MOL0     C28181   4.937   4.349  10.150  0.3424  0.6771  0.4004
  972MOL0     C28182   4.876   4.337  10.289  0.2753 -1.1713  0.1544
  972MOL0     C28183   4.791   4.468  10.334  0.0192 -0.3415 -0.2062
  972MOL0     C28184   4.707   4.452  10.463  0.7344  0.6345  0.4919
  972MOL0     C28185   4.567   4.405  10.428 -0.5444  0.1291  0.2316
  972MOL0     C28186   4.563   4.261  10.380  0.2213  0.3560 -0.3265
  972MOL0     C28187   4.636   4.160  10.477  0.6146 -0.4404 -0.1605
  972MOL0     C28188   4.561   4.026  10.476 -0.0096  0.1771  0.4812
  972MOL0     N28189   4.434   4.030  10.529  0.5027 -0.7915 -0.7882
  972MOL0     C28190   4.381   4.052  10.664 -0.0781 -0.7011  0.8548
  972MOL0     C28191   4.250   4.075  10.652  0.9763  0.6780  0.3149
  972MOL0     C28192   4.147   4.114  10.753  0.4964  0.5068  0.4874
  972MOL0     C28193   4.136   4.005  10.860  0.4473 -0.4338  0.0651
  972MOL0     C28194   4.009   4.046  10.943  0.0813  0.9288  0.5994
  972MOL0     C28195   3.985   3.930  11.050 -0.4298 -0.8800 -0.4541
  972MOL0     O28196   3.860   3.885  11.018  0.1135  0.5572 -0.4877
  972MOL0     C28197   3.805   3.773  11.081 -0.2965  0.8471  0.3738
  972MOL0     C28198   3.857   3.714  11.199  0.2397  0.0683  0.5920
  972MOL0     C28199   3.798   3.600  11.256  0.3042  0.1111 -0.2728
  972MOL0     C28200   3.681   3.548  11.201 -0.3190  0.6075 -0.0173
  972MOL0     C28201   3.609   3.438  11.268  0.3054  0.2430  0.0283
  972MOL0     O28202   3.482   3.404  11.213  0.3590 -0.2623 -0.1718
  972MOL0     C28203   3.404   3.310  11.276 -0.2312 -0.2334 -0.6136
  972MOL0     C28204   3.423   3.173  11.260 -0.2041  0.0131 -0.5086
  972MOL0     C28205   3.341   3.077  11.317 -0.4112  0.5413 -0.9089
  972MOL0     C28206   3.223   3.114  11.384 -0.3453  0.2291  0.2448
  972MOL0     O28207   3.132   3.026  11.435  0.4843 -0.4707  0.5043
  972MOL0     C28208   3.124   2.896  11.371  0.3520  0.7734  0.7727
  972MOL0     C28209   2.997   2.827  11.422 -0.6021  0.8203 -0.1936
  972MOL0     C28210   2.867   2.886  11.360 -0.6154  0.0319 -0.2292
  972MOL0     C28211   2.739   2.812  11.401 -0.2340 -0.4634  0.2026
  972MOL0     C28212   2.620   2.908  11.417 -0.6392  0.2903 -0.1193
  972MOL0     C28213   2.505   2.848  11.503  0.0828 -0.0887 -0.3673
  972MOL0     C28214   2.377   2.927  11.516  1.1347 -0.8082  0.4158
  972MOL0     C28215   2.267   2.854  11.604  0.0831 -1.3200  1.0510
  972MOL0    Cl28216   2.194   2.718  11.495 -0.0976 -0.0201 -0.1904
  972MOL0     C28217   3.203   3.253  11.396  0.3024  1.1069 -0.6813
  972MOL0     C28218   3.292   3.348  11.342 -0.0354 -0.3395  0.8200
  972MOL0     O28219   3.660   3.394  11.372  0.3491 -0.4949 -0.5109
  972MOL0     C28220   3.633   3.602  11.082  0.4221 -0.3421 -0.5894
  972MOL0     C28221   3.694   3.707  11.028 -1.3819 -0.8914  1.1447
  972MOL0     N28222   4.214   4.054  10.525 -0.8103  0.4273  0.9056
  972MOL0     N28223   4.320   4.043  10.446 -0.7066  0.3624  0.2401
  972MOL0     C28224   5.151   4.643  10.117  1.3905  0.5072  0.2734
  972MOL0     C28225   5.278   4.696  10.141 -0.2773 -0.7176 -0.0413
  972MOL0     C28226   5.732   4.601  10.143 -0.2369  0.0747  0.4781
  972MOL0     C28227   5.780   4.663  10.263  0.8287 -0.4695 -0.1786
  972MOL0     C28228   5.910   4.648  10.305  0.1911 -0.3102  0.5359
  972MOL0     C28229   6.000   4.570  10.239  0.1101  0.1912 -0.4581
  972MOL0     O28230   6.127   4.535  10.274 -0.7564  0.7607 -0.0177
  972MOL0     C28231   6.168   4.592  10.399  0.2294  0.2507 -0.7372
  972MOL0     C28232   6.309   4.553  10.414  0.2883 -0.4487 -0.0050
  972MOL0     C28233   6.383   4.626  10.534 -0.0451 -0.6972  0.2931
  972MOL0     C28234   6.515   4.557  10.561  0.2253 -0.0900  0.1506
  972MOL0     C28235   6.565   4.624  10.685  0.1072  0.6939  0.3965
  972MOL0     C28236   6.601   4.683  10.784 -0.4220  0.0968  1.0742
  972MOL0     C28237   5.960   4.507  10.118 -0.2927 -0.5725 -0.1973
  972MOL0     C28238   5.825   4.526  10.068 -0.3514  0.6593  1.1129
  972MOL0     H28239   5.420   4.408  10.270 -0.1869 -0.3251  0.0050
  972MOL0     H28240   5.207   4.324  10.231  1.3025  1.0253  2.9081
  972MOL0     H28241   5.013   4.272  10.135 -0.3674  0.1636 -0.6453
  972MOL0     H28242   4.860   4.323  10.077  1.0316 -1.2699  0.3175
  972MOL0     H28243   4.956   4.330  10.363  1.5897  0.4916 -1.0517
  972MOL0     H28244   4.814   4.246  10.290  0.6540 -1.5070 -2.2196
  972MOL0     H28245   4.721   4.498  10.255 -0.5399 -0.0415  0.3866
  972MOL0     H28246   4.857   4.552  10.357  0.8634 -1.0040 -0.2025
  972MOL0     H28247   4.759   4.394  10.540 -1.1142 -1.0073  0.5829
  972MOL0     H28248   4.695   4.550  10.511 -1.3395  0.2743  0.8044
  972MOL0     H28249   4.529   4.470  10.349  3.1179  1.0238 -1.0033
  972MOL0     H28250   4.499   4.403  10.514 -2.9092 -3.3469 -1.4751
  972MOL0     H28251   4.591   4.247  10.275  1.8681 -0.9646  0.2411
  972MOL0     H28252   4.458   4.230  10.381  0.5784 -0.9642 -1.1056
  972MOL0     H28253   4.739   4.138  10.447 -0.5563 -1.2892 -4.1774
  972MOL0     H28254   4.640   4.193  10.581  0.2343 -1.6813  0.2709
  972MOL0     H28255   4.605   3.946  10.536 -2.9280 -0.4609  1.9806
  972MOL0     H28256   4.553   3.996  10.371 -4.5982 -0.3032  0.7618
  972MOL0     H28257   4.442   4.061  10.753 -0.4017  2.7532  0.8743
  972MOL0     H28258   4.049   4.131  10.706  0.9713 -1.1136 -1.2588
  972MOL0     H28259   4.184   4.205  10.799  1.9747 -0.1704  0.7059
  972MOL0     H28260   4.219   4.017  10.930 -0.5499  1.2841  1.0229
  972MOL0     H28261   4.133   3.903  10.819 -1.5515 -0.8862  1.1946
  972MOL0     H28262   4.027   4.143  10.990  1.4878  1.5384 -1.0546
  972MOL0     H28263   3.921   4.040  10.878  0.8750 -0.5357 -0.3953
  972MOL0     H28264   3.994   3.975  11.149 -0.1146 -0.9697 -0.4392
  972MOL0     H28265   4.062   3.853  11.041 -0.9580 -1.2675 -1.9331
  972MOL0     H28266   3.956   3.754  11.219  0.2183  1.1232 -1.2233
  972MOL0     H28267   3.838   3.558  11.347 -0.1340 -0.3556 -0.2885
  972MOL0     H28268   3.502   3.122  11.206 -0.5130 -2.7590  1.4571
  972MOL0     H28269   3.370   2.974  11.304  0.0807  0.7085 -1.1813
  972MOL0     H28270   3.200   2.819  11.390 -0.2655  0.2648  1.2498
  972MOL0     H28271   3.140   2.902  11.263  4.1136 -0.8469  1.0728
  972MOL0     H28272   2.990   2.832  11.531 -5.4002 -1.8751 -0.0804
  972MOL0     H28273   3.006   2.719  11.403 -3.0071  0.6948 -1.0159
  972MOL0     H28274   2.870   2.887  11.251 -2.2582 -1.2955 -0.3259
  972MOL0     H28275   2.855   2.990  11.392 -0.4704 -0.6803  2.4157
  972MOL0     H28276   2.730   2.723  11.339  2.1346 -0.9006  0.4011
  972MOL0     H28277   2.755   2.760  11.496 -1.5844 -2.7166 -0.7259
  972MOL0     H28278   2.586   2.944  11.319  0.3194  1.0660 -0.1897
  972MOL0     H28279   2.649   3.000  11.469  0.5718 -0.5508  0.7294
  972MOL0     H28280   2.540   2.820  11.602 -0.6953 -0.3597 -0.1618
  972MOL0     H28281   2.473   2.752  11.460  0.5377 -0.7454  0.7448
  972MOL0     H28282   2.396   3.027  11.557 -0.1796 -0.2038 -0.3630
  972MOL0     H28283   2.323   2.947  11.422  0.3215 -1.9734  0.6207
  972MOL0     H28284   2.194   2.929  11.636  2.1050  2.3278 -2.0597
  972MOL0     H28285   2.305   2.810  11.697 -0.0120  0.7961  2.1500
  972MOL0     H28286   3.110   3.284  11.442 -0.0384  0.8096 -1.1624
  972MOL0     H28287   3.264   3.451  11.359  0.4603 -0.4058  2.2064
  972MOL0     H28288   3.549   3.561  11.028  0.1471  0.8022 -1.0747
  972MOL0     H28289   3.665   3.745  10.930 -0.0956 -1.0403  0.6843
  972MOL0     H28290   5.077   4.707  10.070  2.2222  0.4031 -1.2107
  972MOL0     H28291   5.290   4.802  10.119 -1.2579 -1.0119 -2.3904
  972MOL0     H28292   5.719   4.730  10.321  0.1928  0.7400 -2.1612
  972MOL0     H28293   5.938   4.703  10.395 -1.1751 -1.0270  1.4249
  972MOL0     H28294   6.122   4.552  10.490  0.9149 -1.1160 -0.9607
  972MOL0     H28295   6.151   4.700  10.397 -0.3200  0.2127  0.7503
  972MOL0     H28296   6.320   4.445  10.426 -1.6113 -0.4797  1.9273
  972MOL0     H28297   6.366   4.587  10.326  3.0921  0.1088  1.8773
  972MOL0     H28298   6.321   4.637  10.623 -1.2416 -2.7817 -0.2176
  972MOL0     H28299   6.407   4.726  10.496  1.8064 -1.1579  0.1376
  972MOL0     H28300   6.505   4.450  10.582 -0.9309 -0.3850 -1.7064
  972MOL0     H28301   6.585   4.569  10.478 -0.8359 -0.4817 -0.8279
  972MOL0     H28302   6.643   4.748  10.858  1.6066  2.0233 -1.5338
  972MOL0     H28303   6.029   4.449  10.057  0.4829  1.2847 -1.1531
  972MOL0     H28304   5.795   4.469   9.981  0.1580 -0.3793  1.5978
  973MOL0     O28305   2.946  10.455   0.073 -0.0066 -0.1384 -0.4343
  973MOL0     C28306   2.942  10.333   0.042  0.2045  0.3350 -0.1726
  973MOL0     O28307   2.836  10.261  -0.010  0.4441  0.3221  0.0394
  973MOL0     C28308   2.709  10.312  -0.013  0.6772  1.3765  0.0070
  973MOL0     C28309   2.631  10.293  -0.132 -0.0557 -0.5199 -0.4925
  973MOL0     C28310   2.497  10.328  -0.141  0.4954 -0.0273 -0.3621
  973MOL0     C28311   2.433  10.379  -0.031 -0.1126  0.3497 -0.0973
  973MOL0     O28312   2.302  10.420  -0.019 -0.2318 -0.3900 -0.3385
  973MOL0     C28313   2.208  10.385  -0.120  0.1095 -0.0102 -1.0852
  973MOL0     C28314   2.068  10.427  -0.066  0.8510 -0.1731 -0.3144
  973MOL0     C28315   2.028  10.380   0.075 -1.1422  0.5371 -0.0494
  973MOL0     C28316   1.878  10.393   0.105 -0.4798 -0.6849  0.3270
  973MOL0     C28317   1.871  10.395   0.257 -0.7444 -0.6849 -0.5580
  973MOL0     C28318   1.735  10.349   0.304  0.0377 -0.1559 -0.6970
  973MOL0     C28319   1.619  10.448   0.279 -0.1622 -0.3158 -1.0198
  973MOL0     C28320   1.637  10.580   0.339  0.1261 -0.4019  0.5722
  973MOL0     N28321   1.515  10.666   0.337 -0.0243  0.9788 -0.4566
  973MOL0     C28322   1.470  10.738   0.227 -0.3290  0.5335  0.3078
  973MOL0     C28323   1.342  10.781   0.263  0.1348 -0.1306  0.1617
  973MOL0     C28324   1.250  10.855   0.176 -0.3361  0.5688 -0.0417
  973MOL0     C28325   1.182  10.979   0.252 -0.5378 -1.1614 -0.2376
  973MOL0     C28326   1.056  11.031   0.196 -0.1378 -0.0879  0.7468
  973MOL0     C28327   1.025  11.178   0.234 -0.8251 -0.0458 -0.5858
  973MOL0     O28328   0.910  11.204   0.164 -0.1418  0.0646  0.5292
  973MOL0     C28329   0.794  11.189   0.233  0.8059  0.4515  0.2923
  973MOL0     C28330   0.684  11.250   0.173 -0.3673  0.0595  0.7159
  973MOL0     C28331   0.564  11.275   0.239  0.3353 -0.5597 -0.3839
  973MOL0     C28332   0.539  11.213   0.364  0.4997  0.3836  0.5698
  973MOL0     C28333   0.412  11.240   0.432 -0.8410  0.4297  0.2144
  973MOL0     O28334   0.315  11.299   0.355 -0.1998 -0.2699  0.1912
  973MOL0     C28335   0.191  11.315   0.401 -0.5742  0.6231  0.6257
  973MOL0     C28336   0.089  11.231   0.363  0.5591 -0.5741 -0.1349
  973MOL0     C28337  -0.049  11.256   0.396  0.3941 -1.1666  0.5406
  973MOL0     C28338  -0.086  11.373   0.475 -0.0658 -1.1608  0.0272
  973MOL0     O28339  -0.211  11.384   0.520 -0.3651 -0.7570  0.2906
  973MOL0     C28340  -0.247  11.488   0.611  1.1895 -0.4479  0.7105
  973MOL0     C28341  -0.405  11.494   0.604  0.6044 -0.4497  0.1196
  973MOL0     C28342  -0.470  11.537   0.740 -0.7086 -0.5805  0.2683
  973MOL0     C28343  -0.624  11.533   0.733  0.2572 -0.4935 -0.0554
  973MOL0     C28344  -0.687  11.612   0.851 -0.8909 -0.3465  0.5082
  973MOL0     C28345  -0.831  11.596   0.872 -0.3602  0.3474  0.8892
  973MOL0     C28346  -0.882  11.667   0.997  0.0611  0.3990  1.3976
  973MOL0     C28347  -1.034  11.643   1.009  0.5757  0.4982 -1.3746
  973MOL0    Cl28348  -1.099  11.698   1.166 -0.0773  0.4447  0.2197
  973MOL0     C28349   0.024  11.447   0.520 -0.0711  0.3811  0.8657
  973MOL0     C28350   0.163  11.424   0.482  0.0531 -0.0352  0.7457
  973MOL0     O28351   0.401  11.197   0.548 -0.2164  0.3226 -0.2726
  973MOL0     C28352   0.642  11.140   0.421 -0.3706  0.6337 -0.1338
  973MOL0     C28353   0.764  11.129   0.354  0.7324  0.4936 -0.0494
  973MOL0     N28354   1.327  10.742   0.396 -0.6170  0.2829 -0.6149
  973MOL0     N28355   1.422  10.669   0.438  0.1308 -0.4062 -0.8704
  973MOL0     C28356   2.505  10.404   0.084 -0.9172 -0.2134 -0.2973
  973MOL0     C28357   2.645  10.374   0.092 -0.2208 -0.1427 -0.6097
  973MOL0     C28358   3.073  10.259   0.040  0.7776  0.1558 -0.2494
  973MOL0     C28359   3.194  10.313   0.086 -0.2462  0.8941 -0.3778
  973MOL0     C28360   3.318  10.244   0.076  0.1652  0.2117 -0.1428
  973MOL0     C28361   3.315  10.117   0.041 -0.0595 -0.6308 -0.2561
  973MOL0     O28362   3.418  10.029   0.033  0.5976 -0.2309  0.7138
  973MOL0     C28363   3.535  10.048   0.114 -0.2961 -0.1352  0.3628
  973MOL0     C28364   3.584   9.906   0.174 -0.1990  0.0223  0.7490
  973MOL0     C28365   3.611   9.794   0.073  0.3332  0.0626  0.5667
  973MOL0     C28366   3.750   9.819   0.003  0.3125 -0.5441 -0.9793
  973MOL0     C28367   3.781   9.703  -0.083  0.5281  0.3019 -0.1842
  973MOL0     C28368   3.792   9.608  -0.157 -0.6246  0.2943  0.3982
  973MOL0     C28369   3.202  10.058  -0.015  0.6561 -0.5050  0.6055
  973MOL0     C28370   3.081  10.126  -0.006 -0.3910  0.2984  0.4835
  973MOL0     H28371   2.692  10.254  -0.213  2.9164  0.8166  0.9576
  973MOL0     H28372   2.446  10.295  -0.231 -0.2287  0.2845 -0.0737
  973MOL0     H28373   2.213  10.277  -0.138  2.6165  0.0464 -1.1216
  973MOL0     H28374   2.219  10.435  -0.216  1.6056  0.8949 -0.4772
  973MOL0     H28375   1.988  10.374  -0.118 -0.3762  0.0645  1.2570
  973MOL0     H28376   2.065  10.536  -0.075  1.3859 -0.0772  0.5406
  973MOL0     H28377   2.097  10.437   0.138  1.5265 -0.9161 -1.4858
  973MOL0     H28378   2.053  10.274   0.083 -1.9146  0.4809  2.2261
  973MOL0     H28379   1.841  10.489   0.066  0.6769 -0.4044 -0.1061
  973MOL0     H28380   1.828  10.307   0.059  0.3631  0.4380 -2.9592
  973MOL0     H28381   1.895  10.492   0.301 -1.8222 -0.1787 -1.0544
  973MOL0     H28382   1.944  10.322   0.292 -0.6386 -1.3910 -2.1515
  973MOL0     H28383   1.735  10.349   0.414 -1.3361 -0.6819 -0.6772
  973MOL0     H28384   1.714  10.248   0.268 -0.0148  0.4155 -2.3662
  973MOL0     H28385   1.609  10.453   0.170 -0.5536  0.7527 -0.9553
  973MOL0     H28386   1.525  10.405   0.315 -0.6884  0.2556 -1.6875
  973MOL0     H28387   1.709  10.634   0.278 -0.5363  1.2132  1.1578
  973MOL0     H28388   1.680  10.571   0.439  1.9411 -0.6131 -0.2034
  973MOL0     H28389   1.525  10.754   0.135 -0.8774 -2.5880 -0.6865
  973MOL0     H28390   1.163  10.791   0.160 -0.3543  0.2817  1.1266
  973MOL0     H28391   1.288  10.889   0.079 -1.3800  3.1629  0.3526
  973MOL0     H28392   1.256  11.058   0.244 -1.4474 -0.2947 -0.2787
  973MOL0     H28393   1.170  10.953   0.357 -0.5046 -1.2743 -0.2616
  973MOL0     H28394   1.061  11.030   0.086 -1.3749  0.8040  0.6762
  973MOL0     H28395   0.974  10.967   0.229 -0.3138 -0.6225 -0.6386
  973MOL0     H28396   1.109  11.244   0.207 -1.7239  1.6634  0.5813
  973MOL0     H28397   1.013  11.191   0.342 -0.3448 -0.5530 -0.4679
  973MOL0     H28398   0.684  11.285   0.070 -0.3487 -4.2617 -0.9784
  973MOL0     H28399   0.483  11.325   0.189  1.5125  1.5019 -0.3468
  973MOL0     H28400   0.111  11.143   0.305  0.6326 -0.1897 -0.6934
  973MOL0     H28401  -0.133  11.208   0.347  0.1239 -0.3677  0.2140
  973MOL0     H28402  -0.211  11.591   0.598 -1.4691  0.8472  2.6447
  973MOL0     H28403  -0.204  11.466   0.709  1.0208  4.0477  2.0302
  973MOL0     H28404  -0.424  11.393   0.567  2.5562 -0.3218 -1.4247
  973MOL0     H28405  -0.435  11.570   0.533  1.9695 -0.4532 -0.4943
  973MOL0     H28406  -0.442  11.636   0.776 -0.8341 -0.8453  1.1011
  973MOL0     H28407  -0.439  11.468   0.819 -1.2754  1.5728  2.4778
  973MOL0     H28408  -0.665  11.568   0.638 -2.5263  0.3082  1.3226
  973MOL0     H28409  -0.655  11.429   0.740 -1.4382 -0.0181 -0.0194
  973MOL0     H28410  -0.661  11.717   0.840  0.9936 -0.6634  1.5161
  973MOL0     H28411  -0.633  11.568   0.936  1.9457 -0.9045 -1.4160
  973MOL0     H28412  -0.852  11.490   0.888  2.2114 -0.2797  0.6836
  973MOL0     H28413  -0.874  11.628   0.777 -0.1843 -0.8411  0.3797
  973MOL0     H28414  -0.827  11.631   1.084  3.2382  0.1133 -0.5615
  973MOL0     H28415  -0.872  11.773   0.973 -3.7244  0.3241 -1.6297
  973MOL0     H28416  -1.052  11.536   1.001  4.8182 -0.4890 -0.4158
  973MOL0     H28417  -1.082  11.703   0.932 -0.4504 -0.0707 -1.1987
  973MOL0     H28418   0.009  11.534   0.584  0.9511  0.3935  1.0927
  973MOL0     H28419   0.236  11.497   0.512  0.0753  0.0616  0.4639
  973MOL0     H28420   0.622  11.092   0.516 -1.3076 -0.9107 -1.0785
  973MOL0     H28421   0.836  11.071   0.411 -2.7458 -2.4729  1.7408
  973MOL0     H28422   2.464  10.463   0.166 -2.4165 -1.7231  0.0987
  973MOL0     H28423   2.702  10.391   0.183 -0.3896  2.0756 -0.8721
  973MOL0     H28424   3.193  10.413   0.130 -1.9556  0.5288  0.4987
  973MOL0     H28425   3.411  10.287   0.112  0.3020 -0.9442  0.9776
  973MOL0     H28426   3.506  10.116   0.194  1.4847 -0.3408  1.2281
  973MOL0     H28427   3.618  10.087   0.055  1.1104 -3.0957  0.2491
  973MOL0     H28428   3.673   9.928   0.233 -0.5408  1.0856  0.8902
  973MOL0     H28429   3.511   9.879   0.250  1.2060  2.5624  3.1989
  973MOL0     H28430   3.535   9.782  -0.005  1.8167  3.4254 -1.6284
  973MOL0     H28431   3.613   9.700   0.130  1.3196  0.1144  0.6428
  973MOL0     H28432   3.747   9.912  -0.055  1.0958  0.4673  0.5343
  973MOL0     H28433   3.832   9.826   0.074  0.0269  3.2651 -0.7917
  973MOL0     H28434   3.817   9.525  -0.220  0.6485  0.7863  0.2300
  973MOL0     H28435   3.201   9.962  -0.065  0.5347  1.1236 -2.8546
  973MOL0     H28436   2.988  10.086  -0.045 -1.1939  1.3687  1.2301
  974MOL0     O28437   5.105   4.255   5.546 -0.5378 -0.0196  0.2708
  974MOL0     C28438   5.190   4.350   5.545 -0.9433 -0.8316  0.1092
  974MOL0     O28439   5.167   4.488   5.556 -0.5527 -0.0681  0.4168
  974MOL0     C28440   5.037   4.535   5.584 -0.4834 -0.0236 -0.6842
  974MOL0     C28441   5.001   4.559   5.719 -0.1491 -0.0957 -0.1839
  974MOL0     C28442   4.869   4.576   5.760  0.2558  0.3508 -0.3546
  974MOL0     C28443   4.764   4.585   5.662 -0.2247 -0.1520  0.3911
  974MOL0     O28444   4.638   4.619   5.692  0.3255  0.1532  0.5857
  974MOL0     C28445   4.618   4.702   5.810 -0.4690  0.0907 -0.4432
  974MOL0     C28446   4.474   4.751   5.824  0.9092 -0.3670 -0.0468
  974MOL0     C28447   4.353   4.652   5.840  0.2508  0.0015 -0.1893
  974MOL0     C28448   4.370   4.548   5.951 -0.4414  0.3181  0.3890
  974MOL0     C28449   4.236   4.495   5.998  0.0789  0.4111  0.1198
  974MOL0     C28450   4.146   4.428   5.902 -0.6260  0.6914  0.2929
  974MOL0     C28451   4.008   4.384   5.958 -0.3687  0.0865 -0.3775
  974MOL0     C28452   3.921   4.485   6.030  0.3272  0.4026  0.2549
  974MOL0     N28453   3.793   4.421   6.069 -0.4795  0.2475  0.2851
  974MOL0     C28454   3.776   4.310   6.148  0.4587 -0.0616  0.4955
  974MOL0     C28455   3.645   4.292   6.134 -0.3197  0.1641  0.5847
  974MOL0     C28456   3.579   4.176   6.196  0.2602  0.7840 -0.2565
  974MOL0     C28457   3.436   4.197   6.226 -0.3069 -0.6347  0.0183
  974MOL0     C28458   3.374   4.074   6.288  0.6612  0.2163  0.5177
  974MOL0     C28459   3.229   4.101   6.328 -0.4029  0.3308  0.0994
  974MOL0     O28460   3.151   4.030   6.229 -0.1101  0.0628 -0.2065
  974MOL0     C28461   3.024   4.001   6.244  0.0071 -0.7450 -0.5230
  974MOL0     C28462   2.949   4.045   6.354  0.3611  0.0903  0.8144
  974MOL0     C28463   2.807   4.030   6.361  0.2636  0.7464 -0.7580
  974MOL0     C28464   2.747   3.940   6.263  0.0264  1.1500  0.1348
  974MOL0     C28465   2.600   3.893   6.265  0.3298 -0.2413  0.0154
  974MOL0     O28466   2.517   3.951   6.362  0.1646  0.2195  0.5460
  974MOL0     C28467   2.389   3.930   6.342 -0.3177 -0.1225 -0.6466
  974MOL0     C28468   2.313   3.999   6.256  0.0838  0.3488  0.0798
  974MOL0     C28469   2.175   3.973   6.228 -0.5580  0.1584 -0.2638
  974MOL0     C28470   2.109   3.881   6.311  0.0282  0.1168 -0.5405
  974MOL0     O28471   1.974   3.858   6.296  0.2026  0.5658  0.1631
  974MOL0     C28472   1.901   3.902   6.413 -0.1277 -0.3356  0.2708
  974MOL0     C28473   1.754   3.883   6.398  0.3202  0.5249 -0.3521
  974MOL0     C28474   1.679   3.907   6.528  0.1621  0.2070 -0.2292
  974MOL0     C28475   1.535   3.867   6.510 -0.0483  0.0497  0.3763
  974MOL0     C28476   1.449   3.897   6.636  0.2553 -0.1080 -0.1455
  974MOL0     C28477   1.297   3.841   6.633 -0.9533  0.2686  0.5782
  974MOL0     C28478   1.228   3.861   6.761  0.1911  0.0799  0.1552
  974MOL0     C28479   1.078   3.825   6.739  1.0181  0.8098 -0.2363
  974MOL0    Cl28480   1.034   3.712   6.865  0.2030  0.1088  0.4637
  974MOL0     C28481   2.185   3.816   6.406 -0.5261 -0.3440 -0.7674
  974MOL0     C28482   2.322   3.838   6.422  0.0157  0.2657  0.0876
  974MOL0     O28483   2.570   3.816   6.172 -0.8340 -0.0154 -0.0369
  974MOL0     C28484   2.828   3.889   6.155 -0.4680  0.6629 -0.3170
  974MOL0     C28485   2.963   3.930   6.144  0.8861  0.0121  0.5060
  974MOL0     N28486   3.584   4.382   6.056  0.7934 -0.4984  0.3544
  974MOL0     N28487   3.681   4.454   6.006  0.8059 -0.4157  0.1417
  974MOL0     C28488   4.800   4.574   5.526  0.2587  0.4150 -0.0367
  974MOL0     C28489   4.932   4.539   5.488 -0.9958 -0.1954 -0.5531
  974MOL0     C28490   5.330   4.297   5.534 -0.0405  0.0058 -0.5421
  974MOL0     C28491   5.355   4.171   5.584  0.0871  0.4571 -1.1020
  974MOL0     C28492   5.483   4.126   5.598  0.1206 -0.3174 -0.3572
  974MOL0     C28493   5.594   4.198   5.554 -0.1343  0.1333 -0.0638
  974MOL0     O28494   5.718   4.153   5.560 -0.3883 -0.0612 -0.0378
  974MOL0     C28495   5.752   4.016   5.573  0.4646  1.4383 -0.5401
  974MOL0     C28496   5.892   4.009   5.520 -0.5381  0.2278 -0.5045
  974MOL0     C28497   5.958   3.868   5.541  0.2493 -0.2167  0.0654
  974MOL0     C28498   5.908   3.765   5.430 -0.1283 -0.1447 -0.1650
  974MOL0     C28499   5.993   3.642   5.449  0.9250 -0.5675 -0.0912
  974MOL0     C28500   6.058   3.546   5.473 -0.5499  1.0008 -0.2087
  974MOL0     C28501   5.569   4.320   5.498  0.4268 -0.7088 -0.0364
  974MOL0     C28502   5.439   4.377   5.492  0.1833 -0.3255 -0.3542
  974MOL0     H28503   5.074   4.565   5.799 -0.8723  2.3204  0.3824
  974MOL0     H28504   4.849   4.582   5.867  0.1835 -0.7367 -0.2954
  974MOL0     H28505   4.681   4.791   5.806 -2.2052  1.4496  0.5984
  974MOL0     H28506   4.647   4.647   5.900  0.6629 -0.0797 -0.8932
  974MOL0     H28507   4.445   4.806   5.734 -0.7648 -2.5516 -0.9283
  974MOL0     H28508   4.478   4.812   5.915 -3.8501  0.7512 -0.3199
  974MOL0     H28509   4.335   4.610   5.742 -1.8778  1.1031 -0.3269
  974MOL0     H28510   4.270   4.719   5.863 -0.6923 -1.3480  0.4457
  974MOL0     H28511   4.421   4.467   5.899  0.3334  1.4404 -0.6561
  974MOL0     H28512   4.423   4.583   6.040 -0.4286 -2.1756  1.4549
  974MOL0     H28513   4.188   4.583   6.041 -0.1611 -0.1199  0.9530
  974MOL0     H28514   4.253   4.430   6.085  1.2449  0.2938 -0.1778
  974MOL0     H28515   4.189   4.334   5.866 -1.3457  0.2835  0.4685
  974MOL0     H28516   4.138   4.501   5.820  1.8625  0.0527 -0.6023
  974MOL0     H28517   3.943   4.334   5.885 -0.9239 -1.9375  1.4186
  974MOL0     H28518   4.040   4.303   6.024  0.1314 -0.9456 -1.8306
  974MOL0     H28519   3.905   4.569   5.963  0.3592  0.2315  0.0301
  974MOL0     H28520   3.978   4.512   6.119  1.6295 -1.7972  0.1806
  974MOL0     H28521   3.859   4.256   6.193  1.6843  1.0144 -0.4066
  974MOL0     H28522   3.635   4.155   6.288  2.2382  0.6329 -1.4550
  974MOL0     H28523   3.601   4.093   6.128  0.1228  1.3995 -1.0574
  974MOL0     H28524   3.369   4.218   6.142 -1.0570  0.0976  0.7786
  974MOL0     H28525   3.434   4.282   6.295  1.5235  0.9337 -1.7402
  974MOL0     H28526   3.376   3.989   6.219  1.4947 -1.6797  2.7279
  974MOL0     H28527   3.430   4.042   6.377  1.6964 -1.7453 -0.7619
  974MOL0     H28528   3.207   4.208   6.331 -2.2260 -0.0209  2.4645
  974MOL0     H28529   3.209   4.064   6.429 -1.0719 -2.7847 -1.0635
  974MOL0     H28530   2.996   4.097   6.437 -0.6663  1.5352  0.5358
  974MOL0     H28531   2.747   4.055   6.448  1.3385  0.0154  0.2221
  974MOL0     H28532   2.355   4.068   6.183 -0.6574  2.0021  1.1552
  974MOL0     H28533   2.121   4.036   6.158  0.9384  2.2771  0.3944
  974MOL0     H28534   1.923   4.007   6.434 -1.4098 -0.2253  1.1229
  974MOL0     H28535   1.934   3.840   6.496 -1.6389  2.3160  3.0299
  974MOL0     H28536   1.740   3.778   6.372 -2.0470  0.4341  1.0114
  974MOL0     H28537   1.716   3.942   6.314 -2.5504 -0.6596 -0.0177
  974MOL0     H28538   1.690   4.007   6.572 -1.9583 -0.0137  0.9305
  974MOL0     H28539   1.731   3.845   6.602 -1.0506  0.1101  0.5752
  974MOL0     H28540   1.487   3.926   6.432  3.3344  0.1899 -1.7648
  974MOL0     H28541   1.539   3.760   6.487  1.3246 -0.4582  2.6020
  974MOL0     H28542   1.440   4.006   6.635  1.2205 -0.0117  0.3727
  974MOL0     H28543   1.509   3.874   6.725  1.3413  1.9411 -0.2860
  974MOL0     H28544   1.297   3.736   6.603 -3.2163  0.3061  0.2758
  974MOL0     H28545   1.248   3.895   6.552 -1.2873 -2.1644 -0.9586
  974MOL0     H28546   1.279   3.800   6.836 -1.5225 -1.6693 -0.0025
  974MOL0     H28547   1.225   3.965   6.795 -0.4287  0.5052 -1.1361
  974MOL0     H28548   1.063   3.772   6.644 -1.0299 -1.1790  1.0879
  974MOL0     H28549   1.017   3.914   6.727  0.5854  0.1559 -4.6046
  974MOL0     H28550   2.139   3.738   6.467  0.6098  1.4115  2.5268
  974MOL0     H28551   2.387   3.784   6.491  0.5149  0.2615 -0.3795
  974MOL0     H28552   2.801   3.813   6.083  2.2339 -1.7874  1.0910
  974MOL0     H28553   3.031   3.882   6.075  2.5493  0.1571  1.9622
  974MOL0     H28554   4.727   4.577   5.446 -0.0147 -1.1325  0.1339
  974MOL0     H28555   4.963   4.496   5.393  2.0837 -1.4418  0.8881
  974MOL0     H28556   5.269   4.112   5.614  0.7739  0.9074  2.0742
  974MOL0     H28557   5.481   4.028   5.644 -2.3940  0.0833  0.5331
  974MOL0     H28558   5.680   3.952   5.522 -2.9920  3.9026  0.8610
  974MOL0     H28559   5.748   3.987   5.678  0.7726  0.8002 -0.7008
  974MOL0     H28560   5.895   4.040   5.416 -0.3108 -1.5491 -1.0634
  974MOL0     H28561   5.950   4.085   5.573 -0.9907 -0.9848  1.9141
  974MOL0     H28562   5.929   3.818   5.634 -0.2441  1.7285  1.0030
  974MOL0     H28563   6.068   3.871   5.536  0.4471 -3.2075  0.7195
  974MOL0     H28564   5.808   3.723   5.443 -0.0479 -0.9303 -1.8051
  974MOL0     H28565   5.914   3.817   5.334 -1.9493  0.8308  0.2123
  974MOL0     H28566   6.111   3.456   5.498 -1.0037  0.3339 -1.5655
  974MOL0     H28567   5.651   4.374   5.454  1.6846 -2.5234 -0.0246
  974MOL0     H28568   5.417   4.475   5.451 -1.2534 -0.5107 -0.0842
  975MOL0     O28569   5.523   4.824   7.357 -0.0386  0.6248  0.4282
  975MOL0     C28570   5.463   4.730   7.407 -0.2816 -0.5215  0.6366
  975MOL0     O28571   5.520   4.606   7.436  0.0336  0.2138  0.2819
  975MOL0     C28572   5.651   4.580   7.420 -0.5989 -0.1672  0.5111
  975MOL0     C28573   5.705   4.476   7.494 -0.0548  0.4374  0.2308
  975MOL0     C28574   5.827   4.414   7.462 -0.3212  0.2652  0.2834
  975MOL0     C28575   5.910   4.470   7.365 -0.1932 -0.3752  0.9578
  975MOL0     O28576   6.034   4.424   7.341  0.5886  0.6233  0.4256
  975MOL0     C28577   6.108   4.363   7.449 -0.5241 -0.2629  0.3588
  975MOL0     C28578   6.251   4.349   7.402 -0.2655 -0.0859  0.1109
  975MOL0     C28579   6.338   4.265   7.491  0.2908  0.1539 -0.3386
  975MOL0     C28580   6.491   4.301   7.475 -0.5112  0.4104  1.4179
  975MOL0     C28581   6.570   4.192   7.552 -0.1887  0.6099  0.3191
  975MOL0     C28582   6.724   4.221   7.557  0.5247  0.0896  0.2569
  975MOL0     C28583   6.808   4.116   7.637  0.4703  0.1635  0.2127
  975MOL0     C28584   6.958   4.161   7.641  0.2075  0.4118  0.1181
  975MOL0     N28585   7.030   4.063   7.724  0.0143 -0.3960  0.0355
  975MOL0     C28586   7.029   4.064   7.855 -0.5574  0.5959 -0.2346
  975MOL0     C28587   7.083   3.950   7.903  0.2652  0.2259  0.6490
  975MOL0     C28588   7.088   3.916   8.051  0.2671 -0.0200  0.3318
  975MOL0     C28589   6.958   3.929   8.123  0.8063 -0.6591 -1.1286
  975MOL0     C28590   6.854   3.834   8.067  0.6154 -0.0156  0.2693
  975MOL0     C28591   6.748   3.792   8.176  0.9706 -0.5792  0.3430
  975MOL0     O28592   6.684   3.911   8.228 -0.0649 -0.3498 -0.2275
  975MOL0     C28593   6.619   3.899   8.341  0.8142 -0.0464 -0.3765
  975MOL0     C28594   6.605   4.012   8.421 -0.3371  0.3799  0.4027
  975MOL0     C28595   6.527   4.008   8.540 -0.3345  0.3794  0.4288
  975MOL0     C28596   6.466   3.895   8.589  0.0722  0.6610 -0.1660
  975MOL0     C28597   6.386   3.889   8.709 -0.1220  1.1617  0.4942
  975MOL0     O28598   6.352   3.766   8.754  0.2136 -0.0620  0.6134
  975MOL0     C28599   6.314   3.740   8.890  0.1839  0.5144 -0.4219
  975MOL0     C28600   6.394   3.775   8.995 -0.8654 -0.3860 -0.8589
  975MOL0     C28601   6.357   3.732   9.131  0.0051  0.4588  0.4017
  975MOL0     C28602   6.242   3.658   9.154  0.0920  0.5985 -0.0413
  975MOL0     O28603   6.226   3.589   9.274 -0.2288 -0.7224  0.3277
  975MOL0     C28604   6.268   3.449   9.282  0.8108 -0.0425 -0.1794
  975MOL0     C28605   6.414   3.432   9.307  0.4125 -0.0529  0.3170
  975MOL0     C28606   6.440   3.300   9.390 -1.1895  0.0308  0.2926
  975MOL0     C28607   6.596   3.286   9.431 -0.9962  0.0555  0.2890
  975MOL0     C28608   6.623   3.175   9.535  0.1680 -0.2789  0.0849
  975MOL0     C28609   6.599   3.030   9.480 -0.1492  0.0533  0.2393
  975MOL0     C28610   6.470   2.969   9.543  0.3838  0.0247  0.4127
  975MOL0     C28611   6.428   2.825   9.494 -0.3698 -0.4398  0.3524
  975MOL0    Cl28612   6.587   2.729   9.476  0.0646 -0.3146 -0.1568
  975MOL0     C28613   6.153   3.634   9.045  0.1086 -0.2345 -0.4813
  975MOL0     C28614   6.194   3.667   8.913 -0.2928  0.4160 -1.0157
  975MOL0     O28615   6.371   3.994   8.773 -0.0409  0.7146 -0.6668
  975MOL0     C28616   6.486   3.779   8.514  0.4631 -0.2215 -0.1721
  975MOL0     C28617   6.549   3.782   8.388 -0.2099  0.4247  0.2139
  975MOL0     N28618   7.116   3.872   7.791 -0.5546 -0.3887  0.3140
  975MOL0     N28619   7.081   3.947   7.692 -0.2658  0.2489  0.0894
  975MOL0     C28620   5.860   4.570   7.286 -0.7363 -0.1460 -1.1680
  975MOL0     C28621   5.730   4.612   7.306 -0.7551 -0.0107  0.2948
  975MOL0     C28622   5.327   4.764   7.460 -0.1964 -0.1657  0.4360
  975MOL0     C28623   5.233   4.660   7.492  0.0819 -0.3165  0.6229
  975MOL0     C28624   5.103   4.686   7.538  0.4554  0.2817 -0.2074
  975MOL0     C28625   5.056   4.817   7.538 -0.3013 -0.0097  0.6142
  975MOL0     O28626   4.923   4.843   7.559 -0.2796  0.2316  0.1814
  975MOL0     C28627   4.857   4.964   7.508 -0.8164  0.3538  0.0947
  975MOL0     C28628   4.710   4.963   7.556 -0.3667  0.0393 -0.9511
  975MOL0     C28629   4.629   5.071   7.486 -0.4580 -0.7496 -0.1868
  975MOL0     C28630   4.480   5.059   7.527 -1.4890  0.4473 -0.4252
  975MOL0     C28631   4.418   4.935   7.473  0.6452 -1.1568 -0.1905
  975MOL0     C28632   4.376   4.840   7.414  0.1981  0.0198  0.0874
  975MOL0     C28633   5.150   4.919   7.509  0.8545  0.0155 -1.1902
  975MOL0     C28634   5.279   4.896   7.476 -0.4003  0.8171  0.0485
  975MOL0     H28635   5.646   4.423   7.567  0.1002 -0.7449 -0.4678
  975MOL0     H28636   5.872   4.330   7.514  0.4063  0.0824 -0.6297
  975MOL0     H28637   6.069   4.264   7.473 -0.7397 -0.1597  0.4373
  975MOL0     H28638   6.109   4.439   7.528 -0.1577  0.9402 -0.7610
  975MOL0     H28639   6.292   4.449   7.387 -1.9224  0.2161 -3.4554
  975MOL0     H28640   6.244   4.306   7.301  1.6746  0.9943 -0.5395
  975MOL0     H28641   6.329   4.156   7.490  5.1126 -0.5312  1.9732
  975MOL0     H28642   6.301   4.285   7.592 -0.1588 -2.3555  0.0540
  975MOL0     H28643   6.511   4.282   7.369  0.7693 -1.5784  1.9719
  975MOL0     H28644   6.517   4.404   7.501 -1.0636  1.2238 -1.0327
  975MOL0     H28645   6.554   4.098   7.498 -1.9208  1.2147 -0.3038
  975MOL0     H28646   6.530   4.194   7.654 -0.0027 -0.0560  0.4120
  975MOL0     H28647   6.740   4.318   7.604 -0.0771  0.2949  0.0440
  975MOL0     H28648   6.774   4.226   7.460 -0.7437 -1.2007 -0.5022
  975MOL0     H28649   6.777   4.124   7.742  1.5078 -3.4692  0.9292
  975MOL0     H28650   6.800   4.011   7.607  2.7696  0.1231 -0.4314
  975MOL0     H28651   6.969   4.260   7.687  1.3459  0.5259 -0.3740
  975MOL0     H28652   7.000   4.154   7.541 -0.2328 -1.1439  0.0159
  975MOL0     H28653   6.996   4.149   7.913  0.3141 -0.0956  1.3657
  975MOL0     H28654   7.160   3.981   8.102  0.5495  1.6664 -2.0522
  975MOL0     H28655   7.123   3.814   8.066 -2.1408 -1.3915 -2.4201
  975MOL0     H28656   6.914   4.029   8.129  0.4803 -0.7611 -1.7351
  975MOL0     H28657   6.965   3.899   8.228 -0.3875  1.6457 -0.3212
  975MOL0     H28658   6.802   3.881   7.982 -0.5330 -2.0005 -0.1834
  975MOL0     H28659   6.901   3.744   8.027 -2.7157 -1.5855 -0.4737
  975MOL0     H28660   6.797   3.734   8.255  2.3340 -0.4371 -0.3689
  975MOL0     H28661   6.686   3.718   8.125 -0.4588  0.7981  0.0331
  975MOL0     H28662   6.638   4.106   8.378 -0.1078  0.2062  0.1924
  975MOL0     H28663   6.522   4.099   8.598  0.0318  0.2745  0.6260
  975MOL0     H28664   6.484   3.832   8.977  0.7708 -2.6256 -0.2098
  975MOL0     H28665   6.417   3.763   9.216 -2.5157 -0.0329  2.5008
  975MOL0     H28666   6.232   3.402   9.190 -1.8641 -0.5300  1.0035
  975MOL0     H28667   6.219   3.403   9.368  3.2400 -0.1009  1.2424
  975MOL0     H28668   6.449   3.510   9.376 -0.0726 -0.6191  1.2227
  975MOL0     H28669   6.474   3.436   9.215  1.8482  0.2876  1.2299
  975MOL0     H28670   6.416   3.218   9.321 -0.4706 -0.2959  0.4147
  975MOL0     H28671   6.373   3.296   9.476  0.9645 -0.0847  2.0446
  975MOL0     H28672   6.648   3.250   9.342 -1.8420 -0.9775  0.1836
  975MOL0     H28673   6.637   3.384   9.457 -2.1985  1.0406 -1.2921
  975MOL0     H28674   6.571   3.192   9.630 -0.9669 -0.6647 -0.4371
  975MOL0     H28675   6.727   3.179   9.565 -0.0856 -0.1791  0.9660
  975MOL0     H28676   6.681   2.968   9.516 -0.8917 -1.1133 -0.0302
  975MOL0     H28677   6.603   3.042   9.371 -0.8034  0.2563  0.2302
  975MOL0     H28678   6.497   2.950   9.648  1.4051  0.3608  0.2247
  975MOL0     H28679   6.386   3.039   9.543 -1.6109 -2.2239  0.9380
  975MOL0     H28680   6.373   2.809   9.400 -1.6689 -1.3353  1.2305
  975MOL0     H28681   6.364   2.781   9.571 -0.5664  2.6748  2.1157
  975MOL0     H28682   6.066   3.571   9.058  0.0827 -0.2228 -0.5944
  975MOL0     H28683   6.129   3.642   8.829  2.6748  0.6168 -3.5315
  975MOL0     H28684   6.441   3.689   8.554 -3.1016  2.5629  2.7704
  975MOL0     H28685   6.566   3.689   8.336  4.6755  1.0522  0.2685
  975MOL0     H28686   5.917   4.595   7.198  1.8929  1.1027  0.7521
  975MOL0     H28687   5.685   4.668   7.225  0.5700 -0.9015 -1.1167
  975MOL0     H28688   5.270   4.558   7.482  2.4091  0.5841 -0.6208
  975MOL0     H28689   5.034   4.603   7.552  2.0208 -1.5665 -2.5662
  975MOL0     H28690   4.864   4.971   7.399  0.2425 -0.5611  0.0953
  975MOL0     H28691   4.909   5.052   7.548 -2.4727  1.9975 -1.1572
  975MOL0     H28692   4.670   4.862   7.540 -0.4440 -0.2164  0.7170
  975MOL0     H28693   4.715   4.971   7.665  2.1235 -1.7275 -0.8343
  975MOL0     H28694   4.643   5.053   7.379  1.7836  0.4847 -0.1893
  975MOL0     H28695   4.678   5.166   7.510 -0.0905 -1.3194  1.4742
  975MOL0     H28696   4.473   5.055   7.636 -1.4898 -2.2771 -0.4574
  975MOL0     H28697   4.437   5.151   7.487 -2.2241 -0.0378 -0.7821
  975MOL0     H28698   4.339   4.751   7.367 -1.8944  1.2778 -0.7927
  975MOL0     H28699   5.117   5.023   7.515 -1.2278 -0.6332  3.4635
  975MOL0     H28700   5.356   4.969   7.457  1.4681 -1.1006 -0.1820
  976MOL0     O28701   6.449  10.516   7.181 -0.4542  0.2896 -0.0546
  976MOL0     C28702   6.416  10.425   7.104  0.3916 -0.8129 -0.4672
  976MOL0     O28703   6.290  10.393   7.077  0.1668 -0.4857 -0.4508
  976MOL0     C28704   6.189  10.453   7.148 -0.1085 -0.2575  0.8987
  976MOL0     C28705   6.080  10.513   7.082  0.3722  0.0224 -0.1968
  976MOL0     C28706   5.974  10.569   7.157 -0.5757 -0.0043  0.2225
  976MOL0     C28707   5.977  10.575   7.297  0.0584  0.7131 -0.3278
  976MOL0     O28708   5.894  10.625   7.385 -0.0829  0.5023  0.0768
  976MOL0     C28709   5.763  10.655   7.342 -0.2482 -0.0883  0.6848
  976MOL0     C28710   5.689  10.727   7.453 -0.3770 -0.9230  0.2382
  976MOL0     C28711   5.536  10.737   7.419  0.1416  0.2953  0.9125
  976MOL0     C28712   5.460  10.794   7.535 -0.3012  0.0866 -0.4741
  976MOL0     C28713   5.303  10.781   7.508 -0.7944  1.3726  0.0220
  976MOL0     C28714   5.246  10.892   7.433  0.1855  0.4190  0.2589
  976MOL0     C28715   5.096  10.871   7.394  0.0084  0.6914 -0.4627
  976MOL0     C28716   5.005  10.929   7.500  0.3473 -0.1160  0.3194
  976MOL0     N28717   4.861  10.929   7.461  0.1999  0.3753 -0.2709
  976MOL0     C28718   4.800  11.014   7.368  0.6960 -0.7553  1.0011
  976MOL0     C28719   4.665  10.981   7.382 -0.6939  0.1622  0.4341
  976MOL0     C28720   4.562  11.049   7.292 -0.4689 -0.4461  0.1288
  976MOL0     C28721   4.422  11.008   7.326  0.6779  0.1459  0.0583
  976MOL0     C28722   4.319  11.072   7.231 -0.9541 -0.3228 -0.9439
  976MOL0     C28723   4.179  11.080   7.283 -1.1241  0.1993 -0.0134
  976MOL0     O28724   4.096  11.150   7.190 -0.1663 -0.6141  0.1559
  976MOL0     C28725   3.976  11.189   7.236 -0.0815  0.2017  1.0364
  976MOL0     C28726   3.924  11.143   7.362 -0.2367 -0.8482  0.1841
  976MOL0     C28727   3.797  11.188   7.405  0.8060  0.2310 -0.3924
  976MOL0     C28728   3.734  11.292   7.339 -0.0488  0.4345 -0.2355
  976MOL0     C28729   3.608  11.359   7.391 -1.5232 -0.4560 -0.2561
  976MOL0     O28730   3.559  11.466   7.318 -0.1390 -0.6419 -0.1493
  976MOL0     C28731   3.438  11.507   7.359 -0.0123 -0.2986  0.3693
  976MOL0     C28732   3.419  11.586   7.472 -0.7352 -0.0421 -0.3650
  976MOL0     C28733   3.290  11.632   7.508 -0.2027  0.4689 -0.7379
  976MOL0     C28734   3.175  11.599   7.433  0.2702  0.4545  0.4496
  976MOL0     O28735   3.054  11.653   7.476  0.5263 -0.3521 -0.0326
  976MOL0     C28736   2.939  11.613   7.395  0.0929  0.7058 -0.7726
  976MOL0     C28737   2.810  11.688   7.444 -0.7965 -0.3112  0.3590
  976MOL0     C28738   2.831  11.836   7.406 -0.3907 -0.5069 -0.0259
  976MOL0     C28739   2.700  11.911   7.427  0.1352  0.0801  0.1785
  976MOL0     C28740   2.717  12.057   7.395  0.6966 -0.3340  0.2793
  976MOL0     C28741   2.593  12.141   7.433 -0.3925 -0.1594  0.8326
  976MOL0     C28742   2.582  12.169   7.581 -0.2963 -0.1768 -0.4537
  976MOL0     C28743   2.440  12.215   7.611 -0.4048  0.1847  0.6591
  976MOL0    Cl28744   2.423  12.393   7.583  0.0153  0.2272  0.3007
  976MOL0     C28745   3.195  11.508   7.326  0.4615  0.2609  0.1671
  976MOL0     C28746   3.324  11.470   7.288  1.2557 -0.1535  0.0506
  976MOL0     O28747   3.558  11.308   7.493 -1.1791 -0.2981  0.6218
  976MOL0     C28748   3.797  11.342   7.224 -0.2175  0.1069 -0.1100
  976MOL0     C28749   3.902  11.279   7.164 -0.2318 -0.6261 -0.2918
  976MOL0     N28750   4.645  10.891   7.480 -0.8608  0.1399  0.1314
  976MOL0     N28751   4.760  10.856   7.524 -0.2762  0.8627 -0.0286
  976MOL0     C28752   6.085  10.508   7.359 -0.8588  0.0286 -0.1770
  976MOL0     C28753   6.190  10.449   7.282 -0.0130 -0.0107 -1.0138
  976MOL0     C28754   6.524  10.345   7.049  0.1596  0.0819 -0.8321
  976MOL0     C28755   6.487  10.270   6.933  0.3899  0.5160 -0.4914
  976MOL0     C28756   6.585  10.196   6.876  0.6474 -0.1572 -1.0767
  976MOL0     C28757   6.722  10.204   6.915  0.7654  0.6855 -0.1329
  976MOL0     O28758   6.827  10.144   6.836 -0.6806  0.3695  0.1071
  976MOL0     C28759   6.797  10.064   6.711  0.4248 -0.3033  0.1684
  976MOL0     C28760   6.923   9.993   6.667 -0.2688  0.3877  0.5123
  976MOL0     C28761   7.014  10.064   6.572  0.0060 -1.0532 -0.0434
  976MOL0     C28762   7.124   9.978   6.517 -0.5318  1.1455  0.3096
  976MOL0     C28763   7.222   9.943   6.621  1.1519 -0.1286 -0.6708
  976MOL0     C28764   7.285   9.910   6.721  0.4862  0.1129 -0.0381
  976MOL0     C28765   6.755  10.286   7.020  0.0666 -0.0741  0.3882
  976MOL0     C28766   6.654  10.355   7.086  0.8488 -0.1334 -0.7812
  976MOL0     H28767   6.074  10.528   6.974 -1.9798  0.2820 -0.0801
  976MOL0     H28768   5.896  10.616   7.098 -0.0565 -0.1678 -0.6157
  976MOL0     H28769   5.704  10.570   7.306 -1.5880  1.6166 -1.4046
  976MOL0     H28770   5.753  10.723   7.258  0.2146  2.9969  2.9720
  976MOL0     H28771   5.729  10.827   7.468 -0.0906 -1.0701  0.4623
  976MOL0     H28772   5.691  10.669   7.546  0.0943  0.0851  0.8702
  976MOL0     H28773   5.486  10.642   7.397  0.6088 -0.4478  2.8113
  976MOL0     H28774   5.526  10.795   7.327  0.1682  0.6156  1.1088
  976MOL0     H28775   5.474  10.732   7.624  0.2476 -0.3889 -0.8819
  976MOL0     H28776   5.483  10.900   7.550  4.8321 -0.7264 -0.8229
  976MOL0     H28777   5.250  10.762   7.602  2.0027 -3.3296  0.9951
  976MOL0     H28778   5.282  10.685   7.459 -1.5466 -0.0161  2.8427
  976MOL0     H28779   5.307  10.895   7.342 -0.1725  0.6830  0.0240
  976MOL0     H28780   5.257  10.994   7.471  1.4233 -0.4115  2.3067
  976MOL0     H28781   5.081  10.930   7.303 -0.9040  0.0951 -0.7214
  976MOL0     H28782   5.076  10.764   7.378 -0.3090  0.5811  0.5895
  976MOL0     H28783   5.026  11.033   7.524 -4.3257  1.1715 -0.2735
  976MOL0     H28784   5.016  10.869   7.591 -0.9971 -0.2159  0.4260
  976MOL0     H28785   4.829  11.094   7.301 -0.4932 -2.0904 -1.2192
  976MOL0     H28786   4.594  11.028   7.190 -2.7356 -1.4763 -0.4411
  976MOL0     H28787   4.569  11.157   7.309  0.2148 -0.5085  0.2683
  976MOL0     H28788   4.399  11.049   7.425 -0.3604  2.6116 -1.1348
  976MOL0     H28789   4.419  10.899   7.314  0.9869 -0.0895  1.7819
  976MOL0     H28790   4.358  11.172   7.209  0.5310 -0.2787  1.4973
  976MOL0     H28791   4.327  11.026   7.132  3.8009 -0.3760 -0.8083
  976MOL0     H28792   4.185  11.137   7.376  1.0131  3.2773 -1.8484
  976MOL0     H28793   4.153  10.975   7.300  4.3695 -1.3265  1.0185
  976MOL0     H28794   3.985  11.068   7.410  1.3154  0.6818  0.7307
  976MOL0     H28795   3.752  11.152   7.497  2.0168  2.5453  1.2098
  976MOL0     H28796   3.513  11.625   7.509  0.2178  0.6524 -3.2331
  976MOL0     H28797   3.272  11.698   7.592  0.3315  0.4522 -0.6073
  976MOL0     H28798   2.931  11.506   7.414  2.4918  0.6217  0.1481
  976MOL0     H28799   2.950  11.623   7.287 -1.8680 -0.4021 -1.1090
  976MOL0     H28800   2.799  11.697   7.552  4.4671  0.6100  1.0838
  976MOL0     H28801   2.727  11.647   7.386  0.2991  1.2014 -2.4590
  976MOL0     H28802   2.871  11.849   7.305  2.5181 -0.0542  1.0718
  976MOL0     H28803   2.914  11.875   7.465  0.4258  0.5640 -1.7911
  976MOL0     H28804   2.636  11.867   7.350  0.8869 -1.0614  0.1902
  976MOL0     H28805   2.665  11.888   7.528  4.5258 -2.0087  1.4554
  976MOL0     H28806   2.751  12.067   7.291  3.8149 -0.2392  1.2271
  976MOL0     H28807   2.803  12.095   7.451  1.3484 -0.1489 -0.8067
  976MOL0     H28808   2.501  12.102   7.388 -0.0997 -1.4405  1.2973
  976MOL0     H28809   2.619  12.234   7.381  3.2911 -1.6327 -0.2500
  976MOL0     H28810   2.598  12.070   7.625 -0.7313 -0.8558 -1.7927
  976MOL0     H28811   2.662  12.236   7.614 -0.6857  0.4343 -0.7456
  976MOL0     H28812   2.407  12.184   7.710  0.1793 -4.1989 -0.3204
  976MOL0     H28813   2.365  12.160   7.553 -1.1289  1.4360  0.3802
  976MOL0     H28814   3.105  11.471   7.279 -0.4128  0.8517  1.3119
  976MOL0     H28815   3.341  11.413   7.197  0.0602  2.1006 -1.6954
  976MOL0     H28816   3.763  11.423   7.160  0.4272 -1.1787 -2.2108
  976MOL0     H28817   3.936  11.317   7.068 -1.3858  1.8632  0.2027
  976MOL0     H28818   6.091  10.485   7.465 -0.7361 -1.8971 -0.5759
  976MOL0     H28819   6.265  10.392   7.337  0.3287  1.1990 -0.2065
  976MOL0     H28820   6.389  10.257   6.887 -0.8069  2.6300  1.2811
  976MOL0     H28821   6.556  10.138   6.789 -0.2925 -1.3148 -0.0397
  976MOL0     H28822   6.765  10.129   6.629  1.4121  2.9029  2.1267
  976MOL0     H28823   6.739   9.975   6.737  0.3762  0.5246  3.2942
  976MOL0     H28824   6.973   9.974   6.763 -0.9222 -0.3659  0.7100
  976MOL0     H28825   6.898   9.902   6.611  0.1232 -0.9003  2.3299
  976MOL0     H28826   7.049  10.155   6.620 -0.2015 -0.8623 -0.2501
  976MOL0     H28827   6.953  10.094   6.486 -0.0539  0.6575  0.5692
  976MOL0     H28828   7.079   9.889   6.472 -1.4427  1.6525  0.1985
  976MOL0     H28829   7.177  10.027   6.435 -0.0368 -0.2309 -0.2228
  976MOL0     H28830   7.352   9.877   6.797  0.3975  1.7232  0.7815
  976MOL0     H28831   6.858  10.312   7.043  0.6071 -0.9040 -0.9721
  976MOL0     H28832   6.687  10.410   7.174  0.5585  1.3784 -1.5749
  977MOL0     O28833   0.794   7.491   1.046 -0.3283  0.4587  0.6069
  977MOL0     C28834   0.691   7.512   1.103  0.5995  0.0016  0.0943
  977MOL0     O28835   0.666   7.608   1.199 -0.5930 -0.3289 -0.2267
  977MOL0     C28836   0.771   7.666   1.258 -0.0980  0.1268 -0.6558
  977MOL0     C28837   0.795   7.802   1.240 -0.6069 -0.1618  0.8170
  977MOL0     C28838   0.903   7.861   1.310 -0.0972 -0.8583  0.4985
  977MOL0     C28839   1.011   7.792   1.366 -0.0031 -0.0804  0.2688
  977MOL0     O28840   1.110   7.867   1.419  0.0009  0.2597 -0.4065
  977MOL0     C28841   1.199   7.796   1.512  0.3243  0.2019  0.2859
  977MOL0     C28842   1.304   7.896   1.549 -0.0711  0.4996 -0.5261
  977MOL0     C28843   1.233   8.001   1.634  0.0708 -0.3930  0.5010
  977MOL0     C28844   1.316   8.122   1.671  0.2170  0.3662 -0.1530
  977MOL0     C28845   1.439   8.094   1.749  0.4681  1.0814  0.4185
  977MOL0     C28846   1.497   8.218   1.813  0.9393  0.0532 -0.3389
  977MOL0     C28847   1.617   8.171   1.891 -0.8211 -0.4489 -0.1719
  977MOL0     C28848   1.708   8.294   1.918 -0.1268 -0.3077  0.1712
  977MOL0     N28849   1.810   8.261   2.016  0.2753  0.1110  1.3096
  977MOL0     C28850   1.940   8.248   1.971  0.9878 -0.2189  0.7727
  977MOL0     C28851   2.003   8.207   2.083  0.0449  0.6436  0.5517
  977MOL0     C28852   2.139   8.156   2.077 -0.4033  0.3535 -0.4988
  977MOL0     C28853   2.159   8.014   2.025  0.1431 -0.6982 -0.2455
  977MOL0     C28854   2.050   7.922   2.062 -0.5396  0.5981 -0.7321
  977MOL0     C28855   2.080   7.775   2.022 -0.2480 -0.2005  0.2708
  977MOL0     O28856   1.980   7.689   2.078 -0.1696 -0.4028  0.1656
  977MOL0     C28857   1.856   7.686   2.020 -0.7876  0.1148 -0.3396
  977MOL0     C28858   1.827   7.575   1.953  0.2621 -0.6815 -0.6699
  977MOL0     C28859   1.700   7.566   1.897 -0.6437  0.9563 -0.0699
  977MOL0     C28860   1.595   7.659   1.922 -0.1790 -0.0094  0.5270
  977MOL0     C28861   1.456   7.651   1.876  0.1117  0.3319 -0.4068
  977MOL0     O28862   1.433   7.538   1.809  0.2838 -0.1940  0.2503
  977MOL0     C28863   1.300   7.507   1.768 -0.5476 -0.0559 -0.7063
  977MOL0     C28864   1.174   7.540   1.820 -0.0682 -0.6161 -0.2448
  977MOL0     C28865   1.052   7.484   1.771  0.0021 -0.0346  0.1233
  977MOL0     C28866   1.060   7.393   1.664  1.0330 -0.4037  0.2679
  977MOL0     O28867   0.945   7.322   1.626 -0.3460  0.1696  0.8316
  977MOL0     C28868   0.817   7.380   1.637  0.3963  0.1102 -0.1077
  977MOL0     C28869   0.709   7.288   1.598  0.1656  0.9294  0.6431
  977MOL0     C28870   0.572   7.352   1.605  0.7890  0.2595  0.0146
  977MOL0     C28871   0.461   7.252   1.554 -0.7981 -1.0647 -0.2141
  977MOL0     C28872   0.327   7.329   1.565  0.4568  0.7480  0.0175
  977MOL0     C28873   0.209   7.229   1.545  0.1276 -0.4124  0.1146
  977MOL0     C28874   0.064   7.283   1.522  0.5579 -0.2968 -0.1060
  977MOL0     C28875   0.010   7.346   1.646  0.1313  0.3409  0.2416
  977MOL0    Cl28876  -0.159   7.388   1.641 -0.1525 -0.6717 -0.0464
  977MOL0     C28877   1.184   7.358   1.617  0.1400  0.8696  0.5649
  977MOL0     C28878   1.306   7.412   1.662  0.2918 -0.7567 -0.5611
  977MOL0     O28879   1.381   7.744   1.881 -0.3738 -0.7502 -0.3951
  977MOL0     C28880   1.628   7.776   1.999 -0.2987  0.3048  0.2449
  977MOL0     C28881   1.761   7.781   2.050 -0.4309 -0.7354 -0.0401
  977MOL0     N28882   1.909   8.193   2.186  0.1578 -0.2008  0.1044
  977MOL0     N28883   1.793   8.224   2.144 -0.1386 -0.1280  0.5400
  977MOL0     C28884   0.987   7.653   1.374  0.4330 -0.0160  0.2289
  977MOL0     C28885   0.871   7.594   1.322 -0.8763 -0.0666  0.0646
  977MOL0     C28886   0.566   7.428   1.073 -0.0879 -0.1687 -0.9321
  977MOL0     C28887   0.532   7.364   0.954  0.6818 -0.4903  0.2452
  977MOL0     C28888   0.411   7.281   0.950  0.1447  0.2644 -0.3715
  977MOL0     C28889   0.323   7.275   1.056  0.5485  0.2399  0.1972
  977MOL0     O28890   0.210   7.197   1.038  0.3487 -0.0172  0.4071
  977MOL0     C28891   0.098   7.276   0.999  0.3841 -0.2437 -0.3164
  977MOL0     C28892   0.011   7.320   1.112 -0.3167  0.3362 -0.0780
  977MOL0     C28893  -0.019   7.211   1.219  0.6068 -0.4651 -0.0715
  977MOL0     C28894  -0.061   7.081   1.146  0.0215 -0.0222 -0.5946
  977MOL0     C28895  -0.138   7.006   1.243  0.1846  0.7362  0.9747
  977MOL0     C28896  -0.222   6.952   1.319  0.2547 -0.1892 -0.6955
  977MOL0     C28897   0.358   7.337   1.172 -0.7180  0.3362  0.1163
  977MOL0     C28898   0.478   7.412   1.180 -0.0971 -0.0658 -0.2813
  977MOL0     H28899   0.726   7.864   1.184 -1.4928 -0.2309  1.8139
  977MOL0     H28900   0.909   7.969   1.294  4.4578 -1.2805 -2.7332
  977MOL0     H28901   1.244   7.705   1.471  0.2325  0.5048 -0.5009
  977MOL0     H28902   1.141   7.757   1.596 -0.5084  0.9566  0.0727
  977MOL0     H28903   1.352   7.937   1.460 -1.0553  3.5398  0.2278
  977MOL0     H28904   1.385   7.841   1.599  0.1231 -0.0599 -1.4394
  977MOL0     H28905   1.198   7.954   1.726 -0.5497 -1.5938 -0.3188
  977MOL0     H28906   1.150   8.049   1.582  1.0888  1.0367  0.1119
  977MOL0     H28907   1.343   8.174   1.579 -0.9768 -1.4914 -1.6034
  977MOL0     H28908   1.252   8.191   1.728 -0.4603 -2.4272  2.7671
  977MOL0     H28909   1.503   8.041   1.678 -1.1485  1.8560 -1.7092
  977MOL0     H28910   1.420   8.027   1.833 -0.6809 -0.2700 -0.8607
  977MOL0     H28911   1.424   8.265   1.880  0.7803  0.5431 -0.8511
  977MOL0     H28912   1.530   8.285   1.733  0.0688  0.8581 -0.0421
  977MOL0     H28913   1.586   8.121   1.983  1.6226 -4.3219 -1.2286
  977MOL0     H28914   1.669   8.094   1.833 -1.3117 -0.0276 -1.2070
  977MOL0     H28915   1.652   8.372   1.969 -0.9737 -2.0763  2.0713
  977MOL0     H28916   1.761   8.328   1.828 -0.6770  2.7961  0.8992
  977MOL0     H28917   1.988   8.283   1.880  2.3797 -2.0599  0.7282
  977MOL0     H28918   2.169   8.170   2.181 -2.2450  1.4035 -0.0647
  977MOL0     H28919   2.198   8.224   2.014  2.7133 -2.4233 -0.8265
  977MOL0     H28920   2.253   7.961   2.043  0.7406 -0.2333 -1.7676
  977MOL0     H28921   2.158   8.039   1.918  1.5009  2.7642  0.4232
  977MOL0     H28922   2.044   7.912   2.170  2.2639  0.5090 -0.5121
  977MOL0     H28923   1.953   7.957   2.025 -0.8557 -0.7698 -1.3011
  977MOL0     H28924   2.184   7.751   2.044  0.2787  3.3453  2.4618
  977MOL0     H28925   2.071   7.761   1.914 -3.4019 -0.6328  0.4840
  977MOL0     H28926   1.899   7.497   1.929 -0.2323 -1.5420  0.5193
  977MOL0     H28927   1.690   7.485   1.826 -0.3712  0.4029  0.5195
  977MOL0     H28928   1.169   7.608   1.904 -1.7115 -0.8719 -0.1113
  977MOL0     H28929   0.953   7.512   1.807  0.7158  0.3257  1.8972
  977MOL0     H28930   0.820   7.470   1.575  0.2029  1.1957  1.4171
  977MOL0     H28931   0.793   7.393   1.742 -1.4959 -1.6839 -0.2552
  977MOL0     H28932   0.709   7.192   1.650  1.6854 -0.6412 -2.0463
  977MOL0     H28933   0.719   7.261   1.493  1.4152 -1.0260  1.2035
  977MOL0     H28934   0.574   7.441   1.542  0.8052 -0.7524 -1.4584
  977MOL0     H28935   0.542   7.391   1.703 -0.2635  2.0618 -0.9742
  977MOL0     H28936   0.471   7.218   1.451 -0.7204 -0.2371 -0.4826
  977MOL0     H28937   0.450   7.170   1.625 -2.3085  0.4464  1.4024
  977MOL0     H28938   0.303   7.414   1.501 -2.9948 -0.1191 -0.0466
  977MOL0     H28939   0.323   7.366   1.668  0.7868 -0.6587  0.5602
  977MOL0     H28940   0.207   7.161   1.631 -3.9206 -2.0468 -1.0261
  977MOL0     H28941   0.237   7.179   1.451  0.5879  0.2922 -0.1327
  977MOL0     H28942   0.055   7.359   1.444 -1.2932  1.9231  2.0654
  977MOL0     H28943   0.016   7.192   1.485  1.3617 -0.3845 -0.9551
  977MOL0     H28944   0.077   7.429   1.673  0.2235  0.3857 -0.1314
  977MOL0     H28945   0.025   7.269   1.722 -2.0385  0.5033  0.9038
  977MOL0     H28946   1.187   7.278   1.544 -1.9489  0.9430  0.3403
  977MOL0     H28947   1.404   7.380   1.629  1.6919  0.8275  1.7495
  977MOL0     H28948   1.547   7.840   2.031 -0.1946  0.5663 -0.0041
  977MOL0     H28949   1.781   7.871   2.108  0.0433 -0.6454 -0.3352
  977MOL0     H28950   1.065   7.592   1.418  2.0820  1.2613 -0.8126
  977MOL0     H28951   0.864   7.486   1.328  1.2088 -0.1980  1.3438
  977MOL0     H28952   0.588   7.392   0.866  1.5662  0.4240  1.0714
  977MOL0     H28953   0.388   7.226   0.859 -0.8989  1.9359 -1.1600
  977MOL0     H28954   0.043   7.210   0.931  0.6111 -0.9971  0.2214
  977MOL0     H28955   0.126   7.369   0.948 -0.3043  0.5125  0.6598
  977MOL0     H28956   0.066   7.398   1.165  1.5228 -2.0499  1.7215
  977MOL0     H28957  -0.081   7.352   1.062  1.1076 -0.9065 -3.7955
  977MOL0     H28958  -0.095   7.253   1.287  0.2023 -0.9612 -0.2072
  977MOL0     H28959   0.075   7.194   1.272  0.2679  2.1438  1.5611
  977MOL0     H28960  -0.129   7.104   1.063  1.0490 -1.1005 -1.7757
  977MOL0     H28961   0.022   7.024   1.103  0.0704  1.4227 -2.5069
  977MOL0     H28962  -0.294   6.900   1.379  0.6868 -1.5984 -1.3764
  977MOL0     H28963   0.292   7.352   1.258  1.7078  1.8913  1.8415
  977MOL0     H28964   0.496   7.462   1.274 -2.5216 -0.0732  0.2342
  978MOL0     O28965   2.924  10.238  10.523  0.7474 -0.8366  0.5121
  978MOL0     C28966   2.927  10.252  10.645  0.9086 -0.1094 -0.1217
  978MOL0     O28967   2.815  10.282  10.727  0.2024 -0.1058  0.4071
  978MOL0     C28968   2.689  10.313  10.665  0.4580  0.1905 -0.4833
  978MOL0     C28969   2.683  10.430  10.584  0.1831  0.1259  1.0409
  978MOL0     C28970   2.554  10.465  10.533  0.2850  0.6272 -0.2885
  978MOL0     C28971   2.431  10.399  10.561 -0.5097  0.3564  0.1604
  978MOL0     O28972   2.310  10.447  10.517  0.4549 -1.0908 -0.0190
  978MOL0     C28973   2.307  10.580  10.471 -0.2749  0.6612  0.2198
  978MOL0     C28974   2.161  10.627  10.433  0.0773 -0.1882  0.1954
  978MOL0     C28975   2.120  10.555  10.309 -0.3520 -0.7175 -0.3838
  978MOL0     C28976   2.004  10.627  10.247 -0.7209 -0.2318 -0.2997
  978MOL0     C28977   1.954  10.568  10.112  0.6069 -0.2376 -0.0824
  978MOL0     C28978   1.831  10.633  10.061  0.1121  0.2062 -0.0072
  978MOL0     C28979   1.845  10.778  10.007 -0.2685  0.1292  0.0117
  978MOL0     C28980   1.706  10.821   9.970  0.3840  0.1503  0.6653
  978MOL0     N28981   1.623  10.874  10.078  0.5419 -0.4147 -0.1005
  978MOL0     C28982   1.640  10.989  10.141 -0.6144 -1.1161 -0.2324
  978MOL0     C28983   1.531  11.003  10.229  1.0104 -0.2880 -0.1909
  978MOL0     C28984   1.524  11.119  10.325  0.1234  0.3331 -0.3551
  978MOL0     C28985   1.435  11.240  10.290  0.5611  0.7613 -0.3668
  978MOL0     C28986   1.403  11.317  10.418 -0.7806 -0.4344 -0.1506
  978MOL0     C28987   1.317  11.434  10.395 -0.3246 -0.3992 -0.2889
  978MOL0     O28988   1.323  11.502  10.519  0.5446  0.6320  0.6724
  978MOL0     C28989   1.213  11.492  10.587 -0.7183  0.5937  0.5767
  978MOL0     C28990   1.232  11.437  10.714  0.1761  0.3504  0.1429
  978MOL0     C28991   1.120  11.424  10.798 -0.3285 -0.3414  0.4573
  978MOL0     C28992   0.992  11.463  10.758 -0.2308 -0.3015 -0.6929
  978MOL0     C28993   0.871  11.434  10.838 -0.0549  0.9299 -0.0808
  978MOL0     O28994   0.745  11.442  10.773  0.5456 -0.0181 -0.4763
  978MOL0     C28995   0.643  11.407  10.854 -0.0310  0.4037  0.6012
  978MOL0     C28996   0.566  11.502  10.912  0.1670 -0.2708  0.3795
  978MOL0     C28997   0.449  11.469  10.984 -0.1682  0.3803 -1.1266
  978MOL0     C28998   0.416  11.329  10.998  0.5315 -0.3714  0.0528
  978MOL0     O28999   0.322  11.286  11.085  0.1095  0.0772 -0.6905
  978MOL0     C29000   0.219  11.374  11.141 -0.1178 -0.2678  0.4549
  978MOL0     C29001   0.112  11.290  11.213 -0.0449 -0.4728 -0.8783
  978MOL0     C29002   0.006  11.374  11.276  0.2910 -0.0007  0.1449
  978MOL0     C29003  -0.112  11.414  11.183  0.4509 -0.2108  0.1595
  978MOL0     C29004  -0.222  11.492  11.250 -0.4827  0.1737 -0.3457
  978MOL0     C29005  -0.265  11.408  11.373  0.2922  0.0209  0.7628
  978MOL0     C29006  -0.392  11.479  11.425 -0.1310  0.0638 -0.3896
  978MOL0     C29007  -0.491  11.376  11.489 -0.0626 -0.3735 -0.3156
  978MOL0    Cl29008  -0.646  11.448  11.530  0.2090 -0.0521  0.6520
  978MOL0     C29009   0.508  11.235  10.951 -0.1406 -0.9141  0.5429
  978MOL0     C29010   0.618  11.275  10.875  0.8594  0.7399 -0.2993
  978MOL0     O29011   0.885  11.387  10.952 -0.2692  0.9566 -0.7140
  978MOL0     C29012   0.985  11.535  10.640 -0.2183 -0.3433  0.0197
  978MOL0     C29013   1.093  11.549  10.552  0.5317 -0.1098  0.4582
  978MOL0     N29014   1.441  10.896  10.205 -0.2352 -0.0491 -0.8442
  978MOL0     N29015   1.498  10.821  10.108  0.2837 -0.0368  0.2617
  978MOL0     C29016   2.440  10.284  10.645  0.7270 -0.3265  0.5535
  978MOL0     C29017   2.567  10.242  10.691  0.0091  0.5090 -0.0125
  978MOL0     C29018   3.053  10.230  10.714  0.4266  0.3988 -0.1788
  978MOL0     C29019   3.160  10.177  10.640 -0.3437  0.2335  0.1607
  978MOL0     C29020   3.291  10.176  10.689  0.3197  0.1508  0.5985
  978MOL0     C29021   3.320  10.232  10.817  0.4208 -0.9056  0.5820
  978MOL0     O29022   3.451  10.237  10.863  0.5234  0.7989  0.7771
  978MOL0     C29023   3.545  10.138  10.825 -1.0760  0.5519 -0.2720
  978MOL0     C29024   3.560  10.039  10.941 -0.4167  0.2350  0.5851
  978MOL0     C29025   3.635   9.914  10.889 -0.4238 -0.8747  0.5571
  978MOL0     C29026   3.778   9.945  10.838  0.3904  0.1965 -0.3456
  978MOL0     C29027   3.855  10.021  10.931 -1.1527  1.3563  0.4943
  978MOL0     C29028   3.920  10.089  11.004  0.2176 -0.4138  0.5220
  978MOL0     C29029   3.210  10.282  10.892  0.8882  0.0416 -0.0299
  978MOL0     C29030   3.078  10.272  10.847 -0.1366 -0.1835 -0.5755
  978MOL0     H29031   2.765  10.500  10.577  2.2955 -2.3332 -0.1634
  978MOL0     H29032   2.554  10.562  10.483  2.5214  0.4540 -0.7287
  978MOL0     H29033   2.368  10.585  10.381 -1.0740 -1.8570 -0.5316
  978MOL0     H29034   2.345  10.634  10.559  2.9001  0.1484 -0.6965
  978MOL0     H29035   2.154  10.736  10.426 -0.1265 -0.1578  0.7947
  978MOL0     H29036   2.092  10.599  10.514  1.4987 -0.4938  1.3548
  978MOL0     H29037   2.101  10.449  10.326  0.6225 -0.8577 -0.0699
  978MOL0     H29038   2.198  10.561  10.233 -1.1477 -1.2932 -1.2585
  978MOL0     H29039   1.923  10.639  10.320  0.7798  2.2840  1.0950
  978MOL0     H29040   2.036  10.731  10.232  2.5706 -1.1570 -0.5047
  978MOL0     H29041   1.936  10.462  10.132  1.3597 -0.4698 -0.5725
  978MOL0     H29042   2.030  10.584  10.034  1.2422  1.2659  0.7915
  978MOL0     H29043   1.757  10.641  10.141 -0.6744  3.2544 -0.9090
  978MOL0     H29044   1.803  10.563   9.982  5.1167 -4.1036  1.5062
  978MOL0     H29045   1.891  10.850  10.076  0.2349 -1.0249  0.9299
  978MOL0     H29046   1.903  10.771   9.915  1.1390 -0.2079  0.9048
  978MOL0     H29047   1.660  10.732   9.925 -1.1333 -0.3536  3.0144
  978MOL0     H29048   1.706  10.901   9.895 -2.4836 -0.8172 -0.4908
  978MOL0     H29049   1.713  11.065  10.115 -2.4689  0.4401 -1.0595
  978MOL0     H29050   1.622  11.154  10.355 -1.0782  2.6418  1.1665
  978MOL0     H29051   1.485  11.075  10.417  0.5456  1.8906  0.6163
  978MOL0     H29052   1.345  11.206  10.238  1.5154  0.8799 -2.1709
  978MOL0     H29053   1.481  11.307  10.217 -0.4665  2.3249  0.3565
  978MOL0     H29054   1.360  11.250  10.493 -2.4129  0.5779 -0.1608
  978MOL0     H29055   1.498  11.354  10.458 -0.5153  0.5023 -1.5827
  978MOL0     H29056   1.218  11.401  10.360 -0.6720  2.2628 -2.0851
  978MOL0     H29057   1.360  11.496  10.316  1.4550  0.4686  1.3037
  978MOL0     H29058   1.330  11.411  10.754  0.7419 -0.9294 -1.9329
  978MOL0     H29059   1.138  11.366  10.888  0.0058 -1.6714 -0.4385
  978MOL0     H29060   0.592  11.607  10.900  0.1766 -0.6115 -5.2173
  978MOL0     H29061   0.382  11.546  11.019  0.4724  1.3091 -1.8972
  978MOL0     H29062   0.162  11.423  11.061 -1.9510  0.7285  2.2610
  978MOL0     H29063   0.263  11.439  11.217  0.6876 -0.9708  0.6028
  978MOL0     H29064   0.159  11.244  11.301 -2.2077 -1.9452 -0.4300
  978MOL0     H29065   0.058  11.207  11.168 -1.2616 -0.0859 -0.1632
  978MOL0     H29066   0.051  11.470  11.301 -0.9584 -0.1979  3.6642
  978MOL0     H29067  -0.025  11.327  11.370 -0.1744  2.0720  1.0833
  978MOL0     H29068  -0.071  11.472  11.100 -1.6734  1.5139  0.2373
  978MOL0     H29069  -0.155  11.320  11.147 -1.5278  1.0940 -1.0800
  978MOL0     H29070  -0.305  11.513  11.183 -0.0685 -1.3918 -1.4336
  978MOL0     H29071  -0.176  11.587  11.279  3.0233 -1.4948  0.1425
  978MOL0     H29072  -0.185  11.416  11.447  1.1099  1.2123 -0.1960
  978MOL0     H29073  -0.274  11.302  11.347 -0.8954  0.0875  0.8618
  978MOL0     H29074  -0.355  11.536  11.511  2.2082 -0.3062 -1.0728
  978MOL0     H29075  -0.440  11.544  11.352 -1.3566  0.8502  1.0552
  978MOL0     H29076  -0.446  11.350  11.586 -3.5238  1.4610  2.0102
  978MOL0     H29077  -0.501  11.279  11.440 -0.6519 -0.6759  0.3702
  978MOL0     H29078   0.474  11.134  10.973 -0.7653 -0.8182  0.0697
  978MOL0     H29079   0.690  11.198  10.848  2.3936  1.2994  1.9401
  978MOL0     H29080   0.888  11.565  10.603 -0.0949 -2.9685 -2.8870
  978MOL0     H29081   1.089  11.605  10.459  1.0534  1.5057  1.3785
  978MOL0     H29082   2.353  10.225  10.672  1.7522 -0.7922  3.0947
  978MOL0     H29083   2.571  10.154  10.754 -1.1315  0.8580  0.5704
  978MOL0     H29084   3.149  10.133  10.541  0.8837  1.1814 -0.4187
  978MOL0     H29085   3.365  10.132  10.623  1.1806  2.2345  0.0862
  978MOL0     H29086   3.646  10.179  10.819  1.2075 -3.8091  2.9650
  978MOL0     H29087   3.524  10.082  10.733  3.2959 -1.1377 -0.4478
  978MOL0     H29088   3.610  10.079  11.030 -0.2355  0.7286  0.2616
  978MOL0     H29089   3.457  10.023  10.976 -1.1810  0.9096 -1.2406
  978MOL0     H29090   3.583   9.878  10.800  2.0381 -1.4343 -0.7793
  978MOL0     H29091   3.628   9.834  10.963 -0.4876 -2.4768 -1.1078
  978MOL0     H29092   3.833   9.854  10.812 -1.4568 -1.0898  0.0396
  978MOL0     H29093   3.774   9.996  10.742 -3.4485  1.1936  0.1845
  978MOL0     H29094   3.979  10.153  11.066  2.1891  0.1412 -1.7985
  978MOL0     H29095   3.233  10.326  10.988  3.9809 -1.4281 -0.0017
  978MOL0     H29096   3.000  10.314  10.910 -0.2526  0.5632 -1.2018
  979MOL0     O29097   2.035   7.599   4.574 -0.2945  0.5833 -0.4632
  979MOL0     C29098   2.053   7.621   4.458 -0.0379  0.5504  0.2582
  979MOL0     O29099   1.951   7.635   4.362  0.9207 -0.0641 -0.4051
  979MOL0     C29100   1.817   7.616   4.387  0.4104  0.4812  0.7611
  979MOL0     C29101   1.756   7.540   4.478 -0.4479  0.1763 -0.0239
  979MOL0     C29102   1.611   7.533   4.480 -0.2344  1.1153  0.2889
  979MOL0     C29103   1.533   7.596   4.389  0.2015 -0.5343 -0.4903
  979MOL0     O29104   1.389   7.591   4.393 -0.4448  0.0672  0.5411
  979MOL0     C29105   1.328   7.533   4.507 -0.0231  0.3463 -0.1986
  979MOL0     C29106   1.179   7.568   4.489 -0.6981  1.1865  0.6830
  979MOL0     C29107   1.139   7.715   4.520  0.5529  0.2773  0.6343
  979MOL0     C29108   0.993   7.756   4.501  0.8920  0.3171 -0.0576
  979MOL0     C29109   0.927   7.703   4.381 -1.2979  0.3583  0.0467
  979MOL0     C29110   0.779   7.740   4.386  0.0133 -0.9374 -0.0011
  979MOL0     C29111   0.730   7.702   4.243  0.2639 -0.0610 -0.5235
  979MOL0     C29112   0.574   7.699   4.234 -0.1507  0.4053  0.8287
  979MOL0     N29113   0.527   7.833   4.228  0.0040 -0.4652  0.3036
  979MOL0     C29114   0.480   7.907   4.118 -0.3073  0.4505 -0.1130
  979MOL0     C29115   0.430   8.016   4.170  1.0472  0.1249  0.2355
  979MOL0     C29116   0.364   8.126   4.089 -0.6918 -0.0373  0.2286
  979MOL0     C29117   0.220   8.117   4.095  0.5967 -0.2226 -0.8435
  979MOL0     C29118   0.166   7.998   4.010 -0.0446 -1.0423 -0.2842
  979MOL0     C29119   0.012   8.014   3.993 -0.3167 -0.5043 -0.3814
  979MOL0     O29120  -0.047   7.925   3.896  0.0114  0.0084 -0.0345
  979MOL0     C29121  -0.185   7.923   3.889 -0.2525 -0.9759 -0.2005
  979MOL0     C29122  -0.279   7.988   3.971 -0.3812 -0.2051  0.5616
  979MOL0     C29123  -0.414   7.976   3.953  0.6670  0.3056  1.0218
  979MOL0     C29124  -0.464   7.891   3.853  0.2815 -0.1824 -0.4344
  979MOL0     C29125  -0.615   7.875   3.830 -0.3229 -1.0554 -0.0936
  979MOL0     O29126  -0.663   7.750   3.800  0.3617  0.3092  0.1078
  979MOL0     C29127  -0.798   7.732   3.799  0.0381 -0.1668  1.0655
  979MOL0     C29128  -0.865   7.662   3.901 -0.6421  1.0141 -0.1168
  979MOL0     C29129  -1.004   7.634   3.888  0.2223 -0.4498  0.5240
  979MOL0     C29130  -1.070   7.677   3.769  0.4927 -0.5126 -0.2310
  979MOL0     O29131  -1.204   7.646   3.753 -0.5694  0.3657  0.5358
  979MOL0     C29132  -1.282   7.700   3.645  0.3426 -0.5718 -0.2055
  979MOL0     C29133  -1.432   7.655   3.657  0.2151  0.8758  0.7607
  979MOL0     C29134  -1.522   7.729   3.556  0.1386 -0.0422  0.6489
  979MOL0     C29135  -1.668   7.706   3.575  0.8967  0.8023 -0.5951
  979MOL0     C29136  -1.767   7.798   3.493  1.1882  0.0435  1.0697
  979MOL0     C29137  -1.913   7.775   3.534 -0.3020  0.3772 -0.2411
  979MOL0     C29138  -2.014   7.840   3.448  0.2509  1.1740  0.4317
  979MOL0     C29139  -2.158   7.811   3.489 -0.1462 -0.4777  0.0877
  979MOL0    Cl29140  -2.196   7.639   3.501  0.0533  0.2866 -0.3186
  979MOL0     C29141  -1.003   7.763   3.678  0.3666 -0.3581  0.8827
  979MOL0     C29142  -0.869   7.788   3.696  0.1251  0.5761  0.0681
  979MOL0     O29143  -0.678   7.982   3.822 -0.6861 -0.1174 -0.4213
  979MOL0     C29144  -0.365   7.813   3.783  0.0575  0.1088 -0.6453
  979MOL0     C29145  -0.232   7.829   3.796 -0.1766 -0.2615 -0.8516
  979MOL0     N29146   0.445   8.028   4.304 -0.8053  0.3542  0.7214
  979MOL0     N29147   0.495   7.910   4.332 -0.1180  0.3251  0.7389
  979MOL0     C29148   1.600   7.673   4.295  0.1431  0.1634 -0.4444
  979MOL0     C29149   1.744   7.680   4.291  0.0666  0.0145  0.1174
  979MOL0     C29150   2.184   7.660   4.409 -0.4787 -0.5239  0.2290
  979MOL0     C29151   2.300   7.647   4.492 -0.6056  0.5162  0.5686
  979MOL0     C29152   2.432   7.653   4.434 -0.0280 -1.1510  0.0984
  979MOL0     C29153   2.441   7.675   4.298 -0.9948 -0.3519 -0.9291
  979MOL0     O29154   2.563   7.684   4.241  0.1555 -0.0695  0.1241
  979MOL0     C29155   2.578   7.679   4.095  0.2321  0.2539 -0.1982
  979MOL0     C29156   2.727   7.661   4.060  0.8035  0.7794  0.0801
  979MOL0     C29157   2.821   7.782   4.115  0.6415  0.5170 -0.0419
  979MOL0     C29158   2.944   7.776   4.045 -0.8861  0.4778  0.0263
  979MOL0     C29159   3.019   7.893   4.086 -0.2321 -0.6670 -0.6690
  979MOL0     C29160   3.083   7.988   4.112 -0.4126  1.2261  0.0263
  979MOL0     C29161   2.334   7.682   4.217  0.9429 -0.4273  0.2831
  979MOL0     C29162   2.205   7.676   4.271 -1.1199 -0.6781 -0.4236
  979MOL0     H29163   1.815   7.484   4.551 -0.1288 -0.6649 -0.9116
  979MOL0     H29164   1.567   7.475   4.561  0.8001  1.7070  1.2939
  979MOL0     H29165   1.369   7.561   4.604 -0.1091 -1.9830  0.5666
  979MOL0     H29166   1.343   7.425   4.497  1.3231  0.5665 -0.7152
  979MOL0     H29167   1.119   7.500   4.552 -1.1612 -0.9646 -1.8842
  979MOL0     H29168   1.152   7.541   4.386 -0.2426  0.5350  0.7266
  979MOL0     H29169   1.201   7.784   4.463  0.0277 -0.6380 -1.1415
  979MOL0     H29170   1.151   7.723   4.628 -2.9574  0.4288  1.1409
  979MOL0     H29171   0.941   7.726   4.592  2.0518 -4.6598 -0.7436
  979MOL0     H29172   0.987   7.864   4.487 -1.9666  0.2306 -0.0089
  979MOL0     H29173   0.926   7.594   4.374 -0.2850  0.4647 -2.7769
  979MOL0     H29174   0.987   7.740   4.298 -1.3731 -1.1161 -0.6976
  979MOL0     H29175   0.754   7.844   4.408 -2.6879 -1.5360  0.0692
  979MOL0     H29176   0.737   7.687   4.472  1.2243 -0.1546  1.1086
  979MOL0     H29177   0.778   7.759   4.163  1.8455 -2.0002 -1.0497
  979MOL0     H29178   0.759   7.597   4.233  0.7929 -0.0614  0.8422
  979MOL0     H29179   0.529   7.648   4.320 -0.5216 -2.6085 -0.9838
  979MOL0     H29180   0.545   7.643   4.145  1.3884  0.3235  0.3544
  979MOL0     H29181   0.474   7.874   4.014  0.1506  1.5476 -0.5042
  979MOL0     H29182   0.397   8.127   3.985 -2.6392  0.5958 -0.4214
  979MOL0     H29183   0.398   8.219   4.135  2.4261 -1.2180  0.6174
  979MOL0     H29184   0.182   8.217   4.071  0.8546 -0.6796 -3.4740
  979MOL0     H29185   0.194   8.106   4.201 -0.0071 -1.4615 -1.1037
  979MOL0     H29186   0.213   8.018   3.914 -2.2537  2.4215 -0.8261
  979MOL0     H29187   0.188   7.898   4.049  0.7046 -1.4871 -1.7903
  979MOL0     H29188  -0.013   8.120   3.979 -2.4335 -0.9830 -0.6508
  979MOL0     H29189  -0.039   7.993   4.087 -2.7268  0.5983 -1.3458
  979MOL0     H29190  -0.252   8.054   4.053  0.8028 -0.8245  0.6963
  979MOL0     H29191  -0.486   8.027   4.016 -0.7728  0.2958 -0.5402
  979MOL0     H29192  -0.810   7.624   3.987  0.8686  1.7919 -0.7060
  979MOL0     H29193  -1.067   7.590   3.965 -0.6398  0.2522  0.2402
  979MOL0     H29194  -1.244   7.675   3.546  0.3492  0.9757 -0.6256
  979MOL0     H29195  -1.275   7.809   3.655 -0.7190  0.0033 -3.8750
  979MOL0     H29196  -1.473   7.664   3.758 -1.0282 -0.3269  0.3949
  979MOL0     H29197  -1.434   7.548   3.635  0.0493  0.5024  2.4687
  979MOL0     H29198  -1.494   7.694   3.456 -2.3270 -0.3408 -0.0059
  979MOL0     H29199  -1.496   7.834   3.566 -0.9255  0.3560 -0.4223
  979MOL0     H29200  -1.678   7.599   3.554  0.3129  0.1255  2.5347
  979MOL0     H29201  -1.704   7.720   3.678 -1.2757 -0.1019 -1.1796
  979MOL0     H29202  -1.746   7.778   3.388 -1.4040  0.5918  0.3542
  979MOL0     H29203  -1.746   7.904   3.509  0.3217 -0.0316  2.9756
  979MOL0     H29204  -1.932   7.815   3.634 -3.0437  0.3381 -0.6739
  979MOL0     H29205  -1.928   7.667   3.532 -0.4554  0.3973 -1.8732
  979MOL0     H29206  -1.990   7.947   3.449  1.4646  1.0348 -2.6649
  979MOL0     H29207  -2.006   7.809   3.344 -0.6887  1.8940  0.1309
  979MOL0     H29208  -2.214   7.845   3.401 -1.3811 -2.2855  0.1166
  979MOL0     H29209  -2.195   7.859   3.580  3.0035  1.2025  0.6387
  979MOL0     H29210  -1.048   7.809   3.591 -1.7120 -1.6225  1.2217
  979MOL0     H29211  -0.818   7.846   3.620 -0.2572  0.9603  0.0987
  979MOL0     H29212  -0.399   7.743   3.707 -0.5160 -1.5069  1.0413
  979MOL0     H29213  -0.168   7.766   3.734  2.8914 -0.2726  2.0067
  979MOL0     H29214   1.542   7.741   4.234 -2.5621 -2.0641 -0.5130
  979MOL0     H29215   1.800   7.744   4.224  1.2997 -1.9657 -0.8387
  979MOL0     H29216   2.292   7.616   4.595  1.4135 -0.3028  0.5266
  979MOL0     H29217   2.516   7.639   4.501 -0.7414 -0.5233  1.1675
  979MOL0     H29218   2.538   7.768   4.045  0.6211  1.5053  1.6259
  979MOL0     H29219   2.520   7.590   4.069  1.2754 -0.8333  1.0660
  979MOL0     H29220   2.758   7.567   4.106 -0.0041 -0.4417 -1.7659
  979MOL0     H29221   2.726   7.650   3.951 -2.0583  0.6518  0.0198
  979MOL0     H29222   2.833   7.760   4.222 -1.8360  0.2725  0.2449
  979MOL0     H29223   2.779   7.881   4.094 -1.3863 -0.4592 -0.8206
  979MOL0     H29224   2.995   7.691   4.091 -2.4504 -1.4737 -1.6460
  979MOL0     H29225   2.925   7.759   3.939  0.5286  1.8829 -0.4867
  979MOL0     H29226   3.149   8.069   4.137  3.0638 -2.2317  3.7015
  979MOL0     H29227   2.325   7.692   4.109 -2.6722  0.7106  0.5730
  979MOL0     H29228   2.120   7.672   4.204 -2.2057 -0.2833  0.8773
  980MOL0     O29229   2.736   4.400   3.813  0.0732  0.8008  0.4831
  980MOL0     C29230   2.754   4.471   3.713 -0.3753 -0.5579 -0.3088
  980MOL0     O29231   2.667   4.560   3.654  0.4505 -0.0083  0.2579
  980MOL0     C29232   2.540   4.565   3.711 -0.5816 -0.6448 -0.2385
  980MOL0     C29233   2.438   4.492   3.660 -0.6148  0.7668  0.1616
  980MOL0     C29234   2.305   4.486   3.716 -1.1724  0.3741  0.0461
  980MOL0     C29235   2.276   4.576   3.816 -0.0945 -0.4543  0.1925
  980MOL0     O29236   2.156   4.585   3.877 -0.0179 -0.0842 -0.4150
  980MOL0     C29237   2.077   4.674   3.794 -0.0812  0.2145  0.3710
  980MOL0     C29238   1.934   4.659   3.842 -0.2765  0.3048 -0.6324
  980MOL0     C29239   1.920   4.706   3.981  0.2789 -0.2621 -0.9685
  980MOL0     C29240   1.772   4.703   4.020 -0.1332 -0.1494  0.5397
  980MOL0     C29241   1.753   4.724   4.167 -0.1221 -0.0180  0.1275
  980MOL0     C29242   1.610   4.727   4.221 -0.2046  0.3599  0.0648
  980MOL0     C29243   1.617   4.746   4.371  0.6038  0.0925 -0.3061
  980MOL0     C29244   1.482   4.710   4.441 -0.6383 -0.3261 -0.4620
  980MOL0     N29245   1.403   4.834   4.437  0.0699  0.0544  0.0364
  980MOL0     C29246   1.320   4.880   4.342 -0.7188  0.1851  0.0703
  980MOL0     C29247   1.283   5.009   4.377  0.6337  0.0554  0.1987
  980MOL0     C29248   1.175   5.081   4.297  0.0063 -0.0519 -0.0585
  980MOL0     C29249   1.034   5.040   4.357 -0.2906  0.2189 -0.0754
  980MOL0     C29250   0.982   5.151   4.444  0.2513  0.3500 -0.8993
  980MOL0     C29251   0.839   5.145   4.497  0.0287  0.9364 -0.5504
  980MOL0     O29252   0.802   5.285   4.535 -0.3422 -0.3321 -0.1792
  980MOL0     C29253   0.687   5.301   4.605  1.0503  0.5148  0.1065
  980MOL0     C29254   0.576   5.221   4.599  0.6140 -0.4043  0.2206
  980MOL0     C29255   0.456   5.254   4.664 -0.7586  0.4476 -0.6182
  980MOL0     C29256   0.441   5.375   4.738  0.0503  0.1071  0.2923
  980MOL0     C29257   0.315   5.418   4.811 -0.1951 -0.2488 -0.9256
  980MOL0     O29258   0.210   5.330   4.811 -0.4587 -0.3304  0.1608
  980MOL0     C29259   0.108   5.358   4.892  0.3233 -0.2632 -0.4991
  980MOL0     C29260  -0.001   5.430   4.848 -0.3565 -0.1518 -0.0796
  980MOL0     C29261  -0.111   5.458   4.930 -1.4040  0.1118 -0.0514
  980MOL0     C29262  -0.107   5.410   5.062 -0.1788  0.2392  0.8655
  980MOL0     O29263  -0.205   5.459   5.140 -0.2619 -0.2128 -0.7954
  980MOL0     C29264  -0.216   5.415   5.286 -0.3074  0.4714  0.5487
  980MOL0     C29265  -0.359   5.444   5.326 -0.2280  0.0606 -0.1752
  980MOL0     C29266  -0.371   5.597   5.324 -0.0375  0.1929 -0.7277
  980MOL0     C29267  -0.518   5.622   5.367 -0.2293  0.9197  0.4419
  980MOL0     C29268  -0.538   5.771   5.379  0.4498  0.6883  0.2189
  980MOL0     C29269  -0.677   5.796   5.335  0.1718 -0.4971  0.2849
  980MOL0     C29270  -0.711   5.945   5.371 -0.0756 -0.8601 -0.3587
  980MOL0     C29271  -0.864   5.953   5.376 -0.1909 -0.5733 -0.5315
  980MOL0    Cl29272  -0.918   6.128   5.377 -0.0582 -0.0380  0.1878
  980MOL0     C29273   0.001   5.338   5.105 -0.3463 -0.0218 -0.8302
  980MOL0     C29274   0.098   5.301   5.019 -0.1796 -0.0300 -0.2825
  980MOL0     O29275   0.313   5.531   4.863  0.4549  1.3510 -0.0333
  980MOL0     C29276   0.565   5.456   4.753  0.1278 -0.1867  1.1973
  980MOL0     C29277   0.691   5.418   4.685  0.8152 -0.0866 -0.5285
  980MOL0     N29278   1.341   5.033   4.500 -0.0047 -0.2432 -0.2372
  980MOL0     N29279   1.419   4.935   4.531  0.5733 -0.4765 -0.5941
  980MOL0     C29280   2.390   4.643   3.873  0.3810  0.2199 -0.6464
  980MOL0     C29281   2.523   4.636   3.826 -0.7209 -0.6256 -0.1362
  980MOL0     C29282   2.896   4.489   3.665  0.4092  0.2018  0.2066
  980MOL0     C29283   3.002   4.437   3.734 -0.5705  0.1546 -0.4093
  980MOL0     C29284   3.141   4.456   3.686 -0.4986  0.0118  0.4498
  980MOL0     C29285   3.162   4.529   3.573 -0.8078 -0.2090 -0.1453
  980MOL0     O29286   3.284   4.553   3.514 -0.6131 -0.9599  0.8425
  980MOL0     C29287   3.413   4.529   3.580  0.6325 -0.0004  0.2120
  980MOL0     C29288   3.504   4.477   3.469  0.2129 -0.1150  0.5595
  980MOL0     C29289   3.645   4.437   3.529  0.7513 -1.0046 -0.4777
  980MOL0     C29290   3.707   4.525   3.634  0.5144 -0.3343 -0.2188
  980MOL0     C29291   3.840   4.478   3.685  0.1836 -0.3984  1.4996
  980MOL0     C29292   3.949   4.433   3.724  0.1601  0.2681  0.8686
  980MOL0     C29293   3.055   4.571   3.495 -0.3317  0.5433  0.1204
  980MOL0     C29294   2.926   4.562   3.546  0.3128 -0.0009  0.3837
  980MOL0     H29295   2.462   4.428   3.575 -0.7020 -1.3796  1.6636
  980MOL0     H29296   2.235   4.415   3.673 -1.2413 -1.3366  2.7587
  980MOL0     H29297   2.089   4.646   3.689 -2.8256 -0.5594  0.1742
  980MOL0     H29298   2.106   4.780   3.800 -4.5380  1.6348  0.3396
  980MOL0     H29299   1.902   4.554   3.836 -0.7794  0.2526  1.8452
  980MOL0     H29300   1.869   4.723   3.783  0.8614  2.6874  0.5754
  980MOL0     H29301   1.963   4.806   3.993 -1.6000  0.3007  2.8125
  980MOL0     H29302   1.975   4.645   4.054 -1.8714  0.2171  1.1884
  980MOL0     H29303   1.727   4.785   3.964  3.3317  0.1985 -2.0595
  980MOL0     H29304   1.729   4.612   3.977  0.7039 -0.4668  0.3532
  980MOL0     H29305   1.800   4.814   4.207  2.8294 -1.6049  0.5521
  980MOL0     H29306   1.811   4.644   4.215  0.7683 -0.3607 -1.4340
  980MOL0     H29307   1.554   4.636   4.199  0.1278 -0.5899  2.8130
  980MOL0     H29308   1.555   4.815   4.186  1.6669  0.8048 -2.0017
  980MOL0     H29309   1.702   4.686   4.403  3.7270  2.8950 -2.6281
  980MOL0     H29310   1.636   4.852   4.390 -0.2584 -0.0256  1.3431
  980MOL0     H29311   1.507   4.684   4.544  0.5798  2.5310  0.0666
  980MOL0     H29312   1.432   4.625   4.393  0.8974 -3.8169  3.5138
  980MOL0     H29313   1.291   4.825   4.253  0.5721  1.1127 -0.9747
  980MOL0     H29314   1.176   5.048   4.193 -2.3549  0.2097 -0.2082
  980MOL0     H29315   1.198   5.187   4.301 -0.8320  0.1622  3.9988
  980MOL0     H29316   1.043   4.948   4.416  0.7494  0.9316  0.9017
  980MOL0     H29317   0.971   5.034   4.267  1.3967  0.3750 -1.3155
  980MOL0     H29318   1.056   5.167   4.523 -0.7541 -1.4132  0.4875
  980MOL0     H29319   0.978   5.233   4.373  2.5119 -0.6613 -2.3124
  980MOL0     H29320   0.831   5.076   4.581  2.0095  1.0964 -0.1741
  980MOL0     H29321   0.768   5.108   4.422  0.2132 -0.8835  0.1171
  980MOL0     H29322   0.588   5.132   4.537 -1.1885  0.6791 -1.8607
  980MOL0     H29323   0.367   5.191   4.658 -3.0447  3.4752 -1.1027
  980MOL0     H29324   0.001   5.484   4.754 -2.0620  0.6932  0.3237
  980MOL0     H29325  -0.188   5.527   4.895 -1.4063 -0.2757 -0.8310
  980MOL0     H29326  -0.155   5.472   5.357 -3.3166  5.1917 -0.1914
  980MOL0     H29327  -0.179   5.312   5.282  1.1891  0.9948 -2.8777
  980MOL0     H29328  -0.381   5.397   5.422  0.0424  0.4483  0.0807
  980MOL0     H29329  -0.422   5.400   5.248  1.0645 -1.0036 -0.6535
  980MOL0     H29330  -0.343   5.635   5.225  0.8263  2.7655  0.4304
  980MOL0     H29331  -0.303   5.632   5.401  0.6915 -1.1151 -0.7500
  980MOL0     H29332  -0.587   5.578   5.294  0.6570 -1.6362  1.0244
  980MOL0     H29333  -0.541   5.580   5.465  2.7030  1.0685  1.2865
  980MOL0     H29334  -0.461   5.826   5.325  2.5200 -2.3135 -0.1493
  980MOL0     H29335  -0.527   5.802   5.484  3.5666  1.5820 -0.2703
  980MOL0     H29336  -0.752   5.730   5.381 -2.3370  1.9064 -0.0843
  980MOL0     H29337  -0.690   5.787   5.227 -2.1701  0.6703  0.3975
  980MOL0     H29338  -0.669   5.969   5.469  0.3947  1.1280 -0.9982
  980MOL0     H29339  -0.663   6.018   5.305  1.3847 -0.9149  0.5928
  980MOL0     H29340  -0.908   5.914   5.469 -3.0142  4.3894  0.5606
  980MOL0     H29341  -0.899   5.895   5.290 -0.5976 -1.0891 -0.0331
  980MOL0     H29342   0.001   5.299   5.207 -1.9428  0.8939 -0.4416
  980MOL0     H29343   0.184   5.239   5.043 -0.1354 -0.9166 -2.5209
  980MOL0     H29344   0.565   5.542   4.819 -2.5302 -1.7720  3.4894
  980MOL0     H29345   0.784   5.473   4.684  1.2836 -0.8489 -1.9878
  980MOL0     H29346   2.375   4.697   3.966  1.3804  0.8722 -0.8459
  980MOL0     H29347   2.605   4.690   3.870  1.8779 -2.1771 -2.7126
  980MOL0     H29348   2.987   4.388   3.830  0.8539  0.6845  0.1227
  980MOL0     H29349   3.225   4.426   3.748 -0.3918 -0.0702  0.2656
  980MOL0     H29350   3.416   4.460   3.664 -2.0028 -1.1991 -0.5434
  980MOL0     H29351   3.447   4.629   3.609  0.1524  0.3468 -0.3808
  980MOL0     H29352   3.460   4.388   3.423 -3.7290  1.1586  1.4956
  980MOL0     H29353   3.508   4.554   3.390  2.9237 -0.9138 -0.1732
  980MOL0     H29354   3.715   4.443   3.444  2.2196 -0.4294  0.7248
  980MOL0     H29355   3.645   4.335   3.566 -1.6515 -1.3466 -1.2539
  980MOL0     H29356   3.727   4.629   3.607  4.2073 -0.3008  1.9223
  980MOL0     H29357   3.645   4.528   3.724 -0.2753 -3.2285 -0.5687
  980MOL0     H29358   4.048   4.416   3.762  0.3230 -0.3445  0.1929
  980MOL0     H29359   3.085   4.633   3.411  0.9368  1.0356  0.9021
  980MOL0     H29360   2.847   4.609   3.488 -0.0818 -3.0423 -1.7980
  981MOL0     O29361  10.293   6.997   4.776 -0.3848  0.1933 -0.1190
  981MOL0     C29362  10.211   7.049   4.855 -0.2669  0.1167 -0.4018
  981MOL0     O29363  10.197   7.177   4.877  0.7130 -0.2922  0.5353
  981MOL0     C29364  10.277   7.258   4.794  0.3359 -0.0956 -0.0773
  981MOL0     C29365  10.239   7.294   4.658 -0.5598 -0.1301  0.6129
  981MOL0     C29366  10.308   7.389   4.582 -0.5748 -0.1117 -0.1869
  981MOL0     C29367  10.427   7.438   4.631  0.4637  0.2911  0.0248
  981MOL0     O29368  10.497   7.521   4.550 -0.9889 -0.3899  0.5930
  981MOL0     C29369  10.642   7.529   4.544  0.1321  0.4543 -0.6254
  981MOL0     C29370  10.678   7.578   4.407 -0.1705 -0.1589  0.8396
  981MOL0     C29371  10.820   7.526   4.367  0.9642 -0.3405  0.0043
  981MOL0     C29372  10.937   7.581   4.455  0.1676  0.6700 -0.8172
  981MOL0     C29373  11.062   7.528   4.385 -0.4082  0.1205 -0.1785
  981MOL0     C29374  11.099   7.377   4.384  1.2367 -0.1941  1.5389
  981MOL0     C29375  11.236   7.367   4.313 -0.5113  0.5685  0.1022
  981MOL0     C29376  11.357   7.425   4.403 -0.2767  0.1463 -0.1387
  981MOL0     N29377  11.477   7.347   4.353 -0.2915  0.0205  0.4823
  981MOL0     C29378  11.492   7.212   4.360 -0.2645 -0.2376  0.6101
  981MOL0     C29379  11.613   7.190   4.306 -0.4360  1.0564 -0.5766
  981MOL0     C29380  11.682   7.066   4.275  0.8344  0.3000 -0.5381
  981MOL0     C29381  11.785   7.020   4.367 -0.2722  0.0665 -0.9260
  981MOL0     C29382  11.741   7.001   4.508 -0.3376  0.0252 -0.3794
  981MOL0     C29383  11.640   6.880   4.530  0.3911  0.1522  0.4739
  981MOL0     O29384  11.507   6.928   4.522  0.1827  0.4964 -0.8012
  981MOL0     C29385  11.404   6.833   4.527 -0.1160 -0.0413  0.3904
  981MOL0     C29386  11.407   6.705   4.582 -0.8067 -0.4656 -0.5804
  981MOL0     C29387  11.291   6.633   4.602 -0.1297 -0.7230 -0.1244
  981MOL0     C29388  11.166   6.681   4.554 -0.1364  0.2551 -0.2237
  981MOL0     C29389  11.034   6.601   4.556 -0.0003  0.0926  0.3251
  981MOL0     O29390  11.043   6.471   4.588 -0.5567 -0.3730 -0.4440
  981MOL0     C29391  10.927   6.409   4.633 -0.2051 -0.0209  0.4775
  981MOL0     C29392  10.859   6.456   4.741 -1.2810 -1.0513 -0.5127
  981MOL0     C29393  10.738   6.399   4.785  0.5856  0.4431  0.0923
  981MOL0     C29394  10.685   6.285   4.719  0.1126 -0.9013 -0.8224
  981MOL0     O29395  10.580   6.207   4.768 -0.4630 -0.0579 -0.3326
  981MOL0     C29396  10.500   6.256   4.875  0.1245 -0.3060  0.6017
  981MOL0     C29397  10.390   6.156   4.876 -0.0165  0.3983  0.6555
  981MOL0     C29398  10.276   6.185   4.975 -0.1492 -0.2472  0.6636
  981MOL0     C29399  10.187   6.299   4.931 -0.1100 -0.0436  0.1702
  981MOL0     C29400  10.084   6.311   5.041 -0.3022  0.4609 -0.2601
  981MOL0     C29401   9.952   6.364   4.991  0.6980 -0.4918  0.5592
  981MOL0     C29402   9.866   6.270   4.905  0.6406 -0.2435 -0.6340
  981MOL0     C29403   9.718   6.312   4.901  0.4716  0.4567 -0.2517
  981MOL0    Cl29404   9.710   6.466   4.813 -0.4677 -0.3617 -0.1529
  981MOL0     C29405  10.747   6.243   4.606 -1.1490 -0.1630 -0.9157
  981MOL0     C29406  10.866   6.308   4.559  0.0293  0.3151  0.6713
  981MOL0     O29407  10.929   6.662   4.536  0.7228  0.2760 -0.5548
  981MOL0     C29408  11.163   6.808   4.492 -0.3253 -0.0639  0.6284
  981MOL0     C29409  11.279   6.881   4.480 -1.0535 -0.3930 -0.0033
  981MOL0     N29410  11.671   7.315   4.267 -0.6803  1.2271  0.4440
  981MOL0     N29411  11.586   7.402   4.295 -0.2140  0.2188 -0.1765
  981MOL0     C29412  10.472   7.389   4.761 -0.0483 -1.4024  0.9321
  981MOL0     C29413  10.403   7.298   4.841  0.4722  0.4741 -0.1858
  981MOL0     C29414  10.137   6.961   4.942  0.3097  0.0905 -0.4478
  981MOL0     C29415  10.035   7.005   5.031 -0.1165 -0.1247  0.7998
  981MOL0     C29416   9.951   6.914   5.101  0.7570 -0.5703  0.4013
  981MOL0     C29417   9.968   6.779   5.079 -1.2804 -0.2743  0.0022
  981MOL0     O29418   9.898   6.677   5.146 -0.2616  0.5631 -0.1065
  981MOL0     C29419   9.808   6.715   5.247 -0.8180 -0.4817  0.7158
  981MOL0     C29420   9.746   6.583   5.301  0.4376 -0.6777 -0.2680
  981MOL0     C29421   9.851   6.510   5.384 -0.8585  0.2464  0.0118
  981MOL0     C29422   9.808   6.369   5.422 -0.3197  0.6944 -0.5285
  981MOL0     C29423   9.705   6.359   5.522  0.2775 -0.0595  0.2020
  981MOL0     C29424   9.609   6.357   5.598  1.1287  0.5995 -0.6482
  981MOL0     C29425  10.068   6.741   4.993  1.0527  0.0579  0.7560
  981MOL0     C29426  10.150   6.824   4.926 -0.2642 -0.2493 -0.1631
  981MOL0     H29427  10.153   7.243   4.615  0.9154 -3.1897  1.0164
  981MOL0     H29428  10.270   7.422   4.486 -0.7209 -0.9941 -0.4391
  981MOL0     H29429  10.684   7.429   4.561 -0.3697  0.5237  1.2913
  981MOL0     H29430  10.691   7.591   4.619  2.0291 -1.8731  0.1815
  981MOL0     H29431  10.680   7.687   4.402 -1.4340 -0.1722 -0.9239
  981MOL0     H29432  10.605   7.541   4.335 -0.9879  2.6850  0.1072
  981MOL0     H29433  10.840   7.557   4.264  0.4957 -0.3732 -0.0993
  981MOL0     H29434  10.816   7.417   4.361  0.5988 -0.3765  0.7301
  981MOL0     H29435  10.917   7.688   4.462 -2.6769  0.1892 -0.4023
  981MOL0     H29436  10.923   7.547   4.558  1.3410  1.5966 -0.3296
  981MOL0     H29437  11.142   7.592   4.421 -0.1187  0.9544 -2.1359
  981MOL0     H29438  11.049   7.559   4.280 -1.5257  0.7496  0.1303
  981MOL0     H29439  11.028   7.321   4.322  1.2167  0.9212  0.5120
  981MOL0     H29440  11.089   7.335   4.484  0.8430 -1.5016  0.9785
  981MOL0     H29441  11.252   7.259   4.305  0.2659  0.5972  1.0345
  981MOL0     H29442  11.227   7.408   4.212 -3.3643  1.7156  0.7288
  981MOL0     H29443  11.344   7.403   4.509 -1.3390  1.9630  0.1426
  981MOL0     H29444  11.370   7.533   4.396  2.6074 -0.1183  0.2114
  981MOL0     H29445  11.419   7.147   4.408 -1.4206  0.8656  0.3797
  981MOL0     H29446  11.726   7.072   4.175 -0.2977  2.8335 -0.9659
  981MOL0     H29447  11.614   6.979   4.273 -0.6563  1.3935  0.5504
  981MOL0     H29448  11.854   7.105   4.373 -2.8349  2.3780 -1.6993
  981MOL0     H29449  11.828   6.930   4.321 -0.5542 -0.2485 -0.5764
  981MOL0     H29450  11.828   6.982   4.570 -1.4171 -3.5296  0.2630
  981MOL0     H29451  11.694   7.088   4.555 -0.3546 -1.5716  2.8546
  981MOL0     H29452  11.659   6.830   4.625 -0.4824 -0.8844  0.1338
  981MOL0     H29453  11.651   6.803   4.453  0.1653 -0.4825  1.0729
  981MOL0     H29454  11.500   6.659   4.615 -0.5648  0.6131  0.2999
  981MOL0     H29455  11.293   6.530   4.639 -1.4987 -1.0924 -1.0073
  981MOL0     H29456  10.886   6.543   4.800 -3.5652 -0.4927 -0.2141
  981MOL0     H29457  10.708   6.428   4.886 -0.7759 -1.5483  0.3401
  981MOL0     H29458  10.452   6.353   4.858 -3.9402 -2.0804  0.6664
  981MOL0     H29459  10.561   6.268   4.966  0.6455 -3.6637  0.8097
  981MOL0     H29460  10.427   6.055   4.900  1.5531  1.0030  0.9253
  981MOL0     H29461  10.352   6.157   4.773 -3.4371  1.0223  1.8086
  981MOL0     H29462  10.319   6.203   5.073  0.9535  1.4225 -0.0833
  981MOL0     H29463  10.215   6.095   4.984 -0.4723 -0.1029  0.0202
  981MOL0     H29464  10.251   6.386   4.918  2.3771 -1.8957 -0.7944
  981MOL0     H29465  10.142   6.279   4.833  1.4965 -1.3573 -0.3444
  981MOL0     H29466  10.124   6.368   5.125 -0.4715  0.2540 -0.0400
  981MOL0     H29467  10.058   6.208   5.066 -1.0848  0.3781 -1.3294
  981MOL0     H29468   9.959   6.459   4.939  0.1860  1.1456  3.2713
  981MOL0     H29469   9.903   6.396   5.083  0.1319 -4.0781  1.6731
  981MOL0     H29470   9.902   6.276   4.802  1.3073  2.7798 -0.3117
  981MOL0     H29471   9.863   6.168   4.945  0.2644  0.3352  0.8903
  981MOL0     H29472   9.677   6.323   5.002  0.7671  0.5747 -0.1436
  981MOL0     H29473   9.659   6.238   4.847  0.0109 -0.3177  1.2545
  981MOL0     H29474  10.697   6.164   4.550 -0.5999 -1.5050  0.3908
  981MOL0     H29475  10.920   6.269   4.473  2.8111 -1.0164  2.8247
  981MOL0     H29476  11.068   6.853   4.467  0.1309  0.6889  0.2254
  981MOL0     H29477  11.272   6.981   4.438 -1.1920  0.0849  1.1136
  981MOL0     H29478  10.564   7.424   4.807  0.9727 -1.9681 -0.5614
  981MOL0     H29479  10.451   7.264   4.932 -1.9247 -0.2248  0.8849
  981MOL0     H29480  10.006   7.109   5.026 -2.6792 -0.7421  1.2022
  981MOL0     H29481   9.872   6.956   5.162  0.6355  2.0593 -1.4251
  981MOL0     H29482   9.734   6.776   5.194 -1.2403 -2.4379 -1.0469
  981MOL0     H29483   9.870   6.776   5.313 -0.1444 -0.3815  0.0066
  981MOL0     H29484   9.663   6.616   5.364  1.7871  1.2267  0.6430
  981MOL0     H29485   9.701   6.529   5.218  1.0942 -0.7297 -0.5961
  981MOL0     H29486   9.882   6.576   5.465  2.1347  0.0941 -0.9014
  981MOL0     H29487   9.936   6.494   5.317 -0.3667 -1.6301  1.0091
  981MOL0     H29488   9.772   6.322   5.330 -0.8776 -0.5894  0.3135
  981MOL0     H29489   9.889   6.298   5.446 -2.2038 -0.5255  2.9341
  981MOL0     H29490   9.526   6.345   5.665  0.5523  0.6114 -1.3558
  981MOL0     H29491  10.096   6.638   4.973 -2.0331 -0.8947  0.7890
  981MOL0     H29492  10.237   6.780   4.878  0.3643  0.2881  0.4634
  982MOL0     O29493   6.993   6.982   1.798 -0.1640 -0.4214 -0.1547
  982MOL0     C29494   7.060   6.893   1.749 -0.1775 -0.2703 -0.0703
  982MOL0     O29495   7.010   6.798   1.668  0.9209  0.4818  0.0600
  982MOL0     C29496   6.875   6.793   1.645  0.4219 -0.1530 -1.0371
  982MOL0     C29497   6.805   6.713   1.737  0.2299  0.7376 -0.0691
  982MOL0     C29498   6.664   6.705   1.714  0.1814 -0.4103 -0.1488
  982MOL0     C29499   6.592   6.786   1.621 -0.4899  0.5531 -0.1211
  982MOL0     O29500   6.457   6.777   1.595  0.5479  0.5587  0.1072
  982MOL0     C29501   6.371   6.737   1.704  0.2389  1.0442  0.0707
  982MOL0     C29502   6.231   6.786   1.682  0.6603  0.4470  0.2827
  982MOL0     C29503   6.150   6.758   1.804 -0.0856 -0.0337 -0.9119
  982MOL0     C29504   6.001   6.742   1.760  0.5887  0.4200 -0.3539
  982MOL0     C29505   5.906   6.728   1.879 -0.2828 -0.6261 -0.3740
  982MOL0     C29506   5.763   6.693   1.833 -0.0471 -0.1308  0.5450
  982MOL0     C29507   5.668   6.706   1.957 -0.6244  0.4767 -1.1066
  982MOL0     C29508   5.520   6.734   1.937 -0.2514 -0.3461 -0.2724
  982MOL0     N29509   5.438   6.615   1.892 -0.2516  0.2722 -0.1945
  982MOL0     C29510   5.418   6.582   1.758 -1.2686  0.4084  0.9199
  982MOL0     C29511   5.364   6.457   1.757  0.4900 -0.2661 -0.6259
  982MOL0     C29512   5.315   6.394   1.632  0.4529 -0.2887 -0.2099
  982MOL0     C29513   5.168   6.358   1.629 -0.2304 -0.5686 -0.1316
  982MOL0     C29514   5.078   6.473   1.685 -0.8570 -0.2205  0.3000
  982MOL0     C29515   4.930   6.456   1.655 -0.3866 -0.4550  0.4033
  982MOL0     O29516   4.892   6.322   1.693  1.1336 -0.0178  0.8244
  982MOL0     C29517   4.768   6.279   1.658  0.2788  0.5188  0.0028
  982MOL0     C29518   4.658   6.363   1.622  0.5649  0.1430  0.1972
  982MOL0     C29519   4.536   6.306   1.581  0.3816  0.5378  0.1419
  982MOL0     C29520   4.514   6.171   1.570  0.8639  0.9524 -0.2434
  982MOL0     C29521   4.382   6.113   1.527  0.9725  0.3699 -0.0907
  982MOL0     O29522   4.345   5.999   1.588 -0.7131  0.1145 -0.4901
  982MOL0     C29523   4.227   5.945   1.560  0.2145  0.1294  0.6682
  982MOL0     C29524   4.207   5.859   1.445  0.2682  0.1525  0.7491
  982MOL0     C29525   4.089   5.789   1.424 -0.7473 -0.1916  0.1595
  982MOL0     C29526   3.988   5.802   1.518 -0.1601  0.1070  0.5005
  982MOL0     O29527   3.881   5.724   1.492  0.2916 -0.0284  0.2515
  982MOL0     C29528   3.774   5.797   1.437 -0.2117  0.4789 -0.6174
  982MOL0     C29529   3.708   5.709   1.322 -0.1110  0.0147  0.2894
  982MOL0     C29530   3.599   5.776   1.245 -0.4318 -1.1799  0.5582
  982MOL0     C29531   3.523   5.679   1.158  0.1486  0.0523  0.2610
  982MOL0     C29532   3.379   5.713   1.126  0.1900 -0.8707 -0.3966
  982MOL0     C29533   3.308   5.592   1.062 -0.1925  0.6830 -0.2695
  982MOL0     C29534   3.161   5.607   1.064 -0.0206  0.7124 -0.3879
  982MOL0     C29535   3.099   5.610   1.199 -0.4735 -0.3939  0.5189
  982MOL0    Cl29536   2.944   5.547   1.201  0.2951 -0.2225  0.2273
  982MOL0     C29537   3.997   5.893   1.616 -0.1293 -0.7402 -0.1250
  982MOL0     C29538   4.115   5.964   1.642  0.3399  0.1737 -0.6287
  982MOL0     O29539   4.320   6.171   1.438 -0.5722  0.9370  0.1160
  982MOL0     C29540   4.617   6.092   1.612 -0.1900  0.3390 -0.1008
  982MOL0     C29541   4.741   6.140   1.650  0.2937 -0.4974  0.2225
  982MOL0     N29542   5.347   6.413   1.892  0.0512 -0.4816 -0.5003
  982MOL0     N29543   5.397   6.514   1.966  0.1239  0.2021  0.4033
  982MOL0     C29544   6.676   6.865   1.545  0.3685  0.1437  0.2973
  982MOL0     C29545   6.812   6.862   1.553 -0.1191  0.3235  0.1118
  982MOL0     C29546   7.201   6.900   1.789  0.7750  0.2167 -0.6362
  982MOL0     C29547   7.249   7.010   1.857 -0.7282  0.5912 -0.1225
  982MOL0     C29548   7.387   7.017   1.898  0.3336 -0.2823 -0.4444
  982MOL0     C29549   7.479   6.918   1.851  0.2758  0.1068 -0.1895
  982MOL0     O29550   7.610   6.936   1.896  0.0963  0.1446  0.4896
  982MOL0     C29551   7.710   6.861   1.817 -0.2190 -0.6337  0.3205
  982MOL0     C29552   7.718   6.712   1.851  0.0692 -0.0366  1.3562
  982MOL0     C29553   7.813   6.633   1.757  0.1223 -0.3923  0.3156
  982MOL0     C29554   7.840   6.490   1.812 -1.0158 -0.3057 -0.1824
  982MOL0     C29555   7.924   6.415   1.722 -0.5873 -0.4380  0.6760
  982MOL0     C29556   7.999   6.356   1.646  0.0984 -0.5206  0.3381
  982MOL0     C29557   7.428   6.818   1.772 -0.0986  0.0686 -0.7573
  982MOL0     C29558   7.289   6.804   1.742 -0.5865 -0.4412  0.2360
  982MOL0     H29559   6.862   6.653   1.808  1.2743  0.8231 -0.8041
  982MOL0     H29560   6.613   6.631   1.774 -0.0751 -1.1804 -1.2807
  982MOL0     H29561   6.419   6.780   1.792  5.0646  1.3242 -2.3488
  982MOL0     H29562   6.377   6.629   1.719  2.8675  0.8945 -1.4519
  982MOL0     H29563   6.183   6.739   1.596 -0.4146 -0.3194  1.2708
  982MOL0     H29564   6.223   6.895   1.678 -1.2107  0.6085  4.1190
  982MOL0     H29565   6.152   6.837   1.878 -0.5890 -0.6889 -0.1865
  982MOL0     H29566   6.192   6.664   1.841  0.0515 -0.3374 -1.8005
  982MOL0     H29567   5.964   6.820   1.692 -2.1822 -0.2710  0.2430
  982MOL0     H29568   5.983   6.648   1.708 -2.6716 -0.7719  2.5920
  982MOL0     H29569   5.903   6.821   1.937 -2.0487 -0.3890 -0.7870
  982MOL0     H29570   5.948   6.654   1.947 -2.5955 -3.5348 -1.8779
  982MOL0     H29571   5.753   6.592   1.792  0.9409 -0.9710  2.2684
  982MOL0     H29572   5.737   6.769   1.759  4.0338 -0.4587 -1.4694
  982MOL0     H29573   5.683   6.622   2.025  1.3271  3.0372  1.9630
  982MOL0     H29574   5.699   6.794   2.016 -2.5164 -0.6176  1.7520
  982MOL0     H29575   5.502   6.815   1.866 -1.4196 -0.6534 -0.3571
  982MOL0     H29576   5.473   6.773   2.028 -0.6717  1.7642 -1.3373
  982MOL0     H29577   5.449   6.636   1.669  1.6874  0.0707  1.6606
  982MOL0     H29578   5.372   6.303   1.611 -0.0976 -2.5005  5.7812
  982MOL0     H29579   5.325   6.475   1.559  2.7498 -1.2267 -1.0516
  982MOL0     H29580   5.150   6.267   1.686  1.4132 -0.8152  0.0344
  982MOL0     H29581   5.145   6.345   1.523 -0.7466 -1.1376  0.0470
  982MOL0     H29582   5.094   6.473   1.794  0.5988 -1.1918  0.1190
  982MOL0     H29583   5.114   6.568   1.645  3.2849 -0.5734  2.5605
  982MOL0     H29584   4.895   6.462   1.552  0.0133 -0.0966  0.2852
  982MOL0     H29585   4.885   6.538   1.712  1.2583  1.1946 -0.5773
  982MOL0     H29586   4.671   6.470   1.633  2.6541 -0.0481  0.0267
  982MOL0     H29587   4.452   6.372   1.562 -0.9857 -0.2861  2.9187
  982MOL0     H29588   4.291   5.851   1.377 -0.6016 -0.7001 -0.2543
  982MOL0     H29589   4.080   5.732   1.332 -2.1239  1.2549 -0.6523
  982MOL0     H29590   3.805   5.894   1.396  0.3554  2.0168  3.0710
  982MOL0     H29591   3.707   5.807   1.522 -0.7124 -0.4778 -0.8820
  982MOL0     H29592   3.659   5.623   1.368  0.7473 -0.4313  0.4065
  982MOL0     H29593   3.787   5.680   1.251 -1.9790  0.3334 -2.0152
  982MOL0     H29594   3.637   5.868   1.200  1.9507 -0.2221  4.0833
  982MOL0     H29595   3.525   5.811   1.319 -1.7674 -0.3797 -1.0752
  982MOL0     H29596   3.570   5.673   1.060  1.8531 -2.5148  1.1293
  982MOL0     H29597   3.526   5.578   1.200  0.1494 -0.9596 -2.0136
  982MOL0     H29598   3.383   5.800   1.060  5.3198 -0.3243  0.2846
  982MOL0     H29599   3.331   5.747   1.218  1.3983  3.0577 -1.0424
  982MOL0     H29600   3.343   5.497   1.103 -0.6253  0.4745 -0.3748
  982MOL0     H29601   3.330   5.581   0.955  0.9647  0.6886 -0.0439
  982MOL0     H29602   3.131   5.695   1.007  0.0310  1.0434  0.0903
  982MOL0     H29603   3.112   5.523   1.015 -1.0947  1.0045  0.1407
  982MOL0     H29604   3.094   5.713   1.235 -0.6265 -0.7365  1.5083
  982MOL0     H29605   3.163   5.560   1.273 -0.7659  1.8501  2.4080
  982MOL0     H29606   3.908   5.919   1.673 -1.3418  1.4490 -2.7407
  982MOL0     H29607   4.125   6.031   1.727  1.7054  2.6886 -2.6389
  982MOL0     H29608   4.603   5.985   1.607 -1.3471  0.3884  1.4503
  982MOL0     H29609   4.816   6.067   1.678  1.3421  0.7682  0.7974
  982MOL0     H29610   6.626   6.924   1.468 -1.7816  1.5439  2.6046
  982MOL0     H29611   6.868   6.919   1.480 -0.3820 -1.1151 -1.2583
  982MOL0     H29612   7.184   7.092   1.882  1.6601  2.9148 -1.0576
  982MOL0     H29613   7.441   7.100   1.940 -1.2722  1.9132 -2.4473
  982MOL0     H29614   7.813   6.893   1.835 -0.5254 -0.1763  1.3130
  982MOL0     H29615   7.689   6.874   1.710 -2.5293  1.1265  0.9197
  982MOL0     H29616   7.758   6.721   1.953  2.6706  1.8540  0.2775
  982MOL0     H29617   7.619   6.665   1.851 -0.4848  0.6287 -3.4867
  982MOL0     H29618   7.903   6.695   1.756  1.0072 -1.6478  0.4551
  982MOL0     H29619   7.771   6.634   1.656 -1.1653  0.8909  0.8164
  982MOL0     H29620   7.896   6.498   1.905 -0.6539 -1.7252 -0.2517
  982MOL0     H29621   7.748   6.433   1.822 -0.1991 -2.0758 -2.0577
  982MOL0     H29622   8.073   6.298   1.594  0.0990  0.0576 -0.3257
  982MOL0     H29623   7.477   6.733   1.725  0.4026  1.5026 -3.0148
  982MOL0     H29624   7.258   6.737   1.663  1.0473  0.6116 -1.3742
  983MOL0     O29625   7.847   7.677   5.966 -0.0735  0.5779  0.1460
  983MOL0     C29626   7.924   7.615   6.036 -0.9454 -0.4386 -0.5696
  983MOL0     O29627   7.890   7.548   6.150 -0.8058 -0.2882 -0.1411
  983MOL0     C29628   7.757   7.521   6.179  0.9408 -0.1636  0.1022
  983MOL0     C29629   7.713   7.522   6.316 -1.3332 -0.6379  0.0499
  983MOL0     C29630   7.584   7.495   6.352 -0.5453 -0.2268 -0.0026
  983MOL0     C29631   7.487   7.464   6.255  0.6105  0.6980 -0.1291
  983MOL0     O29632   7.364   7.424   6.296 -0.1932  0.4292 -0.7679
  983MOL0     C29633   7.252   7.499   6.241 -0.4241 -0.1567  0.1728
  983MOL0     C29634   7.123   7.442   6.307  0.3672 -0.3298  0.0912
  983MOL0     C29635   7.106   7.483   6.454 -0.3449  0.1652 -0.0203
  983MOL0     C29636   6.981   7.420   6.509 -0.2588  0.1252 -0.0622
  983MOL0     C29637   6.921   7.508   6.619 -0.1513  0.4753 -0.0835
  983MOL0     C29638   6.850   7.422   6.730  0.1923 -0.4543  0.2254
  983MOL0     C29639   6.723   7.365   6.656 -0.2309  0.1411 -0.7273
  983MOL0     C29640   6.637   7.304   6.769  0.5555  0.4380  0.3878
  983MOL0     N29641   6.564   7.193   6.711 -0.4221  0.1219 -0.0428
  983MOL0     C29642   6.448   7.204   6.630 -0.8080  0.7665 -0.1264
  983MOL0     C29643   6.407   7.080   6.602  0.5235 -0.2056  0.4102
  983MOL0     C29644   6.284   7.051   6.514  0.7555  0.2313 -0.5504
  983MOL0     C29645   6.172   7.039   6.615 -0.2498  0.5275 -0.2721
  983MOL0     C29646   6.174   6.903   6.699  0.4124  0.5166 -0.5555
  983MOL0     C29647   6.032   6.850   6.742  0.0701 -1.2346 -0.0824
  983MOL0     O29648   5.946   6.945   6.806  0.1746 -0.1050  1.0022
  983MOL0     C29649   5.813   6.904   6.843 -0.0436 -0.0447  0.1753
  983MOL0     C29650   5.755   6.961   6.954  0.5053  0.6359  0.2874
  983MOL0     C29651   5.621   6.928   6.990 -0.9200 -0.5812 -0.9604
  983MOL0     C29652   5.542   6.842   6.904  0.5498 -0.7576  1.1025
  983MOL0     C29653   5.402   6.808   6.949 -0.1987  0.5122 -0.0640
  983MOL0     O29654   5.374   6.829   7.080  0.1985  0.2884 -0.2063
  983MOL0     C29655   5.246   6.797   7.135 -0.6962 -0.8681 -0.3945
  983MOL0     C29656   5.149   6.711   7.075 -0.1137 -0.2720  0.7820
  983MOL0     C29657   5.027   6.699   7.132  0.4743  0.7153  0.0880
  983MOL0     C29658   4.989   6.780   7.243 -0.2587  0.8512  0.4592
  983MOL0     O29659   4.867   6.768   7.296  0.0773  0.3477 -0.1116
  983MOL0     C29660   4.784   6.888   7.306 -0.4897  0.1749  0.0927
  983MOL0     C29661   4.638   6.850   7.315 -0.7017  0.1214  0.4846
  983MOL0     C29662   4.547   6.973   7.321 -0.5829  0.2377 -0.8436
  983MOL0     C29663   4.512   7.025   7.185  0.2601  1.0388 -0.3056
  983MOL0     C29664   4.431   7.162   7.192 -0.4676  0.0903 -0.2209
  983MOL0     C29665   4.367   7.174   7.051 -0.3308 -0.9387 -0.7205
  983MOL0     C29666   4.270   7.294   7.051  0.2433  0.0271 -0.0833
  983MOL0     C29667   4.177   7.304   6.936  0.4791 -0.5989  0.0452
  983MOL0    Cl29668   4.091   7.458   6.930  0.3719  0.2980  0.2471
  983MOL0     C29669   5.087   6.856   7.300  0.2189  0.1427  0.2987
  983MOL0     C29670   5.215   6.862   7.252  0.0167 -0.2120 -0.4642
  983MOL0     O29671   5.324   6.781   6.860  0.7603 -0.3589  0.2635
  983MOL0     C29672   5.598   6.809   6.776 -0.5109 -0.1210 -0.1045
  983MOL0     C29673   5.729   6.831   6.753 -0.4921  0.3604 -0.1210
  983MOL0     N29674   6.499   6.988   6.654 -0.2622 -0.6905 -0.2067
  983MOL0     N29675   6.592   7.061   6.718 -0.2084  0.0772  0.3449
  983MOL0     C29676   7.525   7.464   6.125  0.4487 -0.8504  0.0052
  983MOL0     C29677   7.658   7.495   6.087  0.7068 -0.4698  0.5592
  983MOL0     C29678   8.071   7.624   6.013  0.5618  0.2579  0.3312
  983MOL0     C29679   8.126   7.686   5.897  0.0044 -0.4162  1.3452
  983MOL0     C29680   8.261   7.695   5.885  0.9834  1.4024 -0.0233
  983MOL0     C29681   8.353   7.644   5.979 -0.0295 -0.4462 -0.1553
  983MOL0     O29682   8.491   7.662   5.983 -0.1173 -0.0018  0.3076
  983MOL0     C29683   8.574   7.560   6.040 -0.4659 -0.2486  0.0899
  983MOL0     C29684   8.718   7.591   6.005 -0.6710 -0.0860  0.6980
  983MOL0     C29685   8.815   7.509   6.094 -0.7813  0.8635 -0.1695
  983MOL0     C29686   8.953   7.547   6.035  0.2982 -0.3592  0.3837
  983MOL0     C29687   9.061   7.469   6.085  0.4042  0.3140 -0.5511
  983MOL0     C29688   9.159   7.410   6.121 -0.4112 -0.0331  0.0675
  983MOL0     C29689   8.292   7.573   6.091  0.7705 -0.5981  1.2900
  983MOL0     C29690   8.156   7.562   6.097  0.5704  0.6595  0.1517
  983MOL0     H29691   7.796   7.545   6.381 -1.7341 -2.4219  1.2583
  983MOL0     H29692   7.552   7.495   6.456 -0.2055 -2.8966  0.1783
  983MOL0     H29693   7.257   7.489   6.132  2.8845  0.9374  0.1106
  983MOL0     H29694   7.256   7.606   6.260  0.3815 -0.3409  1.1621
  983MOL0     H29695   7.125   7.334   6.288 -2.1520 -0.4110 -0.0643
  983MOL0     H29696   7.040   7.484   6.249  1.2633 -0.5233 -1.3778
  983MOL0     H29697   7.103   7.593   6.456  0.2987  0.3507 -3.0673
  983MOL0     H29698   7.191   7.451   6.515  0.2328  0.2194 -0.7795
  983MOL0     H29699   6.908   7.398   6.431 -0.7903 -2.1241  1.0041
  983MOL0     H29700   7.008   7.329   6.562  1.0983  1.2131  1.1980
  983MOL0     H29701   6.844   7.575   6.580  0.2217  0.7506 -0.3590
  983MOL0     H29702   7.005   7.564   6.661  1.3957 -2.5970  1.2965
  983MOL0     H29703   6.830   7.485   6.817  2.9358  1.5831 -0.4961
  983MOL0     H29704   6.919   7.341   6.757  2.7527  1.3663 -0.4963
  983MOL0     H29705   6.661   7.442   6.608 -2.1423 -0.3673  0.7712
  983MOL0     H29706   6.749   7.290   6.582  1.1255 -1.7923  1.5559
  983MOL0     H29707   6.572   7.382   6.809  1.0880  0.6894  0.7750
  983MOL0     H29708   6.705   7.268   6.847  0.9164  3.5799  1.6915
  983MOL0     H29709   6.417   7.291   6.574  2.2504  1.0627 -1.5655
  983MOL0     H29710   6.284   6.959   6.454 -0.1604 -0.1911  0.0759
  983MOL0     H29711   6.269   7.139   6.451 -1.2990  4.4591  5.0240
  983MOL0     H29712   6.077   7.044   6.560  0.4356  0.1890 -1.5111
  983MOL0     H29713   6.172   7.123   6.685 -0.5902  1.3275 -1.2016
  983MOL0     H29714   6.213   6.827   6.631  0.2585 -1.3561  1.3470
  983MOL0     H29715   6.240   6.907   6.786  1.8007  1.1952 -1.5976
  983MOL0     H29716   6.057   6.771   6.814  3.1799  0.0479  0.4393
  983MOL0     H29717   5.984   6.811   6.652 -0.7118  0.1543 -0.2831
  983MOL0     H29718   5.819   7.021   7.018 -2.2128  1.7783  2.0788
  983MOL0     H29719   5.579   6.960   7.085  0.3562  2.6275 -1.3566
  983MOL0     H29720   5.158   6.672   6.974  0.6818  3.6228 -0.8386
  983MOL0     H29721   4.947   6.643   7.084  2.8048 -1.8581 -1.1312
  983MOL0     H29722   4.808   6.957   7.225 -2.7914  2.1311  0.9562
  983MOL0     H29723   4.810   6.948   7.393 -1.3684  1.0059 -0.2011
  983MOL0     H29724   4.628   6.795   7.409  1.4057 -0.1098  0.6373
  983MOL0     H29725   4.616   6.785   7.230 -0.9253  0.6445  0.1375
  983MOL0     H29726   4.598   7.052   7.377  1.6790 -0.7730 -1.3718
  983MOL0     H29727   4.460   6.942   7.380 -0.1419  3.1236  1.5677
  983MOL0     H29728   4.591   7.037   7.111  0.5304 -0.2873 -0.2447
  983MOL0     H29729   4.446   6.947   7.147 -0.7801  0.9766  1.4762
  983MOL0     H29730   4.489   7.250   7.222 -3.4146  1.4229  2.1360
  983MOL0     H29731   4.356   7.156   7.272 -2.8242 -1.3349 -2.3948
  983MOL0     H29732   4.326   7.076   7.026  2.6188 -2.1618 -1.1642
  983MOL0     H29733   4.450   7.195   6.983  3.0656  1.0059  3.5127
  983MOL0     H29734   4.201   7.277   7.134  1.4069  1.6590  1.2562
  983MOL0     H29735   4.335   7.379   7.073  1.3392 -0.7051 -0.4073
  983MOL0     H29736   4.116   7.213   6.931 -0.0862 -0.2352  0.2650
  983MOL0     H29737   4.238   7.298   6.845  3.4837 -0.0761  1.8828
  983MOL0     H29738   5.061   6.918   7.385  0.0040  3.4429 -1.9421
  983MOL0     H29739   5.289   6.907   7.317 -2.3434  1.1539  1.4510
  983MOL0     H29740   5.547   6.741   6.709 -0.3199  0.9150 -1.3255
  983MOL0     H29741   5.775   6.797   6.661  2.5786  1.1185  0.9975
  983MOL0     H29742   7.461   7.433   6.043  0.7317  0.4642 -0.7322
  983MOL0     H29743   7.678   7.485   5.981  0.3521 -4.1567  0.7301
  983MOL0     H29744   8.075   7.736   5.815  1.3079 -1.7047 -0.3099
  983MOL0     H29745   8.309   7.745   5.802  0.7081  1.9525  0.1480
  983MOL0     H29746   8.544   7.463   5.999  1.4640  0.5026 -3.5644
  983MOL0     H29747   8.561   7.561   6.148  0.3893  2.9427  0.2746
  983MOL0     H29748   8.726   7.559   5.900 -0.3613  2.7496 -0.2110
  983MOL0     H29749   8.729   7.699   6.002 -0.9921 -0.0630  0.1391
  983MOL0     H29750   8.804   7.402   6.075 -1.1553  1.2463 -2.3173
  983MOL0     H29751   8.808   7.527   6.202 -2.6290  1.7729 -0.3954
  983MOL0     H29752   8.960   7.560   5.927 -1.9527  1.1904  0.3644
  983MOL0     H29753   8.977   7.649   6.064  2.0920 -0.0122 -2.0308
  983MOL0     H29754   9.247   7.360   6.156  0.0219  0.2171 -0.6370
  983MOL0     H29755   8.343   7.522   6.172  1.1697  0.4140  1.6862
  983MOL0     H29756   8.117   7.521   6.189 -0.9266 -0.7090 -1.0187
  984MOL0     O29757   7.578   3.092   5.478 -0.2507 -0.6918  0.2442
  984MOL0     C29758   7.643   3.012   5.543 -0.0002  0.5861 -1.1648
  984MOL0     O29759   7.601   2.928   5.645 -0.3971  0.8267  0.4280
  984MOL0     C29760   7.468   2.907   5.677  0.7329 -0.0142  0.8844
  984MOL0     C29761   7.363   3.003   5.667  0.3782 -0.5946 -0.4053
  984MOL0     C29762   7.236   2.970   5.713 -0.1423  0.1219 -0.6061
  984MOL0     C29763   7.208   2.841   5.759 -0.4562 -0.2352  0.3747
  984MOL0     O29764   7.082   2.819   5.802  0.0075 -0.2255 -0.7165
  984MOL0     C29765   7.056   2.696   5.863 -0.4048 -0.4039 -0.3562
  984MOL0     C29766   6.915   2.669   5.901 -0.1522  0.7579 -0.2606
  984MOL0     C29767   6.830   2.671   5.779  0.0834 -0.3785  0.9176
  984MOL0     C29768   6.680   2.642   5.809  0.4968 -0.4824  0.1321
  984MOL0     C29769   6.597   2.666   5.681 -0.0889  0.3346  0.0674
  984MOL0     C29770   6.454   2.632   5.704 -0.0670 -0.2533 -0.9373
  984MOL0     C29771   6.363   2.651   5.578  0.0973 -0.1473 -0.3360
  984MOL0     C29772   6.233   2.569   5.605  0.1909  0.0688 -0.2511
  984MOL0     N29773   6.142   2.577   5.478  0.0353  0.5882  0.1062
  984MOL0     C29774   6.090   2.690   5.430  0.6277 -0.4717 -0.5522
  984MOL0     C29775   5.985   2.660   5.351  0.1599  0.1810  0.1634
  984MOL0     C29776   5.900   2.753   5.264 -0.7286  0.3722  0.1969
  984MOL0     C29777   5.962   2.773   5.132 -0.1509  0.2295  0.3164
  984MOL0     C29778   5.852   2.811   5.029  0.2982 -0.3586  0.0592
  984MOL0     C29779   5.781   2.951   5.033 -0.2475 -0.1279 -0.0770
  984MOL0     O29780   5.709   2.981   4.909 -0.9056 -0.4516  0.5420
  984MOL0     C29781   5.641   3.104   4.890  0.8458 -0.8934 -0.6219
  984MOL0     C29782   5.617   3.194   4.991  0.8532  0.6623  0.3993
  984MOL0     C29783   5.548   3.317   4.968 -0.4066 -0.2823 -1.5882
  984MOL0     C29784   5.506   3.351   4.837 -0.4026  0.6056 -0.5584
  984MOL0     C29785   5.438   3.478   4.807  0.0381 -0.3902 -0.0144
  984MOL0     O29786   5.409   3.554   4.909  0.8447 -0.4413  0.1755
  984MOL0     C29787   5.327   3.661   4.892  0.0729 -0.0015  0.2451
  984MOL0     C29788   5.384   3.785   4.901 -0.8824 -0.1925 -0.8153
  984MOL0     C29789   5.309   3.903   4.910  0.0981  0.2601  0.3309
  984MOL0     C29790   5.172   3.890   4.905 -0.8054 -0.8502  0.7334
  984MOL0     O29791   5.092   4.002   4.914 -0.2478  0.3533  0.4609
  984MOL0     C29792   4.972   4.008   4.824  0.1203 -0.0067  0.1443
  984MOL0     C29793   4.913   4.143   4.852 -0.1258  0.4170  0.1721
  984MOL0     C29794   4.773   4.169   4.787  0.2503 -0.9013  0.7187
  984MOL0     C29795   4.660   4.076   4.824 -0.3631  0.7733  0.6633
  984MOL0     C29796   4.522   4.120   4.771 -0.1971 -0.4569 -0.3328
  984MOL0     C29797   4.419   4.006   4.758  0.3079 -0.4253 -0.4958
  984MOL0     C29798   4.285   4.044   4.717 -0.1664 -0.4848  0.2641
  984MOL0     C29799   4.198   3.917   4.721  0.2390 -0.9498  0.2669
  984MOL0    Cl29800   4.031   3.955   4.641  0.4124  0.1933  0.0955
  984MOL0     C29801   5.114   3.767   4.884 -0.1242  0.0634  0.6452
  984MOL0     C29802   5.191   3.650   4.876 -0.2171 -0.1890 -0.4567
  984MOL0     O29803   5.417   3.508   4.692 -0.0571  1.6200 -0.1599
  984MOL0     C29804   5.526   3.247   4.730  0.4231  0.1748 -0.0622
  984MOL0     C29805   5.597   3.131   4.759  0.1699  0.0005  0.5372
  984MOL0     N29806   5.972   2.520   5.357  0.0617 -0.3555 -0.5161
  984MOL0     N29807   6.072   2.475   5.421 -0.1972 -0.0013 -0.2715
  984MOL0     C29808   7.310   2.747   5.766 -0.5778 -0.0035 -0.1488
  984MOL0     C29809   7.438   2.777   5.721  0.0372  0.3467 -0.5323
  984MOL0     C29810   7.788   3.008   5.524  0.2148  0.2106 -0.0800
  984MOL0     C29811   7.845   3.095   5.432  0.0001 -0.4136  0.3472
  984MOL0     C29812   7.980   3.102   5.414 -0.8064  0.7775  0.3825
  984MOL0     C29813   8.067   3.004   5.471  0.2160 -0.6684  0.3835
  984MOL0     O29814   8.204   3.009   5.431  0.6286  0.0087 -0.2742
  984MOL0     C29815   8.280   2.906   5.495  0.8382  0.4136  0.3516
  984MOL0     C29816   8.424   2.911   5.455  0.0021  0.6348  0.6035
  984MOL0     C29817   8.496   3.049   5.484  0.7870 -0.4545 -0.7887
  984MOL0     C29818   8.632   3.059   5.420 -0.3360  0.3787 -0.8553
  984MOL0     C29819   8.717   2.951   5.483  0.8918  0.0312  0.1198
  984MOL0     C29820   8.797   2.872   5.542  0.1162 -0.4049  0.4294
  984MOL0     C29821   8.012   2.912   5.559  0.5326  0.0133 -0.7420
  984MOL0     C29822   7.877   2.909   5.583 -0.6932 -0.2073  0.1235
  984MOL0     H29823   7.382   3.104   5.631  0.2300 -1.0856 -1.9256
  984MOL0     H29824   7.164   3.051   5.713  0.7141  0.9082 -1.1901
  984MOL0     H29825   7.109   2.696   5.959 -1.0022  1.5274  0.0256
  984MOL0     H29826   7.092   2.614   5.801 -0.4684 -2.2309  1.8883
  984MOL0     H29827   6.876   2.720   5.990 -2.1565 -1.2721  0.0983
  984MOL0     H29828   6.910   2.567   5.939  0.2340  0.9051  0.2008
  984MOL0     H29829   6.860   2.582   5.724 -3.4819 -1.0345 -0.2133
  984MOL0     H29830   6.843   2.767   5.729 -2.9321  1.8076  3.8895
  984MOL0     H29831   6.667   2.539   5.843  0.8112  0.1494  2.3172
  984MOL0     H29832   6.650   2.717   5.883  0.0308  1.1394 -1.6209
  984MOL0     H29833   6.644   2.605   5.604 -2.0354 -0.4606 -0.5511
  984MOL0     H29834   6.608   2.773   5.658  1.8957  0.0689 -0.4006
  984MOL0     H29835   6.412   2.688   5.788  0.2611 -0.7108 -0.4635
  984MOL0     H29836   6.449   2.525   5.729 -1.2054  0.2892  1.4505
  984MOL0     H29837   6.347   2.759   5.575  0.5432  0.0961  2.7461
  984MOL0     H29838   6.417   2.618   5.489  1.9947  1.2504  0.2288
  984MOL0     H29839   6.178   2.627   5.680 -2.0518  0.1608 -1.8597
  984MOL0     H29840   6.259   2.466   5.633  3.2400  0.8832  0.2253
  984MOL0     H29841   6.127   2.790   5.449  0.5538 -0.4627 -0.4569
  984MOL0     H29842   5.891   2.847   5.318  0.9983  1.1536 -0.7815
  984MOL0     H29843   5.798   2.717   5.256 -1.0916  1.4642 -0.2001
  984MOL0     H29844   6.008   2.678   5.102 -0.0523  0.6403 -0.8863
  984MOL0     H29845   6.046   2.843   5.130  2.0955 -2.2142  2.0999
  984MOL0     H29846   5.904   2.815   4.933  1.5613  0.5592  0.7551
  984MOL0     H29847   5.768   2.741   5.025 -1.1405  1.1558  1.8680
  984MOL0     H29848   5.864   3.022   5.046 -0.2431 -0.3046  0.9226
  984MOL0     H29849   5.719   2.946   5.122  1.6013 -0.4033  1.2631
  984MOL0     H29850   5.646   3.175   5.094  0.4603 -2.5146  0.0164
  984MOL0     H29851   5.530   3.394   5.043 -0.1068 -2.6251  1.0924
  984MOL0     H29852   5.490   3.805   4.912 -1.0262  0.5853 -0.7882
  984MOL0     H29853   5.357   3.999   4.926 -0.6891  0.5060  1.3463
  984MOL0     H29854   4.899   3.929   4.840  0.5897 -0.9319 -2.0403
  984MOL0     H29855   4.992   3.997   4.717  0.8508 -0.6253  0.3368
  984MOL0     H29856   4.992   4.209   4.816 -0.5161  1.0462  0.4531
  984MOL0     H29857   4.900   4.170   4.957 -2.8080 -3.7814  1.1567
  984MOL0     H29858   4.786   4.174   4.678  0.4221  0.9466  0.7836
  984MOL0     H29859   4.748   4.270   4.822  1.6745 -1.5691  3.9899
  984MOL0     H29860   4.685   3.977   4.785  0.1145  1.8271 -1.9812
  984MOL0     H29861   4.642   4.077   4.932 -2.4950  3.5966  0.4035
  984MOL0     H29862   4.551   4.172   4.679  5.4163 -1.5755  0.4404
  984MOL0     H29863   4.491   4.202   4.837  3.7148  1.4003 -0.4771
  984MOL0     H29864   4.407   3.961   4.857 -1.2729  2.8571  0.9778
  984MOL0     H29865   4.469   3.936   4.691 -2.1474  0.1745 -3.1903
  984MOL0     H29866   4.254   4.120   4.789  0.4070  1.1580 -1.1442
  984MOL0     H29867   4.293   4.086   4.616 -0.8945 -1.6574 -0.3010
  984MOL0     H29868   4.196   3.881   4.824 -0.8230 -1.4566  0.0799
  984MOL0     H29869   4.247   3.832   4.672  2.7003  1.1081 -1.1208
  984MOL0     H29870   5.006   3.763   4.883 -0.0784 -1.6308  0.9571
  984MOL0     H29871   5.150   3.552   4.856  1.2619 -1.1748  1.0613
  984MOL0     H29872   5.478   3.249   4.633  0.8303  1.6743 -0.2563
  984MOL0     H29873   5.612   3.054   4.683  0.4360  2.5106 -2.1126
  984MOL0     H29874   7.293   2.646   5.801  0.2821 -0.5944 -1.3667
  984MOL0     H29875   7.519   2.708   5.739 -0.5837  0.3568  3.1156
  984MOL0     H29876   7.784   3.172   5.386  1.3853 -1.0394 -2.7555
  984MOL0     H29877   8.022   3.173   5.343 -0.0123 -0.9402 -0.9192
  984MOL0     H29878   8.236   2.808   5.475  3.3281 -0.3485 -1.9767
  984MOL0     H29879   8.273   2.924   5.603 -1.9502  0.0215  0.3048
  984MOL0     H29880   8.477   2.838   5.517 -0.8799 -2.7474 -2.3124
  984MOL0     H29881   8.439   2.885   5.350  0.1015 -0.4779  0.8875
  984MOL0     H29882   8.508   3.058   5.592  1.8663 -0.4555 -0.8988
  984MOL0     H29883   8.436   3.136   5.455  1.1270  0.8662  2.1424
  984MOL0     H29884   8.621   3.041   5.312  2.0387 -1.3245 -0.8865
  984MOL0     H29885   8.675   3.158   5.438  2.0043 -0.6139 -0.6001
  984MOL0     H29886   8.862   2.800   5.587  0.8270 -0.0248  0.0345
  984MOL0     H29887   8.070   2.833   5.605 -0.7634 -0.6577 -0.2034
  984MOL0     H29888   7.848   2.835   5.657 -1.2584 -1.0080 -0.8669
  985MOL0     O29889   2.302   3.630  10.799  0.4151  0.1379  0.5373
  985MOL0     C29890   2.279   3.541  10.881  0.8986  0.1260 -0.6749
  985MOL0     O29891   2.363   3.447  10.918  1.3151 -0.0546  0.1034
  985MOL0     C29892   2.493   3.447  10.886 -0.0194  0.1474 -0.0427
  985MOL0     C29893   2.588   3.521  10.958  0.4053  0.3261  0.9367
  985MOL0     C29894   2.723   3.520  10.924 -0.0826  0.2247  0.3910
  985MOL0     C29895   2.768   3.448  10.804 -0.0830 -0.0207 -0.0676
  985MOL0     O29896   2.897   3.437  10.770  0.1452  0.4010 -0.6979
  985MOL0     C29897   2.985   3.533  10.833 -0.1041  0.8100 -0.0420
  985MOL0     C29898   3.131   3.536  10.772 -0.7082 -0.0602  0.5394
  985MOL0     C29899   3.120   3.537  10.614  0.0429  0.7272 -0.4881
  985MOL0     C29900   3.265   3.568  10.564  0.1138  0.4629 -0.3623
  985MOL0     C29901   3.274   3.552  10.413 -0.1850 -0.3673  0.3315
  985MOL0     C29902   3.411   3.611  10.367  0.3375 -0.4974 -0.0248
  985MOL0     C29903   3.456   3.565  10.227  0.4546  0.2706 -0.2336
  985MOL0     C29904   3.369   3.616  10.113 -0.1510  0.4279  0.0872
  985MOL0     N29905   3.373   3.757  10.095 -0.2910  0.5843 -0.3436
  985MOL0     C29906   3.275   3.833  10.032 -0.7015 -0.1878  0.5434
  985MOL0     C29907   3.314   3.960  10.032  0.4268 -0.7806 -0.2421
  985MOL0     C29908   3.241   4.088   9.974  0.4291  0.1429 -0.4851
  985MOL0     C29909   3.183   4.168  10.087  0.5213  0.0250 -0.1750
  985MOL0     C29910   3.271   4.224  10.188 -0.5912  0.1088  0.3623
  985MOL0     C29911   3.383   4.312  10.125 -0.1192  0.2253  0.5350
  985MOL0     O29912   3.326   4.406  10.033  0.7342  0.2108 -0.1085
  985MOL0     C29913   3.408   4.478   9.944 -0.0173  0.1985  0.4108
  985MOL0     C29914   3.357   4.501   9.817 -0.2839  0.1636  0.3550
  985MOL0     C29915   3.432   4.586   9.726  0.8800 -0.6507 -1.3277
  985MOL0     C29916   3.564   4.628   9.765 -0.1804 -0.2576  0.4500
  985MOL0     C29917   3.652   4.703   9.673  0.1860  0.1035 -0.8931
  985MOL0     O29918   3.782   4.725   9.714 -0.4168 -0.2025 -0.1721
  985MOL0     C29919   3.870   4.811   9.647 -0.1551  0.0340 -0.5122
  985MOL0     C29920   4.010   4.775   9.637 -0.0764 -0.3393  0.0373
  985MOL0     C29921   4.094   4.864   9.581  0.0614 -0.3508 -0.8281
  985MOL0     C29922   4.053   4.996   9.543 -0.2731 -0.5775 -0.6366
  985MOL0     O29923   4.144   5.096   9.532  0.7866 -0.4064  0.3258
  985MOL0     C29924   4.184   5.101   9.398 -0.8162 -0.1758  0.7171
  985MOL0     C29925   4.255   5.235   9.368  0.2913 -0.7231  0.2987
  985MOL0     C29926   4.396   5.242   9.423 -0.4681  0.3424  0.4573
  985MOL0     C29927   4.474   5.351   9.339  0.2716  0.6974 -0.8353
  985MOL0     C29928   4.609   5.394   9.400 -0.0558 -0.2089  0.1362
  985MOL0     C29929   4.632   5.541   9.367  0.7144 -0.6039 -0.2955
  985MOL0     C29930   4.776   5.594   9.395  0.0609  0.3837 -0.6195
  985MOL0     C29931   4.785   5.747   9.381  0.3459  0.8923  0.5961
  985MOL0    Cl29932   4.936   5.805   9.457  0.3480 -0.0024 -0.2227
  985MOL0     C29933   3.919   5.023   9.557 -0.1394 -0.1479  0.6343
  985MOL0     C29934   3.824   4.939   9.606 -0.0250  0.2502  0.2203
  985MOL0     O29935   3.601   4.750   9.571  0.5062 -0.2919  0.4582
  985MOL0     C29936   3.607   4.594   9.894  0.1437 -0.1207  0.1887
  985MOL0     C29937   3.537   4.520   9.980  0.1960 -0.5526 -1.0341
  985MOL0     N29938   3.443   3.958  10.090  0.2051 -0.0432 -0.7280
  985MOL0     N29939   3.478   3.837  10.120  0.7885 -0.0701 -0.9869
  985MOL0     C29940   2.671   3.368  10.740 -0.4003 -0.3236  0.1286
  985MOL0     C29941   2.542   3.370  10.778  0.4259  1.1435  0.2342
  985MOL0     C29942   2.137   3.532  10.939 -0.0354  0.2282 -0.1635
  985MOL0     C29943   2.030   3.608  10.884  0.4689  0.2733  0.8190
  985MOL0     C29944   1.912   3.626  10.956  0.8136 -0.1418  0.6703
  985MOL0     C29945   1.885   3.551  11.075 -0.2473  0.5594 -0.2072
  985MOL0     O29946   1.771   3.561  11.150 -0.7385  1.0935 -0.0477
  985MOL0     C29947   1.720   3.690  11.153 -0.6798  0.0529 -0.5444
  985MOL0     C29948   1.615   3.725  11.255  0.7424  0.6814 -0.4210
  985MOL0     C29949   1.503   3.621  11.236  0.1983 -1.2025 -0.2189
  985MOL0     C29950   1.422   3.595  11.368 -0.7593 -0.3176  0.3567
  985MOL0     C29951   1.299   3.511  11.338 -0.4628 -0.7562 -0.1860
  985MOL0     C29952   1.209   3.443  11.303  0.1966 -0.2359 -0.4058
  985MOL0     C29953   1.988   3.465  11.128 -0.1776 -0.3440  0.2360
  985MOL0     C29954   2.118   3.460  11.068 -0.6926 -0.9442 -0.9345
  985MOL0     H29955   2.543   3.584  11.033 -0.2482  1.1676 -0.1355
  985MOL0     H29956   2.787   3.578  10.989  2.4847 -0.5888 -1.2725
  985MOL0     H29957   2.983   3.516  10.941 -1.8321  1.8609  0.1211
  985MOL0     H29958   2.945   3.633  10.812  1.5667  1.2198 -1.5642
  985MOL0     H29959   3.181   3.447  10.811  1.4027  1.2926  1.0836
  985MOL0     H29960   3.175   3.625  10.817  1.4249 -0.6296 -0.2998
  985MOL0     H29961   3.056   3.620  10.584  0.2804  1.5314  1.1204
  985MOL0     H29962   3.088   3.438  10.579  1.6619 -0.3954  1.0306
  985MOL0     H29963   3.292   3.668  10.598 -0.9027  0.5430  0.2563
  985MOL0     H29964   3.340   3.505  10.613  1.3514  2.2601  0.1236
  985MOL0     H29965   3.187   3.599  10.365 -0.0705  3.5653  3.4523
  985MOL0     H29966   3.262   3.447  10.385 -1.5862  0.2105 -1.3954
  985MOL0     H29967   3.485   3.574  10.439  0.1367  0.5091  0.7189
  985MOL0     H29968   3.415   3.720  10.366  2.4685 -0.5365 -1.2883
  985MOL0     H29969   3.557   3.608  10.220 -0.0363  2.0554  2.1146
  985MOL0     H29970   3.448   3.457  10.211 -3.3877  0.7529 -3.0258
  985MOL0     H29971   3.263   3.602  10.139 -0.3244  1.5243  0.0276
  985MOL0     H29972   3.401   3.558  10.026  1.2978  1.1759  0.0922
  985MOL0     H29973   3.185   3.805   9.978 -1.9138  0.7836  1.9402
  985MOL0     H29974   3.163   4.057   9.903  1.6429 -0.7720 -1.4712
  985MOL0     H29975   3.313   4.142   9.912  1.6257 -2.0663 -1.1408
  985MOL0     H29976   3.105   4.109  10.136  1.3884  0.2053  1.4937
  985MOL0     H29977   3.137   4.250  10.032  2.2450  1.8547  0.9801
  985MOL0     H29978   3.209   4.294  10.245  0.4836  2.6702 -1.4096
  985MOL0     H29979   3.304   4.155  10.266  2.7438  2.0669  0.9033
  985MOL0     H29980   3.459   4.244  10.086 -0.5050 -0.2904  0.6626
  985MOL0     H29981   3.441   4.360  10.204 -1.5244  1.9477  0.5598
  985MOL0     H29982   3.265   4.449   9.793  1.5268 -3.5675  0.6395
  985MOL0     H29983   3.378   4.602   9.633  0.4556 -4.1758 -1.8324
  985MOL0     H29984   4.047   4.685   9.683 -0.8358 -0.7432 -0.1246
  985MOL0     H29985   4.198   4.835   9.570 -0.6936 -2.4355 -3.6425
  985MOL0     H29986   4.097   5.103   9.332 -1.1262  1.7794  1.1322
  985MOL0     H29987   4.253   5.018   9.383 -0.4508 -0.5069  3.5876
  985MOL0     H29988   4.205   5.318   9.420  1.5737  0.5510 -0.4191
  985MOL0     H29989   4.262   5.252   9.260 -2.5564  1.4471  0.3463
  985MOL0     H29990   4.455   5.150   9.427  0.2358  0.5472 -2.7050
  985MOL0     H29991   4.390   5.269   9.529  0.3679 -1.6093  1.0619
  985MOL0     H29992   4.489   5.319   9.235  1.1022  3.1109 -1.5181
  985MOL0     H29993   4.415   5.443   9.338  0.1924  0.6638  0.1776
  985MOL0     H29994   4.688   5.333   9.357  1.6271  2.4950 -0.8397
  985MOL0     H29995   4.604   5.364   9.505 -1.1848 -0.0707  0.1410
  985MOL0     H29996   4.568   5.608   9.425 -1.3693 -1.0904 -1.9278
  985MOL0     H29997   4.619   5.545   9.258 -2.6105 -2.4083 -0.0736
  985MOL0     H29998   4.804   5.583   9.500 -2.3973 -0.8869 -0.0228
  985MOL0     H29999   4.845   5.526   9.343  0.7808  0.1702  0.5742
  985MOL0     H30000   4.702   5.801   9.426  1.0129  0.8838  1.8801
  985MOL0     H30001   4.795   5.773   9.275  0.3018  3.1816  1.1053
  985MOL0     H30002   3.885   5.124   9.535 -0.3682 -0.3419  0.1010
  985MOL0     H30003   3.719   4.965   9.612  0.3762  1.8581  0.9020
  985MOL0     H30004   3.710   4.625   9.911  0.3968  0.1545 -1.6616
  985MOL0     H30005   3.585   4.490  10.073  1.6681 -0.9904 -1.8904
  985MOL0     H30006   2.694   3.313  10.650  1.1607 -0.8391  0.8059
  985MOL0     H30007   2.469   3.309  10.726  2.4304 -1.5263  0.3582
  985MOL0     H30008   2.044   3.632  10.779  1.6275  1.4396  1.1966
  985MOL0     H30009   1.835   3.693  10.920  1.5589  0.7296  0.6368
  985MOL0     H30010   1.675   3.708  11.055  1.2679 -1.2765 -1.7388
  985MOL0     H30011   1.793   3.769  11.176 -4.1713  2.5268  3.7943
  985MOL0     H30012   1.650   3.730  11.359 -0.1054  0.1182 -0.1038
  985MOL0     H30013   1.579   3.825  11.230  1.4410  1.1051  0.2199
  985MOL0     H30014   1.553   3.526  11.214  1.1345 -0.9880  0.8798
  985MOL0     H30015   1.440   3.666  11.158  1.6155  1.2257 -0.0557
  985MOL0     H30016   1.493   3.543  11.433  0.8036  0.2705 -0.8261
  985MOL0     H30017   1.385   3.688  11.411  1.4062  0.7865 -0.0659
  985MOL0     H30018   1.114   3.399  11.282  0.0512  0.5089 -1.3969
  985MOL0     H30019   1.980   3.415  11.224  0.7028  2.3153  1.7909
  985MOL0     H30020   2.194   3.395  11.110 -1.4095 -2.3657 -1.7722
  986MOL0     O30021   1.997   0.686   2.672  0.7140 -0.4598  0.2291
  986MOL0     C30022   2.081   0.631   2.738  0.3659  0.1518  0.7592
  986MOL0     O30023   2.059   0.566   2.861 -0.5732  0.1885  0.1445
  986MOL0     C30024   1.934   0.554   2.907 -0.0547  0.2176  0.7934
  986MOL0     C30025   1.912   0.624   3.020  0.7395  0.1251  0.3554
  986MOL0     C30026   1.785   0.621   3.075  0.0834 -0.0305 -1.0589
  986MOL0     C30027   1.671   0.549   3.020  0.0477 -0.2479 -0.2355
  986MOL0     O30028   1.549   0.561   3.083 -0.4129  0.5131  0.5053
  986MOL0     C30029   1.458   0.660   3.023  1.4594 -0.8260  0.2669
  986MOL0     C30030   1.310   0.622   3.061  0.0356  0.0157  0.0895
  986MOL0     C30031   1.224   0.740   3.044 -0.4246 -0.0549  0.4461
  986MOL0     C30032   1.081   0.704   3.022  0.1418  0.4360 -0.2715
  986MOL0     C30033   1.007   0.836   3.057 -0.4250 -0.0834 -0.1265
  986MOL0     C30034   0.854   0.836   3.039 -0.2252  0.0013  0.4908
  986MOL0     C30035   0.801   0.970   3.084  0.4892 -0.8333  0.5053
  986MOL0     C30036   0.640   0.968   3.095  0.0837  0.1134 -0.2773
  986MOL0     N30037   0.578   1.096   3.110 -0.6249 -1.0292  1.1888
  986MOL0     C30038   0.527   1.182   3.005  0.3800 -0.1592 -0.8164
  986MOL0     C30039   0.562   1.307   3.032 -0.4870  0.3940 -0.7066
  986MOL0     C30040   0.552   1.429   2.947  0.4272  1.6214 -0.2260
  986MOL0     C30041   0.411   1.449   2.896 -0.4539  0.6195 -0.2567
  986MOL0     C30042   0.424   1.572   2.806 -0.1933 -0.2311  0.0888
  986MOL0     C30043   0.434   1.711   2.877  0.1159  0.4160  0.5642
  986MOL0     O30044   0.316   1.760   2.940 -0.0388 -0.1324  0.6086
  986MOL0     C30045   0.215   1.826   2.881  0.1579 -0.5661 -0.3050
  986MOL0     C30046   0.118   1.869   2.973 -0.1610  0.6819 -0.5398
  986MOL0     C30047   0.007   1.931   2.937 -0.2231  0.6392 -0.3660
  986MOL0     C30048  -0.020   1.954   2.795  0.2541 -0.4146 -0.3757
  986MOL0     C30049  -0.151   2.001   2.760  0.8245 -0.0152 -0.6326
  986MOL0     O30050  -0.256   1.988   2.842 -0.3907 -0.1191  0.3909
  986MOL0     C30051  -0.372   2.066   2.834 -0.4427 -0.3937 -0.1076
  986MOL0     C30052  -0.376   2.201   2.793 -0.2961 -0.2958 -0.3284
  986MOL0     C30053  -0.503   2.254   2.783  0.0716 -0.4705 -0.3585
  986MOL0     C30054  -0.622   2.194   2.820  0.3477  0.0904  0.7134
  986MOL0     O30055  -0.742   2.261   2.816  0.1440 -0.6574  0.1399
  986MOL0     C30056  -0.805   2.279   2.685 -0.0691  0.0107  0.0951
  986MOL0     C30057  -0.950   2.210   2.673 -0.6689  0.0621  0.0165
  986MOL0     C30058  -1.038   2.266   2.783  0.5724 -0.0695 -0.1328
  986MOL0     C30059  -1.176   2.199   2.809  0.8088 -0.2247  0.6318
  986MOL0     C30060  -1.288   2.251   2.720 -0.4228  0.2319 -0.3059
  986MOL0     C30061  -1.328   2.405   2.726  0.6317 -0.0760  0.4351
  986MOL0     C30062  -1.444   2.429   2.633 -0.4557 -0.2460  0.2609
  986MOL0     C30063  -1.407   2.404   2.487  0.3199 -0.4419 -0.0898
  986MOL0    Cl30064  -1.464   2.236   2.433 -0.5258  0.0561  0.1790
  986MOL0     C30065  -0.611   2.072   2.874  0.0078  0.5294  0.2389
  986MOL0     C30066  -0.490   2.002   2.874 -0.1930 -0.1706 -0.4822
  986MOL0     O30067  -0.157   2.066   2.659 -0.3363  0.5369 -0.8966
  986MOL0     C30068   0.084   1.928   2.700 -0.7096 -0.6819 -0.1086
  986MOL0     C30069   0.203   1.869   2.749  0.1390 -0.3600  0.2846
  986MOL0     N30070   0.628   1.313   3.156 -0.5822 -0.0635  0.0181
  986MOL0     N30071   0.632   1.191   3.201  0.0837 -0.2757  0.3212
  986MOL0     C30072   1.699   0.473   2.907 -0.5615  0.7702  0.6690
  986MOL0     C30073   1.828   0.475   2.847  0.4001 -0.4727 -0.4138
  986MOL0     C30074   2.211   0.612   2.682  0.0237 -0.1664  0.0946
  986MOL0     C30075   2.299   0.514   2.739  0.4410  0.1419 -0.0584
  986MOL0     C30076   2.423   0.475   2.675 -0.1265 -0.1816 -0.2412
  986MOL0     C30077   2.454   0.539   2.559  0.4844  0.0611  1.2710
  986MOL0     O30078   2.578   0.511   2.502 -0.3794 -0.2937 -0.3210
  986MOL0     C30079   2.609   0.585   2.380 -0.1951  0.8521 -0.0333
  986MOL0     C30080   2.745   0.537   2.309 -0.3554 -0.0014  0.0622
  986MOL0     C30081   2.776   0.631   2.191 -0.7178  0.2872 -0.4023
  986MOL0     C30082   2.855   0.755   2.228  0.5865  0.6684  1.3571
  986MOL0     C30083   2.984   0.714   2.279 -0.5504 -0.8989 -0.0924
  986MOL0     C30084   3.094   0.689   2.320  0.3695 -0.2508 -0.9122
  986MOL0     C30085   2.368   0.636   2.506  0.7809 -0.2370  1.0064
  986MOL0     C30086   2.258   0.685   2.566 -0.0842  0.9826 -0.1625
  986MOL0     H30087   1.995   0.677   3.064  1.9087 -0.8286 -0.6209
  986MOL0     H30088   1.754   0.685   3.157 -3.2932 -0.4235 -1.8921
  986MOL0     H30089   1.459   0.661   2.914 -1.0134 -0.0585  0.2026
  986MOL0     H30090   1.476   0.760   3.063  1.8413 -0.2984 -1.1809
  986MOL0     H30091   1.318   0.585   3.164  0.6083  1.5925  0.6494
  986MOL0     H30092   1.270   0.543   2.998  0.0095 -0.1120  0.2630
  986MOL0     H30093   1.257   0.805   2.963  0.6000 -1.1260 -0.0292
  986MOL0     H30094   1.245   0.799   3.133  0.6779 -0.7643  0.6782
  986MOL0     H30095   1.052   0.664   2.924  1.6510 -1.5335  0.0288
  986MOL0     H30096   1.050   0.624   3.090 -0.1325 -0.8162 -1.8084
  986MOL0     H30097   1.041   0.914   2.987  2.2928 -3.6013 -3.1174
  986MOL0     H30098   1.033   0.879   3.154 -2.1452  2.9518 -0.8657
  986MOL0     H30099   0.808   0.757   3.098 -1.3824  1.8962  2.2746
  986MOL0     H30100   0.841   0.818   2.932  2.4499  0.7480 -0.0592
  986MOL0     H30101   0.839   0.983   3.186 -0.1930 -0.6562  0.7390
  986MOL0     H30102   0.825   1.041   3.004  1.8531 -3.4130 -1.4999
  986MOL0     H30103   0.603   0.918   3.185 -2.5612  3.3928  0.6351
  986MOL0     H30104   0.591   0.929   3.005 -2.2193  2.1209  0.0194
  986MOL0     H30105   0.479   1.153   2.912  0.2659 -0.8886 -0.5348
  986MOL0     H30106   0.628   1.428   2.868  1.0473  0.2004  0.3393
  986MOL0     H30107   0.575   1.508   3.019 -0.6748 -0.3417  2.4480
  986MOL0     H30108   0.342   1.455   2.981  0.7621 -2.6194  1.1225
  986MOL0     H30109   0.377   1.365   2.835  1.6360  0.5840 -1.5060
  986MOL0     H30110   0.511   1.555   2.741  0.2251  1.1867  0.2561
  986MOL0     H30111   0.338   1.569   2.740 -1.5464  0.5865  1.7512
  986MOL0     H30112   0.468   1.784   2.803 -3.1907  1.3830 -0.1645
  986MOL0     H30113   0.515   1.708   2.951  1.9102 -0.3054 -1.2996
  986MOL0     H30114   0.137   1.848   3.078  0.2288  1.4779 -0.4385
  986MOL0     H30115  -0.062   1.958   3.015  2.1086  2.6226  1.1246
  986MOL0     H30116  -0.287   2.257   2.766  2.4940 -4.6187 -1.0361
  986MOL0     H30117  -0.518   2.357   2.753 -0.0864  0.2064  1.8405
  986MOL0     H30118  -0.736   2.238   2.611 -0.6646 -1.8964  0.5428
  986MOL0     H30119  -0.823   2.385   2.665  0.5838  0.2964  0.9654
  986MOL0     H30120  -0.948   2.103   2.694 -0.7152 -0.0774 -0.6642
  986MOL0     H30121  -0.991   2.223   2.573 -0.9792  1.3743  0.2892
  986MOL0     H30122  -1.046   2.374   2.764  0.6854 -0.0691 -0.1766
  986MOL0     H30123  -0.986   2.246   2.876  2.1276  0.4832 -0.8547
  986MOL0     H30124  -1.164   2.091   2.793  0.6375  0.1745 -2.9794
  986MOL0     H30125  -1.200   2.224   2.913 -0.7595 -2.1152  0.7792
  986MOL0     H30126  -1.377   2.191   2.741 -0.2226  0.2521  0.6516
  986MOL0     H30127  -1.259   2.222   2.618  0.5563 -0.5460  0.1735
  986MOL0     H30128  -1.255   2.484   2.706  0.4414 -0.5737 -2.7282
  986MOL0     H30129  -1.357   2.426   2.829  3.2878  1.4390  0.9643
  986MOL0     H30130  -1.529   2.366   2.660 -0.6518 -0.4523 -0.8049
  986MOL0     H30131  -1.482   2.531   2.641  0.5896  0.2738 -1.0112
  986MOL0     H30132  -1.305   2.430   2.458 -0.8376  0.5490 -3.9008
  986MOL0     H30133  -1.469   2.475   2.431  1.0095 -0.7834 -1.3249
  986MOL0     H30134  -0.702   2.018   2.898 -0.0314 -0.5819 -2.1174
  986MOL0     H30135  -0.477   1.899   2.907 -0.0558  0.1369  0.4514
  986MOL0     H30136   0.067   1.955   2.597  0.0122  1.9528  0.3802
  986MOL0     H30137   0.289   1.851   2.685  1.5294  0.9533  1.7120
  986MOL0     H30138   1.630   0.406   2.857 -1.8234  2.2215  0.3973
  986MOL0     H30139   1.850   0.414   2.760 -0.4120 -0.9945 -0.2666
  986MOL0     H30140   2.279   0.471   2.837 -2.8014  3.0488  0.7632
  986MOL0     H30141   2.491   0.405   2.722 -1.5668 -1.3491  0.1811
  986MOL0     H30142   2.604   0.693   2.394 -2.3801  0.6062  1.6777
  986MOL0     H30143   2.528   0.565   2.309  1.1928 -0.6223 -1.2860
  986MOL0     H30144   2.830   0.521   2.376 -0.1591 -0.6564 -0.3424
  986MOL0     H30145   2.717   0.440   2.270  0.8615 -0.1866 -0.3985
  986MOL0     H30146   2.676   0.656   2.154 -0.4596  2.3816  0.1891
  986MOL0     H30147   2.830   0.589   2.105 -1.6746 -0.2079 -0.7775
  986MOL0     H30148   2.863   0.825   2.144  2.0612  0.4316  1.2712
  986MOL0     H30149   2.805   0.823   2.298 -1.9893  1.6234 -1.2102
  986MOL0     H30150   3.187   0.654   2.361  1.5086 -0.8296 -3.7428
  986MOL0     H30151   2.378   0.702   2.420  0.1597  0.0880  1.1752
  986MOL0     H30152   2.196   0.757   2.514  2.4425  1.1089 -3.2792
  987MOL0     O30153   3.731   8.013   7.826  0.0252 -0.0863  0.1887
  987MOL0     C30154   3.794   7.920   7.775  0.5364 -0.3218 -0.8060
  987MOL0     O30155   3.752   7.788   7.754 -0.1364  0.3790  0.9367
  987MOL0     C30156   3.622   7.748   7.761  0.6530  0.2121 -0.7501
  987MOL0     C30157   3.580   7.642   7.683  0.2278 -0.0431  0.6358
  987MOL0     C30158   3.451   7.588   7.684 -0.2476 -0.0783  0.0428
  987MOL0     C30159   3.364   7.630   7.785  0.1074  0.4296  0.1366
  987MOL0     O30160   3.242   7.568   7.791 -0.0709  0.2985 -0.5230
  987MOL0     C30161   3.150   7.633   7.876  0.6253 -0.0216 -0.4882
  987MOL0     C30162   3.019   7.541   7.878 -0.4751  0.2053  0.1320
  987MOL0     C30163   2.895   7.610   7.844  0.5719  0.0083 -1.0258
  987MOL0     C30164   2.782   7.508   7.821  0.2841 -0.0084 -0.0891
  987MOL0     C30165   2.651   7.571   7.815 -0.6431  0.0316  0.1406
  987MOL0     C30166   2.543   7.460   7.807  0.0985 -0.0573 -0.1897
  987MOL0     C30167   2.412   7.522   7.815  1.6667  0.7765 -0.3547
  987MOL0     C30168   2.296   7.414   7.789 -0.2570  0.0609  0.5385
  987MOL0     N30169   2.259   7.407   7.648 -0.3409 -0.4362  0.3134
  987MOL0     C30170   2.297   7.307   7.558 -0.8927 -1.1008  0.5500
  987MOL0     C30171   2.199   7.308   7.463  0.1644  0.3202  0.4076
  987MOL0     C30172   2.170   7.201   7.354 -0.0270 -0.1184  0.0783
  987MOL0     C30173   2.268   7.212   7.235 -0.1237 -0.1230 -0.8685
  987MOL0     C30174   2.409   7.190   7.276 -0.2320 -0.3201 -0.3874
  987MOL0     C30175   2.497   7.126   7.165  0.0792 -0.0811  0.3216
  987MOL0     O30176   2.624   7.125   7.225 -0.0263  0.5021  0.4706
  987MOL0     C30177   2.701   7.012   7.210  0.2416 -0.1104 -0.8789
  987MOL0     C30178   2.684   6.907   7.119 -0.7733 -0.2694 -0.0868
  987MOL0     C30179   2.756   6.784   7.144 -0.1379 -0.2453  0.5969
  987MOL0     C30180   2.848   6.768   7.246 -0.6819  0.2013  0.2389
  987MOL0     C30181   2.924   6.643   7.257 -0.5994 -0.8465  0.4817
  987MOL0     O30182   3.029   6.656   7.337  0.1238 -0.0414  0.4193
  987MOL0     C30183   3.102   6.544   7.372 -0.0120  0.1940  0.1012
  987MOL0     C30184   3.148   6.448   7.279 -0.7333 -0.4109 -0.1888
  987MOL0     C30185   3.230   6.338   7.329 -0.5473 -0.5837 -0.7561
  987MOL0     C30186   3.266   6.336   7.466 -0.5229 -0.6420 -0.8129
  987MOL0     O30187   3.349   6.235   7.518  0.4121 -0.9825  0.4060
  987MOL0     C30188   3.477   6.214   7.450  0.0843 -0.0649 -0.1754
  987MOL0     C30189   3.586   6.218   7.566 -0.4630  1.0933  0.3433
  987MOL0     C30190   3.729   6.215   7.517 -0.0794  0.0992 -0.0650
  987MOL0     C30191   3.830   6.215   7.632 -0.0238 -0.7509  0.4611
  987MOL0     C30192   3.974   6.208   7.588 -0.1300  0.3193 -0.6327
  987MOL0     C30193   4.059   6.202   7.711 -0.0342  0.1307 -0.4686
  987MOL0     C30194   4.212   6.186   7.691  0.1422  0.7782  0.5581
  987MOL0     C30195   4.283   6.299   7.615 -0.0005 -0.5123 -0.6363
  987MOL0    Cl30196   4.266   6.450   7.702 -0.4101  0.2039  0.1384
  987MOL0     C30197   3.227   6.446   7.550 -0.5768  0.1248  0.1572
  987MOL0     C30198   3.145   6.541   7.495  0.6558  0.5392 -0.6658
  987MOL0     O30199   2.882   6.540   7.204  0.3899 -0.4911  0.2870
  987MOL0     C30200   2.872   6.875   7.326 -0.1374 -0.0867 -0.3211
  987MOL0     C30201   2.799   6.994   7.313 -0.1752 -0.4598  0.1059
  987MOL0     N30202   2.102   7.404   7.505 -0.2034 -0.1234 -0.5446
  987MOL0     N30203   2.152   7.470   7.599 -0.3703 -0.1184  0.5985
  987MOL0     C30204   3.413   7.733   7.881 -0.0488 -0.5809  0.0878
  987MOL0     C30205   3.540   7.791   7.865  0.4162  0.0645 -0.8175
  987MOL0     C30206   3.938   7.940   7.750 -0.3149 -0.1230  0.1850
  987MOL0     C30207   4.013   7.846   7.671  0.3148 -0.4302 -0.4580
  987MOL0     C30208   4.148   7.876   7.638 -0.2612 -0.1978 -0.1007
  987MOL0     C30209   4.214   7.990   7.697  0.4639 -0.5470  1.6580
  987MOL0     O30210   4.341   8.034   7.675  0.2802  0.4468  0.1612
  987MOL0     C30211   4.434   7.948   7.599  0.2093  0.3252 -0.2668
  987MOL0     C30212   4.577   7.988   7.654  0.3732  0.9400 -0.7415
  987MOL0     C30213   4.684   7.915   7.581 -0.4753  0.4536  0.7602
  987MOL0     C30214   4.687   7.763   7.598  0.1910 -0.5084 -0.1039
  987MOL0     C30215   4.815   7.703   7.548  0.2348 -0.5125 -0.2327
  987MOL0     C30216   4.912   7.641   7.506  0.4315 -0.2436 -0.2231
  987MOL0     C30217   4.139   8.083   7.764 -0.4306  0.3284  0.5534
  987MOL0     C30218   4.005   8.056   7.790 -0.3143 -1.0531 -0.1236
  987MOL0     H30219   3.661   7.615   7.616 -0.4030  2.6524 -1.3835
  987MOL0     H30220   3.413   7.510   7.619  0.0102 -0.6876  0.6105
  987MOL0     H30221   3.136   7.737   7.844  1.9207  1.5530  3.4149
  987MOL0     H30222   3.185   7.634   7.980 -2.1754 -1.3534  0.5614
  987MOL0     H30223   3.006   7.486   7.971 -1.7547  2.6398  1.5036
  987MOL0     H30224   3.026   7.459   7.806 -1.2091 -1.3104  1.7048
  987MOL0     H30225   2.908   7.662   7.749 -3.6285  0.4767 -1.5336
  987MOL0     H30226   2.871   7.683   7.922  0.7462  2.0490 -2.7851
  987MOL0     H30227   2.792   7.445   7.732 -3.2227  2.3786 -2.4179
  987MOL0     H30228   2.779   7.454   7.916  0.5561  2.2737  1.2956
  987MOL0     H30229   2.638   7.640   7.731  0.1262  0.6400  0.5101
  987MOL0     H30230   2.643   7.637   7.902  3.8147 -0.5605  1.2405
  987MOL0     H30231   2.563   7.394   7.892  0.4938  0.7737  0.3759
  987MOL0     H30232   2.540   7.403   7.714 -0.2569 -0.7415  0.2358
  987MOL0     H30233   2.397   7.568   7.913 -0.6127 -1.1390  0.2714
  987MOL0     H30234   2.395   7.605   7.745  0.2385  0.6032 -0.2448
  987MOL0     H30235   2.214   7.445   7.855 -1.4575  1.0235 -1.3353
  987MOL0     H30236   2.321   7.312   7.819 -1.1961 -0.2227  0.3698
  987MOL0     H30237   2.381   7.239   7.559  0.8259  0.9414  0.7053
  987MOL0     H30238   2.068   7.217   7.320 -0.6279 -0.5751  1.5657
  987MOL0     H30239   2.181   7.110   7.413  2.7016 -0.2166 -0.4434
  987MOL0     H30240   2.238   7.316   7.219  1.4503  0.9665  2.2997
  987MOL0     H30241   2.236   7.140   7.159  2.5680 -2.1444 -0.2442
  987MOL0     H30242   2.449   7.288   7.303  0.3761  0.5412 -3.8908
  987MOL0     H30243   2.404   7.116   7.357 -0.4037  2.5439  2.3910
  987MOL0     H30244   2.514   7.188   7.077 -1.7827  0.3865  0.2416
  987MOL0     H30245   2.466   7.024   7.139  0.2657 -0.6566  2.1985
  987MOL0     H30246   2.616   6.913   7.035 -3.2456  1.7240  1.8670
  987MOL0     H30247   2.757   6.701   7.074  3.3333  1.2594 -1.3977
  987MOL0     H30248   3.133   6.446   7.172  4.6988 -1.1874 -1.2310
  987MOL0     H30249   3.259   6.259   7.260 -1.3703  1.1428 -3.2140
  987MOL0     H30250   3.501   6.292   7.376  1.5219  0.2680  0.6144
  987MOL0     H30251   3.483   6.111   7.413  1.5574 -0.5151  1.2241
  987MOL0     H30252   3.570   6.145   7.646  0.0035  1.3680  0.6893
  987MOL0     H30253   3.568   6.311   7.620 -4.1534  0.2269  0.9036
  987MOL0     H30254   3.748   6.301   7.453  1.6910  0.3195  0.7244
  987MOL0     H30255   3.739   6.124   7.457  0.2616 -1.4008  2.1202
  987MOL0     H30256   3.817   6.307   7.690 -1.8035 -0.0412 -0.9775
  987MOL0     H30257   3.809   6.130   7.698 -1.6075 -0.3823  0.4839
  987MOL0     H30258   3.995   6.301   7.534  0.3777 -0.2664 -1.4738
  987MOL0     H30259   3.994   6.130   7.514 -2.5477 -0.0452 -0.9800
  987MOL0     H30260   4.033   6.115   7.772 -2.1669  0.0855 -1.3639
  987MOL0     H30261   4.036   6.283   7.781  2.2053  0.9920 -0.6327
  987MOL0     H30262   4.268   6.178   7.785  1.1669 -0.7687 -0.1526
  987MOL0     H30263   4.235   6.086   7.654 -0.3602  1.1423 -0.7822
  987MOL0     H30264   4.225   6.308   7.522 -2.8858  0.2267  1.0856
  987MOL0     H30265   4.386   6.276   7.587  0.2681 -0.3428  0.2001
  987MOL0     H30266   3.246   6.451   7.657 -1.1498 -2.0534  0.4148
  987MOL0     H30267   3.103   6.613   7.565  2.7063 -0.5801  1.9202
  987MOL0     H30268   2.937   6.868   7.412 -1.0254 -2.1438  0.2435
  987MOL0     H30269   2.806   7.075   7.385  3.7091 -0.7506  0.2238
  987MOL0     H30270   3.353   7.782   7.957  0.5088 -0.2513  0.3185
  987MOL0     H30271   3.580   7.868   7.930  0.2191  0.6707 -1.4017
  987MOL0     H30272   3.968   7.762   7.619  0.8191 -1.3132  0.5033
  987MOL0     H30273   4.200   7.800   7.581  1.7918  1.8281 -1.0753
  987MOL0     H30274   4.426   7.957   7.490  0.9992 -1.4366 -0.5170
  987MOL0     H30275   4.422   7.842   7.621  2.2206 -0.5462 -2.7956
  987MOL0     H30276   4.587   8.097   7.651 -0.8714  1.0416 -2.5808
  987MOL0     H30277   4.588   7.942   7.752  0.0235 -0.2029 -1.2213
  987MOL0     H30278   4.778   7.966   7.604 -1.1861  2.2731 -0.1942
  987MOL0     H30279   4.667   7.925   7.474  0.5321 -1.8579  0.3161
  987MOL0     H30280   4.695   7.738   7.704  2.4013 -3.7335 -0.8667
  987MOL0     H30281   4.595   7.715   7.562 -1.1429  1.6743  0.2607
  987MOL0     H30282   5.000   7.589   7.472  0.0967 -0.2310 -1.1320
  987MOL0     H30283   4.187   8.178   7.784 -1.7397  0.8309  1.4857
  987MOL0     H30284   3.953   8.134   7.844  1.2866 -2.8687  4.6149
  988MOL0     O30285   0.085   0.151   1.694  0.4911  0.1821 -0.0559
  988MOL0     C30286   0.155   0.088   1.609 -0.7930  0.7118  0.4138
  988MOL0     O30287   0.106   0.012   1.498  0.4814  1.3660  0.4191
  988MOL0     C30288  -0.029  -0.008   1.490 -0.2823 -0.2991 -0.5199
  988MOL0     C30289  -0.083  -0.111   1.571 -0.4054 -0.5074 -0.6327
  988MOL0     C30290  -0.225  -0.127   1.587 -0.6492 -0.3737  0.2239
  988MOL0     C30291  -0.305  -0.055   1.497  0.4790  0.1305  0.0837
  988MOL0     O30292  -0.440  -0.092   1.510  0.2493 -0.9131  0.1104
  988MOL0     C30293  -0.534   0.010   1.479 -1.0866  0.0767  0.3594
  988MOL0     C30294  -0.655  -0.007   1.572 -0.0158  0.5689  0.8042
  988MOL0     C30295  -0.695  -0.159   1.579  0.2224 -0.5625 -0.2767
  988MOL0     C30296  -0.828  -0.172   1.663 -0.5043  0.6605 -0.2580
  988MOL0     C30297  -0.860  -0.321   1.659 -0.1589  0.3359 -0.6143
  988MOL0     C30298  -0.977  -0.366   1.740  0.4752  0.3201  0.8564
  988MOL0     C30299  -0.957  -0.399   1.891  1.0281 -0.6918 -0.4983
  988MOL0     C30300  -1.007  -0.278   1.986 -0.5775  0.0443  0.0725
  988MOL0     N30301  -1.023  -0.324   2.127  0.2362 -0.6004  0.3762
  988MOL0     C30302  -1.134  -0.384   2.169 -1.0661 -0.0682 -0.0625
  988MOL0     C30303  -1.112  -0.430   2.290  0.2513  0.4465 -0.7764
  988MOL0     C30304  -1.215  -0.508   2.376 -0.0850  0.0559 -0.1640
  988MOL0     C30305  -1.345  -0.438   2.403 -1.0594  0.5622  0.0436
  988MOL0     C30306  -1.433  -0.499   2.515 -0.7237 -0.1851  0.3834
  988MOL0     C30307  -1.543  -0.401   2.560 -0.3072  0.1733 -0.7846
  988MOL0     O30308  -1.644  -0.390   2.457  0.0863  0.0708  0.1472
  988MOL0     C30309  -1.777  -0.358   2.477  0.9504  0.4793 -0.1939
  988MOL0     C30310  -1.839  -0.342   2.599  0.8789  0.4358  0.2628
  988MOL0     C30311  -1.978  -0.326   2.605  0.1292  0.4562 -0.8219
  988MOL0     C30312  -2.057  -0.319   2.492  0.0975  0.4703  0.3098
  988MOL0     C30313  -2.203  -0.309   2.496 -0.7015  0.5085  0.5426
  988MOL0     O30314  -2.276  -0.317   2.377  0.4003 -0.0495 -0.9781
  988MOL0     C30315  -2.413  -0.312   2.394  0.2612 -0.1574  0.3064
  988MOL0     C30316  -2.480  -0.192   2.375  0.4968 -0.7364  0.0121
  988MOL0     C30317  -2.616  -0.194   2.380 -0.3648  0.0059  0.1554
  988MOL0     C30318  -2.682  -0.310   2.407  1.2686  0.2153 -0.3117
  988MOL0     O30319  -2.816  -0.294   2.394  0.0213 -0.2290 -0.4734
  988MOL0     C30320  -2.901  -0.402   2.432  0.3741  0.0708 -0.3470
  988MOL0     C30321  -3.052  -0.364   2.402 -0.3665 -0.6379  0.2467
  988MOL0     C30322  -3.095  -0.243   2.496 -0.2933 -0.4060  0.2384
  988MOL0     C30323  -3.113  -0.287   2.641 -0.1272  0.2262  0.3196
  988MOL0     C30324  -3.199  -0.184   2.715  0.1599 -0.5475  0.5273
  988MOL0     C30325  -3.129  -0.048   2.733  0.0172 -0.7066  0.1165
  988MOL0     C30326  -3.004  -0.041   2.825 -0.0752 -0.5598  0.8848
  988MOL0     C30327  -2.969   0.091   2.876 -1.4667 -0.8456 -0.0859
  988MOL0    Cl30328  -2.808   0.108   2.956 -0.2534 -0.0438  0.3982
  988MOL0     C30329  -2.620  -0.430   2.428 -0.3724 -0.2462 -1.0228
  988MOL0     C30330  -2.483  -0.430   2.423  0.2025  0.2260 -0.8247
  988MOL0     O30331  -2.253  -0.305   2.605 -0.0792  0.6513 -0.1021
  988MOL0     C30332  -1.991  -0.332   2.369  0.5427 -0.7534  0.5063
  988MOL0     C30333  -1.857  -0.354   2.366 -0.4202 -0.4565 -0.1421
  988MOL0     N30334  -0.979  -0.396   2.324  0.6205 -0.0749 -0.4274
  988MOL0     N30335  -0.930  -0.337   2.224 -0.3305 -0.6714  0.7246
  988MOL0     C30336  -0.244   0.041   1.407  0.2351 -0.3646 -0.6348
  988MOL0     C30337  -0.107   0.070   1.407  0.4580 -0.0033 -0.2906
  988MOL0     C30338   0.301   0.115   1.616  0.1878 -1.5752  0.4791
  988MOL0     C30339   0.387   0.072   1.506  0.4623 -0.1427  0.3304
  988MOL0     C30340   0.516   0.126   1.498  0.5156  0.1317 -0.9908
  988MOL0     C30341   0.570   0.199   1.613 -0.1018 -0.1931  0.6335
  988MOL0     O30342   0.702   0.243   1.626  0.7082 -0.4398  0.1713
  988MOL0     C30343   0.794   0.244   1.522  0.0353  0.1801  0.2157
  988MOL0     C30344   0.763   0.356   1.420  0.0872 -0.0714 -0.0620
  988MOL0     C30345   0.885   0.389   1.322 -0.0332 -0.2445  0.6490
  988MOL0     C30346   0.928   0.264   1.241  0.1360  0.4373  0.3011
  988MOL0     C30347   0.811   0.212   1.169  0.0752  0.1506 -0.0230
  988MOL0     C30348   0.706   0.160   1.132  0.6969 -0.4326  0.5435
  988MOL0     C30349   0.488   0.228   1.720  0.4915  0.2545 -0.1156
  988MOL0     C30350   0.352   0.189   1.720  0.6309 -0.0789  0.1442
  988MOL0     H30351  -0.023  -0.182   1.627 -1.6284 -0.8253  0.3227
  988MOL0     H30352  -0.267  -0.181   1.671 -0.7095 -0.9745 -0.1879
  988MOL0     H30353  -0.563  -0.013   1.376 -3.1982  0.1866  0.8840
  988MOL0     H30354  -0.502   0.114   1.484  1.8457 -0.6434 -0.9620
  988MOL0     H30355  -0.739   0.055   1.540  0.7224  2.3497  2.1371
  988MOL0     H30356  -0.632   0.026   1.674 -0.1994  0.5989  0.8364
  988MOL0     H30357  -0.612  -0.215   1.622  1.0745  1.1715  0.4650
  988MOL0     H30358  -0.711  -0.193   1.476  0.4911 -1.2352 -0.1013
  988MOL0     H30359  -0.813  -0.126   1.761  2.1804  1.7530 -1.0708
  988MOL0     H30360  -0.902  -0.109   1.612  0.0692  3.2041  1.7954
  988MOL0     H30361  -0.773  -0.383   1.683 -1.4342 -1.5489 -0.6350
  988MOL0     H30362  -0.887  -0.354   1.558 -0.4905 -0.1772 -0.3632
  988MOL0     H30363  -1.017  -0.458   1.696 -1.8678  0.8256  1.7824
  988MOL0     H30364  -1.056  -0.291   1.734 -1.1102 -1.1257  2.6111
  988MOL0     H30365  -1.014  -0.491   1.909  0.1291  0.1068  0.9325
  988MOL0     H30366  -0.856  -0.440   1.905  0.8481 -1.1647 -0.5575
  988MOL0     H30367  -1.101  -0.240   1.946 -0.2250 -0.1629 -0.9949
  988MOL0     H30368  -0.931  -0.200   1.978 -0.6931  0.1501 -0.0148
  988MOL0     H30369  -1.230  -0.389   2.118 -1.1909  1.0076  0.0346
  988MOL0     H30370  -1.173  -0.527   2.476 -0.0489  1.6418  0.1480
  988MOL0     H30371  -1.223  -0.610   2.336  2.6134 -1.1864  2.0985
  988MOL0     H30372  -1.395  -0.421   2.307  0.6686  1.9973 -0.6704
  988MOL0     H30373  -1.313  -0.339   2.438  0.1393 -0.3632  1.6518
  988MOL0     H30374  -1.470  -0.593   2.475 -1.1876 -0.3165  1.1071
  988MOL0     H30375  -1.359  -0.514   2.594 -0.4053  0.2703  0.1809
  988MOL0     H30376  -1.504  -0.301   2.580 -0.0973  0.3627 -2.0475
  988MOL0     H30377  -1.584  -0.432   2.657 -0.3604  1.4535 -0.3822
  988MOL0     H30378  -1.784  -0.356   2.692  1.7111  0.4272 -0.2261
  988MOL0     H30379  -2.020  -0.320   2.705  4.2406 -0.3760  1.1895
  988MOL0     H30380  -2.432  -0.108   2.328 -2.0035  0.0462 -1.3401
  988MOL0     H30381  -2.666  -0.101   2.353 -0.3698  0.3954  1.4463
  988MOL0     H30382  -2.884  -0.431   2.537  3.0379 -0.5376 -0.8758
  988MOL0     H30383  -2.881  -0.494   2.377  1.0549 -0.7300  1.1581
  988MOL0     H30384  -3.109  -0.457   2.413 -0.6977 -0.3243  1.3186
  988MOL0     H30385  -3.059  -0.340   2.296  0.5410 -1.2067  0.0525
  988MOL0     H30386  -3.193  -0.205   2.466  0.6955  1.6168 -0.5768
  988MOL0     H30387  -3.022  -0.163   2.480 -2.6816  1.5351 -1.8520
  988MOL0     H30388  -3.161  -0.384   2.645 -0.6240  0.4728  0.3550
  988MOL0     H30389  -3.016  -0.303   2.689  0.6060  2.5735 -0.2318
  988MOL0     H30390  -3.224  -0.216   2.817 -2.3487  1.5420  0.6569
  988MOL0     H30391  -3.294  -0.172   2.663  1.2179  1.1602 -1.1235
  988MOL0     H30392  -3.198   0.018   2.787 -1.6950 -2.0604 -0.3318
  988MOL0     H30393  -3.111  -0.005   2.634 -0.5457  2.3478  1.2199
  988MOL0     H30394  -3.019  -0.110   2.908  0.0711 -1.5835  0.0861
  988MOL0     H30395  -2.927  -0.090   2.764 -3.2310 -0.5055 -3.6522
  988MOL0     H30396  -3.043   0.118   2.952 -2.9120 -1.6119 -1.1700
  988MOL0     H30397  -2.972   0.165   2.795  2.4675  0.2495  0.5944
  988MOL0     H30398  -2.668  -0.519   2.468 -1.0918  0.5003 -0.1813
  988MOL0     H30399  -2.426  -0.518   2.450  0.9473  0.9857  0.1267
  988MOL0     H30400  -2.044  -0.336   2.274  0.5944  0.4959  0.4083
  988MOL0     H30401  -1.809  -0.357   2.268 -0.5804 -1.1514 -0.2033
  988MOL0     H30402  -0.290   0.100   1.328  1.9349  2.0274  0.0671
  988MOL0     H30403  -0.062   0.153   1.353  0.2578  0.6501  0.5375
  988MOL0     H30404   0.354   0.012   1.422 -2.2521  1.3832  0.1737
  988MOL0     H30405   0.573   0.108   1.407 -1.7381  3.4046 -3.2469
  988MOL0     H30406   0.803   0.155   1.458 -1.3754  1.7128 -2.2706
  988MOL0     H30407   0.896   0.269   1.551  1.5752 -1.6961 -3.0375
  988MOL0     H30408   0.674   0.333   1.359  0.1294  0.2119 -0.2301
  988MOL0     H30409   0.747   0.448   1.476 -0.5764  0.1162 -0.5352
  988MOL0     H30410   0.975   0.433   1.367  0.6148  3.2838 -3.4685
  988MOL0     H30411   0.842   0.467   1.258 -1.4971 -0.7623  0.9786
  988MOL0     H30412   1.001   0.298   1.166 -0.3421 -1.2275 -0.9636
  988MOL0     H30413   0.971   0.179   1.294  0.8919 -0.5622 -1.7992
  988MOL0     H30414   0.610   0.147   1.086  0.8956 -0.8489  0.2373
  988MOL0     H30415   0.521   0.293   1.801 -1.0433 -2.0618  2.5877
  988MOL0     H30416   0.290   0.232   1.797 -0.2250  2.5907 -1.9043
  989MOL0     O30417  10.752   7.810  11.019  1.3741  0.1651 -0.9201
  989MOL0     C30418  10.769   7.835  11.144 -0.1899  0.6038  0.7822
  989MOL0     O30419  10.664   7.839  11.231  0.9011 -0.6516  0.5888
  989MOL0     C30420  10.538   7.816  11.182 -0.2260 -0.5738 -0.3101
  989MOL0     C30421  10.438   7.913  11.198  0.3374 -0.3330 -0.9008
  989MOL0     C30422  10.307   7.886  11.159  0.1976  0.0634 -0.2469
  989MOL0     C30423  10.277   7.764  11.106  0.5384 -0.7135 -0.3913
  989MOL0     O30424  10.153   7.728  11.059  0.0720 -0.6375  0.0783
  989MOL0     C30425  10.040   7.822  11.062  0.7982 -0.3576 -0.9207
  989MOL0     C30426   9.912   7.744  11.078  0.4247  0.2357  0.5735
  989MOL0     C30427   9.887   7.647  10.962 -0.3831 -0.5296 -0.4349
  989MOL0     C30428   9.748   7.578  10.984  0.5371 -0.4669 -0.4138
  989MOL0     C30429   9.701   7.489  10.871  0.2133  0.3585  0.1193
  989MOL0     C30430   9.574   7.409  10.902 -0.6320 -0.1167  0.1887
  989MOL0     C30431   9.526   7.329  10.773 -0.6993  0.2644 -0.3007
  989MOL0     C30432   9.390   7.274  10.797  0.1123 -0.5994  0.3455
  989MOL0     N30433   9.396   7.164  10.896 -0.2287 -0.7606 -0.1480
  989MOL0     C30434   9.442   7.043  10.864 -0.3267  0.0695  0.5891
  989MOL0     C30435   9.409   6.964  10.973 -0.0621 -0.3025  0.2729
  989MOL0     C30436   9.439   6.816  10.995 -0.0149 -0.3505  0.5702
  989MOL0     C30437   9.322   6.722  10.966 -0.2656  0.3458 -0.0216
  989MOL0     C30438   9.373   6.578  10.927 -0.2659 -0.2442 -0.0797
  989MOL0     C30439   9.411   6.549  10.782  0.4867 -0.8916  0.6017
  989MOL0     O30440   9.471   6.418  10.780  0.2127 -0.6538  0.4798
  989MOL0     C30441   9.508   6.371  10.655  0.6764  1.2982 -1.5462
  989MOL0     C30442   9.567   6.451  10.557  0.4983 -0.0763  0.2793
  989MOL0     C30443   9.595   6.392  10.430 -0.2222  0.1017  0.0604
  989MOL0     C30444   9.575   6.259  10.400  0.9883  0.6045  0.0803
  989MOL0     C30445   9.628   6.202  10.281  0.0872  0.1451 -0.1711
  989MOL0     O30446   9.708   6.275  10.190 -0.3538  0.1451  0.2120
  989MOL0     C30447   9.751   6.207  10.080 -0.5425  0.2520  0.3594
  989MOL0     C30448   9.652   6.174   9.985 -0.2713 -0.0955 -0.6453
  989MOL0     C30449   9.692   6.087   9.886 -0.0498  0.3728 -0.2200
  989MOL0     C30450   9.832   6.048   9.867 -0.1633  0.4787 -0.8791
  989MOL0     O30451   9.868   5.960   9.769 -0.9936  0.0482  0.1227
  989MOL0     C30452   9.808   5.975   9.639  0.4048  0.0078 -0.4365
  989MOL0     C30453   9.849   5.854   9.549 -0.1713  0.3976 -0.3044
  989MOL0     C30454   9.986   5.881   9.499 -0.1072  0.1027 -0.1289
  989MOL0     C30455  10.052   5.766   9.430  0.8628 -0.0933  0.0064
  989MOL0     C30456  10.129   5.661   9.513 -0.5570 -0.5997 -0.5695
  989MOL0     C30457  10.240   5.727   9.600 -0.3026  1.1708 -0.5597
  989MOL0     C30458  10.362   5.641   9.630  0.2966  0.1671  0.3646
  989MOL0     C30459  10.475   5.731   9.687  0.2328  0.4200  0.4549
  989MOL0    Cl30460  10.622   5.632   9.717 -0.0876 -0.4064  0.3604
  989MOL0     C30461   9.927   6.100   9.960  0.3375  0.0665 -0.0953
  989MOL0     C30462   9.882   6.178  10.063 -0.6223  0.3305 -0.6968
  989MOL0     O30463   9.602   6.083  10.259  0.4264  0.5762 -0.7606
  989MOL0     C30464   9.516   6.179  10.506 -0.4689 -0.1782  0.0773
  989MOL0     C30465   9.473   6.238  10.620  0.7445 -0.7089 -0.5341
  989MOL0     N30466   9.334   7.042  11.064 -0.8503  0.0820 -1.4750
  989MOL0     N30467   9.344   7.167  11.018  0.2885  0.0868 -0.0499
  989MOL0     C30468  10.376   7.667  11.091 -0.0594 -0.3062  0.7114
  989MOL0     C30469  10.506   7.694  11.126  0.9971  0.1774 -0.2595
  989MOL0     C30470  10.906   7.856  11.188 -0.4447  0.4724  0.8331
  989MOL0     C30471  10.933   7.893  11.320  0.0001  0.4955  0.7031
  989MOL0     C30472  11.067   7.913  11.359 -0.5569 -0.0672 -0.5139
  989MOL0     C30473  11.173   7.902  11.274 -0.0136 -0.5692  0.1520
  989MOL0     O30474  11.296   7.943  11.323  0.0270 -0.5603 -0.3529
  989MOL0     C30475  11.403   7.985  11.241 -0.3472 -0.0376  0.7283
  989MOL0     C30476  11.493   7.866  11.220 -0.9498  0.2979  0.1353
  989MOL0     C30477  11.598   7.902  11.113  0.5224  0.1086 -0.1494
  989MOL0     C30478  11.696   7.791  11.074 -0.1226 -0.2152 -0.0998
  989MOL0     C30479  11.810   7.779  11.166 -0.2805  0.4243  0.2032
  989MOL0     C30480  11.898   7.760  11.244  0.0888 -0.1144  0.0355
  989MOL0     C30481  11.148   7.855  11.143 -0.1985 -0.4778 -0.5143
  989MOL0     C30482  11.017   7.822  11.104 -0.3249 -0.4395  0.0474
  989MOL0     H30483  10.466   8.006  11.245  0.3178  0.1904 -1.8927
  989MOL0     H30484  10.232   7.963  11.156 -1.0838 -1.0437  1.4136
  989MOL0     H30485  10.034   7.878  10.968 -3.1053 -0.5357 -0.9412
  989MOL0     H30486  10.045   7.889  11.148  3.5585 -0.9195 -0.5582
  989MOL0     H30487   9.833   7.820  11.074  1.0214  0.9650  1.8450
  989MOL0     H30488   9.915   7.691  11.173  1.6238 -1.6400 -0.4518
  989MOL0     H30489   9.967   7.572  10.962  1.2133  1.0830  0.4429
  989MOL0     H30490   9.881   7.704  10.869  0.3775  1.5797  0.7257
  989MOL0     H30491   9.749   7.521  11.077 -4.3800 -0.3479 -0.0519
  989MOL0     H30492   9.672   7.652  11.012  2.6044  2.4714 -1.9332
  989MOL0     H30493   9.785   7.424  10.846 -0.9763 -0.9769 -0.5209
  989MOL0     H30494   9.686   7.550  10.782  0.9871  0.2457 -0.0997
  989MOL0     H30495   9.493   7.478  10.928 -0.1477  0.7996 -0.6424
  989MOL0     H30496   9.579   7.340  10.986 -4.8613  0.8884  1.4709
  989MOL0     H30497   9.522   7.398  10.688  4.2469  0.9541 -0.2429
  989MOL0     H30498   9.596   7.247  10.756 -3.3863 -1.7743 -2.2862
  989MOL0     H30499   9.352   7.246  10.699  0.5997 -0.4281  0.1002
  989MOL0     H30500   9.320   7.347  10.838  1.2743  0.8938 -0.2182
  989MOL0     H30501   9.497   7.011  10.776  0.4906 -0.2391  1.2014
  989MOL0     H30502   9.468   6.802  11.100  3.3616 -1.9202 -0.4436
  989MOL0     H30503   9.523   6.788  10.932 -1.2298 -1.2006 -0.7140
  989MOL0     H30504   9.264   6.757  10.880  0.9263 -0.8410 -1.3751
  989MOL0     H30505   9.269   6.709  11.060 -1.5086  0.9546 -0.6182
  989MOL0     H30506   9.458   6.561  10.995 -0.8385 -1.1123  0.4448
  989MOL0     H30507   9.307   6.498  10.963  0.7056 -1.6581 -1.2731
  989MOL0     H30508   9.478   6.628  10.748 -0.8893  0.4149  0.7954
  989MOL0     H30509   9.321   6.554  10.720  0.9007 -0.2190  0.0526
  989MOL0     H30510   9.593   6.555  10.577 -1.3690  0.6696 -0.9527
  989MOL0     H30511   9.653   6.441  10.352  2.2612 -1.4945  0.7945
  989MOL0     H30512   9.550   6.207   9.999 -0.4685  0.6355 -3.2294
  989MOL0     H30513   9.616   6.041   9.824  0.3102 -0.3810 -0.1140
  989MOL0     H30514   9.851   6.065   9.595  2.7433 -0.7590  0.1021
  989MOL0     H30515   9.699   5.977   9.649  0.4974  1.8417  0.6418
  989MOL0     H30516   9.775   5.848   9.469 -1.8136  1.5041  1.0720
  989MOL0     H30517   9.849   5.762   9.609  1.1900 -0.7474 -1.9357
  989MOL0     H30518  10.046   5.905   9.587  1.5615  2.4393 -1.7641
  989MOL0     H30519   9.983   5.971   9.437  1.7242  0.3740  0.1307
  989MOL0     H30520   9.969   5.723   9.374 -1.0240  2.0925  0.9295
  989MOL0     H30521  10.121   5.808   9.356  1.7848  0.7579  1.3045
  989MOL0     H30522  10.171   5.581   9.451  0.0421  0.3149 -1.3828
  989MOL0     H30523  10.051   5.614   9.573  1.4287  0.1225  2.8164
  989MOL0     H30524  10.186   5.756   9.691  0.2222  1.6458 -0.3961
  989MOL0     H30525  10.279   5.818   9.554  1.1031 -0.1258 -2.0466
  989MOL0     H30526  10.314   5.576   9.704 -2.5833  2.6138  0.8178
  989MOL0     H30527  10.398   5.591   9.540  1.0952  1.6837 -0.1837
  989MOL0     H30528  10.444   5.787   9.775 -3.5084 -3.4452  1.9662
  989MOL0     H30529  10.507   5.805   9.613  2.3327 -1.0100 -0.1540
  989MOL0     H30530  10.034   6.082   9.951  0.6220  1.1348  0.8191
  989MOL0     H30531   9.951   6.218  10.137  0.4074 -1.9546 -0.3036
  989MOL0     H30532   9.489   6.076  10.487  0.1304 -0.2243 -0.5945
  989MOL0     H30533   9.417   6.174  10.688 -2.1628 -0.9226 -2.9513
  989MOL0     H30534  10.345   7.576  11.041  1.7200 -1.1276  1.0050
  989MOL0     H30535  10.582   7.618  11.112  0.7861  0.0725 -0.8686
  989MOL0     H30536  10.864   7.903  11.403  1.2884  0.4924  1.8185
  989MOL0     H30537  11.087   7.963  11.454 -0.4471  1.9996 -1.5649
  989MOL0     H30538  11.461   8.067  11.285 -0.0678  2.0514 -3.1039
  989MOL0     H30539  11.360   8.032  11.152 -0.5263 -1.7218 -0.1184
  989MOL0     H30540  11.551   7.831  11.306  2.2849  3.0962 -0.6918
  989MOL0     H30541  11.432   7.786  11.176  3.2735 -1.1666 -3.9569
  989MOL0     H30542  11.647   7.990  11.154 -0.0947 -0.1397  1.1846
  989MOL0     H30543  11.548   7.938  11.023  0.4032 -0.9389 -0.5104
  989MOL0     H30544  11.631   7.704  11.059  1.1042 -0.7416 -3.1513
  989MOL0     H30545  11.730   7.831  10.978  3.2639 -0.1137  1.0372
  989MOL0     H30546  11.980   7.751  11.313 -2.0302  0.7763  2.8827
  989MOL0     H30547  11.227   7.838  11.071  0.9273 -2.4542  1.1017
  989MOL0     H30548  11.004   7.798  10.999 -0.0552  0.0770 -0.1105
  990MOL0     O30549  10.915  10.393   0.059  0.2887 -0.0627 -0.1069
  990MOL0     C30550  10.921  10.443   0.166  0.0490  0.3224 -0.0950
  990MOL0     O30551  11.028  10.506   0.218 -0.4267  0.7921  0.5456
  990MOL0     C30552  11.155  10.502   0.164 -0.9227 -0.3683 -0.3573
  990MOL0     C30553  11.202  10.399   0.078  0.7217 -0.0212 -0.1882
  990MOL0     C30554  11.336  10.401   0.028  0.0122 -0.2493  0.5516
  990MOL0     C30555  11.429  10.498   0.074  0.4572 -0.4289 -0.1338
  990MOL0     O30556  11.555  10.490   0.030 -0.0092  0.2345  0.4100
  990MOL0     C30557  11.646  10.573   0.094 -1.6291  0.3866 -0.1211
  990MOL0     C30558  11.787  10.519   0.059  0.0819 -0.1122 -0.7597
  990MOL0     C30559  11.809  10.517  -0.094 -0.3684  0.8575 -0.2412
  990MOL0     C30560  11.932  10.433  -0.131 -0.4904  0.0472  0.6684
  990MOL0     C30561  11.966  10.440  -0.276  0.3982  0.1746  0.3144
  990MOL0     C30562  12.097  10.375  -0.305 -0.1475  0.3979 -0.3339
  990MOL0     C30563  12.211  10.474  -0.304 -0.4819 -0.3263 -0.2835
  990MOL0     C30564  12.343  10.396  -0.325 -0.1364 -0.4993 -0.4016
  990MOL0     N30565  12.362  10.285  -0.226  0.7347 -0.6196  0.1557
  990MOL0     C30566  12.340  10.155  -0.258 -0.6561 -0.6843 -0.4999
  990MOL0     C30567  12.341  10.090  -0.142  0.3819  0.0480  1.2246
  990MOL0     C30568  12.305   9.942  -0.125  0.2497  0.9583 -0.3983
  990MOL0     C30569  12.154   9.932  -0.095  0.3414  0.0573 -0.2170
  990MOL0     C30570  12.061   9.965  -0.226 -0.1469  0.4905  0.1944
  990MOL0     C30571  11.917   9.918  -0.202 -0.4765  0.0616  0.3521
  990MOL0     O30572  11.855  10.002  -0.105 -0.7616  0.7016 -0.1571
  990MOL0     C30573  11.732   9.967  -0.069  0.2540 -0.2096 -0.5583
  990MOL0     C30574  11.667   9.841  -0.093  0.5541 -0.5260  0.2078
  990MOL0     C30575  11.538   9.815  -0.036 -0.5558  0.0096  0.2177
  990MOL0     C30576  11.479   9.916   0.050  0.4182  0.3557 -0.3225
  990MOL0     C30577  11.344   9.890   0.103 -0.3652  0.4534  0.2176
  990MOL0     O30578  11.252   9.990   0.096  0.6008 -0.3842 -0.8010
  990MOL0     C30579  11.126   9.972   0.146 -0.1910  0.3828 -0.6780
  990MOL0     C30580  11.054  10.080   0.205  0.2313 -0.8237  0.7714
  990MOL0     C30581  10.927  10.075   0.255 -0.1036 -0.3240  0.9361
  990MOL0     C30582  10.860   9.955   0.243  0.0942 -0.2873  0.0563
  990MOL0     O30583  10.743   9.949   0.304  0.0994 -0.3343 -0.0828
  990MOL0     C30584  10.651   9.842   0.269 -0.7767  0.1549 -0.3710
  990MOL0     C30585  10.505   9.859   0.308  0.3158  0.3306 -0.1691
  990MOL0     C30586  10.473  10.008   0.321  0.8855 -0.6774  0.5687
  990MOL0     C30587  10.319  10.015   0.317  0.7533  0.9267 -0.4896
  990MOL0     C30588  10.270  10.159   0.312  0.8385 -0.6121 -0.3961
  990MOL0     C30589  10.117  10.151   0.336 -0.5859 -0.6016  0.0161
  990MOL0     C30590  10.044  10.287   0.311 -0.5305 -0.2639  0.7864
  990MOL0     C30591   9.885  10.285   0.307 -1.0307 -0.3963  0.4515
  990MOL0    Cl30592   9.837  10.450   0.273  0.2157 -0.1514  0.2338
  990MOL0     C30593  10.917   9.844   0.179 -0.7379  0.0350  0.5523
  990MOL0     C30594  11.053   9.855   0.133 -1.0151 -0.1139  0.1434
  990MOL0     O30595  11.327   9.772   0.142 -0.0653 -0.6463 -0.0629
  990MOL0     C30596  11.539  10.043   0.054  0.2049  0.2751  0.3876
  990MOL0     C30597  11.666  10.062   0.013  0.0157 -0.1512 -0.7334
  990MOL0     N30598  12.365  10.178  -0.036  0.0589 -0.4682 -0.3481
  990MOL0     N30599  12.372  10.292  -0.095  0.3132 -0.9746 -0.0424
  990MOL0     C30600  11.380  10.594   0.168 -0.3873  0.3528  0.3396
  990MOL0     C30601  11.248  10.593   0.206 -0.5532 -0.0944 -0.4985
  990MOL0     C30602  10.798  10.450   0.247  0.0094  0.3367 -0.3116
  990MOL0     C30603  10.669  10.426   0.198 -1.2867  0.2215 -0.5209
  990MOL0     C30604  10.552  10.457   0.266 -0.0040  0.5872 -0.1941
  990MOL0     C30605  10.569  10.506   0.395  0.0668  0.2153 -0.5848
  990MOL0     O30606  10.464  10.536   0.475  0.8947  0.3632  0.8017
  990MOL0     C30607  10.340  10.583   0.421 -0.7954 -0.2074 -0.3337
  990MOL0     C30608  10.243  10.630   0.536  0.0553  0.2224 -0.4615
  990MOL0     C30609  10.148  10.743   0.498  0.4530  0.4247 -0.1665
  990MOL0     C30610  10.031  10.686   0.415 -0.4708  0.7866  0.5780
  990MOL0     C30611   9.936  10.785   0.381 -0.0111  0.6008  0.9649
  990MOL0     C30612   9.868  10.883   0.361  0.6759  0.0558 -0.1488
  990MOL0     C30613  10.694  10.515   0.457  0.8080  0.4629 -0.6861
  990MOL0     C30614  10.806  10.484   0.382  0.0673  0.1998 -0.2957
  990MOL0     H30615  11.137  10.321   0.040  0.7447 -0.5396  0.8148
  990MOL0     H30616  11.377  10.331  -0.044  1.4259 -0.8550  1.8762
  990MOL0     H30617  11.644  10.568   0.203 -0.3759  3.1336  0.1042
  990MOL0     H30618  11.630  10.677   0.065  0.4130  0.8997  0.4398
  990MOL0     H30619  11.796  10.414   0.087  1.2935 -0.0697 -0.9013
  990MOL0     H30620  11.865  10.583   0.102  1.3700 -1.7689 -0.5210
  990MOL0     H30621  11.814  10.618  -0.136 -4.0836  0.8922 -1.0004
  990MOL0     H30622  11.727  10.473  -0.152  0.5621  0.2488 -1.1292
  990MOL0     H30623  12.014  10.483  -0.077 -0.5682  1.2795 -0.3146
  990MOL0     H30624  11.920  10.329  -0.101  3.5814 -0.6007  0.6347
  990MOL0     H30625  11.966  10.543  -0.312 -0.5085 -0.7511 -2.5380
  990MOL0     H30626  11.885  10.392  -0.331  1.4266 -0.4867 -0.6695
  990MOL0     H30627  12.101  10.334  -0.407 -1.9400 -1.9800  0.4575
  990MOL0     H30628  12.113  10.298  -0.229 -1.5604  0.0787 -0.3315
  990MOL0     H30629  12.206  10.550  -0.382  0.1419 -2.5408 -2.6402
  990MOL0     H30630  12.206  10.538  -0.216 -0.5332  4.5947 -3.5270
  990MOL0     H30631  12.423  10.467  -0.301  0.1961 -1.3376  1.1207
  990MOL0     H30632  12.343  10.358  -0.427  0.3358  0.8224 -0.9244
  990MOL0     H30633  12.314  10.127  -0.359 -2.8637  3.4454 -1.2957
  990MOL0     H30634  12.355   9.895  -0.039 -2.9191 -0.8663  0.6181
  990MOL0     H30635  12.324   9.879  -0.212 -3.5196 -1.1300  0.0595
  990MOL0     H30636  12.126   9.997  -0.011  3.0879 -1.2059  1.8025
  990MOL0     H30637  12.136   9.829  -0.064  0.2549  0.7217  2.1753
  990MOL0     H30638  12.072  10.072  -0.245 -0.5781  0.5297  0.1365
  990MOL0     H30639  12.092   9.903  -0.310 -0.1576 -2.1864  2.0508
  990MOL0     H30640  11.927   9.811  -0.179  3.4504 -0.2006 -1.6880
  990MOL0     H30641  11.876   9.921  -0.303  0.0119 -1.3695  0.0825
  990MOL0     H30642  11.722   9.769  -0.152  0.9942 -1.3705  1.6143
  990MOL0     H30643  11.484   9.723  -0.054 -3.1854  1.5581 -0.3961
  990MOL0     H30644  11.121  10.165   0.216  2.9354 -2.8081  0.6298
  990MOL0     H30645  10.886  10.164   0.303  0.1155  1.5693 -2.1617
  990MOL0     H30646  10.694   9.748   0.304 -1.0760  0.9957  2.4811
  990MOL0     H30647  10.651   9.832   0.160  1.3997  1.4534 -0.5318
  990MOL0     H30648  10.497   9.802   0.401  1.9347 -0.9155 -0.7382
  990MOL0     H30649  10.443   9.807   0.235  2.4070  1.4979 -2.9706
  990MOL0     H30650  10.507  10.059   0.230 -0.5363 -1.9406 -0.7233
  990MOL0     H30651  10.525  10.065   0.399  2.4697 -1.7462  0.3332
  990MOL0     H30652  10.269   9.952   0.243 -1.1049  1.7979 -0.0345
  990MOL0     H30653  10.278   9.975   0.411  1.1440  0.0052 -0.6987
  990MOL0     H30654  10.288  10.201   0.212 -2.0440  1.7170 -0.0881
  990MOL0     H30655  10.320  10.215   0.392  0.2887  2.5911 -2.1054
  990MOL0     H30656  10.089  10.111   0.434  1.0430 -0.2101  0.6670
  990MOL0     H30657  10.082  10.080   0.260  2.9628 -2.6958  0.1548
  990MOL0     H30658  10.079  10.354   0.390 -0.2417  1.2342 -0.5555
  990MOL0     H30659  10.094  10.319   0.219  0.5574 -0.3559  1.3299
  990MOL0     H30660   9.859  10.245   0.405 -0.6391 -0.3414  0.5804
  990MOL0     H30661   9.839  10.224   0.229 -1.5232  0.4828  0.0426
  990MOL0     H30662  10.864   9.751   0.163 -1.7912  1.0688 -2.7013
  990MOL0     H30663  11.099   9.784   0.066 -0.7904  1.5010 -1.4644
  990MOL0     H30664  11.476  10.120   0.098  0.4728  0.2940  0.7343
  990MOL0     H30665  11.707  10.160   0.033  1.8476 -1.5607  3.6424
  990MOL0     H30666  11.454  10.661   0.212  0.0355 -1.1205  1.9993
  990MOL0     H30667  11.217  10.673   0.272 -1.4963  0.1925 -1.2653
  990MOL0     H30668  10.662  10.384   0.098  0.8553 -1.3471 -0.0659
  990MOL0     H30669  10.457  10.452   0.213  0.3139  2.7434 -1.0837
  990MOL0     H30670  10.278  10.507   0.373 -2.6658  0.6786  0.5340
  990MOL0     H30671  10.364  10.664   0.351  0.5441 -0.8968 -0.6978
  990MOL0     H30672  10.190  10.538   0.562  0.9460 -1.3054 -3.5679
  990MOL0     H30673  10.302  10.665   0.620 -0.9689  0.6801  0.0889
  990MOL0     H30674  10.188  10.816   0.428  0.4091 -1.2592 -2.0083
  990MOL0     H30675  10.114  10.790   0.591  0.3847  0.3479 -0.1520
  990MOL0     H30676  10.073  10.645   0.322  0.1889  0.0702  1.1804
  990MOL0     H30677   9.986  10.605   0.472 -1.3177  1.0948  0.3553
  990MOL0     H30678   9.801  10.965   0.344 -0.4461 -1.0103 -1.1027
  990MOL0     H30679  10.702  10.556   0.557 -2.6862  1.5462 -0.7084
  990MOL0     H30680  10.902  10.496   0.431  0.2007  0.2748 -0.5691
  991MOL0     O30681  10.578   0.800   8.721  0.5710  0.3911 -0.0208
  991MOL0     C30682  10.661   0.810   8.820  0.3566 -0.2925 -0.6554
  991MOL0     O30683  10.632   0.768   8.956 -0.0622 -0.5833 -0.5831
  991MOL0     C30684  10.503   0.721   8.982  1.1337  0.0916  0.6949
  991MOL0     C30685  10.480   0.591   9.008 -0.7294 -0.2438 -0.3262
  991MOL0     C30686  10.355   0.549   9.041  0.6076  0.3732  0.4567
  991MOL0     C30687  10.246   0.637   9.033  0.0182  0.1686 -0.5911
  991MOL0     O30688  10.130   0.582   9.079  0.3320  0.5788  0.4211
  991MOL0     C30689  10.046   0.664   9.162 -0.3942 -0.5254 -0.7087
  991MOL0     C30690   9.953   0.563   9.231  0.4981  0.6579  0.5232
  991MOL0     C30691   9.839   0.646   9.285  0.2809 -0.0319 -0.0182
  991MOL0     C30692   9.736   0.571   9.353  0.7166  0.5057 -0.2501
  991MOL0     C30693   9.612   0.531   9.269 -0.5252 -0.6564  0.1787
  991MOL0     C30694   9.508   0.444   9.349  0.2301  0.6530 -0.6039
  991MOL0     C30695   9.560   0.310   9.417 -0.2372 -0.1662 -0.6513
  991MOL0     C30696   9.638   0.229   9.313  0.2347 -0.1331 -0.3357
  991MOL0     N30697   9.570   0.201   9.188  0.1939 -0.0736 -1.1133
  991MOL0     C30698   9.633   0.188   9.064 -0.8436  0.5375 -0.7503
  991MOL0     C30699   9.538   0.152   8.979 -0.0753  0.4638 -0.9338
  991MOL0     C30700   9.567   0.111   8.841  0.0756  0.1728  0.5021
  991MOL0     C30701   9.611  -0.036   8.821 -0.2089 -0.5740  0.5532
  991MOL0     C30702   9.683  -0.081   8.688  0.0064 -0.0320  0.5060
  991MOL0     C30703   9.657  -0.232   8.661 -0.5897 -0.2332 -0.3395
  991MOL0     O30704   9.779  -0.285   8.605 -0.0132 -0.1946  0.6463
  991MOL0     C30705   9.887  -0.326   8.678  0.0834 -0.1816 -0.9480
  991MOL0     C30706   9.994  -0.378   8.609 -0.7664 -0.2148  0.0757
  991MOL0     C30707  10.118  -0.411   8.678 -0.2684  0.3344  0.1737
  991MOL0     C30708  10.117  -0.413   8.818  0.3902 -0.3762  0.3673
  991MOL0     C30709  10.236  -0.473   8.890  0.3733  0.7705  0.6406
  991MOL0     O30710  10.343  -0.504   8.818 -0.0438 -0.3046 -0.3847
  991MOL0     C30711  10.452  -0.568   8.858  0.1519 -1.3956 -0.6341
  991MOL0     C30712  10.544  -0.589   8.762 -0.1723  0.6769  0.2596
  991MOL0     C30713  10.671  -0.650   8.787  0.7707  0.5055 -0.3039
  991MOL0     C30714  10.701  -0.697   8.914 -0.1368  0.4284  0.8412
  991MOL0     O30715  10.822  -0.765   8.938 -0.0815 -0.2414  0.5521
  991MOL0     C30716  10.937  -0.686   8.910 -0.9486 -0.1881  0.4750
  991MOL0     C30717  11.062  -0.736   8.978  0.3078 -0.7305 -0.5326
  991MOL0     C30718  11.155  -0.625   9.028  0.2321 -0.1160  0.3824
  991MOL0     C30719  11.296  -0.667   9.072 -0.4627  0.8339  0.7559
  991MOL0     C30720  11.375  -0.536   9.131  0.0925  0.4300  0.4778
  991MOL0     C30721  11.520  -0.586   9.158  0.9831 -0.5569 -0.0494
  991MOL0     C30722  11.596  -0.473   9.224 -0.0821  0.5552  0.0294
  991MOL0     C30723  11.717  -0.532   9.304 -0.4619 -0.2742  0.5589
  991MOL0    Cl30724  11.815  -0.386   9.328  0.2812  0.0168 -0.1716
  991MOL0     C30725  10.618  -0.670   9.016  0.2307  0.6624 -0.1836
  991MOL0     C30726  10.493  -0.606   8.991  1.2415  0.9185  1.0941
  991MOL0     O30727  10.222  -0.494   9.011 -0.0993  0.4646  0.1676
  991MOL0     C30728  10.005  -0.360   8.887  0.6555  0.6116  0.0156
  991MOL0     C30729   9.889  -0.312   8.820 -0.2005 -0.3390  0.4563
  991MOL0     N30730   9.421   0.135   9.056 -0.2936 -0.8329  0.5412
  991MOL0     N30731   9.437   0.162   9.176 -0.0940 -0.5170 -0.4003
  991MOL0     C30732  10.264   0.771   8.993  0.1119  0.0745 -0.6979
  991MOL0     C30733  10.394   0.816   8.982  0.7691 -0.9752  0.0226
  991MOL0     C30734  10.786   0.880   8.794  0.4961 -0.1215  0.0396
  991MOL0     C30735  10.880   0.888   8.886 -0.7607  0.4100 -0.5259
  991MOL0     C30736  11.007   0.921   8.862  0.0253 -0.3222 -0.7132
  991MOL0     C30737  11.045   0.979   8.744  0.7386 -0.1032 -0.8786
  991MOL0     O30738  11.168   1.011   8.706 -0.2072 -0.1003  0.4765
  991MOL0     C30739  11.265   1.008   8.811 -0.2675 -0.9952  0.8189
  991MOL0     C30740  11.385   1.097   8.761  0.2942 -0.6522  1.0391
  991MOL0     C30741  11.487   1.121   8.872  0.5362  0.6406 -0.7859
  991MOL0     C30742  11.594   1.229   8.826 -0.4218  0.7261 -0.2336
  991MOL0     C30743  11.669   1.174   8.713 -0.4312  0.0239  0.6220
  991MOL0     C30744  11.732   1.116   8.624 -0.1438 -0.0725 -0.2009
  991MOL0     C30745  10.945   1.001   8.644  0.2010  0.2132  0.1870
  991MOL0     C30746  10.813   0.950   8.668 -1.4516  0.0319 -0.3755
  991MOL0     H30747  10.565   0.524   9.017 -1.6315 -1.3261  0.2105
  991MOL0     H30748  10.331   0.447   9.069 -1.1302  0.6920  0.2261
  991MOL0     H30749  10.006   0.749   9.107  0.9286  2.5856  2.6928
  991MOL0     H30750  10.100   0.710   9.245 -0.3831 -1.9875  0.1318
  991MOL0     H30751   9.999   0.510   9.315 -0.1563  0.8539  1.0087
  991MOL0     H30752   9.916   0.493   9.155  1.1573  0.1097  0.6964
  991MOL0     H30753   9.794   0.706   9.205  1.4551  2.4569  1.1071
  991MOL0     H30754   9.886   0.716   9.354  1.1061 -1.6926  1.1861
  991MOL0     H30755   9.781   0.478   9.390 -0.8537 -0.8765 -1.6647
  991MOL0     H30756   9.701   0.633   9.436 -1.2133 -0.4208 -0.3285
  991MOL0     H30757   9.645   0.477   9.181 -1.4559 -0.5256 -0.2609
  991MOL0     H30758   9.566   0.622   9.230  0.0476 -1.1833 -1.8068
  991MOL0     H30759   9.428   0.431   9.276  1.2626  0.5505 -1.7630
  991MOL0     H30760   9.474   0.513   9.427  0.8840 -0.3126  0.5614
  991MOL0     H30761   9.637   0.332   9.491  3.2734  0.4808 -4.1959
  991MOL0     H30762   9.480   0.253   9.466  1.8256 -2.0282  0.7741
  991MOL0     H30763   9.645   0.134   9.366  1.8108  1.1134  1.9017
  991MOL0     H30764   9.736   0.277   9.303 -0.5931  1.5071 -0.9323
  991MOL0     H30765   9.739   0.204   9.045 -0.1685 -1.7621  0.6507
  991MOL0     H30766   9.640   0.187   8.811  1.9561 -1.9356 -0.5775
  991MOL0     H30767   9.473   0.129   8.788  0.2212  0.6632  0.4093
  991MOL0     H30768   9.528  -0.101   8.849 -1.3892  0.8990  0.6029
  991MOL0     H30769   9.690  -0.047   8.895  1.7009  3.5615 -0.5526
  991MOL0     H30770   9.648  -0.020   8.604  1.6059  0.7518  0.3604
  991MOL0     H30771   9.790  -0.060   8.699  0.6527 -3.6168  2.9845
  991MOL0     H30772   9.573  -0.250   8.594  1.0243 -1.3325 -2.2206
  991MOL0     H30773   9.636  -0.279   8.758  0.1643  5.1613  2.8235
  991MOL0     H30774   9.972  -0.393   8.504 -1.5271 -3.5418  0.5827
  991MOL0     H30775  10.196  -0.460   8.621 -0.4198 -1.0845  1.1221
  991MOL0     H30776  10.514  -0.562   8.661 -1.3860 -0.2628  0.3483
  991MOL0     H30777  10.735  -0.665   8.701 -0.0677  3.1629 -1.5208
  991MOL0     H30778  10.913  -0.585   8.945  0.9736 -0.0898  1.6861
  991MOL0     H30779  10.945  -0.702   8.802  0.0942 -0.0796  0.5296
  991MOL0     H30780  11.113  -0.800   8.904 -1.3542  0.4788 -2.8495
  991MOL0     H30781  11.029  -0.788   9.069 -1.5133 -1.6027 -1.6283
  991MOL0     H30782  11.106  -0.571   9.110  0.5722  2.0932 -0.7775
  991MOL0     H30783  11.167  -0.559   8.941 -1.2869 -0.5526 -0.1920
  991MOL0     H30784  11.292  -0.745   9.148  0.4059  0.1422  0.1125
  991MOL0     H30785  11.345  -0.704   8.981 -3.5974  0.4448 -0.9209
  991MOL0     H30786  11.326  -0.504   9.223 -0.4699 -0.5053  0.5167
  991MOL0     H30787  11.372  -0.451   9.063 -1.0332  0.4801  0.5781
  991MOL0     H30788  11.577  -0.611   9.068  2.0156  0.4134  0.3094
  991MOL0     H30789  11.512  -0.672   9.224  0.6956 -0.8767 -0.4959
  991MOL0     H30790  11.636  -0.395   9.158  1.6206  0.7395  1.2136
  991MOL0     H30791  11.536  -0.415   9.296 -1.3896 -2.5793  1.6508
  991MOL0     H30792  11.764  -0.604   9.236 -1.4100 -0.6714  0.2987
  991MOL0     H30793  11.679  -0.580   9.395 -1.9108  0.7221  0.5198
  991MOL0     H30794  10.634  -0.711   9.115 -2.4501  1.1817  0.5434
  991MOL0     H30795  10.430  -0.581   9.076  2.9621 -0.8826  2.9699
  991MOL0     H30796  10.009  -0.370   8.995 -1.7253  1.0102  0.1828
  991MOL0     H30797   9.807  -0.279   8.883  0.4625 -0.7228  1.5439
  991MOL0     H30798  10.182   0.837   8.969  0.4440  0.1490 -1.6562
  991MOL0     H30799  10.420   0.920   8.965  0.7845  0.1525  5.4050
  991MOL0     H30800  10.869   0.855   8.989  0.1059 -0.6100 -0.7396
  991MOL0     H30801  11.079   0.913   8.943 -1.7558 -0.1319  0.9688
  991MOL0     H30802  11.304   0.911   8.842  2.4040  0.5807  2.8245
  991MOL0     H30803  11.231   1.052   8.905  0.8199  3.1095 -0.5007
  991MOL0     H30804  11.437   1.045   8.681 -0.8960 -1.4233  0.7453
  991MOL0     H30805  11.343   1.191   8.725  0.9109  0.1943  2.4278
  991MOL0     H30806  11.522   1.022   8.903 -3.3406 -1.4294 -2.3261
  991MOL0     H30807  11.426   1.160   8.955 -0.2352 -2.5257  0.2679
  991MOL0     H30808  11.551   1.323   8.790 -1.2033  0.1983 -0.7189
  991MOL0     H30809  11.672   1.253   8.900 -0.8226  0.3878  0.3048
  991MOL0     H30810  11.784   1.056   8.552  2.5459  1.6636  0.1234
  991MOL0     H30811  10.968   1.053   8.552 -0.1956  0.4258  0.2035
  991MOL0     H30812  10.742   0.950   8.586  0.9766 -1.1750 -2.6327
  992MOL0     O30813   0.766  10.990   2.395  0.0628  0.3606  0.0858
  992MOL0     C30814   0.824  10.887   2.373  0.9855 -0.0801  0.2009
  992MOL0     O30815   0.773  10.778   2.316  0.4697 -0.4504 -0.3161
  992MOL0     C30816   0.639  10.763   2.275 -0.7920 -0.3507 -0.5873
  992MOL0     C30817   0.557  10.864   2.213  0.4463 -0.0201 -0.0978
  992MOL0     C30818   0.433  10.834   2.165  0.0618  0.3344 -0.4973
  992MOL0     C30819   0.378  10.711   2.181 -0.1940  0.6315 -0.1957
  992MOL0     O30820   0.249  10.693   2.141 -0.8593  0.0654 -0.5792
  992MOL0     C30821   0.224  10.577   2.059  0.0187  1.7360 -0.3084
  992MOL0     C30822   0.077  10.549   2.033  0.0663 -0.0366 -0.4477
  992MOL0     C30823   0.005  10.530   2.166 -0.4459 -1.3105  0.6462
  992MOL0     C30824  -0.140  10.513   2.150  0.6295 -0.0142 -1.0432
  992MOL0     C30825  -0.207  10.511   2.292  0.4487 -0.2458  1.2054
  992MOL0     C30826  -0.241  10.651   2.347  0.4248  0.0919  0.3771
  992MOL0     C30827  -0.265  10.636   2.496 -0.2343 -0.3068 -0.9075
  992MOL0     C30828  -0.304  10.760   2.563  0.1008  0.4153  0.1993
  992MOL0     N30829  -0.254  10.776   2.706  0.2641 -0.7531  0.3609
  992MOL0     C30830  -0.201  10.888   2.759 -0.9921  0.2434 -0.5342
  992MOL0     C30831  -0.168  10.871   2.888 -0.6498  0.4955 -0.5941
  992MOL0     C30832  -0.117  10.971   2.992 -0.3425 -0.2378  0.7650
  992MOL0     C30833   0.005  11.054   2.943  0.6811  0.1462  0.5064
  992MOL0     C30834   0.131  10.969   2.950  0.0994 -0.7085 -0.4668
  992MOL0     C30835   0.250  11.055   2.900  0.8382 -0.7567 -0.2248
  992MOL0     O30836   0.365  11.004   2.970 -0.1170 -0.3596  0.0838
  992MOL0     C30837   0.493  11.043   2.951  0.1294  0.0076 -0.0370
  992MOL0     C30838   0.526  11.154   2.867  0.4663  0.2411  0.0684
  992MOL0     C30839   0.657  11.197   2.840  0.1630  0.4755  0.3462
  992MOL0     C30840   0.756  11.129   2.902  0.2743  0.1903  0.0664
  992MOL0     C30841   0.898  11.174   2.877  0.0780 -0.4350 -0.2347
  992MOL0     O30842   0.994  11.131   2.972  0.2602  0.5344  0.4917
  992MOL0     C30843   1.128  11.147   2.954 -0.4261 -0.5494 -0.3624
  992MOL0     C30844   1.209  11.050   3.005  0.4967  0.5384 -0.0280
  992MOL0     C30845   1.339  11.060   3.006 -0.1303  0.0307 -0.3264
  992MOL0     C30846   1.406  11.162   2.939 -0.5190 -0.0245  0.4033
  992MOL0     O30847   1.539  11.147   2.920 -0.6060  0.7912  0.0018
  992MOL0     C30848   1.609  11.262   2.859  0.3598 -0.4786  0.0143
  992MOL0     C30849   1.756  11.218   2.842  0.0322 -0.5570 -0.1886
  992MOL0     C30850   1.844  11.336   2.797 -0.2376  0.6257  0.5694
  992MOL0     C30851   1.984  11.282   2.792  0.2615  0.6378  0.2678
  992MOL0     C30852   2.090  11.382   2.763 -0.6248  0.3319  0.3041
  992MOL0     C30853   2.227  11.334   2.799 -0.0809  0.1115 -0.6607
  992MOL0     C30854   2.269  11.209   2.713  0.5316 -0.9144 -0.7835
  992MOL0     C30855   2.390  11.254   2.625  0.5120 -0.4512 -0.3329
  992MOL0    Cl30856   2.459  11.104   2.544  0.0176 -0.4339 -0.0767
  992MOL0     C30857   1.327  11.274   2.891  0.4323 -0.0419 -0.7001
  992MOL0     C30858   1.184  11.267   2.902  0.2269  0.3389  0.0079
  992MOL0     O30859   0.922  11.236   2.775  0.0277  0.8651  0.3211
  992MOL0     C30860   0.727  11.028   3.004  0.7598  0.2942  0.6130
  992MOL0     C30861   0.594  10.979   3.021 -0.1105 -0.2954 -0.2154
  992MOL0     N30862  -0.210  10.740   2.908 -0.4503  0.2532 -0.0043
  992MOL0     N30863  -0.255  10.684   2.797  0.1601  0.3759  0.5915
  992MOL0     C30864   0.458  10.610   2.233  0.5157 -0.4992 -0.1775
  992MOL0     C30865   0.585  10.638   2.284 -0.0648 -0.7403  0.4347
  992MOL0     C30866   0.964  10.894   2.418 -0.5448  0.0874 -1.1573
  992MOL0     C30867   1.002  10.983   2.519 -0.5579 -0.5345  0.4451
  992MOL0     C30868   1.119  10.969   2.590  0.1495 -0.8537  0.1848
  992MOL0     C30869   1.209  10.868   2.542  0.6599 -0.8552  0.5217
  992MOL0     O30870   1.329  10.838   2.600  0.5637  0.1700 -0.0999
  992MOL0     C30871   1.422  10.944   2.580  0.0045  0.0204  0.4849
  992MOL0     C30872   1.525  10.904   2.471 -0.3547  0.4099  0.9785
  992MOL0     C30873   1.660  10.975   2.490  0.6065 -0.5767  0.9346
  992MOL0     C30874   1.652  11.126   2.453  0.0401 -0.4640 -0.5439
  992MOL0     C30875   1.784  11.195   2.454  0.2348 -0.8891  0.6093
  992MOL0     C30876   1.899  11.240   2.439 -0.3455 -0.5359 -0.2690
  992MOL0     C30877   1.174  10.776   2.443 -1.4642 -0.1149 -0.1833
  992MOL0     C30878   1.052  10.793   2.374  1.1439 -0.0140 -0.5270
  992MOL0     H30879   0.593  10.966   2.201 -1.3295  0.6229 -0.1483
  992MOL0     H30880   0.369  10.913   2.126  2.6983  2.5993 -0.5414
  992MOL0     H30881   0.267  10.484   2.098 -0.9917 -0.2568 -3.5743
  992MOL0     H30882   0.269  10.579   1.959 -0.7453 -1.4114 -0.8057
  992MOL0     H30883   0.078  10.458   1.973 -0.5823  1.0578 -2.2179
  992MOL0     H30884   0.031  10.617   1.960  2.6054 -0.6446 -2.7663
  992MOL0     H30885   0.012  10.621   2.226 -1.4705  0.0858 -1.2507
  992MOL0     H30886   0.054  10.455   2.229  0.3257  0.5641  2.3972
  992MOL0     H30887  -0.185  10.594   2.092  2.2699  1.3359 -0.5018
  992MOL0     H30888  -0.160  10.422   2.093 -0.4444 -1.3307  1.2944
  992MOL0     H30889  -0.144  10.458   2.365 -0.4623 -1.9788  0.7918
  992MOL0     H30890  -0.310  10.476   2.278 -0.1456  2.5166 -3.6201
  992MOL0     H30891  -0.327  10.688   2.289 -1.8931 -1.6778  2.4637
  992MOL0     H30892  -0.160  10.724   2.339 -0.5821  1.2117 -0.0465
  992MOL0     H30893  -0.334  10.555   2.521 -2.8344  1.3297 -2.3879
  992MOL0     H30894  -0.168  10.618   2.543  0.2154  0.3312 -1.5572
  992MOL0     H30895  -0.414  10.768   2.567 -0.3225 -2.9483 -1.4259
  992MOL0     H30896  -0.260  10.835   2.498 -1.3291  0.3094 -0.9394
  992MOL0     H30897  -0.190  10.979   2.700 -2.5639  0.5052 -0.4717
  992MOL0     H30898  -0.081  10.919   3.082  4.0268 -0.9188 -1.1181
  992MOL0     H30899  -0.199  11.038   3.019  0.7954  1.2798  0.5966
  992MOL0     H30900   0.017  11.136   3.013  0.6420 -1.5952  2.6493
  992MOL0     H30901   0.002  11.094   2.841  0.7384 -1.3019 -0.0901
  992MOL0     H30902   0.149  10.937   3.053 -0.2882 -1.6898 -0.6850
  992MOL0     H30903   0.119  10.877   2.892 -0.5902 -0.3594 -0.8869
  992MOL0     H30904   0.239  11.161   2.925  2.5935 -0.4439 -0.5897
  992MOL0     H30905   0.272  11.043   2.793  0.4606  1.2303 -0.5641
  992MOL0     H30906   0.452  11.202   2.803 -0.4625 -0.8978  0.2541
  992MOL0     H30907   0.679  11.288   2.786 -4.0384  0.6468 -1.4830
  992MOL0     H30908   1.168  10.958   3.046 -0.3571  0.8250 -0.2285
  992MOL0     H30909   1.400  10.990   3.062 -0.9761 -0.6530 -0.2234
  992MOL0     H30910   1.599  11.353   2.918 -2.9812 -0.6106 -0.2058
  992MOL0     H30911   1.564  11.288   2.763 -0.5682 -0.1568  0.5288
  992MOL0     H30912   1.751  11.129   2.778 -1.9894  0.9059 -2.2374
  992MOL0     H30913   1.795  11.199   2.942  1.0804  1.3458 -0.1882
  992MOL0     H30914   1.832  11.424   2.860 -0.5807  1.9229 -1.2083
  992MOL0     H30915   1.814  11.360   2.694  0.3301 -0.8073  0.0356
  992MOL0     H30916   2.002  11.247   2.894 -0.5126 -2.3545 -0.5359
  992MOL0     H30917   1.982  11.195   2.727 -1.0302 -0.0942  1.2371
  992MOL0     H30918   2.065  11.473   2.819 -1.2373 -0.5377  1.5061
  992MOL0     H30919   2.094  11.413   2.659  0.5208 -0.8504 -0.0335
  992MOL0     H30920   2.219  11.308   2.905  4.7607 -0.1094 -0.1234
  992MOL0     H30921   2.302  11.414   2.791 -0.8490  0.8462 -0.6046
  992MOL0     H30922   2.303  11.134   2.785 -0.1869  0.0016  0.5593
  992MOL0     H30923   2.191  11.178   2.643  0.3030 -0.7339 -0.6119
  992MOL0     H30924   2.472  11.298   2.683  0.0382  0.1920 -0.1448
  992MOL0     H30925   2.359  11.326   2.549  2.0722 -1.2406 -1.7906
  992MOL0     H30926   1.364  11.357   2.833 -0.2145 -0.8589 -2.3653
  992MOL0     H30927   1.121  11.353   2.882  1.2772  0.7561 -1.6541
  992MOL0     H30928   0.815  10.986   3.051  0.2680  0.1999  1.4764
  992MOL0     H30929   0.572  10.897   3.089  3.7757  1.1720  3.2780
  992MOL0     H30930   0.419  10.509   2.234  1.3715 -0.8414 -0.4300
  992MOL0     H30931   0.646  10.555   2.320  0.6861  0.1845  1.3315
  992MOL0     H30932   0.937  11.059   2.560 -0.2691  0.3513 -0.6788
  992MOL0     H30933   1.148  11.035   2.671 -2.2628 -0.9390  1.2295
  992MOL0     H30934   1.472  10.966   2.675 -0.7482  0.4859  0.7785
  992MOL0     H30935   1.377  11.040   2.552  2.4680  1.2635  0.4852
  992MOL0     H30936   1.537  10.796   2.474 -0.8903  0.3367  0.6124
  992MOL0     H30937   1.501  10.941   2.370 -0.5014 -2.3936 -0.1065
  992MOL0     H30938   1.735  10.932   2.424  0.2858 -1.1668  0.9506
  992MOL0     H30939   1.689  10.974   2.595 -1.6450 -1.1907  1.6117
  992MOL0     H30940   1.616  11.130   2.350  2.1879 -0.9756 -1.3882
  992MOL0     H30941   1.589  11.183   2.521 -0.5110 -0.3395 -1.1490
  992MOL0     H30942   2.000  11.270   2.426  0.1078 -1.3522  1.1221
  992MOL0     H30943   1.242  10.695   2.419  0.7740  1.3050  0.9640
  992MOL0     H30944   1.035  10.717   2.298  1.7670  0.3905 -1.0781
  993MOL0     O30945   5.996   9.363   5.847 -0.2868 -0.1026  0.1469
  993MOL0     C30946   5.990   9.412   5.737 -0.0238 -0.2364 -0.1718
  993MOL0     O30947   5.919   9.517   5.706  0.3624 -0.3646  0.4847
  993MOL0     C30948   5.838   9.563   5.807  0.8433  0.6072 -0.3803
  993MOL0     C30949   5.708   9.519   5.825 -0.2572  0.2923 -0.1669
  993MOL0     C30950   5.625   9.583   5.915  0.8486  0.0259 -0.5872
  993MOL0     C30951   5.669   9.679   6.005 -0.0267 -0.3718  0.3058
  993MOL0     O30952   5.591   9.740   6.092 -0.1046 -0.0635 -0.4449
  993MOL0     C30953   5.645   9.823   6.199 -0.4422 -0.0089 -0.5324
  993MOL0     C30954   5.535   9.874   6.292  0.4337  0.2628 -0.6531
  993MOL0     C30955   5.461   9.984   6.224  1.0091 -0.5287  0.3779
  993MOL0     C30956   5.345  10.054   6.302 -0.8146  0.0933  0.1636
  993MOL0     C30957   5.268  10.150   6.224 -1.1386 -0.2591  0.3347
  993MOL0     C30958   5.156  10.207   6.305 -0.3259  0.9213  0.6974
  993MOL0     C30959   5.088  10.327   6.228 -0.9379 -0.1774 -0.2063
  993MOL0     C30960   4.957  10.361   6.306  0.5187  0.1313  0.5724
  993MOL0     N30961   4.883  10.477   6.252  0.7533  0.2606  0.4385
  993MOL0     C30962   4.753  10.515   6.285 -0.0333  0.7031  0.7527
  993MOL0     C30963   4.752  10.644   6.264 -0.6767 -0.4633  0.0016
  993MOL0     C30964   4.633  10.730   6.270 -0.3500  0.1721 -0.6243
  993MOL0     C30965   4.550  10.743   6.144  0.2300 -1.1506  0.3973
  993MOL0     C30966   4.456  10.866   6.149 -0.2759 -0.1507 -0.1200
  993MOL0     C30967   4.344  10.862   6.041 -0.5455  0.4094 -1.0734
  993MOL0     O30968   4.240  10.940   6.101 -0.1381  0.0926  0.1980
  993MOL0     C30969   4.126  10.930   6.018  0.1044 -0.0804 -0.5557
  993MOL0     C30970   4.130  10.906   5.878 -0.0946  0.0308 -0.2926
  993MOL0     C30971   4.013  10.917   5.809 -0.4375 -0.2924  0.3247
  993MOL0     C30972   3.885  10.928   5.870  0.4129  1.0695 -0.8609
  993MOL0     C30973   3.755  10.933   5.794 -0.3110  0.3581  0.4781
  993MOL0     O30974   3.639  10.978   5.852 -0.6661  0.4207  0.4772
  993MOL0     C30975   3.533  10.987   5.775  0.2088  0.6501 -0.0172
  993MOL0     C30976   3.519  11.077   5.667  0.5590 -1.1045 -0.3708
  993MOL0     C30977   3.390  11.107   5.614 -0.7512  0.2991 -0.2882
  993MOL0     C30978   3.279  11.048   5.661 -0.0816 -0.0195  0.4761
  993MOL0     O30979   3.160  11.093   5.606 -0.1230  0.0754  0.1732
  993MOL0     C30980   3.044  11.009   5.630 -0.7388 -0.5661 -0.4356
  993MOL0     C30981   2.931  11.059   5.537 -0.0370 -0.0984  0.2540
  993MOL0     C30982   2.802  10.999   5.569 -0.0879  0.1556 -0.7713
  993MOL0     C30983   2.684  11.072   5.509  0.4421 -0.0674  0.3619
  993MOL0     C30984   2.675  11.084   5.356  0.3494 -0.9455  0.2664
  993MOL0     C30985   2.556  11.170   5.314 -0.7347 -0.3102 -0.2785
  993MOL0     C30986   2.428  11.098   5.337  0.6078  0.3118  0.3176
  993MOL0     C30987   2.312  11.178   5.284  0.1966 -0.7420 -0.5986
  993MOL0    Cl30988   2.167  11.069   5.305 -0.1692  0.2169  0.6236
  993MOL0     C30989   3.300  10.951   5.760  0.2272  0.1099  0.0507
  993MOL0     C30990   3.418  10.922   5.819 -0.8151 -0.6309  0.0983
  993MOL0     O30991   3.765  10.904   5.678 -0.0938 -0.2082  0.4302
  993MOL0     C30992   3.881  10.936   6.013 -0.3305  0.5866  1.0817
  993MOL0     C30993   4.005  10.948   6.087 -1.0653 -0.1829 -0.6139
  993MOL0     N30994   4.877  10.686   6.223 -0.2370  0.1191 -0.0047
  993MOL0     N30995   4.955  10.586   6.218  0.6139 -0.4223  0.0219
  993MOL0     C30996   5.812   9.704   5.995  0.4577  0.3631 -0.6659
  993MOL0     C30997   5.885   9.650   5.896 -0.5927  0.2983  0.0742
  993MOL0     C30998   6.083   9.368   5.623  0.1801  0.0558  0.4488
  993MOL0     C30999   6.106   9.453   5.512 -0.0443 -0.2984  1.1962
  993MOL0     C31000   6.206   9.414   5.416 -0.2855 -0.0739  0.5316
  993MOL0     C31001   6.284   9.300   5.433 -0.2522 -0.3361 -0.4624
  993MOL0     O31002   6.371   9.263   5.331 -0.3352 -0.2489 -0.1342
  993MOL0     C31003   6.441   9.139   5.342 -0.0578 -0.1766 -0.0889
  993MOL0     C31004   6.455   9.072   5.204 -0.1185  0.1688  0.1332
  993MOL0     C31005   6.573   9.112   5.123 -0.6396 -0.2493  0.3315
  993MOL0     C31006   6.611   9.019   5.008 -0.0906  0.4379  0.0910
  993MOL0     C31007   6.500   8.980   4.918  1.1385 -0.9093 -0.5033
  993MOL0     C31008   6.404   8.961   4.853  0.0843 -0.6773  0.1782
  993MOL0     C31009   6.277   9.234   5.555  0.6068  0.8179  1.1619
  993MOL0     C31010   6.178   9.264   5.648  0.1977 -0.2349 -0.3719
  993MOL0     H31011   5.658   9.444   5.765  0.8028  0.2629 -1.0283
  993MOL0     H31012   5.522   9.547   5.916  1.1406 -0.9647  2.0566
  993MOL0     H31013   5.698   9.909   6.156 -0.1551 -0.1533 -0.4707
  993MOL0     H31014   5.722   9.762   6.248  2.0533  1.9990 -1.7468
  993MOL0     H31015   5.584   9.911   6.382 -0.3265  0.4864 -0.3219
  993MOL0     H31016   5.467   9.802   6.340 -2.2668  0.6094 -3.5909
  993MOL0     H31017   5.418   9.927   6.142  1.4778 -1.3192  0.6719
  993MOL0     H31018   5.531  10.058   6.186 -0.3883  1.2003  1.0326
  993MOL0     H31019   5.280   9.980   6.349 -0.2498 -0.8155 -0.4462
  993MOL0     H31020   5.404  10.102   6.381  0.7822  0.2810 -1.1016
  993MOL0     H31021   5.222  10.096   6.141 -0.0378  0.2608 -0.6435
  993MOL0     H31022   5.337  10.227   6.188  0.0726  0.1991  3.2876
  993MOL0     H31023   5.200  10.249   6.396 -0.2168  6.2738 -1.4615
  993MOL0     H31024   5.087  10.128   6.336 -1.6745  1.9575  0.4514
  993MOL0     H31025   5.156  10.413   6.227  0.8709 -1.5537 -1.2661
  993MOL0     H31026   5.086  10.308   6.120 -0.2502  1.1870 -0.4880
  993MOL0     H31027   4.981  10.386   6.409  3.1746  0.2177  0.0137
  993MOL0     H31028   4.897  10.270   6.297 -0.5253  0.8066  0.6335
  993MOL0     H31029   4.674  10.446   6.312  2.9936 -3.7786 -0.7058
  993MOL0     H31030   4.665  10.827   6.310 -2.7615 -0.4068  3.2686
  993MOL0     H31031   4.568  10.693   6.350  0.3703  2.2774  1.0456
  993MOL0     H31032   4.498  10.650   6.121 -3.2497  1.3809 -3.5007
  993MOL0     H31033   4.614  10.770   6.060 -0.0020 -1.6264  0.0628
  993MOL0     H31034   4.411  10.852   6.247 -0.9566 -2.8707 -0.7393
  993MOL0     H31035   4.511  10.961   6.148  3.0218 -1.9318 -0.6966
  993MOL0     H31036   4.324  10.757   6.015  0.6959  0.5815 -2.9385
  993MOL0     H31037   4.387  10.916   5.956  0.6043 -0.1830 -0.9005
  993MOL0     H31038   4.219  10.891   5.819 -0.6635 -1.8456 -0.7386
  993MOL0     H31039   4.033  10.912   5.702  3.8170  0.9271  0.9023
  993MOL0     H31040   3.601  11.139   5.631  0.4567 -0.4269  0.5361
  993MOL0     H31041   3.379  11.177   5.532  4.3212 -0.0224 -1.5645
  993MOL0     H31042   3.008  11.016   5.733  4.2387  1.5963  1.4979
  993MOL0     H31043   3.050  10.900   5.617  0.6011 -0.4525 -0.9318
  993MOL0     H31044   2.973  11.014   5.446  1.6230 -0.0513  0.9614
  993MOL0     H31045   2.924  11.167   5.528 -0.7770 -0.0921  0.8241
  993MOL0     H31046   2.796  10.987   5.678 -0.1092 -0.1161 -0.8009
  993MOL0     H31047   2.803  10.898   5.526 -0.9175  0.4539 -1.5057
  993MOL0     H31048   2.595  11.020   5.545  0.8493 -1.0800 -0.0435
  993MOL0     H31049   2.689  11.171   5.555  2.1148 -0.0294  0.1860
  993MOL0     H31050   2.683  10.990   5.301  2.9360  0.9536 -2.9758
  993MOL0     H31051   2.764  11.140   5.328 -0.3917  0.8370  1.2962
  993MOL0     H31052   2.574  11.207   5.212  2.4597  1.7673  0.8806
  993MOL0     H31053   2.566  11.265   5.367  1.1807 -0.2590 -0.6602
  993MOL0     H31054   2.428  10.999   5.290 -2.6626  1.0162 -1.4852
  993MOL0     H31055   2.413  11.086   5.445 -2.0112  0.2332  0.0034
  993MOL0     H31056   2.324  11.196   5.176 -1.7243 -0.9232 -0.8776
  993MOL0     H31057   2.299  11.274   5.334 -0.8099 -0.8145 -0.7022
  993MOL0     H31058   3.214  10.904   5.807 -0.8724  0.7249 -1.2885
  993MOL0     H31059   3.431  10.864   5.909  0.9688  0.4675  0.6094
  993MOL0     H31060   3.782  10.947   6.056 -1.9721 -3.2191 -1.2124
  993MOL0     H31061   3.999  10.966   6.194 -2.1031 -0.8255 -0.5486
  993MOL0     H31062   5.872   9.767   6.059 -1.4495  1.8138 -0.1966
  993MOL0     H31063   5.987   9.685   5.885 -0.6956  0.5023 -0.2236
  993MOL0     H31064   6.052   9.541   5.480  0.1892 -0.6388 -0.1916
  993MOL0     H31065   6.229   9.475   5.329 -0.0418 -0.2460  0.4735
  993MOL0     H31066   6.384   9.070   5.405  2.3553 -1.7085  0.5461
  993MOL0     H31067   6.538   9.147   5.392  0.4941 -0.5006 -1.0840
  993MOL0     H31068   6.462   8.966   5.230 -1.3176  0.3411  1.2435
  993MOL0     H31069   6.362   9.075   5.146  0.2086 -1.4464 -0.5386
  993MOL0     H31070   6.669   9.111   5.175 -0.5549  0.9285  0.2265
  993MOL0     H31071   6.562   9.213   5.084  1.6258 -0.4961 -1.1094
  993MOL0     H31072   6.692   9.067   4.952  1.4904 -0.6150  1.3674
  993MOL0     H31073   6.643   8.918   5.038  0.2654  0.4915 -0.0907
  993MOL0     H31074   6.310   8.938   4.807 -0.4095  0.6334  0.4833
  993MOL0     H31075   6.356   9.162   5.574  0.2873 -0.2380 -1.1745
  993MOL0     H31076   6.181   9.215   5.744  0.0101  1.6621  0.6574
  994MOL0     O31077   8.438   0.718   4.966 -1.6489  0.4989  0.1984
  994MOL0     C31078   8.468   0.769   5.076 -0.6549  0.6594 -0.2564
  994MOL0     O31079   8.381   0.816   5.164 -0.4592  0.3844 -0.7960
  994MOL0     C31080   8.254   0.840   5.119  0.3288 -0.0708 -0.1473
  994MOL0     C31081   8.221   0.901   4.997  0.2648 -0.2039 -0.5287
  994MOL0     C31082   8.087   0.935   4.963  0.5194 -0.0712 -0.9949
  994MOL0     C31083   7.986   0.921   5.061  0.4795  0.6986  0.2499
  994MOL0     O31084   7.861   0.968   5.039 -0.1503  0.6257  0.2973
  994MOL0     C31085   7.820   1.082   5.114 -0.0514  0.6986  0.2592
  994MOL0     C31086   7.690   1.142   5.042  0.1644 -0.5160 -0.1866
  994MOL0     C31087   7.560   1.080   5.105  0.6935 -0.1732  0.7230
  994MOL0     C31088   7.436   1.121   5.015  0.2028 -0.3155  1.6143
  994MOL0     C31089   7.309   1.042   5.063  1.0804  0.7958 -0.7949
  994MOL0     C31090   7.182   1.081   4.988  0.4261 -0.0826 -0.7566
  994MOL0     C31091   7.071   1.041   5.079 -0.7555 -0.4678  0.1891
  994MOL0     C31092   6.934   1.077   5.029  0.8376 -0.1165  1.0450
  994MOL0     N31093   6.833   1.051   5.132  0.0420  0.2853  0.2447
  994MOL0     C31094   6.782   0.924   5.163 -0.4369  0.5138 -0.5037
  994MOL0     C31095   6.676   0.947   5.241  0.2927  0.5179 -0.2410
  994MOL0     C31096   6.592   0.838   5.317 -0.2683  0.5649  0.9460
  994MOL0     C31097   6.444   0.866   5.282 -0.5129  0.6353 -0.4294
  994MOL0     C31098   6.364   0.745   5.315 -0.1751 -0.4577 -0.3602
  994MOL0     C31099   6.215   0.765   5.298 -0.1948 -0.4946 -0.5271
  994MOL0     O31100   6.135   0.651   5.332  0.3172  0.3923  0.4606
  994MOL0     C31101   5.998   0.665   5.305  0.0759  0.6185 -0.3354
  994MOL0     C31102   5.965   0.703   5.176  0.5968  0.5793 -0.0938
  994MOL0     C31103   5.837   0.715   5.130 -0.3601  0.6628  0.7602
  994MOL0     C31104   5.734   0.671   5.211 -0.2314 -0.0646 -0.7653
  994MOL0     C31105   5.598   0.661   5.158 -0.9924  0.5720 -0.4126
  994MOL0     O31106   5.582   0.680   5.027 -0.2662  0.1653 -0.7500
  994MOL0     C31107   5.464   0.628   4.983  0.6599  0.0866  0.7541
  994MOL0     C31108   5.340   0.689   5.000  0.3377 -0.4241 -0.3468
  994MOL0     C31109   5.221   0.628   4.956  0.4596 -0.3810  0.0140
  994MOL0     C31110   5.220   0.508   4.887 -0.5341  0.2161  0.9011
  994MOL0     O31111   5.107   0.464   4.826  0.8604 -0.0243  0.1262
  994MOL0     C31112   5.110   0.322   4.791 -0.2294 -0.8369 -0.8188
  994MOL0     C31113   4.974   0.259   4.789 -0.5106  0.2377 -0.8315
  994MOL0     C31114   4.898   0.332   4.686 -0.3948 -0.4416 -0.1196
  994MOL0     C31115   4.759   0.280   4.696  0.2312 -0.7229 -0.2434
  994MOL0     C31116   4.676   0.357   4.586  0.0085  0.2444  0.0021
  994MOL0     C31117   4.529   0.327   4.597  0.5462  0.4852 -0.7945
  994MOL0     C31118   4.444   0.378   4.474 -0.4345 -0.5419  0.8932
  994MOL0     C31119   4.292   0.354   4.483  0.9443 -0.2513  0.5478
  994MOL0    Cl31120   4.225   0.467   4.609  0.4418 -0.2146 -0.3622
  994MOL0     C31121   5.350   0.455   4.864  0.8031 -0.6428  0.6757
  994MOL0     C31122   5.467   0.516   4.910 -0.7209  1.1341 -0.2638
  994MOL0     O31123   5.506   0.629   5.234  0.6514  0.3624 -0.1473
  994MOL0     C31124   5.764   0.643   5.353 -0.4937 -0.5642  0.5674
  994MOL0     C31125   5.897   0.644   5.395 -0.1104  0.4348 -0.2902
  994MOL0     N31126   6.660   1.082   5.263 -0.1239  0.1466  0.6374
  994MOL0     N31127   6.755   1.140   5.202 -0.3105 -0.3345 -0.2641
  994MOL0     C31128   8.020   0.865   5.181 -0.0261  0.9487  0.0689
  994MOL0     C31129   8.145   0.813   5.206 -0.5794  0.7193 -0.5427
  994MOL0     C31130   8.607   0.776   5.121 -0.4002  0.2643  0.4391
  994MOL0     C31131   8.717   0.711   5.050  0.1746 -0.4938  0.7329
  994MOL0     C31132   8.843   0.727   5.100  0.1064  1.0891  0.3802
  994MOL0     C31133   8.875   0.802   5.209  0.7842  0.0622 -1.1390
  994MOL0     O31134   9.001   0.819   5.260 -0.0492 -0.0436  0.0042
  994MOL0     C31135   9.114   0.761   5.196  0.1807  0.2533  0.4502
  994MOL0     C31136   9.248   0.791   5.265  0.2098  0.0478  0.2184
  994MOL0     C31137   9.364   0.750   5.176 -0.2498 -0.1699 -0.4845
  994MOL0     C31138   9.439   0.867   5.111  0.5453 -0.5562 -0.2843
  994MOL0     C31139   9.557   0.826   5.035  0.1163  0.3737  0.8540
  994MOL0     C31140   9.658   0.808   4.975 -0.1000  0.2804 -0.5009
  994MOL0     C31141   8.767   0.865   5.281  0.0530  0.2262  1.2135
  994MOL0     C31142   8.636   0.861   5.230 -0.6244  0.2002 -0.6856
  994MOL0     H31143   8.301   0.916   4.925 -0.6248 -0.0493 -1.5045
  994MOL0     H31144   8.061   0.962   4.862 -0.3318  0.2900 -0.6816
  994MOL0     H31145   7.899   1.158   5.107 -0.9610  1.6384 -0.0138
  994MOL0     H31146   7.804   1.049   5.217  1.7148 -0.4684  0.2012
  994MOL0     H31147   7.682   1.112   4.937 -2.4009  0.7809 -0.4336
  994MOL0     H31148   7.699   1.251   5.039 -1.1494 -0.4155 -3.0463
  994MOL0     H31149   7.539   1.113   5.207  0.0995  3.0237 -0.3154
  994MOL0     H31150   7.554   0.971   5.104 -2.9632 -0.0943  0.4533
  994MOL0     H31151   7.414   1.227   5.028  0.8770  0.6124 -3.0323
  994MOL0     H31152   7.459   1.104   4.909  0.3580  0.2613  1.5545
  994MOL0     H31153   7.306   1.054   5.171  1.4087  3.0686 -0.9964
  994MOL0     H31154   7.319   0.935   5.046 -2.6160  0.5525 -2.4301
  994MOL0     H31155   7.182   1.039   4.887 -0.1786 -2.4021  0.1387
  994MOL0     H31156   7.170   1.190   4.981 -0.8834 -0.1510  0.1566
  994MOL0     H31157   7.080   0.934   5.102 -0.8084 -0.3679  0.6976
  994MOL0     H31158   7.082   1.101   5.170 -0.3726 -1.1787  0.6190
  994MOL0     H31159   6.912   1.009   4.946 -2.2212  0.2461  1.4153
  994MOL0     H31160   6.924   1.183   5.002 -1.3784 -1.1896 -3.4235
  994MOL0     H31161   6.809   0.830   5.116 -2.5114 -0.0217 -0.7283
  994MOL0     H31162   6.600   0.853   5.425  0.6871  5.5642  0.4230
  994MOL0     H31163   6.623   0.740   5.279 -1.0896  0.4328  0.5878
  994MOL0     H31164   6.446   0.894   5.176  0.0847 -2.1857 -1.2517
  994MOL0     H31165   6.417   0.950   5.346  3.0128  1.2461  0.4749
  994MOL0     H31166   6.403   0.673   5.242 -1.8990 -1.2147 -0.5873
  994MOL0     H31167   6.384   0.730   5.421  1.8238  2.5427 -0.1864
  994MOL0     H31168   6.203   0.808   5.199  1.2185  1.0706 -0.0728
  994MOL0     H31169   6.190   0.844   5.371 -1.0707  0.2123 -1.5553
  994MOL0     H31170   6.044   0.727   5.104  2.9903  2.0751  2.7867
  994MOL0     H31171   5.818   0.748   5.029 -0.1972 -0.4917  0.3407
  994MOL0     H31172   5.328   0.774   5.066 -0.6767 -1.0316  0.2842
  994MOL0     H31173   5.131   0.686   4.976  1.1803 -0.1525  3.2190
  994MOL0     H31174   5.167   0.262   4.863  0.7648  0.4378 -0.5242
  994MOL0     H31175   5.158   0.311   4.693 -1.1935 -0.3705 -1.3607
  994MOL0     H31176   4.935   0.269   4.891  2.0916  0.3871  0.2413
  994MOL0     H31177   4.982   0.152   4.767  0.2534  0.4181 -1.4463
  994MOL0     H31178   4.944   0.317   4.588 -0.4149  3.1043 -0.7855
  994MOL0     H31179   4.908   0.440   4.697  1.0615 -0.3631 -1.7550
  994MOL0     H31180   4.743   0.173   4.682 -0.0248 -0.9014  1.2051
  994MOL0     H31181   4.713   0.301   4.793 -2.3528 -2.5349 -0.9644
  994MOL0     H31182   4.708   0.343   4.482 -1.2698  2.7261 -0.8205
  994MOL0     H31183   4.685   0.460   4.622  3.6397 -0.5917  2.0045
  994MOL0     H31184   4.483   0.362   4.689  0.1919 -2.5964  0.3356
  994MOL0     H31185   4.511   0.219   4.592  2.0593  0.2534 -3.9590
  994MOL0     H31186   4.474   0.483   4.483 -0.9858 -0.3621  0.6192
  994MOL0     H31187   4.489   0.336   4.384 -1.4798  1.2696 -0.5558
  994MOL0     H31188   4.273   0.247   4.496  0.9417 -0.2797  0.3134
  994MOL0     H31189   4.248   0.375   4.385  1.0987 -1.2036  0.2608
  994MOL0     H31190   5.363   0.363   4.809 -0.9751 -0.0970 -0.7603
  994MOL0     H31191   5.560   0.465   4.890 -0.8275  1.3664 -1.4733
  994MOL0     H31192   5.693   0.613   5.429  0.8858  0.0254  2.1344
  994MOL0     H31193   5.927   0.624   5.497  2.2223  0.4619 -0.9263
  994MOL0     H31194   7.945   0.846   5.257  0.6706  1.3623  0.8932
  994MOL0     H31195   8.174   0.764   5.299  0.5911 -0.2440 -1.3815
  994MOL0     H31196   8.698   0.654   4.959  0.3596 -0.6240  0.7761
  994MOL0     H31197   8.919   0.690   5.032  0.7022  3.7602 -0.5176
  994MOL0     H31198   9.132   0.806   5.098 -1.5988 -2.0888 -1.0585
  994MOL0     H31199   9.112   0.654   5.175 -0.1012  0.1674  0.8948
  994MOL0     H31200   9.255   0.898   5.287 -0.7331  0.0393  0.6296
  994MOL0     H31201   9.252   0.742   5.363 -2.5813  0.8511  0.8211
  994MOL0     H31202   9.329   0.696   5.088 -1.8176  1.9679 -1.2529
  994MOL0     H31203   9.435   0.690   5.234 -0.9554 -0.6894 -0.1401
  994MOL0     H31204   9.367   0.923   5.052  0.3052  1.0007  1.4027
  994MOL0     H31205   9.470   0.938   5.189 -0.3798  0.0374 -0.4500
  994MOL0     H31206   9.739   0.806   4.906 -2.1590 -1.5933 -3.0686
  994MOL0     H31207   8.792   0.927   5.366 -0.8849 -1.7890  3.0533
  994MOL0     H31208   8.571   0.923   5.291 -0.3491 -2.4388  2.5505
  995MOL0     O31209   4.953   6.434   1.312 -0.1102 -0.1050 -0.2172
  995MOL0     C31210   4.937   6.396   1.198  0.4003 -0.4388  0.6466
  995MOL0     O31211   5.024   6.386   1.103 -0.2351 -0.1344  0.3301
  995MOL0     C31212   5.153   6.418   1.125 -0.2168  0.4143  0.6145
  995MOL0     C31213   5.234   6.334   1.197  0.0392 -0.0552  0.5441
  995MOL0     C31214   5.363   6.366   1.227  0.5138 -0.4586 -0.8021
  995MOL0     C31215   5.413   6.488   1.178 -0.0237  0.5020  0.1828
  995MOL0     O31216   5.546   6.535   1.199  0.0217  0.5536 -0.3319
  995MOL0     C31217   5.625   6.474   1.307 -0.3139 -1.1409  0.2901
  995MOL0     C31218   5.735   6.570   1.363  0.3348 -0.5311  0.0667
  995MOL0     C31219   5.803   6.650   1.244  0.2311  0.2683 -0.1200
  995MOL0     C31220   5.899   6.561   1.163  0.0459  0.2166  0.0612
  995MOL0     C31221   5.976   6.627   1.056 -1.0577  0.5592  0.9626
  995MOL0     C31222   6.070   6.717   1.118  0.1192 -0.9014 -0.5815
  995MOL0     C31223   6.171   6.666   1.226 -0.5740  0.3688  0.0557
  995MOL0     C31224   6.257   6.773   1.286 -0.7860 -0.2750  0.1746
  995MOL0     N31225   6.330   6.843   1.180 -0.2580 -0.1740 -0.0974
  995MOL0     C31226   6.441   6.792   1.121 -0.1395 -0.0528  0.8300
  995MOL0     C31227   6.483   6.905   1.053 -0.2191 -0.6346  0.0266
  995MOL0     C31228   6.606   6.920   0.967  0.1737  0.0801 -0.3451
  995MOL0     C31229   6.733   6.892   1.050 -0.5126 -0.5190  0.4582
  995MOL0     C31230   6.786   7.004   1.138 -0.4790  0.1311  0.1728
  995MOL0     C31231   6.947   7.003   1.148 -0.3440  0.5066 -0.4314
  995MOL0     O31232   6.994   6.902   1.232 -0.4013  0.1252 -0.4056
  995MOL0     C31233   7.125   6.892   1.260  0.3618 -0.5297 -0.8070
  995MOL0     C31234   7.212   6.996   1.230 -0.4700  0.0377 -0.0501
  995MOL0     C31235   7.350   6.983   1.268 -0.6626 -0.7162  0.1467
  995MOL0     C31236   7.398   6.862   1.328  0.9936 -0.2984  0.5515
  995MOL0     C31237   7.541   6.848   1.367 -0.2383 -0.1401  0.2202
  995MOL0     O31238   7.628   6.923   1.285 -0.1287 -1.1571 -0.0984
  995MOL0     C31239   7.763   6.917   1.298  0.6434  0.4273  0.0596
  995MOL0     C31240   7.837   6.925   1.176 -0.1764  0.7960 -0.6307
  995MOL0     C31241   7.971   6.931   1.178 -1.1687  0.7330 -0.3590
  995MOL0     C31242   8.045   6.931   1.299  0.2802 -0.2192  0.4860
  995MOL0     O31243   8.183   6.947   1.302 -0.3455 -0.2089 -0.2777
  995MOL0     C31244   8.253   7.009   1.409  0.2969 -0.6302  0.3521
  995MOL0     C31245   8.404   7.012   1.350  0.0379  0.2484  0.2253
  995MOL0     C31246   8.504   7.080   1.451  0.2742  1.1337 -0.8733
  995MOL0     C31247   8.616   7.142   1.366  0.5809  0.3103 -0.0820
  995MOL0     C31248   8.700   7.223   1.467 -0.0504  0.6058  0.4870
  995MOL0     C31249   8.836   7.249   1.417  0.0699 -0.1513 -0.5012
  995MOL0     C31250   8.921   7.119   1.382  0.4562  0.0602  0.0482
  995MOL0     C31251   9.067   7.145   1.380 -0.5709 -0.6425  0.0762
  995MOL0    Cl31252   9.160   7.170   1.541 -0.1197  0.0580  0.5878
  995MOL0     C31253   7.975   6.918   1.420  0.4279 -0.5572  0.4493
  995MOL0     C31254   7.835   6.924   1.415  0.0371 -0.3523  0.3313
  995MOL0     O31255   7.579   6.759   1.440  0.2171 -0.6589 -0.0026
  995MOL0     C31256   7.305   6.762   1.356 -0.4761  0.5121  0.4889
  995MOL0     C31257   7.167   6.774   1.324 -1.4112  0.5930 -0.3128
  995MOL0     N31258   6.401   7.007   1.078 -0.1553 -0.3122 -0.1158
  995MOL0     N31259   6.305   6.969   1.145  0.0740  0.4773 -0.1962
  995MOL0     C31260   5.329   6.575   1.112 -0.0606 -0.2992  0.3304
  995MOL0     C31261   5.196   6.540   1.075  0.4154 -0.3503  0.4582
  995MOL0     C31262   4.796   6.381   1.156 -1.1661 -0.2255  0.0622
  995MOL0     C31263   4.694   6.352   1.248  0.5489 -0.1391 -0.1853
  995MOL0     C31264   4.559   6.323   1.209 -0.2580  0.1989  0.0296
  995MOL0     C31265   4.529   6.316   1.072 -0.1104  0.6176 -0.2987
  995MOL0     O31266   4.399   6.287   1.032  0.2912  0.3483  0.5333
  995MOL0     C31267   4.300   6.253   1.123 -0.1947 -0.2468 -0.0728
  995MOL0     C31268   4.162   6.217   1.075  0.0628 -0.2414 -0.3551
  995MOL0     C31269   4.089   6.123   1.176  0.0715  0.3800  0.2475
  995MOL0     C31270   3.954   6.073   1.117  1.3084 -0.1217  0.3055
  995MOL0     C31271   3.866   6.196   1.097 -0.2651 -0.1333 -0.5081
  995MOL0     C31272   3.807   6.301   1.090  0.5498  0.6441  0.6179
  995MOL0     C31273   4.630   6.339   0.981  0.0687  0.2784  0.8434
  995MOL0     C31274   4.765   6.372   1.014 -0.1670  0.1011 -0.0844
  995MOL0     H31275   5.192   6.244   1.240  1.7090 -1.3837 -0.4766
  995MOL0     H31276   5.419   6.306   1.298 -0.5389 -0.8669 -0.2919
  995MOL0     H31277   5.666   6.377   1.277 -0.1330 -1.5780  1.8722
  995MOL0     H31278   5.559   6.462   1.393 -2.1387 -1.5173 -1.0871
  995MOL0     H31279   5.810   6.511   1.417  1.1784  0.0551 -0.4439
  995MOL0     H31280   5.691   6.642   1.433  1.4120 -0.1904  0.4307
  995MOL0     H31281   5.851   6.731   1.299 -1.3181  0.0663  1.6395
  995MOL0     H31282   5.730   6.697   1.178 -1.4179 -3.1730 -0.9625
  995MOL0     H31283   5.961   6.496   1.226 -0.2992 -1.0463 -0.8779
  995MOL0     H31284   5.840   6.485   1.112  2.4977 -1.0959 -1.0032
  995MOL0     H31285   5.918   6.680   0.980  4.3804  1.2495 -3.3403
  995MOL0     H31286   6.029   6.548   1.001 -0.5380  0.1098  2.0873
  995MOL0     H31287   6.012   6.801   1.157  1.9981  0.8060 -1.2967
  995MOL0     H31288   6.140   6.751   1.042 -0.6191  2.5445  0.1050
  995MOL0     H31289   6.123   6.614   1.309  1.2273  1.7573  2.0628
  995MOL0     H31290   6.233   6.591   1.178 -0.9294  0.9375 -1.3467
  995MOL0     H31291   6.338   6.730   1.347  0.1256  0.6509 -0.3541
  995MOL0     H31292   6.200   6.839   1.352 -1.4756 -0.6434 -0.0392
  995MOL0     H31293   6.496   6.700   1.135  0.8358  0.6437  1.6547
  995MOL0     H31294   6.620   7.017   0.917  0.7888  0.5770  0.7542
  995MOL0     H31295   6.609   6.844   0.889  0.1337  0.2676 -0.5295
  995MOL0     H31296   6.810   6.863   0.978  0.2127  3.2325 -0.4886
  995MOL0     H31297   6.723   6.807   1.117  3.8766 -2.0058 -0.4566
  995MOL0     H31298   6.749   7.099   1.100  2.8745  1.4699 -0.0351
  995MOL0     H31299   6.755   6.992   1.243  2.5358  2.8112  1.5186
  995MOL0     H31300   6.974   7.099   1.194 -2.3410  1.0488 -0.3072
  995MOL0     H31301   6.989   7.000   1.047 -2.3776  0.0514 -1.3268
  995MOL0     H31302   7.180   7.088   1.182 -1.9853 -1.0959 -1.3198
  995MOL0     H31303   7.410   7.071   1.249  1.2189 -2.0612 -0.4428
  995MOL0     H31304   7.781   6.935   1.084  0.4138 -0.6790 -1.1629
  995MOL0     H31305   8.031   6.943   1.088  3.5715 -3.3383  1.7940
  995MOL0     H31306   8.246   6.948   1.499 -1.3679  2.4544  2.4788
  995MOL0     H31307   8.219   7.111   1.426 -0.0408 -0.4958 -0.9798
  995MOL0     H31308   8.410   7.067   1.256  2.0928  0.8185  0.6316
  995MOL0     H31309   8.445   6.913   1.324  0.1048 -0.2226  2.0358
  995MOL0     H31310   8.526   7.011   1.533 -1.1050  0.4382 -1.0585
  995MOL0     H31311   8.439   7.152   1.502 -0.3597 -0.2609  0.3611
  995MOL0     H31312   8.672   7.062   1.316 -1.9603 -2.0532  0.6093
  995MOL0     H31313   8.565   7.203   1.290 -0.6272  0.5502  0.8873
  995MOL0     H31314   8.714   7.170   1.562  0.3246  1.7169  1.0733
  995MOL0     H31315   8.655   7.321   1.484  0.0816  0.6973  0.3018
  995MOL0     H31316   8.897   7.304   1.490  1.0379 -0.3433 -1.1431
  995MOL0     H31317   8.827   7.311   1.327  0.8171  2.9035  1.3775
  995MOL0     H31318   8.898   7.037   1.451 -0.3980  0.0221 -0.2609
  995MOL0     H31319   8.890   7.089   1.282  1.0774  0.0353 -0.1393
  995MOL0     H31320   9.106   7.205   1.297  2.2629 -0.6986  1.2427
  995MOL0     H31321   9.112   7.051   1.348  0.9747 -0.3658  1.3014
  995MOL0     H31322   8.022   6.945   1.514  0.1256  2.2925 -0.1102
  995MOL0     H31323   7.774   6.922   1.505 -1.2731 -1.8136 -0.5521
  995MOL0     H31324   7.338   6.665   1.393 -1.6662 -0.5450 -1.0763
  995MOL0     H31325   7.090   6.703   1.352 -0.2677 -1.6763 -2.5106
  995MOL0     H31326   5.376   6.672   1.099  1.1886 -1.1436 -2.0564
  995MOL0     H31327   5.132   6.602   1.013  1.4925 -1.4219 -1.8167
  995MOL0     H31328   4.710   6.343   1.355  0.2456 -0.0733 -0.1333
  995MOL0     H31329   4.486   6.298   1.285 -0.6884 -1.1492 -0.8033
  995MOL0     H31330   4.291   6.343   1.185 -1.6628  1.0719 -2.0917
  995MOL0     H31331   4.337   6.169   1.183 -1.5548  0.7718  2.3284
  995MOL0     H31332   4.099   6.300   1.044  0.3376 -0.6733 -2.1704
  995MOL0     H31333   4.166   6.157   0.984 -1.5816  0.8122 -1.1429
  995MOL0     H31334   4.074   6.178   1.270 -0.6877 -2.0994  1.6515
  995MOL0     H31335   4.159   6.043   1.201 -0.2998  0.1912  0.6866
  995MOL0     H31336   3.970   6.026   1.019 -1.1155 -1.6801  0.5652
  995MOL0     H31337   3.905   6.003   1.184  1.8473 -0.0222  0.8110
  995MOL0     H31338   3.745   6.387   1.071  0.2271 -0.3648 -4.3733
  995MOL0     H31339   4.613   6.324   0.875  1.2728 -3.5570  1.0651
  995MOL0     H31340   4.829   6.405   0.933 -1.3632 -0.2734 -1.2152
  996MOL0     O31341   9.349   0.552   7.101 -0.9188 -0.4474  0.5658
  996MOL0     C31342   9.338   0.493   7.204  0.0591  0.4191 -0.7252
  996MOL0     O31343   9.223   0.437   7.260 -0.9129 -0.2216 -0.5328
  996MOL0     C31344   9.126   0.401   7.174 -0.0294  0.1296 -0.5589
  996MOL0     C31345   9.005   0.355   7.241 -0.5617 -0.4367 -0.1966
  996MOL0     C31346   8.895   0.318   7.168  0.7351  0.0163 -0.0237
  996MOL0     C31347   8.897   0.317   7.032  0.0762  0.2051  0.5687
  996MOL0     O31348   8.793   0.276   6.953 -0.5679 -0.3317  1.0689
  996MOL0     C31349   8.675   0.227   7.011 -0.1894  0.0853 -0.2309
  996MOL0     C31350   8.562   0.191   6.912  0.1261 -0.5391  0.6102
  996MOL0     C31351   8.446   0.118   6.980  0.4826 -0.5586  0.1081
  996MOL0     C31352   8.341   0.081   6.878  0.2169  0.6671 -0.2609
  996MOL0     C31353   8.227  -0.002   6.939 -0.4336  0.2365  0.4364
  996MOL0     C31354   8.145  -0.065   6.825  0.4740  0.2488 -0.3870
  996MOL0     C31355   8.029  -0.141   6.877  0.0348  0.3204 -0.1133
  996MOL0     C31356   7.938  -0.216   6.772 -0.3780  0.3370 -0.4738
  996MOL0     N31357   7.809  -0.265   6.821 -0.0617 -0.1453  0.4231
  996MOL0     C31358   7.728  -0.360   6.760  0.1248 -0.0046  0.2331
  996MOL0     C31359   7.609  -0.352   6.830 -0.2407  0.1239  0.3863
  996MOL0     C31360   7.492  -0.447   6.818 -0.2802  0.0557 -0.2504
  996MOL0     C31361   7.368  -0.368   6.796  0.1907  0.4261 -0.2302
  996MOL0     C31362   7.354  -0.302   6.659  0.4844 -0.1973 -0.3348
  996MOL0     C31363   7.211  -0.297   6.599 -0.4513 -0.7059 -0.2205
  996MOL0     O31364   7.133  -0.223   6.695  0.0432  0.2026 -0.0973
  996MOL0     C31365   6.992  -0.231   6.679 -0.6762  0.1044  0.1697
  996MOL0     C31366   6.925  -0.198   6.553 -0.1169 -0.5197 -0.5921
  996MOL0     C31367   6.789  -0.183   6.543  0.8202  0.4313 -0.2240
  996MOL0     C31368   6.710  -0.188   6.660 -0.4012 -0.0467 -0.5027
  996MOL0     C31369   6.564  -0.154   6.653 -0.6545 -0.9204  0.5774
  996MOL0     O31370   6.518  -0.118   6.528  1.6351  0.0216  0.1573
  996MOL0     C31371   6.411  -0.024   6.524 -0.0217  0.7308  0.4429
  996MOL0     C31372   6.309  -0.054   6.438 -0.6860 -0.1840 -0.2068
  996MOL0     C31373   6.201   0.040   6.411 -0.8763  0.5531  0.0418
  996MOL0     C31374   6.208   0.165   6.476  0.2831 -0.5552  0.0950
  996MOL0     O31375   6.128   0.274   6.433  0.5092  0.2683 -0.2450
  996MOL0     C31376   5.987   0.258   6.417 -0.1906  0.3121 -0.1670
  996MOL0     C31377   5.953   0.241   6.275  0.4570 -0.6176  0.4706
  996MOL0     C31378   5.801   0.210   6.240 -1.3005  0.4801 -0.5070
  996MOL0     C31379   5.799   0.173   6.093  1.0934 -0.9782  1.0010
  996MOL0     C31380   5.653   0.181   6.023  0.5552  0.9062  0.2408
  996MOL0     C31381   5.539   0.089   6.070  1.0780  0.6397 -0.3660
  996MOL0     C31382   5.417   0.109   5.969 -0.3221  0.5497  0.7719
  996MOL0     C31383   5.340   0.234   5.989  1.2426 -0.6990  0.1494
  996MOL0    Cl31384   5.207   0.210   6.102 -0.2937 -0.2804  0.2959
  996MOL0     C31385   6.311   0.187   6.559 -1.0512  0.9460 -0.3713
  996MOL0     C31386   6.412   0.094   6.590 -0.3805 -0.4083 -0.7420
  996MOL0     O31387   6.505  -0.156   6.753  0.1881  0.0225 -0.4263
  996MOL0     C31388   6.775  -0.225   6.783  0.0264 -0.1051 -0.1396
  996MOL0     C31389   6.915  -0.249   6.791 -0.1979  0.0113 -0.2245
  996MOL0     N31390   7.628  -0.252   6.919  0.1101 -0.0978  0.1042
  996MOL0     N31391   7.741  -0.206   6.921  0.2971 -1.0352  0.5431
  996MOL0     C31392   9.011   0.355   6.964 -0.2698  0.0725  0.4570
  996MOL0     C31393   9.122   0.402   7.031 -0.1293  0.2785  0.5505
  996MOL0     C31394   9.461   0.480   7.284 -0.0338  0.1321 -1.3350
  996MOL0     C31395   9.585   0.546   7.252  0.2107 -0.1921  0.7398
  996MOL0     C31396   9.706   0.528   7.322  0.1584 -0.1593 -0.7777
  996MOL0     C31397   9.690   0.455   7.448 -0.3363 -1.0074  0.3706
  996MOL0     O31398   9.796   0.441   7.535 -0.6107 -0.0846 -0.3624
  996MOL0     C31399   9.911   0.531   7.533 -0.2008 -0.2501  0.1929
  996MOL0     C31400  10.025   0.469   7.603  0.6158 -0.6586  0.2326
  996MOL0     C31401  10.156   0.544   7.578 -0.2150 -0.1873 -0.4863
  996MOL0     C31402  10.164   0.702   7.582  1.2725 -0.3978 -0.1442
  996MOL0     C31403  10.302   0.748   7.594  0.4247  0.4700 -0.6135
  996MOL0     C31404  10.411   0.807   7.608 -0.3035 -0.3088  0.0675
  996MOL0     C31405   9.565   0.409   7.496  0.9258 -0.2162  0.1632
  996MOL0     C31406   9.457   0.414   7.406  0.0296 -0.5454  0.9042
  996MOL0     H31407   9.007   0.342   7.349  0.6032 -0.7240 -0.2399
  996MOL0     H31408   8.819   0.267   7.225  1.4057 -0.9303  0.0409
  996MOL0     H31409   8.632   0.296   7.084 -2.2061 -0.7346 -0.5577
  996MOL0     H31410   8.704   0.133   7.059 -0.4447 -0.4443 -1.0967
  996MOL0     H31411   8.610   0.134   6.831  0.8358  1.6385 -0.5858
  996MOL0     H31412   8.522   0.282   6.866 -0.5055 -0.8625  0.5087
  996MOL0     H31413   8.402   0.182   7.057  0.5720 -0.7851  0.3532
  996MOL0     H31414   8.490   0.030   7.030 -1.0909 -1.7185 -0.4723
  996MOL0     H31415   8.294   0.175   6.848  0.4286  1.4239  1.6265
  996MOL0     H31416   8.377   0.024   6.792  2.1280 -0.0497  0.9668
  996MOL0     H31417   8.163   0.052   7.009 -2.9261 -1.4535 -0.3818
  996MOL0     H31418   8.261  -0.087   6.999 -0.6717  0.2784  0.6313
  996MOL0     H31419   8.205  -0.133   6.764  0.3918  1.2410 -1.6193
  996MOL0     H31420   8.111   0.021   6.767 -2.9170 -0.0791  0.8535
  996MOL0     H31421   8.053  -0.215   6.954 -1.6210 -0.0514  0.0750
  996MOL0     H31422   7.950  -0.074   6.911 -1.1793 -0.7289 -0.7880
  996MOL0     H31423   7.997  -0.295   6.724  2.8969  1.3628  1.5355
  996MOL0     H31424   7.925  -0.146   6.689 -0.0187 -2.2308 -2.8483
  996MOL0     H31425   7.753  -0.434   6.685 -0.5594 -0.3236  0.3143
  996MOL0     H31426   7.468  -0.501   6.910 -2.1594  1.1011 -0.0902
  996MOL0     H31427   7.505  -0.520   6.738 -1.2834 -0.1987 -0.1871
  996MOL0     H31428   7.353  -0.300   6.880 -2.6637  0.1677 -0.4312
  996MOL0     H31429   7.278  -0.427   6.812  2.2767 -3.6843 -2.0307
  996MOL0     H31430   7.395  -0.201   6.663 -0.6112  0.2435  1.2964
  996MOL0     H31431   7.414  -0.356   6.586  0.7007  0.0799 -0.3646
  996MOL0     H31432   7.170  -0.398   6.595 -3.0903  0.1852  1.6555
  996MOL0     H31433   7.213  -0.251   6.500 -0.5747 -2.1033 -0.8984
  996MOL0     H31434   6.976  -0.187   6.458 -0.2186  0.9942 -0.5090
  996MOL0     H31435   6.734  -0.179   6.449 -0.4022  2.6413  0.5045
  996MOL0     H31436   6.316  -0.149   6.385  1.7846 -0.6671  0.8347
  996MOL0     H31437   6.110   0.014   6.359 -0.5664 -0.0787 -0.2062
  996MOL0     H31438   5.938   0.339   6.472  1.0120 -0.2807  1.8763
  996MOL0     H31439   5.961   0.163   6.464 -1.2723 -0.1563 -1.6658
  996MOL0     H31440   6.011   0.155   6.243  0.7649 -1.6615  3.5724
  996MOL0     H31441   5.989   0.325   6.213 -0.6792  0.3372  1.0597
  996MOL0     H31442   5.737   0.295   6.266  1.9916  3.7525 -2.1524
  996MOL0     H31443   5.785   0.116   6.294  4.6030  0.4703  1.9618
  996MOL0     H31444   5.873   0.220   6.028  0.4024  0.7231  1.3824
  996MOL0     H31445   5.817   0.065   6.098  2.7180 -0.8247 -0.6000
  996MOL0     H31446   5.664   0.150   5.918 -2.7796 -0.2689  0.1289
  996MOL0     H31447   5.614   0.282   6.033  0.3323  1.0666 -1.7816
  996MOL0     H31448   5.511   0.111   6.173  0.2126 -3.0239  0.3266
  996MOL0     H31449   5.572  -0.015   6.083  0.1332  0.5366  1.4897
  996MOL0     H31450   5.453   0.108   5.866 -1.8384  0.9148  0.2059
  996MOL0     H31451   5.364   0.015   5.989  0.2040  0.2542  0.8056
  996MOL0     H31452   5.294   0.259   5.893 -1.1784 -0.8806  1.2087
  996MOL0     H31453   5.396   0.319   6.030 -1.0420 -0.2762  2.6596
  996MOL0     H31454   6.315   0.285   6.606 -0.1554  0.5314  0.4700
  996MOL0     H31455   6.491   0.132   6.654 -0.1359 -1.5784 -0.3356
  996MOL0     H31456   6.722  -0.222   6.877 -1.2756 -1.0922 -0.8096
  996MOL0     H31457   6.960  -0.260   6.889  1.3848 -3.0231 -1.1830
  996MOL0     H31458   9.003   0.354   6.855  1.2596 -0.3078  0.3271
  996MOL0     H31459   9.202   0.427   6.962 -0.2552  0.4247  0.4564
  996MOL0     H31460   9.583   0.608   7.162 -1.0468 -0.6821  0.4122
  996MOL0     H31461   9.798   0.574   7.287  0.8206 -1.4361 -0.7524
  996MOL0     H31462   9.887   0.621   7.590  0.3265  0.1306 -0.1752
  996MOL0     H31463   9.942   0.568   7.435  0.1710 -2.2000 -0.4677
  996MOL0     H31464  10.003   0.466   7.710  2.4136  0.4925  0.6787
  996MOL0     H31465  10.043   0.367   7.570 -0.6277 -0.5480 -0.9151
  996MOL0     H31466  10.202   0.503   7.488  1.9700  2.2817 -0.5953
  996MOL0     H31467  10.219   0.524   7.665  2.2046  0.0340 -2.0873
  996MOL0     H31468  10.126   0.744   7.489 -3.0524 -0.9914  1.1437
  996MOL0     H31469  10.101   0.748   7.659  0.1880 -0.4428 -0.9903
  996MOL0     H31470  10.511   0.844   7.611  0.4842 -2.1665 -0.9688
  996MOL0     H31471   9.555   0.374   7.599 -0.8501  0.3703  0.2139
  996MOL0     H31472   9.358   0.379   7.437 -1.1166  1.4513 -0.3101
  997MOL0     O31473   2.989   2.542   4.508  0.0197  0.7531 -0.0588
  997MOL0     C31474   2.982   2.657   4.487 -0.6973 -0.9041 -0.4599
  997MOL0     O31475   2.876   2.746   4.489  0.1317  1.0835  0.4419
  997MOL0     C31476   2.763   2.697   4.546  0.2637  0.0331 -0.3029
  997MOL0     C31477   2.730   2.735   4.680  0.1775 -0.6019  0.0857
  997MOL0     C31478   2.610   2.684   4.737 -0.6090  0.4754 -0.4403
  997MOL0     C31479   2.521   2.601   4.666 -0.3322 -0.5044  1.4918
  997MOL0     O31480   2.396   2.557   4.706  0.1616  0.1428 -0.2856
  997MOL0     C31481   2.315   2.665   4.763  0.3433  0.4551  0.4865
  997MOL0     C31482   2.163   2.625   4.743 -1.5341  0.4038  1.0444
  997MOL0     C31483   2.060   2.712   4.809  0.1723 -0.3098  0.0549
  997MOL0     C31484   2.078   2.859   4.768 -0.6819 -0.7681 -0.0465
  997MOL0     C31485   1.951   2.950   4.791 -0.5546 -0.7837 -0.0253
  997MOL0     C31486   1.845   2.918   4.683 -0.7991 -0.3967 -0.2936
  997MOL0     C31487   1.735   3.016   4.651  0.1967  0.0284  0.4307
  997MOL0     C31488   1.670   2.965   4.528  0.5384 -0.6903  0.8168
  997MOL0     N31489   1.542   3.030   4.496 -0.4296  0.4613  1.4586
  997MOL0     C31490   1.446   3.076   4.572 -0.3925  0.9685 -0.6685
  997MOL0     C31491   1.334   3.083   4.496 -0.1873  0.1319  0.4989
  997MOL0     C31492   1.204   3.143   4.539 -0.1255 -0.0499  0.5330
  997MOL0     C31493   1.104   3.132   4.434 -0.8550  1.2803 -0.1353
  997MOL0     C31494   0.965   3.165   4.480  0.7808 -0.5503 -0.3651
  997MOL0     C31495   0.895   3.054   4.558  0.6316 -0.1559 -0.9566
  997MOL0     O31496   0.747   3.059   4.550 -0.4970  1.0156 -0.0453
  997MOL0     C31497   0.677   3.161   4.604 -0.4381 -0.1425 -0.3278
  997MOL0     C31498   0.564   3.197   4.535  0.1086 -0.4272 -0.0886
  997MOL0     C31499   0.477   3.292   4.590 -0.2386  0.3955 -0.6171
  997MOL0     C31500   0.520   3.366   4.706  0.4472  0.0105  0.3431
  997MOL0     C31501   0.442   3.484   4.743 -1.3424  1.0062 -0.2995
  997MOL0     O31502   0.304   3.472   4.729 -0.4205 -0.9051  0.4302
  997MOL0     C31503   0.217   3.575   4.763  0.0652 -0.4533  0.7752
  997MOL0     C31504   0.106   3.576   4.685 -0.1254  0.1268  0.7461
  997MOL0     C31505   0.005   3.669   4.722  0.1468  0.5723 -0.5000
  997MOL0     C31506   0.016   3.764   4.825  0.0523  0.5986 -0.1403
  997MOL0     O31507  -0.097   3.840   4.849 -0.3682 -0.5583 -0.1069
  997MOL0     C31508  -0.141   3.903   4.733  1.0068 -0.4071 -0.4420
  997MOL0     C31509  -0.210   4.035   4.776  0.3946  0.7312  0.0993
  997MOL0     C31510  -0.265   4.121   4.666  0.5340 -0.6880 -0.0372
  997MOL0     C31511  -0.309   4.273   4.695  0.3432  0.4654 -0.0073
  997MOL0     C31512  -0.400   4.293   4.816  0.1134  0.2054  0.1673
  997MOL0     C31513  -0.477   4.424   4.803  0.6016  0.5819 -0.0754
  997MOL0     C31514  -0.541   4.456   4.936 -0.0414  0.4577  0.4316
  997MOL0     C31515  -0.668   4.547   4.933  0.0529  0.0408  0.8413
  997MOL0    Cl31516  -0.712   4.574   5.106 -0.3606  0.0112 -0.2498
  997MOL0     C31517   0.129   3.756   4.903  0.6553 -0.1860  0.7378
  997MOL0     C31518   0.225   3.658   4.881 -0.2515 -0.0578 -0.5587
  997MOL0     O31519   0.499   3.586   4.776  1.0484  0.6014 -0.5874
  997MOL0     C31520   0.643   3.330   4.766 -0.3267  0.0194 -0.2310
  997MOL0     C31521   0.717   3.225   4.725  0.1022  0.2849 -0.0530
  997MOL0     N31522   1.380   3.053   4.368 -0.2829 -0.0252 -0.0397
  997MOL0     N31523   1.499   3.011   4.369 -0.0438  0.0858  0.2808
  997MOL0     C31524   2.558   2.557   4.535 -0.8040 -0.8825 -0.0670
  997MOL0     C31525   2.680   2.604   4.480  0.8332  0.3555 -0.1146
  997MOL0     C31526   3.111   2.716   4.433 -0.4512  0.0736 -0.3418
  997MOL0     C31527   3.213   2.631   4.385 -0.3453 -0.1663  0.2863
  997MOL0     C31528   3.340   2.688   4.334 -0.3228  0.2156 -0.8796
  997MOL0     C31529   3.362   2.822   4.339 -0.1524  0.6422 -0.5697
  997MOL0     O31530   3.482   2.877   4.297  0.9068 -0.3637  0.2765
  997MOL0     C31531   3.593   2.848   4.393  0.2959 -0.3977  0.4681
  997MOL0     C31532   3.724   2.876   4.325  0.7100 -0.1645  0.4218
  997MOL0     C31533   3.835   2.833   4.421 -0.1313  0.6337 -0.3003
  997MOL0     C31534   3.964   2.905   4.370 -0.0963 -0.4224  0.3992
  997MOL0     C31535   4.074   2.895   4.463 -0.6736  0.5243 -0.2720
  997MOL0     C31536   4.155   2.883   4.543 -0.0414  1.1556 -0.3092
  997MOL0     C31537   3.260   2.904   4.384  0.5675  0.2490  0.4397
  997MOL0     C31538   3.134   2.854   4.428 -0.4135 -0.4589  0.6912
  997MOL0     H31539   2.799   2.797   4.737  0.4485 -0.4690 -0.3814
  997MOL0     H31540   2.576   2.705   4.837 -2.5439  0.1691 -0.9890
  997MOL0     H31541   2.330   2.751   4.697  0.2098 -0.9764 -1.5386
  997MOL0     H31542   2.352   2.677   4.865  0.6182  1.1102  0.3126
  997MOL0     H31543   2.159   2.518   4.763  0.4096 -0.1102 -0.9978
  997MOL0     H31544   2.132   2.633   4.638  1.1850  0.1834  0.1484
  997MOL0     H31545   2.059   2.703   4.918 -0.1435  1.1626  0.2004
  997MOL0     H31546   1.965   2.669   4.777 -1.0099  2.7582 -0.8785
  997MOL0     H31547   2.170   2.887   4.820 -0.6040 -1.6796  0.3191
  997MOL0     H31548   2.103   2.858   4.661 -4.1426 -0.8231 -0.9847
  997MOL0     H31549   1.985   3.053   4.786  0.9055 -1.3049 -1.7318
  997MOL0     H31550   1.910   2.927   4.890 -0.9445  2.6393  0.7326
  997MOL0     H31551   1.805   2.816   4.690 -0.3444 -0.5133  1.0671
  997MOL0     H31552   1.909   2.909   4.595 -1.5628  0.4013 -0.9396
  997MOL0     H31553   1.664   3.027   4.734 -1.3735 -3.3354 -0.2885
  997MOL0     H31554   1.775   3.116   4.633 -0.6234  1.3634  4.7801
  997MOL0     H31555   1.653   2.857   4.534  1.3068 -0.8437  0.4204
  997MOL0     H31556   1.737   2.966   4.442  2.1782  0.6650  2.0545
  997MOL0     H31557   1.450   3.111   4.674  2.1011  1.5524 -0.9143
  997MOL0     H31558   1.217   3.244   4.578 -3.5350  0.3813  0.8653
  997MOL0     H31559   1.175   3.088   4.629 -1.5084  1.2873  0.9578
  997MOL0     H31560   1.110   3.025   4.414  4.7882  0.8029  2.3736
  997MOL0     H31561   1.130   3.198   4.350 -3.1026  0.4164 -1.5992
  997MOL0     H31562   0.978   3.261   4.531 -0.0834  1.2571 -3.2793
  997MOL0     H31563   0.895   3.193   4.400 -1.3430  4.1869  2.6796
  997MOL0     H31564   0.930   3.070   4.661 -0.0408  1.4947 -0.9444
  997MOL0     H31565   0.924   2.956   4.521  1.3071 -0.9900  1.5952
  997MOL0     H31566   0.537   3.138   4.448 -1.9524  0.8819 -0.4113
  997MOL0     H31567   0.379   3.315   4.548 -0.6397 -0.2987 -0.0889
  997MOL0     H31568   0.087   3.506   4.604 -0.4291 -1.0880  1.8237
  997MOL0     H31569  -0.086   3.653   4.665 -0.4542 -1.8489  0.9873
  997MOL0     H31570  -0.221   3.843   4.687  0.6992 -0.6083  0.3361
  997MOL0     H31571  -0.069   3.913   4.651 -0.9508 -3.0049 -2.6939
  997MOL0     H31572  -0.137   4.100   4.826  0.0827  1.0945  0.0851
  997MOL0     H31573  -0.296   4.026   4.844 -2.2514 -0.1290 -3.1315
  997MOL0     H31574  -0.351   4.074   4.618 -1.3530  0.8078  1.6850
  997MOL0     H31575  -0.183   4.145   4.597  0.1534 -0.4872 -0.4245
  997MOL0     H31576  -0.223   4.341   4.705 -0.3769  1.3542  0.3219
  997MOL0     H31577  -0.373   4.298   4.611 -2.3256  1.8181  2.2561
  997MOL0     H31578  -0.335   4.293   4.904  2.3485 -0.8030 -1.3881
  997MOL0     H31579  -0.471   4.210   4.818  0.5906 -0.2082  0.1116
  997MOL0     H31580  -0.556   4.413   4.728 -1.1689 -1.3212  1.9146
  997MOL0     H31581  -0.408   4.502   4.770 -1.5615  2.2014 -1.0282
  997MOL0     H31582  -0.565   4.358   4.977  1.8073 -1.0096 -1.6849
  997MOL0     H31583  -0.468   4.509   4.998 -3.0157  1.2155  3.5544
  997MOL0     H31584  -0.747   4.494   4.879  0.3412 -1.6667  2.0183
  997MOL0     H31585  -0.646   4.643   4.885 -0.7298 -0.1701  0.0368
  997MOL0     H31586   0.121   3.817   4.992 -1.4031  1.2807 -0.3597
  997MOL0     H31587   0.299   3.641   4.959 -2.3171 -2.0504  1.1145
  997MOL0     H31588   0.669   3.387   4.854 -2.1006  0.4425  0.0694
  997MOL0     H31589   0.812   3.205   4.773  0.3155 -0.2060 -0.6584
  997MOL0     H31590   2.503   2.472   4.496  0.7850 -3.5826  3.0612
  997MOL0     H31591   2.702   2.573   4.378  2.2977 -0.0105  0.2937
  997MOL0     H31592   3.192   2.525   4.383  0.2891 -0.2908  0.0244
  997MOL0     H31593   3.416   2.627   4.287  1.8639  1.4282  0.8592
  997MOL0     H31594   3.598   2.749   4.440 -0.8921 -0.8241 -0.2671
  997MOL0     H31595   3.595   2.925   4.470  1.4498  1.2573 -1.1327
  997MOL0     H31596   3.719   2.817   4.233 -1.4533 -3.2470  2.3106
  997MOL0     H31597   3.729   2.983   4.302 -2.2815  0.3085  1.5797
  997MOL0     H31598   3.854   2.725   4.412 -1.3817  0.3842 -0.1500
  997MOL0     H31599   3.818   2.862   4.525 -0.8256  1.2456 -0.5815
  997MOL0     H31600   3.993   2.857   4.276  0.7832  0.4874  0.1909
  997MOL0     H31601   3.950   3.013   4.359  1.6045 -0.1999  0.0951
  997MOL0     H31602   4.233   2.845   4.606 -0.3928 -0.1553 -0.6295
  997MOL0     H31603   3.274   3.010   4.400 -1.5123  0.5297  0.6815
  997MOL0     H31604   3.060   2.920   4.472 -2.7068 -0.5584 -2.6729
  998MOL0     O31605   4.264   9.606   4.589  0.7080  0.5376 -0.2481
  998MOL0     C31606   4.315   9.676   4.501  0.5799  0.7918  0.1802
  998MOL0     O31607   4.252   9.732   4.391  0.2831  0.5599  0.2719
  998MOL0     C31608   4.119   9.715   4.357 -0.4099 -0.4684  0.2003
  998MOL0     C31609   4.076   9.704   4.222  0.1926  0.7062 -0.0174
  998MOL0     C31610   3.936   9.679   4.180 -0.0130 -0.8021  0.0055
  998MOL0     C31611   3.842   9.674   4.282 -0.1458 -1.0493 -0.2231
  998MOL0     O31612   3.719   9.625   4.241 -0.3623 -0.1733 -0.2713
  998MOL0     C31613   3.647   9.531   4.339 -0.4828  0.4827 -0.5525
  998MOL0     C31614   3.533   9.590   4.423  0.0591  0.5844  0.6399
  998MOL0     C31615   3.428   9.659   4.334 -0.1388  0.5782  0.8944
  998MOL0     C31616   3.305   9.566   4.323 -0.3145 -0.4472 -0.1795
  998MOL0     C31617   3.184   9.616   4.239  0.5523 -0.0840  0.0744
  998MOL0     C31618   3.104   9.496   4.198  0.1242  0.2002 -0.0148
  998MOL0     C31619   2.970   9.518   4.120 -0.4399 -0.1471 -0.2651
  998MOL0     C31620   2.859   9.574   4.207  0.0522 -0.1860 -0.3318
  998MOL0     N31621   2.800   9.467   4.296  0.3469  0.7939  0.5571
  998MOL0     C31622   2.707   9.378   4.248 -0.9446 -0.6282 -0.6790
  998MOL0     C31623   2.707   9.270   4.329 -0.9238  0.4025 -0.2764
  998MOL0     C31624   2.625   9.155   4.294 -0.6399 -0.1795  0.3259
  998MOL0     C31625   2.477   9.183   4.302 -0.6482  0.0303  0.2410
  998MOL0     C31626   2.390   9.054   4.295  0.1823 -0.5418 -0.3389
  998MOL0     C31627   2.244   9.087   4.295  0.2257  0.6362 -0.0295
  998MOL0     O31628   2.166   8.975   4.327 -0.6040 -0.8694  0.2898
  998MOL0     C31629   2.030   8.992   4.323  0.9859 -0.0189  0.3749
  998MOL0     C31630   1.966   9.114   4.281  0.2538 -1.1418  0.4644
  998MOL0     C31631   1.828   9.123   4.272 -0.4395 -0.3175  0.1698
  998MOL0     C31632   1.746   9.013   4.301 -0.2176  0.7452 -0.6619
  998MOL0     C31633   1.602   9.026   4.293 -0.5283 -0.5566  1.4584
  998MOL0     O31634   1.559   9.120   4.208 -0.1396  0.2427  0.7538
  998MOL0     C31635   1.436   9.162   4.209 -0.2393 -0.1686 -0.4285
  998MOL0     C31636   1.418   9.297   4.214  1.0020  0.1229 -0.1312
  998MOL0     C31637   1.291   9.353   4.180 -0.3201 -0.3805 -0.4038
  998MOL0     C31638   1.177   9.272   4.164 -0.1032  0.0370 -0.6691
  998MOL0     O31639   1.069   9.353   4.138  0.6738  0.9174  0.1454
  998MOL0     C31640   0.938   9.287   4.159  0.2182  0.0779 -0.5818
  998MOL0     C31641   0.835   9.398   4.153  0.5363  0.4658 -0.5079
  998MOL0     C31642   0.690   9.345   4.129 -0.8077 -0.1389  0.4334
  998MOL0     C31643   0.581   9.444   4.148  0.2029 -1.3686  0.5508
  998MOL0     C31644   0.525   9.492   4.008 -0.0207  1.1570 -0.3628
  998MOL0     C31645   0.434   9.378   3.935  0.0187 -0.3347 -0.0363
  998MOL0     C31646   0.316   9.334   4.019  0.3388  0.9026 -0.1735
  998MOL0     C31647   0.230   9.445   4.071 -0.0376  0.6089 -0.1635
  998MOL0    Cl31648   0.163   9.542   3.926  0.0644  0.0559  0.1226
  998MOL0     C31649   1.195   9.137   4.160  0.8030  0.4542  0.0691
  998MOL0     C31650   1.323   9.083   4.183  0.9833 -0.3563 -0.0482
  998MOL0     O31651   1.531   8.956   4.367  0.1939 -0.8834 -0.0399
  998MOL0     C31652   1.806   8.893   4.339  0.5635 -0.7060 -0.0053
  998MOL0     C31653   1.949   8.884   4.338 -1.1505  0.3302 -0.0366
  998MOL0     N31654   2.803   9.294   4.431  0.1250  0.2629  0.5190
  998MOL0     N31655   2.858   9.411   4.405  0.2609  0.5099  0.8342
  998MOL0     C31656   3.885   9.697   4.418  0.1715  0.0075  0.0934
  998MOL0     C31657   4.023   9.718   4.456 -0.3917 -0.1363  0.4729
  998MOL0     C31658   4.458   9.711   4.509  0.2215  0.0926  0.1215
  998MOL0     C31659   4.533   9.782   4.409 -0.1639 -0.9208  0.3409
  998MOL0     C31660   4.670   9.811   4.424 -0.3591  0.0672  0.5106
  998MOL0     C31661   4.743   9.764   4.533 -0.5718  0.3408 -0.9884
  998MOL0     O31662   4.881   9.788   4.535  0.3072 -0.9347 -1.1329
  998MOL0     C31663   4.964   9.774   4.656 -0.0857  0.5893  0.2086
  998MOL0     C31664   5.054   9.652   4.632 -0.1491  0.1451  0.0397
  998MOL0     C31665   5.140   9.658   4.512  0.0436 -0.7133 -0.0768
  998MOL0     C31666   5.260   9.764   4.516  0.7211 -0.0959 -0.5814
  998MOL0     C31667   5.357   9.705   4.613  0.1976 -0.4969 -0.6477
  998MOL0     C31668   5.451   9.655   4.675  0.5016  0.2474  0.3020
  998MOL0     C31669   4.671   9.686   4.625 -0.1911  0.0871 -1.4001
  998MOL0     C31670   4.534   9.656   4.621  0.2014 -0.6258 -0.2918
  998MOL0     H31671   4.135   9.729   4.135 -3.6016  1.9449 -2.4789
  998MOL0     H31672   3.910   9.658   4.077  0.6141 -1.5586 -0.0081
  998MOL0     H31673   3.714   9.488   4.414 -1.1721  0.3266 -0.0085
  998MOL0     H31674   3.607   9.450   4.276 -1.0554 -0.2110  0.6506
  998MOL0     H31675   3.574   9.666   4.491  0.0367  1.8781 -0.7288
  998MOL0     H31676   3.488   9.514   4.486  0.6771  2.1208  3.0513
  998MOL0     H31677   3.473   9.672   4.235 -0.6191  0.5121  0.6634
  998MOL0     H31678   3.400   9.759   4.368 -1.0193  0.5362  0.3329
  998MOL0     H31679   3.330   9.468   4.280 -0.7411 -1.7079  2.2741
  998MOL0     H31680   3.274   9.543   4.425  2.5485 -1.6215  0.5211
  998MOL0     H31681   3.211   9.674   4.150 -3.0138  2.8356  0.6696
  998MOL0     H31682   3.122   9.687   4.294 -1.9875 -1.9323 -0.2198
  998MOL0     H31683   3.082   9.427   4.279 -1.8001 -0.5675 -1.1367
  998MOL0     H31684   3.170   9.458   4.119  0.6483  0.4233  0.3047
  998MOL0     H31685   2.982   9.593   4.041  0.9469  1.2484  1.1908
  998MOL0     H31686   2.937   9.428   4.067 -2.7476 -0.4876  1.5684
  998MOL0     H31687   2.779   9.615   4.145  0.3037  0.6008 -0.1449
  998MOL0     H31688   2.887   9.659   4.270 -1.0867  0.5006 -0.7175
  998MOL0     H31689   2.653   9.387   4.155  0.4542 -2.4210 -1.7414
  998MOL0     H31690   2.664   9.072   4.353  0.2846  0.4484  0.6129
  998MOL0     H31691   2.638   9.121   4.191 -2.4807 -0.2527  0.0744
  998MOL0     H31692   2.448   9.244   4.216 -0.4731 -1.7595 -1.1460
  998MOL0     H31693   2.455   9.239   4.394  0.0482 -0.9356  1.0192
  998MOL0     H31694   2.417   8.990   4.211  1.5893  0.3363 -0.5886
  998MOL0     H31695   2.411   9.000   4.388  0.4653 -1.4375 -0.9093
  998MOL0     H31696   2.228   9.118   4.191  1.2981 -1.4155 -0.8633
  998MOL0     H31697   2.225   9.166   4.369 -2.5317 -1.7207  2.0265
  998MOL0     H31698   2.015   9.207   4.255 -1.8825 -0.0801  0.0123
  998MOL0     H31699   1.790   9.220   4.244 -0.0182 -0.4158 -0.7642
  998MOL0     H31700   1.504   9.364   4.214  1.1189  0.0571  2.4801
  998MOL0     H31701   1.292   9.462   4.174  0.7196 -0.2031  1.9434
  998MOL0     H31702   0.926   9.239   4.256  2.7288  3.6584  1.7722
  998MOL0     H31703   0.913   9.214   4.081 -2.6949 -1.2608  1.4247
  998MOL0     H31704   0.872   9.462   4.072 -3.3256  0.3975 -2.5453
  998MOL0     H31705   0.834   9.454   4.247 -6.1416  0.0132  0.1669
  998MOL0     H31706   0.670   9.256   4.190  0.4547 -2.4676 -2.3163
  998MOL0     H31707   0.685   9.310   4.025 -0.4011  0.3275  0.2523
  998MOL0     H31708   0.500   9.401   4.207  1.1137 -0.2613  2.7598
  998MOL0     H31709   0.615   9.534   4.202 -3.2187 -0.9159  2.2306
  998MOL0     H31710   0.603   9.527   3.940 -1.9833  2.5095 -2.0577
  998MOL0     H31711   0.477   9.585   4.041  2.1788  0.9447  4.3651
  998MOL0     H31712   0.495   9.289   3.917  0.8679  0.6003 -2.0335
  998MOL0     H31713   0.396   9.413   3.839  0.7588 -1.3598 -0.7320
  998MOL0     H31714   0.250   9.283   3.948 -2.2225  0.8150  2.0955
  998MOL0     H31715   0.342   9.262   4.096  0.7171  1.6457  0.4093
  998MOL0     H31716   0.289   9.505   4.141  2.5574 -0.2393 -1.5216
  998MOL0     H31717   0.143   9.410   4.128  1.1877 -1.6576  0.4435
  998MOL0     H31718   1.109   9.070   4.157  2.0039 -1.1603 -3.6103
  998MOL0     H31719   1.330   8.975   4.173  0.0949 -0.4137 -0.1759
  998MOL0     H31720   1.743   8.815   4.379 -0.4604 -0.6683 -1.4333
  998MOL0     H31721   1.989   8.786   4.363 -3.5089 -0.1700  2.1711
  998MOL0     H31722   3.810   9.683   4.496 -0.8482  1.7980 -0.5147
  998MOL0     H31723   4.050   9.728   4.561 -0.0926 -1.7394  0.5725
  998MOL0     H31724   4.481   9.822   4.323 -1.1846  0.1611  1.4002
  998MOL0     H31725   4.721   9.872   4.350  1.9509 -0.6625  1.4047
  998MOL0     H31726   4.903   9.764   4.746  2.1718  1.5029  1.9351
  998MOL0     H31727   5.024   9.865   4.666  0.5207  0.0083  2.5366
  998MOL0     H31728   5.118   9.631   4.718 -0.4594 -0.1044  0.2106
  998MOL0     H31729   4.987   9.567   4.646  0.7961 -0.3395  2.0091
  998MOL0     H31730   5.091   9.673   4.415  0.0561 -2.0848 -0.3183
  998MOL0     H31731   5.172   9.554   4.497  2.5242  0.1140 -1.1333
  998MOL0     H31732   5.301   9.776   4.416 -1.9567  1.5385 -1.5779
  998MOL0     H31733   5.229   9.860   4.557  0.2597 -0.3756 -0.2593
  998MOL0     H31734   5.520   9.607   4.742  2.7091 -0.5335 -2.3801
  998MOL0     H31735   4.734   9.632   4.695  1.9243  3.9318 -0.0699
  998MOL0     H31736   4.485   9.593   4.696 -1.8944  0.0936 -0.9876
  999MOL0     O31737   5.755   1.545   9.262 -0.1119  0.3634 -0.2817
  999MOL0     C31738   5.726   1.448   9.195  0.0482  0.7733  0.3403
  999MOL0     O31739   5.817   1.367   9.134 -0.6990  0.9078  0.1834
  999MOL0     C31740   5.956   1.381   9.141 -0.6809  0.0662  0.8660
  999MOL0     C31741   6.041   1.494   9.168 -0.0638 -0.0016 -1.1318
  999MOL0     C31742   6.174   1.486   9.188  0.5880  0.8414  0.3237
  999MOL0     C31743   6.249   1.368   9.144 -0.2128 -0.3227  0.6086
  999MOL0     O31744   6.386   1.358   9.142 -0.5524 -0.5978  0.0753
  999MOL0     C31745   6.470   1.470   9.115  0.4629  0.1189  0.1626
  999MOL0     C31746   6.616   1.418   9.104  0.2135  1.2066  0.0521
  999MOL0     C31747   6.662   1.323   9.213  0.4110 -0.3638 -0.3510
  999MOL0     C31748   6.640   1.371   9.363 -0.6899  1.6718  0.3174
  999MOL0     C31749   6.674   1.261   9.475  0.2910  0.4988  0.1277
  999MOL0     C31750   6.614   1.114   9.465 -0.0985  0.1304  0.7998
  999MOL0     C31751   6.462   1.115   9.433  0.0362  0.1089  0.5116
  999MOL0     C31752   6.376   1.153   9.561 -0.4088 -0.2632  1.0918
  999MOL0     N31753   6.228   1.130   9.548 -0.6193 -1.1096  0.5767
  999MOL0     C31754   6.133   1.198   9.478 -0.0781 -0.4929 -0.5711
  999MOL0     C31755   6.018   1.169   9.527  0.5431  0.4023  0.9583
  999MOL0     C31756   5.886   1.229   9.481 -0.4696 -0.1913 -0.5711
  999MOL0     C31757   5.758   1.139   9.516 -0.8146  0.1957  0.0912
  999MOL0     C31758   5.674   1.197   9.628 -0.3943 -0.0359  0.1866
  999MOL0     C31759   5.553   1.112   9.655 -0.1268  0.1638 -0.3149
  999MOL0     O31760   5.461   1.159   9.563  0.3219 -0.0076  1.0297
  999MOL0     C31761   5.328   1.133   9.583  0.1850  0.5056  0.2842
  999MOL0     C31762   5.236   1.177   9.486 -0.1661  0.9003  0.6376
  999MOL0     C31763   5.096   1.160   9.503  0.5057 -0.5530  0.9592
  999MOL0     C31764   5.038   1.086   9.612  0.4792 -0.1339 -0.1124
  999MOL0     C31765   4.897   1.080   9.626  0.0014  0.1044  0.2620
  999MOL0     O31766   4.865   0.986   9.716  0.4815  0.0535 -0.5273
  999MOL0     C31767   4.731   0.964   9.738 -0.4447  0.2024  0.6072
  999MOL0     C31768   4.664   1.038   9.837 -0.5085 -0.2402 -0.4545
  999MOL0     C31769   4.531   1.028   9.846  0.0744  0.3708  0.0346
  999MOL0     C31770   4.459   0.926   9.780  0.6953 -0.2001  0.0724
  999MOL0     O31771   4.321   0.902   9.811 -0.2215  0.6288 -0.2450
  999MOL0     C31772   4.259   0.776   9.795 -0.1860 -0.2800 -0.7889
  999MOL0     C31773   4.269   0.686   9.912 -0.1212  0.3993  0.6429
  999MOL0     C31774   4.213   0.742  10.042 -1.1684 -0.1373 -0.5160
  999MOL0     C31775   4.069   0.789  10.020  0.5006 -0.0037 -0.7830
  999MOL0     C31776   3.993   0.806  10.160 -0.4297 -0.2164 -0.1137
  999MOL0     C31777   3.871   0.896  10.164  0.0020 -0.2273 -0.2599
  999MOL0     C31778   3.823   0.933  10.309  0.4275 -0.6576 -0.1254
  999MOL0     C31779   3.673   0.969  10.324 -0.6518  0.0036  0.5597
  999MOL0    Cl31780   3.631   0.953  10.494 -0.4212 -0.4330  0.1398
  999MOL0     C31781   4.526   0.853   9.684  0.0221 -0.2385  0.5900
  999MOL0     C31782   4.661   0.874   9.654  0.3909  0.3600  0.7996
  999MOL0     O31783   4.825   1.173   9.589  0.3615 -0.2476  0.0348
  999MOL0     C31784   5.127   1.027   9.700 -0.8108  0.3960 -0.1367
  999MOL0     C31785   5.266   1.051   9.687 -0.0616 -0.1239  0.3615
  999MOL0     N31786   6.034   1.093   9.639 -0.2937  0.1037 -0.2432
  999MOL0     N31787   6.158   1.051   9.636 -0.7472  0.4469 -0.2303
  999MOL0     C31788   6.171   1.257   9.103  0.0476 -0.2571  0.5867
  999MOL0     C31789   6.028   1.265   9.105 -0.7081 -0.4793  0.6829
  999MOL0     C31790   5.581   1.417   9.201 -0.6296 -0.0860 -0.2491
  999MOL0     C31791   5.486   1.525   9.232  0.4333 -0.5831 -0.3102
  999MOL0     C31792   5.351   1.492   9.222 -0.5565 -0.0409 -1.3561
  999MOL0     C31793   5.295   1.369   9.196 -0.0202 -0.4704  0.2668
  999MOL0     O31794   5.165   1.333   9.198 -0.0123  0.8625  0.1531
  999MOL0     C31795   5.067   1.425   9.254 -0.3583  0.9369  0.6142
  999MOL0     C31796   4.996   1.510   9.144 -0.7846  0.5905  0.0490
  999MOL0     C31797   4.876   1.435   9.073  0.1921 -0.3847 -0.1899
  999MOL0     C31798   4.738   1.491   9.116  0.1050  0.2364 -0.4068
  999MOL0     C31799   4.704   1.452   9.259 -0.0832  0.5301  0.2887
  999MOL0     C31800   4.683   1.398   9.375 -0.4971  0.2592  0.7530
  999MOL0     C31801   5.388   1.265   9.169 -0.6927  0.4757  0.5617
  999MOL0     C31802   5.531   1.290   9.165 -0.2552  0.5711  0.1242
  999MOL0     H31803   5.988   1.587   9.191  0.6517 -0.2239  1.6646
  999MOL0     H31804   6.230   1.574   9.218  1.7466  0.1699  0.1907
  999MOL0     H31805   6.473   1.528   9.208  2.9260 -0.4450  0.5141
  999MOL0     H31806   6.442   1.519   9.022  2.6536  0.2953 -0.4491
  999MOL0     H31807   6.687   1.501   9.111  4.0813 -1.9505  1.8683
  999MOL0     H31808   6.623   1.367   9.007 -1.0926  1.8022 -0.3839
  999MOL0     H31809   6.764   1.286   9.201  0.3007 -0.3158 -1.6326
  999MOL0     H31810   6.597   1.235   9.203 -1.6102  0.9518  0.5519
  999MOL0     H31811   6.702   1.459   9.376 -0.0656  1.3574 -0.4677
  999MOL0     H31812   6.534   1.398   9.375 -1.2512  0.7264 -1.8810
  999MOL0     H31813   6.640   1.305   9.569 -1.4025 -1.7454  0.6628
  999MOL0     H31814   6.782   1.248   9.477  0.4435  1.7230  0.3169
  999MOL0     H31815   6.637   1.044   9.546 -0.3165 -1.5832 -0.5573
  999MOL0     H31816   6.654   1.062   9.377 -0.1220  0.2650  0.7098
  999MOL0     H31817   6.439   1.179   9.347 -0.2681 -0.6229  0.0385
  999MOL0     H31818   6.428   1.013   9.414  0.8807 -0.5217  2.1455
  999MOL0     H31819   6.380   1.259   9.587  1.0054  0.1929 -0.7794
  999MOL0     H31820   6.420   1.109   9.651  0.0334  1.1288  1.5852
  999MOL0     H31821   6.144   1.270   9.397  3.5427 -0.9116 -0.6092
  999MOL0     H31822   5.882   1.224   9.371 -0.0487 -0.8550 -0.5636
  999MOL0     H31823   5.870   1.328   9.523 -0.7269 -1.0459  1.4200
  999MOL0     H31824   5.785   1.036   9.542 -2.2549  0.1653  1.6435
  999MOL0     H31825   5.695   1.137   9.426  0.5598  0.7494 -0.9149
  999MOL0     H31826   5.735   1.197   9.718  0.1089 -1.2102 -0.1385
  999MOL0     H31827   5.643   1.301   9.614 -2.1101 -0.7508 -1.7584
  999MOL0     H31828   5.522   1.120   9.760 -0.9804 -0.0877 -0.5346
  999MOL0     H31829   5.572   1.005   9.638  0.6078  0.2091  0.1867
  999MOL0     H31830   5.280   1.211   9.393 -0.9191 -1.0125 -0.4950
  999MOL0     H31831   5.026   1.188   9.424  2.1220 -1.1340 -0.7590
  999MOL0     H31832   4.723   1.112   9.890 -1.7948  0.8685 -0.5184
  999MOL0     H31833   4.478   1.089   9.919  0.5319 -0.8162  1.4022
  999MOL0     H31834   4.294   0.721   9.708  1.4380 -2.5961  1.1867
  999MOL0     H31835   4.151   0.789   9.781 -0.5179  0.1577  1.6621
  999MOL0     H31836   4.371   0.652   9.928 -0.1837  0.3584  0.9538
  999MOL0     H31837   4.205   0.600   9.887 -1.0533  0.7210  1.8239
  999MOL0     H31838   4.271   0.819  10.093 -2.7748  0.3366  0.6769
  999MOL0     H31839   4.213   0.655  10.109  0.4148 -0.0227 -0.3269
  999MOL0     H31840   4.076   0.883   9.966 -0.8513 -0.5156 -1.8935
  999MOL0     H31841   4.008   0.719   9.962 -1.8623 -1.5957  3.1396
  999MOL0     H31842   4.073   0.837  10.229 -0.9481 -0.0577  0.4277
  999MOL0     H31843   3.958   0.711  10.200  0.0341 -0.1840  0.3963
  999MOL0     H31844   3.788   0.844  10.115  1.7031 -3.0418 -0.4072
  999MOL0     H31845   3.889   0.977  10.093 -2.0456  0.7240  0.2254
  999MOL0     H31846   3.835   0.847  10.375 -0.4840  0.0338  0.9643
  999MOL0     H31847   3.879   1.020  10.346 -1.9614  1.2214 -0.7240
  999MOL0     H31848   3.610   0.928  10.245  0.6537  1.0779 -1.1087
  999MOL0     H31849   3.666   1.075  10.296  1.9990  0.3010  0.7614
  999MOL0     H31850   4.473   0.785   9.617 -1.9453  1.0133  0.7984
  999MOL0     H31851   4.716   0.844   9.565  2.0596  1.3142  1.4507
  999MOL0     H31852   5.098   0.967   9.785  1.8685 -0.5959  0.1801
  999MOL0     H31853   5.332   1.014   9.765 -1.9610  2.0238  3.2115
  999MOL0     H31854   6.231   1.175   9.064 -0.0113 -0.2513  0.4837
  999MOL0     H31855   5.975   1.172   9.088  0.2816 -1.3963  2.3593
  999MOL0     H31856   5.515   1.623   9.269 -1.8161 -0.6295  1.7893
  999MOL0     H31857   5.280   1.573   9.238 -1.9821 -1.4412 -0.1554
  999MOL0     H31858   5.111   1.493   9.327 -2.7957  2.8755  0.4270
  999MOL0     H31859   5.003   1.364   9.319 -0.2914 -2.9639 -2.5971
  999MOL0     H31860   4.966   1.604   9.192 -0.1751  0.7109  0.1973
  999MOL0     H31861   5.071   1.539   9.070  0.4321  0.4662  1.1988
  999MOL0     H31862   4.889   1.327   9.082  1.4735 -0.3523 -1.4113
  999MOL0     H31863   4.887   1.458   8.966 -0.5271  0.0760 -0.1717
  999MOL0     H31864   4.755   1.599   9.113  4.4104 -0.2784 -1.0718
  999MOL0     H31865   4.671   1.451   9.040 -0.2929 -1.2965  0.6967
  999MOL0     H31866   4.658   1.343   9.464 -1.9352  0.0306  0.2433
  999MOL0     H31867   5.349   1.164   9.159  0.4402  0.1468 -0.9152
  999MOL0     H31868   5.598   1.206   9.145  1.4972  1.2213  2.6940
 1000MOL0     O31869   7.195   5.096   3.980 -0.2548 -0.3021 -0.8820
 1000MOL0     C31870   7.257   5.043   4.076 -0.1655 -0.8867  0.1206
 1000MOL0     O31871   7.249   4.916   4.126 -0.0943 -0.1323 -1.1739
 1000MOL0     C31872   7.148   4.845   4.076  0.8668  0.8754 -0.5574
 1000MOL0     C31873   7.134   4.803   3.942 -0.5668 -0.3389 -0.7262
 1000MOL0     C31874   7.017   4.736   3.900 -1.1810 -0.9036  0.0118
 1000MOL0     C31875   6.921   4.694   3.996 -0.5036  0.1776  0.3950
 1000MOL0     O31876   6.816   4.623   3.945 -0.8222 -0.2599  0.1670
 1000MOL0     C31877   6.713   4.572   4.025 -0.1526 -0.0331 -0.1462
 1000MOL0     C31878   6.634   4.467   3.936 -0.0032 -0.2825  0.4672
 1000MOL0     C31879   6.525   4.390   4.017  0.5024 -0.2984 -0.2061
 1000MOL0     C31880   6.470   4.263   3.952 -0.0078  0.5190  0.0454
 1000MOL0     C31881   6.361   4.193   4.035 -0.1977 -0.0411 -0.3045
 1000MOL0     C31882   6.255   4.120   3.955 -0.1599 -0.0393  0.2622
 1000MOL0     C31883   6.140   4.062   4.047  0.6119 -0.2874  0.5322
 1000MOL0     C31884   6.027   4.026   3.952 -0.1260  0.2302 -0.2600
 1000MOL0     N31885   5.934   3.955   4.040  0.2562  0.9374 -0.0087
 1000MOL0     C31886   5.814   4.016   4.087  0.2702  0.3533 -0.0293
 1000MOL0     C31887   5.744   3.906   4.134 -0.7395 -0.3267 -0.3738
 1000MOL0     C31888   5.603   3.914   4.203  0.0658  0.0866 -0.3383
 1000MOL0     C31889   5.495   3.936   4.099 -0.0964  0.0523 -0.3995
 1000MOL0     C31890   5.366   3.981   4.160  0.4115 -0.8928 -0.3747
 1000MOL0     C31891   5.244   3.986   4.060 -0.6763  0.0776 -0.1483
 1000MOL0     O31892   5.129   4.012   4.146 -0.1053 -0.3051 -0.2381
 1000MOL0     C31893   5.005   4.006   4.085  0.0043  0.0184  0.8586
 1000MOL0     C31894   4.899   4.022   4.171 -0.4349  0.4160  0.3829
 1000MOL0     C31895   4.768   4.006   4.117 -0.0532  0.4476 -0.0725
 1000MOL0     C31896   4.741   3.979   3.982  0.0592  0.7932  0.1555
 1000MOL0     C31897   4.595   3.967   3.939  0.0385  0.0550  0.3332
 1000MOL0     O31898   4.569   3.979   3.811 -0.0321  0.2650  0.4789
 1000MOL0     C31899   4.439   4.005   3.766 -0.6653 -0.3407  0.0570
 1000MOL0     C31900   4.356   4.101   3.824 -0.5905 -0.2885 -0.2570
 1000MOL0     C31901   4.233   4.127   3.783  0.2780 -0.1097 -0.4750
 1000MOL0     C31902   4.169   4.050   3.685 -0.4817 -0.0854 -0.1236
 1000MOL0     O31903   4.047   4.093   3.648 -0.2987 -0.0060  0.7354
 1000MOL0     C31904   4.028   4.089   3.508 -0.1177  0.7893 -0.3541
 1000MOL0     C31905   3.885   4.115   3.475 -0.4041 -0.5212 -0.5557
 1000MOL0     C31906   3.856   4.080   3.329  0.6953  0.0224 -0.9506
 1000MOL0     C31907   3.716   4.136   3.285 -0.1604  0.6795  0.2759
 1000MOL0     C31908   3.689   4.107   3.136 -0.5787 -0.0443 -0.2089
 1000MOL0     C31909   3.560   4.185   3.088  0.0185  0.0677 -0.4458
 1000MOL0     C31910   3.571   4.334   3.083  0.3346 -0.3332 -0.1198
 1000MOL0     C31911   3.543   4.394   2.951 -0.4275  0.0404 -0.6139
 1000MOL0    Cl31912   3.555   4.571   2.966  0.1750 -0.1541 -0.3237
 1000MOL0     C31913   4.253   3.953   3.627 -0.4808  0.8915  0.0554
 1000MOL0     C31914   4.385   3.929   3.669  0.3237  0.2664 -0.1921
 1000MOL0     O31915   4.513   3.975   4.030 -0.3021  0.3023  0.3782
 1000MOL0     C31916   4.849   3.964   3.896  0.7691  0.3060  0.5609
 1000MOL0     C31917   4.980   3.977   3.945 -0.2457 -0.7146 -0.8137
 1000MOL0     N31918   5.819   3.791   4.114 -0.2336 -0.5483  0.2921
 1000MOL0     N31919   5.933   3.824   4.058  0.7326  0.5598  0.0067
 1000MOL0     C31920   6.949   4.723   4.133  0.2210  0.4757  0.6769
 1000MOL0     C31921   7.063   4.791   4.175  1.9434  0.3495  0.4556
 1000MOL0     C31922   7.372   5.120   4.122 -0.4022 -0.9669 -0.1588
 1000MOL0     C31923   7.392   5.246   4.067 -0.0881  0.4245  0.0142
 1000MOL0     C31924   7.506   5.327   4.113  0.5458 -0.1320 -0.3438
 1000MOL0     C31925   7.595   5.283   4.216  0.1434  0.3162 -0.1183
 1000MOL0     O31926   7.714   5.339   4.256 -0.0122  0.0491 -0.2080
 1000MOL0     C31927   7.761   5.470   4.207  0.7501 -0.5156 -0.2112
 1000MOL0     C31928   7.865   5.525   4.306  0.5214  0.3335  0.0643
 1000MOL0     C31929   7.995   5.451   4.305 -0.3792 -0.5400 -0.8086
 1000MOL0     C31930   7.987   5.312   4.372  0.4827  0.2558  0.4576
 1000MOL0     C31931   8.121   5.272   4.406  0.1486 -0.4376  0.3181
 1000MOL0     C31932   8.235   5.246   4.438 -0.3164 -0.2278 -0.3565
 1000MOL0     C31933   7.569   5.159   4.267  0.1571  0.4464  0.2254
 1000MOL0     C31934   7.463   5.072   4.217 -0.3209 -0.5608 -0.2329
 1000MOL0     H31935   7.221   4.808   3.878  1.7119 -0.7106  2.1353
 1000MOL0     H31936   7.008   4.703   3.797 -0.3905  3.1826 -1.5618
 1000MOL0     H31937   6.645   4.645   4.070  0.0311 -1.0170  1.8311
 1000MOL0     H31938   6.764   4.510   4.100  0.8128 -0.3283 -1.0325
 1000MOL0     H31939   6.701   4.383   3.916  1.8321  0.3724  3.2677
 1000MOL0     H31940   6.588   4.510   3.847 -0.2335 -0.8234  0.3208
 1000MOL0     H31941   6.438   4.446   4.055  1.4359 -1.5444  4.3171
 1000MOL0     H31942   6.567   4.365   4.114 -0.5173  0.3403  0.4260
 1000MOL0     H31943   6.429   4.279   3.852  2.5543  0.9148 -1.0280
 1000MOL0     H31944   6.558   4.198   3.937  1.6928  2.8172 -0.4811
 1000MOL0     H31945   6.307   4.273   4.086  0.9905 -0.1997  1.3089
 1000MOL0     H31946   6.401   4.119   4.106 -1.9407 -0.5322  0.2162
 1000MOL0     H31947   6.306   4.044   3.896  2.8227  0.4175  2.0185
 1000MOL0     H31948   6.204   4.199   3.900 -2.4291  0.4187  2.8123
 1000MOL0     H31949   6.179   3.982   4.110  0.6660 -2.2501 -1.8612
 1000MOL0     H31950   6.108   4.135   4.122  1.1275 -1.3818  1.8745
 1000MOL0     H31951   6.052   3.957   3.871  1.3376 -2.1504  2.0662
 1000MOL0     H31952   5.986   4.121   3.917  2.0245  2.0110  1.6893
 1000MOL0     H31953   5.793   4.122   4.092  1.0323  0.4742  0.8280
 1000MOL0     H31954   5.599   4.000   4.271  0.2254  1.5827 -2.1374
 1000MOL0     H31955   5.580   3.820   4.254 -0.5727  0.4551  0.0735
 1000MOL0     H31956   5.479   3.841   4.047 -1.6563  1.2768 -2.3032
 1000MOL0     H31957   5.522   4.009   4.021  3.0341  0.9377  1.3274
 1000MOL0     H31958   5.331   3.916   4.241 -1.0011 -0.6785 -0.7724
 1000MOL0     H31959   5.381   4.083   4.195 -1.4951 -0.4282 -0.7819
 1000MOL0     H31960   5.241   3.891   4.006  3.5840  0.6037 -1.7386
 1000MOL0     H31961   5.255   4.068   3.989 -0.0824  0.2563  0.1402
 1000MOL0     H31962   4.921   4.029   4.277 -3.2821  1.1328  1.0322
 1000MOL0     H31963   4.683   4.017   4.184  0.7956 -1.2545  1.3443
 1000MOL0     H31964   4.398   4.166   3.900  1.2208 -1.2587 -0.3573
 1000MOL0     H31965   4.187   4.208   3.839 -0.4191 -0.7089 -0.1567
 1000MOL0     H31966   4.072   3.996   3.471  1.5196  1.1706  0.5126
 1000MOL0     H31967   4.086   4.173   3.468  0.6898  0.2458 -0.3660
 1000MOL0     H31968   3.872   4.222   3.496  1.1009 -0.7743  1.9721
 1000MOL0     H31969   3.829   4.058   3.549  2.7705  0.9975  3.3609
 1000MOL0     H31970   3.869   3.973   3.312 -2.4282 -0.5931 -0.1344
 1000MOL0     H31971   3.930   4.135   3.270  2.5152 -0.5532  0.7018
 1000MOL0     H31972   3.629   4.090   3.332 -3.3319  2.6808 -3.1494
 1000MOL0     H31973   3.708   4.242   3.309  2.7452  0.1467  4.7880
 1000MOL0     H31974   3.672   3.999   3.128  0.4847 -0.1939 -0.5680
 1000MOL0     H31975   3.769   4.145   3.072  0.0250 -0.1228  0.4925
 1000MOL0     H31976   3.478   4.156   3.154  0.5851  0.9381  0.6800
 1000MOL0     H31977   3.552   4.146   2.986  4.3034 -0.1955 -0.8955
 1000MOL0     H31978   3.509   4.384   3.157 -3.0807 -2.3325 -1.3965
 1000MOL0     H31979   3.670   4.369   3.113 -0.1120  1.7169 -0.8959
 1000MOL0     H31980   3.439   4.365   2.931 -0.6481 -0.0660  0.6030
 1000MOL0     H31981   3.611   4.355   2.876 -0.7116  0.9027 -1.3377
 1000MOL0     H31982   4.221   3.876   3.558  1.9350 -0.6376  0.5260
 1000MOL0     H31983   4.433   3.846   3.618 -0.5796 -0.6194  0.3601
 1000MOL0     H31984   4.840   3.940   3.790  1.1979 -2.6424  1.1094
 1000MOL0     H31985   5.065   3.962   3.878  2.5417 -0.9619  2.5124
 1000MOL0     H31986   6.875   4.677   4.197 -1.5934 -1.0744 -2.3671
 1000MOL0     H31987   7.076   4.810   4.281  1.6225  0.3691  0.4926
 1000MOL0     H31988   7.326   5.291   3.994 -0.2584  0.3416  0.1187
 1000MOL0     H31989   7.524   5.422   4.062  0.5436  1.1400  1.9225
 1000MOL0     H31990   7.676   5.539   4.196 -0.1920 -1.9054 -2.1061
 1000MOL0     H31991   7.800   5.456   4.106  0.2065  2.4220 -0.9272
 1000MOL0     H31992   7.891   5.628   4.281  0.6549  0.5546  1.0486
 1000MOL0     H31993   7.820   5.525   4.406 -0.1988 -2.0304 -0.1997
 1000MOL0     H31994   8.078   5.510   4.346 -0.9698  0.6813 -1.3119
 1000MOL0     H31995   8.028   5.442   4.201  0.5526 -1.3640 -0.4562
 1000MOL0     H31996   7.925   5.314   4.462 -1.8191  2.5587 -1.0441
 1000MOL0     H31997   7.943   5.242   4.300 -0.6960  0.5683  0.8528
 1000MOL0     H31998   8.332   5.215   4.469 -0.3995 -1.3740 -1.1832
 1000MOL0     H31999   7.634   5.114   4.342 -0.3302  2.2831  1.8336
 1000MOL0     H32000   7.459   4.967   4.243  1.6479 -1.5250 -3.3169
 1001MOL0     O32001   0.134   6.714  10.837 -0.1184 -0.0525 -0.6490
 1001MOL0     C32002   0.167   6.828  10.852  0.0094  0.0431 -0.4425
 1001MOL0     O32003   0.080   6.928  10.889  0.7857 -0.5966 -0.6914
 1001MOL0     C32004  -0.059   6.913  10.904  0.0477 -0.5281 -0.0261
 1001MOL0     C32005  -0.133   7.033  10.908 -0.8808 -0.9830  0.7981
 1001MOL0     C32006  -0.268   7.038  10.932 -0.0008 -0.1159  0.0695
 1001MOL0     C32007  -0.337   6.918  10.964 -0.0259 -0.4835 -0.1710
 1001MOL0     O32008  -0.471   6.916  10.984 -0.3963 -0.3766 -0.0290
 1001MOL0     C32009  -0.547   7.041  11.000 -0.0161 -0.2750  0.6257
 1001MOL0     C32010  -0.685   7.010  11.047  0.3849  0.3740  0.2791
 1001MOL0     C32011  -0.734   6.878  10.996  0.6509  0.6186  0.6399
 1001MOL0     C32012  -0.887   6.852  11.024 -0.1826 -0.1853 -0.0855
 1001MOL0     C32013  -0.943   6.715  11.018 -0.0301 -0.8035 -0.7142
 1001MOL0     C32014  -1.090   6.700  11.037  0.9281 -0.6537 -1.0245
 1001MOL0     C32015  -1.173   6.797  10.940 -0.2101 -0.4586 -0.3477
 1001MOL0     C32016  -1.322   6.784  10.953  0.2101 -0.5391  0.0431
 1001MOL0     N32017  -1.389   6.819  10.832 -0.1388 -0.0414  0.1385
 1001MOL0     C32018  -1.374   6.944  10.778  0.3469 -0.4001 -0.1966
 1001MOL0     C32019  -1.434   6.941  10.655  0.4767  0.5485 -0.9308
 1001MOL0     C32020  -1.438   7.054  10.552 -0.2024 -0.6744  0.6322
 1001MOL0     C32021  -1.348   7.005  10.436  0.4856  0.6456 -0.3247
 1001MOL0     C32022  -1.369   7.092  10.313 -0.6268 -0.3147  0.6977
 1001MOL0     C32023  -1.297   7.031  10.197 -1.1403 -0.1443  0.2924
 1001MOL0     O32024  -1.154   7.067  10.207  0.8202  0.2461  0.0778
 1001MOL0     C32025  -1.066   7.006  10.121 -0.2636 -0.1962  0.2827
 1001MOL0     C32026  -0.935   7.035  10.138 -0.9543  0.0320 -0.5448
 1001MOL0     C32027  -0.845   6.973  10.059  0.1129 -0.4900  0.3065
 1001MOL0     C32028  -0.876   6.884   9.960 -0.1286 -0.7637 -0.0804
 1001MOL0     C32029  -0.770   6.825   9.871 -0.0424 -0.2385 -0.6192
 1001MOL0     O32030  -0.645   6.849   9.901 -0.2503  0.2391  0.1935
 1001MOL0     C32031  -0.550   6.787   9.819 -0.1826  0.2133 -0.1298
 1001MOL0     C32032  -0.491   6.671   9.866 -0.7788 -0.3369  0.3706
 1001MOL0     C32033  -0.375   6.624   9.811 -0.7463 -0.5905 -0.3353
 1001MOL0     C32034  -0.329   6.674   9.696 -0.1391  0.6117  0.8330
 1001MOL0     O32035  -0.212   6.618   9.643  0.5440  0.5810 -0.1664
 1001MOL0     C32036  -0.109   6.712   9.592 -0.0652 -0.4116  0.1274
 1001MOL0     C32037   0.026   6.649   9.581 -1.3060 -0.3091  0.0537
 1001MOL0     C32038   0.135   6.753   9.557 -0.0089  0.7287  0.4622
 1001MOL0     C32039   0.270   6.673   9.536 -0.0708 -0.2142  1.1332
 1001MOL0     C32040   0.391   6.760   9.505 -0.1835 -0.1391  0.2975
 1001MOL0     C32041   0.519   6.683   9.531  0.3936 -0.0775 -0.1325
 1001MOL0     C32042   0.628   6.763   9.470  0.7697  1.0731 -0.0211
 1001MOL0     C32043   0.762   6.705   9.484  0.3696 -0.5332  0.5561
 1001MOL0    Cl32044   0.762   6.528   9.423 -0.0446 -0.0197  0.3381
 1001MOL0     C32045  -0.389   6.784   9.641  0.1407 -0.2733 -1.0152
 1001MOL0     C32046  -0.500   6.850   9.703  0.2169  0.0742 -0.0963
 1001MOL0     O32047  -0.813   6.748   9.789 -0.6043 -0.6785 -0.3694
 1001MOL0     C32048  -1.008   6.857   9.940  0.0157 -0.0975  0.2317
 1001MOL0     C32049  -1.105   6.927  10.012  0.3067 -0.2069  0.4992
 1001MOL0     N32050  -1.498   6.822  10.650  0.8105 -0.6394 -0.2919
 1001MOL0     N32051  -1.469   6.746  10.751 -0.2149 -0.6283 -0.3101
 1001MOL0     C32052  -0.269   6.796  10.966 -0.2414 -0.0184 -0.1296
 1001MOL0     C32053  -0.128   6.795  10.938  0.3227 -0.2975  0.9566
 1001MOL0     C32054   0.308   6.861  10.846 -0.1295 -0.2161 -0.0762
 1001MOL0     C32055   0.398   6.764  10.784 -0.1348  0.1664  0.6248
 1001MOL0     C32056   0.533   6.798  10.754  0.5058  0.0007  0.3180
 1001MOL0     C32057   0.586   6.925  10.787  0.6458  0.3926  0.6804
 1001MOL0     O32058   0.713   6.946  10.738 -0.0779  0.5888 -0.6431
 1001MOL0     C32059   0.792   7.047  10.791 -0.2136 -0.6122 -0.5820
 1001MOL0     C32060   0.942   7.002  10.792  0.4855  0.1660 -0.6594
 1001MOL0     C32061   1.035   7.112  10.843  0.5527 -0.2465 -0.2034
 1001MOL0     C32062   1.171   7.060  10.889  0.5815  0.4736  0.3123
 1001MOL0     C32063   1.165   7.034  11.036  0.8076  0.2216 -0.3725
 1001MOL0     C32064   1.168   7.007  11.157  1.2835 -0.5148 -0.1491
 1001MOL0     C32065   0.496   7.019  10.841  0.4374  0.9337  0.1117
 1001MOL0     C32066   0.362   6.992  10.869 -0.4412  0.7566 -0.7168
 1001MOL0     H32067  -0.089   7.132  10.894  1.2021 -1.6787  1.9315
 1001MOL0     H32068  -0.321   7.132  10.917  0.7274  0.2231 -0.4506
 1001MOL0     H32069  -0.567   7.072  10.897 -1.0848  0.5365  1.0615
 1001MOL0     H32070  -0.508   7.123  11.062 -0.7295 -1.6579  3.0287
 1001MOL0     H32071  -0.758   7.086  11.017 -3.2174 -0.6395  5.2432
 1001MOL0     H32072  -0.692   7.014  11.157 -0.5585  0.7906  0.2101
 1001MOL0     H32073  -0.677   6.797  11.042  0.0199  0.2960  0.8616
 1001MOL0     H32074  -0.731   6.882  10.887 -0.4887  0.2356  0.5760
 1001MOL0     H32075  -0.910   6.894  11.122 -2.6662 -0.3404 -0.5419
 1001MOL0     H32076  -0.937   6.913  10.947  1.3561  0.1432 -0.8714
 1001MOL0     H32077  -0.894   6.662  11.101  0.5753 -0.0321 -0.5697
 1001MOL0     H32078  -0.909   6.667  10.926 -0.5755  1.2062 -2.0392
 1001MOL0     H32079  -1.115   6.699  11.143 -3.9214 -1.9399 -1.9545
 1001MOL0     H32080  -1.117   6.596  11.015  0.9483 -1.1974  1.2977
 1001MOL0     H32081  -1.150   6.902  10.958  2.2681 -0.9115 -0.4688
 1001MOL0     H32082  -1.147   6.764  10.839 -1.1070 -3.2670  0.2394
 1001MOL0     H32083  -1.350   6.845  11.039  2.4857 -0.2221  0.6456
 1001MOL0     H32084  -1.351   6.684  10.986 -1.2531 -0.8510 -2.0365
 1001MOL0     H32085  -1.327   7.022  10.836 -0.0844 -0.1218 -0.2165
 1001MOL0     H32086  -1.390   7.141  10.598  2.6869 -1.1371 -1.2025
 1001MOL0     H32087  -1.538   7.079  10.516  0.9402  1.9910 -1.0341
 1001MOL0     H32088  -1.382   6.902  10.419  3.0952 -0.2319 -0.7327
 1001MOL0     H32089  -1.242   6.997  10.463  0.1770  0.6144  0.9687
 1001MOL0     H32090  -1.476   7.091  10.288 -0.2673 -2.5736 -1.0037
 1001MOL0     H32091  -1.324   7.191  10.329  3.3339 -1.3952 -2.3088
 1001MOL0     H32092  -1.330   7.073  10.102 -1.2640  0.9626  0.8102
 1001MOL0     H32093  -1.312   6.922  10.197  0.8619 -0.4680 -1.0258
 1001MOL0     H32094  -0.900   7.108  10.210  0.3119  0.2065 -1.2985
 1001MOL0     H32095  -0.742   7.007  10.071  0.2754 -0.1108 -1.8282
 1001MOL0     H32096  -0.530   6.629   9.958  0.4584  1.7111  1.9274
 1001MOL0     H32097  -0.325   6.543   9.863  0.0552  0.9163  1.3802
 1001MOL0     H32098  -0.097   6.805   9.647  0.0859 -0.7855  0.7318
 1001MOL0     H32099  -0.139   6.748   9.493  0.6089 -2.1510 -0.7516
 1001MOL0     H32100   0.038   6.573   9.503 -0.2496  0.7272 -0.8541
 1001MOL0     H32101   0.047   6.602   9.677 -0.2119 -0.3849 -0.2110
 1001MOL0     H32102   0.139   6.807   9.652  0.3320  2.4658 -0.4985
 1001MOL0     H32103   0.113   6.826   9.478 -0.8428  0.8850  0.8269
 1001MOL0     H32104   0.304   6.641   9.635 -0.0225  1.2460  1.6109
 1001MOL0     H32105   0.262   6.590   9.465 -0.7567 -2.2078  3.3933
 1001MOL0     H32106   0.380   6.855   9.560  0.1316  0.3954 -0.5499
 1001MOL0     H32107   0.391   6.787   9.399  4.3254  0.8512  0.3451
 1001MOL0     H32108   0.517   6.587   9.478  1.0994  0.1921 -0.6513
 1001MOL0     H32109   0.537   6.659   9.636 -4.1491  0.5158  1.0232
 1001MOL0     H32110   0.595   6.768   9.366  0.5673 -1.1791 -0.0935
 1001MOL0     H32111   0.621   6.863   9.514 -1.9011  0.8084  0.3579
 1001MOL0     H32112   0.792   6.709   9.589 -0.2224 -1.4518  0.7748
 1001MOL0     H32113   0.839   6.757   9.427 -0.0822  1.3343  1.5539
 1001MOL0     H32114  -0.347   6.813   9.545  2.9703 -0.4557  0.0736
 1001MOL0     H32115  -0.534   6.944   9.660  1.5846 -0.4996 -2.6295
 1001MOL0     H32116  -1.044   6.778   9.875 -0.1530  1.1455 -1.2266
 1001MOL0     H32117  -1.210   6.903   9.997  0.3380  0.5352 -1.1027
 1001MOL0     H32118  -0.318   6.702  10.987  2.4328 -1.6552 -0.7668
 1001MOL0     H32119  -0.076   6.700  10.946  0.5733 -0.3893 -1.2560
 1001MOL0     H32120   0.362   6.668  10.750 -1.0404  0.4581  0.7391
 1001MOL0     H32121   0.592   6.721  10.706  0.0898 -1.0601  1.4370
 1001MOL0     H32122   0.770   7.065  10.896 -0.6807  0.6244 -0.8754
 1001MOL0     H32123   0.780   7.141  10.738 -0.3509  0.9622  2.0932
 1001MOL0     H32124   0.950   6.913  10.854  0.3737  0.8240  0.3199
 1001MOL0     H32125   0.963   6.973  10.688 -4.5982 -1.0368 -1.6419
 1001MOL0     H32126   0.985   7.170  10.921  1.1237  0.7326 -0.5400
 1001MOL0     H32127   1.044   7.174  10.754 -1.5675 -0.8464 -0.8767
 1001MOL0     H32128   1.207   6.967  10.844  1.6741  0.8760  0.3228
 1001MOL0     H32129   1.244   7.139  10.866 -1.0455  1.9145 -0.1458
 1001MOL0     H32130   1.185   6.983  11.260 -0.1943 -1.5086 -0.1074
 1001MOL0     H32131   0.536   7.120  10.840  3.5133 -0.1846 -2.1619
 1001MOL0     H32132   0.306   7.074  10.912 -0.2160  0.4072  0.2732
 1002MOL0     O32133   5.784   6.186   5.082  0.5196 -0.0169 -0.2636
 1002MOL0     C32134   5.805   6.303   5.041 -0.2317 -0.9533  0.8689
 1002MOL0     O32135   5.736   6.371   4.948  0.0135  0.3674 -0.1520
 1002MOL0     C32136   5.627   6.311   4.888 -0.1770 -0.0468 -0.4403
 1002MOL0     C32137   5.519   6.254   4.962  0.1268 -0.8268  0.2573
 1002MOL0     C32138   5.410   6.200   4.889  0.5171  0.2068 -0.2349
 1002MOL0     C32139   5.390   6.211   4.748  0.2410 -0.5877 -0.1508
 1002MOL0     O32140   5.264   6.186   4.698  0.2539 -0.2282  0.0032
 1002MOL0     C32141   5.250   6.208   4.556  0.4481 -0.7276 -0.1323
 1002MOL0     C32142   5.115   6.159   4.497 -0.4049 -0.4757 -0.0192
 1002MOL0     C32143   5.111   6.129   4.345 -0.6391 -0.3929 -0.4738
 1002MOL0     C32144   5.121   6.251   4.254  0.0249  0.9149 -0.3183
 1002MOL0     C32145   5.137   6.210   4.103  0.9517 -0.8415  0.5255
 1002MOL0     C32146   5.124   6.333   4.012  0.8314 -0.3008  0.4780
 1002MOL0     C32147   5.122   6.313   3.860  0.1902  0.2024  0.4547
 1002MOL0     C32148   5.090   6.443   3.783  0.1500 -0.3292 -0.5168
 1002MOL0     N32149   5.206   6.542   3.782  0.6241 -0.5073 -0.2651
 1002MOL0     C32150   5.281   6.575   3.673 -0.7559 -0.0953  0.1944
 1002MOL0     C32151   5.346   6.692   3.707  0.6273 -0.4799  0.2958
 1002MOL0     C32152   5.423   6.787   3.618  0.2614  0.5845 -0.5970
 1002MOL0     C32153   5.344   6.882   3.524  0.3882 -0.2141 -0.1010
 1002MOL0     C32154   5.285   6.999   3.607  0.0326  0.4155  0.1757
 1002MOL0     C32155   5.222   7.086   3.506  0.2993 -0.3677  0.6709
 1002MOL0     O32156   5.097   7.038   3.459  0.2522 -0.7699  0.1175
 1002MOL0     C32157   5.004   7.133   3.427 -0.1541  0.0696  0.3938
 1002MOL0     C32158   5.031   7.270   3.418  0.4583  0.2883 -0.2703
 1002MOL0     C32159   4.928   7.358   3.398 -0.0506  0.9101  0.0522
 1002MOL0     C32160   4.797   7.315   3.362  0.7742 -0.4822 -0.2366
 1002MOL0     C32161   4.686   7.413   3.318  0.7764  0.5814  0.3621
 1002MOL0     O32162   4.559   7.373   3.299 -0.9653  0.1004  0.2753
 1002MOL0     C32163   4.453   7.443   3.241 -0.0440  0.1880 -1.8051
 1002MOL0     C32164   4.327   7.385   3.230  0.5008  0.6639 -0.3198
 1002MOL0     C32165   4.214   7.446   3.166 -0.1991 -0.4982  0.4025
 1002MOL0     C32166   4.225   7.577   3.128 -0.6812 -0.7722  0.9968
 1002MOL0     O32167   4.118   7.627   3.051 -1.1087 -0.0245  0.1025
 1002MOL0     C32168   4.156   7.665   2.920 -0.2409  0.6294  0.5217
 1002MOL0     C32169   4.024   7.696   2.842 -0.8522 -0.4807 -0.2275
 1002MOL0     C32170   3.942   7.811   2.910  0.3617  0.3373  0.0607
 1002MOL0     C32171   3.829   7.859   2.814  1.1827 -1.1175 -1.0161
 1002MOL0     C32172   3.803   8.012   2.850 -0.9700  0.2084  0.9251
 1002MOL0     C32173   3.695   8.046   2.952  0.1456  0.2985  0.1483
 1002MOL0     C32174   3.561   8.005   2.896  0.9037  0.2775 -0.3827
 1002MOL0     C32175   3.453   8.087   2.969  0.0968 -0.5723  0.7865
 1002MOL0    Cl32176   3.460   8.262   2.897 -0.1560  0.0283  0.1931
 1002MOL0     C32177   4.356   7.649   3.142 -0.0676  0.2357 -0.0584
 1002MOL0     C32178   4.463   7.581   3.204  0.0430  0.1045  0.2791
 1002MOL0     O32179   4.722   7.532   3.320 -0.0794  1.0867 -0.0517
 1002MOL0     C32180   4.780   7.176   3.347 -0.7769  0.6695  0.8808
 1002MOL0     C32181   4.879   7.083   3.377  0.2906  0.4793 -0.3073
 1002MOL0     N32182   5.316   6.721   3.841  1.0174 -0.2384 -0.5712
 1002MOL0     N32183   5.235   6.624   3.885 -0.3663 -0.6411  0.2421
 1002MOL0     C32184   5.500   6.267   4.677 -0.8344 -0.0058  0.1703
 1002MOL0     C32185   5.610   6.318   4.744 -0.0243  0.0881 -0.6566
 1002MOL0     C32186   5.937   6.361   5.074  0.4418  0.4251  0.2854
 1002MOL0     C32187   5.965   6.498   5.064  0.4346 -0.0218 -0.1626
 1002MOL0     C32188   6.080   6.555   5.098 -0.1954  0.2703 -1.1447
 1002MOL0     C32189   6.181   6.473   5.143  0.3657  0.3847 -0.4364
 1002MOL0     O32190   6.302   6.519   5.178 -0.4701  0.4863  0.0258
 1002MOL0     C32191   6.373   6.626   5.120  0.4907  1.5177  0.2675
 1002MOL0     C32192   6.515   6.622   5.174 -0.0480 -0.7502  0.5308
 1002MOL0     C32193   6.595   6.726   5.099  0.0904  0.6513  0.2173
 1002MOL0     C32194   6.741   6.702   5.149 -0.0233  0.5081 -0.3104
 1002MOL0     C32195   6.834   6.797   5.090  0.0412 -0.5567  0.1598
 1002MOL0     C32196   6.922   6.868   5.047  0.2384  0.0479 -1.0712
 1002MOL0     C32197   6.158   6.337   5.169  0.4584 -0.2056  0.2809
 1002MOL0     C32198   6.040   6.281   5.126  0.3983  0.2991 -0.2341
 1002MOL0     H32199   5.524   6.244   5.070  0.2431  1.5716  0.5249
 1002MOL0     H32200   5.333   6.150   4.947  1.1815 -0.8138 -0.1913
 1002MOL0     H32201   5.329   6.155   4.502  0.8609  0.3743 -0.6463
 1002MOL0     H32202   5.261   6.316   4.540  0.7431 -0.4418  1.7388
 1002MOL0     H32203   5.049   6.246   4.504 -0.0294 -0.1794 -0.0900
 1002MOL0     H32204   5.072   6.077   4.555  1.3218 -1.9222 -0.6878
 1002MOL0     H32205   5.013   6.083   4.329 -2.3792  2.3697  1.4915
 1002MOL0     H32206   5.192   6.058   4.324  2.3325  2.6605 -0.2283
 1002MOL0     H32207   5.036   6.317   4.271 -0.0003  0.1249  3.4390
 1002MOL0     H32208   5.218   6.297   4.274 -0.3393  1.3894  0.3660
 1002MOL0     H32209   5.051   6.144   4.084  0.8973 -1.1289  1.6619
 1002MOL0     H32210   5.229   6.157   4.078  1.8769 -0.1020  2.1670
 1002MOL0     H32211   5.195   6.413   4.037  0.6308  0.2651 -0.6511
 1002MOL0     H32212   5.026   6.373   4.039  1.0230 -0.1792  1.0008
 1002MOL0     H32213   5.221   6.274   3.833  0.6180  1.5390  0.0327
 1002MOL0     H32214   5.047   6.239   3.830 -1.3414  0.9495  2.1953
 1002MOL0     H32215   5.005   6.484   3.838  1.1678  1.2314 -0.0267
 1002MOL0     H32216   5.062   6.410   3.683 -0.0117 -1.2936 -0.1571
 1002MOL0     H32217   5.281   6.523   3.579  0.4334 -1.4854  0.9256
 1002MOL0     H32218   5.483   6.722   3.553 -0.3955 -0.5126 -0.1250
 1002MOL0     H32219   5.489   6.843   3.686 -1.5168  0.5021  1.2743
 1002MOL0     H32220   5.262   6.823   3.482  0.4553 -0.7185  0.4527
 1002MOL0     H32221   5.417   6.911   3.447 -1.8393  2.0260 -1.4928
 1002MOL0     H32222   5.211   6.970   3.682  1.3826  2.2488  2.3430
 1002MOL0     H32223   5.361   7.054   3.662 -0.0587  2.0931 -1.2818
 1002MOL0     H32224   5.284   7.103   3.417 -1.8539  2.5226 -0.4274
 1002MOL0     H32225   5.213   7.185   3.552  3.2883 -0.2899  1.3391
 1002MOL0     H32226   5.133   7.302   3.405  1.4783 -2.6668 -0.3096
 1002MOL0     H32227   4.956   7.463   3.396  1.0837  0.6671  1.6200
 1002MOL0     H32228   4.329   7.286   3.273  0.9955  1.3905  1.4184
 1002MOL0     H32229   4.123   7.389   3.154 -1.6622  1.6272  0.7784
 1002MOL0     H32230   4.213   7.585   2.871 -1.3856  1.4469 -2.3521
 1002MOL0     H32231   4.217   7.756   2.915 -0.6458  0.8767 -0.0117
 1002MOL0     H32232   3.970   7.601   2.836 -0.3748 -1.1343  3.3750
 1002MOL0     H32233   4.060   7.730   2.744 -0.7955 -0.2905 -0.1410
 1002MOL0     H32234   4.008   7.893   2.939  2.7621 -1.0140 -1.2265
 1002MOL0     H32235   3.896   7.776   3.002  1.2693  0.9139  0.7499
 1002MOL0     H32236   3.866   7.857   2.711  1.5896  3.3348 -1.1453
 1002MOL0     H32237   3.741   7.798   2.835  0.8048  0.3204  2.0494
 1002MOL0     H32238   3.768   8.073   2.766 -0.3467  1.2609  1.4003
 1002MOL0     H32239   3.895   8.062   2.882  0.3027  1.2108 -3.5964
 1002MOL0     H32240   3.695   8.153   2.973 -2.6906  0.3321  0.4066
 1002MOL0     H32241   3.712   7.993   3.046  2.2867  0.1881 -0.2617
 1002MOL0     H32242   3.554   8.019   2.787 -2.1551 -1.2896 -0.5291
 1002MOL0     H32243   3.544   7.898   2.914  1.1361  0.4883  1.2284
 1002MOL0     H32244   3.479   8.083   3.075  1.8077 -2.2828  0.3616
 1002MOL0     H32245   3.352   8.058   2.940  0.1804  0.2989 -0.4509
 1002MOL0     H32246   4.363   7.752   3.110  0.7314 -0.1517 -1.1949
 1002MOL0     H32247   4.550   7.643   3.222  0.7222  0.8687 -4.4506
 1002MOL0     H32248   4.695   7.137   3.292  0.2781  0.0180 -0.3645
 1002MOL0     H32249   4.867   6.975   3.372  2.4744  0.0651  1.8137
 1002MOL0     H32250   5.496   6.282   4.570  0.2520  0.8125  0.2183
 1002MOL0     H32251   5.692   6.364   4.689 -1.1482  2.6395 -0.3232
 1002MOL0     H32252   5.879   6.555   5.030  1.7548  0.9891 -2.0037
 1002MOL0     H32253   6.106   6.661   5.095 -1.1797  0.5145 -1.1915
 1002MOL0     H32254   6.323   6.720   5.148 -1.7137  0.1607  1.2145
 1002MOL0     H32255   6.366   6.632   5.011 -2.6604  2.1411  0.4001
 1002MOL0     H32256   6.512   6.644   5.281 -1.9370  1.3549  0.1314
 1002MOL0     H32257   6.555   6.522   5.155  1.5077 -0.2177  0.8869
 1002MOL0     H32258   6.563   6.829   5.111  2.1895  1.1457  2.2416
 1002MOL0     H32259   6.597   6.696   4.993  0.7836  1.9193 -0.1457
 1002MOL0     H32260   6.751   6.708   5.258 -0.7201 -1.1990 -0.1243
 1002MOL0     H32261   6.773   6.601   5.123 -1.5153  0.2742 -1.3258
 1002MOL0     H32262   7.020   6.906   5.024  0.1189  1.3323  0.4254
 1002MOL0     H32263   6.223   6.268   5.221  0.1598 -1.3082 -0.7647
 1002MOL0     H32264   6.033   6.174   5.146 -0.0182  0.2140 -0.7742
 1003MOL0     O32265   5.079   7.948   3.949 -0.4043 -0.1914  0.1243
 1003MOL0     C32266   5.128   8.028   3.867  0.6583 -0.7413 -0.4648
 1003MOL0     O32267   5.062   8.093   3.763  0.3925  0.2601 -0.4474
 1003MOL0     C32268   4.928   8.086   3.772  0.2885  0.3680 -0.0458
 1003MOL0     C32269   4.863   8.053   3.657  0.0193 -0.7353 -0.4340
 1003MOL0     C32270   4.721   8.066   3.648  0.4829 -0.1352  0.6815
 1003MOL0     C32271   4.644   8.115   3.755  0.2889  0.2804  1.2305
 1003MOL0     O32272   4.512   8.115   3.731 -0.5403  0.2693 -0.2607
 1003MOL0     C32273   4.418   8.129   3.842  0.2361 -0.5848  0.2946
 1003MOL0     C32274   4.266   8.090   3.815 -0.4148  0.6514 -0.4904
 1003MOL0     C32275   4.238   7.949   3.739 -0.1201 -0.4175  0.7172
 1003MOL0     C32276   4.087   7.899   3.751  0.1927 -0.7883  0.1812
 1003MOL0     C32277   4.063   7.758   3.707  0.6427  0.9944 -0.5204
 1003MOL0     C32278   4.125   7.715   3.577  0.0345 -0.3669 -0.1479
 1003MOL0     C32279   4.049   7.594   3.519 -0.5011 -0.4168 -0.5356
 1003MOL0     C32280   4.075   7.458   3.596 -0.1468 -0.2979  0.2010
 1003MOL0     N32281   4.065   7.335   3.515  0.3319 -0.2783 -0.1787
 1003MOL0     C32282   3.953   7.266   3.476 -1.0244 -0.2620 -0.1216
 1003MOL0     C32283   3.989   7.155   3.417  0.6096  0.4015 -0.2192
 1003MOL0     C32284   3.895   7.046   3.367  0.2401  0.5454 -0.4591
 1003MOL0     C32285   3.956   6.980   3.248 -0.6974  0.0752  0.2660
 1003MOL0     C32286   3.864   6.900   3.161  0.3553 -0.0753 -0.2853
 1003MOL0     C32287   3.945   6.829   3.044 -0.5977 -0.1053  0.3027
 1003MOL0     O32288   3.848   6.750   2.964 -0.2763  0.4987 -0.0918
 1003MOL0     C32289   3.758   6.808   2.883 -1.1344 -0.5824 -0.7042
 1003MOL0     C32290   3.632   6.747   2.865  0.0226  0.9443 -0.4026
 1003MOL0     C32291   3.539   6.800   2.776  0.1523 -0.1211  0.3710
 1003MOL0     C32292   3.554   6.918   2.706  0.0548 -0.2510  0.1513
 1003MOL0     C32293   3.465   6.964   2.604  0.5627 -0.3902 -0.1737
 1003MOL0     O32294   3.367   6.880   2.575 -0.1809  0.3274  0.1971
 1003MOL0     C32295   3.284   6.923   2.477 -0.0732  0.3602 -0.2014
 1003MOL0     C32296   3.272   6.863   2.350 -1.0679  0.5777 -0.1262
 1003MOL0     C32297   3.177   6.905   2.258  0.0606 -0.5480  0.0455
 1003MOL0     C32298   3.088   7.009   2.294 -0.2687 -1.3348 -0.1862
 1003MOL0     O32299   2.988   7.057   2.215  0.0744 -0.1980  0.3639
 1003MOL0     C32300   2.969   7.005   2.085  0.1701 -0.3904 -0.6236
 1003MOL0     C32301   2.865   6.892   2.096  0.0442 -0.2896  0.0057
 1003MOL0     C32302   2.873   6.811   1.967  0.2565  0.2611  0.7992
 1003MOL0     C32303   2.750   6.719   1.967  0.3669 -0.4072 -0.3023
 1003MOL0     C32304   2.732   6.660   1.829 -0.3399 -1.2030 -0.1391
 1003MOL0     C32305   2.615   6.563   1.833 -0.2956 -0.5324  0.1420
 1003MOL0     C32306   2.485   6.639   1.848  0.1288 -0.5781  0.4736
 1003MOL0     C32307   2.373   6.529   1.815  0.2964  0.1446 -0.1981
 1003MOL0    Cl32308   2.365   6.500   1.638 -0.0805  0.3646 -0.5844
 1003MOL0     C32309   3.104   7.065   2.417 -0.0629 -1.0324 -0.0405
 1003MOL0     C32310   3.200   7.029   2.509  0.9073 -0.9795  0.2603
 1003MOL0     O32311   3.487   7.066   2.541 -0.5636 -0.1948  0.3338
 1003MOL0     C32312   3.678   6.985   2.730  0.9055 -0.8459 -0.4261
 1003MOL0     C32313   3.777   6.932   2.813 -0.0260  0.6556  0.2050
 1003MOL0     N32314   4.129   7.150   3.439  0.4947 -0.5989  0.7898
 1003MOL0     N32315   4.178   7.261   3.491 -0.1195  0.5610  0.3364
 1003MOL0     C32316   4.708   8.146   3.873  0.0154  0.4699  0.6764
 1003MOL0     C32317   4.855   8.144   3.874  0.9436 -0.1183 -0.2745
 1003MOL0     C32318   5.271   8.038   3.870 -0.7467 -0.6125  1.6211
 1003MOL0     C32319   5.338   8.137   3.790 -0.2428  0.7457  0.2118
 1003MOL0     C32320   5.471   8.152   3.808 -1.1061 -0.5928  0.3721
 1003MOL0     C32321   5.548   8.080   3.898 -0.1190 -0.7478  0.4769
 1003MOL0     O32322   5.683   8.109   3.903  0.0133  0.2473 -0.6756
 1003MOL0     C32323   5.747   8.157   3.789 -0.6525 -0.1507 -0.2340
 1003MOL0     C32324   5.898   8.143   3.806 -0.3243  0.2126  0.7918
 1003MOL0     C32325   5.950   8.009   3.853 -0.0492  0.1461  0.3309
 1003MOL0     C32326   6.091   8.007   3.911  0.3688 -0.3145 -0.2850
 1003MOL0     C32327   6.174   8.039   3.806 -0.2302 -0.0184  0.2144
 1003MOL0     C32328   6.269   8.061   3.730  0.1653 -0.1137  0.2371
 1003MOL0     C32329   5.494   7.986   3.984  0.3248  0.3460  0.2579
 1003MOL0     C32330   5.354   7.959   3.959 -0.2649  0.1316 -0.7078
 1003MOL0     H32331   4.922   8.026   3.570 -0.6566  0.8928 -1.4341
 1003MOL0     H32332   4.675   8.027   3.558  1.1601 -3.4084  1.6453
 1003MOL0     H32333   4.412   8.234   3.872 -0.2560 -0.7064  0.6355
 1003MOL0     H32334   4.452   8.062   3.922 -0.1668 -2.9905 -1.4076
 1003MOL0     H32335   4.222   8.175   3.763  0.8475  0.6789 -1.5534
 1003MOL0     H32336   4.215   8.067   3.910  1.4382  3.6010  1.3626
 1003MOL0     H32337   4.301   7.880   3.795  2.0147  0.4603 -0.4949
 1003MOL0     H32338   4.266   7.934   3.635 -2.7956  0.1640 -0.1658
 1003MOL0     H32339   4.048   7.909   3.853  2.7647 -1.6090  1.3281
 1003MOL0     H32340   4.035   7.954   3.672  0.8863 -0.3514  0.0254
 1003MOL0     H32341   3.955   7.746   3.694  0.7563  1.3978 -2.0492
 1003MOL0     H32342   4.102   7.691   3.784 -0.0086  0.6654 -0.4701
 1003MOL0     H32343   4.229   7.684   3.595  0.3320 -0.1519 -1.3948
 1003MOL0     H32344   4.116   7.794   3.502 -0.3460 -0.3514 -0.0866
 1003MOL0     H32345   3.943   7.620   3.514 -0.3448  0.5238  0.4943
 1003MOL0     H32346   4.090   7.588   3.418  2.2958  0.7502  0.4215
 1003MOL0     H32347   4.003   7.448   3.678 -0.1367 -0.6831  0.1683
 1003MOL0     H32348   4.179   7.466   3.630  0.7760  1.3402 -2.6619
 1003MOL0     H32349   3.848   7.296   3.475 -1.2198 -0.8993  0.7008
 1003MOL0     H32350   3.797   7.092   3.348  0.7282  2.1910  0.7612
 1003MOL0     H32351   3.883   6.975   3.449 -1.9796 -0.4025 -1.5089
 1003MOL0     H32352   4.023   6.900   3.281 -1.9961 -0.5384  1.5378
 1003MOL0     H32353   4.014   7.043   3.181 -1.2507 -2.8274 -3.2841
 1003MOL0     H32354   3.815   6.827   3.225 -1.3694  1.0822 -0.2283
 1003MOL0     H32355   3.781   6.958   3.121 -0.6416 -0.2441  1.4194
 1003MOL0     H32356   4.016   6.754   3.080 -0.0094  0.7081  0.8757
 1003MOL0     H32357   4.004   6.904   2.989 -1.0148  0.7749  1.0424
 1003MOL0     H32358   3.601   6.656   2.916 -1.2923  2.2038  1.1483
 1003MOL0     H32359   3.445   6.748   2.759  0.5971 -1.0124  0.5881
 1003MOL0     H32360   3.334   6.774   2.338 -0.5155  1.0421 -0.7776
 1003MOL0     H32361   3.169   6.846   2.167  1.5489 -3.0930  1.4381
 1003MOL0     H32362   3.056   6.972   2.028  1.2494  2.1860 -0.5799
 1003MOL0     H32363   2.930   7.089   2.028  4.1346  1.4741 -0.8759
 1003MOL0     H32364   2.765   6.934   2.112  0.7168  0.6076  2.2062
 1003MOL0     H32365   2.888   6.831   2.184 -1.0024 -1.5488 -0.5676
 1003MOL0     H32366   2.964   6.752   1.953  1.4203  2.2788 -0.6533
 1003MOL0     H32367   2.874   6.879   1.881 -0.3704  0.6955  1.1270
 1003MOL0     H32368   2.763   6.639   2.040 -0.9664  0.5190  1.0230
 1003MOL0     H32369   2.657   6.768   1.999  0.9869 -1.6574  4.0110
 1003MOL0     H32370   2.829   6.615   1.804  0.9126 -0.2836  2.6325
 1003MOL0     H32371   2.714   6.740   1.757 -1.5440 -1.7612 -0.4778
 1003MOL0     H32372   2.628   6.488   1.911  0.9648 -0.0379  0.4289
 1003MOL0     H32373   2.614   6.505   1.740 -0.7548 -2.1174  1.1069
 1003MOL0     H32374   2.471   6.685   1.946 -0.9605 -0.7924  0.4308
 1003MOL0     H32375   2.479   6.720   1.774  1.2864  1.4519  2.4963
 1003MOL0     H32376   2.274   6.570   1.835  1.0892  1.9631  0.3087
 1003MOL0     H32377   2.388   6.438   1.874 -0.6119 -1.1812 -1.9190
 1003MOL0     H32378   3.029   7.142   2.433 -1.7192 -2.5337 -0.2763
 1003MOL0     H32379   3.207   7.083   2.603 -2.4802  0.8450 -0.3661
 1003MOL0     H32380   3.699   7.078   2.679 -0.8371 -0.1777 -0.0050
 1003MOL0     H32381   3.873   6.983   2.813  1.5524 -1.9401 -2.8636
 1003MOL0     H32382   4.653   8.181   3.959  1.1856 -1.4340  2.2675
 1003MOL0     H32383   4.912   8.179   3.959  0.1784 -0.2638  0.2954
 1003MOL0     H32384   5.287   8.202   3.719 -4.1919 -0.3390  1.7604
 1003MOL0     H32385   5.516   8.230   3.747 -1.8550 -0.4789 -0.0448
 1003MOL0     H32386   5.730   8.261   3.760  1.5080  0.1332 -0.6037
 1003MOL0     H32387   5.711   8.093   3.708 -0.6293 -0.4151 -0.0371
 1003MOL0     H32388   5.941   8.168   3.709 -1.4155 -0.7435  0.0286
 1003MOL0     H32389   5.928   8.206   3.890  1.8240 -2.0608  1.8432
 1003MOL0     H32390   5.938   7.935   3.773 -1.2652 -1.6795  2.0808
 1003MOL0     H32391   5.884   7.973   3.933 -0.0414 -1.4181 -0.3257
 1003MOL0     H32392   6.096   8.084   3.988 -0.8505  0.5510 -1.0376
 1003MOL0     H32393   6.122   7.910   3.953 -3.4456 -1.2637  0.8032
 1003MOL0     H32394   6.344   8.073   3.654  0.2838 -1.9354  0.0293
 1003MOL0     H32395   5.563   7.940   4.054  0.4747 -1.9986 -1.3295
 1003MOL0     H32396   5.314   7.875   4.015  3.2891  0.6522  3.0257
 1004MOL0     O32397   1.513   1.614  10.771 -0.3948  0.0274 -0.5068
 1004MOL0     C32398   1.533   1.601  10.650  0.2332 -0.0170 -0.6426
 1004MOL0     O32399   1.437   1.580  10.555  0.1464  0.1598  0.8392
 1004MOL0     C32400   1.309   1.577  10.604 -0.9215 -0.0070 -0.0362
 1004MOL0     C32401   1.229   1.691  10.603  0.4924  0.6435  0.3871
 1004MOL0     C32402   1.089   1.691  10.641  0.0459 -0.7450  0.5699
 1004MOL0     C32403   1.041   1.567  10.690 -1.1734 -0.2826  0.4316
 1004MOL0     O32404   0.919   1.571  10.747 -0.2214  0.6193 -0.6344
 1004MOL0     C32405   0.849   1.458  10.787  0.1133 -0.6906 -0.0678
 1004MOL0     C32406   0.712   1.489  10.841 -0.1753 -0.0756 -0.5261
 1004MOL0     C32407   0.607   1.376  10.853 -0.2141 -0.0828  0.5839
 1004MOL0     C32408   0.615   1.324  10.997  0.0946 -0.5767  0.0919
 1004MOL0     C32409   0.518   1.214  11.027 -0.7177 -0.3720  0.1715
 1004MOL0     C32410   0.381   1.268  11.048  0.0933 -0.1241  0.3072
 1004MOL0     C32411   0.273   1.155  11.051 -0.8488 -0.1903  1.1061
 1004MOL0     C32412   0.139   1.225  11.094  0.7301 -0.3070 -0.2101
 1004MOL0     N32413   0.041   1.113  11.078 -0.2561  0.0302  0.2842
 1004MOL0     C32414  -0.074   1.116  10.999 -0.1676  0.0394  0.3991
 1004MOL0     C32415  -0.130   0.992  11.010 -0.2705  0.1831  0.2761
 1004MOL0     C32416  -0.261   0.929  10.961  0.1247  0.5125 -0.4263
 1004MOL0     C32417  -0.378   0.955  11.055 -0.0177  0.0590  0.1076
 1004MOL0     C32418  -0.509   0.899  10.999 -0.3014  0.1539  0.3338
 1004MOL0     C32419  -0.520   0.751  10.946 -0.2492  0.3378  0.2823
 1004MOL0     O32420  -0.515   0.653  11.050  0.0753  0.3672  0.0213
 1004MOL0     C32421  -0.630   0.598  11.107 -0.1219  0.1672  0.4319
 1004MOL0     C32422  -0.614   0.478  11.182 -0.4542 -0.3728 -0.4129
 1004MOL0     C32423  -0.726   0.418  11.233  0.7806 -1.0913 -0.3669
 1004MOL0     C32424  -0.845   0.482  11.222 -0.0707  0.8777 -0.6126
 1004MOL0     C32425  -0.954   0.433  11.292 -0.2569 -0.0596 -0.2683
 1004MOL0     O32426  -0.961   0.296  11.322 -0.4884 -0.8239 -0.5393
 1004MOL0     C32427  -1.080   0.238  11.359  0.0758 -0.0842  0.0343
 1004MOL0     C32428  -1.214   0.276  11.324  0.2190  0.2801  0.2144
 1004MOL0     C32429  -1.319   0.192  11.360  0.8061 -0.4956  0.4573
 1004MOL0     C32430  -1.302   0.069  11.416  0.1037 -0.5087 -0.7525
 1004MOL0     O32431  -1.398  -0.020  11.448 -0.2441 -0.3919  0.0255
 1004MOL0     C32432  -1.523  -0.018  11.378 -0.2531 -0.0225 -0.1732
 1004MOL0     C32433  -1.591  -0.154  11.359 -0.0595  0.2692  0.7344
 1004MOL0     C32434  -1.543  -0.216  11.234 -0.4060  0.2348  0.5107
 1004MOL0     C32435  -1.602  -0.362  11.210  0.0041 -0.9475  0.3290
 1004MOL0     C32436  -1.761  -0.370  11.175 -0.8150 -0.1690 -0.0834
 1004MOL0     C32437  -1.815  -0.266  11.068  0.1234 -0.2928 -0.4701
 1004MOL0     C32438  -1.967  -0.279  11.053  0.0566  0.2930  0.2971
 1004MOL0     C32439  -2.060  -0.202  11.151 -0.3078  0.2649 -0.5566
 1004MOL0    Cl32440  -2.024  -0.225  11.329  0.2675 -0.2338 -0.0173
 1004MOL0     C32441  -1.176   0.033  11.456 -0.1762  0.3843  0.3622
 1004MOL0     C32442  -1.065   0.114  11.432 -0.5244 -0.5493  0.4902
 1004MOL0     O32443  -1.043   0.514  11.331  0.3949 -0.7620  0.7700
 1004MOL0     C32444  -0.860   0.597  11.139  0.1924  0.3954  1.0294
 1004MOL0     C32445  -0.752   0.655  11.084 -0.3708  0.4950 -0.0949
 1004MOL0     N32446  -0.044   0.923  11.089 -0.1281 -0.1249 -0.3443
 1004MOL0     N32447   0.062   0.991  11.128  0.3886 -0.1012 -0.2345
 1004MOL0     C32448   1.115   1.450  10.671 -0.3346  0.6829  0.1260
 1004MOL0     C32449   1.252   1.457  10.640 -0.1390 -1.1252  0.9117
 1004MOL0     C32450   1.664   1.612  10.604  0.6322  0.2999 -0.8419
 1004MOL0     C32451   1.767   1.635  10.696  0.4499  0.3592  0.3025
 1004MOL0     C32452   1.896   1.645  10.656 -0.6586 -0.2735 -0.3071
 1004MOL0     C32453   1.926   1.631  10.518  0.7601  0.2264 -0.9459
 1004MOL0     O32454   2.048   1.653  10.471  0.1360  0.8840  0.2072
 1004MOL0     C32455   2.151   1.692  10.569  0.3629 -0.0238  0.9023
 1004MOL0     C32456   2.283   1.723  10.493 -0.0559 -0.7755  0.6709
 1004MOL0     C32457   2.398   1.788  10.579  0.2002  0.2266 -0.6806
 1004MOL0     C32458   2.509   1.853  10.487  0.4411 -0.3569  0.2205
 1004MOL0     C32459   2.459   1.948  10.388 -0.2367 -0.8944  0.0366
 1004MOL0     C32460   2.401   2.029  10.316 -0.3618 -0.7288  0.3081
 1004MOL0     C32461   1.824   1.619  10.424 -0.4443 -0.3729  0.8025
 1004MOL0     C32462   1.690   1.604  10.470  0.2382 -0.8431  0.4336
 1004MOL0     H32463   1.286   1.777  10.571  1.2603 -0.9695 -3.0760
 1004MOL0     H32464   1.033   1.784  10.647 -0.0791 -0.7521 -0.2838
 1004MOL0     H32465   0.904   1.392  10.855 -0.4672 -3.5149 -2.1555
 1004MOL0     H32466   0.837   1.407  10.691 -0.6859  0.3643 -0.5377
 1004MOL0     H32467   0.658   1.570  10.790 -1.2076  0.8422  1.8953
 1004MOL0     H32468   0.735   1.526  10.941  0.1978  1.5535 -1.1794
 1004MOL0     H32469   0.625   1.308  10.770  0.2569  2.2395 -1.3202
 1004MOL0     H32470   0.510   1.423  10.832  0.6940  2.6318  2.0320
 1004MOL0     H32471   0.721   1.301  11.010  0.3738  0.4625 -0.2855
 1004MOL0     H32472   0.584   1.403  11.065 -4.2839  0.0607 -2.2658
 1004MOL0     H32473   0.564   1.157  11.109  0.9592  1.1194  0.3263
 1004MOL0     H32474   0.515   1.141  10.945 -1.9110  0.7540 -0.8226
 1004MOL0     H32475   0.366   1.353  10.981  3.4689  1.1581  0.9633
 1004MOL0     H32476   0.378   1.320  11.145  1.2847  0.0051  0.2888
 1004MOL0     H32477   0.279   1.108  10.953  0.3722  0.2795  0.9506
 1004MOL0     H32478   0.296   1.080  11.128  1.1103 -0.7830 -0.0064
 1004MOL0     H32479   0.105   1.313  11.038  0.7508  0.2665  0.6519
 1004MOL0     H32480   0.144   1.252  11.200  0.5610  3.2727 -0.9842
 1004MOL0     H32481  -0.115   1.201  10.946  1.5278  1.0339  0.6277
 1004MOL0     H32482  -0.249   0.820  10.959  1.0820  0.5906  0.2555
 1004MOL0     H32483  -0.294   0.963  10.863 -0.1592  2.4243  0.2954
 1004MOL0     H32484  -0.390   1.063  11.074  1.7237  0.0686  1.4760
 1004MOL0     H32485  -0.361   0.905  11.151 -0.2532  1.1150  0.7279
 1004MOL0     H32486  -0.589   0.912  11.072 -0.5744 -1.7653  0.4314
 1004MOL0     H32487  -0.538   0.966  10.918  1.3833  0.2047 -0.2730
 1004MOL0     H32488  -0.434   0.734  10.881 -0.5663  0.0188 -0.0552
 1004MOL0     H32489  -0.608   0.736  10.883 -1.2644 -0.8504  1.9152
 1004MOL0     H32490  -0.517   0.434  11.199 -0.9350 -0.7431  1.6764
 1004MOL0     H32491  -0.722   0.325  11.289  0.8282 -1.1325 -0.4392
 1004MOL0     H32492  -1.233   0.372  11.276  2.5599  0.3615 -0.6861
 1004MOL0     H32493  -1.418   0.229  11.333  1.3790  0.6040 -0.2234
 1004MOL0     H32494  -1.512   0.035  11.283  1.3437  0.0565  0.0378
 1004MOL0     H32495  -1.591   0.042  11.439  1.6611 -0.2042  2.2703
 1004MOL0     H32496  -1.698  -0.135  11.348 -0.1799  0.4255  2.1016
 1004MOL0     H32497  -1.566  -0.213  11.447  0.9320  1.3474  1.2057
 1004MOL0     H32498  -1.434  -0.211  11.235 -0.2273 -2.2019 -0.6307
 1004MOL0     H32499  -1.573  -0.155  11.148  0.7521 -1.1944 -0.9820
 1004MOL0     H32500  -1.548  -0.402  11.124 -1.4884 -0.0863 -1.0708
 1004MOL0     H32501  -1.578  -0.426  11.295 -3.2692  1.5825  3.4353
 1004MOL0     H32502  -1.809  -0.346  11.270 -0.1717  3.6980 -0.5568
 1004MOL0     H32503  -1.783  -0.470  11.136 -2.1173  0.7320 -1.8414
 1004MOL0     H32504  -1.757  -0.281  10.976  2.3160 -1.3710  0.9985
 1004MOL0     H32505  -1.798  -0.162  11.098 -0.2468 -0.5100  0.5454
 1004MOL0     H32506  -1.992  -0.245  10.952  1.9542 -1.6350 -0.8920
 1004MOL0     H32507  -1.981  -0.387  11.049 -2.1964  0.5396 -0.3955
 1004MOL0     H32508  -2.164  -0.233  11.135 -0.0070 -0.5382 -1.0370
 1004MOL0     H32509  -2.043  -0.097  11.128  0.7439  0.0915 -0.6363
 1004MOL0     H32510  -1.167  -0.066  11.500 -2.5985  0.0367  0.2077
 1004MOL0     H32511  -0.960   0.095  11.450 -0.6561 -1.1783  0.6246
 1004MOL0     H32512  -0.958   0.643  11.132 -0.1797 -0.6089 -0.8412
 1004MOL0     H32513  -0.765   0.750  11.033 -2.5076 -0.3918 -1.3476
 1004MOL0     H32514   1.078   1.349  10.692  3.3563 -1.4744 -2.6507
 1004MOL0     H32515   1.299   1.360  10.646 -2.5863 -2.4149  0.3620
 1004MOL0     H32516   1.752   1.659  10.801 -1.1959 -3.3153  1.0760
 1004MOL0     H32517   1.972   1.660  10.733 -0.7781 -1.2929  0.0223
 1004MOL0     H32518   2.169   1.609  10.637  2.0352 -0.6468 -0.2305
 1004MOL0     H32519   2.121   1.780  10.625 -0.0405  0.1747  0.3829
 1004MOL0     H32520   2.325   1.630  10.454 -1.6469 -0.8154 -1.0499
 1004MOL0     H32521   2.254   1.787  10.410 -2.4535  0.4676  2.3498
 1004MOL0     H32522   2.437   1.711  10.646 -0.6714  0.9788  0.7285
 1004MOL0     H32523   2.365   1.869  10.645  2.6848  0.8660 -0.1177
 1004MOL0     H32524   2.575   1.913  10.551  0.2154  1.1165 -0.8631
 1004MOL0     H32525   2.573   1.784  10.431  1.4100  2.5049 -2.5076
 1004MOL0     H32526   2.344   2.089  10.249  0.8706  0.8192  0.5770
 1004MOL0     H32527   1.843   1.619  10.317 -0.5346 -2.6111  0.7406
 1004MOL0     H32528   1.617   1.572  10.396 -1.0302 -1.7181  2.0152
 1005MOL0     O32529   5.499   3.684  10.894 -0.2516 -1.4011  0.1095
 1005MOL0     C32530   5.518   3.691  10.771  0.7514  0.3046 -0.3874
 1005MOL0     O32531   5.427   3.662  10.679  0.8307  0.2599 -0.6350
 1005MOL0     C32532   5.293   3.675  10.706 -0.4374 -1.4945  0.3672
 1005MOL0     C32533   5.225   3.742  10.815 -0.1788 -0.1956 -0.3037
 1005MOL0     C32534   5.087   3.744  10.827 -0.6531  1.0370  0.2743
 1005MOL0     C32535   5.008   3.691  10.724  0.5023 -0.7971  0.2313
 1005MOL0     O32536   4.871   3.689  10.722 -0.5313  0.3900 -0.2666
 1005MOL0     C32537   4.806   3.725  10.843 -0.5313 -0.4106  0.0641
 1005MOL0     C32538   4.677   3.644  10.837 -0.1932 -0.4600 -0.4179
 1005MOL0     C32539   4.576   3.655  10.958 -1.0039 -0.3879  0.2512
 1005MOL0     C32540   4.537   3.805  10.988  0.5600  0.1131  0.1924
 1005MOL0     C32541   4.395   3.834  11.064 -0.0962 -0.0439  0.0261
 1005MOL0     C32542   4.404   3.788  11.211  1.0395 -0.0963 -0.6168
 1005MOL0     C32543   4.279   3.832  11.284  0.6997  0.1576  0.4248
 1005MOL0     C32544   4.276   3.787  11.428  0.0118 -0.4781 -0.1936
 1005MOL0     N32545   4.132   3.809  11.473  0.1371 -0.2193 -0.1593
 1005MOL0     C32546   4.070   3.927  11.510 -0.7693 -0.2275 -0.3686
 1005MOL0     C32547   3.942   3.897  11.548  0.2629  0.3550  0.2440
 1005MOL0     C32548   3.844   3.993  11.603  0.3715  0.5568 -0.2397
 1005MOL0     C32549   3.718   3.927  11.668  0.3284  0.2514  0.6430
 1005MOL0     C32550   3.611   4.040  11.697  0.3698  0.0230 -0.7538
 1005MOL0     C32551   3.464   3.982  11.687  0.5325 -0.4402  0.1889
 1005MOL0     O32552   3.370   4.050  11.771 -0.0176  0.1494  0.3578
 1005MOL0     C32553   3.249   3.985  11.792  0.7709 -0.0261  0.0368
 1005MOL0     C32554   3.189   3.889  11.715  0.0472  0.2421 -0.1782
 1005MOL0     C32555   3.060   3.837  11.744 -1.0810 -0.2887  0.4036
 1005MOL0     C32556   2.987   3.881  11.854 -0.2418 -0.0250  0.1787
 1005MOL0     C32557   2.853   3.825  11.902 -0.0721  0.3285  0.6614
 1005MOL0     O32558   2.806   3.860  12.022  0.4124 -0.0381 -0.0885
 1005MOL0     C32559   2.672   3.854  12.046  0.5080 -0.4034 -0.2552
 1005MOL0     C32560   2.577   3.757  12.009  0.0330  0.7409  0.2160
 1005MOL0     C32561   2.447   3.771  12.049 -0.6478  0.4281  0.4185
 1005MOL0     C32562   2.400   3.874  12.127 -0.9246 -0.4454  0.4451
 1005MOL0     O32563   2.267   3.884  12.170  0.4906  0.2593  0.5107
 1005MOL0     C32564   2.211   3.763  12.225  0.2631 -0.2111 -0.0632
 1005MOL0     C32565   2.087   3.782  12.303  0.6517 -0.0216  0.2486
 1005MOL0     C32566   2.074   3.676  12.410  0.1452 -0.0489  0.4673
 1005MOL0     C32567   1.944   3.663  12.481 -0.0615 -0.3033 -0.5386
 1005MOL0     C32568   1.935   3.580  12.610 -0.4005 -0.3647 -0.3199
 1005MOL0     C32569   1.810   3.605  12.701  0.4577 -0.5411 -0.7355
 1005MOL0     C32570   1.806   3.512  12.827 -0.5301 -1.2670  0.6972
 1005MOL0     C32571   1.683   3.533  12.925 -0.1330  0.2727  0.1567
 1005MOL0    Cl32572   1.696   3.690  13.000 -0.6468 -0.2347 -0.0363
 1005MOL0     C32573   2.494   3.967  12.164  0.2298 -0.0073 -0.0129
 1005MOL0     C32574   2.631   3.956  12.136 -0.1076  0.1509  0.5075
 1005MOL0     O32575   2.799   3.742  11.831 -0.5767 -0.3475 -0.1202
 1005MOL0     C32576   3.054   3.973  11.937 -0.8031  0.0244  0.3548
 1005MOL0     C32577   3.175   4.027  11.907  0.2716 -0.2331 -0.6243
 1005MOL0     N32578   3.920   3.761  11.531 -0.0118  0.2244 -0.6951
 1005MOL0     N32579   4.036   3.710  11.491  0.1827 -0.1130  0.4003
 1005MOL0     C32580   5.065   3.634  10.612  0.1755 -0.6250 -0.6120
 1005MOL0     C32581   5.201   3.627  10.610 -0.4733 -0.6416 -0.0485
 1005MOL0     C32582   5.654   3.714  10.725  0.3280  0.3380 -0.2222
 1005MOL0     C32583   5.765   3.699  10.816 -0.4532 -0.1083 -0.4678
 1005MOL0     C32584   5.895   3.721  10.770 -1.2367 -0.4679  0.4068
 1005MOL0     C32585   5.920   3.740  10.631 -0.5267  0.1650 -0.2464
 1005MOL0     O32586   6.050   3.751  10.593  0.1614  0.7155  0.0292
 1005MOL0     C32587   6.090   3.816  10.470  0.4678  0.5611  0.7506
 1005MOL0     C32588   6.249   3.789  10.451  0.9792  0.4188  0.0776
 1005MOL0     C32589   6.332   3.845  10.576 -0.7269 -0.1214 -0.1125
 1005MOL0     C32590   6.475   3.791  10.586 -0.9277  0.3997  0.3938
 1005MOL0     C32591   6.549   3.828  10.458 -0.1561  0.0058 -0.4188
 1005MOL0     C32592   6.608   3.865  10.368 -1.1029  0.1525 -0.0535
 1005MOL0     C32593   5.807   3.746  10.541 -0.1751  0.5739 -0.1625
 1005MOL0     C32594   5.680   3.744  10.593  0.7644  0.3197 -0.4923
 1005MOL0     H32595   5.277   3.795  10.895 -3.8206  0.9815  1.5196
 1005MOL0     H32596   5.043   3.776  10.921  0.3635  4.0676 -0.1907
 1005MOL0     H32597   4.777   3.830  10.852 -2.1627 -0.6994 -1.3515
 1005MOL0     H32598   4.864   3.703  10.934 -0.1700 -3.2280 -0.7629
 1005MOL0     H32599   4.697   3.536  10.836  0.9119 -0.3057 -2.8345
 1005MOL0     H32600   4.630   3.686  10.748  1.7412  0.0876 -1.2326
 1005MOL0     H32601   4.626   3.614  11.047  3.6591  1.1732 -1.3532
 1005MOL0     H32602   4.483   3.602  10.938 -2.1334  1.1616  1.2118
 1005MOL0     H32603   4.615   3.859  11.043  1.2983 -1.3322  0.6252
 1005MOL0     H32604   4.530   3.848  10.888  0.6418 -1.6764 -0.6202
 1005MOL0     H32605   4.318   3.778  11.010  3.2525 -3.1231 -2.0004
 1005MOL0     H32606   4.360   3.938  11.066  0.5632  0.2176 -0.9725
 1005MOL0     H32607   4.481   3.835  11.272  0.4621 -2.1992  1.9083
 1005MOL0     H32608   4.417   3.679  11.217 -0.4985 -0.3515 -1.3523
 1005MOL0     H32609   4.273   3.941  11.284 -0.1316  0.1458 -1.2796
 1005MOL0     H32610   4.196   3.793  11.224  0.7917  2.6993 -1.5137
 1005MOL0     H32611   4.346   3.849  11.485 -1.3918 -0.2008  1.2965
 1005MOL0     H32612   4.299   3.680  11.431 -0.7755 -0.6390  1.3964
 1005MOL0     H32613   4.122   4.022  11.517  0.3899 -0.9185  0.9368
 1005MOL0     H32614   3.827   4.069  11.525  1.6922 -0.0877 -1.1983
 1005MOL0     H32615   3.893   4.053  11.680  1.0084  0.5706 -0.6495
 1005MOL0     H32616   3.742   3.865  11.755  1.4964 -1.8735 -1.1008
 1005MOL0     H32617   3.682   3.860  11.590  0.4131  1.5656 -0.5620
 1005MOL0     H32618   3.622   4.087  11.795  0.6849  0.3384 -0.9394
 1005MOL0     H32619   3.612   4.118  11.620 -2.4151  0.4310 -0.4969
 1005MOL0     H32620   3.467   3.881  11.729 -1.8601 -2.1051 -3.2056
 1005MOL0     H32621   3.425   3.986  11.585 -1.6270  3.7023  0.9719
 1005MOL0     H32622   3.233   3.843  11.627  2.3439 -1.4247  1.7005
 1005MOL0     H32623   3.027   3.754  11.683  2.3050 -0.6699 -1.1653
 1005MOL0     H32624   2.613   3.666  11.963 -2.6979 -0.4050  0.1484
 1005MOL0     H32625   2.378   3.693  12.019  1.6708 -0.4834 -3.0803
 1005MOL0     H32626   2.294   3.724  12.285 -0.3097 -1.9231 -0.3273
 1005MOL0     H32627   2.202   3.687  12.147  3.3093 -2.7112  1.7521
 1005MOL0     H32628   2.005   3.779  12.231  0.0270 -1.5696  0.9827
 1005MOL0     H32629   2.083   3.881  12.350 -1.9507  0.8393 -1.5514
 1005MOL0     H32630   2.160   3.687  12.476  1.0700  1.4691 -0.9097
 1005MOL0     H32631   2.085   3.580  12.359  1.5421 -0.2490  1.0900
 1005MOL0     H32632   1.922   3.765  12.513 -0.7041  0.9133 -4.3830
 1005MOL0     H32633   1.868   3.640  12.406 -0.4831  0.2884 -0.2971
 1005MOL0     H32634   2.023   3.590  12.675 -0.0795 -1.0558 -0.6322
 1005MOL0     H32635   1.932   3.473  12.588  0.1953 -0.8467  1.6494
 1005MOL0     H32636   1.717   3.599  12.645 -0.1590 -3.1824  0.4286
 1005MOL0     H32637   1.821   3.708  12.736  0.3324 -0.0807 -2.0202
 1005MOL0     H32638   1.815   3.412  12.785  0.4477 -0.6378 -0.6577
 1005MOL0     H32639   1.903   3.529  12.875 -0.7720 -3.0472  1.9347
 1005MOL0     H32640   1.674   3.454  13.001  1.1100 -0.1956 -0.1495
 1005MOL0     H32641   1.598   3.530  12.857  0.6540 -1.6778 -0.8029
 1005MOL0     H32642   2.476   4.046  12.236 -0.5083 -0.2960  0.1281
 1005MOL0     H32643   2.698   4.036  12.164 -0.7724  1.1768 -0.7190
 1005MOL0     H32644   3.016   4.014  12.030 -1.5581  1.6137 -0.6220
 1005MOL0     H32645   3.211   4.102  11.976  0.5251 -2.6449  2.0711
 1005MOL0     H32646   4.999   3.596  10.533  0.2778 -1.3394 -0.3622
 1005MOL0     H32647   5.257   3.575  10.532 -1.0929 -2.1238  0.4523
 1005MOL0     H32648   5.734   3.680  10.918 -2.0871  0.3258 -0.8585
 1005MOL0     H32649   5.974   3.736  10.842  0.7164  0.8289 -1.8569
 1005MOL0     H32650   6.078   3.925  10.465  0.3950  0.5285  0.1857
 1005MOL0     H32651   6.035   3.782  10.382 -1.0991  1.5272  1.3003
 1005MOL0     H32652   6.274   3.682  10.445  0.2764  0.3157 -1.6743
 1005MOL0     H32653   6.274   3.833  10.354 -3.1025 -0.0821 -1.3915
 1005MOL0     H32654   6.278   3.805  10.661  0.9031 -1.2436  0.4401
 1005MOL0     H32655   6.339   3.954  10.568  0.9207 -0.3317 -2.9508
 1005MOL0     H32656   6.505   3.859  10.666 -4.7216  1.7527  0.8840
 1005MOL0     H32657   6.490   3.687  10.616 -0.9875 -0.2912 -1.8026
 1005MOL0     H32658   6.679   3.888  10.291  0.1993 -3.3906 -0.1179
 1005MOL0     H32659   5.824   3.769  10.436  0.1163 -1.7120 -0.6654
 1005MOL0     H32660   5.598   3.744  10.521 -1.4057  0.4569  1.8081
 1006MOL0     O32661   5.961   6.494   3.238 -0.0239  0.1576  0.4197
 1006MOL0     C32662   6.062   6.513   3.171  1.0755 -0.3485  0.0144
 1006MOL0     O32663   6.086   6.630   3.096 -0.5115 -0.7768 -0.2450
 1006MOL0     C32664   6.000   6.741   3.087 -0.7859  0.3478 -0.5406
 1006MOL0     C32665   5.865   6.723   3.062  0.5122 -0.1549 -1.2067
 1006MOL0     C32666   5.780   6.837   3.053 -0.6633 -0.0460 -0.4105
 1006MOL0     C32667   5.833   6.965   3.043  0.6567  0.0652  0.0792
 1006MOL0     O32668   5.757   7.077   3.021 -0.6076  0.0287  0.1020
 1006MOL0     C32669   5.731   7.158   3.139 -0.4460  0.0939  0.5808
 1006MOL0     C32670   5.603   7.238   3.131  0.2202  0.2126  0.6849
 1006MOL0     C32671   5.475   7.163   3.112 -0.0843  0.0248 -0.9733
 1006MOL0     C32672   5.338   7.225   3.156 -0.1309  0.8408 -1.5375
 1006MOL0     C32673   5.317   7.362   3.079  0.4519  0.4897  0.1461
 1006MOL0     C32674   5.175   7.412   3.061  0.0654  0.0975  1.1586
 1006MOL0     C32675   5.174   7.562   3.026  0.5820 -0.0135 -0.0897
 1006MOL0     C32676   5.023   7.615   3.056 -0.2409 -0.7321  0.5377
 1006MOL0     N32677   4.922   7.572   2.956 -0.4949  0.3498 -0.3840
 1006MOL0     C32678   4.787   7.594   2.975  0.3257  0.7926 -0.2031
 1006MOL0     C32679   4.731   7.586   2.851 -0.0274 -0.1252 -0.1195
 1006MOL0     C32680   4.589   7.571   2.806  0.2629  0.5141 -0.2452
 1006MOL0     C32681   4.544   7.682   2.714  0.0004 -0.7729 -0.3213
 1006MOL0     C32682   4.428   7.653   2.627  1.2605 -0.5251  0.4153
 1006MOL0     C32683   4.366   7.773   2.560  0.3665 -0.4474 -0.4919
 1006MOL0     O32684   4.281   7.862   2.643 -0.3765 -0.2100 -0.0347
 1006MOL0     C32685   4.202   7.958   2.583  0.3990  0.0088 -0.1706
 1006MOL0     C32686   4.125   8.034   2.664 -0.2100  0.2251  0.7834
 1006MOL0     C32687   4.044   8.140   2.618  0.6600 -0.1475  0.9456
 1006MOL0     C32688   4.030   8.168   2.477 -0.3174  0.3819 -0.5550
 1006MOL0     C32689   3.937   8.261   2.422  0.1895 -0.0188  0.2311
 1006MOL0     O32690   3.835   8.302   2.498  0.0863 -0.1684 -0.0494
 1006MOL0     C32691   3.740   8.384   2.446 -0.4494 -0.4302 -0.6237
 1006MOL0     C32692   3.774   8.501   2.373  0.5578  0.4078 -0.0792
 1006MOL0     C32693   3.663   8.579   2.321 -0.9406  0.0036  0.7778
 1006MOL0     C32694   3.532   8.539   2.338  0.1861  0.7876  0.7734
 1006MOL0     O32695   3.426   8.590   2.282  0.4146 -0.3729  0.1415
 1006MOL0     C32696   3.421   8.724   2.241 -0.4845  0.2591  1.2517
 1006MOL0     C32697   3.283   8.748   2.187  0.8961  0.1448 -0.1954
 1006MOL0     C32698   3.269   8.694   2.036 -0.4946  0.1590 -0.2372
 1006MOL0     C32699   3.139   8.731   1.959 -0.1896  0.5777  0.4072
 1006MOL0     C32700   3.126   8.881   1.944 -0.3399 -0.6820  0.3581
 1006MOL0     C32701   3.024   8.924   1.841 -0.0652  0.6659 -0.7489
 1006MOL0     C32702   2.983   9.074   1.845 -0.2279  0.1483  0.4166
 1006MOL0     C32703   2.939   9.115   1.706 -0.4455 -0.2255 -0.6161
 1006MOL0    Cl32704   2.774   9.053   1.676 -0.2127 -0.3767 -0.4916
 1006MOL0     C32705   3.507   8.434   2.431 -0.4043 -0.2375  0.2548
 1006MOL0     C32706   3.611   8.357   2.480 -0.1030 -0.5989 -0.0194
 1006MOL0     O32707   3.953   8.285   2.305 -0.4041  0.4356 -0.4224
 1006MOL0     C32708   4.118   8.086   2.398  0.6351  0.2101  0.3706
 1006MOL0     C32709   4.206   7.987   2.445  0.7495 -0.6825  0.4767
 1006MOL0     N32710   4.835   7.578   2.759 -0.1936  0.6269 -0.4356
 1006MOL0     N32711   4.947   7.569   2.821  0.5381  0.4264 -0.4724
 1006MOL0     C32712   5.970   6.981   3.062 -0.2467  0.5130  0.2987
 1006MOL0     C32713   6.054   6.870   3.079 -0.1990 -0.9372 -0.7671
 1006MOL0     C32714   6.169   6.408   3.174  0.8725 -0.7631 -1.0167
 1006MOL0     C32715   6.298   6.447   3.158 -0.1678 -0.0261 -0.4498
 1006MOL0     C32716   6.397   6.354   3.157 -0.0701  0.6732 -0.6820
 1006MOL0     C32717   6.360   6.217   3.175  0.1565  0.9426  0.3410
 1006MOL0     O32718   6.464   6.121   3.197  0.2448 -0.7991  0.3614
 1006MOL0     C32719   6.436   5.976   3.214 -0.0985 -0.3085 -0.5576
 1006MOL0     C32720   6.391   5.914   3.075 -0.6179  0.1366 -0.1594
 1006MOL0     C32721   6.500   5.842   2.996  1.1669  0.3007  0.4363
 1006MOL0     C32722   6.509   5.892   2.856 -0.2206 -0.3556  0.5523
 1006MOL0     C32723   6.389   5.860   2.773 -0.4253  0.2405 -0.0714
 1006MOL0     C32724   6.280   5.844   2.721 -0.2635 -0.2033  0.5189
 1006MOL0     C32725   6.226   6.180   3.193 -0.8380  0.1905 -0.5299
 1006MOL0     C32726   6.132   6.272   3.194  0.2343 -0.1432  1.0553
 1006MOL0     H32727   5.834   6.620   3.046  2.9734 -0.9702 -0.9927
 1006MOL0     H32728   5.675   6.828   3.030 -1.2623 -1.1217  2.3883
 1006MOL0     H32729   5.811   7.228   3.164  0.0058 -0.0044 -0.5449
 1006MOL0     H32730   5.726   7.086   3.221 -0.4237 -0.5740  0.0011
 1006MOL0     H32731   5.609   7.313   3.052 -3.7381  0.2490  0.2008
 1006MOL0     H32732   5.592   7.297   3.222 -2.1964  1.2633 -0.1993
 1006MOL0     H32733   5.488   7.061   3.149  0.6157  0.8562  1.2483
 1006MOL0     H32734   5.469   7.160   3.002 -1.1050  0.4222 -0.9424
 1006MOL0     H32735   5.262   7.152   3.128 -0.5364 -0.3108  2.0260
 1006MOL0     H32736   5.340   7.251   3.263 -1.0876  1.4556 -1.6620
 1006MOL0     H32737   5.363   7.346   2.981  1.0429 -0.2672  0.5287
 1006MOL0     H32738   5.377   7.442   3.125 -0.2651  1.9668 -1.3937
 1006MOL0     H32739   5.126   7.393   3.157 -2.3294  0.8190  0.1622
 1006MOL0     H32740   5.113   7.350   2.996 -1.1567  1.9544  0.4484
 1006MOL0     H32741   5.242   7.607   3.098  0.7713  0.1495 -0.3709
 1006MOL0     H32742   5.198   7.587   2.923 -0.1768  3.2278  0.4048
 1006MOL0     H32743   5.022   7.724   3.055  0.1370 -0.7164 -1.0091
 1006MOL0     H32744   4.992   7.579   3.154  0.2369 -0.6984  0.7051
 1006MOL0     H32745   4.738   7.589   3.071  1.5447  0.7461  0.4438
 1006MOL0     H32746   4.525   7.570   2.895  1.8165 -2.5338  1.0082
 1006MOL0     H32747   4.575   7.474   2.758 -0.7245  1.9325 -3.0515
 1006MOL0     H32748   4.635   7.700   2.655 -0.6070  0.0145 -1.0321
 1006MOL0     H32749   4.526   7.774   2.770  0.0501 -0.7795 -0.2937
 1006MOL0     H32750   4.457   7.584   2.548  2.7199  1.0106 -0.4613
 1006MOL0     H32751   4.356   7.609   2.696  0.4265  0.9970  0.5571
 1006MOL0     H32752   4.293   7.727   2.492 -0.0029  1.6286 -1.6001
 1006MOL0     H32753   4.442   7.828   2.503  2.3617 -1.3808  1.1549
 1006MOL0     H32754   4.128   8.009   2.770 -0.2432  0.9010  0.9498
 1006MOL0     H32755   3.994   8.201   2.692 -2.9559  0.7945 -1.9600
 1006MOL0     H32756   3.876   8.537   2.361  0.6853 -0.1129 -0.6088
 1006MOL0     H32757   3.692   8.675   2.280 -0.4897 -0.4476  0.0317
 1006MOL0     H32758   3.501   8.725   2.166 -0.5392 -1.5823  1.1348
 1006MOL0     H32759   3.444   8.800   2.317  1.1264 -0.3353  1.3930
 1006MOL0     H32760   3.281   8.857   2.188  1.6175  0.1759 -1.0493
 1006MOL0     H32761   3.199   8.713   2.249 -1.9321  2.3072 -2.5172
 1006MOL0     H32762   3.283   8.586   2.034 -3.3212 -0.3780  2.2415
 1006MOL0     H32763   3.358   8.732   1.986 -0.0622 -2.9596 -2.1006
 1006MOL0     H32764   3.144   8.695   1.856  0.1554 -0.9220  0.9143
 1006MOL0     H32765   3.052   8.693   2.014  0.7697  0.5021  1.9623
 1006MOL0     H32766   3.219   8.934   1.922 -0.8925  0.0912 -0.1609
 1006MOL0     H32767   3.095   8.916   2.042  0.2634  1.1081 -0.0482
 1006MOL0     H32768   2.937   8.862   1.861  0.1777  0.0302 -1.6118
 1006MOL0     H32769   3.069   8.894   1.746 -1.8736 -2.4772 -0.7127
 1006MOL0     H32770   2.904   9.080   1.920  0.5560  0.3709  1.2464
 1006MOL0     H32771   3.073   9.129   1.872 -0.2492 -0.5602  2.0770
 1006MOL0     H32772   3.007   9.076   1.630  0.9406 -2.1112  1.4425
 1006MOL0     H32773   2.943   9.224   1.701 -2.4153 -0.0722  0.2522
 1006MOL0     H32774   3.409   8.417   2.474  0.0688 -2.1314  0.6318
 1006MOL0     H32775   3.590   8.274   2.546 -0.5815 -2.6410 -2.5895
 1006MOL0     H32776   4.103   8.093   2.291  0.8328  0.6088  0.3687
 1006MOL0     H32777   4.265   7.937   2.369 -1.4804  1.7216 -3.1420
 1006MOL0     H32778   6.020   7.075   3.038  1.1330 -0.2566  0.0524
 1006MOL0     H32779   6.162   6.885   3.075 -0.5368  2.9639  0.3061
 1006MOL0     H32780   6.307   6.549   3.124 -3.3491  0.4503 -0.1241
 1006MOL0     H32781   6.503   6.374   3.152 -0.1983  1.0115 -2.8624
 1006MOL0     H32782   6.367   5.971   3.299  0.4851 -1.0272 -0.1202
 1006MOL0     H32783   6.525   5.916   3.237 -0.9222 -1.1702  0.5244
 1006MOL0     H32784   6.321   5.835   3.105 -0.8000  0.7706  1.1313
 1006MOL0     H32785   6.328   5.982   3.016 -3.2392 -1.6825  0.3158
 1006MOL0     H32786   6.478   5.735   2.988 -1.0582  0.7344 -0.0919
 1006MOL0     H32787   6.598   5.847   3.043  0.7524 -0.9209  1.4703
 1006MOL0     H32788   6.544   5.995   2.866 -1.3733  0.4903 -2.7919
 1006MOL0     H32789   6.593   5.834   2.818 -0.2027 -0.1592  0.2881
 1006MOL0     H32790   6.187   5.846   2.667  0.7330 -1.0051 -1.3361
 1006MOL0     H32791   6.205   6.075   3.207  0.2975 -0.2682 -2.0116
 1006MOL0     H32792   6.027   6.244   3.192  0.8408 -2.6420 -0.0709
 1007MOL0     O32793   8.498   8.719   0.315  0.7432 -0.4671  0.6849
 1007MOL0     C32794   8.541   8.814   0.252 -0.0181 -0.3256  0.0999
 1007MOL0     O32795   8.465   8.916   0.194 -1.2765  0.2613  0.0804
 1007MOL0     C32796   8.335   8.908   0.230  0.6818  1.3724 -0.2899
 1007MOL0     C32797   8.297   8.946   0.365 -0.0397 -0.1427 -0.1607
 1007MOL0     C32798   8.160   8.947   0.406 -0.2936  0.2468 -0.0189
 1007MOL0     C32799   8.059   8.906   0.319  0.2320 -0.1483 -0.7220
 1007MOL0     O32800   7.933   8.921   0.366 -0.5302 -0.0697  0.4867
 1007MOL0     C32801   7.830   8.879   0.279  0.1765 -0.6345 -0.7779
 1007MOL0     C32802   7.702   8.890   0.356 -0.3561 -1.1714  0.3344
 1007MOL0     C32803   7.659   9.044   0.382 -0.5036  0.2492  0.5716
 1007MOL0     C32804   7.531   9.048   0.458 -0.9325  0.4453 -0.6853
 1007MOL0     C32805   7.415   9.031   0.356  0.1730  0.4700  0.3517
 1007MOL0     C32806   7.289   9.089   0.422 -0.3217  0.2921  0.3966
 1007MOL0     C32807   7.155   9.081   0.348 -0.1725 -0.4014  0.2660
 1007MOL0     C32808   7.096   8.954   0.299 -0.2205 -0.1565 -0.2410
 1007MOL0     N32809   6.991   8.971   0.192 -0.0755 -0.1368  0.3365
 1007MOL0     C32810   6.864   9.023   0.210  0.0400 -0.3254  1.0675
 1007MOL0     C32811   6.808   9.041   0.088  0.4892 -0.0592 -0.7527
 1007MOL0     C32812   6.672   9.091   0.052  0.7405  0.7267  0.7698
 1007MOL0     C32813   6.551   8.991   0.036 -0.1646  0.8279 -0.1175
 1007MOL0     C32814   6.578   8.885  -0.067  0.0666  0.1542  0.1546
 1007MOL0     C32815   6.471   8.772  -0.042 -0.5304  0.2127  0.7194
 1007MOL0     O32816   6.338   8.810  -0.075 -0.3130 -0.1012  0.8409
 1007MOL0     C32817   6.240   8.745  -0.008  0.2813 -0.0026 -0.0983
 1007MOL0     C32818   6.240   8.682   0.120  0.0029  0.0441  0.2489
 1007MOL0     C32819   6.129   8.599   0.160 -0.1997 -0.9114 -0.3820
 1007MOL0     C32820   6.013   8.592   0.082  0.3445  0.3558 -0.3967
 1007MOL0     C32821   5.889   8.516   0.131 -0.1844  0.2009  0.1486
 1007MOL0     O32822   5.776   8.519   0.053  1.1121 -0.0954  0.2468
 1007MOL0     C32823   5.656   8.463   0.086  0.6120 -0.4799  0.3928
 1007MOL0     C32824   5.615   8.446   0.214  0.1299 -0.1759  0.8810
 1007MOL0     C32825   5.483   8.416   0.245 -0.0478  0.2773 -0.3390
 1007MOL0     C32826   5.389   8.379   0.154 -0.3233  0.4026  0.6542
 1007MOL0     O32827   5.269   8.337   0.193  0.2157  0.4675  0.2087
 1007MOL0     C32828   5.157   8.335   0.108  0.4020  0.7587 -0.1167
 1007MOL0     C32829   5.039   8.312   0.207  0.0743 -0.4863  0.8268
 1007MOL0     C32830   4.992   8.440   0.270 -0.4447 -0.0798  0.4990
 1007MOL0     C32831   5.103   8.537   0.321  0.3876  0.1037 -0.2896
 1007MOL0     C32832   5.184   8.478   0.444  0.7225  0.4340  0.0628
 1007MOL0     C32833   5.090   8.447   0.557 -0.3134 -0.6462  0.6258
 1007MOL0     C32834   5.168   8.426   0.696 -0.2105 -0.2407 -0.0993
 1007MOL0     C32835   5.246   8.545   0.742 -1.0020 -0.2023 -0.1456
 1007MOL0    Cl32836   5.139   8.697   0.738  0.0966  0.0280  0.0162
 1007MOL0     C32837   5.432   8.380   0.021  0.1726 -0.1517 -0.2937
 1007MOL0     C32838   5.562   8.433  -0.015  0.1080  0.3878 -0.3256
 1007MOL0     O32839   5.902   8.450   0.237  0.1571 -0.1667  0.0752
 1007MOL0     C32840   6.015   8.660  -0.041 -0.3774 -0.3935  0.0236
 1007MOL0     C32841   6.120   8.736  -0.087 -0.5569 -0.8892 -0.7802
 1007MOL0     N32842   6.903   9.006  -0.001 -0.7183  0.3990  0.1459
 1007MOL0     N32843   7.019   8.970   0.055  0.4441  0.2711  0.0601
 1007MOL0     C32844   8.107   8.858   0.193  0.0100 -0.0613  0.9828
 1007MOL0     C32845   8.242   8.867   0.146  1.0757  0.1450  0.5427
 1007MOL0     C32846   8.687   8.812   0.244  0.5088 -1.1010 -0.1943
 1007MOL0     C32847   8.759   8.916   0.180  0.4065 -0.1436  0.3929
 1007MOL0     C32848   8.901   8.909   0.174  0.0632 -0.1749 -0.0761
 1007MOL0     C32849   8.972   8.816   0.238  0.7094  0.0541 -0.3185
 1007MOL0     O32850   9.102   8.811   0.213  0.4805 -0.2409  0.2745
 1007MOL0     C32851   9.175   8.719   0.289 -0.1227  0.4104 -0.8537
 1007MOL0     C32852   9.320   8.747   0.239  0.4312 -0.0598 -0.4768
 1007MOL0     C32853   9.406   8.644   0.311 -0.8238  0.1133 -0.0101
 1007MOL0     C32854   9.551   8.644   0.274 -0.1013 -0.2645 -0.6260
 1007MOL0     C32855   9.610   8.519   0.311 -0.5035  0.3199  0.4967
 1007MOL0     C32856   9.672   8.415   0.324  0.6033  0.4082 -0.3713
 1007MOL0     C32857   8.901   8.710   0.299  1.0295 -0.4595  0.0856
 1007MOL0     C32858   8.765   8.710   0.295 -1.4156  0.8525 -0.5893
 1007MOL0     H32859   8.369   8.975   0.441  0.3577 -2.6058  0.5079
 1007MOL0     H32860   8.133   9.000   0.497 -1.3266  0.6144 -0.5240
 1007MOL0     H32861   7.848   8.778   0.243  1.2593  0.6668 -4.2589
 1007MOL0     H32862   7.822   8.944   0.192 -1.3910 -1.5661 -1.3506
 1007MOL0     H32863   7.696   8.836   0.451  0.5348 -0.9334  0.5349
 1007MOL0     H32864   7.627   8.845   0.290  0.0158  0.6403 -1.3908
 1007MOL0     H32865   7.657   9.098   0.287 -1.1301  0.9563  0.9794
 1007MOL0     H32866   7.740   9.083   0.444  1.0719 -1.0521 -0.5694
 1007MOL0     H32867   7.524   8.962   0.524 -1.6734  0.7166 -0.3938
 1007MOL0     H32868   7.528   9.138   0.520  1.5137 -1.1440  1.9621
 1007MOL0     H32869   7.406   8.925   0.329 -0.4074  0.8523 -1.0069
 1007MOL0     H32870   7.438   9.080   0.261  1.8265 -0.8251  0.0208
 1007MOL0     H32871   7.310   9.191   0.456  2.3975  0.9575 -2.7620
 1007MOL0     H32872   7.269   9.037   0.516 -1.3542  2.5361  1.5208
 1007MOL0     H32873   7.088   9.139   0.412 -1.7724  0.6092 -2.1673
 1007MOL0     H32874   7.166   9.144   0.259 -1.2741  0.7193  0.9032
 1007MOL0     H32875   7.059   8.890   0.380 -2.9058  1.6039  0.0617
 1007MOL0     H32876   7.172   8.887   0.256  0.1623  0.4166 -0.4641
 1007MOL0     H32877   6.811   9.035   0.304 -1.9060 -0.4005  0.0351
 1007MOL0     H32878   6.690   9.140  -0.045 -0.2605 -0.3639 -0.0047
 1007MOL0     H32879   6.637   9.171   0.118 -1.4702 -0.7517  1.4984
 1007MOL0     H32880   6.465   9.054   0.013  1.1447  2.5003 -0.6918
 1007MOL0     H32881   6.529   8.940   0.130 -0.5393 -0.3028 -0.8082
 1007MOL0     H32882   6.563   8.929  -0.166  0.8119 -0.2848 -0.1620
 1007MOL0     H32883   6.670   8.826  -0.065  0.8852  1.3970  0.3222
 1007MOL0     H32884   6.474   8.729   0.059  0.3467 -2.6582 -0.4534
 1007MOL0     H32885   6.505   8.695  -0.111 -0.1608  0.0453  1.0826
 1007MOL0     H32886   6.325   8.699   0.184 -1.9831  2.0960  2.5328
 1007MOL0     H32887   6.136   8.552   0.257 -0.1345 -2.6006 -1.1636
 1007MOL0     H32888   5.679   8.463   0.299  1.7155 -1.0780 -0.1011
 1007MOL0     H32889   5.452   8.415   0.349 -0.5631 -0.5660 -0.4862
 1007MOL0     H32890   5.164   8.254   0.034  2.5178 -0.9377  1.7946
 1007MOL0     H32891   5.152   8.433   0.061  0.5838  1.4180  1.1911
 1007MOL0     H32892   5.078   8.248   0.287  0.0013 -2.3714 -0.5797
 1007MOL0     H32893   4.956   8.265   0.154  2.0712 -0.4085 -2.6105
 1007MOL0     H32894   4.918   8.415   0.348 -1.6707 -0.2505 -0.6848
 1007MOL0     H32895   4.932   8.499   0.201 -0.1022 -2.4079 -1.9438
 1007MOL0     H32896   5.172   8.568   0.243  0.4344 -0.2400 -0.3851
 1007MOL0     H32897   5.050   8.628   0.350  0.3156  0.4753 -1.5568
 1007MOL0     H32898   5.258   8.552   0.476 -0.5233  0.6294  2.7777
 1007MOL0     H32899   5.249   8.395   0.416  3.5614  2.5612 -0.0844
 1007MOL0     H32900   5.055   8.347   0.531  3.1641 -1.8390  0.0100
 1007MOL0     H32901   5.005   8.515   0.572 -0.4870 -0.8210  0.4439
 1007MOL0     H32902   5.107   8.384   0.777  0.2249 -3.8636 -1.4365
 1007MOL0     H32903   5.238   8.341   0.686 -0.4228 -0.4746  0.3850
 1007MOL0     H32904   5.322   8.573   0.668 -1.4281  1.6370  0.0584
 1007MOL0     H32905   5.295   8.527   0.838  1.2027  1.3654 -0.8988
 1007MOL0     H32906   5.369   8.342  -0.059 -1.0897 -2.1737  1.5507
 1007MOL0     H32907   5.592   8.429  -0.120  0.0673 -2.6357 -0.2948
 1007MOL0     H32908   5.934   8.636  -0.109 -1.0871 -3.1654  1.6876
 1007MOL0     H32909   6.123   8.766  -0.192  0.5229  1.0204 -0.2547
 1007MOL0     H32910   8.034   8.819   0.124 -0.3831 -0.7595  1.7862
 1007MOL0     H32911   8.266   8.849   0.042 -0.2520  1.3065 -0.0044
 1007MOL0     H32912   8.701   8.995   0.132  2.6055 -0.1988 -2.6767
 1007MOL0     H32913   8.954   8.992   0.128 -1.3311 -0.6686 -2.7800
 1007MOL0     H32914   9.136   8.619   0.270 -0.2716 -0.2288  2.3301
 1007MOL0     H32915   9.167   8.732   0.397  0.0971  3.1574 -1.0793
 1007MOL0     H32916   9.331   8.735   0.131 -1.2169  0.1261 -0.6898
 1007MOL0     H32917   9.352   8.849   0.260  0.6366 -0.2279  0.0496
 1007MOL0     H32918   9.358   8.550   0.283  0.8938 -0.4741 -1.1337
 1007MOL0     H32919   9.389   8.660   0.418  1.7039  2.3759  0.1694
 1007MOL0     H32920   9.576   8.658   0.169  1.8503 -3.2343 -0.6748
 1007MOL0     H32921   9.604   8.724   0.328  1.0304 -0.2052 -1.7864
 1007MOL0     H32922   9.748   8.341   0.338  0.6429  0.5710  0.2973
 1007MOL0     H32923   8.949   8.624   0.344 -0.8048 -1.0562  1.0179
 1007MOL0     H32924   8.722   8.622   0.342  1.6677 -0.4757 -0.0524
 1008MOL0     O32925   2.996   0.979   8.459  0.7529  0.9353 -0.2139
 1008MOL0     C32926   3.009   1.072   8.545  0.2110 -0.0289  0.3038
 1008MOL0     O32927   2.908   1.151   8.596 -0.7320 -0.1656 -0.3594
 1008MOL0     C32928   2.779   1.115   8.565  0.7939  0.1581 -0.1498
 1008MOL0     C32929   2.692   1.223   8.580  0.3829 -0.2125 -0.6205
 1008MOL0     C32930   2.558   1.213   8.555 -0.6169  0.6680 -0.2349
 1008MOL0     C32931   2.509   1.084   8.530  0.1185 -0.3313  0.9122
 1008MOL0     O32932   2.376   1.068   8.530  0.0448  0.5581 -0.5568
 1008MOL0     C32933   2.306   0.984   8.432  0.3822 -0.2347  0.5272
 1008MOL0     C32934   2.161   1.006   8.445  0.5713  0.4566 -0.5985
 1008MOL0     C32935   2.081   0.921   8.345 -0.1609  0.4096 -0.4725
 1008MOL0     C32936   1.936   0.957   8.318 -0.3067 -0.5949 -0.1038
 1008MOL0     C32937   1.852   0.925   8.434 -0.0806  0.7013 -0.4479
 1008MOL0     C32938   1.702   0.923   8.406 -0.2099  0.0623 -0.2532
 1008MOL0     C32939   1.623   0.872   8.527 -0.0617 -0.0618  0.6863
 1008MOL0     C32940   1.473   0.902   8.510  0.0084 -0.3681 -0.3972
 1008MOL0     N32941   1.383   0.842   8.611  0.6210  0.0890 -0.0593
 1008MOL0     C32942   1.249   0.872   8.625  0.3736  0.2910  0.1517
 1008MOL0     C32943   1.193   0.779   8.697  0.1151  0.0384  1.2557
 1008MOL0     C32944   1.052   0.772   8.747  0.2734  0.2540  0.0390
 1008MOL0     C32945   0.997   0.632   8.753  0.5058 -0.4421 -0.3477
 1008MOL0     C32946   0.864   0.606   8.822 -0.7921  0.3960 -0.9761
 1008MOL0     C32947   0.799   0.474   8.787  0.3938  0.5598  0.1977
 1008MOL0     O32948   0.688   0.439   8.877  0.0850 -0.3372  0.0403
 1008MOL0     C32949   0.592   0.351   8.838 -0.6986 -0.4678  0.6746
 1008MOL0     C32950   0.471   0.338   8.907  0.8342 -0.0010 -0.2948
 1008MOL0     C32951   0.360   0.266   8.859  0.0759  0.1059  0.0927
 1008MOL0     C32952   0.364   0.210   8.732 -0.7330  0.3564  0.4119
 1008MOL0     C32953   0.257   0.128   8.682 -0.1512  1.0970 -0.1498
 1008MOL0     O32954   0.138   0.130   8.750 -0.2804 -0.0776 -0.5676
 1008MOL0     C32955   0.020   0.073   8.711  1.1271 -0.3545 -1.1881
 1008MOL0     C32956  -0.072   0.083   8.810  0.2300  0.2440 -0.4876
 1008MOL0     C32957  -0.207   0.025   8.803 -0.3919 -0.4617 -0.1489
 1008MOL0     C32958  -0.239  -0.042   8.688  0.4243  0.0472  0.0411
 1008MOL0     O32959  -0.348  -0.114   8.664  0.3543  0.2348  0.2643
 1008MOL0     C32960  -0.412  -0.167   8.782 -0.8906 -0.6297  0.3698
 1008MOL0     C32961  -0.551  -0.108   8.785 -0.0433  0.0062  0.2007
 1008MOL0     C32962  -0.632  -0.136   8.912 -0.1166 -0.1992 -0.4127
 1008MOL0     C32963  -0.770  -0.068   8.893 -0.1002 -0.0355  0.4152
 1008MOL0     C32964  -0.834  -0.037   9.032 -0.4937 -0.1750  0.5823
 1008MOL0     C32965  -0.869  -0.160   9.114  0.2800  0.4224 -0.0842
 1008MOL0     C32966  -0.881  -0.134   9.267 -0.6248  0.1798  0.0236
 1008MOL0     C32967  -0.947  -0.240   9.349 -0.4142  0.0503  0.1584
 1008MOL0    Cl32968  -0.938  -0.172   9.519 -0.2496  0.5101 -0.0299
 1008MOL0     C32969  -0.145  -0.051   8.588 -0.2626  0.1490  0.6281
 1008MOL0     C32970  -0.010   0.002   8.593  0.0770 -0.3140 -0.1068
 1008MOL0     O32971   0.287   0.051   8.591 -0.0762  0.0632 -0.2369
 1008MOL0     C32972   0.490   0.207   8.665 -0.1606  0.2265  1.0569
 1008MOL0     C32973   0.596   0.288   8.715 -0.1802 -0.7879 -0.0069
 1008MOL0     N32974   1.296   0.682   8.708  0.2596  0.3879 -0.2148
 1008MOL0     N32975   1.406   0.718   8.665  0.9833 -0.7580  0.6755
 1008MOL0     C32976   2.590   0.967   8.522  0.0512  0.3586 -0.2401
 1008MOL0     C32977   2.725   0.984   8.536  0.4997 -0.1031  0.5788
 1008MOL0     C32978   3.147   1.094   8.596 -0.3894  0.1381  0.6283
 1008MOL0     C32979   3.171   1.208   8.674 -0.6780 -0.6795  0.7032
 1008MOL0     C32980   3.295   1.228   8.733 -0.8031 -0.3554  0.3001
 1008MOL0     C32981   3.404   1.150   8.699 -1.2856  0.5317 -0.8639
 1008MOL0     O32982   3.538   1.160   8.750  0.3661  0.6764 -0.3078
 1008MOL0     C32983   3.556   1.227   8.875  0.2407  0.5792 -0.5374
 1008MOL0     C32984   3.698   1.208   8.931  0.4033 -0.0704  0.3963
 1008MOL0     C32985   3.800   1.265   8.832 -0.7730  1.2192  0.3148
 1008MOL0     C32986   3.947   1.276   8.875  0.7723  0.0899 -1.2691
 1008MOL0     C32987   3.998   1.141   8.906 -0.2611  0.4806 -0.9707
 1008MOL0     C32988   4.050   1.036   8.905 -0.0963  0.5145  0.1445
 1008MOL0     C32989   3.387   1.034   8.613  1.0561  0.2083  1.1817
 1008MOL0     C32990   3.256   1.006   8.567  0.1819 -0.6631  0.0208
 1008MOL0     H32991   2.726   1.319   8.619  0.0815 -1.0778  1.9813
 1008MOL0     H32992   2.497   1.296   8.590 -1.1925 -0.5542  1.8974
 1008MOL0     H32993   2.321   0.884   8.473  0.5734  0.2352  1.6425
 1008MOL0     H32994   2.341   0.989   8.328  2.7684  0.0752  1.2767
 1008MOL0     H32995   2.130   1.111   8.438 -0.2877  0.5896  2.9117
 1008MOL0     H32996   2.126   0.973   8.544  0.4122 -2.5712 -1.5863
 1008MOL0     H32997   2.089   0.817   8.378 -0.1285  0.5450 -0.0576
 1008MOL0     H32998   2.136   0.923   8.250  1.2101  0.2126  0.2808
 1008MOL0     H32999   1.918   1.063   8.295 -2.1408 -0.5735  1.1833
 1008MOL0     H33000   1.900   0.895   8.236 -1.1978 -2.5568  1.6902
 1008MOL0     H33001   1.861   0.996   8.517  0.3468 -0.5123  0.5728
 1008MOL0     H33002   1.879   0.828   8.477 -2.6586  0.5022  0.9557
 1008MOL0     H33003   1.673   0.863   8.320  0.6175 -0.7047 -0.0146
 1008MOL0     H33004   1.674   1.029   8.401  2.5912  0.8380 -2.1259
 1008MOL0     H33005   1.632   0.763   8.537  1.1123  0.0403  0.9321
 1008MOL0     H33006   1.660   0.924   8.616  1.5498 -0.5059  0.3236
 1008MOL0     H33007   1.445   0.878   8.407  0.7617  0.8239 -0.9112
 1008MOL0     H33008   1.457   1.009   8.529 -0.2894 -0.8271  2.3592
 1008MOL0     H33009   1.204   0.963   8.585  0.4223  0.8044  1.2251
 1008MOL0     H33010   0.989   0.846   8.697  1.5068 -0.6876 -3.1574
 1008MOL0     H33011   1.063   0.796   8.853 -0.4519 -2.3396  0.7530
 1008MOL0     H33012   1.076   0.569   8.795 -0.2004 -0.7805  0.5211
 1008MOL0     H33013   0.989   0.595   8.651  2.5805 -0.9995 -0.3523
 1008MOL0     H33014   0.874   0.603   8.931  1.2649  0.4835 -1.1246
 1008MOL0     H33015   0.791   0.685   8.801 -0.1682  2.0224  2.3585
 1008MOL0     H33016   0.854   0.379   8.779 -2.0536 -0.9144 -0.2172
 1008MOL0     H33017   0.766   0.477   8.683  1.3030 -4.0029 -0.4455
 1008MOL0     H33018   0.470   0.389   9.002  1.6813 -0.4965 -0.0089
 1008MOL0     H33019   0.269   0.240   8.911 -0.0153 -0.5912 -0.4048
 1008MOL0     H33020  -0.041   0.127   8.904  1.1109 -1.1169 -0.1142
 1008MOL0     H33021  -0.274   0.036   8.887  0.0384  2.5539 -0.1003
 1008MOL0     H33022  -0.366  -0.148   8.879 -2.0494  1.1691  0.6207
 1008MOL0     H33023  -0.417  -0.276   8.772 -1.9809 -0.8383  2.5703
 1008MOL0     H33024  -0.607  -0.146   8.700 -1.4731 -0.5333  1.3370
 1008MOL0     H33025  -0.539   0.000   8.774  3.2927 -0.4206 -1.4210
 1008MOL0     H33026  -0.589  -0.094   9.003 -3.9623  2.9113  0.2332
 1008MOL0     H33027  -0.652  -0.242   8.930 -0.1700  0.0454  1.1760
 1008MOL0     H33028  -0.758   0.032   8.851  1.8168  0.3138  1.6475
 1008MOL0     H33029  -0.832  -0.136   8.834 -1.5978  1.9818 -0.4341
 1008MOL0     H33030  -0.930   0.014   9.018 -0.5656 -1.0352 -2.9945
 1008MOL0     H33031  -0.776   0.036   9.089  0.4707 -0.6238  0.2036
 1008MOL0     H33032  -0.807  -0.249   9.099 -0.6842 -0.6310  1.7948
 1008MOL0     H33033  -0.969  -0.185   9.078  0.9403 -0.3789 -1.4718
 1008MOL0     H33034  -0.777  -0.128   9.298  0.8520 -3.6583 -3.1999
 1008MOL0     H33035  -0.941  -0.044   9.276 -1.3045 -0.4665  3.3075
 1008MOL0     H33036  -0.908  -0.339   9.326 -2.1375 -0.6900  0.2731
 1008MOL0     H33037  -1.054  -0.255   9.333 -0.1873 -2.5946  0.7365
 1008MOL0     H33038  -0.175  -0.109   8.502 -1.9819  0.1653  1.1736
 1008MOL0     H33039   0.066  -0.005   8.515  1.5076  2.2821  0.9377
 1008MOL0     H33040   0.500   0.157   8.569  0.0294 -0.3364  1.3645
 1008MOL0     H33041   0.690   0.278   8.661 -1.1938 -0.0185 -1.9911
 1008MOL0     H33042   2.551   0.868   8.500  1.3457  0.0101 -1.1024
 1008MOL0     H33043   2.789   0.897   8.524 -0.3463 -0.4489 -2.0564
 1008MOL0     H33044   3.095   1.278   8.704 -1.2354 -1.2837  0.7232
 1008MOL0     H33045   3.300   1.325   8.782  0.3057  1.9843 -3.9308
 1008MOL0     H33046   3.494   1.179   8.952  0.5429  4.3778  2.3767
 1008MOL0     H33047   3.528   1.332   8.862  2.2909  1.3852  0.9459
 1008MOL0     H33048   3.697   1.256   9.029 -1.6376  1.9164 -0.5042
 1008MOL0     H33049   3.712   1.101   8.945 -1.7898 -0.3575  0.7320
 1008MOL0     H33050   3.764   1.365   8.804 -0.3901  1.2422 -0.1144
 1008MOL0     H33051   3.793   1.211   8.737 -2.7152 -1.3893  1.8364
 1008MOL0     H33052   4.014   1.321   8.801  1.0614 -0.2960 -1.2450
 1008MOL0     H33053   3.941   1.325   8.972 -0.0699 -1.5915 -0.4193
 1008MOL0     H33054   4.103   0.946   8.882 -2.7222 -0.9791 -0.5361
 1008MOL0     H33055   3.460   0.959   8.586 -1.0453 -2.3246  2.1519
 1008MOL0     H33056   3.253   0.914   8.510  0.7317  0.2843 -1.6050
 1009MOL0     O33057   1.333   3.894   5.282  0.2936  0.2488  0.3899
 1009MOL0     C33058   1.217   3.918   5.264  0.3493 -0.0460 -0.1002
 1009MOL0     O33059   1.142   3.880   5.153  0.7089  1.0103  0.3678
 1009MOL0     C33060   1.218   3.840   5.047  1.1122  0.5921  0.1837
 1009MOL0     C33061   1.238   3.704   5.019  0.2489 -0.1618 -0.6947
 1009MOL0     C33062   1.312   3.663   4.912 -0.1089 -0.2896  0.4186
 1009MOL0     C33063   1.357   3.761   4.821  0.7690  0.2968  0.1704
 1009MOL0     O33064   1.426   3.734   4.704  0.2030  0.9070  0.2138
 1009MOL0     C33065   1.487   3.603   4.693 -0.0549 -0.1126 -0.7533
 1009MOL0     C33066   1.601   3.614   4.594  0.3391  0.4831 -0.9806
 1009MOL0     C33067   1.662   3.475   4.556  0.1100 -0.4505  0.5547
 1009MOL0     C33068   1.755   3.488   4.453 -0.5829  0.1535  0.2857
 1009MOL0     C33069   1.821   3.344   4.428 -0.6644 -1.5153 -0.6561
 1009MOL0     C33070   1.920   3.345   4.310  0.1723  0.2193  0.6209
 1009MOL0     C33071   1.996   3.216   4.305 -0.0081  0.4481 -0.0965
 1009MOL0     C33072   1.929   3.113   4.217 -0.3466  0.4035 -0.5059
 1009MOL0     N33073   1.996   2.984   4.239  0.0020 -0.0968  0.2239
 1009MOL0     C33074   2.124   2.947   4.197 -0.0981 -0.4567 -0.1825
 1009MOL0     C33075   2.143   2.824   4.258  0.0917  0.7105  0.3465
 1009MOL0     C33076   2.254   2.726   4.238  0.3072  0.2540 -0.0033
 1009MOL0     C33077   2.386   2.800   4.213  0.0181 -0.3252  0.2685
 1009MOL0     C33078   2.428   2.879   4.340  0.2795 -0.4498 -1.0528
 1009MOL0     C33079   2.578   2.915   4.340  0.6156  1.0629 -0.3314
 1009MOL0     O33080   2.604   3.014   4.241 -0.4225  0.0994  0.7194
 1009MOL0     C33081   2.730   3.059   4.219  0.8963 -0.4653  0.6037
 1009MOL0     C33082   2.745   3.185   4.156 -0.3178 -0.3457 -0.4510
 1009MOL0     C33083   2.871   3.241   4.123 -0.3558  0.4566 -0.3011
 1009MOL0     C33084   2.987   3.162   4.140  0.4481 -0.1195 -0.8319
 1009MOL0     C33085   3.124   3.208   4.102 -0.2398 -0.7963 -0.1361
 1009MOL0     O33086   3.233   3.123   4.126 -0.6376 -0.4047 -0.4457
 1009MOL0     C33087   3.361   3.170   4.117 -0.0157  0.3527 -0.3433
 1009MOL0     C33088   3.416   3.184   3.993 -0.5980 -0.0468 -0.0203
 1009MOL0     C33089   3.549   3.205   3.971  1.0334  0.0445  0.3970
 1009MOL0     C33090   3.637   3.211   4.086 -0.1152  0.0744  0.3643
 1009MOL0     O33091   3.772   3.224   4.079  0.0835 -0.4420 -0.6805
 1009MOL0     C33092   3.842   3.154   3.979  0.7070 -0.1146  0.5961
 1009MOL0     C33093   3.980   3.118   4.027 -0.3736 -0.5073 -0.8511
 1009MOL0     C33094   4.066   3.061   3.911 -0.1035 -0.3398  0.0796
 1009MOL0     C33095   4.053   2.910   3.892 -0.6987  0.0000  0.4778
 1009MOL0     C33096   4.151   2.844   3.790 -0.6625 -0.0413 -0.2652
 1009MOL0     C33097   4.137   2.690   3.801 -0.2804 -1.1894  0.1163
 1009MOL0     C33098   4.228   2.596   3.717  0.2128 -0.5312 -0.1134
 1009MOL0     C33099   4.197   2.448   3.738  0.1993  0.2448  0.2985
 1009MOL0    Cl33100   4.275   2.344   3.615  0.1938  0.1785  0.1553
 1009MOL0     C33101   3.574   3.223   4.211 -0.4906  0.2250 -0.1932
 1009MOL0     C33102   3.439   3.193   4.228 -0.5617  0.0348  0.5706
 1009MOL0     O33103   3.131   3.321   4.056 -0.5005 -0.1444 -0.2850
 1009MOL0     C33104   2.973   3.034   4.202  0.6113  0.1836  0.3809
 1009MOL0     C33105   2.849   2.983   4.244  0.2775 -1.5041  0.2486
 1009MOL0     N33106   2.035   2.798   4.349  0.3850  0.5892  0.4699
 1009MOL0     N33107   1.951   2.899   4.332 -0.6723  0.1546  0.3440
 1009MOL0     C33108   1.335   3.902   4.850  0.5522  0.8309 -0.1186
 1009MOL0     C33109   1.273   3.942   4.965 -0.3728  0.2906 -0.2033
 1009MOL0     C33110   1.144   3.976   5.375  0.4678 -0.3222 -0.2867
 1009MOL0     C33111   1.010   3.994   5.369 -0.2506 -0.8219 -0.2836
 1009MOL0     C33112   0.933   4.070   5.462 -0.0418 -0.4438 -0.6074
 1009MOL0     C33113   1.003   4.124   5.572 -0.3130 -0.5482 -0.0945
 1009MOL0     O33114   0.943   4.186   5.677 -0.3553  0.2287  0.3009
 1009MOL0     C33115   0.803   4.213   5.679  0.0585  0.3269  1.0506
 1009MOL0     C33116   0.773   4.352   5.723 -0.5469 -0.2985 -1.5715
 1009MOL0     C33117   0.815   4.462   5.629 -0.1811 -0.3823  0.2451
 1009MOL0     C33118   0.807   4.594   5.701 -1.1555  0.0496  0.2095
 1009MOL0     C33119   0.918   4.680   5.652  0.5119 -0.1934  0.5494
 1009MOL0     C33120   1.000   4.757   5.600 -0.2855 -0.8686  0.1098
 1009MOL0     C33121   1.145   4.105   5.587  0.2758 -0.7549 -0.2151
 1009MOL0     C33122   1.215   4.024   5.491 -0.2423 -0.0461 -0.0377
 1009MOL0     H33123   1.200   3.625   5.082  1.2406  0.3845  0.6294
 1009MOL0     H33124   1.313   3.556   4.893 -0.8978 -0.2407  0.0262
 1009MOL0     H33125   1.416   3.526   4.661 -0.0185  0.0848 -1.3249
 1009MOL0     H33126   1.521   3.562   4.788 -2.6774 -1.2041 -0.2044
 1009MOL0     H33127   1.674   3.683   4.639  1.0001 -0.4536 -0.5913
 1009MOL0     H33128   1.570   3.664   4.501  3.8512  1.6234 -1.6998
 1009MOL0     H33129   1.587   3.406   4.516  3.8123 -4.0752 -0.7669
 1009MOL0     H33130   1.709   3.430   4.644  1.3351 -0.4533 -0.0786
 1009MOL0     H33131   1.704   3.529   4.365 -3.2941 -0.7943  1.2761
 1009MOL0     H33132   1.832   3.559   4.482  0.5156 -1.1772  0.6840
 1009MOL0     H33133   1.751   3.262   4.411  0.3747 -2.3004 -1.2699
 1009MOL0     H33134   1.877   3.330   4.522 -1.0724 -0.9014 -0.3175
 1009MOL0     H33135   1.987   3.430   4.327 -1.1566  2.5054 -3.7538
 1009MOL0     H33136   1.865   3.370   4.219  0.2801  0.2572  0.5662
 1009MOL0     H33137   2.099   3.240   4.275 -0.8191  1.3979 -2.3196
 1009MOL0     H33138   1.994   3.181   4.408  1.2255 -2.8057 -1.0568
 1009MOL0     H33139   1.927   3.141   4.111  0.6496  2.1075 -0.1134
 1009MOL0     H33140   1.826   3.105   4.254 -1.0430 -1.2310 -2.5700
 1009MOL0     H33141   2.197   2.986   4.127  0.9471 -3.5205 -0.9519
 1009MOL0     H33142   2.224   2.658   4.157  0.8213 -0.2209  0.2034
 1009MOL0     H33143   2.266   2.661   4.325 -2.0986 -1.1097 -0.5754
 1009MOL0     H33144   2.386   2.848   4.115 -2.2367  2.2464  1.3943
 1009MOL0     H33145   2.455   2.715   4.206  1.4212  0.8944 -3.5318
 1009MOL0     H33146   2.364   2.967   4.338 -2.3628 -2.2542 -2.2842
 1009MOL0     H33147   2.408   2.815   4.426 -0.1445  1.4099  0.2918
 1009MOL0     H33148   2.635   2.825   4.320 -0.8368 -0.3207  1.3956
 1009MOL0     H33149   2.610   2.960   4.435  0.4429  0.0900  0.2053
 1009MOL0     H33150   2.656   3.246   4.141 -0.4978 -0.5021 -0.0554
 1009MOL0     H33151   2.878   3.342   4.084  0.7246  0.9880  1.1859
 1009MOL0     H33152   3.349   3.192   3.908  1.2306 -0.6709 -1.5752
 1009MOL0     H33153   3.583   3.233   3.872  2.5098  0.0191  0.8863
 1009MOL0     H33154   3.856   3.221   3.894 -0.6032 -1.4657 -0.7547
 1009MOL0     H33155   3.796   3.059   3.951 -0.4491  0.0423  1.8669
 1009MOL0     H33156   3.990   3.046   4.109  1.7330 -1.9281 -2.2575
 1009MOL0     H33157   4.022   3.213   4.061 -0.4408 -0.3834 -1.1172
 1009MOL0     H33158   4.170   3.087   3.932 -1.0924  3.4555  1.2052
 1009MOL0     H33159   4.034   3.115   3.822  1.4143  0.4474 -0.0154
 1009MOL0     H33160   4.062   2.865   3.991 -2.1028  1.5326  1.3401
 1009MOL0     H33161   3.954   2.883   3.855 -1.1734  3.2823 -1.0714
 1009MOL0     H33162   4.254   2.876   3.807  0.3881 -2.8072 -1.0308
 1009MOL0     H33163   4.124   2.874   3.688 -1.9119 -0.5406 -0.0997
 1009MOL0     H33164   4.031   2.672   3.782 -1.2144  2.9612  0.5746
 1009MOL0     H33165   4.152   2.653   3.903  1.0795 -0.3203  0.2533
 1009MOL0     H33166   4.228   2.619   3.610  0.8794 -1.3728 -0.2991
 1009MOL0     H33167   4.327   2.600   3.762  0.3361 -5.0186  0.4743
 1009MOL0     H33168   4.088   2.449   3.736  0.1117  1.0349  2.3868
 1009MOL0     H33169   4.224   2.408   3.836  0.0767 -3.4204 -1.0151
 1009MOL0     H33170   3.635   3.248   4.298  0.7648 -1.8873 -0.3860
 1009MOL0     H33171   3.394   3.198   4.327 -0.3982  1.5907  0.5983
 1009MOL0     H33172   3.057   2.968   4.216  1.0405  0.3146 -1.3619
 1009MOL0     H33173   2.861   2.892   4.302  1.8670  0.5240  3.3665
 1009MOL0     H33174   1.383   3.968   4.778 -2.3745  1.8765 -1.2746
 1009MOL0     H33175   1.270   4.040   5.011  0.1346  0.4418 -0.4886
 1009MOL0     H33176   0.953   3.945   5.290 -1.4972 -1.6740  1.0987
 1009MOL0     H33177   0.827   4.093   5.453 -0.3787 -0.2034  2.7901
 1009MOL0     H33178   0.739   4.147   5.739 -1.5434  1.0332  0.1736
 1009MOL0     H33179   0.767   4.206   5.576  0.7538 -3.0839  0.9181
 1009MOL0     H33180   0.669   4.360   5.755  0.0751 -2.7471  1.5733
 1009MOL0     H33181   0.835   4.362   5.813 -3.6559 -1.5564  0.9194
 1009MOL0     H33182   0.751   4.458   5.539 -0.6847 -2.6201  0.6329
 1009MOL0     H33183   0.918   4.439   5.602 -0.8384 -1.8078 -1.2524
 1009MOL0     H33184   0.710   4.639   5.679 -1.0363 -0.6342 -1.9659
 1009MOL0     H33185   0.820   4.580   5.808  2.7195 -0.2773 -0.1702
 1009MOL0     H33186   1.064   4.831   5.556 -2.0685  0.4558 -0.4167
 1009MOL0     H33187   1.199   4.140   5.674  1.7527 -2.2491 -0.4678
 1009MOL0     H33188   1.323   4.020   5.494 -0.1165  1.7037 -0.9418
 1010MOL0     O33189   5.182   1.256   6.643  0.6525 -0.6377  0.1141
 1010MOL0     C33190   5.256   1.350   6.662  0.1087  0.8111  0.4455
 1010MOL0     O33191   5.220   1.481   6.669  0.2900 -0.3125 -0.3808
 1010MOL0     C33192   5.094   1.527   6.646 -0.4873 -0.2720 -0.7918
 1010MOL0     C33193   5.087   1.663   6.683 -0.5146  1.1287 -0.4413
 1010MOL0     C33194   4.969   1.739   6.663 -1.0099  0.6877  0.3472
 1010MOL0     C33195   4.861   1.688   6.596 -0.1942 -1.5888  0.4751
 1010MOL0     O33196   4.750   1.754   6.546 -0.3299 -0.6074  0.7380
 1010MOL0     C33197   4.766   1.898   6.523  0.9060  0.4518 -0.1274
 1010MOL0     C33198   4.641   1.951   6.450 -0.4735 -0.4542 -0.4984
 1010MOL0     C33199   4.624   1.879   6.319 -0.0819  0.1447 -0.1594
 1010MOL0     C33200   4.529   1.948   6.233  0.2812  0.3378 -0.8122
 1010MOL0     C33201   4.486   1.870   6.101 -0.1187  0.3258 -1.1176
 1010MOL0     C33202   4.614   1.820   6.025 -0.1121  0.1428  0.4790
 1010MOL0     C33203   4.698   1.948   5.988  0.0979  0.5568 -0.1864
 1010MOL0     C33204   4.818   1.905   5.907  0.0053  0.2298  0.8509
 1010MOL0     N33205   4.777   1.852   5.783 -0.5281 -0.1026  0.3866
 1010MOL0     C33206   4.739   1.932   5.678  0.4305  0.1732  0.3042
 1010MOL0     C33207   4.741   1.846   5.576 -0.5686 -0.8890 -0.0800
 1010MOL0     C33208   4.716   1.876   5.428 -0.8441 -0.0947  0.7520
 1010MOL0     C33209   4.566   1.875   5.402 -0.5632 -0.5760  0.3671
 1010MOL0     C33210   4.507   1.960   5.282 -0.5928  0.0658 -0.6903
 1010MOL0     C33211   4.366   1.935   5.253 -0.0356 -0.5785  0.4684
 1010MOL0     O33212   4.293   1.951   5.375 -0.2334 -0.2431  0.2244
 1010MOL0     C33213   4.160   1.917   5.361  1.1512  0.3919 -0.1305
 1010MOL0     C33214   4.085   1.875   5.473  0.4701 -0.2148  0.4528
 1010MOL0     C33215   3.946   1.859   5.486 -0.6441 -0.8736  0.0204
 1010MOL0     C33216   3.870   1.876   5.370 -0.3306 -0.4192 -0.9192
 1010MOL0     C33217   3.723   1.853   5.367  0.1265  0.0053  0.0664
 1010MOL0     O33218   3.677   1.767   5.464 -0.2705  0.6264 -0.4183
 1010MOL0     C33219   3.547   1.735   5.478 -0.1497  0.5089  0.0254
 1010MOL0     C33220   3.521   1.601   5.490  0.2552  0.4511  0.5269
 1010MOL0     C33221   3.391   1.554   5.484 -0.7927  0.0869  0.4791
 1010MOL0     C33222   3.280   1.643   5.476 -0.8827 -0.0582 -0.6088
 1010MOL0     O33223   3.149   1.611   5.479  0.1316 -0.3986  0.2662
 1010MOL0     C33224   3.106   1.524   5.374 -0.2041 -0.3364  0.1352
 1010MOL0     C33225   2.956   1.486   5.407 -0.1785 -0.3438 -0.0662
 1010MOL0     C33226   2.900   1.389   5.305  0.2292  0.6273  0.2625
 1010MOL0     C33227   2.752   1.370   5.306  0.4343  0.4206  0.6689
 1010MOL0     C33228   2.702   1.334   5.164 -0.8141 -1.0092  1.3067
 1010MOL0     C33229   2.548   1.331   5.172  0.5856 -0.7939  0.1501
 1010MOL0     C33230   2.477   1.291   5.042 -0.3335  0.4298 -0.3235
 1010MOL0     C33231   2.331   1.321   5.055 -0.1632  0.2882  0.6775
 1010MOL0    Cl33232   2.241   1.188   5.130  0.1281 -0.2723  0.3452
 1010MOL0     C33233   3.310   1.779   5.472 -0.4703  0.4317 -0.3610
 1010MOL0     C33234   3.440   1.824   5.470  0.2207  0.2842 -0.7727
 1010MOL0     O33235   3.659   1.908   5.279 -0.3175 -0.2295 -0.4575
 1010MOL0     C33236   3.933   1.919   5.263 -0.6940 -0.2467  0.7488
 1010MOL0     C33237   4.073   1.940   5.248 -0.0269 -0.3657 -0.1828
 1010MOL0     N33238   4.785   1.724   5.621 -0.1179  0.1984 -0.7057
 1010MOL0     N33239   4.811   1.719   5.747  0.1032 -0.8912  1.0600
 1010MOL0     C33240   4.869   1.551   6.563  0.2501  0.1648  0.4709
 1010MOL0     C33241   4.983   1.473   6.593  0.0026  0.0937  0.5694
 1010MOL0     C33242   5.397   1.303   6.702 -0.7171 -0.8669 -0.1389
 1010MOL0     C33243   5.489   1.393   6.756 -0.6534  0.3771  0.5188
 1010MOL0     C33244   5.624   1.354   6.783  0.2011 -0.5866  0.1408
 1010MOL0     C33245   5.667   1.223   6.758  0.2878  0.5999 -0.2652
 1010MOL0     O33246   5.797   1.198   6.790 -0.2082  0.4125  0.2575
 1010MOL0     C33247   5.836   1.062   6.781  0.1101 -0.7909  0.2447
 1010MOL0     C33248   5.969   1.051   6.850  0.8459  0.2401  0.8650
 1010MOL0     C33249   6.072   1.118   6.766  0.2473 -0.2127  0.1831
 1010MOL0     C33250   6.224   1.097   6.812  0.8480  0.7741 -0.0105
 1010MOL0     C33251   6.264   0.969   6.756 -0.2114 -0.3692 -0.0314
 1010MOL0     C33252   6.299   0.860   6.718 -0.3233 -0.2168 -0.6609
 1010MOL0     C33253   5.572   1.132   6.701 -0.4724 -0.3512  0.5331
 1010MOL0     C33254   5.438   1.171   6.679 -0.1634  0.2401 -0.0749
 1010MOL0     H33255   5.169   1.711   6.737 -0.1389 -2.8329  3.0597
 1010MOL0     H33256   4.969   1.841   6.699  1.4935  0.6071  0.8105
 1010MOL0     H33257   4.859   1.935   6.477 -0.0731  1.9175 -1.0167
 1010MOL0     H33258   4.759   1.949   6.620 -0.8785  0.6697 -0.3364
 1010MOL0     H33259   4.664   2.058   6.440 -0.9317 -0.1381  1.4541
 1010MOL0     H33260   4.556   1.935   6.517  3.2500  1.9444  5.6396
 1010MOL0     H33261   4.596   1.776   6.345  3.1190 -0.3294  1.9501
 1010MOL0     H33262   4.723   1.859   6.279 -0.7124 -1.0266 -1.1991
 1010MOL0     H33263   4.436   1.984   6.278 -1.7167 -3.2180 -1.6790
 1010MOL0     H33264   4.581   2.036   6.195  2.6248  0.4321  2.2238
 1010MOL0     H33265   4.425   1.931   6.033  0.8925  0.3380 -2.0396
 1010MOL0     H33266   4.431   1.778   6.122  2.1093 -0.8221  0.0369
 1010MOL0     H33267   4.599   1.764   5.932 -0.6009  0.2415  0.4954
 1010MOL0     H33268   4.675   1.761   6.093  0.3581  0.4134  0.3036
 1010MOL0     H33269   4.639   2.027   5.939  1.8831  1.6072 -0.7263
 1010MOL0     H33270   4.738   2.000   6.075 -1.5344  2.0189 -0.2376
 1010MOL0     H33271   4.872   1.828   5.962  1.1780 -0.5634 -1.3032
 1010MOL0     H33272   4.893   1.985   5.900  2.2335 -1.8182  0.0617
 1010MOL0     H33273   4.714   2.037   5.675 -0.4737  0.0848 -5.1488
 1010MOL0     H33274   4.770   1.807   5.363  0.8226  2.2698 -0.5203
 1010MOL0     H33275   4.765   1.972   5.409 -0.6683 -0.6328 -1.8946
 1010MOL0     H33276   4.518   1.915   5.491 -3.8144 -2.5748 -0.2962
 1010MOL0     H33277   4.526   1.773   5.393 -1.4266 -0.4215  2.0859
 1010MOL0     H33278   4.521   2.068   5.293  0.6717 -0.1150 -0.4198
 1010MOL0     H33279   4.571   1.917   5.205  1.5902 -1.1329  1.6575
 1010MOL0     H33280   4.349   1.843   5.196  1.9133  1.0996 -3.2002
 1010MOL0     H33281   4.330   2.010   5.182 -2.4474 -1.4381  0.6787
 1010MOL0     H33282   4.150   1.871   5.560  3.1776  0.9979 -1.3662
 1010MOL0     H33283   3.900   1.822   5.577 -1.9641  1.1773  0.2723
 1010MOL0     H33284   3.606   1.533   5.499 -0.2893 -0.1730  1.0060
 1010MOL0     H33285   3.369   1.448   5.480 -1.9423  0.2640  1.5414
 1010MOL0     H33286   3.171   1.437   5.364  0.1394 -0.1851  1.0122
 1010MOL0     H33287   3.098   1.577   5.278  0.9356  0.6184  0.5539
 1010MOL0     H33288   2.900   1.580   5.411  1.7612  0.8442 -0.0202
 1010MOL0     H33289   2.943   1.454   5.511  1.3992  0.0797  0.2735
 1010MOL0     H33290   2.941   1.288   5.317 -3.7986 -1.4743 -1.6215
 1010MOL0     H33291   2.924   1.435   5.209 -1.5043 -0.8225 -0.9246
 1010MOL0     H33292   2.716   1.298   5.381  0.3688  0.9798  1.1871
 1010MOL0     H33293   2.715   1.470   5.332  1.7601  0.4585  2.6501
 1010MOL0     H33294   2.751   1.240   5.137  0.8303  0.1340  0.1072
 1010MOL0     H33295   2.732   1.409   5.091 -0.0379 -2.4261  0.1103
 1010MOL0     H33296   2.523   1.435   5.193  0.4864 -0.7826 -0.0243
 1010MOL0     H33297   2.509   1.268   5.253 -1.2898 -0.2906 -0.3187
 1010MOL0     H33298   2.509   1.347   4.953 -0.7968  0.1962 -0.6438
 1010MOL0     H33299   2.503   1.186   5.026 -0.6578  0.0897  1.2945
 1010MOL0     H33300   2.283   1.320   4.957 -2.2911 -1.5621  1.6441
 1010MOL0     H33301   2.313   1.419   5.100  0.1773  0.7222 -0.1094
 1010MOL0     H33302   3.226   1.847   5.469  0.0891  1.1283 -0.3878
 1010MOL0     H33303   3.448   1.932   5.465  0.3295  0.2320 -2.1278
 1010MOL0     H33304   3.878   1.942   5.173  0.6608 -0.9022 -0.2966
 1010MOL0     H33305   4.105   1.990   5.157  0.0566 -1.2077 -0.6174
 1010MOL0     H33306   4.781   1.509   6.515  0.3601 -1.0030  1.2327
 1010MOL0     H33307   4.980   1.374   6.549 -1.5312  0.8344 -1.0964
 1010MOL0     H33308   5.462   1.494   6.786  0.5471  0.8285  0.1042
 1010MOL0     H33309   5.700   1.411   6.836 -1.2747  0.1410  1.5846
 1010MOL0     H33310   5.845   1.033   6.676 -3.3569 -3.5692  0.5120
 1010MOL0     H33311   5.757   0.998   6.822 -1.2317  1.2533  0.9879
 1010MOL0     H33312   5.965   1.086   6.954  2.8151  2.3040  0.3341
 1010MOL0     H33313   6.000   0.946   6.849  0.1171 -0.0208  2.5279
 1010MOL0     H33314   6.046   1.224   6.759 -1.3037 -0.6611 -1.4978
 1010MOL0     H33315   6.057   1.082   6.664 -2.0719  2.1067 -0.4100
 1010MOL0     H33316   6.290   1.181   6.790  0.3447  1.6310  1.5590
 1010MOL0     H33317   6.216   1.088   6.921  0.7759 -1.2875 -0.1555
 1010MOL0     H33318   6.318   0.758   6.692 -2.1890 -0.4955 -1.0870
 1010MOL0     H33319   5.605   1.031   6.678  3.1875  0.4256  1.7477
 1010MOL0     H33320   5.372   1.096   6.636 -0.8228  0.5836  0.3132
 1011MOL0     O33321   9.032  11.126   2.165  0.3755 -0.3901 -0.2029
 1011MOL0     C33322   9.067  11.140   2.044  1.0363  0.7909 -0.0267
 1011MOL0     O33323   8.991  11.108   1.935  0.6034  0.2354 -0.3563
 1011MOL0     C33324   8.863  11.058   1.952 -0.2357  0.0086  0.0737
 1011MOL0     C33325   8.756  11.101   1.877 -0.0546 -0.1973  0.1330
 1011MOL0     C33326   8.636  11.045   1.883  0.3241 -0.1745  0.0727
 1011MOL0     C33327   8.617  10.922   1.943  0.2124  0.1793 -0.5235
 1011MOL0     O33328   8.491  10.864   1.942 -0.3669  0.5400  0.4258
 1011MOL0     C33329   8.459  10.784   2.051  0.4677  0.5872  0.0936
 1011MOL0     C33330   8.308  10.749   2.041 -0.7429 -0.1069  0.3907
 1011MOL0     C33331   8.264  10.677   1.913 -0.3694 -0.2013 -0.5395
 1011MOL0     C33332   8.129  10.606   1.953 -0.1152 -0.4901 -0.0914
 1011MOL0     C33333   8.073  10.519   1.838  0.5088  0.1472 -1.2362
 1011MOL0     C33334   7.924  10.482   1.850  0.1470 -0.2272 -0.2531
 1011MOL0     C33335   7.906  10.363   1.947 -0.1728 -0.2736 -0.2162
 1011MOL0     C33336   7.762  10.308   1.936  0.7687 -0.2139 -0.2907
 1011MOL0     N33337   7.656  10.394   1.988  0.3098  0.1353 -0.0462
 1011MOL0     C33338   7.659  10.486   2.089 -1.1940 -0.5537  0.6856
 1011MOL0     C33339   7.535  10.535   2.079  0.7275 -0.0591 -0.2823
 1011MOL0     C33340   7.477  10.620   2.183  0.3976  0.2749 -0.0163
 1011MOL0     C33341   7.444  10.548   2.314 -0.1623  0.2795  0.7617
 1011MOL0     C33342   7.403  10.653   2.420  0.1208  0.5630 -0.4730
 1011MOL0     C33343   7.267  10.708   2.398  0.5244 -0.3477 -0.0904
 1011MOL0     O33344   7.182  10.593   2.404 -0.5828 -0.1427  0.4324
 1011MOL0     C33345   7.047  10.606   2.410 -0.2001  0.2793  0.1690
 1011MOL0     C33346   6.975  10.727   2.401 -1.4859 -0.5201  0.4285
 1011MOL0     C33347   6.841  10.726   2.398 -0.0756 -0.0518 -0.3267
 1011MOL0     C33348   6.769  10.610   2.411 -0.1524  0.7219 -0.5023
 1011MOL0     C33349   6.619  10.619   2.405  0.4934 -0.3592  0.3149
 1011MOL0     O33350   6.569  10.739   2.363 -0.4618  0.6475  0.3881
 1011MOL0     C33351   6.439  10.772   2.370 -0.8419  0.3304  0.1036
 1011MOL0     C33352   6.428  10.900   2.399  0.1029  0.1636  0.1018
 1011MOL0     C33353   6.305  10.967   2.383  1.0168 -0.2826 -0.2851
 1011MOL0     C33354   6.189  10.897   2.325 -0.0525 -1.2709 -0.5662
 1011MOL0     O33355   6.058  10.952   2.311 -0.3233  0.7534  0.0330
 1011MOL0     C33356   6.040  11.092   2.321  0.6786 -0.6138 -0.0950
 1011MOL0     C33357   5.925  11.134   2.228 -0.1378  0.2054 -0.0737
 1011MOL0     C33358   5.823  11.232   2.288  0.3214  0.4176 -0.4411
 1011MOL0     C33359   5.700  11.252   2.196  0.2027 -0.7477  0.0520
 1011MOL0     C33360   5.606  11.133   2.169 -0.4177  0.3813  0.4381
 1011MOL0     C33361   5.491  11.164   2.077 -0.4329 -0.3876  0.2444
 1011MOL0     C33362   5.369  11.227   2.147  0.1444 -0.8224  0.0532
 1011MOL0     C33363   5.277  11.296   2.040 -0.2137 -0.7266  0.3661
 1011MOL0    Cl33364   5.117  11.324   2.111 -0.1286 -0.0737  0.4511
 1011MOL0     C33365   6.208  10.771   2.274  0.4278  0.3723 -0.7375
 1011MOL0     C33366   6.330  10.706   2.306 -0.6298  0.5867  0.2397
 1011MOL0     O33367   6.552  10.521   2.429 -0.4625 -0.5464 -0.2900
 1011MOL0     C33368   6.835  10.488   2.426  0.4425 -0.4114  0.4836
 1011MOL0     C33369   6.978  10.487   2.423  0.3520 -0.5181  1.2285
 1011MOL0     N33370   7.458  10.480   1.976 -0.2043  0.2104 -0.5855
 1011MOL0     N33371   7.528  10.388   1.939  0.0388  0.8608  0.1697
 1011MOL0     C33372   8.723  10.863   2.019  1.0553 -0.2525  0.0958
 1011MOL0     C33373   8.843  10.935   2.015 -0.1796 -0.2759 -0.0236
 1011MOL0     C33374   9.194  11.202   2.009  0.3635  0.5452 -0.1612
 1011MOL0     C33375   9.269  11.255   2.114 -0.3530 -0.3010  0.0289
 1011MOL0     C33376   9.382  11.331   2.087 -0.4249 -0.0611 -0.5602
 1011MOL0     C33377   9.416  11.353   1.955 -0.1194 -0.0461 -0.4826
 1011MOL0     O33378   9.522  11.444   1.951 -0.3056  0.3313  0.5839
 1011MOL0     C33379   9.599  11.439   1.830  0.0800 -0.4836  0.5439
 1011MOL0     C33380   9.746  11.438   1.865  0.7847  0.2208 -0.2289
 1011MOL0     C33381   9.788  11.310   1.943 -0.5126  0.3166 -0.0869
 1011MOL0     C33382   9.863  11.217   1.842 -0.2344 -0.1994  0.6816
 1011MOL0     C33383  10.005  11.233   1.822 -0.3576  0.4074  0.1662
 1011MOL0     C33384  10.125  11.237   1.811 -0.3471 -0.5949  0.4407
 1011MOL0     C33385   9.341  11.302   1.848  0.7290 -0.1428  0.3642
 1011MOL0     C33386   9.228  11.229   1.873  0.3827  1.0401  0.1826
 1011MOL0     H33387   8.778  11.192   1.823 -0.4692 -0.5774 -0.6859
 1011MOL0     H33388   8.550  11.098   1.842  0.8295 -0.1844 -1.0413
 1011MOL0     H33389   8.486  10.834   2.145 -0.5024  2.2295 -0.4592
 1011MOL0     H33390   8.520  10.693   2.054 -0.3679  0.0221  0.2610
 1011MOL0     H33391   8.243  10.835   2.059  0.2139  0.5279  0.9245
 1011MOL0     H33392   8.297  10.682   2.127 -3.2056 -0.1073  0.1403
 1011MOL0     H33393   8.336  10.604   1.875  0.5626  0.8655 -0.8795
 1011MOL0     H33394   8.252  10.743   1.826  0.3353 -1.5485 -1.6894
 1011MOL0     H33395   8.159  10.535   2.031  2.6056  0.2979 -0.3168
 1011MOL0     H33396   8.050  10.673   1.989  0.9373  0.3492  0.7156
 1011MOL0     H33397   8.123  10.423   1.823 -4.3904 -2.7360 -0.9726
 1011MOL0     H33398   8.078  10.571   1.742  0.1132 -2.6861 -2.8837
 1011MOL0     H33399   7.889  10.461   1.749 -1.5544  0.8010  0.0948
 1011MOL0     H33400   7.855  10.561   1.881  0.2927 -0.1252 -0.1817
 1011MOL0     H33401   7.975  10.281   1.923  1.1791  0.0855  2.1540
 1011MOL0     H33402   7.929  10.400   2.047 -4.4224 -1.3201  1.3471
 1011MOL0     H33403   7.746  10.216   1.993  3.5479 -1.0363 -0.6943
 1011MOL0     H33404   7.746  10.282   1.831 -0.6778  0.0800 -0.1593
 1011MOL0     H33405   7.734  10.504   2.165  0.9276 -0.2794 -1.3691
 1011MOL0     H33406   7.382  10.652   2.139  0.1765 -1.1923 -0.6667
 1011MOL0     H33407   7.546  10.702   2.204  1.7668 -0.7564 -0.3706
 1011MOL0     H33408   7.528  10.485   2.343 -1.1251 -2.1256 -1.3469
 1011MOL0     H33409   7.358  10.483   2.299 -0.4737  1.0394 -0.9204
 1011MOL0     H33410   7.401  10.607   2.519  1.4020  0.0125 -0.6840
 1011MOL0     H33411   7.481  10.728   2.432  1.8847 -1.3497  0.4551
 1011MOL0     H33412   7.254  10.754   2.300  1.1695  0.4643  0.1950
 1011MOL0     H33413   7.237  10.778   2.476  1.5295 -1.5870  1.4899
 1011MOL0     H33414   7.037  10.815   2.414 -0.3279 -1.4085  1.1661
 1011MOL0     H33415   6.797  10.824   2.410 -2.6218 -1.2632  1.0446
 1011MOL0     H33416   6.506  10.959   2.447  1.0940 -0.0486 -1.1975
 1011MOL0     H33417   6.290  11.064   2.430 -0.3126 -0.6097 -0.0099
 1011MOL0     H33418   6.129  11.143   2.282  1.8698 -2.0100  0.7119
 1011MOL0     H33419   6.024  11.117   2.426  1.2861 -2.2734  0.4276
 1011MOL0     H33420   5.887  11.035   2.202  0.5853  0.0234 -0.4357
 1011MOL0     H33421   5.961  11.181   2.136  0.9950 -1.5737 -0.5866
 1011MOL0     H33422   5.877  11.326   2.308  1.5847 -0.1888 -0.9371
 1011MOL0     H33423   5.777  11.194   2.380 -2.3064  1.6088 -1.1370
 1011MOL0     H33424   5.640  11.330   2.245  0.2624 -1.5595  1.4740
 1011MOL0     H33425   5.738  11.283   2.098 -1.8721  0.8134 -0.3265
 1011MOL0     H33426   5.566  11.106   2.267  1.3023  0.9842  1.3519
 1011MOL0     H33427   5.662  11.045   2.135 -0.1230 -0.4988  3.0104
 1011MOL0     H33428   5.469  11.070   2.025 -0.8322  0.7342 -1.7044
 1011MOL0     H33429   5.523  11.238   2.003  0.4275 -0.5336  0.4577
 1011MOL0     H33430   5.306  11.151   2.195 -0.9320 -1.8709 -2.7852
 1011MOL0     H33431   5.409  11.305   2.212  1.6769 -0.5707 -1.1318
 1011MOL0     H33432   5.266  11.216   1.966  1.7896 -0.5706 -0.1390
 1011MOL0     H33433   5.320  11.387   1.998  0.6219 -1.1271  0.3359
 1011MOL0     H33434   6.129  10.727   2.213 -0.2114  0.9189 -0.3270
 1011MOL0     H33435   6.345  10.610   2.258 -0.3533 -0.6410  2.6361
 1011MOL0     H33436   6.776  10.401   2.452  1.5331 -1.2411  0.2534
 1011MOL0     H33437   7.037  10.396   2.425  0.2654 -0.5944  0.5783
 1011MOL0     H33438   8.719  10.773   2.078  3.2690 -0.1165  0.5528
 1011MOL0     H33439   8.930  10.892   2.064  0.9616  0.0598 -1.6501
 1011MOL0     H33440   9.242  11.234   2.217 -1.7357  0.2075 -0.1991
 1011MOL0     H33441   9.433  11.375   2.172 -0.7252  0.6330 -0.7333
 1011MOL0     H33442   9.573  11.520   1.761  1.4817 -1.1802 -0.8724
 1011MOL0     H33443   9.577  11.347   1.776  1.7183 -0.1386 -0.7740
 1011MOL0     H33444   9.797  11.448   1.769 -1.6995  0.6000 -1.5922
 1011MOL0     H33445   9.766  11.526   1.928 -0.4831 -0.4220  1.1384
 1011MOL0     H33446   9.700  11.255   1.980 -0.1056 -0.7848 -0.7114
 1011MOL0     H33447   9.861  11.315   2.024 -1.4132 -1.8228  0.9385
 1011MOL0     H33448   9.842  11.113   1.872 -4.0516 -0.1159 -1.1241
 1011MOL0     H33449   9.822  11.225   1.741 -0.7666  0.2792  0.9305
 1011MOL0     H33450  10.230  11.255   1.822 -0.8669  1.5579  2.4984
 1011MOL0     H33451   9.370  11.314   1.744  0.0851 -0.5363  0.1341
 1011MOL0     H33452   9.177  11.176   1.793 -1.1291  0.0076  1.7525
 1012MOL0     O33453   4.837   4.284   8.692  0.2397 -0.6048 -0.7009
 1012MOL0     C33454   4.886   4.390   8.738  0.4857 -0.0069  0.0116
 1012MOL0     O33455   4.821   4.501   8.782  0.2806  0.6032  0.0093
 1012MOL0     C33456   4.685   4.498   8.771  0.2740 -1.1363 -0.3855
 1012MOL0     C33457   4.608   4.534   8.884  0.4526 -0.5612  0.6640
 1012MOL0     C33458   4.467   4.522   8.888 -1.2818 -0.0525 -0.4356
 1012MOL0     C33459   4.395   4.485   8.780  0.2825  0.6879  0.7162
 1012MOL0     O33460   4.265   4.485   8.795  0.2794 -0.4241  0.4328
 1012MOL0     C33461   4.170   4.471   8.679 -0.8880  0.3604  0.0279
 1012MOL0     C33462   4.030   4.460   8.722  0.5519  0.9271 -0.5353
 1012MOL0     C33463   3.975   4.602   8.758 -0.0816  0.0646 -0.2163
 1012MOL0     C33464   3.836   4.580   8.807  0.0510 -0.0542  0.1187
 1012MOL0     C33465   3.780   4.709   8.863 -0.0200 -0.2787 -0.2065
 1012MOL0     C33466   3.766   4.811   8.754  0.5766 -0.6527 -0.1751
 1012MOL0     C33467   3.709   4.946   8.808 -0.3475 -0.3421  0.2729
 1012MOL0     C33468   3.810   5.038   8.885 -0.2162 -0.5381 -0.7608
 1012MOL0     N33469   3.924   5.067   8.794 -0.5238  0.0432 -0.4401
 1012MOL0     C33470   4.058   5.058   8.828 -0.4354 -0.1353 -0.0831
 1012MOL0     C33471   4.130   5.094   8.724  0.1433 -0.3951 -0.0305
 1012MOL0     C33472   4.287   5.107   8.711 -0.4156  1.0238  0.1899
 1012MOL0     C33473   4.326   5.242   8.768 -0.1934 -0.2654  0.0617
 1012MOL0     C33474   4.448   5.300   8.691 -0.2303 -0.8679  0.5475
 1012MOL0     C33475   4.483   5.443   8.735  0.3076 -0.6207  0.1196
 1012MOL0     O33476   4.555   5.524   8.635 -0.1274  0.1724 -0.3977
 1012MOL0     C33477   4.629   5.622   8.691 -0.1553 -0.3093  0.4932
 1012MOL0     C33478   4.617   5.679   8.818  0.1980 -0.9014  0.6048
 1012MOL0     C33479   4.706   5.777   8.850  0.4021 -0.6080 -0.2131
 1012MOL0     C33480   4.815   5.815   8.776  0.8066  0.7302 -0.3098
 1012MOL0     C33481   4.903   5.917   8.834 -0.6263  0.7953  0.8999
 1012MOL0     O33482   4.891   5.938   8.966  0.0361 -0.6499 -0.2670
 1012MOL0     C33483   4.961   6.045   9.024 -0.3735  0.5017  0.3453
 1012MOL0     C33484   5.026   6.030   9.148 -0.5611 -0.1847  0.1727
 1012MOL0     C33485   5.090   6.139   9.214 -0.0125  0.4271  0.5432
 1012MOL0     C33486   5.080   6.262   9.147  0.1754 -0.2974 -0.2509
 1012MOL0     O33487   5.145   6.366   9.210 -0.2591 -0.4397  0.2767
 1012MOL0     C33488   5.102   6.503   9.195 -0.7597 -0.8707  1.0653
 1012MOL0     C33489   5.195   6.589   9.284  0.3776  0.4061 -0.1435
 1012MOL0     C33490   5.190   6.545   9.432  0.2777 -0.3026 -0.2191
 1012MOL0     C33491   5.291   6.623   9.519 -0.3897  0.0373 -0.4420
 1012MOL0     C33492   5.266   6.609   9.670  0.2465 -0.1183 -0.0125
 1012MOL0     C33493   5.321   6.487   9.740 -0.0073  0.2502 -0.3662
 1012MOL0     C33494   5.466   6.503   9.776 -0.1664 -0.2995 -1.2932
 1012MOL0     C33495   5.504   6.395   9.875  0.4474  0.0602 -0.1193
 1012MOL0    Cl33496   5.676   6.383   9.898 -0.1281 -0.1126  0.0710
 1012MOL0     C33497   5.023   6.273   9.022 -0.0555  0.3080 -0.9917
 1012MOL0     C33498   4.967   6.166   8.962 -0.8102  0.2313  0.0753
 1012MOL0     O33499   4.973   5.969   8.756 -0.4725  0.1438 -0.4913
 1012MOL0     C33500   4.831   5.750   8.653 -0.1854 -0.2965  0.8640
 1012MOL0     C33501   4.734   5.661   8.609  0.7156  0.7109 -0.4533
 1012MOL0     N33502   4.036   5.134   8.623  0.0551 -0.7131 -0.8350
 1012MOL0     N33503   3.917   5.119   8.670 -0.3066 -0.1415  0.0481
 1012MOL0     C33504   4.463   4.454   8.659  0.8536 -0.8263  0.1056
 1012MOL0     C33505   4.605   4.470   8.656 -0.1317  0.8137 -0.2070
 1012MOL0     C33506   5.034   4.390   8.745  0.6295 -0.1247  0.1428
 1012MOL0     C33507   5.101   4.492   8.816 -0.2640  0.3251  0.2700
 1012MOL0     C33508   5.245   4.498   8.802  0.0054  0.3071 -0.6843
 1012MOL0     C33509   5.318   4.402   8.734 -0.0128 -0.0201 -0.2502
 1012MOL0     O33510   5.460   4.383   8.735  0.3323  0.8804  0.4361
 1012MOL0     C33511   5.552   4.487   8.778  0.3402  0.0405  0.0231
 1012MOL0     C33512   5.644   4.405   8.862  0.6226 -0.0251 -0.1739
 1012MOL0     C33513   5.763   4.495   8.921  0.5157 -0.3769 -1.0983
 1012MOL0     C33514   5.845   4.421   9.019 -0.6213 -0.0081  0.9154
 1012MOL0     C33515   5.939   4.326   8.954  0.1395 -0.1415 -0.8176
 1012MOL0     C33516   6.004   4.251   8.885  0.0574  0.8062 -0.2116
 1012MOL0     C33517   5.244   4.288   8.685  0.7763 -0.3686 -0.0654
 1012MOL0     C33518   5.100   4.285   8.685 -0.3410 -0.0831 -0.5612
 1012MOL0     H33519   4.659   4.548   8.979  0.9097  0.3668  0.2850
 1012MOL0     H33520   4.429   4.545   8.987  0.1657 -0.2711  0.1941
 1012MOL0     H33521   4.187   4.380   8.622  1.3091  3.0838 -4.2161
 1012MOL0     H33522   4.177   4.553   8.607  0.9845 -0.1181 -0.3887
 1012MOL0     H33523   4.029   4.397   8.811 -0.2037  2.1474  0.3583
 1012MOL0     H33524   3.978   4.410   8.640  1.9952 -0.3179 -0.7252
 1012MOL0     H33525   3.977   4.655   8.663 -0.5262  0.4096 -0.0374
 1012MOL0     H33526   4.039   4.649   8.834 -0.8937 -2.3765  2.1777
 1012MOL0     H33527   3.778   4.534   8.728 -0.4923  0.8550 -0.0324
 1012MOL0     H33528   3.828   4.502   8.883 -2.5719 -0.6887 -0.7310
 1012MOL0     H33529   3.845   4.735   8.947 -1.0487 -3.4349  1.7137
 1012MOL0     H33530   3.683   4.697   8.913  0.9899  3.6055  3.3185
 1012MOL0     H33531   3.679   4.783   8.695 -1.6574  1.2355  2.0255
 1012MOL0     H33532   3.861   4.829   8.702  0.0609 -0.1484 -0.9432
 1012MOL0     H33533   3.667   4.999   8.722  1.1997 -1.1668 -1.0258
 1012MOL0     H33534   3.637   4.926   8.888  1.9972 -2.1755  2.0955
 1012MOL0     H33535   3.847   4.992   8.977  1.0553  0.8814 -0.5336
 1012MOL0     H33536   3.761   5.133   8.909 -0.7506 -1.3928  1.9296
 1012MOL0     H33537   4.094   5.025   8.925  1.5372  1.3930 -0.2389
 1012MOL0     H33538   4.313   5.113   8.605  1.1363  1.3673  0.5585
 1012MOL0     H33539   4.336   5.018   8.752 -0.5399  0.6774 -0.3986
 1012MOL0     H33540   4.356   5.226   8.872 -1.1713 -0.2101  0.3616
 1012MOL0     H33541   4.237   5.305   8.762  0.6449  0.9206 -0.2118
 1012MOL0     H33542   4.536   5.238   8.702  1.4974  1.4115  0.3983
 1012MOL0     H33543   4.423   5.301   8.584 -2.7935 -0.6009  1.0865
 1012MOL0     H33544   4.555   5.434   8.817  0.8364  1.9343  0.0420
 1012MOL0     H33545   4.401   5.509   8.766 -1.1347 -1.4381 -1.7497
 1012MOL0     H33546   4.546   5.645   8.892 -0.9167  1.6332  0.8204
 1012MOL0     H33547   4.701   5.807   8.954  1.9377  3.0087 -1.0220
 1012MOL0     H33548   5.020   5.932   9.194 -1.4391 -0.5409 -0.6611
 1012MOL0     H33549   5.136   6.127   9.311  0.6828  1.0922  0.3093
 1012MOL0     H33550   4.998   6.513   9.228 -1.5281  2.1646 -1.8090
 1012MOL0     H33551   5.124   6.532   9.092  0.9447 -3.1145  0.6911
 1012MOL0     H33552   5.165   6.694   9.277 -2.0943 -0.1396  0.9865
 1012MOL0     H33553   5.297   6.567   9.250 -0.8793 -2.3316 -2.6522
 1012MOL0     H33554   5.222   6.440   9.435  3.0940  0.4798  0.0192
 1012MOL0     H33555   5.086   6.559   9.462 -0.0207  0.7899 -1.6317
 1012MOL0     H33556   5.387   6.575   9.499 -0.5636 -0.4819 -0.0559
 1012MOL0     H33557   5.292   6.728   9.488  3.3667  0.7600  1.5344
 1012MOL0     H33558   5.158   6.602   9.686  0.0344  1.2345 -0.6689
 1012MOL0     H33559   5.301   6.703   9.715 -1.5769  0.3710  0.4752
 1012MOL0     H33560   5.318   6.397   9.678  0.3687  1.5708 -2.3768
 1012MOL0     H33561   5.269   6.475   9.836  2.7978 -1.3850  1.0859
 1012MOL0     H33562   5.534   6.488   9.691  0.0683  2.3486 -1.6504
 1012MOL0     H33563   5.494   6.592   9.833 -0.9815  0.5664 -2.1906
 1012MOL0     H33564   5.484   6.299   9.827 -1.6774 -0.2539  1.2412
 1012MOL0     H33565   5.448   6.394   9.969  0.6640 -0.3370  0.0052
 1012MOL0     H33566   5.028   6.360   8.956  1.7683  0.6643 -0.4403
 1012MOL0     H33567   4.914   6.179   8.868 -1.5708  0.1446  0.4830
 1012MOL0     H33568   4.917   5.780   8.593 -0.2292 -1.3168  0.2590
 1012MOL0     H33569   4.738   5.610   8.513  0.8290  0.4759 -0.3252
 1012MOL0     H33570   4.405   4.425   8.571  0.2200  1.0043 -0.1404
 1012MOL0     H33571   4.667   4.436   8.574  1.3159 -0.7219  1.4394
 1012MOL0     H33572   5.042   4.567   8.865  0.6027  0.4753  1.1149
 1012MOL0     H33573   5.290   4.581   8.855 -1.7584  2.1425 -1.9035
 1012MOL0     H33574   5.512   4.575   8.828 -0.7956 -0.1455 -0.5263
 1012MOL0     H33575   5.605   4.516   8.687 -1.7689 -1.6153 -1.8495
 1012MOL0     H33576   5.587   4.357   8.943 -0.8222  0.1398 -1.0569
 1012MOL0     H33577   5.697   4.337   8.794  0.6676 -0.5737  0.4000
 1012MOL0     H33578   5.710   4.577   8.971  1.5352 -0.3276 -0.0598
 1012MOL0     H33579   5.818   4.536   8.836  1.0168  0.4315 -0.4008
 1012MOL0     H33580   5.918   4.487   9.067  0.8567  0.1396 -1.3585
 1012MOL0     H33581   5.778   4.366   9.085 -3.0792  1.7957  0.0974
 1012MOL0     H33582   6.061   4.192   8.816 -1.4981 -1.3765  0.2357
 1012MOL0     H33583   5.297   4.203   8.644 -0.5293 -1.0113 -0.4508
 1012MOL0     H33584   5.049   4.225   8.610 -1.3011  2.0436 -1.7135
 1013MOL0     O33585   3.463   9.238   5.203  0.3931  0.2753 -0.1628
 1013MOL0     C33586   3.396   9.135   5.203  0.1917  0.9688  0.4493
 1013MOL0     O33587   3.317   9.073   5.312 -0.5519 -0.0720 -0.3852
 1013MOL0     C33588   3.306   9.140   5.433 -0.1202  1.0453 -0.4596
 1013MOL0     C33589   3.380   9.250   5.487  0.3260 -0.5138 -0.3076
 1013MOL0     C33590   3.351   9.287   5.625 -0.4913 -0.4509 -0.4245
 1013MOL0     C33591   3.234   9.231   5.691 -0.1432  0.0413  0.6201
 1013MOL0     O33592   3.210   9.257   5.826  0.0351  0.0892 -0.2135
 1013MOL0     C33593   3.305   9.332   5.906 -0.6944  0.2440 -0.1125
 1013MOL0     C33594   3.264   9.346   6.054 -0.2684  0.6011  0.5087
 1013MOL0     C33595   3.346   9.457   6.118 -1.2807  0.0749 -0.4293
 1013MOL0     C33596   3.298   9.500   6.258  0.8979  0.3423  0.4717
 1013MOL0     C33597   3.276   9.383   6.353  0.0110 -0.7406 -0.2393
 1013MOL0     C33598   3.212   9.422   6.481  0.7184  0.2381  0.3670
 1013MOL0     C33599   3.060   9.449   6.465 -0.5232 -0.1350  0.8702
 1013MOL0     C33600   2.984   9.438   6.589 -1.0663 -0.5731 -0.4975
 1013MOL0     N33601   2.840   9.450   6.561  0.4944  0.4838 -0.0226
 1013MOL0     C33602   2.776   9.556   6.496 -0.2154 -0.2677  0.6488
 1013MOL0     C33603   2.641   9.522   6.498 -0.5155 -0.6193  0.4588
 1013MOL0     C33604   2.520   9.598   6.437  0.1823 -0.0630  0.0719
 1013MOL0     C33605   2.484   9.558   6.295  0.2132 -0.6400  0.1902
 1013MOL0     C33606   2.418   9.417   6.274 -0.8539  0.1596 -0.1453
 1013MOL0     C33607   2.390   9.398   6.130 -0.4729 -0.1444 -0.4226
 1013MOL0     O33608   2.300   9.493   6.085 -0.2851 -0.4319  0.1012
 1013MOL0     C33609   2.163   9.464   6.089 -0.9109 -0.8629  0.5210
 1013MOL0     C33610   2.104   9.341   6.122 -1.0505 -0.5785 -0.8183
 1013MOL0     C33611   1.970   9.319   6.121 -0.1105 -0.2490  0.7101
 1013MOL0     C33612   1.889   9.420   6.077 -0.0296 -0.2116 -0.2087
 1013MOL0     C33613   1.751   9.382   6.049 -0.2756  0.2071 -0.3623
 1013MOL0     O33614   1.663   9.475   6.037 -0.4702 -0.1285  0.3386
 1013MOL0     C33615   1.523   9.459   6.032  0.3186  0.0975 -0.2398
 1013MOL0     C33616   1.443   9.340   6.052  0.1871  0.5825  0.5824
 1013MOL0     C33617   1.305   9.358   6.042  0.5558 -0.3441 -0.2487
 1013MOL0     C33618   1.246   9.476   6.029  0.3599 -0.2251  0.3854
 1013MOL0     O33619   1.111   9.478   6.041  0.9325 -0.9906  0.2893
 1013MOL0     C33620   1.042   9.599   5.998 -0.4406  0.5374 -0.0784
 1013MOL0     C33621   0.897   9.553   5.984  0.4034  0.1582  0.0148
 1013MOL0     C33622   0.812   9.666   5.926 -0.0970  0.3879 -0.1407
 1013MOL0     C33623   0.661   9.630   5.914  0.6553  0.1581  1.3006
 1013MOL0     C33624   0.582   9.741   5.836 -0.4340 -0.1261 -0.7446
 1013MOL0     C33625   0.432   9.695   5.815 -0.1861  0.8444  0.0124
 1013MOL0     C33626   0.348   9.815   5.793 -0.2557 -0.2952  0.3779
 1013MOL0     C33627   0.201   9.791   5.784 -0.4489  0.4861  0.8844
 1013MOL0    Cl33628   0.131   9.842   5.945 -0.5066 -0.3648  0.0207
 1013MOL0     C33629   1.318   9.596   6.015  0.3386 -0.0449 -0.1839
 1013MOL0     C33630   1.459   9.581   6.020  0.5267 -0.5158  0.2103
 1013MOL0     O33631   1.720   9.264   6.040 -0.1409 -0.4797  0.1928
 1013MOL0     C33632   1.942   9.552   6.054  0.1887 -0.0251 -0.2506
 1013MOL0     C33633   2.084   9.571   6.059 -0.6129 -0.0790  0.1692
 1013MOL0     N33634   2.623   9.404   6.555 -0.5783  0.3846 -0.5594
 1013MOL0     N33635   2.739   9.369   6.605 -0.7770  0.5599  0.3213
 1013MOL0     C33636   3.158   9.134   5.630  1.1903  0.8622  0.9053
 1013MOL0     C33637   3.201   9.090   5.507  0.4488 -0.3226 -0.3033
 1013MOL0     C33638   3.395   9.044   5.079 -0.3452 -1.0376 -0.7386
 1013MOL0     C33639   3.500   9.048   4.986  0.4418 -0.2774  0.2208
 1013MOL0     C33640   3.505   8.962   4.881  0.4767 -0.2235  0.2384
 1013MOL0     C33641   3.417   8.858   4.864 -0.7020 -0.3828  0.3553
 1013MOL0     O33642   3.441   8.767   4.763 -0.0673 -0.0227  0.7952
 1013MOL0     C33643   3.360   8.647   4.756  1.0559  0.5975 -0.7484
 1013MOL0     C33644   3.427   8.531   4.841  0.2152  0.3878 -0.4487
 1013MOL0     C33645   3.329   8.411   4.859 -0.2967  1.1428  0.7115
 1013MOL0     C33646   3.401   8.279   4.880  0.5437 -0.0740  0.1638
 1013MOL0     C33647   3.468   8.237   4.755  0.1069  0.1125  0.5112
 1013MOL0     C33648   3.529   8.196   4.651 -0.3844 -0.2928 -0.6220
 1013MOL0     C33649   3.317   8.847   4.959  0.3286 -0.4569 -0.3903
 1013MOL0     C33650   3.305   8.936   5.071  0.3398 -0.6555  0.8775
 1013MOL0     H33651   3.460   9.308   5.440 -0.4476  0.0181 -1.0112
 1013MOL0     H33652   3.407   9.363   5.679 -1.2524  0.5868 -1.0545
 1013MOL0     H33653   3.312   9.435   5.872 -1.9911 -0.1426 -1.6738
 1013MOL0     H33654   3.406   9.289   5.897  0.2424  2.5815 -1.6151
 1013MOL0     H33655   3.281   9.253   6.109  1.1515  0.3145 -0.3752
 1013MOL0     H33656   3.159   9.377   6.056 -0.5903 -0.4392  0.5857
 1013MOL0     H33657   3.356   9.543   6.050  3.0340  0.7775  0.8222
 1013MOL0     H33658   3.448   9.425   6.139 -2.2314 -2.3272  0.9430
 1013MOL0     H33659   3.373   9.564   6.306 -0.2506  2.5888 -0.5703
 1013MOL0     H33660   3.202   9.553   6.252 -0.0140 -1.3586 -1.4101
 1013MOL0     H33661   3.374   9.339   6.375  0.3192  0.2582  0.4552
 1013MOL0     H33662   3.221   9.307   6.297 -1.0765 -1.2455  1.4241
 1013MOL0     H33663   3.269   9.511   6.511  0.3854  0.5980 -0.0507
 1013MOL0     H33664   3.231   9.346   6.557  0.2165  1.7194  2.0624
 1013MOL0     H33665   3.050   9.544   6.413 -0.9535 -0.4540  0.3546
 1013MOL0     H33666   3.014   9.380   6.393 -2.5627 -0.4888  2.4150
 1013MOL0     H33667   3.013   9.515   6.662  0.5552 -2.2446  0.7054
 1013MOL0     H33668   3.011   9.345   6.640  1.0017  1.4381  2.4319
 1013MOL0     H33669   2.808   9.657   6.470 -1.5340  0.7150  2.5828
 1013MOL0     H33670   2.547   9.704   6.436 -1.2935  0.3392 -1.5960
 1013MOL0     H33671   2.426   9.584   6.491 -0.7406  1.1424 -1.1756
 1013MOL0     H33672   2.574   9.563   6.233 -1.8702  0.4706 -3.0447
 1013MOL0     H33673   2.417   9.636   6.256  1.4709  2.1938  3.2689
 1013MOL0     H33674   2.496   9.345   6.300  0.5790  2.3968  2.2923
 1013MOL0     H33675   2.331   9.400   6.339 -0.1164  2.2928  1.5155
 1013MOL0     H33676   2.366   9.293   6.113 -2.2607 -0.4338  2.8812
 1013MOL0     H33677   2.483   9.420   6.076  0.6201 -1.7506  0.7261
 1013MOL0     H33678   2.163   9.256   6.156 -1.4066 -0.6120 -0.2635
 1013MOL0     H33679   1.928   9.227   6.161  0.6448 -0.0211  2.0796
 1013MOL0     H33680   1.486   9.245   6.083  0.4277 -0.0380 -1.5177
 1013MOL0     H33681   1.237   9.274   6.051 -0.9360  0.8316 -0.0594
 1013MOL0     H33682   1.078   9.636   5.902 -0.8172  3.4984  0.8195
 1013MOL0     H33683   1.046   9.675   6.076 -0.1631 -0.2464  0.6926
 1013MOL0     H33684   0.866   9.525   6.085 -0.8518 -3.4617 -1.2193
 1013MOL0     H33685   0.886   9.460   5.929 -1.1511  1.4813 -2.0608
 1013MOL0     H33686   0.843   9.694   5.825 -0.7832  0.2605 -0.3907
 1013MOL0     H33687   0.829   9.750   5.994 -1.3686  0.1612  0.4735
 1013MOL0     H33688   0.658   9.547   5.843  0.5255  2.4289 -1.5758
 1013MOL0     H33689   0.603   9.605   6.003 -2.5728  0.7814 -0.4467
 1013MOL0     H33690   0.618   9.750   5.733 -2.1583  0.4626 -1.3261
 1013MOL0     H33691   0.587   9.834   5.894  3.7560  0.0580 -1.1307
 1013MOL0     H33692   0.396   9.637   5.901 -0.7526  3.4903  1.6640
 1013MOL0     H33693   0.431   9.630   5.727  0.2972  0.3125  0.3940
 1013MOL0     H33694   0.373   9.886   5.872  0.9088 -1.2396  0.8882
 1013MOL0     H33695   0.388   9.860   5.701  1.9526 -0.1674  1.3427
 1013MOL0     H33696   0.175   9.687   5.766 -0.0947  0.1753  2.0719
 1013MOL0     H33697   0.160   9.844   5.698 -0.0376  0.4454  0.6600
 1013MOL0     H33698   1.286   9.696   5.989  3.0918  1.1699  0.6746
 1013MOL0     H33699   1.520   9.671   6.018  1.4471 -1.1349 -0.9192
 1013MOL0     H33700   1.877   9.631   6.018  1.3507  0.0316 -2.3457
 1013MOL0     H33701   2.129   9.665   6.027  0.2790 -0.9863 -1.4054
 1013MOL0     H33702   3.075   9.089   5.684  1.1592  0.3377  0.4274
 1013MOL0     H33703   3.139   9.018   5.456  0.9714 -0.4313 -0.8032
 1013MOL0     H33704   3.568   9.132   4.998 -2.9711  2.4718  2.4789
 1013MOL0     H33705   3.589   8.968   4.811  1.7768 -1.6958  1.6082
 1013MOL0     H33706   3.339   8.607   4.656  0.2538  0.6342 -0.6051
 1013MOL0     H33707   3.261   8.675   4.794  0.5141 -2.7254  0.6968
 1013MOL0     H33708   3.517   8.498   4.788 -0.0945  0.3694 -0.9680
 1013MOL0     H33709   3.451   8.564   4.943  2.3745 -0.2051 -0.7131
 1013MOL0     H33710   3.268   8.402   4.768 -0.1783  0.1084  0.7180
 1013MOL0     H33711   3.260   8.434   4.940 -1.3998 -1.2338  0.5196
 1013MOL0     H33712   3.487   8.289   4.947  1.2310 -1.7153 -0.4245
 1013MOL0     H33713   3.329   8.205   4.916  0.3279 -0.7746 -1.6355
 1013MOL0     H33714   3.592   8.153   4.575 -0.0009 -0.9416  0.0497
 1013MOL0     H33715   3.241   8.769   4.961  0.9039 -1.1533 -2.6253
 1013MOL0     H33716   3.220   8.932   5.138 -2.8217  3.7148 -2.3263
 1014MOL0     O33717  11.158   8.924   3.236  0.5148  0.3239  0.1143
 1014MOL0     C33718  11.252   8.902   3.158  0.0472 -0.1858 -0.7626
 1014MOL0     O33719  11.242   8.839   3.035 -0.4298 -0.2299  0.6120
 1014MOL0     C33720  11.119   8.856   2.969 -0.6992 -0.3671 -0.1213
 1014MOL0     C33721  11.015   8.954   2.998 -0.0903  0.6323  0.1856
 1014MOL0     C33722  10.901   8.970   2.914  0.5619  0.1687 -0.4842
 1014MOL0     C33723  10.879   8.888   2.802  0.2958  0.1829 -0.1713
 1014MOL0     O33724  10.765   8.906   2.734 -0.5191 -0.0823 -0.0463
 1014MOL0     C33725  10.768   8.993   2.620 -0.9562 -0.1643  1.2354
 1014MOL0     C33726  10.639   9.076   2.625  0.3265 -0.9841 -0.5188
 1014MOL0     C33727  10.520   9.012   2.566  0.1180  0.8739 -1.2111
 1014MOL0     C33728  10.393   9.098   2.578 -0.0891 -0.4356 -0.0346
 1014MOL0     C33729  10.275   9.022   2.524  0.9978 -0.2376 -0.5509
 1014MOL0     C33730  10.143   9.077   2.585  0.8835  0.0097  0.1890
 1014MOL0     C33731  10.022   9.023   2.513 -0.2889  0.9389  0.6558
 1014MOL0     C33732   9.896   9.089   2.567  0.5331  0.0471  0.3955
 1014MOL0     N33733   9.879   9.230   2.525 -0.8947 -0.3348  0.0527
 1014MOL0     C33734   9.824   9.276   2.414 -0.1225  0.5190  0.2166
 1014MOL0     C33735   9.797   9.408   2.450 -0.0955  0.6823  0.2757
 1014MOL0     C33736   9.708   9.493   2.370 -0.2151  0.1902 -0.7531
 1014MOL0     C33737   9.586   9.543   2.448  0.1206  0.2808  0.2264
 1014MOL0     C33738   9.489   9.421   2.451  0.8530 -1.0028  0.2484
 1014MOL0     C33739   9.357   9.468   2.506 -0.3901 -0.5463  1.2234
 1014MOL0     O33740   9.276   9.351   2.490  0.2411 -0.5040 -0.3183
 1014MOL0     C33741   9.145   9.356   2.506  0.7691  0.7204  0.2771
 1014MOL0     C33742   9.067   9.469   2.487  0.3307  0.2220 -0.1447
 1014MOL0     C33743   8.933   9.455   2.508 -0.2768 -0.8501  0.4509
 1014MOL0     C33744   8.871   9.338   2.561 -0.1595 -0.0241 -0.1659
 1014MOL0     C33745   8.727   9.336   2.599  0.6128  0.6699  0.2034
 1014MOL0     O33746   8.645   9.421   2.528 -0.3515 -0.9692  0.4761
 1014MOL0     C33747   8.511   9.431   2.560  0.0067 -0.3055  0.1227
 1014MOL0     C33748   8.425   9.343   2.488 -0.9566  0.0188 -0.7449
 1014MOL0     C33749   8.286   9.344   2.511  0.4725  0.5907 -0.1284
 1014MOL0     C33750   8.228   9.437   2.597  0.0721  0.6920  0.0616
 1014MOL0     O33751   8.093   9.448   2.624  0.1613 -0.0802  0.2174
 1014MOL0     C33752   8.002   9.409   2.521  0.2379 -0.8771 -0.6223
 1014MOL0     C33753   7.910   9.535   2.504  0.6166 -0.5701 -0.2688
 1014MOL0     C33754   7.772   9.493   2.459 -1.0497  0.6211 -0.1192
 1014MOL0     C33755   7.662   9.598   2.475 -0.8649 -0.1052 -0.0191
 1014MOL0     C33756   7.569   9.604   2.351 -0.2750 -0.4707  0.0225
 1014MOL0     C33757   7.442   9.690   2.375  0.2097  0.6356 -0.1614
 1014MOL0     C33758   7.365   9.715   2.240 -0.3612 -0.3003  0.4352
 1014MOL0     C33759   7.237   9.797   2.253 -0.4387 -0.3948  0.8273
 1014MOL0    Cl33760   7.149   9.787   2.109 -0.1264  0.5551  0.2445
 1014MOL0     C33761   8.317   9.531   2.663 -0.0705 -0.6281 -0.3726
 1014MOL0     C33762   8.456   9.527   2.642 -0.3090 -0.2301  0.0826
 1014MOL0     O33763   8.690   9.280   2.702 -0.0044 -0.1822  0.0017
 1014MOL0     C33764   8.944   9.221   2.572 -0.4743 -0.0032 -0.6436
 1014MOL0     C33765   9.082   9.226   2.536 -0.0808  0.4460  0.1615
 1014MOL0     N33766   9.852   9.439   2.570 -0.5445 -0.4670 -0.7885
 1014MOL0     N33767   9.898   9.331   2.613  0.0853  0.5199 -0.0707
 1014MOL0     C33768  10.982   8.792   2.770 -0.0773 -0.2733 -0.0866
 1014MOL0     C33769  11.097   8.784   2.853  1.1538  0.5502  0.5431
 1014MOL0     C33770  11.396   8.899   3.199 -0.4670 -0.1205  0.0755
 1014MOL0     C33771  11.439   8.916   3.334  0.4534  0.2563 -0.2698
 1014MOL0     C33772  11.572   8.916   3.363 -0.1601  0.0197 -0.0437
 1014MOL0     C33773  11.671   8.891   3.271  0.0608 -0.3871  0.3428
 1014MOL0     O33774  11.802   8.879   3.286 -0.9825  1.0623 -0.1997
 1014MOL0     C33775  11.856   8.918   3.414 -0.4500 -0.3992  1.0042
 1014MOL0     C33776  12.007   8.919   3.395  0.3620 -0.3295  0.5463
 1014MOL0     C33777  12.068   9.025   3.297 -0.7684  0.8988 -0.4012
 1014MOL0     C33778  12.211   9.008   3.276 -0.3489  0.1222 -0.0395
 1014MOL0     C33779  12.281   9.066   3.390 -0.8084 -0.0856  0.2938
 1014MOL0     C33780  12.339   9.116   3.490 -0.0935  0.4390  0.9960
 1014MOL0     C33781  11.629   8.875   3.133 -0.7185 -0.0584 -0.3238
 1014MOL0     C33782  11.493   8.885   3.103 -0.1135  0.3829  0.5653
 1014MOL0     H33783  11.008   9.023   3.081 -0.3664  0.7689  0.0500
 1014MOL0     H33784  10.823   9.044   2.929 -2.5753 -3.3633  3.1211
 1014MOL0     H33785  10.769   8.933   2.529 -1.8825 -1.7957  2.2564
 1014MOL0     H33786  10.861   9.051   2.617  1.9480 -4.4191  0.7253
 1014MOL0     H33787  10.668   9.166   2.571 -0.1602  0.9238  2.2161
 1014MOL0     H33788  10.632   9.095   2.733  0.8300  0.7812 -0.7767
 1014MOL0     H33789  10.492   8.912   2.599  0.4238  0.4081 -2.3078
 1014MOL0     H33790  10.550   8.989   2.463  0.4050 -1.8661 -0.5983
 1014MOL0     H33791  10.388   9.127   2.683  0.6769  0.5147 -0.2515
 1014MOL0     H33792  10.400   9.191   2.520 -0.9104  2.6509  4.3532
 1014MOL0     H33793  10.283   8.916   2.550  0.6453 -0.9038 -2.8706
 1014MOL0     H33794  10.281   9.025   2.415  1.8197 -0.9078 -0.5345
 1014MOL0     H33795  10.145   9.186   2.582 -1.4707  0.0814 -1.1356
 1014MOL0     H33796  10.147   9.059   2.693 -1.7064  3.0945  0.9478
 1014MOL0     H33797  10.033   9.049   2.407  0.7308 -1.8037  0.0276
 1014MOL0     H33798  10.007   8.918   2.536 -1.4068  1.1475  0.9693
 1014MOL0     H33799   9.882   9.071   2.673 -1.8963 -0.7421 -0.0145
 1014MOL0     H33800   9.820   9.028   2.519 -0.8299 -0.3132  2.8790
 1014MOL0     H33801   9.792   9.217   2.329 -1.3644  2.9149 -1.0856
 1014MOL0     H33802   9.676   9.443   2.278 -5.2204 -0.5350  1.0913
 1014MOL0     H33803   9.767   9.582   2.349 -1.2488  2.0133  3.1928
 1014MOL0     H33804   9.550   9.626   2.387 -1.1304  0.2797  0.9297
 1014MOL0     H33805   9.621   9.580   2.545  0.7591  1.5400 -0.4526
 1014MOL0     H33806   9.470   9.370   2.356  1.8030  0.0440 -0.5389
 1014MOL0     H33807   9.537   9.348   2.516  4.3136  0.3313 -0.5534
 1014MOL0     H33808   9.322   9.551   2.445  1.2795  1.1179  2.4234
 1014MOL0     H33809   9.362   9.492   2.613 -1.7490 -0.8832  1.3751
 1014MOL0     H33810   9.089   9.572   2.462  2.3502 -0.6581 -2.4257
 1014MOL0     H33811   8.874   9.544   2.490  0.1451 -0.8654 -1.2468
 1014MOL0     H33812   8.453   9.269   2.413  3.3183  1.4958 -0.8740
 1014MOL0     H33813   8.227   9.263   2.469  2.0195 -0.5265 -0.2683
 1014MOL0     H33814   7.945   9.328   2.566  1.1670 -1.8649 -1.1964
 1014MOL0     H33815   8.050   9.374   2.430  0.0950  1.4349 -1.6708
 1014MOL0     H33816   7.955   9.602   2.429  3.2666 -2.2454 -0.3016
 1014MOL0     H33817   7.903   9.586   2.601  1.7546  0.8531 -0.8923
 1014MOL0     H33818   7.745   9.408   2.522 -1.1437  1.1048  0.5092
 1014MOL0     H33819   7.782   9.461   2.355 -3.1308 -3.1216  0.6395
 1014MOL0     H33820   7.614   9.576   2.571  2.9747 -0.6306  1.9930
 1014MOL0     H33821   7.712   9.695   2.482 -1.4054  0.1598  0.1919
 1014MOL0     H33822   7.538   9.502   2.329  0.8097 -0.6977 -0.5188
 1014MOL0     H33823   7.622   9.640   2.263 -2.0457 -2.7916 -2.1494
 1014MOL0     H33824   7.461   9.790   2.413  1.6134  0.9161 -1.4948
 1014MOL0     H33825   7.381   9.635   2.447 -2.0554  1.9519 -0.9870
 1014MOL0     H33826   7.426   9.758   2.161 -1.5992 -1.5935 -1.2966
 1014MOL0     H33827   7.334   9.613   2.214  0.5007 -0.6177  0.6302
 1014MOL0     H33828   7.252   9.904   2.269  0.0797  0.1064 -2.2421
 1014MOL0     H33829   7.177   9.739   2.324 -1.8876 -2.1145 -1.6456
 1014MOL0     H33830   8.270   9.605   2.727 -0.5738 -1.9330  0.8305
 1014MOL0     H33831   8.524   9.598   2.689 -3.5308  2.1993  1.4648
 1014MOL0     H33832   8.896   9.141   2.627 -2.3683  2.3105  1.3274
 1014MOL0     H33833   9.142   9.139   2.559  1.5703  1.3858 -0.4486
 1014MOL0     H33834  10.980   8.736   2.677  0.3577  1.2985 -1.0839
 1014MOL0     H33835  11.179   8.721   2.821  0.5897  1.1364 -2.3428
 1014MOL0     H33836  11.366   8.927   3.414  1.2842 -1.1130  0.7154
 1014MOL0     H33837  11.606   8.944   3.462  0.6482 -0.4995 -0.1689
 1014MOL0     H33838  11.823   8.849   3.492 -0.6692  2.0544  3.2228
 1014MOL0     H33839  11.816   9.016   3.440 -0.1860 -0.2553  0.8635
 1014MOL0     H33840  12.054   8.934   3.493  0.3048 -2.2794  0.9017
 1014MOL0     H33841  12.041   8.816   3.383 -1.0575 -0.6751 -0.6694
 1014MOL0     H33842  12.049   9.127   3.329  1.6247  1.4086 -0.4108
 1014MOL0     H33843  12.027   9.004   3.197  1.0097 -0.2576 -0.9328
 1014MOL0     H33844  12.251   8.908   3.263  1.0887  0.8007 -1.2429
 1014MOL0     H33845  12.242   9.064   3.187 -0.3971  1.1261  0.5576
 1014MOL0     H33846  12.376   9.162   3.580  1.1473 -1.4475  1.4921
 1014MOL0     H33847  11.692   8.867   3.045 -2.9237 -0.5622 -1.9626
 1014MOL0     H33848  11.463   8.868   3.000  0.2406  0.2219  0.4855
 1015MOL0     O33849   1.428   6.696   0.318 -0.5384 -0.4347 -0.1069
 1015MOL0     C33850   1.429   6.742   0.431 -0.1137  0.0145 -0.2087
 1015MOL0     O33851   1.326   6.737   0.512  0.5110 -0.4895 -0.1058
 1015MOL0     C33852   1.196   6.701   0.469 -1.2645 -0.4542 -0.5929
 1015MOL0     C33853   1.097   6.795   0.463  0.6090 -0.5493 -0.2441
 1015MOL0     C33854   0.959   6.753   0.452 -0.6807 -0.5922 -1.0336
 1015MOL0     C33855   0.929   6.618   0.423 -1.0712  0.1341 -0.0756
 1015MOL0     O33856   0.806   6.568   0.416  0.0792 -0.3969  0.9254
 1015MOL0     C33857   0.697   6.651   0.418  0.4375 -0.3765 -0.0051
 1015MOL0     C33858   0.583   6.556   0.398 -0.0058 -0.3878  0.0190
 1015MOL0     C33859   0.447   6.626   0.416  0.5143  0.2910  0.6525
 1015MOL0     C33860   0.332   6.528   0.370 -0.5483  0.2122 -0.0102
 1015MOL0     C33861   0.193   6.582   0.401  0.5672 -0.2522 -0.2530
 1015MOL0     C33862   0.085   6.472   0.369 -0.4017 -0.1210  0.6845
 1015MOL0     C33863  -0.054   6.516   0.410 -0.4687 -0.4266  0.3345
 1015MOL0     C33864  -0.152   6.401   0.448  1.2630  1.6261 -0.4461
 1015MOL0     N33865  -0.278   6.446   0.524  0.9778 -0.6671  0.0512
 1015MOL0     C33866  -0.353   6.561   0.507 -0.4245  0.6775 -0.3810
 1015MOL0     C33867  -0.426   6.571   0.619  0.0245 -0.2813  0.2061
 1015MOL0     C33868  -0.526   6.678   0.658  0.2479 -0.7021  0.5862
 1015MOL0     C33869  -0.669   6.650   0.605  0.1626  0.5023  0.6585
 1015MOL0     C33870  -0.709   6.502   0.597  0.2578  0.2825 -0.3545
 1015MOL0     C33871  -0.860   6.486   0.572 -0.7054  0.7399  1.0402
 1015MOL0     O33872  -0.882   6.549   0.441  0.2282 -0.7051  0.7657
 1015MOL0     C33873  -0.998   6.529   0.386  1.0965  0.8151  0.6942
 1015MOL0     C33874  -1.007   6.518   0.255  0.1101  0.1566  0.0023
 1015MOL0     C33875  -1.124   6.507   0.177  0.1853 -0.1110 -0.2574
 1015MOL0     C33876  -1.252   6.510   0.247 -0.3542  0.3973  0.3629
 1015MOL0     C33877  -1.377   6.509   0.173  0.2180 -0.2486  0.6654
 1015MOL0     O33878  -1.480   6.513   0.251  0.8161 -0.1884 -0.5805
 1015MOL0     C33879  -1.599   6.472   0.199  0.5823  0.5960  0.1974
 1015MOL0     C33880  -1.637   6.339   0.208  0.1858 -0.2415  0.2819
 1015MOL0     C33881  -1.757   6.293   0.159  0.0972 -1.2777  0.5016
 1015MOL0     C33882  -1.853   6.382   0.109  0.2899  0.4676 -0.9780
 1015MOL0     O33883  -1.977   6.342   0.053 -0.3911 -0.1140  0.0194
 1015MOL0     C33884  -2.002   6.206   0.038 -0.1067 -0.1112  0.0265
 1015MOL0     C33885  -2.143   6.194  -0.029 -0.1568 -0.7947 -0.3057
 1015MOL0     C33886  -2.259   6.208   0.070  0.8341 -0.6403  0.1018
 1015MOL0     C33887  -2.394   6.194   0.000  0.4379 -1.0301 -0.2562
 1015MOL0     C33888  -2.438   6.052  -0.023  1.0466 -0.0237 -0.6186
 1015MOL0     C33889  -2.590   6.041  -0.069 -0.9755  0.1355  0.0030
 1015MOL0     C33890  -2.610   6.122  -0.202  0.1301 -0.3867 -0.2436
 1015MOL0     C33891  -2.753   6.097  -0.258 -0.4798 -0.2217 -0.2302
 1015MOL0    Cl33892  -2.789   5.931  -0.309  0.1622  0.1703 -0.5152
 1015MOL0     C33893  -1.821   6.518   0.110 -0.8448  0.0660  0.6953
 1015MOL0     C33894  -1.697   6.561   0.144  0.3067  0.6976  0.7449
 1015MOL0     O33895  -1.378   6.493   0.053 -0.7837  0.2402 -0.5272
 1015MOL0     C33896  -1.239   6.504   0.387 -0.2783  0.5133 -0.1107
 1015MOL0     C33897  -1.117   6.529   0.450 -0.3772 -0.1104 -0.4521
 1015MOL0     N33898  -0.416   6.458   0.695  0.0134 -0.4639 -0.6382
 1015MOL0     N33899  -0.330   6.386   0.632  0.5264 -0.8681 -0.2262
 1015MOL0     C33900   1.040   6.527   0.421  0.5927  0.1417  0.7584
 1015MOL0     C33901   1.171   6.566   0.451  0.5357 -0.1053 -0.5400
 1015MOL0     C33902   1.554   6.814   0.476 -0.4924 -0.0156  0.7747
 1015MOL0     C33903   1.660   6.817   0.384 -0.3901 -0.1790 -0.1764
 1015MOL0     C33904   1.783   6.881   0.426  0.6028  0.0984 -0.2992
 1015MOL0     C33905   1.794   6.937   0.561 -0.1043  0.7573  0.6342
 1015MOL0     O33906   1.900   6.987   0.623 -1.0281  0.1517 -0.4459
 1015MOL0     C33907   2.006   7.035   0.534  0.1709  0.4266 -0.6164
 1015MOL0     C33908   2.092   7.134   0.610  0.9002 -0.4665 -0.2039
 1015MOL0     C33909   2.024   7.272   0.599  0.5699 -0.2216  0.8037
 1015MOL0     C33910   2.104   7.396   0.665  0.0859  0.1885 -0.4585
 1015MOL0     C33911   2.138   7.378   0.804  0.1000  0.4583 -1.5750
 1015MOL0     C33912   2.189   7.340   0.912 -0.6618  0.3229  0.5016
 1015MOL0     C33913   1.685   6.919   0.646  0.3953  0.6046 -0.4067
 1015MOL0     C33914   1.568   6.862   0.608  0.8448 -0.3777  0.4336
 1015MOL0     H33915   1.129   6.898   0.471 -1.7639  0.2734 -0.4095
 1015MOL0     H33916   0.890   6.837   0.442 -0.0157  0.0792 -0.1523
 1015MOL0     H33917   0.698   6.726   0.338  1.9498 -0.9868 -0.5894
 1015MOL0     H33918   0.683   6.699   0.515  1.0650 -2.5716  1.2354
 1015MOL0     H33919   0.594   6.470   0.465 -2.0667 -1.3423 -0.7782
 1015MOL0     H33920   0.586   6.524   0.293 -0.1117  1.3891 -0.5535
 1015MOL0     H33921   0.443   6.715   0.354  0.5538 -0.1970 -0.0594
 1015MOL0     H33922   0.432   6.658   0.520  2.0432 -1.2478  1.4025
 1015MOL0     H33923   0.350   6.511   0.263  0.1256 -0.1100  0.1502
 1015MOL0     H33924   0.347   6.436   0.427  2.0882  1.5317  1.6352
 1015MOL0     H33925   0.165   6.675   0.350 -2.1481 -1.7302 -1.7186
 1015MOL0     H33926   0.184   6.607   0.507  1.3736 -0.5484 -0.1051
 1015MOL0     H33927   0.112   6.383   0.428  2.7728 -0.1372 -0.5955
 1015MOL0     H33928   0.083   6.452   0.262  2.9141 -1.0944  0.6850
 1015MOL0     H33929  -0.041   6.578   0.499 -0.1184  0.9489 -0.6371
 1015MOL0     H33930  -0.098   6.582   0.334 -0.3841 -0.9865 -0.2109
 1015MOL0     H33931  -0.104   6.318   0.502  1.7465  1.8798 -0.4791
 1015MOL0     H33932  -0.190   6.353   0.357 -0.4157  1.0457  0.5018
 1015MOL0     H33933  -0.359   6.635   0.428  0.7231  1.7667  0.5169
 1015MOL0     H33934  -0.505   6.781   0.625 -0.4348 -0.8098 -0.2135
 1015MOL0     H33935  -0.529   6.681   0.767 -0.5598 -0.0948  0.5629
 1015MOL0     H33936  -0.660   6.685   0.502  0.2716 -0.0162  0.4847
 1015MOL0     H33937  -0.742   6.708   0.661  1.0908 -0.2910  2.8296
 1015MOL0     H33938  -0.651   6.449   0.521  0.3756  0.5883 -0.4796
 1015MOL0     H33939  -0.692   6.455   0.695 -0.4300 -0.5500 -0.6179
 1015MOL0     H33940  -0.911   6.534   0.656 -2.1672 -3.9650  3.1632
 1015MOL0     H33941  -0.894   6.383   0.573 -1.0236  0.8458  1.4305
 1015MOL0     H33942  -0.919   6.502   0.194  0.3295 -0.0065  0.3577
 1015MOL0     H33943  -1.121   6.496   0.069  0.7633  1.7924 -0.4826
 1015MOL0     H33944  -1.567   6.269   0.252  1.1829  0.6037  0.0719
 1015MOL0     H33945  -1.770   6.185   0.153  1.0710 -1.2916 -2.3504
 1015MOL0     H33946  -2.007   6.154   0.134  0.3838 -0.6728 -0.2476
 1015MOL0     H33947  -1.923   6.161  -0.023 -0.0615  0.2997 -0.2185
 1015MOL0     H33948  -2.147   6.107  -0.094  2.4846  0.1033 -1.8529
 1015MOL0     H33949  -2.153   6.278  -0.098 -0.0244 -1.1254 -0.7320
 1015MOL0     H33950  -2.257   6.309   0.112  0.4346 -0.6127  0.0605
 1015MOL0     H33951  -2.254   6.134   0.150 -1.6654 -1.3164 -0.2682
 1015MOL0     H33952  -2.462   6.252   0.064 -1.7161 -2.3233 -1.2762
 1015MOL0     H33953  -2.388   6.246  -0.096  1.1308  0.6120  0.6280
 1015MOL0     H33954  -2.426   6.002   0.074  0.9858  0.7292 -0.2158
 1015MOL0     H33955  -2.379   5.998  -0.098 -0.3763 -2.2237 -0.2694
 1015MOL0     H33956  -2.667   6.059   0.006 -0.3492 -1.8313  1.1883
 1015MOL0     H33957  -2.609   5.939  -0.104 -3.1580  0.7689 -0.7684
 1015MOL0     H33958  -2.611   6.229  -0.178 -2.0755  0.0128 -1.7568
 1015MOL0     H33959  -2.534   6.105  -0.278  2.5064  0.3096  1.8447
 1015MOL0     H33960  -2.779   6.170  -0.336  1.0416  1.1379  0.4869
 1015MOL0     H33961  -2.831   6.123  -0.186 -0.5454 -1.3262  0.1057
 1015MOL0     H33962  -1.885   6.591   0.060 -3.0190 -0.7014  2.2058
 1015MOL0     H33963  -1.663   6.664   0.144 -1.0413  1.1594  0.9403
 1015MOL0     H33964  -1.334   6.490   0.439 -1.4873 -0.1497 -2.3835
 1015MOL0     H33965  -1.111   6.559   0.555  2.2585  0.9105 -0.8144
 1015MOL0     H33966   1.017   6.421   0.411  3.2850 -0.3883 -0.7390
 1015MOL0     H33967   1.243   6.486   0.465 -1.8324 -1.9048  2.9290
 1015MOL0     H33968   1.661   6.788   0.280  1.4352  1.9635 -0.8175
 1015MOL0     H33969   1.860   6.904   0.353 -1.6210  0.7763 -2.5538
 1015MOL0     H33970   1.968   7.073   0.439 -3.0335 -0.7890  0.0548
 1015MOL0     H33971   2.067   6.945   0.522  1.2103  0.7273  1.8407
 1015MOL0     H33972   2.106   7.099   0.713 -0.9753 -3.1191 -0.7392
 1015MOL0     H33973   2.191   7.137   0.565  1.0357 -0.2787  0.1048
 1015MOL0     H33974   1.922   7.264   0.638 -0.5226 -2.0609 -2.1656
 1015MOL0     H33975   2.015   7.291   0.492 -0.0071  2.2396  1.2147
 1015MOL0     H33976   2.199   7.397   0.611  0.7804 -3.9609  0.3246
 1015MOL0     H33977   2.049   7.490   0.655  1.1177  0.9735  0.9280
 1015MOL0     H33978   2.242   7.305   0.998  1.1703 -0.5554 -0.9179
 1015MOL0     H33979   1.704   6.935   0.752  0.4283 -1.9139  0.0459
 1015MOL0     H33980   1.494   6.856   0.687  0.1271 -0.0924 -0.2025
 1016MOL0     O33981  11.078   0.062   1.018  0.8678  0.9551  0.4597
 1016MOL0     C33982  11.113  -0.056   1.000  0.2144  0.9916 -0.7295
 1016MOL0     O33983  11.025  -0.165   1.000  0.0464 -0.0905 -0.7270
 1016MOL0     C33984  10.889  -0.138   1.007  0.3395 -0.0032 -0.0800
 1016MOL0     C33985  10.817  -0.184   1.114  0.6545 -0.5483  0.1819
 1016MOL0     C33986  10.684  -0.147   1.132  0.1159  0.2556  0.2738
 1016MOL0     C33987  10.617  -0.064   1.048 -0.6178 -0.2507  0.1621
 1016MOL0     O33988  10.484  -0.014   1.057  0.1063 -0.4497 -0.6594
 1016MOL0     C33989  10.408  -0.058   1.174 -0.5122 -0.2170 -0.3169
 1016MOL0     C33990  10.263   0.003   1.165 -0.4582 -0.4392 -0.2994
 1016MOL0     C33991  10.153  -0.082   1.241 -0.2222 -0.3014  0.0803
 1016MOL0     C33992  10.009  -0.037   1.214 -0.6274  0.7829  0.0780
 1016MOL0     C33993   9.975   0.098   1.263 -0.5017 -0.7298  0.2767
 1016MOL0     C33994  10.000   0.136   1.412 -0.1843  0.1095  0.2027
 1016MOL0     C33995   9.991   0.284   1.432 -0.2233  1.0133  0.0134
 1016MOL0     C33996   9.864   0.350   1.375 -0.1044  1.0538  0.2709
 1016MOL0     N33997   9.743   0.282   1.397 -0.2319 -0.0866 -0.6472
 1016MOL0     C33998   9.647   0.250   1.308  0.1364  0.4358  0.0238
 1016MOL0     C33999   9.559   0.172   1.375  0.1176 -1.2905 -0.7135
 1016MOL0     C34000   9.433   0.110   1.335 -0.6550 -0.3556  0.8768
 1016MOL0     C34001   9.358   0.191   1.234  0.1838 -0.6358 -1.4552
 1016MOL0     C34002   9.320   0.329   1.298 -0.2284  0.1797  0.1344
 1016MOL0     C34003   9.171   0.369   1.264 -0.0913  1.2637 -1.1946
 1016MOL0     O34004   9.085   0.299   1.364 -0.2637  0.1325  0.1070
 1016MOL0     C34005   8.946   0.287   1.339 -0.0116 -0.7124  0.6382
 1016MOL0     C34006   8.878   0.330   1.223  0.9319  0.2017  1.2525
 1016MOL0     C34007   8.737   0.318   1.207 -0.2684 -0.6266 -0.6094
 1016MOL0     C34008   8.662   0.270   1.317 -0.7159 -0.1494 -0.1031
 1016MOL0     C34009   8.514   0.273   1.315  1.2339 -0.4902 -0.2572
 1016MOL0     O34010   8.448   0.223   1.426  0.0848 -0.4881  0.3897
 1016MOL0     C34011   8.317   0.208   1.414 -0.0856 -0.1081  0.2093
 1016MOL0     C34012   8.233   0.314   1.391  0.5013  0.1415 -0.2465
 1016MOL0     C34013   8.088   0.293   1.390 -0.7828 -0.2890 -0.1038
 1016MOL0     C34014   8.034   0.169   1.417  0.0524  0.3960  0.0846
 1016MOL0     O34015   7.902   0.133   1.397 -0.2831  0.4601 -0.0137
 1016MOL0     C34016   7.810   0.236   1.361  1.1464  0.1752 -0.5656
 1016MOL0     C34017   7.662   0.190   1.362  0.4858  0.5644  0.7822
 1016MOL0     C34018   7.570   0.313   1.340 -0.2163  0.1107 -0.3317
 1016MOL0     C34019   7.426   0.267   1.315  0.0314 -0.0355 -0.3105
 1016MOL0     C34020   7.335   0.393   1.308 -0.0896 -0.1290  0.4501
 1016MOL0     C34021   7.326   0.459   1.165 -0.5711 -0.4513  0.0134
 1016MOL0     C34022   7.243   0.379   1.067  0.5568 -0.1233 -0.1948
 1016MOL0     C34023   7.295   0.374   0.930 -0.0057  0.0039 -0.3662
 1016MOL0    Cl34024   7.465   0.339   0.913  0.2510  0.0176  0.1578
 1016MOL0     C34025   8.119   0.066   1.456  0.4265  0.3266  1.1118
 1016MOL0     C34026   8.264   0.083   1.452 -0.4012 -0.2922 -0.7360
 1016MOL0     O34027   8.465   0.306   1.211 -0.3004 -1.1132  0.3048
 1016MOL0     C34028   8.726   0.247   1.439 -0.1662  0.0281  0.0957
 1016MOL0     C34029   8.868   0.255   1.450 -0.9697  0.5358  0.7440
 1016MOL0     N34030   9.603   0.166   1.508 -0.6259  1.0190  0.6843
 1016MOL0     N34031   9.726   0.222   1.518 -0.0924 -0.4634 -0.1183
 1016MOL0     C34032  10.690  -0.022   0.930  0.1648 -0.1529  0.0016
 1016MOL0     C34033  10.821  -0.063   0.914 -0.5565  0.6998  0.5385
 1016MOL0     C34034  11.257  -0.085   1.003  0.2820  0.1959 -1.0303
 1016MOL0     C34035  11.307  -0.219   0.996  0.0143 -0.6700  0.2732
 1016MOL0     C34036  11.448  -0.234   0.972  0.0458  0.1819  0.8024
 1016MOL0     C34037  11.535  -0.131   0.979  0.0262 -0.3649  1.2235
 1016MOL0     O34038  11.666  -0.128   0.975 -0.1254  0.1862  0.1340
 1016MOL0     C34039  11.737  -0.218   0.885  0.0859  0.7509 -0.0479
 1016MOL0     C34040  11.883  -0.204   0.922  0.0423 -0.4102  0.1131
 1016MOL0     C34041  11.929  -0.070   0.856 -0.2927  0.4648  0.2350
 1016MOL0     C34042  12.080  -0.054   0.870 -0.6119  0.6091  0.1671
 1016MOL0     C34043  12.127   0.076   0.831 -0.0539 -0.0165  0.1192
 1016MOL0     C34044  12.141   0.199   0.809  0.1154  0.6644 -0.1851
 1016MOL0     C34045  11.479  -0.008   1.005  0.3011  0.1670 -0.4479
 1016MOL0     C34046  11.347   0.022   1.010  0.1476  0.1998 -0.3230
 1016MOL0     H34047  10.873  -0.236   1.191  2.1368  2.5063  1.3159
 1016MOL0     H34048  10.642  -0.176   1.228  0.9987  1.0170  0.9086
 1016MOL0     H34049  10.453  -0.020   1.266 -0.3279 -2.8377  0.7462
 1016MOL0     H34050  10.410  -0.167   1.186  2.2606 -0.4330 -1.7537
 1016MOL0     H34051  10.211   0.011   1.069 -5.0591  3.0490  2.0534
 1016MOL0     H34052  10.266   0.108   1.198 -0.0955 -0.2996 -0.7511
 1016MOL0     H34053  10.169  -0.088   1.349 -2.2344  1.0695  0.5205
 1016MOL0     H34054  10.165  -0.188   1.216  0.9365  0.3789 -2.7529
 1016MOL0     H34055   9.981  -0.049   1.109  2.4408  1.5338 -0.9267
 1016MOL0     H34056   9.954  -0.117   1.263 -0.3962 -0.3958 -1.5318
 1016MOL0     H34057   9.870   0.115   1.235 -0.0730  2.5053  0.2775
 1016MOL0     H34058  10.027   0.169   1.198 -1.8088  1.0507  1.1033
 1016MOL0     H34059  10.097   0.105   1.451 -0.6636 -0.5645  0.8861
 1016MOL0     H34060   9.929   0.092   1.483  0.4617  2.0315  2.1408
 1016MOL0     H34061   9.986   0.302   1.540 -0.3104  0.3028  0.1324
 1016MOL0     H34062  10.086   0.326   1.399  0.1422  1.6325  1.7110
 1016MOL0     H34063   9.872   0.341   1.266  1.1260 -1.1381  0.4794
 1016MOL0     H34064   9.846   0.453   1.408 -1.1591  0.6835  0.9282
 1016MOL0     H34065   9.653   0.276   1.203  1.3624  0.2477  0.0337
 1016MOL0     H34066   9.366   0.095   1.420  0.0192  0.5480  1.5942
 1016MOL0     H34067   9.463   0.012   1.296  1.1279 -0.7590  3.0691
 1016MOL0     H34068   9.268   0.142   1.194 -0.8337  0.0507 -0.0719
 1016MOL0     H34069   9.433   0.202   1.155  0.8043 -1.7886 -1.0554
 1016MOL0     H34070   9.327   0.314   1.406 -0.8188  0.8971  0.2841
 1016MOL0     H34071   9.392   0.404   1.262 -0.2250  1.1147  1.9553
 1016MOL0     H34072   9.141   0.338   1.163  0.9172 -1.0653 -0.8553
 1016MOL0     H34073   9.156   0.475   1.286 -1.3447  0.5923  1.6215
 1016MOL0     H34074   8.929   0.372   1.136  0.8124 -1.8275  0.1339
 1016MOL0     H34075   8.696   0.356   1.114  2.6137 -1.0595 -2.1840
 1016MOL0     H34076   8.268   0.416   1.379 -4.1161  1.9284 -0.4667
 1016MOL0     H34077   8.024   0.378   1.367  1.1746  1.8472  1.9030
 1016MOL0     H34078   7.831   0.279   1.263 -1.6345  2.0732 -0.4633
 1016MOL0     H34079   7.815   0.325   1.424  0.8045 -0.2037  0.0046
 1016MOL0     H34080   7.647   0.139   1.457  3.9770  1.2068  1.8272
 1016MOL0     H34081   7.652   0.116   1.282  0.7234  2.2504 -0.8860
 1016MOL0     H34082   7.605   0.351   1.243  2.6595 -2.4386 -0.4512
 1016MOL0     H34083   7.577   0.387   1.420 -0.3985 -1.1478  0.8913
 1016MOL0     H34084   7.412   0.211   1.223  1.2735  0.1118 -0.6054
 1016MOL0     H34085   7.389   0.205   1.397 -1.9406  0.3272 -0.8901
 1016MOL0     H34086   7.377   0.471   1.374  1.4638  0.0042 -0.6373
 1016MOL0     H34087   7.231   0.376   1.336 -0.9122 -1.2826 -2.9333
 1016MOL0     H34088   7.431   0.469   1.135  0.6225 -0.5128  3.6074
 1016MOL0     H34089   7.282   0.559   1.175 -1.1251 -0.5662 -1.1876
 1016MOL0     H34090   7.241   0.279   1.112  2.9049  0.8959  2.4453
 1016MOL0     H34091   7.137   0.407   1.062  0.3436 -0.7245  0.7450
 1016MOL0     H34092   7.279   0.467   0.875  2.7556  0.0166 -1.2908
 1016MOL0     H34093   7.232   0.305   0.872 -0.8689  1.3141 -1.0461
 1016MOL0     H34094   8.079  -0.033   1.477  0.0914  0.6808  2.1892
 1016MOL0     H34095   8.337   0.006   1.476 -0.8663 -1.2305 -2.2051
 1016MOL0     H34096   8.674   0.209   1.526 -1.0243 -3.1557 -1.6580
 1016MOL0     H34097   8.903   0.229   1.549 -1.2382 -1.8956  0.2718
 1016MOL0     H34098  10.633   0.037   0.858 -0.4237 -2.0075 -1.1043
 1016MOL0     H34099  10.876  -0.028   0.828 -1.0283 -1.8205 -0.8802
 1016MOL0     H34100  11.243  -0.306   0.992 -0.5993 -0.2470  0.6411
 1016MOL0     H34101  11.478  -0.336   0.948  0.6690  0.4315  0.4763
 1016MOL0     H34102  11.721  -0.200   0.778  4.8030  2.2647 -0.7415
 1016MOL0     H34103  11.717  -0.323   0.908  2.1786  0.3206  0.0100
 1016MOL0     H34104  11.894  -0.207   1.030  0.1409  1.7512  0.2021
 1016MOL0     H34105  11.934  -0.292   0.882  1.2583 -0.5843  1.9177
 1016MOL0     H34106  11.882   0.003   0.922  3.1426 -0.7378  4.5127
 1016MOL0     H34107  11.882  -0.049   0.759  0.4891 -3.7686 -1.3061
 1016MOL0     H34108  12.109  -0.060   0.975  2.5670  1.1453 -0.5833
 1016MOL0     H34109  12.134  -0.135   0.821 -2.2536 -1.2149  1.2276
 1016MOL0     H34110  12.160   0.299   0.776 -2.0777  0.7498 -1.3745
 1016MOL0     H34111  11.546   0.078   1.007  0.3129  0.1347  0.6563
 1016MOL0     H34112  11.296   0.115   1.031 -1.0460 -0.8260  1.5515
 1017MOL0     O34113   2.401   5.388   6.749 -0.4867  0.2328  0.1020
 1017MOL0     C34114   2.350   5.458   6.838 -0.0078  0.6791  0.2489
 1017MOL0     O34115   2.412   5.533   6.931  0.0274  0.0448  0.4069
 1017MOL0     C34116   2.554   5.526   6.925  0.3996 -0.5952 -0.2804
 1017MOL0     C34117   2.626   5.638   6.888  0.5650 -0.1307  0.1968
 1017MOL0     C34118   2.764   5.637   6.878 -0.4660 -0.5247 -0.8419
 1017MOL0     C34119   2.831   5.520   6.906  0.0806 -0.0283  1.2129
 1017MOL0     O34120   2.967   5.520   6.885  0.6349 -1.0692  0.4363
 1017MOL0     C34121   3.042   5.443   6.978 -0.3590  0.4915 -0.2181
 1017MOL0     C34122   3.192   5.469   6.965 -0.1448 -0.4623 -0.7113
 1017MOL0     C34123   3.230   5.620   6.978  0.2530 -0.5339  0.4870
 1017MOL0     C34124   3.179   5.693   7.105 -0.1423 -0.4464 -0.3642
 1017MOL0     C34125   3.228   5.839   7.111  0.6195 -0.1301 -0.1199
 1017MOL0     C34126   3.174   5.934   7.008  0.2324  0.0648 -0.6747
 1017MOL0     C34127   3.023   5.960   7.036 -0.1027  0.4743  0.1713
 1017MOL0     C34128   2.967   6.055   6.931 -0.0374  0.4128 -0.0361
 1017MOL0     N34129   2.830   6.099   6.963 -0.3884  0.0303  0.3594
 1017MOL0     C34130   2.804   6.214   7.023  1.4943 -1.0423 -0.1586
 1017MOL0     C34131   2.665   6.217   7.030 -0.0431 -0.4952 -0.0972
 1017MOL0     C34132   2.597   6.333   7.100 -0.3997 -0.6422  0.1611
 1017MOL0     C34133   2.599   6.327   7.250 -0.4324  0.1699 -1.1885
 1017MOL0     C34134   2.511   6.222   7.318 -0.0952 -0.3139  0.2213
 1017MOL0     C34135   2.364   6.258   7.323 -0.1989 -0.3040 -0.0273
 1017MOL0     O34136   2.344   6.349   7.435  0.5333  0.0133  0.0776
 1017MOL0     C34137   2.209   6.363   7.476 -0.3442 -0.3324  0.8637
 1017MOL0     C34138   2.094   6.291   7.432 -0.5457 -1.0173 -0.3644
 1017MOL0     C34139   1.970   6.304   7.489  0.0464  0.3216  0.3081
 1017MOL0     C34140   1.944   6.398   7.588  0.1381 -0.5029 -0.2116
 1017MOL0     C34141   1.808   6.422   7.642  0.3663  0.4907 -0.1898
 1017MOL0     O34142   1.718   6.314   7.635  0.2718 -0.5443  0.0731
 1017MOL0     C34143   1.588   6.336   7.668  0.2192  0.5764 -0.8205
 1017MOL0     C34144   1.497   6.328   7.564  0.7562  0.7533  0.9863
 1017MOL0     C34145   1.357   6.338   7.591  0.0954 -0.0968 -0.7391
 1017MOL0     C34146   1.306   6.376   7.711  0.2470 -0.3908 -0.5773
 1017MOL0     O34147   1.172   6.397   7.738 -0.1821  0.2188 -0.3661
 1017MOL0     C34148   1.122   6.493   7.827  0.1817  0.1267 -0.1684
 1017MOL0     C34149   0.970   6.495   7.852  0.1864  0.4166  0.2444
 1017MOL0     C34150   0.920   6.348   7.878 -0.6058 -0.4811 -0.2442
 1017MOL0     C34151   0.808   6.349   7.995  0.2000  0.2122  0.7120
 1017MOL0     C34152   0.721   6.221   7.987  0.4906 -0.4625 -0.7580
 1017MOL0     C34153   0.629   6.227   7.867 -1.0464  0.0833 -0.7221
 1017MOL0     C34154   0.521   6.115   7.876 -0.2247 -0.3423 -1.0585
 1017MOL0     C34155   0.455   6.117   7.745 -0.2723  0.2409 -0.7653
 1017MOL0    Cl34156   0.291   6.041   7.757 -0.1544  0.1493 -0.1528
 1017MOL0     C34157   1.397   6.370   7.820  0.5365 -0.7565 -0.0551
 1017MOL0     C34158   1.532   6.346   7.795 -0.0209  0.3326 -0.4517
 1017MOL0     O34159   1.782   6.531   7.699  0.0942  0.0179  0.2021
 1017MOL0     C34160   2.048   6.481   7.620 -0.5962 -0.0384 -0.0991
 1017MOL0     C34161   2.177   6.467   7.575  0.2097 -0.3328  0.3872
 1017MOL0     N34162   2.613   6.107   6.977 -0.5936 -0.2284 -0.3716
 1017MOL0     N34163   2.712   6.036   6.933  0.8961  0.3420  0.5603
 1017MOL0     C34164   2.759   5.402   6.943 -0.0096  0.3254 -0.0910
 1017MOL0     C34165   2.620   5.410   6.956  0.1397 -0.5065  0.1944
 1017MOL0     C34166   2.209   5.460   6.847  0.3245 -0.3818  0.3722
 1017MOL0     C34167   2.150   5.544   6.947  0.6565  0.6108  0.3926
 1017MOL0     C34168   2.007   5.554   6.958  0.6684 -0.5941 -0.1176
 1017MOL0     C34169   1.920   5.496   6.862  0.6379 -0.2154 -0.0580
 1017MOL0     O34170   1.781   5.506   6.862  0.1610  0.1368 -0.4185
 1017MOL0     C34171   1.713   5.448   6.978 -0.2480 -0.1312  1.0263
 1017MOL0     C34172   1.561   5.456   6.961 -0.0627 -0.2272  0.0940
 1017MOL0     C34173   1.501   5.434   7.100  0.2271  0.0218  0.5430
 1017MOL0     C34174   1.344   5.439   7.102 -0.3406  0.3046 -0.5955
 1017MOL0     C34175   1.287   5.330   7.020  0.0521 -0.3697  0.8423
 1017MOL0     C34176   1.229   5.243   6.966 -0.0529 -0.2650  0.3110
 1017MOL0     C34177   1.981   5.404   6.775 -0.2502 -0.0266 -0.4738
 1017MOL0     C34178   2.123   5.385   6.768  0.0104 -0.2781 -0.2112
 1017MOL0     H34179   2.575   5.728   6.855 -0.6033 -0.8675 -0.0956
 1017MOL0     H34180   2.816   5.729   6.852 -0.7334 -0.6748 -1.9531
 1017MOL0     H34181   3.031   5.338   6.949 -1.1867  0.3786  0.4647
 1017MOL0     H34182   3.003   5.451   7.079 -0.4412  1.8671 -0.3435
 1017MOL0     H34183   3.236   5.433   6.872  1.2142  4.0832 -2.0935
 1017MOL0     H34184   3.246   5.405   7.036  0.5511 -0.5015 -1.2665
 1017MOL0     H34185   3.205   5.671   6.884  1.0508 -0.9092  0.0599
 1017MOL0     H34186   3.339   5.627   6.981  0.2323 -0.2350  0.5420
 1017MOL0     H34187   3.070   5.702   7.112  0.0024  1.4006  0.2789
 1017MOL0     H34188   3.221   5.643   7.193  0.4997  1.9933  0.8047
 1017MOL0     H34189   3.337   5.832   7.115  0.9811  3.3204 -1.3485
 1017MOL0     H34190   3.191   5.877   7.207  2.0139 -3.9115  2.1655
 1017MOL0     H34191   3.186   5.890   6.908 -0.6865  2.1254 -1.7748
 1017MOL0     H34192   3.215   6.036   7.006 -1.3167  0.7241 -2.0525
 1017MOL0     H34193   2.966   5.868   7.022 -2.6326  1.8307  0.9900
 1017MOL0     H34194   2.998   6.006   7.132 -1.4027 -0.4734  0.3013
 1017MOL0     H34195   2.958   5.992   6.843  1.2215 -0.8166  0.6693
 1017MOL0     H34196   3.033   6.139   6.905  0.6561  0.7745  2.5290
 1017MOL0     H34197   2.867   6.293   7.063  2.8824 -1.9019 -0.5577
 1017MOL0     H34198   2.494   6.330   7.064  0.1887 -0.0965 -1.6426
 1017MOL0     H34199   2.642   6.429   7.075 -0.6776 -0.3945  0.5995
 1017MOL0     H34200   2.576   6.425   7.294  2.7118  0.9142 -0.9676
 1017MOL0     H34201   2.701   6.322   7.289 -1.4328  0.6928  1.8190
 1017MOL0     H34202   2.526   6.131   7.258 -1.5406 -0.7730  0.5122
 1017MOL0     H34203   2.535   6.205   7.423  1.8117 -0.6718 -0.2328
 1017MOL0     H34204   2.303   6.168   7.335 -1.1993  0.3850  0.1779
 1017MOL0     H34205   2.334   6.298   7.226 -2.2963 -1.4527  0.1049
 1017MOL0     H34206   2.090   6.209   7.361 -0.1161 -1.5024  0.1563
 1017MOL0     H34207   1.890   6.241   7.450 -1.3866  2.3216 -0.1243
 1017MOL0     H34208   1.525   6.314   7.460 -1.8825 -3.5251  0.5968
 1017MOL0     H34209   1.287   6.322   7.510 -0.3874 -1.2987 -0.1127
 1017MOL0     H34210   1.148   6.591   7.786 -0.8537 -0.1295 -1.4935
 1017MOL0     H34211   1.162   6.483   7.929 -0.3598  0.9614  0.1374
 1017MOL0     H34212   0.915   6.544   7.771 -1.2202 -1.6997 -0.1669
 1017MOL0     H34213   0.946   6.548   7.944  3.2818 -1.0822  2.0688
 1017MOL0     H34214   0.992   6.280   7.926  0.7864  1.0625 -0.0323
 1017MOL0     H34215   0.885   6.294   7.790  0.5121 -3.0605  0.7910
 1017MOL0     H34216   0.866   6.352   8.088  1.3407 -1.3495  0.0938
 1017MOL0     H34217   0.734   6.427   7.977 -1.7905 -2.3144 -3.6729
 1017MOL0     H34218   0.654   6.222   8.073 -0.3415 -0.7319 -1.3895
 1017MOL0     H34219   0.785   6.132   7.984  0.7313 -0.2759 -1.3698
 1017MOL0     H34220   0.687   6.217   7.775 -0.5022  1.7486 -0.5889
 1017MOL0     H34221   0.585   6.326   7.854 -0.9896  0.2153  0.0443
 1017MOL0     H34222   0.544   6.010   7.895 -1.5480 -0.5990 -0.7606
 1017MOL0     H34223   0.462   6.162   7.956  0.6121  2.5350 -1.9863
 1017MOL0     H34224   0.516   6.068   7.668  1.5740  0.6521  0.3710
 1017MOL0     H34225   0.445   6.220   7.710  2.5478  0.7921 -0.2374
 1017MOL0     H34226   1.367   6.367   7.924  3.0111 -0.0017  0.7400
 1017MOL0     H34227   1.583   6.338   7.890 -1.5830 -1.2944  0.3141
 1017MOL0     H34228   2.037   6.552   7.702 -1.1880 -0.0700 -0.1479
 1017MOL0     H34229   2.260   6.530   7.607  0.2258 -0.5993  0.8763
 1017MOL0     H34230   2.809   5.308   6.964 -0.1330  0.0062 -1.1793
 1017MOL0     H34231   2.563   5.324   6.989  0.4801 -2.3487 -3.4420
 1017MOL0     H34232   2.210   5.603   7.016 -1.0339 -0.3777  2.8676
 1017MOL0     H34233   1.961   5.617   7.034  0.1469  0.5387 -1.3411
 1017MOL0     H34234   1.744   5.501   7.068 -0.4829 -0.7690  1.4823
 1017MOL0     H34235   1.746   5.345   6.989 -0.2719 -0.7196 -2.9866
 1017MOL0     H34236   1.535   5.556   6.927  1.1683  0.0642 -0.0167
 1017MOL0     H34237   1.521   5.380   6.892 -0.0042 -0.6947  0.5687
 1017MOL0     H34238   1.529   5.508   7.175  0.1451 -0.9236  1.5257
 1017MOL0     H34239   1.535   5.341   7.145  2.5619  0.9722  0.8914
 1017MOL0     H34240   1.305   5.426   7.203 -1.6826 -0.3408 -1.1788
 1017MOL0     H34241   1.308   5.535   7.064 -2.3321  0.5949  1.8458
 1017MOL0     H34242   1.176   5.161   6.924 -1.8939  0.8132  0.4304
 1017MOL0     H34243   1.921   5.346   6.706 -0.0491 -0.6249 -0.1544
 1017MOL0     H34244   2.170   5.320   6.695 -1.1245 -1.5771  0.1663
 1018MOL0     O34245   6.088   3.314   1.861  1.0114  0.7681 -0.9047
 1018MOL0     C34246   6.127   3.352   1.749 -0.2487 -0.6585  0.5109
 1018MOL0     O34247   6.052   3.414   1.655  0.1640 -0.9056  0.7115
 1018MOL0     C34248   5.919   3.445   1.685 -0.8210  0.4642  0.0940
 1018MOL0     C34249   5.826   3.406   1.590  0.6834 -0.1967  0.7931
 1018MOL0     C34250   5.691   3.446   1.594 -0.8000  0.3922  0.2070
 1018MOL0     C34251   5.651   3.521   1.708 -0.8682  0.0133  0.4403
 1018MOL0     O34252   5.515   3.533   1.716 -0.7176  0.6302  0.3428
 1018MOL0     C34253   5.446   3.606   1.816 -0.0640  0.0757  0.1994
 1018MOL0     C34254   5.314   3.655   1.756  0.3348  0.6770  0.6250
 1018MOL0     C34255   5.229   3.539   1.706 -0.3763  0.3124  0.7593
 1018MOL0     C34256   5.094   3.581   1.647 -0.0624 -0.9942 -0.2682
 1018MOL0     C34257   5.014   3.455   1.603  0.0101 -0.2902  0.7288
 1018MOL0     C34258   4.894   3.475   1.503  0.2543  0.2653 -0.3477
 1018MOL0     C34259   4.766   3.514   1.574  0.1100  0.0758  0.1126
 1018MOL0     C34260   4.720   3.396   1.673  0.6320 -0.4549  0.8717
 1018MOL0     N34261   4.573   3.397   1.669 -0.1025 -0.5174 -0.1303
 1018MOL0     C34262   4.502   3.351   1.564  1.2254  0.3489 -0.1543
 1018MOL0     C34263   4.369   3.350   1.599  0.1349 -0.0337  0.0906
 1018MOL0     C34264   4.250   3.333   1.506  0.0731  0.1961  0.0602
 1018MOL0     C34265   4.180   3.200   1.518  0.0880  0.0472  0.0171
 1018MOL0     C34266   4.062   3.207   1.428  0.1440  0.9797 -1.1157
 1018MOL0     C34267   3.983   3.080   1.434 -0.1524 -0.0926 -0.5412
 1018MOL0     O34268   3.887   3.105   1.335 -0.1946  0.1803 -0.6045
 1018MOL0     C34269   3.792   3.005   1.326  0.3844  0.6189  0.7002
 1018MOL0     C34270   3.806   2.872   1.384 -0.1586 -0.4914 -0.0992
 1018MOL0     C34271   3.706   2.783   1.381  0.1319 -0.2414  1.2601
 1018MOL0     C34272   3.576   2.818   1.322 -0.0187 -0.2291  0.2590
 1018MOL0     C34273   3.459   2.728   1.316 -0.2292  0.6250 -0.7126
 1018MOL0     O34274   3.343   2.770   1.248 -0.9828 -0.2993 -0.0447
 1018MOL0     C34275   3.235   2.689   1.238 -0.5011 -0.5015 -0.4551
 1018MOL0     C34276   3.192   2.597   1.334 -0.0261  0.9951 -0.5373
 1018MOL0     C34277   3.077   2.523   1.310  0.2799 -0.0214 -0.6987
 1018MOL0     C34278   2.999   2.540   1.199 -0.0917  0.3637 -0.5333
 1018MOL0     O34279   2.896   2.449   1.185 -0.0125 -0.0708 -0.6201
 1018MOL0     C34280   2.823   2.451   1.061 -0.3082  0.1464  0.0141
 1018MOL0     C34281   2.734   2.325   1.069  0.2845 -0.5518 -0.4313
 1018MOL0     C34282   2.652   2.310   0.934 -0.3288 -1.4087 -0.3186
 1018MOL0     C34283   2.548   2.206   0.924  0.1485 -0.2166 -0.5101
 1018MOL0     C34284   2.505   2.182   0.789  0.3843  0.4883 -0.0497
 1018MOL0     C34285   2.384   2.088   0.765 -0.5195 -0.9255  0.2303
 1018MOL0     C34286   2.400   1.943   0.819 -0.5381 -0.2099  0.3584
 1018MOL0     C34287   2.319   1.841   0.737 -0.0607  0.2301  1.5186
 1018MOL0    Cl34288   2.353   1.672   0.766 -0.0741  0.2019 -0.1573
 1018MOL0     C34289   3.043   2.623   1.110 -1.1020 -1.0525  0.2942
 1018MOL0     C34290   3.155   2.701   1.124  0.5825 -0.5147 -0.5150
 1018MOL0     O34291   3.470   2.617   1.380  0.2705 -0.5844 -0.4509
 1018MOL0     C34292   3.571   2.939   1.252 -0.4883 -0.5484  0.0982
 1018MOL0     C34293   3.673   3.031   1.255  0.0233  0.3004  0.1507
 1018MOL0     N34294   4.372   3.381   1.739  0.0282 -0.4455  0.3883
 1018MOL0     N34295   4.492   3.406   1.777  1.1521  0.7323 -0.5370
 1018MOL0     C34296   5.750   3.574   1.796 -0.0488  0.0368  1.0427
 1018MOL0     C34297   5.883   3.534   1.786 -0.2120  0.2200 -0.0729
 1018MOL0     C34298   6.264   3.311   1.700  0.2727  0.9180 -0.3855
 1018MOL0     C34299   6.344   3.219   1.778  0.4475 -0.2978 -0.3273
 1018MOL0     C34300   6.473   3.183   1.731 -0.4104 -1.4099 -0.4191
 1018MOL0     C34301   6.521   3.218   1.607 -0.6635 -0.5092  0.2801
 1018MOL0     O34302   6.641   3.168   1.574 -0.3692 -0.2368 -0.0659
 1018MOL0     C34303   6.697   3.184   1.443  0.0647 -0.5290  0.6351
 1018MOL0     C34304   6.849   3.156   1.449  0.9566 -0.4300  0.4116
 1018MOL0     C34305   6.868   3.008   1.485 -0.2912 -0.5999 -0.7288
 1018MOL0     C34306   7.003   2.972   1.546  0.3514 -0.1708 -0.2317
 1018MOL0     C34307   7.064   2.850   1.497 -0.2615 -0.7827 -0.2144
 1018MOL0     C34308   7.132   2.762   1.453 -0.2474 -0.1617 -0.0906
 1018MOL0     C34309   6.443   3.303   1.532  0.4759  0.1026  0.1972
 1018MOL0     C34310   6.309   3.338   1.569 -0.4338 -0.2004 -1.2884
 1018MOL0     H34311   5.857   3.341   1.509 -1.0309 -0.9907  0.7190
 1018MOL0     H34312   5.617   3.408   1.525  1.8516 -5.6158  0.0411
 1018MOL0     H34313   5.509   3.691   1.844 -0.2379  0.9416 -1.8586
 1018MOL0     H34314   5.416   3.546   1.902  0.8750  0.9548  1.1682
 1018MOL0     H34315   5.340   3.724   1.675 -1.9571 -0.4134 -1.1502
 1018MOL0     H34316   5.259   3.704   1.837 -1.2443  0.1837 -0.1100
 1018MOL0     H34317   5.220   3.481   1.798  4.1582 -1.8267  0.1015
 1018MOL0     H34318   5.282   3.484   1.629 -2.3926 -0.0446 -0.4349
 1018MOL0     H34319   5.029   3.631   1.718 -3.0186  0.4510 -3.6867
 1018MOL0     H34320   5.111   3.659   1.571 -0.4029 -0.5405  0.1149
 1018MOL0     H34321   4.983   3.409   1.698  3.2049  0.0568  2.0733
 1018MOL0     H34322   5.078   3.375   1.562  0.0146  0.0328  0.1046
 1018MOL0     H34323   4.874   3.391   1.435  1.9871  1.7891 -2.9637
 1018MOL0     H34324   4.915   3.560   1.437  0.5072  1.1970  0.9048
 1018MOL0     H34325   4.786   3.603   1.634  1.3329  0.6631 -1.1220
 1018MOL0     H34326   4.690   3.547   1.503  0.5785  2.7001  0.7323
 1018MOL0     H34327   4.757   3.414   1.774  1.8689  1.1465  0.1857
 1018MOL0     H34328   4.767   3.302   1.644  2.6969  0.3004  1.5966
 1018MOL0     H34329   4.552   3.335   1.468 -2.4896 -0.2996 -2.1875
 1018MOL0     H34330   4.286   3.339   1.402  1.4323  0.3650  0.5249
 1018MOL0     H34331   4.190   3.422   1.529  2.6955  1.1182  4.4881
 1018MOL0     H34332   4.148   3.170   1.618 -2.5827 -1.5446 -1.2223
 1018MOL0     H34333   4.246   3.117   1.488 -1.5626 -1.2055 -0.2991
 1018MOL0     H34334   3.994   3.286   1.462 -1.5307 -1.2147  1.0026
 1018MOL0     H34335   4.098   3.215   1.325  0.8372  0.7712 -0.8953
 1018MOL0     H34336   3.940   3.064   1.533  2.4602 -3.4822  0.2179
 1018MOL0     H34337   4.043   2.992   1.411 -1.4248 -1.3062  0.6104
 1018MOL0     H34338   3.889   2.845   1.448  1.1100  2.4126 -0.3652
 1018MOL0     H34339   3.710   2.681   1.418 -1.6401 -0.7535  0.2115
 1018MOL0     H34340   3.246   2.579   1.426 -0.2203  0.5189 -0.5147
 1018MOL0     H34341   3.055   2.453   1.390 -0.2776  1.2972  0.3472
 1018MOL0     H34342   2.900   2.440   0.985  3.2824  1.8501  3.1154
 1018MOL0     H34343   2.769   2.545   1.045  2.6079  1.7804 -0.8992
 1018MOL0     H34344   2.666   2.338   1.155  2.1536  0.7928  0.9304
 1018MOL0     H34345   2.794   2.238   1.097  2.7198  1.0570 -0.4086
 1018MOL0     H34346   2.728   2.297   0.857 -0.2689  0.5379 -0.6208
 1018MOL0     H34347   2.613   2.407   0.903 -1.1853 -1.4897  0.4628
 1018MOL0     H34348   2.591   2.114   0.965  2.4792  2.4453  3.8594
 1018MOL0     H34349   2.455   2.225   0.980  0.6577 -2.2110  1.1134
 1018MOL0     H34350   2.585   2.150   0.722 -0.9290 -1.2220 -0.8736
 1018MOL0     H34351   2.472   2.278   0.748 -2.5150  0.0948  1.0873
 1018MOL0     H34352   2.367   2.084   0.657  1.9258 -2.2470 -0.1826
 1018MOL0     H34353   2.306   2.134   0.826 -0.7648 -0.4673 -0.4229
 1018MOL0     H34354   2.509   1.933   0.812 -0.6877 -1.0272 -1.4510
 1018MOL0     H34355   2.393   1.937   0.928  1.4399  3.4974  0.8624
 1018MOL0     H34356   2.339   1.866   0.633 -2.6905 -0.9345  0.6557
 1018MOL0     H34357   2.211   1.851   0.756 -0.6454 -3.0161  0.4496
 1018MOL0     H34358   2.993   2.617   1.014  2.0263  0.8078 -1.6346
 1018MOL0     H34359   3.182   2.774   1.048  0.1458 -1.8498 -1.9847
 1018MOL0     H34360   3.486   2.960   1.187  0.3994 -0.0073 -0.9164
 1018MOL0     H34361   3.671   3.129   1.209  2.3653  0.8002  0.9632
 1018MOL0     H34362   5.733   3.656   1.866 -0.3918  1.8177 -1.0340
 1018MOL0     H34363   5.947   3.559   1.870  1.4283  1.6968 -1.6829
 1018MOL0     H34364   6.317   3.186   1.878  1.4902  0.6746  0.2993
 1018MOL0     H34365   6.525   3.125   1.807 -0.4569 -0.8545  0.0460
 1018MOL0     H34366   6.685   3.287   1.407 -0.5441 -0.4191  1.1197
 1018MOL0     H34367   6.644   3.126   1.368  1.0287  1.7272 -1.9471
 1018MOL0     H34368   6.891   3.175   1.350 -0.7583  0.6025 -0.1643
 1018MOL0     H34369   6.907   3.211   1.525 -1.6478 -0.4558  2.5687
 1018MOL0     H34370   6.854   2.949   1.395  2.5404 -0.4148 -1.3931
 1018MOL0     H34371   6.798   2.972   1.561  0.4334  1.6253  1.1470
 1018MOL0     H34372   7.082   3.048   1.536 -0.0226  0.2950  0.2763
 1018MOL0     H34373   6.995   2.964   1.655 -0.3182 -2.0256 -0.3812
 1018MOL0     H34374   7.192   2.676   1.429  1.5753  1.0360 -0.0159
 1018MOL0     H34375   6.484   3.358   1.448 -0.9826  1.6082  0.4064
 1018MOL0     H34376   6.247   3.401   1.506  0.5053  1.1420 -0.9173
 1019MOL0     O34377   0.056   8.831  10.371  0.0706  0.1237 -0.4377
 1019MOL0     C34378   0.118   8.917  10.429 -0.2420 -0.4540 -0.1432
 1019MOL0     O34379   0.081   8.993  10.537  0.2288 -0.1792  0.1553
 1019MOL0     C34380  -0.029   8.968  10.608 -0.2341 -0.5309  0.1750
 1019MOL0     C34381  -0.038   9.043  10.728 -0.3938 -1.1178  0.2986
 1019MOL0     C34382  -0.159   9.048  10.804 -0.4233 -0.4102  0.3489
 1019MOL0     C34383  -0.268   8.967  10.767 -0.6929  0.2742  0.4892
 1019MOL0     O34384  -0.386   8.968  10.833 -0.5658  0.3525 -0.2607
 1019MOL0     C34385  -0.389   9.026  10.960  0.4457  0.5422  0.2963
 1019MOL0     C34386  -0.532   9.011  11.017 -0.1921  0.0617 -0.1918
 1019MOL0     C34387  -0.541   9.063  11.165 -0.9919  0.5561 -0.1683
 1019MOL0     C34388  -0.694   9.078  11.205 -0.7760 -0.1871  0.7933
 1019MOL0     C34389  -0.715   9.110  11.353 -0.6458 -0.4596  0.2081
 1019MOL0     C34390  -0.667   9.251  11.390  0.3682 -0.4989 -0.2916
 1019MOL0     C34391  -0.692   9.283  11.535  0.3358  0.4111  0.1564
 1019MOL0     C34392  -0.643   9.413  11.585 -0.5480 -0.8057  0.3630
 1019MOL0     N34393  -0.496   9.432  11.554  0.5512  0.2887 -0.4875
 1019MOL0     C34394  -0.387   9.366  11.609 -0.1198 -0.2760  0.3429
 1019MOL0     C34395  -0.278   9.422  11.559  0.0084 -0.1055 -0.4965
 1019MOL0     C34396  -0.147   9.365  11.589  0.5664 -0.2137 -0.6222
 1019MOL0     C34397  -0.036   9.467  11.567  0.0710 -1.0636  0.8468
 1019MOL0     C34398   0.094   9.400  11.578 -0.7486  0.2407 -0.0563
 1019MOL0     C34399   0.139   9.300  11.463  0.5573 -1.1031 -0.3970
 1019MOL0     O34400   0.267   9.250  11.483 -1.3827  0.9202 -0.1428
 1019MOL0     C34401   0.375   9.328  11.440 -0.2433  0.5473 -0.4869
 1019MOL0     C34402   0.372   9.460  11.390  0.1741 -1.1484 -0.0047
 1019MOL0     C34403   0.493   9.531  11.363 -0.5377 -0.3477  0.0932
 1019MOL0     C34404   0.613   9.462  11.362 -0.1933  0.4280  0.1619
 1019MOL0     C34405   0.736   9.505  11.282  0.3936 -0.6859 -0.2484
 1019MOL0     O34406   0.855   9.450  11.313 -0.1247 -0.6017  0.6883
 1019MOL0     C34407   0.961   9.487  11.237 -0.4804  0.3428 -0.1874
 1019MOL0     C34408   0.987   9.433  11.112 -0.0697 -0.7090  0.1977
 1019MOL0     C34409   1.098   9.469  11.033  0.3872  0.4468  0.5091
 1019MOL0     C34410   1.196   9.556  11.083  0.7128  0.8829  0.6207
 1019MOL0     O34411   1.304   9.580  10.998 -0.1392 -0.2129  0.0797
 1019MOL0     C34412   1.399   9.684  11.041  0.5678 -0.1670 -0.2942
 1019MOL0     C34413   1.488   9.694  10.913  0.4462 -0.2721  0.1951
 1019MOL0     C34414   1.605   9.789  10.941  0.9717  0.3405  0.0103
 1019MOL0     C34415   1.700   9.796  10.832 -1.2124  0.9643  0.4715
 1019MOL0     C34416   1.770   9.926  10.819  0.1128 -0.1768 -0.6616
 1019MOL0     C34417   1.882   9.929  10.717 -0.8872  0.5358 -0.4235
 1019MOL0     C34418   1.939  10.074  10.723  0.5373  0.9473  0.5187
 1019MOL0     C34419   2.027  10.095  10.848  0.2240  0.8647  0.3016
 1019MOL0    Cl34420   2.148  10.221  10.821  0.0453 -0.5015 -0.2301
 1019MOL0     C34421   1.179   9.604  11.209 -0.1175 -0.3162 -0.5081
 1019MOL0     C34422   1.063   9.580  11.285  0.6154  0.7046 -0.9656
 1019MOL0     O34423   0.719   9.590  11.195  0.3007 -0.3976 -0.0958
 1019MOL0     C34424   0.609   9.328  11.398  0.6497  0.9420 -0.0550
 1019MOL0     C34425   0.492   9.261  11.436  0.8969 -1.1912 -0.6953
 1019MOL0     N34426  -0.311   9.512  11.464  0.1422  0.7885 -0.0485
 1019MOL0     N34427  -0.442   9.515  11.459 -0.3930  0.0038 -0.0962
 1019MOL0     C34428  -0.262   8.892  10.654  0.1406 -0.7103 -0.1922
 1019MOL0     C34429  -0.144   8.896  10.577  0.5000 -1.2251 -0.2771
 1019MOL0     C34430   0.254   8.955  10.374  0.4840 -0.4394  0.0249
 1019MOL0     C34431   0.296   8.920  10.248  0.7296  0.2135  0.2270
 1019MOL0     C34432   0.417   8.967  10.193  0.2136 -0.8944  0.3252
 1019MOL0     C34433   0.499   9.048  10.270  0.2524 -0.3169  0.2230
 1019MOL0     O34434   0.610   9.093  10.211 -0.5589  0.0218  0.5491
 1019MOL0     C34435   0.662   9.218  10.251  1.0194 -0.0848  0.1200
 1019MOL0     C34436   0.755   9.272  10.144  0.3498 -0.8930  0.1068
 1019MOL0     C34437   0.886   9.201  10.158 -0.0041 -0.3319 -0.4169
 1019MOL0     C34438   1.007   9.288  10.110 -0.0797 -0.5406 -0.0917
 1019MOL0     C34439   1.124   9.211  10.092 -0.1676 -0.3243  0.6266
 1019MOL0     C34440   1.209   9.120  10.078  0.0933 -0.0606 -0.3069
 1019MOL0     C34441   0.460   9.089  10.399 -0.5969  0.1161  0.4185
 1019MOL0     C34442   0.336   9.041  10.444 -0.1748  0.2197 -0.6042
 1019MOL0     H34443   0.045   9.102  10.766 -0.8205 -0.6568  0.5175
 1019MOL0     H34444  -0.148   9.114  10.890  1.6911  0.6888 -0.6788
 1019MOL0     H34445  -0.362   9.132  10.962  0.1580  0.6059  1.0809
 1019MOL0     H34446  -0.315   8.977  11.024  2.0166 -0.3941 -2.1065
 1019MOL0     H34447  -0.568   8.908  11.012 -1.4693  0.0205  4.9254
 1019MOL0     H34448  -0.599   9.071  10.954 -2.3339 -0.0902  1.8138
 1019MOL0     H34449  -0.486   9.157  11.172  0.7841 -0.1216 -3.2082
 1019MOL0     H34450  -0.492   8.996  11.237 -1.9283  0.9018  0.8225
 1019MOL0     H34451  -0.742   9.151  11.139  0.0536  0.8139  1.2723
 1019MOL0     H34452  -0.744   8.982  11.187 -0.3997 -0.4002  0.8668
 1019MOL0     H34453  -0.657   9.042  11.416  3.8656  2.4603 -0.3088
 1019MOL0     H34454  -0.821   9.110  11.379 -0.2404 -0.5743  1.9396
 1019MOL0     H34455  -0.718   9.318  11.320  2.3228 -0.4164 -1.7391
 1019MOL0     H34456  -0.559   9.247  11.369  0.4082 -0.5990 -0.0623
 1019MOL0     H34457  -0.799   9.281  11.560  0.4757 -0.4401  0.7657
 1019MOL0     H34458  -0.642   9.207  11.597  0.1918  0.7512  0.6957
 1019MOL0     H34459  -0.659   9.427  11.692 -0.1204  1.8611  0.1506
 1019MOL0     H34460  -0.701   9.485  11.526  2.2830 -0.3966 -2.2267
 1019MOL0     H34461  -0.389   9.287  11.683 -0.7905 -3.4572 -2.7605
 1019MOL0     H34462  -0.132   9.275  11.530 -4.2062 -1.1221 -0.8422
 1019MOL0     H34463  -0.142   9.342  11.696  1.5984  1.7918 -0.1829
 1019MOL0     H34464  -0.043   9.551  11.637 -2.5394 -0.2569 -0.2467
 1019MOL0     H34465  -0.044   9.505  11.465 -2.2568  0.1205  1.3982
 1019MOL0     H34466   0.177   9.471  11.575 -0.5438  0.1024  1.3173
 1019MOL0     H34467   0.093   9.352  11.677 -0.2770 -1.6233 -0.9205
 1019MOL0     H34468   0.146   9.345  11.363 -1.6890 -1.0454 -0.5657
 1019MOL0     H34469   0.075   9.212  11.460  0.2630 -1.2582  4.0122
 1019MOL0     H34470   0.278   9.512  11.377  1.1347  0.2286 -2.0878
 1019MOL0     H34471   0.503   9.635  11.334 -3.0027  0.0655  0.5357
 1019MOL0     H34472   0.910   9.369  11.069  0.2322 -0.5259 -0.6256
 1019MOL0     H34473   1.119   9.413  10.943  1.5867  0.6776  0.6242
 1019MOL0     H34474   1.453   9.658  11.132 -2.2132  1.0978  1.8298
 1019MOL0     H34475   1.352   9.780  11.063  1.1652  0.1106 -0.2121
 1019MOL0     H34476   1.426   9.739  10.836  1.5544 -1.7622 -1.6570
 1019MOL0     H34477   1.527   9.593  10.894  1.5428  0.0673  0.5473
 1019MOL0     H34478   1.659   9.773  11.035 -0.5315 -1.0107  0.6827
 1019MOL0     H34479   1.563   9.887  10.967 -0.3431 -0.7999  2.4712
 1019MOL0     H34480   1.781   9.725  10.851  2.7219  4.3132 -2.0003
 1019MOL0     H34481   1.647   9.773  10.739  0.9739 -0.3351 -0.5414
 1019MOL0     H34482   1.815   9.938  10.918 -1.9627 -2.6099  0.7061
 1019MOL0     H34483   1.695  10.004  10.800 -0.4447 -0.0416  1.7089
 1019MOL0     H34484   1.849   9.892  10.619 -0.4469 -0.3082 -0.2633
 1019MOL0     H34485   1.961   9.858  10.745  1.1221  2.1833 -1.5417
 1019MOL0     H34486   2.000  10.085  10.633 -1.0815  1.5773 -0.5539
 1019MOL0     H34487   1.863  10.153  10.716  1.3373  1.9021  2.1519
 1019MOL0     H34488   2.080  10.002  10.868  1.8401  1.6938  0.0389
 1019MOL0     H34489   1.969  10.127  10.935 -0.3266  3.1823 -0.8234
 1019MOL0     H34490   1.252   9.667  11.258  1.1692 -0.7501 -1.8052
 1019MOL0     H34491   1.041   9.637  11.374  3.5657  1.3252 -0.5303
 1019MOL0     H34492   0.697   9.265  11.394  0.1951  0.2884  0.0858
 1019MOL0     H34493   0.479   9.156  11.461 -1.0808 -1.1940 -1.5222
 1019MOL0     H34494  -0.342   8.822  10.631 -0.7191  0.7423 -1.8271
 1019MOL0     H34495  -0.154   8.843  10.483 -1.3066  0.0996 -0.9148
 1019MOL0     H34496   0.243   8.842  10.194  3.4781 -3.3256  2.1971
 1019MOL0     H34497   0.448   8.932  10.096  0.6893 -0.5730  0.3554
 1019MOL0     H34498   0.711   9.218  10.349 -1.7240 -0.6444  1.5876
 1019MOL0     H34499   0.578   9.288  10.259  0.5448 -0.4504 -1.4142
 1019MOL0     H34500   0.711   9.273  10.044  0.0160  0.0530  0.2521
 1019MOL0     H34501   0.769   9.376  10.173 -2.4239 -0.4718  0.2257
 1019MOL0     H34502   0.881   9.111  10.096  1.0243 -0.5827 -0.1501
 1019MOL0     H34503   0.902   9.179  10.264 -1.4304  2.0691  0.3944
 1019MOL0     H34504   0.985   9.334  10.013 -0.8302  1.3017  0.9026
 1019MOL0     H34505   1.012   9.359  10.193  2.4393 -2.0459  1.1390
 1019MOL0     H34506   1.281   9.041  10.072  1.2105  1.0487 -3.2520
 1019MOL0     H34507   0.510   9.159  10.465 -0.7347 -0.3323  0.9997
 1019MOL0     H34508   0.304   9.085  10.538  0.2522  3.4280 -1.8202
 1020MOL0     O34509   9.520   1.152   8.480  0.3987 -0.5061 -0.1911
 1020MOL0     C34510   9.494   1.251   8.554 -0.8787  0.2321  0.4178
 1020MOL0     O34511   9.407   1.261   8.650  0.1061  0.4732 -0.7293
 1020MOL0     C34512   9.318   1.160   8.685  0.0015 -1.1586  0.0463
 1020MOL0     C34513   9.344   1.020   8.676 -0.2262  0.3086  0.4198
 1020MOL0     C34514   9.241   0.929   8.722  0.1485 -0.0390  0.4924
 1020MOL0     C34515   9.116   0.980   8.772 -0.0594 -0.8911  0.2899
 1020MOL0     O34516   9.022   0.880   8.789 -0.4586  0.3717  0.1740
 1020MOL0     C34517   8.942   0.888   8.912  0.3184 -0.2083  0.7717
 1020MOL0     C34518   8.795   0.891   8.872  0.1722 -0.7000 -0.0245
 1020MOL0     C34519   8.717   0.808   8.972  0.3852  0.0629  0.8525
 1020MOL0     C34520   8.570   0.820   8.922 -0.3115 -0.4865 -1.4775
 1020MOL0     C34521   8.477   0.762   9.024  0.0058  0.0982 -0.2983
 1020MOL0     C34522   8.332   0.783   8.975  0.0941  0.0868  0.1571
 1020MOL0     C34523   8.229   0.788   9.094  0.3560  0.4902 -0.9959
 1020MOL0     C34524   8.191   0.931   9.130  0.5166  0.3117  0.2795
 1020MOL0     N34525   8.103   0.995   9.031 -0.3294  0.2078 -0.5030
 1020MOL0     C34526   8.006   0.944   8.955 -0.0436  0.6115  1.0805
 1020MOL0     C34527   7.970   1.052   8.877  0.4075 -0.2163 -0.8437
 1020MOL0     C34528   7.855   1.058   8.788 -0.0118  0.3719 -0.2829
 1020MOL0     C34529   7.726   0.985   8.840 -0.1815 -0.2735  1.0662
 1020MOL0     C34530   7.625   1.075   8.903  0.3913  0.8045 -0.5432
 1020MOL0     C34531   7.485   1.011   8.886 -0.5028 -0.2354 -0.4270
 1020MOL0     O34532   7.442   1.028   8.753 -0.4359  0.1270 -0.4367
 1020MOL0     C34533   7.320   0.972   8.718  0.6304  0.0934 -0.5973
 1020MOL0     C34534   7.247   0.881   8.780  0.6268  0.0030  0.3120
 1020MOL0     C34535   7.123   0.840   8.730 -0.2250  0.3604 -0.1204
 1020MOL0     C34536   7.068   0.902   8.615 -0.0177 -0.2871  0.2057
 1020MOL0     C34537   6.942   0.860   8.561 -0.5133  0.5062 -0.4549
 1020MOL0     O34538   6.856   0.810   8.650 -0.3309 -0.0952 -0.3096
 1020MOL0     C34539   6.735   0.755   8.620 -0.2548 -0.7697  1.0576
 1020MOL0     C34540   6.666   0.748   8.492 -0.0537 -0.1581 -0.1502
 1020MOL0     C34541   6.545   0.675   8.483  1.0611 -0.7522  0.6215
 1020MOL0     C34542   6.491   0.611   8.596 -0.6736  0.5818  0.3787
 1020MOL0     O34543   6.376   0.544   8.586  0.5368  0.0731  1.1404
 1020MOL0     C34544   6.306   0.475   8.696 -0.7642  0.2336 -0.1077
 1020MOL0     C34545   6.169   0.444   8.642 -0.2678  0.1334  0.3085
 1020MOL0     C34546   6.089   0.578   8.619  0.1798  0.0815  0.7270
 1020MOL0     C34547   5.939   0.553   8.596  0.4231 -0.2755 -0.4353
 1020MOL0     C34548   5.863   0.673   8.546 -0.5120  0.5181 -0.1405
 1020MOL0     C34549   5.717   0.647   8.564 -0.4873  0.2242 -0.4304
 1020MOL0     C34550   5.630   0.776   8.539 -0.0939  0.2968  0.2888
 1020MOL0     C34551   5.483   0.748   8.544  0.2119 -0.3027  0.6074
 1020MOL0    Cl34552   5.443   0.668   8.698  0.1497 -0.2395  0.2165
 1020MOL0     C34553   6.561   0.611   8.722  0.0078 -0.3933  0.8485
 1020MOL0     C34554   6.677   0.685   8.723 -0.9774 -0.5176  0.3199
 1020MOL0     O34555   6.927   0.855   8.436  1.1752 -0.1371 -0.0065
 1020MOL0     C34556   7.149   0.996   8.547  0.1299  0.1985  0.1174
 1020MOL0     C34557   7.270   1.035   8.602  0.5547 -0.4349 -0.0703
 1020MOL0     N34558   8.038   1.161   8.921 -0.2154  0.6677 -0.4543
 1020MOL0     N34559   8.130   1.120   9.003  0.0476  0.1039  1.4639
 1020MOL0     C34560   9.099   1.112   8.795 -0.2094  0.5363 -0.0511
 1020MOL0     C34561   9.199   1.198   8.756 -0.2264 -0.2073  0.9387
 1020MOL0     C34562   9.585   1.372   8.524  0.8015  0.5656 -0.4016
 1020MOL0     C34563   9.706   1.365   8.459 -0.5747  0.3876 -0.2481
 1020MOL0     C34564   9.794   1.471   8.443  0.1203  0.5777  0.3309
 1020MOL0     C34565   9.751   1.598   8.491 -0.2727  0.7945  0.5908
 1020MOL0     O34566   9.823   1.711   8.468 -0.3335 -0.1642 -0.3345
 1020MOL0     C34567   9.945   1.693   8.395 -0.2928 -0.2709  0.1985
 1020MOL0     C34568  10.013   1.834   8.414 -0.6167 -0.1345 -0.7550
 1020MOL0     C34569  10.165   1.833   8.375 -0.1598 -0.1976 -0.3498
 1020MOL0     C34570  10.221   1.976   8.381  0.5274 -0.5213  0.0799
 1020MOL0     C34571  10.218   2.047   8.510  0.6229  0.1303 -0.4410
 1020MOL0     C34572  10.232   2.108   8.615  0.1026 -0.5863 -0.0493
 1020MOL0     C34573   9.627   1.607   8.560 -0.1026  0.1341  0.2957
 1020MOL0     C34574   9.548   1.493   8.577  0.4329  0.3153  1.4627
 1020MOL0     H34575   9.438   0.977   8.641 -0.3985 -0.1651  0.5270
 1020MOL0     H34576   9.255   0.821   8.717 -0.0301 -0.0114 -1.1628
 1020MOL0     H34577   8.972   0.979   8.964  1.3622  0.2050 -0.4761
 1020MOL0     H34578   8.962   0.799   8.972  1.2150 -0.9516 -0.5691
 1020MOL0     H34579   8.786   0.857   8.769 -0.3623  1.0157 -0.5742
 1020MOL0     H34580   8.761   0.995   8.874  0.3648 -0.6200  2.2596
 1020MOL0     H34581   8.747   0.845   9.071  3.1821 -0.5791  0.3358
 1020MOL0     H34582   8.751   0.704   8.964 -1.0322 -0.5169  1.9780
 1020MOL0     H34583   8.553   0.927   8.908  5.0816  1.0901  1.1782
 1020MOL0     H34584   8.556   0.767   8.827 -0.9193 -3.3312  0.0642
 1020MOL0     H34585   8.486   0.826   9.112 -1.5670 -1.5833  1.1816
 1020MOL0     H34586   8.503   0.658   9.048  1.7843 -0.3366 -3.4733
 1020MOL0     H34587   8.303   0.697   8.914  0.2309  0.8184 -0.9705
 1020MOL0     H34588   8.320   0.872   8.911  0.7789 -0.0285 -0.1381
 1020MOL0     H34589   8.140   0.732   9.066  0.6933  0.3434 -1.8039
 1020MOL0     H34590   8.272   0.741   9.183  0.9915  3.1470  0.2119
 1020MOL0     H34591   8.283   0.981   9.160  0.7698 -1.5719  3.0267
 1020MOL0     H34592   8.137   0.930   9.226  0.0096 -0.8416  0.0022
 1020MOL0     H34593   7.960   0.845   8.949 -0.8585  1.0329 -3.7808
 1020MOL0     H34594   7.888   1.017   8.692  1.4055  2.0825 -0.5820
 1020MOL0     H34595   7.825   1.162   8.769 -2.5451 -0.4096 -0.9702
 1020MOL0     H34596   7.756   0.899   8.900  1.6003  0.6181  1.5452
 1020MOL0     H34597   7.679   0.944   8.751  0.1591  0.1115  0.7037
 1020MOL0     H34598   7.644   1.087   9.010 -2.7907  1.2820  0.0560
 1020MOL0     H34599   7.622   1.175   8.859  3.1282  0.4642 -1.7440
 1020MOL0     H34600   7.414   1.062   8.952  0.5603 -0.9134  1.2991
 1020MOL0     H34601   7.499   0.907   8.915  1.1536  0.2352  0.5582
 1020MOL0     H34602   7.270   0.831   8.874 -1.9298  0.0804  1.0479
 1020MOL0     H34603   7.071   0.760   8.782  2.6740 -0.4806  1.7440
 1020MOL0     H34604   6.701   0.780   8.395  0.8402  1.1908  0.5780
 1020MOL0     H34605   6.493   0.658   8.389  3.3963  0.0970 -0.9098
 1020MOL0     H34606   6.301   0.544   8.781 -1.0826  0.8972 -0.6553
 1020MOL0     H34607   6.357   0.384   8.729  2.2553  2.8995  3.4435
 1020MOL0     H34608   6.122   0.383   8.719 -0.3285  0.6098  0.6552
 1020MOL0     H34609   6.183   0.390   8.548  1.7224  3.0396 -1.2346
 1020MOL0     H34610   6.131   0.636   8.537  0.8408  1.6387  2.0971
 1020MOL0     H34611   6.112   0.634   8.710 -0.2395  0.7418  0.4353
 1020MOL0     H34612   5.921   0.478   8.519  1.2690 -0.9336 -0.0155
 1020MOL0     H34613   5.894   0.519   8.690  2.1071 -0.1592  0.4576
 1020MOL0     H34614   5.867   0.694   8.439  0.2897 -0.3202 -0.2858
 1020MOL0     H34615   5.894   0.753   8.614  0.7235 -0.9931  1.1750
 1020MOL0     H34616   5.700   0.606   8.664  0.0432 -1.4810 -1.0151
 1020MOL0     H34617   5.682   0.579   8.486  0.5896  0.5293 -1.1991
 1020MOL0     H34618   5.664   0.848   8.613 -2.3960  0.9088  0.8422
 1020MOL0     H34619   5.659   0.813   8.440 -1.3121 -1.4586 -0.7891
 1020MOL0     H34620   5.441   0.688   8.463  2.1619 -0.7337 -0.1490
 1020MOL0     H34621   5.427   0.842   8.551 -2.9679 -2.1710  2.5249
 1020MOL0     H34622   6.532   0.561   8.813  2.3559 -0.5727  1.5579
 1020MOL0     H34623   6.740   0.668   8.809  2.2938 -0.2245 -1.8371
 1020MOL0     H34624   7.121   1.041   8.453  0.6959  0.6815  0.1717
 1020MOL0     H34625   7.335   1.103   8.549 -1.5204  0.2190 -1.9500
 1020MOL0     H34626   9.004   1.156   8.825  0.1371  0.0916  1.8394
 1020MOL0     H34627   9.194   1.305   8.777  2.6700 -0.4077  3.2369
 1020MOL0     H34628   9.738   1.265   8.429 -0.2003 -0.7416  3.3919
 1020MOL0     H34629   9.891   1.446   8.401  1.2047  0.3840  2.8021
 1020MOL0     H34630   9.928   1.655   8.294 -3.3697  1.2143  0.0588
 1020MOL0     H34631  10.008   1.614   8.437  0.0793 -1.7291 -2.8264
 1020MOL0     H34632   9.958   1.897   8.343  0.4137  1.2089 -0.3972
 1020MOL0     H34633   9.997   1.872   8.515  0.0203 -4.5359  1.2341
 1020MOL0     H34634  10.174   1.789   8.275 -0.1334  0.5509 -0.6796
 1020MOL0     H34635  10.228   1.772   8.441 -0.8629 -0.0385  0.4859
 1020MOL0     H34636  10.323   1.965   8.341  0.3427 -2.2997  0.0177
 1020MOL0     H34637  10.173   2.040   8.306  1.1376 -0.7973 -0.5487
 1020MOL0     H34638  10.246   2.164   8.705  0.0933 -1.5206  0.5475
 1020MOL0     H34639   9.581   1.692   8.608  2.6199  0.0534  3.3092
 1020MOL0     H34640   9.452   1.503   8.628 -1.3582  0.7107 -1.7318
 1021MOL0     O34641   4.922   3.570  11.185 -0.9133 -0.1958  0.1506
 1021MOL0     C34642   4.947   3.455  11.207 -0.0023  0.1070 -0.5906
 1021MOL0     O34643   4.908   3.388  11.318 -0.1808 -0.2503  0.5842
 1021MOL0     C34644   4.820   3.449  11.407  0.7047  0.0559 -0.3846
 1021MOL0     C34645   4.689   3.499  11.376  0.3281  0.3522 -0.2480
 1021MOL0     C34646   4.601   3.539  11.478  0.4382 -0.7129  0.1202
 1021MOL0     C34647   4.637   3.540  11.609  0.3474  0.3391  0.3916
 1021MOL0     O34648   4.539   3.588  11.686  0.5983 -0.1687 -0.4643
 1021MOL0     C34649   4.524   3.526  11.813 -0.2826 -0.3893  0.7414
 1021MOL0     C34650   4.481   3.598  11.932 -0.4175  0.3295 -0.7115
 1021MOL0     C34651   4.336   3.646  11.941  0.2256 -0.6522  0.2530
 1021MOL0     C34652   4.276   3.724  11.817  0.0048  0.3560  0.0722
 1021MOL0     C34653   4.133   3.774  11.843 -0.2904  0.5786 -0.1247
 1021MOL0     C34654   4.036   3.668  11.919 -0.4747  0.3877  0.2761
 1021MOL0     C34655   4.030   3.534  11.843  0.0958  0.1030 -0.5729
 1021MOL0     C34656   3.907   3.454  11.892  0.0246  0.2718  0.3304
 1021MOL0     N34657   3.783   3.518  11.846  0.4650 -0.1870  0.3782
 1021MOL0     C34658   3.712   3.510  11.722  0.3140 -0.3517 -0.6526
 1021MOL0     C34659   3.584   3.540  11.759  0.1214 -0.5637 -0.0097
 1021MOL0     C34660   3.482   3.585  11.664  0.3381  0.7087 -0.1009
 1021MOL0     C34661   3.362   3.484  11.643  0.2626  0.0859 -0.0597
 1021MOL0     C34662   3.278   3.462  11.775  0.2413 -0.2073 -0.4520
 1021MOL0     C34663   3.161   3.368  11.746  0.7157  0.0972 -0.0415
 1021MOL0     O34664   3.058   3.436  11.666 -0.0756 -0.2510 -0.0039
 1021MOL0     C34665   2.936   3.360  11.666 -1.1144 -0.1480  0.2183
 1021MOL0     C34666   2.827   3.428  11.706  0.6859  0.8438 -0.9862
 1021MOL0     C34667   2.707   3.362  11.739 -0.4173  0.5515  0.0025
 1021MOL0     C34668   2.696   3.228  11.709  0.0903 -0.2986 -0.2533
 1021MOL0     C34669   2.568   3.162  11.743 -1.1947 -0.2364 -0.2027
 1021MOL0     O34670   2.462   3.241  11.771  0.2188  0.0208 -0.9489
 1021MOL0     C34671   2.350   3.173  11.820  0.0660 -0.3721 -0.1062
 1021MOL0     C34672   2.348   3.086  11.930  0.6441  0.2051  0.0318
 1021MOL0     C34673   2.225   3.028  11.966 -0.4598  0.3012  0.5858
 1021MOL0     C34674   2.096   3.057  11.895  0.1797 -0.7688  0.4057
 1021MOL0     O34675   1.978   3.002  11.935  0.1217 -0.3159  0.1278
 1021MOL0     C34676   1.984   2.874  11.996  0.2937 -0.1338  0.0103
 1021MOL0     C34677   1.860   2.809  11.947  0.2008 -0.0382 -0.6900
 1021MOL0     C34678   1.842   2.674  12.004 -0.1224  0.1881 -0.3725
 1021MOL0     C34679   1.712   2.602  11.968  0.6141 -0.4544  0.4584
 1021MOL0     C34680   1.719   2.464  12.023 -0.1296  0.3190 -0.7810
 1021MOL0     C34681   1.600   2.382  11.969 -0.5426 -1.0329  1.3399
 1021MOL0     C34682   1.619   2.241  12.010  0.8764  0.7059 -0.7440
 1021MOL0     C34683   1.505   2.148  11.965 -0.4701 -0.4460  0.0078
 1021MOL0    Cl34684   1.359   2.195  12.059 -0.2045  0.2501 -0.0013
 1021MOL0     C34685   2.110   3.137  11.787  0.0156  0.5502  0.8930
 1021MOL0     C34686   2.233   3.184  11.750 -0.3868  1.2865 -0.2727
 1021MOL0     O34687   2.578   3.041  11.749  0.2955  0.7428  0.3376
 1021MOL0     C34688   2.812   3.162  11.658  0.7623  0.4089 -0.2310
 1021MOL0     C34689   2.931   3.224  11.631  0.0204 -0.6138 -0.2740
 1021MOL0     N34690   3.580   3.580  11.895 -0.9941  0.0698  0.1120
 1021MOL0     N34691   3.702   3.570  11.945  0.0530  0.2083 -0.2836
 1021MOL0     C34692   4.768   3.493  11.639  0.4810  0.5537 -0.4131
 1021MOL0     C34693   4.855   3.446  11.539 -0.2286 -0.2471  0.5697
 1021MOL0     C34694   5.031   3.387  11.112 -0.0027  0.8724  0.6581
 1021MOL0     C34695   5.088   3.258  11.144 -0.2987 -0.1428 -0.9433
 1021MOL0     C34696   5.154   3.187  11.040  0.0275  0.2175  0.3905
 1021MOL0     C34697   5.175   3.238  10.912  0.5377 -0.0520 -1.0142
 1021MOL0     O34698   5.241   3.165  10.822 -0.1256  0.4190 -0.2547
 1021MOL0     C34699   5.376   3.138  10.870  0.5753  0.6652  0.0527
 1021MOL0     C34700   5.470   3.251  10.824  0.4744 -0.4987 -0.2070
 1021MOL0     C34701   5.608   3.234  10.874  0.4579  0.4315 -0.2519
 1021MOL0     C34702   5.688   3.339  10.802  0.0053  0.8481  0.5435
 1021MOL0     C34703   5.823   3.346  10.848 -0.2846  0.4826 -0.1141
 1021MOL0     C34704   5.939   3.345  10.888  0.1091  0.8263  0.1011
 1021MOL0     C34705   5.119   3.365  10.883  0.1988  0.0003  0.0519
 1021MOL0     C34706   5.047   3.437  10.976 -0.6637 -1.1871 -0.7486
 1021MOL0     H34707   4.652   3.503  11.274  0.5653  1.0492 -0.3163
 1021MOL0     H34708   4.514   3.596  11.447  0.7706  0.5216  1.3500
 1021MOL0     H34709   4.605   3.459  11.841  0.3773 -0.4940 -1.2358
 1021MOL0     H34710   4.433   3.470  11.787 -1.2643  1.0505  0.9666
 1021MOL0     H34711   4.547   3.684  11.943  1.3337 -1.1389  0.7851
 1021MOL0     H34712   4.505   3.527  12.012  0.5161  0.2314 -1.0686
 1021MOL0     H34713   4.329   3.704  12.034  1.3574  1.2432 -0.7972
 1021MOL0     H34714   4.281   3.551  11.949  0.6462 -0.9380 -0.1652
 1021MOL0     H34715   4.348   3.800  11.785  2.2323 -1.9077 -0.5675
 1021MOL0     H34716   4.266   3.644  11.743 -2.5507  0.6957 -0.0557
 1021MOL0     H34717   4.081   3.803  11.751  0.7618  1.8334 -0.3550
 1021MOL0     H34718   4.134   3.867  11.901  1.1861 -0.7447  2.0833
 1021MOL0     H34719   3.935   3.711  11.920 -0.8186 -0.4035  0.2730
 1021MOL0     H34720   4.063   3.643  12.022 -2.0922 -1.9537  0.2056
 1021MOL0     H34721   4.009   3.562  11.739 -4.6380  1.3436  0.4859
 1021MOL0     H34722   4.119   3.470  11.853 -2.4042 -3.5576  0.1644
 1021MOL0     H34723   3.905   3.443  12.001  0.0226 -0.3873  0.2644
 1021MOL0     H34724   3.914   3.352  11.854  0.2942 -0.4622  2.2115
 1021MOL0     H34725   3.748   3.495  11.621 -0.5340 -0.6772 -0.9158
 1021MOL0     H34726   3.525   3.618  11.569  0.8195 -0.9884 -0.5003
 1021MOL0     H34727   3.430   3.673  11.702  1.3745  1.1604  0.3121
 1021MOL0     H34728   3.405   3.389  11.610  0.3150 -0.3562  1.2182
 1021MOL0     H34729   3.296   3.537  11.573  1.2326  2.1017  0.4700
 1021MOL0     H34730   3.347   3.424  11.852  1.3571 -1.1121 -1.8376
 1021MOL0     H34731   3.247   3.560  11.811  3.1001  0.0460  1.6357
 1021MOL0     H34732   3.124   3.329  11.841  1.6999 -0.0441  0.2968
 1021MOL0     H34733   3.188   3.276  11.692 -0.4636 -0.1469 -0.2336
 1021MOL0     H34734   2.840   3.532  11.732 -0.0868  0.9893 -1.1601
 1021MOL0     H34735   2.614   3.408  11.770 -2.5032 -1.4852 -2.7132
 1021MOL0     H34736   2.440   3.077  11.987  1.1696  2.1351 -0.4287
 1021MOL0     H34737   2.229   2.960  12.051 -1.2574 -1.3909 -0.6751
 1021MOL0     H34738   1.977   2.877  12.105  1.6203  0.0876  0.1055
 1021MOL0     H34739   2.080   2.826  11.975  0.9165  1.8599 -2.1745
 1021MOL0     H34740   1.860   2.816  11.837 -0.4851  0.4862 -0.6639
 1021MOL0     H34741   1.778   2.868  11.988 -0.4070 -1.6549  0.5111
 1021MOL0     H34742   1.836   2.686  12.113  3.1334  0.8764 -0.1717
 1021MOL0     H34743   1.926   2.607  11.981  0.1517 -0.3096  1.8029
 1021MOL0     H34744   1.627   2.664  11.998 -0.4012 -0.7655 -1.5919
 1021MOL0     H34745   1.702   2.609  11.859  0.3542  1.1624  0.5630
 1021MOL0     H34746   1.716   2.466  12.133 -0.8047  3.1762 -0.7575
 1021MOL0     H34747   1.812   2.419  11.987  1.2876  1.3003  1.4241
 1021MOL0     H34748   1.597   2.397  11.861  0.1465  2.4746  1.6940
 1021MOL0     H34749   1.505   2.424  12.003 -0.5486 -0.1475  0.2878
 1021MOL0     H34750   1.712   2.197  11.973 -0.3572 -3.5317  0.7240
 1021MOL0     H34751   1.626   2.251  12.118 -1.7503  4.4921 -0.7280
 1021MOL0     H34752   1.534   2.043  11.962  0.5840 -0.1609 -0.3066
 1021MOL0     H34753   1.494   2.173  11.859  0.8191 -1.5211 -0.4034
 1021MOL0     H34754   2.028   3.143  11.717  0.3213  2.9098  0.6457
 1021MOL0     H34755   2.231   3.236  11.655 -0.3193 -1.0674 -1.6399
 1021MOL0     H34756   2.795   3.057  11.637 -2.4807  0.9039 -0.6168
 1021MOL0     H34757   3.011   3.155  11.604  1.5019  0.4407  1.2525
 1021MOL0     H34758   4.810   3.507  11.739 -0.0499  0.7469 -0.2116
 1021MOL0     H34759   4.954   3.413  11.568 -0.7712 -5.1836 -2.0080
 1021MOL0     H34760   5.073   3.212  11.242  1.0878 -2.4531 -1.7399
 1021MOL0     H34761   5.193   3.092  11.074 -0.9613  0.2109  1.5720
 1021MOL0     H34762   5.405   3.049  10.815  3.7193  0.6031  1.6193
 1021MOL0     H34763   5.392   3.120  10.977  1.4565 -0.3413 -0.2334
 1021MOL0     H34764   5.468   3.254  10.715  1.4016 -0.0754 -0.2222
 1021MOL0     H34765   5.431   3.344  10.867  1.0643 -0.8599  1.1858
 1021MOL0     H34766   5.647   3.138  10.840  0.9762  0.1288  1.1320
 1021MOL0     H34767   5.619   3.232  10.983 -0.2126  0.2428 -0.1787
 1021MOL0     H34768   5.698   3.330  10.693  0.0080  3.5518  0.2419
 1021MOL0     H34769   5.643   3.435  10.829 -0.2011  0.5599  1.2361
 1021MOL0     H34770   6.044   3.338  10.904  0.5670  0.2121 -2.5645
 1021MOL0     H34771   5.123   3.396  10.780  0.7770 -1.0657 -0.2624
 1021MOL0     H34772   4.991   3.525  10.946 -1.3249 -1.0294  0.8536
 1022MOL0     O34773   5.505  10.338  11.046  0.2357  0.0038  0.0923
 1022MOL0     C34774   5.573  10.278  11.129  0.7896  0.0199  0.5867
 1022MOL0     O34775   5.515  10.197  11.224  0.0460 -0.5174  0.3657
 1022MOL0     C34776   5.382  10.207  11.243  0.5404  1.1746 -0.5140
 1022MOL0     C34777   5.289  10.158  11.143  0.4859 -0.6342 -0.3785
 1022MOL0     C34778   5.146  10.151  11.161  0.0840  0.8564 -0.6060
 1022MOL0     C34779   5.095  10.192  11.285  0.3311 -0.2691  0.3651
 1022MOL0     O34780   4.956  10.207  11.306 -0.1388  0.0079  0.2201
 1022MOL0     C34781   4.862  10.155  11.220  0.9265 -0.1376  1.3508
 1022MOL0     C34782   4.723  10.193  11.262  0.5829  0.3724  0.6895
 1022MOL0     C34783   4.685  10.124  11.395  0.9475  0.7982 -0.1090
 1022MOL0     C34784   4.530  10.139  11.424  0.7885  1.0077 -0.4927
 1022MOL0     C34785   4.462  10.048  11.523  0.9699  0.4248  0.4785
 1022MOL0     C34786   4.512  10.062  11.671 -0.3552  0.0794  1.0005
 1022MOL0     C34787   4.424  10.002  11.769 -0.8058 -0.7697  0.3360
 1022MOL0     C34788   4.466  10.021  11.911 -0.1001  0.5644 -0.2079
 1022MOL0     N34789   4.604  10.039  11.944 -0.9083  0.5126 -0.2136
 1022MOL0     C34790   4.672  10.155  11.937 -0.0274  0.2657 -0.3613
 1022MOL0     C34791   4.801  10.125  11.972 -0.4202 -0.4375  0.5705
 1022MOL0     C34792   4.920  10.217  11.974 -0.1038  0.3728  0.0571
 1022MOL0     C34793   4.997  10.222  11.848  0.1905  0.4400  0.3027
 1022MOL0     C34794   5.092  10.096  11.836 -0.5979 -1.1766 -0.2376
 1022MOL0     C34795   5.214  10.116  11.941  0.5915 -0.3461  0.2234
 1022MOL0     O34796   5.326  10.030  11.898 -0.8393 -0.4312  0.4166
 1022MOL0     C34797   5.450  10.064  11.958  0.0260 -0.0318 -0.7850
 1022MOL0     C34798   5.460  10.140  12.079  1.0226 -0.3111  0.4776
 1022MOL0     C34799   5.578  10.168  12.142 -0.2555  0.2741 -0.4650
 1022MOL0     C34800   5.697  10.131  12.084  0.0927 -0.8108  0.1165
 1022MOL0     C34801   5.824  10.172  12.137 -0.7502  0.2604 -0.6735
 1022MOL0     O34802   5.929  10.109  12.082 -0.0877 -0.7254 -0.0409
 1022MOL0     C34803   6.058  10.120  12.132 -0.4330 -0.3525  0.0905
 1022MOL0     C34804   6.111  10.233  12.193 -0.1744 -0.1188 -0.3146
 1022MOL0     C34805   6.249  10.229  12.225 -0.1073 -0.1852  0.3600
 1022MOL0     C34806   6.343  10.135  12.187  0.0177 -0.6758 -0.5226
 1022MOL0     O34807   6.478  10.165  12.215 -0.1427 -0.1330  0.3327
 1022MOL0     C34808   6.579  10.085  12.145 -0.1325  0.7357 -0.3711
 1022MOL0     C34809   6.717  10.148  12.161 -0.5893  0.7885  0.5340
 1022MOL0     C34810   6.795  10.110  12.028 -0.2534 -0.1393 -0.3823
 1022MOL0     C34811   6.838   9.972  12.017  0.3389  0.7487 -0.1679
 1022MOL0     C34812   6.883   9.951  11.875 -0.2901  0.7042  0.0012
 1022MOL0     C34813   6.924   9.807  11.842 -0.0034 -0.0421 -0.6235
 1022MOL0     C34814   6.949   9.801  11.695  0.3651  0.6477 -0.1911
 1022MOL0     C34815   6.972   9.669  11.634 -0.1732  0.7056  0.3305
 1022MOL0    Cl34816   7.132   9.602  11.701  0.3484  0.1443 -0.2201
 1022MOL0     C34817   6.293  10.021  12.126 -0.7177  0.2537  0.5010
 1022MOL0     C34818   6.149  10.017  12.102  1.1084 -0.2968  0.1738
 1022MOL0     O34819   5.826  10.243  12.240  0.5360  0.7352  0.3066
 1022MOL0     C34820   5.693  10.054  11.968  0.4889  0.1342 -0.0630
 1022MOL0     C34821   5.575  10.018  11.906 -0.8494 -0.3946 -0.4389
 1022MOL0     N34822   4.803   9.993  12.011 -0.7801 -0.2441  0.4890
 1022MOL0     N34823   4.695   9.934  11.975 -0.1934 -0.0579 -0.2037
 1022MOL0     C34824   5.186  10.234  11.388 -0.2914  0.4667  0.0920
 1022MOL0     C34825   5.335  10.234  11.370  0.8387  0.1435 -0.3037
 1022MOL0     C34826   5.712  10.315  11.126  0.2235  0.7438 -0.9211
 1022MOL0     C34827   5.768  10.417  11.047 -0.3575  0.4244  0.1287
 1022MOL0     C34828   5.907  10.445  11.053 -0.4337 -0.5392 -0.0179
 1022MOL0     C34829   5.989  10.377  11.146 -1.1196 -0.6904 -0.4827
 1022MOL0     O34830   6.123  10.416  11.152 -0.8356  0.0348 -0.6421
 1022MOL0     C34831   6.194  10.409  11.280 -0.2459 -0.4944 -1.4373
 1022MOL0     C34832   6.134  10.529  11.358  0.3436  0.0083  0.5884
 1022MOL0     C34833   6.170  10.673  11.308  0.5931 -0.0088 -0.9750
 1022MOL0     C34834   6.111  10.777  11.413  0.1696  0.0120 -1.2448
 1022MOL0     C34835   5.964  10.764  11.441 -0.2030 -0.1974 -0.1670
 1022MOL0     C34836   5.849  10.765  11.471 -0.5730 -0.5330 -0.1731
 1022MOL0     C34837   5.934  10.282  11.235 -0.3699  0.6478  0.6463
 1022MOL0     C34838   5.795  10.253  11.225 -0.7410 -0.2721 -0.4250
 1022MOL0     H34839   5.328  10.138  11.044 -0.0067 -0.4635 -0.6090
 1022MOL0     H34840   5.084  10.111  11.081  1.1055 -2.8723  0.2623
 1022MOL0     H34841   4.863  10.047  11.200  1.9316  0.1189 -0.1307
 1022MOL0     H34842   4.870  10.191  11.117 -1.1691 -1.1724  0.7566
 1022MOL0     H34843   4.652  10.163  11.185 -2.0264  0.8903  2.7800
 1022MOL0     H34844   4.709  10.301  11.272 -1.9112  0.2943 -1.0725
 1022MOL0     H34845   4.750  10.166  11.472 -0.5687 -0.2618  1.8286
 1022MOL0     H34846   4.706  10.017  11.392  0.8070  0.7013  1.5948
 1022MOL0     H34847   4.509  10.242  11.454  0.2880  1.1948 -1.4218
 1022MOL0     H34848   4.478  10.125  11.328  0.4729 -0.6091 -0.1163
 1022MOL0     H34849   4.471   9.947  11.484 -1.1705  0.3827 -0.0136
 1022MOL0     H34850   4.354  10.068  11.528  0.9971  0.7272 -0.0889
 1022MOL0     H34851   4.504  10.168  11.696  1.8783  0.2225  1.2693
 1022MOL0     H34852   4.615  10.032  11.694 -0.6935 -1.5463  0.5430
 1022MOL0     H34853   4.319  10.034  11.761 -1.1353 -0.5703  3.8687
 1022MOL0     H34854   4.414   9.894  11.749 -0.8426 -0.6144 -0.5211
 1022MOL0     H34855   4.429   9.932  11.962 -1.8297 -0.0583 -2.3760
 1022MOL0     H34856   4.410  10.101  11.961 -0.6872 -0.1444  0.2901
 1022MOL0     H34857   4.644  10.250  11.892 -0.9881  0.3880  0.4531
 1022MOL0     H34858   4.990  10.197  12.056 -1.4982 -0.6784  1.0365
 1022MOL0     H34859   4.886  10.320  11.991  0.6013  0.3495  1.8257
 1022MOL0     H34860   5.056  10.313  11.843  1.7496 -0.5759 -0.9296
 1022MOL0     H34861   4.922  10.232  11.768 -1.3219  1.0000  1.7220
 1022MOL0     H34862   5.038  10.004  11.858 -1.4165 -0.9130 -1.0796
 1022MOL0     H34863   5.138  10.086  11.738 -1.4999 -0.0450 -0.8074
 1022MOL0     H34864   5.187  10.109  12.046  2.2933  2.9647  1.0025
 1022MOL0     H34865   5.241  10.222  11.932 -1.4149  0.0604 -2.5327
 1022MOL0     H34866   5.370  10.176  12.126 -0.5124 -0.5903 -2.0484
 1022MOL0     H34867   5.584  10.227  12.233  0.0950  0.2941 -0.5010
 1022MOL0     H34868   6.060  10.323  12.224  1.3066 -0.0221  2.1016
 1022MOL0     H34869   6.277  10.328  12.261  0.7066 -0.2447 -0.0841
 1022MOL0     H34870   6.558  10.087  12.037  1.8790 -3.0270 -1.0195
 1022MOL0     H34871   6.582   9.981  12.178 -1.5161  0.7337 -0.1765
 1022MOL0     H34872   6.769  10.121  12.253  0.6230  1.0006 -0.0628
 1022MOL0     H34873   6.706  10.257  12.164  0.8882  0.9450  1.0460
 1022MOL0     H34874   6.877  10.181  12.039 -1.3274  0.9308  1.2945
 1022MOL0     H34875   6.741  10.152  11.943  0.8292 -0.4156 -1.2241
 1022MOL0     H34876   6.929   9.964  12.076  0.1281  2.0215  0.3645
 1022MOL0     H34877   6.766   9.899  12.055  1.8603 -2.2553 -2.6640
 1022MOL0     H34878   6.961  10.024  11.854 -0.8670  0.9807 -1.2980
 1022MOL0     H34879   6.794   9.965  11.813 -0.9019 -4.3937 -0.6807
 1022MOL0     H34880   6.839   9.745  11.871  0.3865 -1.1833 -1.7961
 1022MOL0     H34881   7.006   9.770  11.904 -0.1953 -0.2606 -0.4999
 1022MOL0     H34882   6.849   9.823  11.657 -0.1926  0.8978  1.3612
 1022MOL0     H34883   7.013   9.884  11.666 -2.9582  4.0600  1.4660
 1022MOL0     H34884   6.978   9.691  11.527 -0.7359  3.1116  0.7239
 1022MOL0     H34885   6.897   9.595  11.660  2.5167 -3.3389 -2.3197
 1022MOL0     H34886   6.353   9.937  12.093 -0.9822  1.2414 -2.8589
 1022MOL0     H34887   6.099   9.931  12.058 -1.1748  1.1977 -0.3779
 1022MOL0     H34888   5.777  10.010  11.916  0.8970 -0.8776  1.3856
 1022MOL0     H34889   5.581   9.950  11.822  0.9281 -0.0658 -0.6080
 1022MOL0     H34890   5.131  10.269  11.474  0.4090 -0.3473  0.8894
 1022MOL0     H34891   5.406  10.253  11.450 -1.1551 -1.9744  2.1519
 1022MOL0     H34892   5.704  10.476  10.982 -0.6813  1.2518  1.1700
 1022MOL0     H34893   5.947  10.522  10.988 -2.7656  0.8591  0.0629
 1022MOL0     H34894   6.302  10.424  11.274 -0.6659  4.5534 -1.3986
 1022MOL0     H34895   6.161  10.320  11.334 -3.4463  1.0010 -0.6462
 1022MOL0     H34896   6.029  10.504  11.374 -0.4289 -0.3023 -3.6757
 1022MOL0     H34897   6.180  10.532  11.457  0.7618  0.8727  0.3826
 1022MOL0     H34898   6.107  10.695  11.221 -2.2352  0.7159  1.1014
 1022MOL0     H34899   6.279  10.682  11.298  0.8186 -0.8877  0.3771
 1022MOL0     H34900   6.160  10.768  11.511 -2.9004 -0.8034  0.3710
 1022MOL0     H34901   6.145  10.869  11.366  0.9660 -0.7710 -2.2254
 1022MOL0     H34902   5.748  10.770  11.507 -0.8796 -3.2381 -0.4977
 1022MOL0     H34903   5.986  10.219  11.306 -2.8627 -2.9621 -0.4811
 1022MOL0     H34904   5.755  10.183  11.298  1.3642  1.4202  2.5605
 1023MOL0     O34905   0.660   6.982   6.217  0.7332  0.3610  0.6739
 1023MOL0     C34906   0.637   7.028   6.328  0.5372 -0.1403 -0.1333
 1023MOL0     O34907   0.732   7.065   6.423 -1.1013  0.3201  0.7523
 1023MOL0     C34908   0.862   7.041   6.384 -0.0507 -0.6105  0.0006
 1023MOL0     C34909   0.931   6.954   6.461 -0.6479 -0.2490  0.1356
 1023MOL0     C34910   1.058   6.905   6.430  0.1993  0.2553  0.7618
 1023MOL0     C34911   1.114   6.940   6.310 -0.4476  0.4590 -0.5234
 1023MOL0     O34912   1.230   6.868   6.272  0.7128  1.0266  0.3798
 1023MOL0     C34913   1.333   6.944   6.201 -0.0441  0.8617  0.3724
 1023MOL0     C34914   1.420   6.841   6.126  0.6515 -0.1555 -0.1403
 1023MOL0     C34915   1.541   6.884   6.050 -0.0572 -0.1359 -0.3690
 1023MOL0     C34916   1.590   6.775   5.959 -0.1798  0.8416  0.9527
 1023MOL0     C34917   1.714   6.819   5.886  0.2890 -0.5867  0.2592
 1023MOL0     C34918   1.724   6.738   5.753  1.0966 -0.4975 -0.4587
 1023MOL0     C34919   1.857   6.773   5.683  0.4184 -0.6420  0.1373
 1023MOL0     C34920   1.987   6.777   5.761  0.1525  0.0834  0.1026
 1023MOL0     N34921   2.105   6.755   5.669  0.0058  0.1456 -0.5285
 1023MOL0     C34922   2.114   6.660   5.570  0.1327  0.0707  0.2068
 1023MOL0     C34923   2.244   6.662   5.532 -0.1368 -0.0248  0.1137
 1023MOL0     C34924   2.321   6.563   5.452 -0.1425  0.2256  0.5068
 1023MOL0     C34925   2.269   6.418   5.468  0.8049 -0.0880 -0.1241
 1023MOL0     C34926   2.322   6.339   5.584  0.2899 -0.3369  0.1253
 1023MOL0     C34927   2.264   6.394   5.712 -1.3701  0.0243 -0.3934
 1023MOL0     O34928   2.125   6.375   5.729 -0.1697  1.1593  0.8025
 1023MOL0     C34929   2.063   6.418   5.848  0.8837 -0.5023  0.5374
 1023MOL0     C34930   1.922   6.425   5.847 -0.2355  1.0337  0.4805
 1023MOL0     C34931   1.856   6.469   5.961  1.1962  0.3857 -0.0978
 1023MOL0     C34932   1.925   6.517   6.066 -0.7213  0.4684 -0.3049
 1023MOL0     C34933   1.861   6.555   6.191  0.4843 -0.2793 -0.5722
 1023MOL0     O34934   1.729   6.506   6.203  0.1815 -0.0621  0.3194
 1023MOL0     C34935   1.642   6.556   6.301 -0.1190 -0.3707 -0.3559
 1023MOL0     C34936   1.660   6.686   6.360 -0.3061  0.0161 -0.0988
 1023MOL0     C34937   1.565   6.740   6.453  0.1986  0.2923 -0.2124
 1023MOL0     C34938   1.462   6.659   6.501  0.1875 -0.3716 -0.8719
 1023MOL0     O34939   1.383   6.720   6.589 -1.1178 -0.1860 -0.0262
 1023MOL0     C34940   1.279   6.626   6.633 -0.3485 -0.3967 -0.0096
 1023MOL0     C34941   1.199   6.700   6.733  0.1447  0.0352  0.2027
 1023MOL0     C34942   1.089   6.611   6.797  0.7708  0.0203 -0.1239
 1023MOL0     C34943   1.006   6.670   6.908  0.2581  0.4939 -0.1816
 1023MOL0     C34944   0.888   6.753   6.852 -0.2202 -0.1706 -0.8770
 1023MOL0     C34945   0.779   6.669   6.786 -1.1872 -0.7966 -0.3517
 1023MOL0     C34946   0.677   6.768   6.736  0.0964  0.6861  0.4827
 1023MOL0     C34947   0.586   6.808   6.849  1.0886 -0.2335  0.4712
 1023MOL0    Cl34948   0.464   6.906   6.773  0.1518  0.1253 -0.0460
 1023MOL0     C34949   1.445   6.538   6.430  0.4865 -0.6719  0.4252
 1023MOL0     C34950   1.532   6.486   6.333 -0.6870 -0.2706 -0.7024
 1023MOL0     O34951   1.925   6.611   6.279  0.3464 -0.2124  0.2234
 1023MOL0     C34952   2.070   6.498   6.070 -0.0990 -0.3694 -0.1190
 1023MOL0     C34953   2.138   6.448   5.964  0.4805 -0.0862  0.6668
 1023MOL0     N34954   2.314   6.760   5.598  0.1120  0.6434  0.7560
 1023MOL0     N34955   2.229   6.812   5.687 -0.3643  0.3606 -0.1068
 1023MOL0     C34956   1.048   7.032   6.232  0.3400  0.1304 -0.8097
 1023MOL0     C34957   0.931   7.082   6.268  0.1849 -0.7416 -0.0297
 1023MOL0     C34958   0.500   7.062   6.374 -0.0730  1.2067 -0.4544
 1023MOL0     C34959   0.471   7.109   6.507 -0.4591 -0.0579  0.1107
 1023MOL0     C34960   0.336   7.138   6.538 -0.2055 -0.0872 -0.5661
 1023MOL0     C34961   0.225   7.131   6.453 -0.5376 -0.0754  0.6727
 1023MOL0     O34962   0.105   7.178   6.495 -0.9302 -0.7349  0.0582
 1023MOL0     C34963  -0.007   7.192   6.418 -0.1075  0.5981 -0.2438
 1023MOL0     C34964  -0.081   7.053   6.402  0.4826 -0.5977  0.0157
 1023MOL0     C34965  -0.191   7.066   6.300 -0.1340 -0.4944  0.2578
 1023MOL0     C34966  -0.297   6.956   6.297  0.0618  0.1948 -0.4177
 1023MOL0     C34967  -0.396   6.989   6.195  0.4245 -1.0910  0.6637
 1023MOL0     C34968  -0.461   6.999   6.090 -0.6420 -1.0197 -0.5114
 1023MOL0     C34969   0.260   7.086   6.318  0.1674  0.1023 -0.1363
 1023MOL0     C34970   0.392   7.042   6.282  0.2796 -0.9039 -0.2941
 1023MOL0     H34971   0.893   6.904   6.550  3.7487 -2.4271  1.0836
 1023MOL0     H34972   1.080   6.821   6.496  0.1801 -2.2196 -2.1407
 1023MOL0     H34973   1.401   6.994   6.270  0.1061  0.7464  0.3099
 1023MOL0     H34974   1.296   7.014   6.126  0.2940 -0.4972 -1.1206
 1023MOL0     H34975   1.351   6.787   6.060  0.0858 -0.5816  0.7783
 1023MOL0     H34976   1.459   6.768   6.197  1.0685  0.5946  0.4148
 1023MOL0     H34977   1.624   6.908   6.118  1.9879 -1.1516 -2.4001
 1023MOL0     H34978   1.520   6.982   6.005 -3.0951  0.9215  2.8264
 1023MOL0     H34979   1.615   6.693   6.027 -0.6319 -1.0468 -1.0478
 1023MOL0     H34980   1.522   6.746   5.878  1.6831  0.9203 -0.7316
 1023MOL0     H34981   1.792   6.796   5.959 -1.0482 -1.6824  1.4052
 1023MOL0     H34982   1.706   6.927   5.873 -1.1742 -0.8265 -1.1993
 1023MOL0     H34983   1.653   6.770   5.677  1.2608 -1.0763 -0.8567
 1023MOL0     H34984   1.712   6.630   5.765  0.9177 -0.3137  1.4180
 1023MOL0     H34985   1.878   6.712   5.595  0.4800  1.7117 -1.5727
 1023MOL0     H34986   1.832   6.867   5.632 -2.5097 -2.0593 -1.3368
 1023MOL0     H34987   1.979   6.695   5.833 -1.4342  1.8120  2.0221
 1023MOL0     H34988   2.002   6.872   5.813 -1.8723  0.3932  0.2291
 1023MOL0     H34989   2.046   6.576   5.562  0.9931 -0.4605 -2.2370
 1023MOL0     H34990   2.424   6.565   5.488 -0.5349 -0.0668  1.6954
 1023MOL0     H34991   2.324   6.588   5.346  0.1813 -1.2362  0.1522
 1023MOL0     H34992   2.300   6.374   5.373  0.7684  3.4991 -1.9376
 1023MOL0     H34993   2.161   6.402   5.472  1.1189 -3.1741 -0.9168
 1023MOL0     H34994   2.282   6.240   5.561 -1.8484  0.7449 -1.1737
 1023MOL0     H34995   2.432   6.334   5.577  0.2993  1.1778 -1.6899
 1023MOL0     H34996   2.287   6.501   5.718 -2.0060  0.1822 -0.6151
 1023MOL0     H34997   2.314   6.343   5.795  0.1551  0.0408 -1.2614
 1023MOL0     H34998   1.871   6.397   5.756 -0.0478 -1.6341  1.1275
 1023MOL0     H34999   1.748   6.476   5.952  0.9801 -0.8954  1.1543
 1023MOL0     H35000   1.743   6.752   6.336  0.1180  0.4003  2.1980
 1023MOL0     H35001   1.585   6.841   6.487 -2.0739  0.2697  1.4150
 1023MOL0     H35002   1.323   6.535   6.674  0.5353 -0.9602 -2.1116
 1023MOL0     H35003   1.210   6.602   6.551 -1.3827  3.1642 -0.3565
 1023MOL0     H35004   1.151   6.791   6.697 -1.7917 -0.9158  0.2304
 1023MOL0     H35005   1.275   6.735   6.804  0.2516  2.0944 -0.8554
 1023MOL0     H35006   1.141   6.525   6.839 -0.1245 -0.2761  0.4148
 1023MOL0     H35007   1.024   6.562   6.724  1.9840  1.0444 -1.9635
 1023MOL0     H35008   0.968   6.579   6.958 -2.9172  0.8172 -1.7558
 1023MOL0     H35009   1.067   6.740   6.966  1.5551 -0.6321 -0.1411
 1023MOL0     H35010   0.930   6.830   6.787  2.4587  1.3233  2.3764
 1023MOL0     H35011   0.844   6.806   6.937 -0.1316 -2.5805  0.7599
 1023MOL0     H35012   0.745   6.591   6.855 -0.0308 -1.3212 -0.3457
 1023MOL0     H35013   0.816   6.616   6.698  0.7616  1.6502 -1.1389
 1023MOL0     H35014   0.722   6.860   6.696 -1.2967  0.8392 -0.8280
 1023MOL0     H35015   0.618   6.727   6.654  0.3003  2.9170 -0.8557
 1023MOL0     H35016   0.628   6.864   6.933  0.8527  1.8693 -0.7294
 1023MOL0     H35017   0.551   6.715   6.895 -1.5934  1.1717  1.5359
 1023MOL0     H35018   1.357   6.477   6.446 -0.4375  0.2851 -0.7702
 1023MOL0     H35019   1.493   6.392   6.294  1.3921 -1.1559 -0.7922
 1023MOL0     H35020   2.117   6.509   6.167 -0.0478 -1.5986 -0.0007
 1023MOL0     H35021   2.246   6.444   5.978  0.4388  0.1297  1.0561
 1023MOL0     H35022   1.090   7.062   6.137  1.5037 -3.0365 -1.4071
 1023MOL0     H35023   0.889   7.143   6.189  1.3894 -1.1344 -0.9909
 1023MOL0     H35024   0.546   7.112   6.585 -1.6813  0.7263  1.3061
 1023MOL0     H35025   0.320   7.177   6.638 -0.0900  1.7085 -1.2167
 1023MOL0     H35026   0.019   7.230   6.319 -1.1983  0.0450 -0.7625
 1023MOL0     H35027  -0.072   7.260   6.474  1.0621  1.2560  0.3513
 1023MOL0     H35028  -0.001   6.983   6.375  0.4400 -0.1921 -1.2211
 1023MOL0     H35029  -0.130   7.013   6.491 -0.3307 -0.8832 -0.5514
 1023MOL0     H35030  -0.150   7.097   6.203  0.6407  1.9367  1.2826
 1023MOL0     H35031  -0.240   7.159   6.330  1.1727  0.3915 -0.2313
 1023MOL0     H35032  -0.252   6.857   6.285 -0.4649 -0.1437  0.3506
 1023MOL0     H35033  -0.361   6.966   6.385  0.1479 -1.6642 -0.0954
 1023MOL0     H35034  -0.516   7.015   5.999  0.2066 -0.6780 -0.9734
 1023MOL0     H35035   0.189   7.080   6.236  0.1776 -0.6919 -0.0898
 1023MOL0     H35036   0.408   7.008   6.180 -2.4754 -3.3141 -0.0175
 1024MOL0     O35037   3.535  10.151   0.974  0.3562 -0.0458  0.6902
 1024MOL0     C35038   3.563  10.235   1.056  0.0820  0.1232 -0.1330
 1024MOL0     O35039   3.478  10.290   1.147  0.2430  0.3713 -0.7214
 1024MOL0     C35040   3.343  10.280   1.140  0.0458 -0.4106  0.7967
 1024MOL0     C35041   3.265  10.302   1.255 -0.3294  0.1107  0.7245
 1024MOL0     C35042   3.128  10.302   1.248  0.0224 -0.0666 -0.5507
 1024MOL0     C35043   3.059  10.285   1.131 -0.2351 -0.3303 -0.4012
 1024MOL0     O35044   2.918  10.301   1.131 -0.6889 -0.0525 -0.3056
 1024MOL0     C35045   2.851  10.270   1.011 -0.6600  0.1546  0.0346
 1024MOL0     C35046   2.698  10.265   1.020  0.0396  0.4917 -0.3834
 1024MOL0     C35047   2.631  10.391   0.966  0.0200  0.4136  0.3067
 1024MOL0     C35048   2.477  10.385   0.963 -0.1767  0.3676 -0.6475
 1024MOL0     C35049   2.419  10.502   0.876  0.2485  0.0783 -0.1789
 1024MOL0     C35050   2.486  10.639   0.913  0.1130  0.3724 -0.0893
 1024MOL0     C35051   2.415  10.758   0.867 -0.6408 -0.0496  0.3818
 1024MOL0     C35052   2.423  10.774   0.713  0.3289  0.4566  0.8657
 1024MOL0     N35053   2.360  10.894   0.664 -0.8736 -0.3199  0.4361
 1024MOL0     C35054   2.412  11.019   0.642  0.2870  0.0486  0.1093
 1024MOL0     C35055   2.320  11.094   0.580  0.3642  0.2249 -0.4456
 1024MOL0     C35056   2.338  11.236   0.527 -0.1057 -0.3687  0.1970
 1024MOL0     C35057   2.330  11.243   0.378  0.2526  0.3803  0.4188
 1024MOL0     C35058   2.362  11.378   0.327 -0.7275 -0.7605  0.2510
 1024MOL0     C35059   2.318  11.391   0.189 -0.7668  0.1580  0.3090
 1024MOL0     O35060   2.191  11.339   0.142  0.1674  0.6035  0.3215
 1024MOL0     C35061   2.066  11.391   0.190 -0.4206  0.6830 -1.0911
 1024MOL0     C35062   2.047  11.496   0.287 -0.0587  0.4003 -0.5000
 1024MOL0     C35063   1.919  11.530   0.332  0.4524  0.7239 -0.3610
 1024MOL0     C35064   1.807  11.466   0.277  0.1284 -1.3113 -0.2562
 1024MOL0     C35065   1.668  11.492   0.321 -0.2220  0.7628  0.1828
 1024MOL0     O35066   1.564  11.468   0.236 -0.3461  0.0701  0.2386
 1024MOL0     C35067   1.437  11.494   0.285 -1.1219 -0.4240  0.4430
 1024MOL0     C35068   1.348  11.392   0.328  0.7892  0.1205  0.9404
 1024MOL0     C35069   1.225  11.426   0.377 -0.5038 -0.6311  0.3496
 1024MOL0     C35070   1.183  11.561   0.379  0.1709 -0.1584  0.3365
 1024MOL0     O35071   1.061  11.609   0.420 -0.0390  0.1204 -0.7400
 1024MOL0     C35072   0.954  11.517   0.439  0.3424 -0.2380  0.0934
 1024MOL0     C35073   0.837  11.600   0.466  0.2786 -0.4062 -0.6759
 1024MOL0     C35074   0.706  11.525   0.499 -0.1595 -0.2337  0.3223
 1024MOL0     C35075   0.585  11.606   0.470  0.4117 -0.6624  0.0349
 1024MOL0     C35076   0.562  11.736   0.551 -0.0175 -0.0835 -0.0214
 1024MOL0     C35077   0.412  11.772   0.519 -0.2798 -0.5565 -0.3640
 1024MOL0     C35078   0.369  11.914   0.552 -0.6550  0.5029 -0.4945
 1024MOL0     C35079   0.246  11.960   0.486  0.4390 -0.0033 -0.1750
 1024MOL0    Cl35080   0.106  11.868   0.543 -0.0176  0.0109 -0.0794
 1024MOL0     C35081   1.265  11.650   0.323 -0.7009 -0.0096  0.3113
 1024MOL0     C35082   1.391  11.625   0.276 -0.9117 -0.2004 -0.3561
 1024MOL0     O35083   1.667  11.555   0.423  0.3396 -0.0455 -0.1823
 1024MOL0     C35084   1.829  11.365   0.181 -0.0330 -0.3240 -0.1867
 1024MOL0     C35085   1.957  11.324   0.152 -0.0331  0.8390 -0.1948
 1024MOL0     N35086   2.209  11.012   0.564  0.0559  0.1746  0.2756
 1024MOL0     N35087   2.230  10.894   0.611 -0.6307  0.1875 -0.3475
 1024MOL0     C35088   3.131  10.262   1.014 -0.9844  0.2964  0.1857
 1024MOL0     C35089   3.271  10.262   1.021  0.0034  0.5297 -0.1967
 1024MOL0     C35090   3.702  10.299   1.044  0.9131  0.2034  0.9679
 1024MOL0     C35091   3.734  10.422   1.107 -0.2732  0.1244 -0.3785
 1024MOL0     C35092   3.866  10.473   1.090  1.3266 -0.6446  0.9341
 1024MOL0     C35093   3.964  10.410   1.018  0.8161 -0.0683 -0.0823
 1024MOL0     O35094   4.077  10.484   0.990 -0.9810  0.1981 -0.2910
 1024MOL0     C35095   4.181  10.438   0.902  0.0026 -0.6560 -0.1883
 1024MOL0     C35096   4.310  10.414   0.988  0.6026  0.1865  0.2546
 1024MOL0     C35097   4.428  10.408   0.886 -0.5469 -0.1545 -0.8019
 1024MOL0     C35098   4.556  10.350   0.938 -0.9277  0.4624  0.7060
 1024MOL0     C35099   4.594  10.394   1.078  0.1922  0.8724 -0.1436
 1024MOL0     C35100   4.613  10.430   1.195 -0.2901 -0.8366 -0.1492
 1024MOL0     C35101   3.928  10.291   0.942  0.5743 -0.1960 -1.3650
 1024MOL0     C35102   3.804  10.232   0.969  0.2418 -0.0470 -0.8749
 1024MOL0     H35103   3.317  10.329   1.346  0.0247 -0.8889  0.8320
 1024MOL0     H35104   3.062  10.330   1.330  1.9350  0.7947  0.7643
 1024MOL0     H35105   2.883  10.175   0.967  0.8471  0.5682  0.2116
 1024MOL0     H35106   2.886  10.346   0.940  4.5431 -0.1815  1.8792
 1024MOL0     H35107   2.684  10.248   1.127 -0.6378 -0.8128 -0.6501
 1024MOL0     H35108   2.664  10.171   0.974 -2.3207  2.2027 -2.3764
 1024MOL0     H35109   2.664  10.409   0.864 -1.4328 -0.2777 -0.3114
 1024MOL0     H35110   2.660  10.481   1.022 -2.2257  0.6361  1.2397
 1024MOL0     H35111   2.462  10.299   0.896  0.6043  0.4383 -0.9283
 1024MOL0     H35112   2.422  10.372   1.056 -2.1263 -0.9445 -1.9150
 1024MOL0     H35113   2.310  10.507   0.884  0.2271  0.2212 -0.5525
 1024MOL0     H35114   2.437  10.475   0.771 -0.9023 -0.7255 -0.1957
 1024MOL0     H35115   2.585  10.642   0.866  1.1375  2.3687  2.0245
 1024MOL0     H35116   2.504  10.661   1.019 -1.5696  2.6696 -0.2034
 1024MOL0     H35117   2.309  10.763   0.893 -1.3503  0.4175 -2.2741
 1024MOL0     H35118   2.453  10.846   0.920 -1.6041  0.6578 -0.0587
 1024MOL0     H35119   2.389  10.682   0.664  2.2311 -0.8499  1.8623
 1024MOL0     H35120   2.529  10.783   0.690  0.8155 -1.6527  1.9947
 1024MOL0     H35121   2.513  11.046   0.670 -0.1569  0.0334  1.8233
 1024MOL0     H35122   2.433  11.271   0.568  0.3107 -0.8716 -0.3382
 1024MOL0     H35123   2.270  11.311   0.569  0.0036  0.7385 -1.5097
 1024MOL0     H35124   2.228  11.215   0.351  0.9693 -0.1523 -1.9444
 1024MOL0     H35125   2.392  11.166   0.331  1.1953  1.6969 -0.5732
 1024MOL0     H35126   2.306  11.452   0.386  0.8767  1.7186 -1.1502
 1024MOL0     H35127   2.466  11.408   0.340 -0.6514 -1.8997  2.9786
 1024MOL0     H35128   2.395  11.333   0.137  0.0060  1.4823 -0.0652
 1024MOL0     H35129   2.322  11.498   0.165 -1.6997  0.4191  1.2620
 1024MOL0     H35130   2.133  11.553   0.319 -0.4640  0.6405  0.1855
 1024MOL0     H35131   1.914  11.610   0.405  0.0413  0.3449  0.0308
 1024MOL0     H35132   1.385  11.291   0.314 -1.0946 -0.1647 -4.8074
 1024MOL0     H35133   1.162  11.349   0.421  1.2240 -1.6271  1.2066
 1024MOL0     H35134   0.984  11.446   0.517  1.8000  0.0836 -0.1533
 1024MOL0     H35135   0.937  11.462   0.346  0.9094  2.5038 -1.7354
 1024MOL0     H35136   0.814  11.668   0.384 -0.9856 -0.2158 -0.1891
 1024MOL0     H35137   0.861  11.667   0.549 -1.1048  0.1212 -0.6668
 1024MOL0     H35138   0.698  11.511   0.607 -3.2161 -1.1820  0.0537
 1024MOL0     H35139   0.708  11.432   0.442  1.8388  0.1333 -0.2721
 1024MOL0     H35140   0.596  11.639   0.367  1.5981 -4.0191 -1.0639
 1024MOL0     H35141   0.499  11.541   0.492 -0.4512  0.3859 -0.1683
 1024MOL0     H35142   0.624  11.821   0.521 -0.7332  0.5331  0.2099
 1024MOL0     H35143   0.583  11.724   0.657  0.4463  2.0245  0.1690
 1024MOL0     H35144   0.351  11.696   0.568  1.5993  0.2163  3.6278
 1024MOL0     H35145   0.394  11.765   0.411 -0.0579 -2.5905 -0.3112
 1024MOL0     H35146   0.363  11.915   0.661  4.7604 -1.7602  0.1681
 1024MOL0     H35147   0.442  11.988   0.518  0.1142  0.4439  0.9477
 1024MOL0     H35148   0.257  11.934   0.381  0.0537  0.6454 -0.3780
 1024MOL0     H35149   0.225  12.066   0.504 -1.9773 -0.2198 -1.2969
 1024MOL0     H35150   1.241  11.756   0.328  2.6782  0.9434 -1.2874
 1024MOL0     H35151   1.441  11.707   0.227  0.5606 -0.9377 -0.1506
 1024MOL0     H35152   1.741  11.319   0.138 -1.2158  1.1581  0.5229
 1024MOL0     H35153   1.963  11.231   0.096 -0.4514  1.7191 -1.7347
 1024MOL0     H35154   3.085  10.251   0.917  0.5486  1.0627 -0.6722
 1024MOL0     H35155   3.331  10.253   0.931  0.0231  3.1547 -0.5166
 1024MOL0     H35156   3.656  10.477   1.157 -0.5551  0.1850 -0.8785
 1024MOL0     H35157   3.886  10.569   1.135  2.3124  0.3660 -1.5283
 1024MOL0     H35158   4.193  10.525   0.837 -1.6139  0.0659  0.4274
 1024MOL0     H35159   4.167  10.344   0.847  1.6014 -0.6984 -0.5600
 1024MOL0     H35160   4.333  10.494   1.058  3.3284  0.6917 -1.0642
 1024MOL0     H35161   4.303  10.317   1.038 -1.5864 -0.5056 -1.2428
 1024MOL0     H35162   4.454  10.512   0.862  1.5879 -0.1936  1.0613
 1024MOL0     H35163   4.403  10.362   0.790 -0.5894 -1.3563 -0.2238
 1024MOL0     H35164   4.528  10.245   0.937 -2.3116  0.8171 -0.0658
 1024MOL0     H35165   4.638  10.363   0.867 -1.5093 -1.5452 -0.3818
 1024MOL0     H35166   4.611  10.460   1.298  0.2387 -0.4452 -0.2476
 1024MOL0     H35167   3.997  10.247   0.870 -0.1270 -0.3200 -1.9789
 1024MOL0     H35168   3.781  10.140   0.916 -1.7044  0.4972 -1.0646
  11.22643  11.22643  11.22643
